Title t= 132.00000 step= 66000
46055
    1GLY      N    1   2.471   2.612   1.421
    1GLY    HT1    2   2.498   2.547   1.497
    1GLY    HT2    3   2.368   2.605   1.402
    1GLY    HT3    4   2.504   2.707   1.445
    1GLY     CA    5   2.538   2.558   1.300
    1GLY    HA1    6   2.507   2.618   1.216
    1GLY    HA2    7   2.499   2.457   1.301
    1GLY      C    8   2.687   2.544   1.329
    1GLY      O    9   2.731   2.431   1.332
    2PRO      N   10   2.771   2.644   1.334
    2PRO     CD   11   2.745   2.775   1.268
    2PRO    HD1   12   2.686   2.851   1.324
    2PRO    HD2   13   2.700   2.764   1.167
    2PRO     CA   14   2.907   2.641   1.390
    2PRO     HA   15   2.959   2.565   1.334
    2PRO     CB   16   2.964   2.782   1.377
    2PRO    HB1   17   3.074   2.782   1.359
    2PRO    HB2   18   2.929   2.838   1.466
    2PRO     CG   19   2.884   2.841   1.263
    2PRO    HG1   20   2.866   2.950   1.251
    2PRO    HG2   21   2.913   2.797   1.165
    2PRO      C   22   2.929   2.603   1.533
    2PRO      O   23   2.837   2.614   1.611
    3GLY      N   24   3.054   2.563   1.570
    3GLY     HN   25   3.120   2.555   1.496
    3GLY     CA   26   3.100   2.543   1.712
    3GLY    HA1   27   3.208   2.549   1.707
    3GLY    HA2   28   3.074   2.443   1.745
    3GLY      C   29   3.061   2.650   1.822
    3GLY      O   30   3.054   2.770   1.798
    4ALA      N   31   3.026   2.599   1.946
    4ALA     HN   32   3.039   2.502   1.968
    4ALA     CA   33   2.966   2.674   2.050
    4ALA     HA   34   2.878   2.711   1.999
    4ALA     CB   35   2.913   2.579   2.156
    4ALA    HB1   36   2.808   2.614   2.170
    4ALA    HB2   37   2.963   2.585   2.255
    4ALA    HB3   38   2.906   2.471   2.129
    4ALA      C   39   3.027   2.800   2.108
    4ALA      O   40   3.146   2.807   2.130
    5PRO      N   41   2.960   2.911   2.131
    5PRO     CD   42   2.820   2.935   2.092
    5PRO    HD1   43   2.753   2.875   2.158
    5PRO    HD2   44   2.801   2.900   1.988
    5PRO     CA   45   3.011   3.009   2.219
    5PRO     HA   46   3.101   3.053   2.178
    5PRO     CB   47   2.900   3.108   2.232
    5PRO    HB1   48   2.942   3.211   2.239
    5PRO    HB2   49   2.839   3.091   2.323
    5PRO     CG   50   2.812   3.081   2.109
    5PRO    HG1   51   2.707   3.118   2.116
    5PRO    HG2   52   2.858   3.124   2.018
    5PRO      C   53   3.039   2.962   2.361
    5PRO      O   54   2.980   2.870   2.414
    6GLY      N   55   3.129   3.040   2.432
    6GLY     HN   56   3.161   3.121   2.385
    6GLY     CA   57   3.161   3.031   2.576
    6GLY    HA1   58   3.259   3.071   2.595
    6GLY    HA2   59   3.166   2.924   2.592
    6GLY      C   60   3.051   3.102   2.660
    6GLY      O   61   2.960   3.159   2.593
    7PRO      N   62   3.047   3.102   2.791
    7PRO     CD   63   3.147   3.026   2.863
    7PRO    HD1   64   3.248   3.070   2.848
    7PRO    HD2   65   3.139   2.918   2.836
    7PRO     CA   66   2.968   3.182   2.874
    7PRO     HA   67   2.866   3.154   2.853
    7PRO     CB   68   3.019   3.157   3.017
    7PRO    HB1   69   2.941   3.157   3.096
    7PRO    HB2   70   3.084   3.242   3.047
    7PRO     CG   71   3.095   3.035   3.006
    7PRO    HG1   72   3.181   3.040   3.076
    7PRO    HG2   73   3.031   2.950   3.039
    7PRO      C   74   2.980   3.330   2.846
    7PRO      O   75   3.093   3.382   2.843
    8GLY      N   76   2.863   3.411   2.839
    8GLY     HN   77   2.778   3.359   2.841
    8GLY     CA   78   2.861   3.560   2.814
    8GLY    HA1   79   2.758   3.592   2.815
    8GLY    HA2   80   2.913   3.586   2.723
    8GLY      C   81   2.925   3.646   2.919
    8GLY      O   82   2.980   3.593   3.021
    9ALA      N   83   2.908   3.773   2.919
    9ALA     HN   84   2.849   3.817   2.852
    9ALA     CA   85   2.959   3.870   3.017
    9ALA     HA   86   3.061   3.835   3.029
    9ALA     CB   87   2.947   4.011   2.967
    9ALA    HB1   88   3.017   4.036   2.884
    9ALA    HB2   89   2.970   4.071   3.058
    9ALA    HB3   90   2.843   4.039   2.937
    9ALA      C   91   2.883   3.848   3.155
    9ALA      O   92   2.762   3.818   3.162
   10PRO      N   93   2.948   3.889   3.265
   10PRO     CD   94   3.097   3.921   3.272
   10PRO    HD1   95   3.124   3.983   3.184
   10PRO    HD2   96   3.150   3.824   3.284
   10PRO     CA   97   2.891   3.890   3.397
   10PRO     HA   98   2.847   3.793   3.417
   10PRO     CB   99   3.010   3.921   3.492
   10PRO    HB1  100   3.052   3.832   3.543
   10PRO    HB2  101   2.981   3.996   3.569
   10PRO     CG  102   3.118   3.991   3.405
   10PRO    HG1  103   3.080   4.094   3.390
   10PRO    HG2  104   3.221   3.985   3.449
   10PRO      C  105   2.787   4.006   3.390
   10PRO      O  106   2.821   4.117   3.341
   11GLY      N  107   2.671   3.985   3.444
   11GLY     HN  108   2.658   3.891   3.474
   11GLY     CA  109   2.550   4.065   3.468
   11GLY    HA1  110   2.480   4.007   3.526
   11GLY    HA2  111   2.527   4.087   3.365
   11GLY      C  112   2.573   4.199   3.526
   11GLY      O  113   2.679   4.227   3.582
   12PRO      N  114   2.462   4.287   3.515
   12PRO     CD  115   2.359   4.263   3.412
   12PRO    HD1  116   2.288   4.179   3.430
   12PRO    HD2  117   2.412   4.247   3.316
   12PRO     CA  118   2.453   4.426   3.565
   12PRO     HA  119   2.523   4.476   3.499
   12PRO     CB  120   2.300   4.453   3.549
   12PRO    HB1  121   2.270   4.560   3.561
   12PRO    HB2  122   2.253   4.395   3.631
   12PRO     CG  123   2.281   4.398   3.411
   12PRO    HG1  124   2.176   4.377   3.384
   12PRO    HG2  125   2.321   4.477   3.343
   12PRO      C  126   2.500   4.440   3.705
   12PRO      O  127   2.482   4.345   3.789
   13GLY      N  128   2.550   4.554   3.743
   13GLY     HN  129   2.558   4.629   3.678
   13GLY     CA  130   2.595   4.582   3.881
   13GLY    HA1  131   2.689   4.635   3.880
   13GLY    HA2  132   2.600   4.488   3.934
   13GLY      C  133   2.501   4.662   3.959
   13GLY      O  134   2.381   4.655   3.948
   14ALA      N  135   2.563   4.739   4.055
   14ALA     HN  136   2.660   4.757   4.042
   14ALA     CA  137   2.493   4.816   4.156
   14ALA     HA  138   2.404   4.860   4.115
   14ALA     CB  139   2.466   4.730   4.281
   14ALA    HB1  140   2.556   4.705   4.342
   14ALA    HB2  141   2.419   4.632   4.259
   14ALA    HB3  142   2.402   4.787   4.352
   14ALA      C  143   2.573   4.937   4.198
   14ALA      O  144   2.692   4.934   4.184
   15PRO      N  145   2.512   5.050   4.238
   15PRO     CD  146   2.359   5.085   4.240
   15PRO    HD1  147   2.307   5.012   4.306
   15PRO    HD2  148   2.326   5.093   4.134
   15PRO     CA  149   2.592   5.166   4.276
   15PRO     HA  150   2.670   5.185   4.204
   15PRO     CB  151   2.489   5.282   4.273
   15PRO    HB1  152   2.467   5.314   4.169
   15PRO    HB2  153   2.518   5.379   4.319
   15PRO     CG  154   2.352   5.219   4.312
   15PRO    HG1  155   2.346   5.207   4.423
   15PRO    HG2  156   2.266   5.279   4.274
   15PRO      C  157   2.672   5.157   4.405
   15PRO    OT1  158   2.652   5.066   4.485
   15PRO    OT2  159   2.767   5.240   4.417
   16LIT    LIT  160   5.545   4.793   2.872
   17LIT    LIT  161   3.528   6.613   4.513
   18LIT    LIT  162   2.550   0.447   0.529
   19LIT    LIT  163   5.476   5.368   1.402
   20LIT    LIT  164   2.626   5.849   1.442
   21LIT    LIT  165   1.055   4.813   3.223
   22LIT    LIT  166   2.944   1.511   4.534
   23LIT    LIT  167   7.194   4.695   3.868
   24LIT    LIT  168   5.383   5.474   3.370
   25LIT    LIT  169   3.018   7.822   6.176
   26LIT    LIT  170   6.851   2.414   4.762
   27LIT    LIT  171   8.172   4.873   1.777
   28LIT    LIT  172   0.868   6.416   5.709
   29LIT    LIT  173   5.042   1.424   1.237
   30LIT    LIT  174   4.096   4.990   3.329
   31LIT    LIT  175   7.948   2.605   4.170
   32LIT    LIT  176   0.797   3.158   5.447
   33LIT    LIT  177   4.892   6.736   2.933
   34LIT    LIT  178   5.990   2.473   6.781
   35LIT    LIT  179   6.074   7.401   4.145
   36LIT    LIT  180   7.482   6.285   4.966
   37LIT    LIT  181   2.188   6.532   2.855
   38LIT    LIT  182   0.672   5.841   0.933
   39LIT    LIT  183   3.185   1.470   5.631
   40LIT    LIT  184   8.331   6.162   5.872
   41LIT    LIT  185   1.791   2.424   5.613
   42LIT    LIT  186   6.622   4.420   1.378
   43LIT    LIT  187   3.888   0.173   1.415
   44LIT    LIT  188   7.153   0.312   1.412
   45LIT    LIT  189   0.244   6.854   2.389
   46LIT    LIT  190   1.378   3.943   4.290
   47LIT    LIT  191   1.793   0.265   1.484
   48LIT    LIT  192   1.418   6.513   1.741
   49LIT    LIT  193   4.907   7.122   6.111
   50LIT    LIT  194   4.506   5.460   2.165
   51LIT    LIT  195   1.056   3.624   6.731
   52LIT    LIT  196   7.815   1.197   5.827
   53LIT    LIT  197   4.177   6.407   4.993
   54LIT    LIT  198   5.082   1.609   6.167
   55LIT    LIT  199   3.666   1.343   3.384
   56LIT    LIT  200   6.984   5.931   3.208
   57LIT    LIT  201   2.986   3.887   0.738
   58LIT    LIT  202   2.835   5.117   4.557
   59CLA    CLA  203   3.930   5.618   1.901
   60CLA    CLA  204   3.908   5.979   3.391
   61CLA    CLA  205   5.726   6.515   0.806
   62CLA    CLA  206   2.892   7.653   4.997
   63CLA    CLA  207   0.480   6.701   2.669
   64CLA    CLA  208   3.643   6.952   4.798
   65CLA    CLA  209   1.815   3.519   6.711
   66CLA    CLA  210   0.837   6.360   0.107
   67CLA    CLA  211   7.162   4.399   4.217
   68CLA    CLA  212   7.785   4.973   3.039
   69CLA    CLA  213   6.203   7.508   3.780
   70CLA    CLA  214   8.159   3.697   6.657
   71CLA    CLA  215   0.597   3.033   1.725
   72CLA    CLA  216   6.548   5.653   4.426
   73CLA    CLA  217   1.076   6.419   5.832
   74CLA    CLA  218   4.301   7.511   1.312
   75CLA    CLA  219   5.009   6.479   5.814
   76CLA    CLA  220   0.719   2.574   0.475
   77CLA    CLA  221   3.440   2.524   4.763
   78CLA    CLA  222   0.030   1.012   5.374
   79CLA    CLA  223   6.378   6.377   1.653
   80CLA    CLA  224   7.062   6.354   0.544
   81CLA    CLA  225   2.528   1.433   2.326
   82CLA    CLA  226   5.019   4.376   3.196
   83CLA    CLA  227   0.181   6.917   4.676
   84CLA    CLA  228   0.008   6.440   2.454
   85CLA    CLA  229   0.599   6.465   1.750
   86CLA    CLA  230   7.991   3.343   6.037
   87CLA    CLA  231   0.414   0.530   6.337
   88CLA    CLA  232   5.354   4.922   1.957
   89CLA    CLA  233   4.553   2.636   0.363
   90CLA    CLA  234   4.320   7.028   0.699
   91CLA    CLA  235   7.622   0.851   0.623
   92CLA    CLA  236   4.851   4.863   1.451
   93CLA    CLA  237   3.207   0.975   5.022
   94CLA    CLA  238   5.197   6.513   3.965
   95CLA    CLA  239   4.422   1.115   1.938
   96CLA    CLA  240   6.708   1.649   4.410
   97CLA    CLA  241   1.754   1.515   5.510
   98CLA    CLA  242   7.388   3.726   5.573
   99CLA    CLA  243   0.725   4.906   2.742
  100CLA    CLA  244   5.277   0.078   6.495
  101CLA    CLA  245   2.028   0.191   2.153
  102TIP3   OH2  246   4.903   6.762   4.877
  102TIP3    H1  247   4.828   6.719   4.837
  102TIP3    H2  248   4.954   6.796   4.803
  103TIP3   OH2  249   0.283   3.830   4.755
  103TIP3    H1  250   0.301   3.834   4.661
  103TIP3    H2  251   0.190   3.853   4.762
  104TIP3   OH2  252   3.331   2.942   4.621
  104TIP3    H1  253   3.399   2.976   4.680
  104TIP3    H2  254   3.249   2.953   4.669
  105TIP3   OH2  255   7.031   2.333   1.111
  105TIP3    H1  256   7.060   2.254   1.156
  105TIP3    H2  257   7.110   2.385   1.100
  106TIP3   OH2  258   2.427   6.347   1.381
  106TIP3    H1  259   2.362   6.308   1.440
  106TIP3    H2  260   2.495   6.279   1.372
  107TIP3   OH2  261   5.544   6.012   6.737
  107TIP3    H1  262   5.592   6.045   6.813
  107TIP3    H2  263   5.593   6.045   6.661
  108TIP3   OH2  264   4.074   7.179   0.095
  108TIP3    H1  265   4.107   7.130   0.170
  108TIP3    H2  266   4.008   7.122   0.055
  109TIP3   OH2  267   5.556   5.786   3.648
  109TIP3    H1  268   5.538   5.805   3.556
  109TIP3    H2  269   5.581   5.871   3.685
  110TIP3   OH2  270   4.228   2.473   0.767
  110TIP3    H1  271   4.286   2.475   0.843
  110TIP3    H2  272   4.270   2.532   0.704
  111TIP3   OH2  273   4.196   1.947   6.702
  111TIP3    H1  274   4.199   2.023   6.645
  111TIP3    H2  275   4.168   1.981   6.787
  112TIP3   OH2  276   2.358   7.339   3.781
  112TIP3    H1  277   2.453   7.343   3.789
  112TIP3    H2  278   2.331   7.429   3.765
  113TIP3   OH2  279   2.303   7.371   0.262
  113TIP3    H1  280   2.341   7.406   0.181
  113TIP3    H2  281   2.209   7.364   0.242
  114TIP3   OH2  282   3.229   2.244   1.552
  114TIP3    H1  283   3.243   2.263   1.459
  114TIP3    H2  284   3.289   2.304   1.598
  115TIP3   OH2  285   2.289   4.481   0.028
  115TIP3    H1  286   2.337   4.456  -0.051
  115TIP3    H2  287   2.353   4.473   0.099
  116TIP3   OH2  288   1.249   0.734   5.366
  116TIP3    H1  289   1.171   0.787   5.387
  116TIP3    H2  290   1.254   0.671   5.438
  117TIP3   OH2  291   2.800   3.019   6.714
  117TIP3    H1  292   2.845   3.090   6.759
  117TIP3    H2  293   2.816   2.942   6.769
  118TIP3   OH2  294   8.352   2.433   6.496
  118TIP3    H1  295   8.404   2.448   6.575
  118TIP3    H2  296   8.268   2.400   6.529
  119TIP3   OH2  297   5.593   5.333   6.430
  119TIP3    H1  298   5.596   5.289   6.515
  119TIP3    H2  299   5.670   5.301   6.383
  120TIP3   OH2  300   6.476   0.950   2.415
  120TIP3    H1  301   6.506   0.986   2.331
  120TIP3    H2  302   6.479   1.024   2.475
  121TIP3   OH2  303   0.201   5.894   6.487
  121TIP3    H1  304   0.200   5.828   6.417
  121TIP3    H2  305   0.238   5.972   6.446
  122TIP3   OH2  306   1.423   1.662   2.671
  122TIP3    H1  307   1.361   1.600   2.709
  122TIP3    H2  308   1.466   1.703   2.746
  123TIP3   OH2  309   5.976   6.993   2.737
  123TIP3    H1  310   5.935   7.011   2.821
  123TIP3    H2  311   5.969   6.898   2.726
  124TIP3   OH2  312   5.727   3.342   2.824
  124TIP3    H1  313   5.633   3.349   2.839
  124TIP3    H2  314   5.735   3.301   2.738
  125TIP3   OH2  315   2.676   5.111   6.216
  125TIP3    H1  316   2.692   5.146   6.129
  125TIP3    H2  317   2.686   5.017   6.207
  126TIP3   OH2  318   1.952   3.300   1.618
  126TIP3    H1  319   1.884   3.295   1.685
  126TIP3    H2  320   1.911   3.263   1.539
  127TIP3   OH2  321   7.933   7.742   4.613
  127TIP3    H1  322   7.877   7.772   4.685
  127TIP3    H2  323   8.008   7.802   4.614
  128TIP3   OH2  324   8.164   4.383   3.851
  128TIP3    H1  325   8.175   4.438   3.773
  128TIP3    H2  326   8.070   4.386   3.869
  129TIP3   OH2  327   7.935   0.249   0.834
  129TIP3    H1  328   7.850   0.210   0.812
  129TIP3    H2  329   7.971   0.192   0.902
  130TIP3   OH2  330   4.266   1.235   5.992
  130TIP3    H1  331   4.342   1.192   6.032
  130TIP3    H2  332   4.283   1.329   6.005
  131TIP3   OH2  333   3.988   7.905   4.908
  131TIP3    H1  334   3.962   7.815   4.927
  131TIP3    H2  335   4.064   7.920   4.963
  132TIP3   OH2  336   8.413   0.438   6.752
  132TIP3    H1  337   8.374   0.457   6.667
  132TIP3    H2  338   8.407   0.521   6.800
  133TIP3   OH2  339   5.265   0.559   2.631
  133TIP3    H1  340   5.283   0.468   2.655
  133TIP3    H2  341   5.297   0.566   2.541
  134TIP3   OH2  342   6.184   0.761   6.480
  134TIP3    H1  343   6.201   0.793   6.568
  134TIP3    H2  344   6.150   0.837   6.432
  135TIP3   OH2  345   7.824   7.874   6.279
  135TIP3    H1  346   7.741   7.845   6.242
  135TIP3    H2  347   7.872   7.793   6.296
  136TIP3   OH2  348   8.309   2.808   1.564
  136TIP3    H1  349   8.217   2.784   1.554
  136TIP3    H2  350   8.345   2.741   1.621
  137TIP3   OH2  351   5.929   4.854   3.750
  137TIP3    H1  352   5.998   4.875   3.688
  137TIP3    H2  353   5.962   4.887   3.834
  138TIP3   OH2  354   7.119   6.520   1.712
  138TIP3    H1  355   7.080   6.584   1.652
  138TIP3    H2  356   7.070   6.439   1.695
  139TIP3   OH2  357   4.075   5.198   1.842
  139TIP3    H1  358   4.038   5.233   1.761
  139TIP3    H2  359   4.119   5.274   1.882
  140TIP3   OH2  360   5.850   0.122   1.341
  140TIP3    H1  361   5.843   0.033   1.376
  140TIP3    H2  362   5.944   0.138   1.335
  141TIP3   OH2  363   6.370   6.294   0.241
  141TIP3    H1  364   6.438   6.285   0.175
  141TIP3    H2  365   6.406   6.252   0.319
  142TIP3   OH2  366   4.071   0.039   5.140
  142TIP3    H1  367   4.160   0.074   5.144
  142TIP3    H2  368   4.019   0.107   5.097
  143TIP3   OH2  369   6.341   1.122   6.537
  143TIP3    H1  370   6.350   1.182   6.464
  143TIP3    H2  371   6.371   1.038   6.503
  144TIP3   OH2  372   8.370   0.027   6.094
  144TIP3    H1  373   8.349   0.070   6.012
  144TIP3    H2  374   8.462   0.047   6.110
  145TIP3   OH2  375   2.984   5.877   3.864
  145TIP3    H1  376   3.008   5.833   3.783
  145TIP3    H2  377   2.888   5.885   3.859
  146TIP3   OH2  378   1.560   5.274   3.270
  146TIP3    H1  379   1.562   5.306   3.179
  146TIP3    H2  380   1.652   5.275   3.297
  147TIP3   OH2  381   7.678   5.412   6.522
  147TIP3    H1  382   7.588   5.383   6.535
  147TIP3    H2  383   7.680   5.500   6.559
  148TIP3   OH2  384   6.636   7.122   3.051
  148TIP3    H1  385   6.632   7.188   3.120
  148TIP3    H2  386   6.706   7.152   2.993
  149TIP3   OH2  387   4.717   5.249   1.067
  149TIP3    H1  388   4.769   5.326   1.090
  149TIP3    H2  389   4.634   5.261   1.113
  150TIP3   OH2  390   6.206   4.090   4.709
  150TIP3    H1  391   6.132   4.099   4.649
  150TIP3    H2  392   6.167   4.066   4.792
  151TIP3   OH2  393   3.057   5.268   1.654
  151TIP3    H1  394   3.044   5.284   1.747
  151TIP3    H2  395   3.068   5.355   1.616
  152TIP3   OH2  396   6.961   3.580   2.670
  152TIP3    H1  397   6.872   3.552   2.646
  152TIP3    H2  398   7.011   3.499   2.679
  153TIP3   OH2  399   6.057   3.343   1.331
  153TIP3    H1  400   6.003   3.306   1.262
  153TIP3    H2  401   6.042   3.438   1.326
  154TIP3   OH2  402   6.384   4.240   5.649
  154TIP3    H1  403   6.477   4.261   5.650
  154TIP3    H2  404   6.377   4.157   5.697
  155TIP3   OH2  405   1.999   2.482   5.673
  155TIP3    H1  406   2.018   2.551   5.736
  155TIP3    H2  407   2.041   2.510   5.592
  156TIP3   OH2  408   5.672   7.676   4.844
  156TIP3    H1  409   5.591   7.716   4.812
  156TIP3    H2  410   5.688   7.603   4.785
  157TIP3   OH2  411   0.451   1.312   1.476
  157TIP3    H1  412   0.371   1.271   1.444
  157TIP3    H2  413   0.490   1.351   1.397
  158TIP3   OH2  414   2.370   2.863   1.251
  158TIP3    H1  415   2.398   2.896   1.165
  158TIP3    H2  416   2.285   2.822   1.235
  159TIP3   OH2  417   5.290   7.342   3.686
  159TIP3    H1  418   5.364   7.395   3.718
  159TIP3    H2  419   5.249   7.308   3.766
  160TIP3   OH2  420   1.289   2.664   5.599
  160TIP3    H1  421   1.305   2.610   5.522
  160TIP3    H2  422   1.223   2.616   5.649
  161TIP3   OH2  423   2.347   5.321   3.198
  161TIP3    H1  424   2.439   5.300   3.211
  161TIP3    H2  425   2.303   5.289   3.276
  162TIP3   OH2  426   4.300   2.519   3.236
  162TIP3    H1  427   4.240   2.590   3.259
  162TIP3    H2  428   4.327   2.482   3.320
  163TIP3   OH2  429   3.141   5.547   0.553
  163TIP3    H1  430   3.084   5.570   0.480
  163TIP3    H2  431   3.211   5.613   0.551
  164TIP3   OH2  432   7.017   6.500   0.158
  164TIP3    H1  433   7.063   6.564   0.213
  164TIP3    H2  434   7.060   6.416   0.178
  165TIP3   OH2  435   2.296   2.263   3.665
  165TIP3    H1  436   2.284   2.344   3.715
  165TIP3    H2  437   2.233   2.269   3.594
  166TIP3   OH2  438   4.685   4.907   6.186
  166TIP3    H1  439   4.773   4.897   6.150
  166TIP3    H2  440   4.649   4.982   6.139
  167TIP3   OH2  441   6.180   3.963   4.271
  167TIP3    H1  442   6.215   3.898   4.209
  167TIP3    H2  443   6.191   4.047   4.227
  168TIP3   OH2  444   3.987   3.029   2.133
  168TIP3    H1  445   4.076   2.998   2.119
  168TIP3    H2  446   3.993   3.124   2.122
  169TIP3   OH2  447   0.798   5.604   2.680
  169TIP3    H1  448   0.794   5.617   2.585
  169TIP3    H2  449   0.873   5.547   2.693
  170TIP3   OH2  450   6.210   0.198   5.129
  170TIP3    H1  451   6.170   0.168   5.047
  170TIP3    H2  452   6.279   0.257   5.101
  171TIP3   OH2  453   5.842   6.328   3.239
  171TIP3    H1  454   5.934   6.355   3.241
  171TIP3    H2  455   5.796   6.404   3.204
  172TIP3   OH2  456   5.537   3.472   2.641
  172TIP3    H1  457   5.583   3.390   2.623
  172TIP3    H2  458   5.607   3.536   2.653
  173TIP3   OH2  459   4.924   2.216   4.503
  173TIP3    H1  460   4.882   2.237   4.420
  173TIP3    H2  461   4.866   2.153   4.545
  174TIP3   OH2  462   2.944   2.281   6.022
  174TIP3    H1  463   2.914   2.339   6.092
  174TIP3    H2  464   3.039   2.277   6.033
  175TIP3   OH2  465   8.031   2.636   1.296
  175TIP3    H1  466   8.120   2.623   1.330
  175TIP3    H2  467   7.982   2.671   1.369
  176TIP3   OH2  468   1.666   2.426   0.804
  176TIP3    H1  469   1.701   2.397   0.720
  176TIP3    H2  470   1.590   2.479   0.782
  177TIP3   OH2  471   0.641   7.209   5.482
  177TIP3    H1  472   0.556   7.168   5.502
  177TIP3    H2  473   0.618   7.298   5.455
  178TIP3   OH2  474   4.225   5.562   5.179
  178TIP3    H1  475   4.260   5.473   5.173
  178TIP3    H2  476   4.289   5.616   5.134
  179TIP3   OH2  477   3.238   7.087   0.584
  179TIP3    H1  478   3.284   7.116   0.663
  179TIP3    H2  479   3.263   6.995   0.575
  180TIP3   OH2  480   0.597   2.512   6.652
  180TIP3    H1  481   0.512   2.490   6.614
  180TIP3    H2  482   0.582   2.596   6.697
  181TIP3   OH2  483   8.189   2.675   3.320
  181TIP3    H1  484   8.203   2.753   3.266
  181TIP3    H2  485   8.095   2.676   3.340
  182TIP3   OH2  486   6.462   5.010   4.865
  182TIP3    H1  487   6.385   4.986   4.813
  182TIP3    H2  488   6.456   5.105   4.876
  183TIP3   OH2  489   1.518   6.342   1.736
  183TIP3    H1  490   1.525   6.273   1.670
  183TIP3    H2  491   1.595   6.330   1.791
  184TIP3   OH2  492   3.008   7.062   6.153
  184TIP3    H1  493   2.982   7.129   6.216
  184TIP3    H2  494   3.039   7.111   6.077
  185TIP3   OH2  495   2.610   0.402   6.334
  185TIP3    H1  496   2.614   0.384   6.428
  185TIP3    H2  497   2.693   0.444   6.314
  186TIP3   OH2  498   2.305   3.509   2.288
  186TIP3    H1  499   2.350   3.425   2.303
  186TIP3    H2  500   2.220   3.484   2.251
  187TIP3   OH2  501   4.594   3.715   1.422
  187TIP3    H1  502   4.570   3.737   1.513
  187TIP3    H2  503   4.689   3.721   1.420
  188TIP3   OH2  504   2.648   6.480   1.730
  188TIP3    H1  505   2.653   6.467   1.635
  188TIP3    H2  506   2.623   6.571   1.740
  189TIP3   OH2  507   4.854   3.871   2.935
  189TIP3    H1  508   4.806   3.946   2.899
  189TIP3    H2  509   4.916   3.909   2.997
  190TIP3   OH2  510   2.398   1.246   5.294
  190TIP3    H1  511   2.330   1.282   5.237
  190TIP3    H2  512   2.422   1.319   5.351
  191TIP3   OH2  513   1.313   4.393   5.202
  191TIP3    H1  514   1.247   4.357   5.262
  191TIP3    H2  515   1.348   4.469   5.248
  192TIP3   OH2  516   2.481   1.885   3.185
  192TIP3    H1  517   2.434   1.831   3.122
  192TIP3    H2  518   2.566   1.842   3.194
  193TIP3   OH2  519   6.668   0.337   2.288
  193TIP3    H1  520   6.578   0.347   2.319
  193TIP3    H2  521   6.720   0.326   2.367
  194TIP3   OH2  522   0.972   4.193   0.895
  194TIP3    H1  523   1.062   4.179   0.923
  194TIP3    H2  524   0.969   4.284   0.866
  195TIP3   OH2  525   1.633   4.229   2.584
  195TIP3    H1  526   1.639   4.304   2.526
  195TIP3    H2  527   1.563   4.175   2.547
  196TIP3   OH2  528   5.152   5.622   1.484
  196TIP3    H1  529   5.141   5.717   1.495
  196TIP3    H2  530   5.075   5.584   1.527
  197TIP3   OH2  531   3.199   2.532   2.921
  197TIP3    H1  532   3.125   2.532   2.860
  197TIP3    H2  533   3.162   2.567   3.002
  198TIP3   OH2  534   3.152   3.531   0.240
  198TIP3    H1  535   3.173   3.545   0.332
  198TIP3    H2  536   3.237   3.511   0.199
  199TIP3   OH2  537   7.983   2.681   0.075
  199TIP3    H1  538   8.010   2.766   0.110
  199TIP3    H2  539   7.968   2.697  -0.018
  200TIP3   OH2  540   2.986   0.916   3.521
  200TIP3    H1  541   2.966   0.993   3.469
  200TIP3    H2  542   2.987   0.844   3.458
  201TIP3   OH2  543   3.697   7.806   1.013
  201TIP3    H1  544   3.706   7.714   0.986
  201TIP3    H2  545   3.621   7.838   0.964
  202TIP3   OH2  546   5.963   6.866   6.048
  202TIP3    H1  547   5.917   6.943   6.014
  202TIP3    H2  548   6.035   6.901   6.100
  203TIP3   OH2  549   4.136   6.891   3.628
  203TIP3    H1  550   4.076   6.861   3.559
  203TIP3    H2  551   4.127   6.987   3.627
  204TIP3   OH2  552   1.483   2.119   4.377
  204TIP3    H1  553   1.498   2.042   4.431
  204TIP3    H2  554   1.449   2.185   4.438
  205TIP3   OH2  555   0.356   4.788   6.099
  205TIP3    H1  556   0.289   4.730   6.065
  205TIP3    H2  557   0.347   4.782   6.194
  206TIP3   OH2  558   8.348   0.110   3.447
  206TIP3    H1  559   8.375   0.180   3.387
  206TIP3    H2  560   8.415   0.110   3.516
  207TIP3   OH2  561   4.529   2.108   4.869
  207TIP3    H1  562   4.526   2.121   4.964
  207TIP3    H2  563   4.621   2.118   4.846
  208TIP3   OH2  564   2.168   5.645   6.639
  208TIP3    H1  565   2.148   5.736   6.661
  208TIP3    H2  566   2.098   5.595   6.681
  209TIP3   OH2  567   2.425   1.734   0.700
  209TIP3    H1  568   2.387   1.658   0.656
  209TIP3    H2  569   2.504   1.754   0.651
  210TIP3   OH2  570   7.031   3.175   1.093
  210TIP3    H1  571   6.960   3.112   1.106
  210TIP3    H2  572   7.110   3.120   1.088
  211TIP3   OH2  573   5.055   6.372   4.519
  211TIP3    H1  574   5.073   6.437   4.587
  211TIP3    H2  575   5.141   6.344   4.488
  212TIP3   OH2  576   1.354   3.163   3.911
  212TIP3    H1  577   1.405   3.243   3.902
  212TIP3    H2  578   1.416   3.099   3.948
  213TIP3   OH2  579   0.960   5.001   6.635
  213TIP3    H1  580   0.866   5.003   6.655
  213TIP3    H2  581   0.984   5.092   6.621
  214TIP3   OH2  582   2.233   6.416   3.306
  214TIP3    H1  583   2.219   6.509   3.287
  214TIP3    H2  584   2.156   6.389   3.356
  215TIP3   OH2  585   8.313   4.903   3.781
  215TIP3    H1  586   8.281   4.829   3.833
  215TIP3    H2  587   8.268   4.895   3.697
  216TIP3   OH2  588   6.958   0.590   4.438
  216TIP3    H1  589   6.963   0.494   4.442
  216TIP3    H2  590   7.046   0.617   4.410
  217TIP3   OH2  591   4.139   4.708   1.132
  217TIP3    H1  592   4.233   4.720   1.127
  217TIP3    H2  593   4.127   4.615   1.151
  218TIP3   OH2  594   5.576   1.084   0.572
  218TIP3    H1  595   5.502   1.146   0.572
  218TIP3    H2  596   5.536   1.000   0.592
  219TIP3   OH2  597   6.916   3.907   4.630
  219TIP3    H1  598   7.003   3.884   4.663
  219TIP3    H2  599   6.897   3.992   4.670
  220TIP3   OH2  600   8.039   0.573   4.710
  220TIP3    H1  601   8.104   0.530   4.765
  220TIP3    H2  602   8.025   0.658   4.751
  221TIP3   OH2  603   3.746   4.707   5.181
  221TIP3    H1  604   3.704   4.738   5.101
  221TIP3    H2  605   3.738   4.779   5.242
  222TIP3   OH2  606   6.989   6.147   3.192
  222TIP3    H1  607   6.910   6.192   3.163
  222TIP3    H2  608   7.031   6.208   3.253
  223TIP3   OH2  609   7.605   5.615   0.921
  223TIP3    H1  610   7.658   5.667   0.981
  223TIP3    H2  611   7.587   5.674   0.848
  224TIP3   OH2  612   4.107   1.454   6.359
  224TIP3    H1  613   4.048   1.496   6.421
  224TIP3    H2  614   4.104   1.509   6.281
  225TIP3   OH2  615   0.603   7.829   5.776
  225TIP3    H1  616   0.656   7.853   5.700
  225TIP3    H2  617   0.667   7.806   5.844
  226TIP3   OH2  618   2.624   7.179   3.825
  226TIP3    H1  619   2.678   7.100   3.818
  226TIP3    H2  620   2.679   7.249   3.789
  227TIP3   OH2  621   5.102   6.464   1.999
  227TIP3    H1  622   5.099   6.542   1.943
  227TIP3    H2  623   5.148   6.398   1.947
  228TIP3   OH2  624   3.379   0.213   2.521
  228TIP3    H1  625   3.326   0.222   2.600
  228TIP3    H2  626   3.339   0.141   2.473
  229TIP3   OH2  627   4.951   7.912   6.766
  229TIP3    H1  628   4.895   7.989   6.771
  229TIP3    H2  629   4.904   7.851   6.708
  230TIP3   OH2  630   6.573   7.517   6.558
  230TIP3    H1  631   6.504   7.574   6.593
  230TIP3    H2  632   6.630   7.499   6.633
  231TIP3   OH2  633   1.155   2.012   4.070
  231TIP3    H1  634   1.146   1.931   4.121
  231TIP3    H2  635   1.108   2.078   4.120
  232TIP3   OH2  636   7.940   5.782   4.902
  232TIP3    H1  637   7.879   5.850   4.929
  232TIP3    H2  638   7.889   5.726   4.843
  233TIP3   OH2  639   5.405   6.654   1.203
  233TIP3    H1  640   5.482   6.682   1.154
  233TIP3    H2  641   5.383   6.568   1.166
  234TIP3   OH2  642   1.412   0.036   4.649
  234TIP3    H1  643   1.381  -0.054   4.648
  234TIP3    H2  644   1.508   0.028   4.647
  235TIP3   OH2  645   3.835   7.905   3.424
  235TIP3    H1  646   3.830   7.893   3.519
  235TIP3    H2  647   3.759   7.960   3.404
  236TIP3   OH2  648   5.055   1.682   2.306
  236TIP3    H1  649   5.070   1.679   2.400
  236TIP3    H2  650   5.115   1.617   2.269
  237TIP3   OH2  651   3.859   1.454   4.038
  237TIP3    H1  652   3.810   1.390   4.090
  237TIP3    H2  653   3.824   1.445   3.949
  238TIP3   OH2  654   2.767   7.363   1.355
  238TIP3    H1  655   2.804   7.299   1.293
  238TIP3    H2  656   2.673   7.358   1.341
  239TIP3   OH2  657   3.249   7.145   5.657
  239TIP3    H1  658   3.318   7.101   5.607
  239TIP3    H2  659   3.184   7.078   5.673
  240TIP3   OH2  660   5.305   1.965   5.199
  240TIP3    H1  661   5.324   2.032   5.134
  240TIP3    H2  662   5.212   1.946   5.186
  241TIP3   OH2  663   2.866   6.455   1.155
  241TIP3    H1  664   2.855   6.549   1.162
  241TIP3    H2  665   2.931   6.443   1.086
  242TIP3   OH2  666   6.014   4.920   0.997
  242TIP3    H1  667   6.034   4.959   1.083
  242TIP3    H2  668   6.094   4.873   0.973
  243TIP3   OH2  669   0.660   2.919   4.386
  243TIP3    H1  670   0.643   2.840   4.335
  243TIP3    H2  671   0.700   2.887   4.468
  244TIP3   OH2  672   3.969   1.084   5.745
  244TIP3    H1  673   4.040   1.145   5.724
  244TIP3    H2  674   3.902   1.102   5.679
  245TIP3   OH2  675   0.768   2.011   6.247
  245TIP3    H1  676   0.790   1.923   6.278
  245TIP3    H2  677   0.835   2.030   6.182
  246TIP3   OH2  678   8.102   7.450   5.361
  246TIP3    H1  679   8.020   7.403   5.349
  246TIP3    H2  680   8.098   7.484   5.451
  247TIP3   OH2  681   5.561   3.552   0.173
  247TIP3    H1  682   5.498   3.604   0.222
  247TIP3    H2  683   5.519   3.466   0.165
  248TIP3   OH2  684   2.302   5.233   2.274
  248TIP3    H1  685   2.270   5.255   2.362
  248TIP3    H2  686   2.397   5.224   2.286
  249TIP3   OH2  687   3.949   7.560   4.179
  249TIP3    H1  688   3.882   7.520   4.234
  249TIP3    H2  689   3.992   7.625   4.235
  250TIP3   OH2  690   7.515   6.678   5.818
  250TIP3    H1  691   7.444   6.690   5.755
  250TIP3    H2  692   7.594   6.699   5.768
  251TIP3   OH2  693   4.370   3.392   4.278
  251TIP3    H1  694   4.458   3.404   4.241
  251TIP3    H2  695   4.311   3.404   4.203
  252TIP3   OH2  696   4.493   5.547   5.492
  252TIP3    H1  697   4.536   5.610   5.549
  252TIP3    H2  698   4.454   5.483   5.552
  253TIP3   OH2  699   4.186   1.038   0.689
  253TIP3    H1  700   4.098   1.002   0.701
  253TIP3    H2  701   4.185   1.120   0.738
  254TIP3   OH2  702   0.621   6.216   6.009
  254TIP3    H1  703   0.591   6.125   6.009
  254TIP3    H2  704   0.609   6.245   6.099
  255TIP3   OH2  705   3.569   1.947   3.388
  255TIP3    H1  706   3.594   1.897   3.466
  255TIP3    H2  707   3.586   2.038   3.412
  256TIP3   OH2  708   3.883   6.628   5.140
  256TIP3    H1  709   3.921   6.715   5.153
  256TIP3    H2  710   3.819   6.640   5.070
  257TIP3   OH2  711   7.925   1.823   3.205
  257TIP3    H1  712   7.954   1.732   3.208
  257TIP3    H2  713   7.870   1.828   3.127
  258TIP3   OH2  714   8.168   3.913   4.568
  258TIP3    H1  715   8.127   3.853   4.506
  258TIP3    H2  716   8.098   3.935   4.630
  259TIP3   OH2  717   6.223   4.034   5.160
  259TIP3    H1  718   6.308   4.028   5.117
  259TIP3    H2  719   6.218   4.124   5.191
  260TIP3   OH2  720   8.073   0.109   3.330
  260TIP3    H1  721   8.161   0.090   3.360
  260TIP3    H2  722   8.043   0.028   3.288
  261TIP3   OH2  723   4.430   1.752   5.802
  261TIP3    H1  724   4.520   1.723   5.815
  261TIP3    H2  725   4.438   1.844   5.776
  262TIP3   OH2  726   4.120   7.847   5.173
  262TIP3    H1  727   4.105   7.907   5.247
  262TIP3    H2  728   4.054   7.779   5.185
  263TIP3   OH2  729   5.521   5.366   3.429
  263TIP3    H1  730   5.494   5.290   3.481
  263TIP3    H2  731   5.609   5.386   3.459
  264TIP3   OH2  732   5.873   7.308   6.097
  264TIP3    H1  733   5.894   7.362   6.020
  264TIP3    H2  734   5.807   7.246   6.065
  265TIP3   OH2  735   1.070   4.077   2.035
  265TIP3    H1  736   1.030   4.096   1.950
  265TIP3    H2  737   1.161   4.054   2.013
  266TIP3   OH2  738   1.441   1.102   0.258
  266TIP3    H1  739   1.441   1.121   0.164
  266TIP3    H2  740   1.368   1.153   0.293
  267TIP3   OH2  741   0.853   1.143   3.875
  267TIP3    H1  742   0.870   1.208   3.806
  267TIP3    H2  743   0.940   1.122   3.909
  268TIP3   OH2  744   1.988   7.265   5.114
  268TIP3    H1  745   1.971   7.331   5.182
  268TIP3    H2  746   1.924   7.196   5.131
  269TIP3   OH2  747   3.024   4.622   6.051
  269TIP3    H1  748   3.036   4.691   5.985
  269TIP3    H2  749   3.112   4.604   6.084
  270TIP3   OH2  750   1.112   7.779   4.982
  270TIP3    H1  751   1.172   7.819   5.044
  270TIP3    H2  752   1.141   7.811   4.896
  271TIP3   OH2  753   4.261   0.702   4.443
  271TIP3    H1  754   4.288   0.706   4.535
  271TIP3    H2  755   4.204   0.626   4.438
  272TIP3   OH2  756   5.322   6.778   6.778
  272TIP3    H1  757   5.254   6.714   6.802
  272TIP3    H2  758   5.302   6.854   6.832
  273TIP3   OH2  759   7.146   0.550   1.513
  273TIP3    H1  760   7.218   0.609   1.535
  273TIP3    H2  761   7.110   0.523   1.598
  274TIP3   OH2  762   7.907   7.906   1.681
  274TIP3    H1  763   7.904   7.984   1.736
  274TIP3    H2  764   7.958   7.843   1.732
  275TIP3   OH2  765   4.186   0.292   3.299
  275TIP3    H1  766   4.140   0.254   3.224
  275TIP3    H2  767   4.277   0.266   3.287
  276TIP3   OH2  768   4.812   0.163   1.339
  276TIP3    H1  769   4.795   0.163   1.433
  276TIP3    H2  770   4.762   0.089   1.305
  277TIP3   OH2  771   0.517   5.910   3.769
  277TIP3    H1  772   0.534   5.874   3.856
  277TIP3    H2  773   0.599   5.896   3.721
  278TIP3   OH2  774   6.165   5.208   5.215
  278TIP3    H1  775   6.207   5.201   5.301
  278TIP3    H2  776   6.160   5.118   5.183
  279TIP3   OH2  777   7.803   1.980   0.265
  279TIP3    H1  778   7.822   2.019   0.350
  279TIP3    H2  779   7.889   1.972   0.223
  280TIP3   OH2  780   5.890   3.726   4.617
  280TIP3    H1  781   5.949   3.652   4.601
  280TIP3    H2  782   5.896   3.779   4.538
  281TIP3   OH2  783   1.812   1.927   3.618
  281TIP3    H1  784   1.781   1.881   3.539
  281TIP3    H2  785   1.819   1.858   3.684
  282TIP3   OH2  786   6.129   2.692   5.244
  282TIP3    H1  787   6.102   2.671   5.155
  282TIP3    H2  788   6.136   2.607   5.288
  283TIP3   OH2  789   4.085   2.235   0.477
  283TIP3    H1  790   4.154   2.294   0.447
  283TIP3    H2  791   4.062   2.183   0.399
  284TIP3   OH2  792   7.311   7.300   3.857
  284TIP3    H1  793   7.346   7.372   3.806
  284TIP3    H2  794   7.219   7.322   3.870
  285TIP3   OH2  795   0.119   4.763   4.467
  285TIP3    H1  796   0.063   4.688   4.488
  285TIP3    H2  797   0.059   4.832   4.441
  286TIP3   OH2  798   8.170   0.612   0.038
  286TIP3    H1  799   8.186   0.517   0.040
  286TIP3    H2  800   8.153   0.635   0.129
  287TIP3   OH2  801   3.094   0.257   5.905
  287TIP3    H1  802   3.103   0.162   5.896
  287TIP3    H2  803   3.183   0.290   5.897
  288TIP3   OH2  804   7.334   5.220   6.077
  288TIP3    H1  805   7.325   5.314   6.067
  288TIP3    H2  806   7.394   5.209   6.151
  289TIP3   OH2  807   3.266   1.306   4.402
  289TIP3    H1  808   3.290   1.242   4.334
  289TIP3    H2  809   3.314   1.385   4.378
  290TIP3   OH2  810   4.657   2.391   3.001
  290TIP3    H1  811   4.725   2.331   3.033
  290TIP3    H2  812   4.686   2.414   2.913
  291TIP3   OH2  813   5.804   3.251   2.209
  291TIP3    H1  814   5.837   3.266   2.120
  291TIP3    H2  815   5.725   3.304   2.215
  292TIP3   OH2  816   5.145   3.958   0.492
  292TIP3    H1  817   5.158   3.889   0.427
  292TIP3    H2  818   5.173   4.038   0.448
  293TIP3   OH2  819   6.255   3.237   1.178
  293TIP3    H1  820   6.275   3.154   1.222
  293TIP3    H2  821   6.201   3.284   1.241
  294TIP3   OH2  822   7.366   0.423   6.808
  294TIP3    H1  823   7.324   0.494   6.759
  294TIP3    H2  824   7.455   0.454   6.823
  295TIP3   OH2  825   2.616   4.548   2.072
  295TIP3    H1  826   2.557   4.474   2.083
  295TIP3    H2  827   2.693   4.511   2.028
  296TIP3   OH2  828   8.033   0.172   5.201
  296TIP3    H1  829   8.114   0.177   5.251
  296TIP3    H2  830   8.054   0.212   5.117
  297TIP3   OH2  831   1.424   4.215   3.250
  297TIP3    H1  832   1.402   4.308   3.245
  297TIP3    H2  833   1.343   4.170   3.226
  298TIP3   OH2  834   0.117   7.424   1.058
  298TIP3    H1  835   0.191   7.474   1.091
  298TIP3    H2  836   0.136   7.334   1.085
  299TIP3   OH2  837   1.597   7.418   3.168
  299TIP3    H1  838   1.685   7.400   3.199
  299TIP3    H2  839   1.549   7.336   3.182
  300TIP3   OH2  840   2.504   6.636   0.461
  300TIP3    H1  841   2.576   6.577   0.484
  300TIP3    H2  842   2.496   6.694   0.537
  301TIP3   OH2  843   5.281   3.456   4.626
  301TIP3    H1  844   5.236   3.481   4.706
  301TIP3    H2  845   5.261   3.527   4.564
  302TIP3   OH2  846   2.717   5.433   6.747
  302TIP3    H1  847   2.790   5.385   6.709
  302TIP3    H2  848   2.648   5.429   6.681
  303TIP3   OH2  849   3.603   7.122   5.379
  303TIP3    H1  850   3.658   7.198   5.357
  303TIP3    H2  851   3.588   7.079   5.294
  304TIP3   OH2  852   2.794   6.449   2.863
  304TIP3    H1  853   2.761   6.533   2.833
  304TIP3    H2  854   2.749   6.434   2.946
  305TIP3   OH2  855   5.176   7.307   4.834
  305TIP3    H1  856   5.223   7.391   4.843
  305TIP3    H2  857   5.143   7.307   4.745
  306TIP3   OH2  858   3.889   2.979   6.884
  306TIP3    H1  859   3.848   2.979   6.797
  306TIP3    H2  860   3.921   3.069   6.895
  307TIP3   OH2  861   1.809   5.388   2.739
  307TIP3    H1  862   1.882   5.326   2.751
  307TIP3    H2  863   1.830   5.462   2.796
  308TIP3   OH2  864   3.157   1.530   0.852
  308TIP3    H1  865   3.191   1.482   0.777
  308TIP3    H2  866   3.063   1.511   0.853
  309TIP3   OH2  867   4.701   3.069   1.150
  309TIP3    H1  868   4.716   3.133   1.219
  309TIP3    H2  869   4.760   3.095   1.079
  310TIP3   OH2  870   5.389   7.599   3.995
  310TIP3    H1  871   5.384   7.508   4.024
  310TIP3    H2  872   5.446   7.595   3.917
  311TIP3   OH2  873   1.142   4.963   5.908
  311TIP3    H1  874   1.174   4.995   5.824
  311TIP3    H2  875   1.047   4.958   5.898
  312TIP3   OH2  876   5.422   1.321   2.208
  312TIP3    H1  877   5.516   1.305   2.216
  312TIP3    H2  878   5.385   1.234   2.193
  313TIP3   OH2  879   8.187   2.872   3.112
  313TIP3    H1  880   8.223   2.864   3.024
  313TIP3    H2  881   8.247   2.933   3.156
  314TIP3   OH2  882   5.130   1.110   6.210
  314TIP3    H1  883   5.190   1.045   6.247
  314TIP3    H2  884   5.183   1.159   6.147
  315TIP3   OH2  885   3.966   5.537   5.427
  315TIP3    H1  886   4.055   5.561   5.454
  315TIP3    H2  887   3.976   5.507   5.337
  316TIP3   OH2  888   4.178   5.805   3.384
  316TIP3    H1  889   4.207   5.893   3.406
  316TIP3    H2  890   4.095   5.818   3.337
  317TIP3   OH2  891   2.328   1.601   1.837
  317TIP3    H1  892   2.256   1.654   1.804
  317TIP3    H2  893   2.286   1.523   1.873
  318TIP3   OH2  894   0.535   3.074   5.909
  318TIP3    H1  895   0.448   3.105   5.882
  318TIP3    H2  896   0.535   2.982   5.885
  319TIP3   OH2  897   1.610   5.821   0.886
  319TIP3    H1  898   1.610   5.728   0.862
  319TIP3    H2  899   1.520   5.850   0.870
  320TIP3   OH2  900   2.935   4.188   1.017
  320TIP3    H1  901   3.022   4.155   1.040
  320TIP3    H2  902   2.914   4.251   1.085
  321TIP3   OH2  903   6.849   6.011   5.001
  321TIP3    H1  904   6.756   6.005   5.023
  321TIP3    H2  905   6.854   6.080   4.936
  322TIP3   OH2  906   5.892   5.518   1.635
  322TIP3    H1  907   5.951   5.563   1.575
  322TIP3    H2  908   5.866   5.585   1.698
  323TIP3   OH2  909   5.475   3.230   5.977
  323TIP3    H1  910   5.563   3.199   6.001
  323TIP3    H2  911   5.462   3.308   6.030
  324TIP3   OH2  912   2.685   1.973   1.440
  324TIP3    H1  913   2.662   1.920   1.516
  324TIP3    H2  914   2.771   2.009   1.460
  325TIP3   OH2  915   2.171   3.923   0.931
  325TIP3    H1  916   2.215   3.838   0.936
  325TIP3    H2  917   2.192   3.955   0.844
  326TIP3   OH2  918   6.669   7.224   5.955
  326TIP3    H1  919   6.616   7.144   5.960
  326TIP3    H2  920   6.609   7.294   5.983
  327TIP3   OH2  921   3.935   6.536   2.479
  327TIP3    H1  922   4.019   6.511   2.442
  327TIP3    H2  923   3.879   6.552   2.402
  328TIP3   OH2  924   7.635   7.836   2.014
  328TIP3    H1  925   7.689   7.773   2.063
  328TIP3    H2  926   7.654   7.920   2.055
  329TIP3   OH2  927   4.069   5.935   3.700
  329TIP3    H1  928   4.013   6.013   3.708
  329TIP3    H2  929   4.077   5.920   3.606
  330TIP3   OH2  930   7.192   5.512   5.081
  330TIP3    H1  931   7.118   5.460   5.111
  330TIP3    H2  932   7.152   5.589   5.040
  331TIP3   OH2  933   3.520   0.928   3.670
  331TIP3    H1  934   3.463   0.900   3.742
  331TIP3    H2  935   3.461   0.934   3.594
  332TIP3   OH2  936   4.634   0.889   6.024
  332TIP3    H1  937   4.622   0.795   6.038
  332TIP3    H2  938   4.712   0.911   6.074
  333TIP3   OH2  939   3.897   7.343   1.307
  333TIP3    H1  940   3.930   7.432   1.302
  333TIP3    H2  941   3.905   7.310   1.217
  334TIP3   OH2  942   0.751   5.665   0.985
  334TIP3    H1  943   0.718   5.579   0.959
  334TIP3    H2  944   0.820   5.646   1.048
  335TIP3   OH2  945   6.632   1.516   6.006
  335TIP3    H1  946   6.547   1.518   5.962
  335TIP3    H2  947   6.644   1.424   6.031
  336TIP3   OH2  948   6.024   2.364   2.180
  336TIP3    H1  949   6.031   2.339   2.271
  336TIP3    H2  950   6.005   2.458   2.182
  337TIP3   OH2  951   7.592   2.163   3.494
  337TIP3    H1  952   7.554   2.211   3.420
  337TIP3    H2  953   7.516   2.135   3.545
  338TIP3   OH2  954   5.571   2.006   2.648
  338TIP3    H1  955   5.663   2.007   2.675
  338TIP3    H2  956   5.574   1.980   2.556
  339TIP3   OH2  957   4.021   5.215   4.548
  339TIP3    H1  958   4.083   5.282   4.577
  339TIP3    H2  959   4.004   5.235   4.456
  340TIP3   OH2  960   6.481   5.218   5.651
  340TIP3    H1  961   6.444   5.137   5.684
  340TIP3    H2  962   6.467   5.213   5.556
  341TIP3   OH2  963   5.458   7.677   1.372
  341TIP3    H1  964   5.393   7.743   1.349
  341TIP3    H2  965   5.439   7.602   1.315
  342TIP3   OH2  966   4.372   5.993   1.076
  342TIP3    H1  967   4.279   6.015   1.077
  342TIP3    H2  968   4.393   5.980   0.983
  343TIP3   OH2  969   3.327   1.895   6.134
  343TIP3    H1  970   3.340   1.969   6.074
  343TIP3    H2  971   3.398   1.903   6.198
  344TIP3   OH2  972   2.411   4.440   1.517
  344TIP3    H1  973   2.415   4.503   1.589
  344TIP3    H2  974   2.501   4.438   1.483
  345TIP3   OH2  975   7.641   6.077   3.485
  345TIP3    H1  976   7.584   6.007   3.518
  345TIP3    H2  977   7.636   6.145   3.552
  346TIP3   OH2  978   6.087   4.825   5.385
  346TIP3    H1  979   6.058   4.888   5.451
  346TIP3    H2  980   6.123   4.879   5.315
  347TIP3   OH2  981   3.895   0.499   6.010
  347TIP3    H1  982   3.837   0.442   6.061
  347TIP3    H2  983   3.979   0.494   6.055
  348TIP3   OH2  984   7.231   5.877   6.701
  348TIP3    H1  985   7.255   5.918   6.784
  348TIP3    H2  986   7.249   5.945   6.635
  349TIP3   OH2  987   8.326   2.751   5.842
  349TIP3    H1  988   8.406   2.698   5.846
  349TIP3    H2  989   8.264   2.706   5.899
  350TIP3   OH2  990   1.368   3.754   4.229
  350TIP3    H1  991   1.296   3.693   4.242
  350TIP3    H2  992   1.445   3.699   4.217
  351TIP3   OH2  993   6.886   5.774   1.459
  351TIP3    H1  994   6.899   5.768   1.554
  351TIP3    H2  995   6.917   5.690   1.426
  352TIP3   OH2  996   3.931   6.105   2.764
  352TIP3    H1  997   3.967   6.050   2.834
  352TIP3    H2  998   3.991   6.092   2.691
  353TIP3   OH2  999   7.101   6.868   2.390
  353TIP3    H1 1000   7.050   6.796   2.353
  353TIP3    H2 1001   7.188   6.831   2.404
  354TIP3   OH2 1002   6.351   1.109   4.603
  354TIP3    H1 1003   6.297   1.103   4.525
  354TIP3    H2 1004   6.289   1.131   4.673
  355TIP3   OH2 1005   3.187   1.411   5.823
  355TIP3    H1 1006   3.121   1.373   5.880
  355TIP3    H2 1007   3.249   1.454   5.882
  356TIP3   OH2 1008   3.442   3.102   1.319
  356TIP3    H1 1009   3.523   3.057   1.341
  356TIP3    H2 1010   3.408   3.134   1.402
  357TIP3   OH2 1011   1.668   0.583   6.302
  357TIP3    H1 1012   1.607   0.609   6.233
  357TIP3    H2 1013   1.753   0.581   6.259
  358TIP3   OH2 1014   6.665   1.057   6.448
  358TIP3    H1 1015   6.574   1.035   6.429
  358TIP3    H2 1016   6.701   0.978   6.489
  359TIP3   OH2 1017   5.187   1.737   0.578
  359TIP3    H1 1018   5.104   1.780   0.557
  359TIP3    H2 1019   5.232   1.799   0.636
  360TIP3   OH2 1020   3.805   1.400   4.695
  360TIP3    H1 1021   3.775   1.487   4.665
  360TIP3    H2 1022   3.745   1.339   4.653
  361TIP3   OH2 1023   1.346   7.401   5.165
  361TIP3    H1 1024   1.301   7.485   5.156
  361TIP3    H2 1025   1.411   7.401   5.095
  362TIP3   OH2 1026   4.948   7.080   0.943
  362TIP3    H1 1027   4.998   7.031   1.009
  362TIP3    H2 1028   4.954   7.026   0.864
  363TIP3   OH2 1029   0.579   2.107   2.924
  363TIP3    H1 1030   0.574   2.202   2.914
  363TIP3    H2 1031   0.578   2.074   2.834
  364TIP3   OH2 1032   7.812   0.176   0.323
  364TIP3    H1 1033   7.877   0.225   0.272
  364TIP3    H2 1034   7.863   0.139   0.395
  365TIP3   OH2 1035   1.704   1.787   4.758
  365TIP3    H1 1036   1.724   1.704   4.801
  365TIP3    H2 1037   1.609   1.788   4.750
  366TIP3   OH2 1038   5.499   1.092   2.602
  366TIP3    H1 1039   5.421   1.126   2.557
  366TIP3    H2 1040   5.544   1.039   2.537
  367TIP3   OH2 1041   2.177   6.192   2.167
  367TIP3    H1 1042   2.174   6.276   2.213
  367TIP3    H2 1043   2.243   6.203   2.099
  368TIP3   OH2 1044   1.584   6.257   2.076
  368TIP3    H1 1045   1.610   6.175   2.034
  368TIP3    H2 1046   1.666   6.292   2.111
  369TIP3   OH2 1047   7.879   5.993   3.351
  369TIP3    H1 1048   7.816   6.017   3.419
  369TIP3    H2 1049   7.830   6.005   3.269
  370TIP3   OH2 1050   4.817   5.494   1.051
  370TIP3    H1 1051   4.741   5.550   1.039
  370TIP3    H2 1052   4.844   5.508   1.141
  371TIP3   OH2 1053   0.973   6.890   4.131
  371TIP3    H1 1054   0.964   6.800   4.099
  371TIP3    H2 1055   1.062   6.894   4.166
  372TIP3   OH2 1056   2.757   3.750   3.655
  372TIP3    H1 1057   2.822   3.683   3.635
  372TIP3    H2 1058   2.673   3.703   3.655
  373TIP3   OH2 1059   2.435   1.050   0.539
  373TIP3    H1 1060   2.410   1.116   0.605
  373TIP3    H2 1061   2.506   1.091   0.490
  374TIP3   OH2 1062   3.224   6.950   1.339
  374TIP3    H1 1063   3.187   7.032   1.371
  374TIP3    H2 1064   3.271   6.975   1.259
  375TIP3   OH2 1065   2.984   4.703   2.630
  375TIP3    H1 1066   3.055   4.708   2.565
  375TIP3    H2 1067   2.905   4.724   2.580
  376TIP3   OH2 1068   4.010   6.022   1.333
  376TIP3    H1 1069   3.922   5.985   1.338
  376TIP3    H2 1070   4.016   6.056   1.244
  377TIP3   OH2 1071   7.821   6.705   0.283
  377TIP3    H1 1072   7.851   6.618   0.255
  377TIP3    H2 1073   7.726   6.699   0.282
  378TIP3   OH2 1074   2.347   0.989   1.971
  378TIP3    H1 1075   2.381   1.067   2.015
  378TIP3    H2 1076   2.298   1.024   1.896
  379TIP3   OH2 1077   2.890   6.138   1.581
  379TIP3    H1 1078   2.917   6.139   1.672
  379TIP3    H2 1079   2.971   6.135   1.531
  380TIP3   OH2 1080   3.484   6.075   0.442
  380TIP3    H1 1081   3.476   6.096   0.349
  380TIP3    H2 1082   3.403   6.028   0.463
  381TIP3   OH2 1083   5.369   5.058   1.050
  381TIP3    H1 1084   5.368   5.136   0.994
  381TIP3    H2 1085   5.298   5.004   1.017
  382TIP3   OH2 1086   8.398   4.853   0.138
  382TIP3    H1 1087   8.427   4.927   0.191
  382TIP3    H2 1088   8.328   4.887   0.083
  383TIP3   OH2 1089   7.416   4.658   4.333
  383TIP3    H1 1090   7.391   4.593   4.399
  383TIP3    H2 1091   7.377   4.625   4.252
  384TIP3   OH2 1092   3.369   3.936   6.024
  384TIP3    H1 1093   3.377   3.862   6.085
  384TIP3    H2 1094   3.311   3.903   5.955
  385TIP3   OH2 1095   5.012   3.017   2.360
  385TIP3    H1 1096   4.989   2.924   2.364
  385TIP3    H2 1097   4.952   3.059   2.421
  386TIP3   OH2 1098   1.528   4.710   2.815
  386TIP3    H1 1099   1.484   4.708   2.730
  386TIP3    H2 1100   1.619   4.686   2.796
  387TIP3   OH2 1101   4.349   3.459   1.627
  387TIP3    H1 1102   4.299   3.532   1.663
  387TIP3    H2 1103   4.324   3.383   1.680
  388TIP3   OH2 1104   2.277   2.249   6.571
  388TIP3    H1 1105   2.288   2.264   6.477
  388TIP3    H2 1106   2.189   2.282   6.591
  389TIP3   OH2 1107   2.669   5.316   2.269
  389TIP3    H1 1108   2.645   5.351   2.355
  389TIP3    H2 1109   2.752   5.272   2.284
  390TIP3   OH2 1110   7.931   4.701   3.817
  390TIP3    H1 1111   7.991   4.740   3.880
  390TIP3    H2 1112   7.907   4.772   3.757
  391TIP3   OH2 1113   7.414   3.565   1.812
  391TIP3    H1 1114   7.357   3.634   1.845
  391TIP3    H2 1115   7.484   3.610   1.766
  392TIP3   OH2 1116   3.474   6.168   5.585
  392TIP3    H1 1117   3.438   6.194   5.670
  392TIP3    H2 1118   3.565   6.198   5.588
  393TIP3   OH2 1119   3.860   4.871   4.885
  393TIP3    H1 1120   3.939   4.823   4.909
  393TIP3    H2 1121   3.869   4.888   4.791
  394TIP3   OH2 1122   3.156   7.085   4.994
  394TIP3    H1 1123   3.238   7.083   4.944
  394TIP3    H2 1124   3.106   7.011   4.960
  395TIP3   OH2 1125   7.222   0.956   2.884
  395TIP3    H1 1126   7.225   1.000   2.799
  395TIP3    H2 1127   7.197   0.865   2.863
  396TIP3   OH2 1128   2.463   7.740   1.127
  396TIP3    H1 1129   2.525   7.800   1.085
  396TIP3    H2 1130   2.378   7.766   1.093
  397TIP3   OH2 1131   7.231   5.286   1.828
  397TIP3    H1 1132   7.299   5.330   1.778
  397TIP3    H2 1133   7.149   5.311   1.785
  398TIP3   OH2 1134   6.377   7.027   0.328
  398TIP3    H1 1135   6.430   7.093   0.373
  398TIP3    H2 1136   6.437   6.954   0.312
  399TIP3   OH2 1137   3.423   0.743   3.030
  399TIP3    H1 1138   3.510   0.745   2.989
  399TIP3    H2 1139   3.362   0.758   2.958
  400TIP3   OH2 1140   8.060   5.037   1.213
  400TIP3    H1 1141   8.008   5.052   1.133
  400TIP3    H2 1142   8.081   4.944   1.210
  401TIP3   OH2 1143   0.311   4.483   5.197
  401TIP3    H1 1144   0.327   4.481   5.292
  401TIP3    H2 1145   0.324   4.392   5.169
  402TIP3   OH2 1146   3.562   3.071   0.300
  402TIP3    H1 1147   3.606   2.997   0.343
  402TIP3    H2 1148   3.588   3.063   0.208
  403TIP3   OH2 1149   2.751   5.687   5.223
  403TIP3    H1 1150   2.781   5.778   5.212
  403TIP3    H2 1151   2.660   5.689   5.195
  404TIP3   OH2 1152   2.426   5.520   6.684
  404TIP3    H1 1153   2.412   5.449   6.747
  404TIP3    H2 1154   2.340   5.559   6.671
  405TIP3   OH2 1155   1.193   0.051   2.341
  405TIP3    H1 1156   1.239   0.112   2.284
  405TIP3    H2 1157   1.168  -0.022   2.283
  406TIP3   OH2 1158   3.388   2.825   2.272
  406TIP3    H1 1159   3.389   2.820   2.368
  406TIP3    H2 1160   3.296   2.813   2.249
  407TIP3   OH2 1161   3.481   2.064   1.764
  407TIP3    H1 1162   3.435   2.057   1.848
  407TIP3    H2 1163   3.426   2.016   1.702
  408TIP3   OH2 1164   5.942   0.086   5.114
  408TIP3    H1 1165   6.023   0.118   5.152
  408TIP3    H2 1166   5.891   0.165   5.094
  409TIP3   OH2 1167   0.869   5.278   6.660
  409TIP3    H1 1168   0.906   5.355   6.616
  409TIP3    H2 1169   0.774   5.291   6.655
  410TIP3   OH2 1170   2.691   6.264   4.087
  410TIP3    H1 1171   2.735   6.179   4.089
  410TIP3    H2 1172   2.677   6.285   4.179
  411TIP3   OH2 1173   6.091   6.671   0.192
  411TIP3    H1 1174   6.049   6.588   0.170
  411TIP3    H2 1175   6.034   6.709   0.259
  412TIP3   OH2 1176   0.810   1.201   2.528
  412TIP3    H1 1177   0.802   1.268   2.596
  412TIP3    H2 1178   0.754   1.130   2.558
  413TIP3   OH2 1179   6.908   7.038   2.696
  413TIP3    H1 1180   6.934   7.101   2.629
  413TIP3    H2 1181   6.920   6.953   2.656
  414TIP3   OH2 1182   4.102   3.185   0.010
  414TIP3    H1 1183   4.056   3.103   0.030
  414TIP3    H2 1184   4.053   3.252   0.057
  415TIP3   OH2 1185   7.853   6.712   1.756
  415TIP3    H1 1186   7.815   6.756   1.832
  415TIP3    H2 1187   7.937   6.755   1.743
  416TIP3   OH2 1188   1.075   2.392   4.875
  416TIP3    H1 1189   1.163   2.363   4.896
  416TIP3    H2 1190   1.078   2.487   4.882
  417TIP3   OH2 1191   5.723   5.920   1.688
  417TIP3    H1 1192   5.657   5.911   1.757
  417TIP3    H2 1193   5.798   5.870   1.719
  418TIP3   OH2 1194   6.710   2.419   2.136
  418TIP3    H1 1195   6.644   2.479   2.172
  418TIP3    H2 1196   6.765   2.397   2.211
  419TIP3   OH2 1197   4.509   3.787   2.624
  419TIP3    H1 1198   4.438   3.732   2.656
  419TIP3    H2 1199   4.587   3.756   2.670
  420TIP3   OH2 1200   0.863   6.300   3.756
  420TIP3    H1 1201   0.841   6.211   3.728
  420TIP3    H2 1202   0.920   6.287   3.832
  421TIP3   OH2 1203   1.019   7.335   0.758
  421TIP3    H1 1204   1.083   7.405   0.745
  421TIP3    H2 1205   1.051   7.262   0.705
  422TIP3   OH2 1206   3.865   1.205   6.453
  422TIP3    H1 1207   3.843   1.297   6.439
  422TIP3    H2 1208   3.932   1.187   6.387
  423TIP3   OH2 1209   1.500   5.538   6.328
  423TIP3    H1 1210   1.548   5.511   6.407
  423TIP3    H2 1211   1.565   5.586   6.277
  424TIP3   OH2 1212   3.357   0.967   0.107
  424TIP3    H1 1213   3.263   0.977   0.119
  424TIP3    H2 1214   3.389   0.932   0.191
  425TIP3   OH2 1215   1.189   3.373   6.337
  425TIP3    H1 1216   1.126   3.440   6.364
  425TIP3    H2 1217   1.184   3.307   6.406
  426TIP3   OH2 1218   7.976   3.392   0.165
  426TIP3    H1 1219   7.893   3.441   0.163
  426TIP3    H2 1220   7.957   3.316   0.219
  427TIP3   OH2 1221   1.029   1.996   1.914
  427TIP3    H1 1222   0.981   1.914   1.919
  427TIP3    H2 1223   0.995   2.038   1.835
  428TIP3   OH2 1224   6.551   2.367   1.679
  428TIP3    H1 1225   6.474   2.312   1.666
  428TIP3    H2 1226   6.612   2.339   1.611
  429TIP3   OH2 1227   7.949   6.016   6.429
  429TIP3    H1 1228   8.005   6.011   6.506
  429TIP3    H2 1229   7.957   5.929   6.388
  430TIP3   OH2 1230   2.586   5.144   4.951
  430TIP3    H1 1231   2.529   5.081   4.995
  430TIP3    H2 1232   2.638   5.182   5.022
  431TIP3   OH2 1233   8.072   6.532   1.468
  431TIP3    H1 1234   8.100   6.461   1.526
  431TIP3    H2 1235   8.135   6.602   1.484
  432TIP3   OH2 1236   0.771   5.241   2.550
  432TIP3    H1 1237   0.713   5.313   2.575
  432TIP3    H2 1238   0.713   5.167   2.537
  433TIP3   OH2 1239   6.821   7.296   6.513
  433TIP3    H1 1240   6.818   7.331   6.602
  433TIP3    H2 1241   6.849   7.205   6.524
  434TIP3   OH2 1242   1.944   4.605   1.138
  434TIP3    H1 1243   1.981   4.686   1.104
  434TIP3    H2 1244   1.970   4.538   1.076
  435TIP3   OH2 1245   3.297   5.189   1.835
  435TIP3    H1 1246   3.278   5.147   1.751
  435TIP3    H2 1247   3.327   5.277   1.812
  436TIP3   OH2 1248   1.078   0.847   3.826
  436TIP3    H1 1249   1.077   0.909   3.753
  436TIP3    H2 1250   1.155   0.792   3.809
  437TIP3   OH2 1251   4.583   2.457   1.281
  437TIP3    H1 1252   4.606   2.369   1.250
  437TIP3    H2 1253   4.667   2.502   1.290
  438TIP3   OH2 1254   1.426   2.703   6.069
  438TIP3    H1 1255   1.521   2.690   6.076
  438TIP3    H2 1256   1.405   2.768   6.136
  439TIP3   OH2 1257   3.579   6.831   2.085
  439TIP3    H1 1258   3.588   6.764   2.153
  439TIP3    H2 1259   3.521   6.896   2.125
  440TIP3   OH2 1260   5.137   0.179   3.725
  440TIP3    H1 1261   5.089   0.260   3.744
  440TIP3    H2 1262   5.166   0.190   3.635
  441TIP3   OH2 1263   4.158   5.797   0.187
  441TIP3    H1 1264   4.231   5.790   0.126
  441TIP3    H2 1265   4.180   5.872   0.243
  442TIP3   OH2 1266   2.581   4.648   3.248
  442TIP3    H1 1267   2.645   4.662   3.319
  442TIP3    H2 1268   2.496   4.648   3.292
  443TIP3   OH2 1269   3.833   6.871   5.774
  443TIP3    H1 1270   3.873   6.951   5.741
  443TIP3    H2 1271   3.888   6.800   5.741
  444TIP3   OH2 1272   5.105   2.332   3.262
  444TIP3    H1 1273   5.105   2.392   3.337
  444TIP3    H2 1274   5.192   2.291   3.265
  445TIP3   OH2 1275   4.588   0.204   6.285
  445TIP3    H1 1276   4.614   0.267   6.352
  445TIP3    H2 1277   4.614   0.119   6.321
  446TIP3   OH2 1278   4.196   0.547   1.889
  446TIP3    H1 1279   4.138   0.622   1.899
  446TIP3    H2 1280   4.199   0.531   1.795
  447TIP3   OH2 1281   6.299   3.796   1.991
  447TIP3    H1 1282   6.310   3.866   2.055
  447TIP3    H2 1283   6.307   3.839   1.906
  448TIP3   OH2 1284   0.085   2.914   1.849
  448TIP3    H1 1285   0.126   2.881   1.929
  448TIP3    H2 1286   0.024   2.845   1.823
  449TIP3   OH2 1287   3.746   6.757   0.236
  449TIP3    H1 1288   3.708   6.844   0.243
  449TIP3    H2 1289   3.731   6.731   0.145
  450TIP3   OH2 1290   4.759   1.246   3.882
  450TIP3    H1 1291   4.731   1.196   3.805
  450TIP3    H2 1292   4.715   1.330   3.874
  451TIP3   OH2 1293   3.025   4.123   2.640
  451TIP3    H1 1294   2.966   4.090   2.571
  451TIP3    H2 1295   3.000   4.214   2.651
  452TIP3   OH2 1296   7.495   4.000   2.954
  452TIP3    H1 1297   7.528   4.045   2.876
  452TIP3    H2 1298   7.522   4.055   3.027
  453TIP3   OH2 1299   6.384   1.774   0.035
  453TIP3    H1 1300   6.438   1.774  -0.044
  453TIP3    H2 1301   6.320   1.705   0.021
  454TIP3   OH2 1302   0.164   1.489   5.311
  454TIP3    H1 1303   0.250   1.527   5.295
  454TIP3    H2 1304   0.162   1.471   5.405
  455TIP3   OH2 1305   0.031   0.563   4.426
  455TIP3    H1 1306   0.026   0.575   4.331
  455TIP3    H2 1307   0.041   0.652   4.460
  456TIP3   OH2 1308   2.956   1.901   4.942
  456TIP3    H1 1309   3.044   1.866   4.958
  456TIP3    H2 1310   2.917   1.839   4.880
  457TIP3   OH2 1311   0.453   3.780   0.773
  457TIP3    H1 1312   0.432   3.690   0.746
  457TIP3    H2 1313   0.545   3.776   0.798
  458TIP3   OH2 1314   7.844   1.103   3.441
  458TIP3    H1 1315   7.802   1.030   3.396
  458TIP3    H2 1316   7.892   1.150   3.372
  459TIP3   OH2 1317   5.674   3.914   4.558
  459TIP3    H1 1318   5.747   3.973   4.576
  459TIP3    H2 1319   5.618   3.922   4.635
  460TIP3   OH2 1320   8.419   3.181   5.194
  460TIP3    H1 1321   8.434   3.132   5.113
  460TIP3    H2 1322   8.324   3.187   5.201
  461TIP3   OH2 1323   5.665   1.227   0.328
  461TIP3    H1 1324   5.643   1.164   0.397
  461TIP3    H2 1325   5.733   1.183   0.277
  462TIP3   OH2 1326   6.648   3.814   1.969
  462TIP3    H1 1327   6.713   3.776   1.911
  462TIP3    H2 1328   6.564   3.791   1.929
  463TIP3   OH2 1329   2.523   1.233   3.825
  463TIP3    H1 1330   2.462   1.179   3.876
  463TIP3    H2 1331   2.547   1.305   3.884
  464TIP3   OH2 1332   4.305   7.484   0.033
  464TIP3    H1 1333   4.368   7.479  -0.039
  464TIP3    H2 1334   4.359   7.495   0.112
  465TIP3   OH2 1335   8.121   0.514   2.025
  465TIP3    H1 1336   8.057   0.467   1.972
  465TIP3    H2 1337   8.175   0.562   1.962
  466TIP3   OH2 1338   5.753   0.826   2.508
  466TIP3    H1 1339   5.689   0.772   2.555
  466TIP3    H2 1340   5.825   0.838   2.570
  467TIP3   OH2 1341   6.616   7.271   1.346
  467TIP3    H1 1342   6.570   7.328   1.408
  467TIP3    H2 1343   6.646   7.331   1.278
  468TIP3   OH2 1344   6.957   3.233   2.144
  468TIP3    H1 1345   7.000   3.174   2.082
  468TIP3    H2 1346   6.867   3.200   2.150
  469TIP3   OH2 1347   3.427   5.253   3.747
  469TIP3    H1 1348   3.405   5.328   3.803
  469TIP3    H2 1349   3.367   5.262   3.672
  470TIP3   OH2 1350   1.576   4.420   0.151
  470TIP3    H1 1351   1.607   4.423   0.242
  470TIP3    H2 1352   1.654   4.439   0.099
  471TIP3   OH2 1353   6.987   5.532   1.357
  471TIP3    H1 1354   7.063   5.522   1.299
  471TIP3    H2 1355   7.005   5.474   1.431
  472TIP3   OH2 1356   1.915   0.475   2.165
  472TIP3    H1 1357   1.943   0.387   2.141
  472TIP3    H2 1358   1.935   0.481   2.259
  473TIP3   OH2 1359   6.953   5.104   3.306
  473TIP3    H1 1360   6.907   5.025   3.333
  473TIP3    H2 1361   7.034   5.104   3.357
  474TIP3   OH2 1362   4.636   1.171   1.724
  474TIP3    H1 1363   4.700   1.100   1.715
  474TIP3    H2 1364   4.577   1.141   1.794
  475TIP3   OH2 1365   4.761   1.124   4.910
  475TIP3    H1 1366   4.727   1.186   4.974
  475TIP3    H2 1367   4.855   1.118   4.930
  476TIP3   OH2 1368   7.851   0.189   4.898
  476TIP3    H1 1369   7.920   0.240   4.941
  476TIP3    H2 1370   7.781   0.252   4.883
  477TIP3   OH2 1371   6.514   7.076   5.233
  477TIP3    H1 1372   6.574   7.078   5.308
  477TIP3    H2 1373   6.534   6.994   5.188
  478TIP3   OH2 1374   6.942   1.589   4.626
  478TIP3    H1 1375   6.977   1.505   4.599
  478TIP3    H2 1376   6.872   1.607   4.563
  479TIP3   OH2 1377   6.236   7.718   1.924
  479TIP3    H1 1378   6.174   7.648   1.945
  479TIP3    H2 1379   6.307   7.674   1.877
  480TIP3   OH2 1380   1.616   5.207   1.965
  480TIP3    H1 1381   1.552   5.197   1.895
  480TIP3    H2 1382   1.566   5.241   2.039
  481TIP3   OH2 1383   7.990   6.505   6.211
  481TIP3    H1 1384   7.937   6.529   6.287
  481TIP3    H2 1385   7.964   6.416   6.190
  482TIP3   OH2 1386   4.249   6.364   5.974
  482TIP3    H1 1387   4.254   6.437   5.913
  482TIP3    H2 1388   4.243   6.405   6.060
  483TIP3   OH2 1389   5.544   1.951   4.898
  483TIP3    H1 1390   5.524   1.906   4.979
  483TIP3    H2 1391   5.458   1.969   4.859
  484TIP3   OH2 1392   4.351   6.015   3.490
  484TIP3    H1 1393   4.324   6.066   3.566
  484TIP3    H2 1394   4.393   6.079   3.432
  485TIP3   OH2 1395   0.111   6.779   0.759
  485TIP3    H1 1396   0.076   6.694   0.785
  485TIP3    H2 1397   0.147   6.764   0.671
  486TIP3   OH2 1398   3.332   7.404   0.441
  486TIP3    H1 1399   3.348   7.314   0.470
  486TIP3    H2 1400   3.340   7.457   0.520
  487TIP3   OH2 1401   1.156   0.214   1.767
  487TIP3    H1 1402   1.168   0.168   1.684
  487TIP3    H2 1403   1.095   0.160   1.816
  488TIP3   OH2 1404   1.175   4.548   2.228
  488TIP3    H1 1405   1.233   4.556   2.304
  488TIP3    H2 1406   1.172   4.454   2.209
  489TIP3   OH2 1407   5.478   2.966   0.439
  489TIP3    H1 1408   5.464   3.058   0.415
  489TIP3    H2 1409   5.476   2.966   0.534
  490TIP3   OH2 1410   1.736   3.034   5.619
  490TIP3    H1 1411   1.752   3.084   5.699
  490TIP3    H2 1412   1.643   3.013   5.621
  491TIP3   OH2 1413   8.034   1.830   1.901
  491TIP3    H1 1414   8.115   1.810   1.948
  491TIP3    H2 1415   8.061   1.834   1.809
  492TIP3   OH2 1416   5.754   2.681   3.770
  492TIP3    H1 1417   5.745   2.775   3.784
  492TIP3    H2 1418   5.744   2.669   3.676
  493TIP3   OH2 1419   6.764   3.058   6.671
  493TIP3    H1 1420   6.678   3.084   6.703
  493TIP3    H2 1421   6.811   3.029   6.749
  494TIP3   OH2 1422   2.149   0.685   4.577
  494TIP3    H1 1423   2.084   0.725   4.520
  494TIP3    H2 1424   2.228   0.738   4.564
  495TIP3   OH2 1425   6.839   1.254   6.554
  495TIP3    H1 1426   6.772   1.190   6.531
  495TIP3    H2 1427   6.918   1.224   6.508
  496TIP3   OH2 1428   4.877   2.296   3.951
  496TIP3    H1 1429   4.847   2.206   3.936
  496TIP3    H2 1430   4.967   2.286   3.981
  497TIP3   OH2 1431   4.581   0.596   6.651
  497TIP3    H1 1432   4.672   0.621   6.665
  497TIP3    H2 1433   4.544   0.668   6.599
  498TIP3   OH2 1434   2.184   1.572   2.683
  498TIP3    H1 1435   2.259   1.514   2.676
  498TIP3    H2 1436   2.137   1.560   2.600
  499TIP3   OH2 1437   2.610   2.300   5.344
  499TIP3    H1 1438   2.591   2.367   5.278
  499TIP3    H2 1439   2.538   2.238   5.337
  500TIP3   OH2 1440   7.799   4.785   5.204
  500TIP3    H1 1441   7.877   4.812   5.156
  500TIP3    H2 1442   7.737   4.856   5.191
  501TIP3   OH2 1443   3.193   5.595   4.965
  501TIP3    H1 1444   3.248   5.536   5.016
  501TIP3    H2 1445   3.179   5.671   5.022
  502TIP3   OH2 1446   0.864   1.763   6.319
  502TIP3    H1 1447   0.914   1.693   6.276
  502TIP3    H2 1448   0.917   1.788   6.394
  503TIP3   OH2 1449   5.175   5.201   4.662
  503TIP3    H1 1450   5.119   5.176   4.588
  503TIP3    H2 1451   5.180   5.296   4.656
  504TIP3   OH2 1452   2.541   1.630   2.734
  504TIP3    H1 1453   2.586   1.624   2.650
  504TIP3    H2 1454   2.547   1.542   2.771
  505TIP3   OH2 1455   4.534   7.689   1.740
  505TIP3    H1 1456   4.448   7.646   1.738
  505TIP3    H2 1457   4.565   7.684   1.649
  506TIP3   OH2 1458   3.354   0.525   4.520
  506TIP3    H1 1459   3.397   0.572   4.591
  506TIP3    H2 1460   3.416   0.526   4.448
  507TIP3   OH2 1461   8.243   0.754   0.843
  507TIP3    H1 1462   8.235   0.733   0.750
  507TIP3    H2 1463   8.337   0.767   0.857
  508TIP3   OH2 1464   2.554   5.952   5.323
  508TIP3    H1 1465   2.524   6.042   5.312
  508TIP3    H2 1466   2.645   5.953   5.292
  509TIP3   OH2 1467   2.009   3.736   2.350
  509TIP3    H1 1468   2.097   3.762   2.324
  509TIP3    H2 1469   2.015   3.723   2.445
  510TIP3   OH2 1470   7.930   2.719   6.755
  510TIP3    H1 1471   7.928   2.629   6.788
  510TIP3    H2 1472   7.906   2.773   6.830
  511TIP3   OH2 1473   4.180   7.083   2.161
  511TIP3    H1 1474   4.120   7.057   2.231
  511TIP3    H2 1475   4.129   7.076   2.081
  512TIP3   OH2 1476   6.863   7.811   2.907
  512TIP3    H1 1477   6.941   7.788   2.857
  512TIP3    H2 1478   6.852   7.905   2.893
  513TIP3   OH2 1479   2.054   2.155   6.877
  513TIP3    H1 1480   1.971   2.192   6.907
  513TIP3    H2 1481   2.063   2.186   6.787
  514TIP3   OH2 1482   6.086   1.521   1.502
  514TIP3    H1 1483   6.066   1.607   1.541
  514TIP3    H2 1484   6.017   1.464   1.535
  515TIP3   OH2 1485   6.887   1.200   5.758
  515TIP3    H1 1486   6.931   1.242   5.832
  515TIP3    H2 1487   6.797   1.186   5.788
  516TIP3   OH2 1488   1.205   1.339   4.783
  516TIP3    H1 1489   1.286   1.310   4.741
  516TIP3    H2 1490   1.140   1.272   4.757
  517TIP3   OH2 1491   7.592   3.097   0.163
  517TIP3    H1 1492   7.619   3.182   0.131
  517TIP3    H2 1493   7.497   3.105   0.176
  518TIP3   OH2 1494   3.149   6.735   1.595
  518TIP3    H1 1495   3.200   6.796   1.542
  518TIP3    H2 1496   3.214   6.688   1.647
  519TIP3   OH2 1497   4.744   4.588   5.473
  519TIP3    H1 1498   4.774   4.576   5.383
  519TIP3    H2 1499   4.820   4.624   5.519
  520TIP3   OH2 1500   5.580   4.528   1.735
  520TIP3    H1 1501   5.568   4.467   1.661
  520TIP3    H2 1502   5.495   4.570   1.745
  521TIP3   OH2 1503   2.519   2.216   1.400
  521TIP3    H1 1504   2.612   2.203   1.421
  521TIP3    H2 1505   2.511   2.191   1.308
  522TIP3   OH2 1506   3.640   5.090   1.258
  522TIP3    H1 1507   3.714   5.104   1.316
  522TIP3    H2 1508   3.563   5.108   1.312
  523TIP3   OH2 1509   4.321   3.180   6.774
  523TIP3    H1 1510   4.306   3.100   6.724
  523TIP3    H2 1511   4.255   3.241   6.742
  524TIP3   OH2 1512   4.593   3.977   1.235
  524TIP3    H1 1513   4.537   3.956   1.160
  524TIP3    H2 1514   4.628   3.892   1.263
  525TIP3   OH2 1515   1.853   1.225   5.587
  525TIP3    H1 1516   1.874   1.230   5.680
  525TIP3    H2 1517   1.840   1.316   5.560
  526TIP3   OH2 1518   7.358   6.209   2.717
  526TIP3    H1 1519   7.315   6.264   2.651
  526TIP3    H2 1520   7.319   6.235   2.800
  527TIP3   OH2 1521   7.099   7.717   2.802
  527TIP3    H1 1522   7.089   7.692   2.710
  527TIP3    H2 1523   7.149   7.644   2.841
  528TIP3   OH2 1524   4.091   1.833   6.336
  528TIP3    H1 1525   4.183   1.821   6.361
  528TIP3    H2 1526   4.089   1.813   6.242
  529TIP3   OH2 1527   7.352   2.154   4.481
  529TIP3    H1 1528   7.419   2.105   4.434
  529TIP3    H2 1529   7.389   2.168   4.568
  530TIP3   OH2 1530   8.047   2.314   1.577
  530TIP3    H1 1531   8.084   2.250   1.637
  530TIP3    H2 1532   8.018   2.386   1.633
  531TIP3   OH2 1533   8.064   5.779   6.380
  531TIP3    H1 1534   8.158   5.769   6.397
  531TIP3    H2 1535   8.035   5.691   6.356
  532TIP3   OH2 1536   6.951   4.081   3.674
  532TIP3    H1 1537   6.935   4.096   3.767
  532TIP3    H2 1538   6.865   4.082   3.633
  533TIP3   OH2 1539   5.164   5.708   5.382
  533TIP3    H1 1540   5.140   5.615   5.382
  533TIP3    H2 1541   5.100   5.750   5.325
  534TIP3   OH2 1542   6.758   4.593   2.324
  534TIP3    H1 1543   6.679   4.626   2.281
  534TIP3    H2 1544   6.727   4.517   2.375
  535TIP3   OH2 1545   5.726   3.142   6.016
  535TIP3    H1 1546   5.781   3.103   5.948
  535TIP3    H2 1547   5.699   3.067   6.070
  536TIP3   OH2 1548   5.842   0.467   4.815
  536TIP3    H1 1549   5.859   0.443   4.724
  536TIP3    H2 1550   5.911   0.529   4.837
  537TIP3   OH2 1551   8.101   2.587   6.367
  537TIP3    H1 1552   8.036   2.595   6.436
  537TIP3    H2 1553   8.173   2.538   6.407
  538TIP3   OH2 1554   7.934   0.503   0.776
  538TIP3    H1 1555   7.940   0.520   0.682
  538TIP3    H2 1556   7.948   0.409   0.785
  539TIP3   OH2 1557   6.193   1.786   2.550
  539TIP3    H1 1558   6.221   1.797   2.641
  539TIP3    H2 1559   6.188   1.876   2.516
  540TIP3   OH2 1560   4.563   6.858   6.664
  540TIP3    H1 1561   4.481   6.860   6.714
  540TIP3    H2 1562   4.590   6.766   6.666
  541TIP3   OH2 1563   6.696   6.641   5.403
  541TIP3    H1 1564   6.615   6.592   5.419
  541TIP3    H2 1565   6.685   6.722   5.453
  542TIP3   OH2 1566   5.944   2.850   6.040
  542TIP3    H1 1567   5.919   2.829   6.130
  542TIP3    H2 1568   6.038   2.868   6.045
  543TIP3   OH2 1569   5.731   6.865   1.956
  543TIP3    H1 1570   5.813   6.907   1.931
  543TIP3    H2 1571   5.721   6.793   1.895
  544TIP3   OH2 1572   2.599   5.895   0.122
  544TIP3    H1 1573   2.533   5.894   0.053
  544TIP3    H2 1574   2.680   5.868   0.078
  545TIP3   OH2 1575   5.377   7.758   5.321
  545TIP3    H1 1576   5.289   7.723   5.331
  545TIP3    H2 1577   5.386   7.777   5.228
  546TIP3   OH2 1578   0.622   6.700   5.974
  546TIP3    H1 1579   0.618   6.787   6.014
  546TIP3    H2 1580   0.530   6.675   5.962
  547TIP3   OH2 1581   2.658   3.742   5.053
  547TIP3    H1 1582   2.634   3.802   4.983
  547TIP3    H2 1583   2.704   3.670   5.009
  548TIP3   OH2 1584   5.329   1.682   5.221
  548TIP3    H1 1585   5.238   1.653   5.215
  548TIP3    H2 1586   5.324   1.777   5.214
  549TIP3   OH2 1587   1.022   4.357   5.335
  549TIP3    H1 1588   1.069   4.438   5.352
  549TIP3    H2 1589   1.023   4.310   5.418
  550TIP3   OH2 1590   4.668   7.396   3.011
  550TIP3    H1 1591   4.598   7.412   2.946
  550TIP3    H2 1592   4.746   7.379   2.958
  551TIP3   OH2 1593   0.697   5.665   5.617
  551TIP3    H1 1594   0.749   5.652   5.697
  551TIP3    H2 1595   0.689   5.577   5.579
  552TIP3   OH2 1596   8.091   2.932   4.368
  552TIP3    H1 1597   8.124   2.994   4.302
  552TIP3    H2 1598   8.121   2.969   4.451
  553TIP3   OH2 1599   3.179   7.185   1.465
  553TIP3    H1 1600   3.247   7.215   1.525
  553TIP3    H2 1601   3.097   7.209   1.509
  554TIP3   OH2 1602   8.159   3.673   3.636
  554TIP3    H1 1603   8.181   3.581   3.651
  554TIP3    H2 1604   8.231   3.707   3.583
  555TIP3   OH2 1605   8.235   1.164   5.654
  555TIP3    H1 1606   8.205   1.255   5.664
  555TIP3    H2 1607   8.220   1.144   5.562
  556TIP3   OH2 1608   6.817   0.843   3.314
  556TIP3    H1 1609   6.888   0.809   3.369
  556TIP3    H2 1610   6.860   0.905   3.255
  557TIP3   OH2 1611   3.536   2.148   3.735
  557TIP3    H1 1612   3.564   2.169   3.646
  557TIP3    H2 1613   3.612   2.107   3.776
  558TIP3   OH2 1614   5.465   6.581   1.905
  558TIP3    H1 1615   5.408   6.657   1.894
  558TIP3    H2 1616   5.519   6.601   1.982
  559TIP3   OH2 1617   3.217   0.444   5.536
  559TIP3    H1 1618   3.129   0.446   5.572
  559TIP3    H2 1619   3.234   0.534   5.508
  560TIP3   OH2 1620   3.849   6.094   1.035
  560TIP3    H1 1621   3.777   6.149   1.067
  560TIP3    H2 1622   3.859   6.119   0.943
  561TIP3   OH2 1623   2.831   0.021   3.566
  561TIP3    H1 1624   2.831   0.098   3.509
  561TIP3    H2 1625   2.769   0.042   3.636
  562TIP3   OH2 1626   3.848   2.244   3.830
  562TIP3    H1 1627   3.936   2.266   3.800
  562TIP3    H2 1628   3.844   2.149   3.828
  563TIP3   OH2 1629   2.693   7.621   5.512
  563TIP3    H1 1630   2.622   7.647   5.453
  563TIP3    H2 1631   2.733   7.545   5.470
  564TIP3   OH2 1632   1.819   7.684   2.094
  564TIP3    H1 1633   1.803   7.668   2.001
  564TIP3    H2 1634   1.877   7.760   2.096
  565TIP3   OH2 1635   7.247   0.746   0.787
  565TIP3    H1 1636   7.316   0.727   0.850
  565TIP3    H2 1637   7.166   0.737   0.837
  566TIP3   OH2 1638   6.967   2.658   4.140
  566TIP3    H1 1639   6.988   2.729   4.200
  566TIP3    H2 1640   6.914   2.597   4.192
  567TIP3   OH2 1641   5.115   3.990   1.656
  567TIP3    H1 1642   5.086   3.910   1.701
  567TIP3    H2 1643   5.201   3.968   1.621
  568TIP3   OH2 1644   7.379   7.700   3.533
  568TIP3    H1 1645   7.308   7.725   3.475
  568TIP3    H2 1646   7.449   7.762   3.515
  569TIP3   OH2 1647   2.133   5.247   5.924
  569TIP3    H1 1648   2.075   5.233   5.850
  569TIP3    H2 1649   2.196   5.175   5.919
  570TIP3   OH2 1650   2.294   1.720   5.305
  570TIP3    H1 1651   2.381   1.687   5.283
  570TIP3    H2 1652   2.258   1.654   5.365
  571TIP3   OH2 1653   4.519   7.200   0.274
  571TIP3    H1 1654   4.551   7.110   0.280
  571TIP3    H2 1655   4.521   7.220   0.180
  572TIP3   OH2 1656   3.793   0.576   6.541
  572TIP3    H1 1657   3.796   0.531   6.625
  572TIP3    H2 1658   3.873   0.548   6.496
  573TIP3   OH2 1659   6.656   3.486   5.675
  573TIP3    H1 1660   6.623   3.398   5.695
  573TIP3    H2 1661   6.622   3.505   5.588
  574TIP3   OH2 1662   6.664   6.686   0.573
  574TIP3    H1 1663   6.604   6.615   0.597
  574TIP3    H2 1664   6.751   6.649   0.585
  575TIP3   OH2 1665   6.623   2.404   4.097
  575TIP3    H1 1666   6.593   2.316   4.120
  575TIP3    H2 1667   6.622   2.452   4.180
  576TIP3   OH2 1668   7.284   4.671   5.030
  576TIP3    H1 1669   7.314   4.742   5.087
  576TIP3    H2 1670   7.253   4.603   5.090
  577TIP3   OH2 1671   4.240   5.088   1.076
  577TIP3    H1 1672   4.161   5.058   1.122
  577TIP3    H2 1673   4.248   5.180   1.100
  578TIP3   OH2 1674   2.324   3.401   3.564
  578TIP3    H1 1675   2.241   3.446   3.553
  578TIP3    H2 1676   2.369   3.411   3.480
  579TIP3   OH2 1677   7.181   6.304   0.247
  579TIP3    H1 1678   7.166   6.301   0.342
  579TIP3    H2 1679   7.162   6.215   0.217
  580TIP3   OH2 1680   5.441   2.706   3.326
  580TIP3    H1 1681   5.391   2.627   3.305
  580TIP3    H2 1682   5.374   2.774   3.336
  581TIP3   OH2 1683   5.698   4.411   2.427
  581TIP3    H1 1684   5.632   4.480   2.435
  581TIP3    H2 1685   5.647   4.330   2.420
  582TIP3   OH2 1686   2.822   3.881   2.677
  582TIP3    H1 1687   2.915   3.896   2.660
  582TIP3    H2 1688   2.777   3.956   2.638
  583TIP3   OH2 1689   5.613   1.717   6.437
  583TIP3    H1 1690   5.607   1.643   6.377
  583TIP3    H2 1691   5.523   1.750   6.443
  584TIP3   OH2 1692   1.417   5.220   5.490
  584TIP3    H1 1693   1.446   5.130   5.477
  584TIP3    H2 1694   1.410   5.256   5.402
  585TIP3   OH2 1695   6.674   6.151   3.120
  585TIP3    H1 1696   6.700   6.194   3.201
  585TIP3    H2 1697   6.580   6.137   3.130
  586TIP3   OH2 1698   1.399   3.687   1.297
  586TIP3    H1 1699   1.368   3.597   1.306
  586TIP3    H2 1700   1.331   3.731   1.244
  587TIP3   OH2 1701   4.186   1.282   0.842
  587TIP3    H1 1702   4.257   1.310   0.899
  587TIP3    H2 1703   4.112   1.338   0.865
  588TIP3   OH2 1704   0.730   2.036   1.629
  588TIP3    H1 1705   0.727   1.940   1.618
  588TIP3    H2 1706   0.821   2.054   1.655
  589TIP3   OH2 1707   1.308   7.678   5.218
  589TIP3    H1 1708   1.366   7.706   5.288
  589TIP3    H2 1709   1.269   7.759   5.185
  590TIP3   OH2 1710   8.303   3.345   1.809
  590TIP3    H1 1711   8.391   3.381   1.802
  590TIP3    H2 1712   8.311   3.272   1.870
  591TIP3   OH2 1713   5.995   2.406   4.397
  591TIP3    H1 1714   5.926   2.416   4.332
  591TIP3    H2 1715   5.978   2.321   4.437
  592TIP3   OH2 1716   1.726   2.513   1.058
  592TIP3    H1 1717   1.693   2.463   0.983
  592TIP3    H2 1718   1.652   2.516   1.119
  593TIP3   OH2 1719   1.447   6.015   2.695
  593TIP3    H1 1720   1.405   6.032   2.780
  593TIP3    H2 1721   1.377   5.976   2.642
  594TIP3   OH2 1722   3.996   1.127   4.433
  594TIP3    H1 1723   4.021   1.195   4.496
  594TIP3    H2 1724   4.078   1.081   4.414
  595TIP3   OH2 1725   3.825   5.181   2.436
  595TIP3    H1 1726   3.758   5.207   2.499
  595TIP3    H2 1727   3.905   5.171   2.488
  596TIP3   OH2 1728   3.241   5.943   0.483
  596TIP3    H1 1729   3.270   5.871   0.539
  596TIP3    H2 1730   3.162   5.977   0.525
  597TIP3   OH2 1731   4.363   3.188   1.034
  597TIP3    H1 1732   4.273   3.164   1.013
  597TIP3    H2 1733   4.416   3.119   0.995
  598TIP3   OH2 1734   0.674   1.880   3.444
  598TIP3    H1 1735   0.719   1.853   3.365
  598TIP3    H2 1736   0.684   1.806   3.504
  599TIP3   OH2 1737   6.645   6.111   4.810
  599TIP3    H1 1738   6.631   6.019   4.788
  599TIP3    H2 1739   6.599   6.160   4.742
  600TIP3   OH2 1740   8.275   4.164   0.893
  600TIP3    H1 1741   8.185   4.185   0.918
  600TIP3    H2 1742   8.329   4.210   0.958
  601TIP3   OH2 1743   2.442   6.514   5.290
  601TIP3    H1 1744   2.419   6.598   5.328
  601TIP3    H2 1745   2.462   6.533   5.199
  602TIP3   OH2 1746   6.177   3.729   6.763
  602TIP3    H1 1747   6.134   3.810   6.735
  602TIP3    H2 1748   6.218   3.694   6.684
  603TIP3   OH2 1749   3.887   3.691   6.185
  603TIP3    H1 1750   3.911   3.761   6.124
  603TIP3    H2 1751   3.910   3.610   6.139
  604TIP3   OH2 1752   4.305   6.295   3.580
  604TIP3    H1 1753   4.281   6.347   3.657
  604TIP3    H2 1754   4.222   6.280   3.534
  605TIP3   OH2 1755   0.949   3.488   3.834
  605TIP3    H1 1756   1.016   3.450   3.892
  605TIP3    H2 1757   0.923   3.415   3.777
  606TIP3   OH2 1758   8.040   7.690   4.954
  606TIP3    H1 1759   7.954   7.703   4.995
  606TIP3    H2 1760   8.090   7.639   5.018
  607TIP3   OH2 1761   6.847   2.912   5.473
  607TIP3    H1 1762   6.893   2.858   5.537
  607TIP3    H2 1763   6.844   2.858   5.394
  608TIP3   OH2 1764   8.086   2.635   3.738
  608TIP3    H1 1765   8.020   2.670   3.678
  608TIP3    H2 1766   8.063   2.543   3.748
  609TIP3   OH2 1767   5.372   0.184   3.039
  609TIP3    H1 1768   5.363   0.169   3.133
  609TIP3    H2 1769   5.456   0.228   3.029
  610TIP3   OH2 1770   6.290   2.900   5.318
  610TIP3    H1 1771   6.238   2.837   5.268
  610TIP3    H2 1772   6.367   2.851   5.346
  611TIP3   OH2 1773   4.323   7.790   5.737
  611TIP3    H1 1774   4.347   7.766   5.648
  611TIP3    H2 1775   4.306   7.884   5.733
  612TIP3   OH2 1776   5.842   2.180   1.053
  612TIP3    H1 1777   5.833   2.247   0.985
  612TIP3    H2 1778   5.934   2.152   1.047
  613TIP3   OH2 1779   8.104   4.665   6.108
  613TIP3    H1 1780   8.047   4.741   6.121
  613TIP3    H2 1781   8.054   4.592   6.144
  614TIP3   OH2 1782   5.973   0.871   4.504
  614TIP3    H1 1783   5.993   0.850   4.413
  614TIP3    H2 1784   5.944   0.962   4.502
  615TIP3   OH2 1785   6.066   7.139   1.654
  615TIP3    H1 1786   6.006   7.125   1.580
  615TIP3    H2 1787   6.121   7.061   1.655
  616TIP3   OH2 1788   6.899   2.248   2.403
  616TIP3    H1 1789   6.967   2.277   2.343
  616TIP3    H2 1790   6.879   2.158   2.375
  617TIP3   OH2 1791   7.632   5.519   0.160
  617TIP3    H1 1792   7.710   5.467   0.177
  617TIP3    H2 1793   7.664   5.605   0.132
  618TIP3   OH2 1794   4.189   0.592   3.627
  618TIP3    H1 1795   4.213   0.634   3.709
  618TIP3    H2 1796   4.114   0.537   3.649
  619TIP3   OH2 1797   2.021   5.045   6.275
  619TIP3    H1 1798   1.969   5.083   6.205
  619TIP3    H2 1799   2.111   5.047   6.242
  620TIP3   OH2 1800   5.284   6.203   4.521
  620TIP3    H1 1801   5.356   6.159   4.474
  620TIP3    H2 1802   5.325   6.238   4.600
  621TIP3   OH2 1803   3.187   5.066   0.782
  621TIP3    H1 1804   3.220   4.979   0.806
  621TIP3    H2 1805   3.198   5.069   0.687
  622TIP3   OH2 1806   1.432   1.645   0.079
  622TIP3    H1 1807   1.387   1.724   0.109
  622TIP3    H2 1808   1.463   1.667  -0.009
  623TIP3   OH2 1809   5.863   1.260   6.109
  623TIP3    H1 1810   5.867   1.299   6.197
  623TIP3    H2 1811   5.771   1.268   6.084
  624TIP3   OH2 1812   4.179   2.885   2.858
  624TIP3    H1 1813   4.271   2.907   2.876
  624TIP3    H2 1814   4.183   2.827   2.782
  625TIP3   OH2 1815   8.396   5.491   5.882
  625TIP3    H1 1816   8.348   5.467   5.961
  625TIP3    H2 1817   8.441   5.411   5.855
  626TIP3   OH2 1818   7.945   6.657   5.314
  626TIP3    H1 1819   8.013   6.661   5.248
  626TIP3    H2 1820   7.864   6.678   5.267
  627TIP3   OH2 1821   8.058   3.970   5.153
  627TIP3    H1 1822   8.101   4.040   5.103
  627TIP3    H2 1823   8.123   3.901   5.159
  628TIP3   OH2 1824   1.568   7.385   1.629
  628TIP3    H1 1825   1.541   7.379   1.720
  628TIP3    H2 1826   1.580   7.294   1.602
  629TIP3   OH2 1827   2.167   6.130   4.100
  629TIP3    H1 1828   2.254   6.125   4.060
  629TIP3    H2 1829   2.158   6.049   4.149
  630TIP3   OH2 1830   4.663   1.923   2.466
  630TIP3    H1 1831   4.622   2.009   2.480
  630TIP3    H2 1832   4.604   1.861   2.509
  631TIP3   OH2 1833   3.526   4.646   5.350
  631TIP3    H1 1834   3.502   4.739   5.360
  631TIP3    H2 1835   3.616   4.648   5.317
  632TIP3   OH2 1836   3.612   2.438   4.340
  632TIP3    H1 1837   3.653   2.482   4.415
  632TIP3    H2 1838   3.522   2.422   4.367
  633TIP3   OH2 1839   1.300   2.268   6.712
  633TIP3    H1 1840   1.367   2.286   6.646
  633TIP3    H2 1841   1.297   2.172   6.718
  634TIP3   OH2 1842   6.449   1.761   2.732
  634TIP3    H1 1843   6.425   1.854   2.727
  634TIP3    H2 1844   6.465   1.745   2.825
  635TIP3   OH2 1845   7.681   0.363   1.087
  635TIP3    H1 1846   7.746   0.405   1.030
  635TIP3    H2 1847   7.652   0.433   1.145
  636TIP3   OH2 1848   5.471   4.453   5.933
  636TIP3    H1 1849   5.467   4.359   5.919
  636TIP3    H2 1850   5.530   4.485   5.865
  637TIP3   OH2 1851   1.591   6.432   3.955
  637TIP3    H1 1852   1.614   6.469   4.040
  637TIP3    H2 1853   1.544   6.502   3.910
  638TIP3   OH2 1854   2.476   7.489   0.847
  638TIP3    H1 1855   2.461   7.559   0.783
  638TIP3    H2 1856   2.567   7.500   0.873
  639TIP3   OH2 1857   7.328   4.116   3.820
  639TIP3    H1 1858   7.354   4.079   3.736
  639TIP3    H2 1859   7.349   4.048   3.884
  640TIP3   OH2 1860   2.701   2.094   6.212
  640TIP3    H1 1861   2.708   2.146   6.132
  640TIP3    H2 1862   2.770   2.129   6.269
  641TIP3   OH2 1863   5.307   2.167   5.480
  641TIP3    H1 1864   5.250   2.176   5.403
  641TIP3    H2 1865   5.302   2.253   5.523
  642TIP3   OH2 1866   6.063   7.899   2.010
  642TIP3    H1 1867   6.123   7.839   1.966
  642TIP3    H2 1868   5.995   7.843   2.046
  643TIP3   OH2 1869   4.691   7.302   5.451
  643TIP3    H1 1870   4.645   7.228   5.492
  643TIP3    H2 1871   4.675   7.376   5.509
  644TIP3   OH2 1872   1.557   0.292   6.391
  644TIP3    H1 1873   1.617   0.286   6.317
  644TIP3    H2 1874   1.539   0.386   6.400
  645TIP3   OH2 1875   0.248   2.267   1.167
  645TIP3    H1 1876   0.291   2.262   1.082
  645TIP3    H2 1877   0.156   2.279   1.147
  646TIP3   OH2 1878   0.307   1.525   1.723
  646TIP3    H1 1879   0.255   1.508   1.801
  646TIP3    H2 1880   0.381   1.464   1.730
  647TIP3   OH2 1881   0.447   6.923   4.513
  647TIP3    H1 1882   0.475   6.834   4.489
  647TIP3    H2 1883   0.366   6.910   4.562
  648TIP3   OH2 1884   6.451   6.530   0.780
  648TIP3    H1 1885   6.373   6.567   0.822
  648TIP3    H2 1886   6.417   6.464   0.720
  649TIP3   OH2 1887   4.142   7.324   5.864
  649TIP3    H1 1888   4.159   7.231   5.850
  649TIP3    H2 1889   4.196   7.347   5.940
  650TIP3   OH2 1890   2.756   5.510   0.819
  650TIP3    H1 1891   2.670   5.471   0.808
  650TIP3    H2 1892   2.778   5.496   0.911
  651TIP3   OH2 1893   2.628   7.706   5.147
  651TIP3    H1 1894   2.646   7.791   5.187
  651TIP3    H2 1895   2.698   7.694   5.083
  652TIP3   OH2 1896   3.011   3.093   4.435
  652TIP3    H1 1897   3.040   3.184   4.438
  652TIP3    H2 1898   3.051   3.052   4.511
  653TIP3   OH2 1899   7.682   2.714   5.403
  653TIP3    H1 1900   7.645   2.749   5.483
  653TIP3    H2 1901   7.632   2.756   5.332
  654TIP3   OH2 1902   3.312   6.538   1.690
  654TIP3    H1 1903   3.259   6.464   1.720
  654TIP3    H2 1904   3.364   6.563   1.767
  655TIP3   OH2 1905   6.058   3.388   2.960
  655TIP3    H1 1906   6.033   3.447   2.889
  655TIP3    H2 1907   5.975   3.356   2.996
  656TIP3   OH2 1908   1.858   7.479   2.629
  656TIP3    H1 1909   1.941   7.495   2.584
  656TIP3    H2 1910   1.825   7.567   2.650
  657TIP3   OH2 1911   2.681   2.036   2.932
  657TIP3    H1 1912   2.731   1.972   2.983
  657TIP3    H2 1913   2.699   2.014   2.841
  658TIP3   OH2 1914   6.550   0.917   4.300
  658TIP3    H1 1915   6.580   0.983   4.362
  658TIP3    H2 1916   6.524   0.967   4.223
  659TIP3   OH2 1917   0.152   1.224   5.179
  659TIP3    H1 1918   0.114   1.166   5.245
  659TIP3    H2 1919   0.219   1.273   5.226
  660TIP3   OH2 1920   0.084   2.001   5.545
  660TIP3    H1 1921   0.146   2.068   5.517
  660TIP3    H2 1922   0.127   1.958   5.619
  661TIP3   OH2 1923   7.668   1.041   1.603
  661TIP3    H1 1924   7.647   1.120   1.554
  661TIP3    H2 1925   7.583   1.012   1.638
  662TIP3   OH2 1926   2.621   7.554   3.081
  662TIP3    H1 1927   2.608   7.634   3.029
  662TIP3    H2 1928   2.537   7.508   3.075
  663TIP3   OH2 1929   0.563   6.046   5.272
  663TIP3    H1 1930   0.658   6.055   5.269
  663TIP3    H2 1931   0.548   5.957   5.304
  664TIP3   OH2 1932   2.759   4.880   2.519
  664TIP3    H1 1933   2.715   4.965   2.514
  664TIP3    H2 1934   2.754   4.845   2.430
  665TIP3   OH2 1935   5.587   2.554   2.579
  665TIP3    H1 1936   5.639   2.522   2.505
  665TIP3    H2 1937   5.564   2.474   2.628
  666TIP3   OH2 1938   7.843   1.247   3.948
  666TIP3    H1 1939   7.803   1.199   3.876
  666TIP3    H2 1940   7.914   1.190   3.978
  667TIP3   OH2 1941   5.147   5.395   5.359
  667TIP3    H1 1942   5.141   5.300   5.370
  667TIP3    H2 1943   5.155   5.408   5.264
  668TIP3   OH2 1944   7.051   3.877   2.962
  668TIP3    H1 1945   6.958   3.898   2.968
  668TIP3    H2 1946   7.080   3.868   3.053
  669TIP3   OH2 1947   1.012   5.174   0.964
  669TIP3    H1 1948   0.955   5.155   0.889
  669TIP3    H2 1949   1.091   5.211   0.925
  670TIP3   OH2 1950   4.637   6.611   1.496
  670TIP3    H1 1951   4.682   6.535   1.461
  670TIP3    H2 1952   4.565   6.627   1.436
  671TIP3   OH2 1953   3.551   3.806   6.629
  671TIP3    H1 1954   3.582   3.724   6.667
  671TIP3    H2 1955   3.612   3.872   6.663
  672TIP3   OH2 1956   0.130   4.094   4.104
  672TIP3    H1 1957   0.046   4.082   4.059
  672TIP3    H2 1958   0.121   4.043   4.185
  673TIP3   OH2 1959   7.049   4.142   2.727
  673TIP3    H1 1960   7.032   4.067   2.671
  673TIP3    H2 1961   7.096   4.106   2.802
  674TIP3   OH2 1962   3.039   6.151   1.337
  674TIP3    H1 1963   2.956   6.139   1.292
  674TIP3    H2 1964   3.094   6.198   1.275
  675TIP3   OH2 1965   2.710   0.379   0.453
  675TIP3    H1 1966   2.743   0.384   0.364
  675TIP3    H2 1967   2.732   0.290   0.482
  676TIP3   OH2 1968   0.468   7.093   2.560
  676TIP3    H1 1969   0.503   7.059   2.643
  676TIP3    H2 1970   0.422   7.173   2.586
  677TIP3   OH2 1971   7.105   3.623  -0.006
  677TIP3    H1 1972   7.135   3.661   0.077
  677TIP3    H2 1973   7.028   3.571   0.018
  678TIP3   OH2 1974   7.415   3.398   0.524
  678TIP3    H1 1975   7.375   3.484   0.528
  678TIP3    H2 1976   7.413   3.365   0.614
  679TIP3   OH2 1977   1.104   6.937   5.138
  679TIP3    H1 1978   1.140   7.024   5.155
  679TIP3    H2 1979   1.048   6.918   5.213
  680TIP3   OH2 1980   1.506   5.711   5.021
  680TIP3    H1 1981   1.574   5.646   5.007
  680TIP3    H2 1982   1.554   5.791   5.043
  681TIP3   OH2 1983   0.938   6.764   5.014
  681TIP3    H1 1984   0.874   6.832   4.993
  681TIP3    H2 1985   1.003   6.809   5.069
  682TIP3   OH2 1986   4.601   4.437   3.340
  682TIP3    H1 1987   4.670   4.463   3.279
  682TIP3    H2 1988   4.613   4.343   3.353
  683TIP3   OH2 1989   7.811   7.552   6.073
  683TIP3    H1 1990   7.789   7.645   6.063
  683TIP3    H2 1991   7.728   7.507   6.060
  684TIP3   OH2 1992   0.987   1.610   2.668
  684TIP3    H1 1993   1.078   1.594   2.693
  684TIP3    H2 1994   0.989   1.613   2.572
  685TIP3   OH2 1995   5.615   2.501   5.291
  685TIP3    H1 1996   5.642   2.423   5.242
  685TIP3    H2 1997   5.666   2.498   5.372
  686TIP3   OH2 1998   7.667   0.757   2.930
  686TIP3    H1 1999   7.669   0.715   3.016
  686TIP3    H2 2000   7.580   0.796   2.924
  687TIP3   OH2 2001   7.275   3.327   6.524
  687TIP3    H1 2002   7.354   3.367   6.487
  687TIP3    H2 2003   7.223   3.401   6.555
  688TIP3   OH2 2004   1.692   1.774   1.569
  688TIP3    H1 2005   1.599   1.795   1.556
  688TIP3    H2 2006   1.701   1.761   1.663
  689TIP3   OH2 2007   1.884   3.095   6.466
  689TIP3    H1 2008   1.945   3.064   6.399
  689TIP3    H2 2009   1.895   3.034   6.539
  690TIP3   OH2 2010   0.493   1.407   4.324
  690TIP3    H1 2011   0.587   1.394   4.338
  690TIP3    H2 2012   0.472   1.352   4.249
  691TIP3   OH2 2013   4.733   4.462   3.095
  691TIP3    H1 2014   4.813   4.412   3.111
  691TIP3    H2 2015   4.692   4.419   3.020
  692TIP3   OH2 2016   7.638   7.274   4.069
  692TIP3    H1 2017   7.602   7.355   4.106
  692TIP3    H2 2018   7.612   7.206   4.130
  693TIP3   OH2 2019   8.050   1.355   0.997
  693TIP3    H1 2020   8.086   1.422   0.939
  693TIP3    H2 2021   8.127   1.307   1.028
  694TIP3   OH2 2022   4.959   4.390   4.502
  694TIP3    H1 2023   4.923   4.477   4.518
  694TIP3    H2 2024   4.987   4.360   4.588
  695TIP3   OH2 2025   5.698  -0.002   3.020
  695TIP3    H1 2026   5.735   0.086   3.033
  695TIP3    H2 2027   5.670  -0.002   2.928
  696TIP3   OH2 2028   5.059   3.222   4.614
  696TIP3    H1 2029   5.090   3.306   4.580
  696TIP3    H2 2030   5.085   3.159   4.547
  697TIP3   OH2 2031   8.282   6.048   1.171
  697TIP3    H1 2032   8.193   6.081   1.161
  697TIP3    H2 2033   8.335   6.127   1.182
  698TIP3   OH2 2034   7.931   7.485   3.538
  698TIP3    H1 2035   8.018   7.506   3.503
  698TIP3    H2 2036   7.928   7.389   3.538
  699TIP3   OH2 2037   5.790   6.296   2.077
  699TIP3    H1 2038   5.725   6.322   2.142
  699TIP3    H2 2039   5.874   6.313   2.119
  700TIP3   OH2 2040   7.856   2.853   3.296
  700TIP3    H1 2041   7.792   2.787   3.269
  700TIP3    H2 2042   7.887   2.890   3.213
  701TIP3   OH2 2043   2.806   3.105   3.371
  701TIP3    H1 2044   2.739   3.105   3.440
  701TIP3    H2 2045   2.761   3.140   3.294
  702TIP3   OH2 2046   7.799   4.487   2.111
  702TIP3    H1 2047   7.759   4.417   2.060
  702TIP3    H2 2048   7.755   4.483   2.196
  703TIP3   OH2 2049   8.181   6.588   4.683
  703TIP3    H1 2050   8.269   6.550   4.689
  703TIP3    H2 2051   8.125   6.513   4.664
  704TIP3   OH2 2052   7.922   4.068   6.180
  704TIP3    H1 2053   7.889   4.103   6.263
  704TIP3    H2 2054   7.844   4.061   6.125
  705TIP3   OH2 2055   7.119   4.314   3.894
  705TIP3    H1 2056   7.179   4.244   3.867
  705TIP3    H2 2057   7.086   4.286   3.979
  706TIP3   OH2 2058   8.333   0.778   5.794
  706TIP3    H1 2059   8.327   0.737   5.708
  706TIP3    H2 2060   8.253   0.751   5.839
  707TIP3   OH2 2061   0.810   2.562   2.978
  707TIP3    H1 2062   0.819   2.649   3.018
  707TIP3    H2 2063   0.901   2.531   2.969
  708TIP3   OH2 2064   5.188   3.535   0.506
  708TIP3    H1 2065   5.196   3.440   0.496
  708TIP3    H2 2066   5.146   3.546   0.591
  709TIP3   OH2 2067   8.300   0.944   0.347
  709TIP3    H1 2068   8.213   0.908   0.360
  709TIP3    H2 2069   8.289   1.039   0.358
  710TIP3   OH2 2070   8.288   3.413   6.656
  710TIP3    H1 2071   8.233   3.490   6.671
  710TIP3    H2 2072   8.294   3.407   6.560
  711TIP3   OH2 2073   1.360   6.952   6.662
  711TIP3    H1 2074   1.335   7.044   6.656
  711TIP3    H2 2075   1.314   6.918   6.739
  712TIP3   OH2 2076   5.008   2.845   5.553
  712TIP3    H1 2077   5.072   2.875   5.618
  712TIP3    H2 2078   5.048   2.769   5.512
  713TIP3   OH2 2079   1.197   6.729   6.116
  713TIP3    H1 2080   1.199   6.733   6.212
  713TIP3    H2 2081   1.268   6.670   6.092
  714TIP3   OH2 2082   1.390   1.924   4.927
  714TIP3    H1 2083   1.452   1.990   4.958
  714TIP3    H2 2084   1.405   1.919   4.833
  715TIP3   OH2 2085   3.064   2.807   4.898
  715TIP3    H1 2086   3.017   2.851   4.969
  715TIP3    H2 2087   3.099   2.728   4.938
  716TIP3   OH2 2088   7.991   1.811   3.501
  716TIP3    H1 2089   7.916   1.871   3.494
  716TIP3    H2 2090   7.952   1.724   3.493
  717TIP3   OH2 2091   6.095   5.756   4.689
  717TIP3    H1 2092   6.081   5.676   4.638
  717TIP3    H2 2093   6.168   5.800   4.646
  718TIP3   OH2 2094   3.618   4.870   6.761
  718TIP3    H1 2095   3.634   4.964   6.776
  718TIP3    H2 2096   3.663   4.827   6.833
  719TIP3   OH2 2097   7.046   5.249   5.586
  719TIP3    H1 2098   7.141   5.260   5.576
  719TIP3    H2 2099   7.028   5.162   5.551
  720TIP3   OH2 2100   4.008   1.220   2.636
  720TIP3    H1 2101   4.067   1.288   2.603
  720TIP3    H2 2102   3.941   1.211   2.569
  721TIP3   OH2 2103   2.559   1.031   6.290
  721TIP3    H1 2104   2.549   1.115   6.246
  721TIP3    H2 2105   2.499   0.972   6.244
  722TIP3   OH2 2106   4.435   2.745   1.808
  722TIP3    H1 2107   4.479   2.769   1.890
  722TIP3    H2 2108   4.412   2.828   1.768
  723TIP3   OH2 2109   2.556   4.952   0.245
  723TIP3    H1 2110   2.637   4.982   0.285
  723TIP3    H2 2111   2.537   4.869   0.288
  724TIP3   OH2 2112   6.915   1.202   1.097
  724TIP3    H1 2113   6.821   1.195   1.115
  724TIP3    H2 2114   6.956   1.205   1.183
  725TIP3   OH2 2115   8.060   1.889   6.211
  725TIP3    H1 2116   8.064   1.885   6.115
  725TIP3    H2 2117   8.131   1.949   6.234
  726TIP3   OH2 2118   2.425   3.466   6.741
  726TIP3    H1 2119   2.456   3.488   6.829
  726TIP3    H2 2120   2.407   3.550   6.700
  727TIP3   OH2 2121   4.212   1.194   5.045
  727TIP3    H1 2122   4.160   1.173   4.967
  727TIP3    H2 2123   4.299   1.158   5.026
  728TIP3   OH2 2124   0.662   6.999   2.178
  728TIP3    H1 2125   0.670   6.943   2.255
  728TIP3    H2 2126   0.686   7.087   2.209
  729TIP3   OH2 2127   0.411   2.485   1.232
  729TIP3    H1 2128   0.357   2.539   1.175
  729TIP3    H2 2129   0.370   2.398   1.229
  730TIP3   OH2 2130   2.498   7.021   3.161
  730TIP3    H1 2131   2.475   7.020   3.068
  730TIP3    H2 2132   2.511   6.929   3.183
  731TIP3   OH2 2133   0.126   5.749   2.223
  731TIP3    H1 2134   0.201   5.787   2.270
  731TIP3    H2 2135   0.145   5.765   2.131
  732TIP3   OH2 2136   1.157   3.386   0.819
  732TIP3    H1 2137   1.162   3.292   0.836
  732TIP3    H2 2138   1.197   3.397   0.733
  733TIP3   OH2 2139   7.555   0.839   3.307
  733TIP3    H1 2140   7.605   0.879   3.236
  733TIP3    H2 2141   7.500   0.773   3.263
  734TIP3   OH2 2142   3.275   7.570   3.153
  734TIP3    H1 2143   3.205   7.578   3.089
  734TIP3    H2 2144   3.286   7.475   3.165
  735TIP3   OH2 2145   3.261   4.906   0.218
  735TIP3    H1 2146   3.241   4.966   0.146
  735TIP3    H2 2147   3.313   4.837   0.178
  736TIP3   OH2 2148   6.809   5.108   4.224
  736TIP3    H1 2149   6.842   5.105   4.134
  736TIP3    H2 2150   6.882   5.143   4.275
  737TIP3   OH2 2151   6.053   3.640   4.128
  737TIP3    H1 2152   6.133   3.589   4.115
  737TIP3    H2 2153   6.025   3.664   4.040
  738TIP3   OH2 2154   2.109   6.671   0.988
  738TIP3    H1 2155   2.129   6.578   0.976
  738TIP3    H2 2156   2.029   6.672   1.040
  739TIP3   OH2 2157   7.285   1.978   4.122
  739TIP3    H1 2158   7.258   1.906   4.178
  739TIP3    H2 2159   7.204   2.027   4.105
  740TIP3   OH2 2160   0.553   1.828   6.602
  740TIP3    H1 2161   0.561   1.866   6.690
  740TIP3    H2 2162   0.551   1.903   6.543
  741TIP3   OH2 2163   7.308   2.826   5.840
  741TIP3    H1 2164   7.395   2.820   5.880
  741TIP3    H2 2165   7.320   2.792   5.751
  742TIP3   OH2 2166   1.232   6.550   6.711
  742TIP3    H1 2167   1.215   6.500   6.790
  742TIP3    H2 2168   1.162   6.616   6.708
  743TIP3   OH2 2169   6.514   2.143   6.683
  743TIP3    H1 2170   6.595   2.097   6.660
  743TIP3    H2 2171   6.535   2.235   6.668
  744TIP3   OH2 2172   6.656   2.814   1.680
  744TIP3    H1 2173   6.716   2.812   1.754
  744TIP3    H2 2174   6.695   2.876   1.618
  745TIP3   OH2 2175   4.567   2.119   0.994
  745TIP3    H1 2176   4.643   2.141   0.941
  745TIP3    H2 2177   4.598   2.124   1.085
  746TIP3   OH2 2178   7.239   4.579   3.706
  746TIP3    H1 2179   7.248   4.621   3.620
  746TIP3    H2 2180   7.235   4.485   3.686
  747TIP3   OH2 2181   3.248   3.693   2.799
  747TIP3    H1 2182   3.320   3.645   2.759
  747TIP3    H2 2183   3.241   3.657   2.887
  748TIP3   OH2 2184   6.870   1.143   2.346
  748TIP3    H1 2185   6.835   1.192   2.420
  748TIP3    H2 2186   6.948   1.191   2.320
  749TIP3   OH2 2187   3.375   2.363   1.788
  749TIP3    H1 2188   3.354   2.393   1.876
  749TIP3    H2 2189   3.433   2.288   1.801
  750TIP3   OH2 2190   4.225   0.049   6.104
  750TIP3    H1 2191   4.194   0.009   6.185
  750TIP3    H2 2192   4.320   0.039   6.108
  751TIP3   OH2 2193   6.477   0.741   2.823
  751TIP3    H1 2194   6.520   0.822   2.799
  751TIP3    H2 2195   6.513   0.718   2.909
  752TIP3   OH2 2196   4.577   2.820   2.317
  752TIP3    H1 2197   4.503   2.879   2.304
  752TIP3    H2 2198   4.612   2.845   2.403
  753TIP3   OH2 2199   6.340   3.380   3.376
  753TIP3    H1 2200   6.342   3.302   3.432
  753TIP3    H2 2201   6.264   3.429   3.408
  754TIP3   OH2 2202   5.574   0.693   4.941
  754TIP3    H1 2203   5.609   0.663   5.025
  754TIP3    H2 2204   5.650   0.726   4.894
  755TIP3   OH2 2205   8.369   2.055   3.946
  755TIP3    H1 2206   8.337   2.145   3.938
  755TIP3    H2 2207   8.331   2.023   4.028
  756TIP3   OH2 2208   1.821   0.689   3.314
  756TIP3    H1 2209   1.762   0.742   3.367
  756TIP3    H2 2210   1.902   0.685   3.364
  757TIP3   OH2 2211   5.039   6.018   5.422
  757TIP3    H1 2212   4.991   5.980   5.348
  757TIP3    H2 2213   5.119   6.052   5.383
  758TIP3   OH2 2214   0.673   2.224   3.168
  758TIP3    H1 2215   0.740   2.281   3.131
  758TIP3    H2 2216   0.671   2.148   3.110
  759TIP3   OH2 2217   2.774   1.216   3.183
  759TIP3    H1 2218   2.713   1.203   3.109
  759TIP3    H2 2219   2.732   1.283   3.237
  760TIP3   OH2 2220   5.702   5.244   4.221
  760TIP3    H1 2221   5.680   5.152   4.203
  760TIP3    H2 2222   5.631   5.293   4.179
  761TIP3   OH2 2223   3.681   3.432   1.341
  761TIP3    H1 2224   3.729   3.360   1.383
  761TIP3    H2 2225   3.600   3.440   1.392
  762TIP3   OH2 2226   3.418   3.933   4.813
  762TIP3    H1 2227   3.423   4.010   4.870
  762TIP3    H2 2228   3.507   3.922   4.780
  763TIP3   OH2 2229   8.242   0.899   6.854
  763TIP3    H1 2230   8.220   0.970   6.914
  763TIP3    H2 2231   8.275   0.944   6.776
  764TIP3   OH2 2232   1.686   1.998   6.245
  764TIP3    H1 2233   1.731   2.000   6.160
  764TIP3    H2 2234   1.667   2.090   6.264
  765TIP3   OH2 2235   1.184   6.695   5.718
  765TIP3    H1 2236   1.207   6.603   5.733
  765TIP3    H2 2237   1.103   6.708   5.767
  766TIP3   OH2 2238   4.130   6.137   1.939
  766TIP3    H1 2239   4.133   6.202   1.870
  766TIP3    H2 2240   4.110   6.055   1.894
  767TIP3   OH2 2241   7.989   3.134   1.667
  767TIP3    H1 2242   7.976   3.041   1.688
  767TIP3    H2 2243   8.084   3.146   1.675
  768TIP3   OH2 2244   4.326   0.293   4.017
  768TIP3    H1 2245   4.415   0.328   4.012
  768TIP3    H2 2246   4.328   0.234   4.093
  769TIP3   OH2 2247   2.936   1.231   5.724
  769TIP3    H1 2248   2.956   1.262   5.812
  769TIP3    H2 2249   2.861   1.284   5.697
  770TIP3   OH2 2250   4.308   2.141   4.465
  770TIP3    H1 2251   4.355   2.058   4.469
  770TIP3    H2 2252   4.354   2.198   4.527
  771TIP3   OH2 2253   8.117   0.528   5.228
  771TIP3    H1 2254   8.047   0.564   5.282
  771TIP3    H2 2255   8.193   0.525   5.286
  772TIP3   OH2 2256   0.979   1.970   2.651
  772TIP3    H1 2257   0.964   1.876   2.640
  772TIP3    H2 2258   1.073   1.978   2.662
  773TIP3   OH2 2259   1.562   6.581   0.270
  773TIP3    H1 2260   1.572   6.526   0.193
  773TIP3    H2 2261   1.467   6.591   0.280
  774TIP3   OH2 2262   6.079   6.197   6.404
  774TIP3    H1 2263   6.163   6.167   6.368
  774TIP3    H2 2264   6.037   6.243   6.331
  775TIP3   OH2 2265   1.531   7.097   1.594
  775TIP3    H1 2266   1.500   7.110   1.504
  775TIP3    H2 2267   1.466   7.039   1.633
  776TIP3   OH2 2268   6.813   6.581  -0.013
  776TIP3    H1 2269   6.887   6.563   0.046
  776TIP3    H2 2270   6.746   6.619   0.043
  777TIP3   OH2 2271   3.107   3.777   6.783
  777TIP3    H1 2272   3.158   3.714   6.834
  777TIP3    H2 2273   3.173   3.835   6.744
  778TIP3   OH2 2274   2.163   5.869   1.078
  778TIP3    H1 2275   2.092   5.931   1.058
  778TIP3    H2 2276   2.146   5.842   1.168
  779TIP3   OH2 2277   0.256   2.340   2.315
  779TIP3    H1 2278   0.284   2.326   2.225
  779TIP3    H2 2279   0.167   2.305   2.319
  780TIP3   OH2 2280   4.166   4.763   0.376
  780TIP3    H1 2281   4.128   4.809   0.451
  780TIP3    H2 2282   4.250   4.805   0.362
  781TIP3   OH2 2283   0.648   0.502   4.564
  781TIP3    H1 2284   0.727   0.500   4.509
  781TIP3    H2 2285   0.616   0.412   4.563
  782TIP3   OH2 2286   1.058   2.757   3.826
  782TIP3    H1 2287   0.995   2.737   3.757
  782TIP3    H2 2288   1.098   2.673   3.848
  783TIP3   OH2 2289   4.243   6.586   0.197
  783TIP3    H1 2290   4.185   6.656   0.229
  783TIP3    H2 2291   4.190   6.537   0.134
  784TIP3   OH2 2292   7.964   5.325   3.979
  784TIP3    H1 2293   8.004   5.244   3.950
  784TIP3    H2 2294   7.872   5.303   3.992
  785TIP3   OH2 2295   6.076   1.547   0.743
  785TIP3    H1 2296   6.002   1.597   0.777
  785TIP3    H2 2297   6.106   1.495   0.818
  786TIP3   OH2 2298   4.375   6.681   2.011
  786TIP3    H1 2299   4.466   6.661   2.035
  786TIP3    H2 2300   4.382   6.750   1.945
  787TIP3   OH2 2301   1.685   2.019   1.754
  787TIP3    H1 2302   1.698   1.935   1.799
  787TIP3    H2 2303   1.768   2.065   1.764
  788TIP3   OH2 2304   6.972   5.189   5.857
  788TIP3    H1 2305   7.005   5.266   5.905
  788TIP3    H2 2306   6.959   5.221   5.768
  789TIP3   OH2 2307   1.506   0.697   5.559
  789TIP3    H1 2308   1.589   0.731   5.592
  789TIP3    H2 2309   1.440   0.755   5.595
  790TIP3   OH2 2310   2.914   4.414   4.873
  790TIP3    H1 2311   2.889   4.462   4.794
  790TIP3    H2 2312   2.990   4.462   4.906
  791TIP3   OH2 2313   6.389   6.014   0.717
  791TIP3    H1 2314   6.308   6.060   0.694
  791TIP3    H2 2315   6.394   6.021   0.813
  792TIP3   OH2 2316   5.646   4.329   2.865
  792TIP3    H1 2317   5.553   4.344   2.847
  792TIP3    H2 2318   5.647   4.253   2.923
  793TIP3   OH2 2319   3.718   4.119   4.188
  793TIP3    H1 2320   3.762   4.191   4.233
  793TIP3    H2 2321   3.788   4.077   4.137
  794TIP3   OH2 2322   2.052   3.716   2.838
  794TIP3    H1 2323   1.982   3.698   2.901
  794TIP3    H2 2324   2.129   3.734   2.893
  795TIP3   OH2 2325   6.439   4.772   1.307
  795TIP3    H1 2326   6.399   4.859   1.298
  795TIP3    H2 2327   6.450   4.761   1.402
  796TIP3   OH2 2328   7.554   2.961   2.240
  796TIP3    H1 2329   7.606   2.889   2.276
  796TIP3    H2 2330   7.617   3.033   2.231
  797TIP3   OH2 2331   6.486   0.457   1.542
  797TIP3    H1 2332   6.481   0.390   1.473
  797TIP3    H2 2333   6.480   0.408   1.624
  798TIP3   OH2 2334   8.035   5.354   4.858
  798TIP3    H1 2335   8.099   5.331   4.791
  798TIP3    H2 2336   8.084   5.405   4.922
  799TIP3   OH2 2337   1.121   1.115   0.082
  799TIP3    H1 2338   1.202   1.151   0.046
  799TIP3    H2 2339   1.146   1.077   0.166
  800TIP3   OH2 2340   3.661   2.289   5.155
  800TIP3    H1 2341   3.753   2.310   5.168
  800TIP3    H2 2342   3.620   2.373   5.133
  801TIP3   OH2 2343   3.757   3.960   6.730
  801TIP3    H1 2344   3.692   3.978   6.798
  801TIP3    H2 2345   3.776   4.046   6.692
  802TIP3   OH2 2346   4.317   5.747   6.330
  802TIP3    H1 2347   4.373   5.800   6.273
  802TIP3    H2 2348   4.320   5.790   6.415
  803TIP3   OH2 2349   4.586   0.065   1.126
  803TIP3    H1 2350   4.540  -0.011   1.161
  803TIP3    H2 2351   4.516   0.128   1.106
  804TIP3   OH2 2352   6.796   3.185   0.762
  804TIP3    H1 2353   6.703   3.174   0.783
  804TIP3    H2 2354   6.825   3.257   0.817
  805TIP3   OH2 2355   3.215   6.460   0.755
  805TIP3    H1 2356   3.172   6.533   0.711
  805TIP3    H2 2357   3.305   6.462   0.722
  806TIP3   OH2 2358   6.916   7.368   0.761
  806TIP3    H1 2359   6.927   7.296   0.698
  806TIP3    H2 2360   6.860   7.431   0.715
  807TIP3   OH2 2361   2.807   0.713   2.574
  807TIP3    H1 2362   2.730   0.667   2.606
  807TIP3    H2 2363   2.776   0.803   2.559
  808TIP3   OH2 2364   1.840   6.688   0.237
  808TIP3    H1 2365   1.751   6.652   0.227
  808TIP3    H2 2366   1.881   6.673   0.152
  809TIP3   OH2 2367   6.359   5.656   2.843
  809TIP3    H1 2368   6.392   5.746   2.843
  809TIP3    H2 2369   6.266   5.665   2.867
  810TIP3   OH2 2370   5.503   5.338   5.373
  810TIP3    H1 2371   5.426   5.394   5.366
  810TIP3    H2 2372   5.506   5.312   5.465
  811TIP3   OH2 2373   6.558   0.995   4.968
  811TIP3    H1 2374   6.597   1.064   5.022
  811TIP3    H2 2375   6.604   1.001   4.884
  812TIP3   OH2 2376   3.165   3.849   5.852
  812TIP3    H1 2377   3.080   3.857   5.895
  812TIP3    H2 2378   3.153   3.891   5.767
  813TIP3   OH2 2379   1.995   2.129   3.649
  813TIP3    H1 2380   2.048   2.078   3.710
  813TIP3    H2 2381   1.927   2.068   3.620
  814TIP3   OH2 2382   5.491   5.965   5.244
  814TIP3    H1 2383   5.568   5.976   5.299
  814TIP3    H2 2384   5.500   5.877   5.207
  815TIP3   OH2 2385   3.306   7.530   6.046
  815TIP3    H1 2386   3.222   7.517   6.003
  815TIP3    H2 2387   3.336   7.442   6.068
  816TIP3   OH2 2388   7.556   5.578   3.878
  816TIP3    H1 2389   7.498   5.589   3.953
  816TIP3    H2 2390   7.607   5.500   3.898
  817TIP3   OH2 2391   4.206   1.744   2.560
  817TIP3    H1 2392   4.200   1.827   2.607
  817TIP3    H2 2393   4.120   1.734   2.518
  818TIP3   OH2 2394   5.461   4.875   3.656
  818TIP3    H1 2395   5.527   4.815   3.692
  818TIP3    H2 2396   5.434   4.834   3.574
  819TIP3   OH2 2397   4.370   1.493   5.932
  819TIP3    H1 2398   4.373   1.583   5.901
  819TIP3    H2 2399   4.461   1.465   5.934
  820TIP3   OH2 2400   5.533   1.794   2.971
  820TIP3    H1 2401   5.540   1.880   2.929
  820TIP3    H2 2402   5.554   1.731   2.902
  821TIP3   OH2 2403   7.889   4.557   6.797
  821TIP3    H1 2404   7.907   4.538   6.889
  821TIP3    H2 2405   7.851   4.476   6.763
  822TIP3   OH2 2406   4.967   6.316   0.365
  822TIP3    H1 2407   4.880   6.350   0.385
  822TIP3    H2 2408   4.987   6.353   0.279
  823TIP3   OH2 2409   6.686   2.340   0.804
  823TIP3    H1 2410   6.629   2.348   0.728
  823TIP3    H2 2411   6.728   2.254   0.794
  824TIP3   OH2 2412   5.183   5.964   5.031
  824TIP3    H1 2413   5.109   5.914   5.065
  824TIP3    H2 2414   5.254   5.948   5.094
  825TIP3   OH2 2415   3.755   0.029   3.850
  825TIP3    H1 2416   3.794  -0.040   3.904
  825TIP3    H2 2417   3.830   0.067   3.803
  826TIP3   OH2 2418   6.240   7.507   4.100
  826TIP3    H1 2419   6.327   7.503   4.140
  826TIP3    H2 2420   6.256   7.523   4.007
  827TIP3   OH2 2421   0.422   1.945   5.487
  827TIP3    H1 2422   0.435   1.863   5.534
  827TIP3    H2 2423   0.397   2.008   5.555
  828TIP3   OH2 2424   7.744   6.539   4.997
  828TIP3    H1 2425   7.824   6.499   5.031
  828TIP3    H2 2426   7.703   6.579   5.074
  829TIP3   OH2 2427   5.201   3.417   1.275
  829TIP3    H1 2428   5.208   3.325   1.250
  829TIP3    H2 2429   5.143   3.456   1.209
  830TIP3   OH2 2430   0.808   1.494   3.926
  830TIP3    H1 2431   0.756   1.442   3.864
  830TIP3    H2 2432   0.898   1.484   3.895
  831TIP3   OH2 2433   4.582   6.405   2.356
  831TIP3    H1 2434   4.644   6.402   2.429
  831TIP3    H2 2435   4.619   6.469   2.296
  832TIP3   OH2 2436   5.153   4.195   4.027
  832TIP3    H1 2437   5.218   4.262   4.004
  832TIP3    H2 2438   5.101   4.235   4.097
  833TIP3   OH2 2439   3.171   4.466   5.607
  833TIP3    H1 2440   3.158   4.382   5.651
  833TIP3    H2 2441   3.264   4.485   5.619
  834TIP3   OH2 2442   0.578   7.911   2.231
  834TIP3    H1 2443   0.587   7.841   2.167
  834TIP3    H2 2444   0.506   7.882   2.287
  835TIP3   OH2 2445   2.800   4.206   4.236
  835TIP3    H1 2446   2.878   4.179   4.285
  835TIP3    H2 2447   2.731   4.209   4.302
  836TIP3   OH2 2448   7.296   5.558   0.961
  836TIP3    H1 2449   7.226   5.596   0.908
  836TIP3    H2 2450   7.374   5.606   0.936
  837TIP3   OH2 2451   7.979   7.042   0.040
  837TIP3    H1 2452   8.015   6.954   0.052
  837TIP3    H2 2453   7.885   7.029   0.031
  838TIP3   OH2 2454   3.883   1.902   0.106
  838TIP3    H1 2455   3.891   1.964   0.034
  838TIP3    H2 2456   3.925   1.822   0.075
  839TIP3   OH2 2457   6.769   1.840   0.501
  839TIP3    H1 2458   6.719   1.771   0.457
  839TIP3    H2 2459   6.852   1.798   0.524
  840TIP3   OH2 2460   0.126   6.261   5.860
  840TIP3    H1 2461   0.163   6.341   5.899
  840TIP3    H2 2462   0.203   6.207   5.840
  841TIP3   OH2 2463   6.568   2.351   3.203
  841TIP3    H1 2464   6.565   2.291   3.128
  841TIP3    H2 2465   6.514   2.308   3.270
  842TIP3   OH2 2466   4.131   4.557   4.048
  842TIP3    H1 2467   4.201   4.513   3.999
  842TIP3    H2 2468   4.056   4.557   3.989
  843TIP3   OH2 2469   1.960   4.223   1.301
  843TIP3    H1 2470   1.956   4.128   1.316
  843TIP3    H2 2471   1.870   4.252   1.313
  844TIP3   OH2 2472   2.609   0.502   6.007
  844TIP3    H1 2473   2.694   0.468   6.035
  844TIP3    H2 2474   2.592   0.461   5.922
  845TIP3   OH2 2475   5.286   3.658   1.872
  845TIP3    H1 2476   5.287   3.741   1.920
  845TIP3    H2 2477   5.239   3.597   1.930
  846TIP3   OH2 2478   7.158   3.830   1.282
  846TIP3    H1 2479   7.137   3.765   1.348
  846TIP3    H2 2480   7.201   3.901   1.330
  847TIP3   OH2 2481   6.819   2.753   3.285
  847TIP3    H1 2482   6.823   2.826   3.346
  847TIP3    H2 2483   6.884   2.774   3.218
  848TIP3   OH2 2484   3.167   1.110   4.565
  848TIP3    H1 2485   3.234   1.104   4.633
  848TIP3    H2 2486   3.204   1.171   4.500
  849TIP3   OH2 2487   4.976   1.702   6.034
  849TIP3    H1 2488   4.973   1.649   5.955
  849TIP3    H2 2489   4.930   1.783   6.010
  850TIP3   OH2 2490   0.691   6.709   1.178
  850TIP3    H1 2491   0.605   6.748   1.161
  850TIP3    H2 2492   0.675   6.614   1.174
  851TIP3   OH2 2493   1.458   5.353   5.252
  851TIP3    H1 2494   1.536   5.408   5.245
  851TIP3    H2 2495   1.419   5.356   5.164
  852TIP3   OH2 2496   5.837   5.388   5.129
  852TIP3    H1 2497   5.805   5.476   5.111
  852TIP3    H2 2498   5.800   5.334   5.060
  853TIP3   OH2 2499   2.443   5.795   0.616
  853TIP3    H1 2500   2.494   5.740   0.676
  853TIP3    H2 2501   2.499   5.871   0.600
  854TIP3   OH2 2502   5.008   0.722   4.122
  854TIP3    H1 2503   5.103   0.728   4.127
  854TIP3    H2 2504   4.978   0.813   4.118
  855TIP3   OH2 2505   6.533   2.551   3.384
  855TIP3    H1 2506   6.605   2.572   3.443
  855TIP3    H2 2507   6.565   2.478   3.331
  856TIP3   OH2 2508   6.470   6.059   5.040
  856TIP3    H1 2509   6.402   5.997   5.016
  856TIP3    H2 2510   6.518   6.075   4.958
  857TIP3   OH2 2511   2.748   3.800   0.200
  857TIP3    H1 2512   2.740   3.763   0.113
  857TIP3    H2 2513   2.772   3.892   0.185
  858TIP3   OH2 2514   8.004   2.308   3.357
  858TIP3    H1 2515   7.995   2.219   3.324
  858TIP3    H2 2516   8.074   2.347   3.305
  859TIP3   OH2 2517   0.105   7.199   1.319
  859TIP3    H1 2518   0.089   7.109   1.346
  859TIP3    H2 2519   0.136   7.243   1.398
  860TIP3   OH2 2520   5.588   2.579   2.221
  860TIP3    H1 2521   5.523   2.574   2.151
  860TIP3    H2 2522   5.571   2.502   2.275
  861TIP3   OH2 2523   0.277   3.085   3.745
  861TIP3    H1 2524   0.317   3.036   3.817
  861TIP3    H2 2525   0.258   3.019   3.679
  862TIP3   OH2 2526   2.605   6.167   4.617
  862TIP3    H1 2527   2.681   6.195   4.565
  862TIP3    H2 2528   2.539   6.142   4.552
  863TIP3   OH2 2529   4.812   5.430   6.485
  863TIP3    H1 2530   4.807   5.525   6.470
  863TIP3    H2 2531   4.891   5.403   6.438
  864TIP3   OH2 2532   0.617   0.722   4.230
  864TIP3    H1 2533   0.542   0.741   4.286
  864TIP3    H2 2534   0.692   0.728   4.288
  865TIP3   OH2 2535   7.682   5.383   4.282
  865TIP3    H1 2536   7.637   5.349   4.360
  865TIP3    H2 2537   7.712   5.305   4.236
  866TIP3   OH2 2538   0.052   1.054   5.822
  866TIP3    H1 2539  -0.014   1.092   5.765
  866TIP3    H2 2540   0.022   0.964   5.837
  867TIP3   OH2 2541   4.203   2.368   2.932
  867TIP3    H1 2542   4.172   2.453   2.962
  867TIP3    H2 2543   4.287   2.356   2.977
  868TIP3   OH2 2544   2.535   2.695   4.663
  868TIP3    H1 2545   2.467   2.629   4.647
  868TIP3    H2 2546   2.506   2.772   4.615
  869TIP3   OH2 2547   5.477   2.185   6.291
  869TIP3    H1 2548   5.412   2.227   6.235
  869TIP3    H2 2549   5.561   2.205   6.251
  870TIP3   OH2 2550   0.463   7.262   6.395
  870TIP3    H1 2551   0.470   7.301   6.308
  870TIP3    H2 2552   0.521   7.186   6.391
  871TIP3   OH2 2553   5.238   6.299   4.190
  871TIP3    H1 2554   5.149   6.271   4.211
  871TIP3    H2 2555   5.227   6.362   4.119
  872TIP3   OH2 2556   5.996   3.009   2.836
  872TIP3    H1 2557   5.914   2.959   2.839
  872TIP3    H2 2558   6.027   3.011   2.926
  873TIP3   OH2 2559   6.754   6.400   0.631
  873TIP3    H1 2560   6.755   6.399   0.727
  873TIP3    H2 2561   6.845   6.389   0.605
  874TIP3   OH2 2562   3.338   6.291   1.167
  874TIP3    H1 2563   3.413   6.231   1.169
  874TIP3    H2 2564   3.343   6.338   1.251
  875TIP3   OH2 2565   4.008   0.092   2.155
  875TIP3    H1 2566   4.042   0.175   2.120
  875TIP3    H2 2567   3.982   0.113   2.245
  876TIP3   OH2 2568   5.894   1.048   2.707
  876TIP3    H1 2569   5.812   1.019   2.745
  876TIP3    H2 2570   5.881   1.142   2.690
  877TIP3   OH2 2571   3.519   5.793   4.479
  877TIP3    H1 2572   3.429   5.799   4.509
  877TIP3    H2 2573   3.540   5.700   4.485
  878TIP3   OH2 2574   4.894   1.778   1.060
  878TIP3    H1 2575   4.851   1.804   1.141
  878TIP3    H2 2576   4.971   1.728   1.088
  879TIP3   OH2 2577   3.543   0.377   1.042
  879TIP3    H1 2578   3.576   0.331   0.965
  879TIP3    H2 2579   3.543   0.469   1.017
  880TIP3   OH2 2580   1.358   1.293   1.042
  880TIP3    H1 2581   1.380   1.250   1.125
  880TIP3    H2 2582   1.349   1.385   1.064
  881TIP3   OH2 2583   1.696   5.414   5.561
  881TIP3    H1 2584   1.680   5.508   5.557
  881TIP3    H2 2585   1.620   5.379   5.608
  882TIP3   OH2 2586   7.625   6.863   1.565
  882TIP3    H1 2587   7.545   6.871   1.513
  882TIP3    H2 2588   7.672   6.790   1.525
  883TIP3   OH2 2589   0.621   7.308   1.755
  883TIP3    H1 2590   0.668   7.363   1.692
  883TIP3    H2 2591   0.608   7.365   1.832
  884TIP3   OH2 2592   1.802   2.348   2.746
  884TIP3    H1 2593   1.894   2.344   2.719
  884TIP3    H2 2594   1.753   2.362   2.665
  885TIP3   OH2 2595   6.741   6.235   3.370
  885TIP3    H1 2596   6.710   6.322   3.394
  885TIP3    H2 2597   6.797   6.208   3.444
  886TIP3   OH2 2598   4.201   1.999   1.105
  886TIP3    H1 2599   4.174   2.075   1.054
  886TIP3    H2 2600   4.287   2.023   1.140
  887TIP3   OH2 2601   2.009   0.149   6.031
  887TIP3    H1 2602   2.063   0.178   6.104
  887TIP3    H2 2603   2.024   0.213   5.962
  888TIP3   OH2 2604   2.206   4.403   5.162
  888TIP3    H1 2605   2.128   4.381   5.213
  888TIP3    H2 2606   2.230   4.491   5.192
  889TIP3   OH2 2607   0.794   5.167   6.366
  889TIP3    H1 2608   0.820   5.097   6.306
  889TIP3    H2 2609   0.876   5.208   6.393
  890TIP3   OH2 2610   2.663   6.271   5.839
  890TIP3    H1 2611   2.587   6.252   5.894
  890TIP3    H2 2612   2.736   6.281   5.901
  891TIP3   OH2 2613   0.295   1.556   1.284
  891TIP3    H1 2614   0.369   1.583   1.229
  891TIP3    H2 2615   0.260   1.479   1.240
  892TIP3   OH2 2616   1.711   6.316   2.922
  892TIP3    H1 2617   1.712   6.277   2.834
  892TIP3    H2 2618   1.685   6.407   2.908
  893TIP3   OH2 2619   0.956   7.873   2.965
  893TIP3    H1 2620   0.997   7.870   3.052
  893TIP3    H2 2621   0.888   7.940   2.974
  894TIP3   OH2 2622   7.086   3.939   2.456
  894TIP3    H1 2623   7.087   3.899   2.543
  894TIP3    H2 2624   7.172   3.917   2.419
  895TIP3   OH2 2625   3.825   0.964   0.655
  895TIP3    H1 2626   3.816   0.921   0.570
  895TIP3    H2 2627   3.775   1.045   0.646
  896TIP3   OH2 2628   0.151   6.081   0.176
  896TIP3    H1 2629   0.180   6.160   0.221
  896TIP3    H2 2630   0.064   6.103   0.142
  897TIP3   OH2 2631   6.762   6.503   2.565
  897TIP3    H1 2632   6.677   6.521   2.604
  897TIP3    H2 2633   6.762   6.408   2.550
  898TIP3   OH2 2634   7.477   2.421   4.026
  898TIP3    H1 2635   7.420   2.353   4.063
  898TIP3    H2 2636   7.417   2.493   4.006
  899TIP3   OH2 2637   1.497   2.913   2.508
  899TIP3    H1 2638   1.590   2.932   2.522
  899TIP3    H2 2639   1.470   2.973   2.439
  900TIP3   OH2 2640   5.930   2.557   3.482
  900TIP3    H1 2641   5.927   2.653   3.481
  900TIP3    H2 2642   5.926   2.534   3.575
  901TIP3   OH2 2643   4.411   0.625   2.501
  901TIP3    H1 2644   4.342   0.585   2.554
  901TIP3    H2 2645   4.364   0.678   2.436
  902TIP3   OH2 2646   4.541   3.531   6.005
  902TIP3    H1 2647   4.485   3.491   5.938
  902TIP3    H2 2648   4.584   3.604   5.960
  903TIP3   OH2 2649   2.512   0.667   2.560
  903TIP3    H1 2650   2.522   0.628   2.646
  903TIP3    H2 2651   2.428   0.713   2.563
  904TIP3   OH2 2652   0.387   4.240   5.064
  904TIP3    H1 2653   0.454   4.188   5.019
  904TIP3    H2 2654   0.309   4.185   5.061
  905TIP3   OH2 2655   7.425   6.874   2.468
  905TIP3    H1 2656   7.404   6.955   2.514
  905TIP3    H2 2657   7.457   6.816   2.537
  906TIP3   OH2 2658   0.937   3.752   0.558
  906TIP3    H1 2659   0.922   3.841   0.590
  906TIP3    H2 2660   1.022   3.756   0.514
  907TIP3   OH2 2661   4.068   0.423   2.769
  907TIP3    H1 2662   4.007   0.452   2.701
  907TIP3    H2 2663   4.060   0.489   2.838
  908TIP3   OH2 2664   4.573   4.855   1.631
  908TIP3    H1 2665   4.528   4.937   1.649
  908TIP3    H2 2666   4.649   4.881   1.579
  909TIP3   OH2 2667   3.044   5.515   1.572
  909TIP3    H1 2668   3.018   5.548   1.487
  909TIP3    H2 2669   3.080   5.591   1.618
  910TIP3   OH2 2670   4.251   3.724   4.165
  910TIP3    H1 2671   4.226   3.637   4.136
  910TIP3    H2 2672   4.338   3.713   4.203
  911TIP3   OH2 2673   3.899   3.961   4.809
  911TIP3    H1 2674   3.821   3.945   4.861
  911TIP3    H2 2675   3.878   4.038   4.756
  912TIP3   OH2 2676   1.381   0.405   2.023
  912TIP3    H1 2677   1.397   0.350   1.946
  912TIP3    H2 2678   1.457   0.392   2.078
  913TIP3   OH2 2679   1.749   2.395   2.208
  913TIP3    H1 2680   1.783   2.330   2.146
  913TIP3    H2 2681   1.801   2.382   2.287
  914TIP3   OH2 2682   6.025   7.134   5.814
  914TIP3    H1 2683   6.018   7.191   5.739
  914TIP3    H2 2684   6.066   7.188   5.882
  915TIP3   OH2 2685   5.854   6.524   6.717
  915TIP3    H1 2686   5.941   6.548   6.747
  915TIP3    H2 2687   5.821   6.462   6.782
  916TIP3   OH2 2688   3.234   0.636   0.072
  916TIP3    H1 2689   3.207   0.566   0.132
  916TIP3    H2 2690   3.323   0.658   0.099
  917TIP3   OH2 2691   2.338   4.202   0.729
  917TIP3    H1 2692   2.398   4.140   0.688
  917TIP3    H2 2693   2.252   4.161   0.724
  918TIP3   OH2 2694   7.067  -0.001   3.516
  918TIP3    H1 2695   6.999   0.030   3.577
  918TIP3    H2 2696   7.030   0.016   3.429
  919TIP3   OH2 2697   6.724   0.309   6.410
  919TIP3    H1 2698   6.771   0.279   6.488
  919TIP3    H2 2699   6.714   0.403   6.423
  920TIP3   OH2 2700   7.785   0.493   4.376
  920TIP3    H1 2701   7.830   0.428   4.431
  920TIP3    H2 2702   7.808   0.577   4.415
  921TIP3   OH2 2703   3.275   6.068   1.885
  921TIP3    H1 2704   3.184   6.040   1.891
  921TIP3    H2 2705   3.290   6.120   1.964
  922TIP3   OH2 2706   1.142   1.588   5.292
  922TIP3    H1 2707   1.208   1.520   5.306
  922TIP3    H2 2708   1.185   1.653   5.237
  923TIP3   OH2 2709   6.634   4.642   6.263
  923TIP3    H1 2710   6.622   4.574   6.197
  923TIP3    H2 2711   6.582   4.716   6.231
  924TIP3   OH2 2712   5.188   4.187   1.951
  924TIP3    H1 2713   5.117   4.191   1.886
  924TIP3    H2 2714   5.267   4.173   1.899
  925TIP3   OH2 2715   1.770   7.283   4.128
  925TIP3    H1 2716   1.847   7.281   4.185
  925TIP3    H2 2717   1.801   7.244   4.046
  926TIP3   OH2 2718   2.253   7.222   3.549
  926TIP3    H1 2719   2.287   7.240   3.636
  926TIP3    H2 2720   2.248   7.127   3.543
  927TIP3   OH2 2721   4.285   7.435   2.442
  927TIP3    H1 2722   4.230   7.430   2.364
  927TIP3    H2 2723   4.375   7.434   2.409
  928TIP3   OH2 2724   5.232   2.209   3.848
  928TIP3    H1 2725   5.219   2.124   3.888
  928TIP3    H2 2726   5.320   2.236   3.875
  929TIP3   OH2 2727   8.285   4.440   5.203
  929TIP3    H1 2728   8.197   4.448   5.168
  929TIP3    H2 2729   8.341   4.431   5.126
  930TIP3   OH2 2730   5.658   4.256   4.644
  930TIP3    H1 2731   5.566   4.277   4.631
  930TIP3    H2 2732   5.662   4.214   4.730
  931TIP3   OH2 2733   8.118   6.038   0.779
  931TIP3    H1 2734   8.053   6.100   0.813
  931TIP3    H2 2735   8.069   5.957   0.766
  932TIP3   OH2 2736   7.291   0.918   0.578
  932TIP3    H1 2737   7.386   0.905   0.581
  932TIP3    H2 2738   7.260   0.883   0.662
  933TIP3   OH2 2739   4.058   3.597   5.245
  933TIP3    H1 2740   4.001   3.587   5.322
  933TIP3    H2 2741   4.037   3.521   5.191
  934TIP3   OH2 2742   2.640   3.248   1.732
  934TIP3    H1 2743   2.565   3.296   1.768
  934TIP3    H2 2744   2.618   3.235   1.640
  935TIP3   OH2 2745   0.537   4.846   5.365
  935TIP3    H1 2746   0.552   4.867   5.457
  935TIP3    H2 2747   0.568   4.756   5.356
  936TIP3   OH2 2748   4.106   2.263   3.686
  936TIP3    H1 2749   4.186   2.314   3.700
  936TIP3    H2 2750   4.137   2.180   3.650
  937TIP3   OH2 2751   1.201   3.358   6.058
  937TIP3    H1 2752   1.107   3.377   6.050
  937TIP3    H2 2753   1.221   3.373   6.150
  938TIP3   OH2 2754   8.056   2.388   4.482
  938TIP3    H1 2755   8.051   2.345   4.397
  938TIP3    H2 2756   8.076   2.479   4.462
  939TIP3   OH2 2757   1.800   5.882   1.955
  939TIP3    H1 2758   1.788   5.958   1.899
  939TIP3    H2 2759   1.712   5.846   1.966
  940TIP3   OH2 2760   6.367   1.617   5.500
  940TIP3    H1 2761   6.402   1.608   5.411
  940TIP3    H2 2762   6.301   1.686   5.494
  941TIP3   OH2 2763   6.471   0.581   2.573
  941TIP3    H1 2764   6.388   0.606   2.614
  941TIP3    H2 2765   6.535   0.588   2.643
  942TIP3   OH2 2766   0.646   7.236   4.836
  942TIP3    H1 2767   0.630   7.298   4.765
  942TIP3    H2 2768   0.625   7.284   4.916
  943TIP3   OH2 2769   0.677   5.739   4.895
  943TIP3    H1 2770   0.749   5.788   4.936
  943TIP3    H2 2771   0.685   5.760   4.802
  944TIP3   OH2 2772   5.415   5.176   3.083
  944TIP3    H1 2773   5.468   5.198   3.160
  944TIP3    H2 2774   5.345   5.121   3.118
  945TIP3   OH2 2775   3.447   4.930   6.522
  945TIP3    H1 2776   3.389   4.862   6.555
  945TIP3    H2 2777   3.509   4.945   6.594
  946TIP3   OH2 2778   5.810   3.101   0.330
  946TIP3    H1 2779   5.876   3.065   0.270
  946TIP3    H2 2780   5.842   3.076   0.417
  947TIP3   OH2 2781   2.979   0.111   2.063
  947TIP3    H1 2782   3.050   0.118   2.127
  947TIP3    H2 2783   2.945   0.200   2.055
  948TIP3   OH2 2784   7.248   6.814   1.087
  948TIP3    H1 2785   7.193   6.802   1.009
  948TIP3    H2 2786   7.305   6.737   1.087
  949TIP3   OH2 2787   7.614   1.550   5.765
  949TIP3    H1 2788   7.640   1.627   5.816
  949TIP3    H2 2789   7.529   1.524   5.802
  950TIP3   OH2 2790   3.432   7.444   0.949
  950TIP3    H1 2791   3.433   7.535   0.977
  950TIP3    H2 2792   3.404   7.395   1.026
  951TIP3   OH2 2793   3.674   4.187   5.789
  951TIP3    H1 2794   3.588   4.152   5.768
  951TIP3    H2 2795   3.658   4.251   5.859
  952TIP3   OH2 2796   7.644   5.570   2.998
  952TIP3    H1 2797   7.658   5.575   2.904
  952TIP3    H2 2798   7.614   5.658   3.022
  953TIP3   OH2 2799   8.129   3.352   2.272
  953TIP3    H1 2800   8.181   3.281   2.233
  953TIP3    H2 2801   8.110   3.322   2.361
  954TIP3   OH2 2802   5.688   4.747   5.446
  954TIP3    H1 2803   5.696   4.839   5.422
  954TIP3    H2 2804   5.612   4.716   5.397
  955TIP3   OH2 2805   6.388   6.583   0.209
  955TIP3    H1 2806   6.333   6.624   0.276
  955TIP3    H2 2807   6.385   6.489   0.231
  956TIP3   OH2 2808   3.951   6.559   3.784
  956TIP3    H1 2809   3.878   6.504   3.812
  956TIP3    H2 2810   4.029   6.508   3.807
  957TIP3   OH2 2811   8.363   0.147   5.861
  957TIP3    H1 2812   8.393   0.059   5.838
  957TIP3    H2 2813   8.389   0.202   5.787
  958TIP3   OH2 2814   6.720   4.323   3.642
  958TIP3    H1 2815   6.702   4.240   3.598
  958TIP3    H2 2816   6.676   4.315   3.727
  959TIP3   OH2 2817   5.124   3.246   3.712
  959TIP3    H1 2818   5.150   3.156   3.691
  959TIP3    H2 2819   5.040   3.258   3.667
  960TIP3   OH2 2820   3.668   6.919   6.498
  960TIP3    H1 2821   3.655   6.825   6.516
  960TIP3    H2 2822   3.763   6.928   6.488
  961TIP3   OH2 2823   0.110   4.904   5.476
  961TIP3    H1 2824   0.099   4.849   5.399
  961TIP3    H2 2825   0.103   4.994   5.443
  962TIP3   OH2 2826   4.231   1.378   5.235
  962TIP3    H1 2827   4.226   1.317   5.162
  962TIP3    H2 2828   4.292   1.336   5.296
  963TIP3   OH2 2829   3.742   2.563   6.666
  963TIP3    H1 2830   3.668   2.584   6.723
  963TIP3    H2 2831   3.817   2.555   6.726
  964TIP3   OH2 2832   7.426   3.696   5.259
  964TIP3    H1 2833   7.391   3.613   5.225
  964TIP3    H2 2834   7.402   3.695   5.351
  965TIP3   OH2 2835   3.745   1.038   5.530
  965TIP3    H1 2836   3.690   1.030   5.608
  965TIP3    H2 2837   3.683   1.037   5.457
  966TIP3   OH2 2838   7.731   6.263   2.354
  966TIP3    H1 2839   7.823   6.281   2.376
  966TIP3    H2 2840   7.719   6.170   2.375
  967TIP3   OH2 2841   2.619   1.426   3.310
  967TIP3    H1 2842   2.599   1.414   3.403
  967TIP3    H2 2843   2.565   1.500   3.283
  968TIP3   OH2 2844   4.940   7.181   0.510
  968TIP3    H1 2845   4.845   7.174   0.502
  968TIP3    H2 2846   4.962   7.261   0.461
  969TIP3   OH2 2847   2.820   2.454   6.218
  969TIP3    H1 2848   2.804   2.424   6.307
  969TIP3    H2 2849   2.914   2.467   6.213
  970TIP3   OH2 2850   0.989   6.878   1.899
  970TIP3    H1 2851   0.897   6.881   1.924
  970TIP3    H2 2852   0.991   6.905   1.808
  971TIP3   OH2 2853   3.673   5.408   4.018
  971TIP3    H1 2854   3.691   5.332   4.074
  971TIP3    H2 2855   3.755   5.457   4.018
  972TIP3   OH2 2856   7.548   2.310   5.108
  972TIP3    H1 2857   7.595   2.241   5.155
  972TIP3    H2 2858   7.498   2.263   5.041
  973TIP3   OH2 2859   1.464   6.640   3.874
  973TIP3    H1 2860   1.376   6.647   3.913
  973TIP3    H2 2861   1.490   6.730   3.857
  974TIP3   OH2 2862   1.800   5.491   0.614
  974TIP3    H1 2863   1.725   5.528   0.567
  974TIP3    H2 2864   1.876   5.515   0.561
  975TIP3   OH2 2865   1.420   6.828   3.096
  975TIP3    H1 2866   1.501   6.800   3.138
  975TIP3    H2 2867   1.404   6.764   3.027
  976TIP3   OH2 2868   2.031   1.083   4.404
  976TIP3    H1 2869   2.003   1.172   4.423
  976TIP3    H2 2870   2.122   1.092   4.375
  977TIP3   OH2 2871   2.363   4.204   3.030
  977TIP3    H1 2872   2.415   4.277   3.062
  977TIP3    H2 2873   2.396   4.128   3.078
  978TIP3   OH2 2874   5.954   4.094   0.156
  978TIP3    H1 2875   5.969   4.187   0.145
  978TIP3    H2 2876   5.969   4.056   0.070
  979TIP3   OH2 2877   4.663   3.140   6.471
  979TIP3    H1 2878   4.624   3.226   6.486
  979TIP3    H2 2879   4.613   3.104   6.397
  980TIP3   OH2 2880   0.333   6.090   0.955
  980TIP3    H1 2881   0.330   6.001   0.990
  980TIP3    H2 2882   0.301   6.081   0.865
  981TIP3   OH2 2883   6.137   6.267   6.655
  981TIP3    H1 2884   6.063   6.224   6.697
  981TIP3    H2 2885   6.137   6.232   6.566
  982TIP3   OH2 2886   8.256   3.521   4.734
  982TIP3    H1 2887   8.242   3.440   4.784
  982TIP3    H2 2888   8.343   3.551   4.761
  983TIP3   OH2 2889   4.262   3.176   3.203
  983TIP3    H1 2890   4.266   3.123   3.123
  983TIP3    H2 2891   4.172   3.206   3.207
  984TIP3   OH2 2892   6.493   2.281   4.964
  984TIP3    H1 2893   6.453   2.264   5.050
  984TIP3    H2 2894   6.509   2.375   4.964
  985TIP3   OH2 2895   1.545   0.855   4.052
  985TIP3    H1 2896   1.507   0.890   4.132
  985TIP3    H2 2897   1.594   0.928   4.014
  986TIP3   OH2 2898   7.640   3.450   4.741
  986TIP3    H1 2899   7.596   3.534   4.729
  986TIP3    H2 2900   7.725   3.473   4.779
  987TIP3   OH2 2901   0.770   4.355   5.618
  987TIP3    H1 2902   0.682   4.390   5.633
  987TIP3    H2 2903   0.756   4.261   5.605
  988TIP3   OH2 2904   3.031   2.216   0.358
  988TIP3    H1 2905   3.007   2.292   0.411
  988TIP3    H2 2906   3.050   2.148   0.421
  989TIP3   OH2 2907   5.675   3.413   3.166
  989TIP3    H1 2908   5.702   3.358   3.240
  989TIP3    H2 2909   5.588   3.444   3.191
  990TIP3   OH2 2910   3.113   3.205   5.892
  990TIP3    H1 2911   3.083   3.291   5.923
  990TIP3    H2 2912   3.042   3.145   5.913
  991TIP3   OH2 2913   7.366   2.541   4.619
  991TIP3    H1 2914   7.368   2.485   4.541
  991TIP3    H2 2915   7.449   2.589   4.616
  992TIP3   OH2 2916   6.517   3.330   1.458
  992TIP3    H1 2917   6.552   3.326   1.369
  992TIP3    H2 2918   6.594   3.340   1.514
  993TIP3   OH2 2919   4.543   3.614   4.739
  993TIP3    H1 2920   4.568   3.528   4.775
  993TIP3    H2 2921   4.486   3.593   4.665
  994TIP3   OH2 2922   4.641   1.477   0.415
  994TIP3    H1 2923   4.712   1.472   0.351
  994TIP3    H2 2924   4.578   1.412   0.387
  995TIP3   OH2 2925   2.678   5.998   3.121
  995TIP3    H1 2926   2.607   6.033   3.068
  995TIP3    H2 2927   2.756   6.044   3.089
  996TIP3   OH2 2928   6.332   7.684   4.292
  996TIP3    H1 2929   6.278   7.732   4.354
  996TIP3    H2 2930   6.270   7.645   4.230
  997TIP3   OH2 2931   5.436   7.026   4.350
  997TIP3    H1 2932   5.470   7.000   4.264
  997TIP3    H2 2933   5.506   7.003   4.411
  998TIP3   OH2 2934   6.973   3.856   3.235
  998TIP3    H1 2935   6.947   3.948   3.233
  998TIP3    H2 2936   7.049   3.855   3.293
  999TIP3   OH2 2937   7.333   6.170   3.408
  999TIP3    H1 2938   7.292   6.151   3.493
  999TIP3    H2 2939   7.413   6.216   3.430
 1000TIP3   OH2 2940   7.963   5.524   6.384
 1000TIP3    H1 2941   7.997   5.436   6.369
 1000TIP3    H2 2942   7.990   5.545   6.473
 1001TIP3   OH2 2943   1.882   0.994   4.194
 1001TIP3    H1 2944   1.833   1.073   4.215
 1001TIP3    H2 2945   1.941   0.982   4.268
 1002TIP3   OH2 2946   5.404   1.875   4.583
 1002TIP3    H1 2947   5.357   1.914   4.657
 1002TIP3    H2 2948   5.428   1.787   4.612
 1003TIP3   OH2 2949   1.889   3.387   0.408
 1003TIP3    H1 2950   1.894   3.359   0.316
 1003TIP3    H2 2951   1.961   3.449   0.418
 1004TIP3   OH2 2952   6.374   2.534   5.057
 1004TIP3    H1 2953   6.323   2.571   4.985
 1004TIP3    H2 2954   6.310   2.521   5.127
 1005TIP3   OH2 2955   0.968   5.089   4.181
 1005TIP3    H1 2956   0.984   5.003   4.219
 1005TIP3    H2 2957   1.050   5.111   4.137
 1006TIP3   OH2 2958   5.172   2.084   6.148
 1006TIP3    H1 2959   5.136   2.172   6.132
 1006TIP3    H2 2960   5.110   2.025   6.103
 1007TIP3   OH2 2961   5.322   5.867   0.602
 1007TIP3    H1 2962   5.281   5.950   0.577
 1007TIP3    H2 2963   5.400   5.893   0.651
 1008TIP3   OH2 2964   7.469   3.392   1.175
 1008TIP3    H1 2965   7.407   3.344   1.120
 1008TIP3    H2 2966   7.543   3.411   1.117
 1009TIP3   OH2 2967   4.867   6.708   5.298
 1009TIP3    H1 2968   4.818   6.789   5.313
 1009TIP3    H2 2969   4.941   6.736   5.243
 1010TIP3   OH2 2970   3.130   3.694   0.012
 1010TIP3    H1 2971   3.117   3.622   0.073
 1010TIP3    H2 2972   3.220   3.723   0.027
 1011TIP3   OH2 2973   3.971   3.304   2.061
 1011TIP3    H1 2974   3.918   3.375   2.096
 1011TIP3    H2 2975   4.049   3.348   2.027
 1012TIP3   OH2 2976   6.824   7.441   4.573
 1012TIP3    H1 2977   6.811   7.388   4.651
 1012TIP3    H2 2978   6.735   7.460   4.542
 1013TIP3   OH2 2979   6.883   3.833   4.998
 1013TIP3    H1 2980   6.866   3.910   5.053
 1013TIP3    H2 2981   6.955   3.859   4.941
 1014TIP3   OH2 2982   6.045   1.273   5.267
 1014TIP3    H1 2983   5.982   1.309   5.204
 1014TIP3    H2 2984   6.127   1.318   5.246
 1015TIP3   OH2 2985   2.170   4.393   6.543
 1015TIP3    H1 2986   2.207   4.479   6.527
 1015TIP3    H2 2987   2.231   4.352   6.604
 1016TIP3   OH2 2988   0.435   3.694   1.086
 1016TIP3    H1 2989   0.463   3.664   1.172
 1016TIP3    H2 2990   0.482   3.638   1.025
 1017TIP3   OH2 2991   5.135   1.461   6.066
 1017TIP3    H1 2992   5.104   1.453   5.975
 1017TIP3    H2 2993   5.214   1.406   6.069
 1018TIP3   OH2 2994   3.193   2.840   5.316
 1018TIP3    H1 2995   3.234   2.768   5.267
 1018TIP3    H2 2996   3.212   2.918   5.265
 1019TIP3   OH2 2997   8.233   5.407   3.416
 1019TIP3    H1 2998   8.194   5.338   3.361
 1019TIP3    H2 2999   8.304   5.443   3.362
 1020TIP3   OH2 3000   7.539   7.543   2.998
 1020TIP3    H1 3001   7.473   7.544   3.067
 1020TIP3    H2 3002   7.544   7.634   2.968
 1021TIP3   OH2 3003   4.502   6.123   4.644
 1021TIP3    H1 3004   4.581   6.177   4.641
 1021TIP3    H2 3005   4.502   6.075   4.561
 1022TIP3   OH2 3006   4.759   2.409   0.983
 1022TIP3    H1 3007   4.802   2.325   0.969
 1022TIP3    H2 3008   4.713   2.426   0.900
 1023TIP3   OH2 3009   2.489   6.218   5.370
 1023TIP3    H1 3010   2.429   6.288   5.342
 1023TIP3    H2 3011   2.511   6.240   5.460
 1024TIP3   OH2 3012   4.448   2.266   4.656
 1024TIP3    H1 3013   4.525   2.321   4.651
 1024TIP3    H2 3014   4.466   2.205   4.727
 1025TIP3   OH2 3015   5.309   3.484   2.305
 1025TIP3    H1 3016   5.246   3.446   2.367
 1025TIP3    H2 3017   5.255   3.520   2.235
 1026TIP3   OH2 3018   7.171   3.049   2.374
 1026TIP3    H1 3019   7.124   2.996   2.309
 1026TIP3    H2 3020   7.107   3.114   2.402
 1027TIP3   OH2 3021   0.420   3.936   3.155
 1027TIP3    H1 3022   0.405   4.005   3.090
 1027TIP3    H2 3023   0.455   3.983   3.232
 1028TIP3   OH2 3024   4.908   4.567   0.041
 1028TIP3    H1 3025   4.892   4.535  -0.048
 1028TIP3    H2 3026   4.821   4.582   0.078
 1029TIP3   OH2 3027   0.169   1.540   0.898
 1029TIP3    H1 3028   0.161   1.467   0.960
 1029TIP3    H2 3029   0.155   1.500   0.812
 1030TIP3   OH2 3030   0.401   5.490   4.204
 1030TIP3    H1 3031   0.462   5.468   4.134
 1030TIP3    H2 3032   0.325   5.434   4.189
 1031TIP3   OH2 3033   5.607   3.867   3.655
 1031TIP3    H1 3034   5.646   3.780   3.665
 1031TIP3    H2 3035   5.512   3.850   3.653
 1032TIP3   OH2 3036   3.159   2.450   5.767
 1032TIP3    H1 3037   3.168   2.369   5.817
 1032TIP3    H2 3038   3.241   2.497   5.783
 1033TIP3   OH2 3039   4.597   5.602   6.756
 1033TIP3    H1 3040   4.649   5.682   6.763
 1033TIP3    H2 3041   4.561   5.605   6.667
 1034TIP3   OH2 3042   7.608   3.051   1.313
 1034TIP3    H1 3043   7.651   2.973   1.350
 1034TIP3    H2 3044   7.519   3.046   1.347
 1035TIP3   OH2 3045   0.776   2.848   1.147
 1035TIP3    H1 3046   0.724   2.816   1.220
 1035TIP3    H2 3047   0.816   2.770   1.109
 1036TIP3   OH2 3048   6.349   1.272   5.521
 1036TIP3    H1 3049   6.401   1.192   5.523
 1036TIP3    H2 3050   6.315   1.280   5.611
 1037TIP3   OH2 3051   3.453   3.255   3.319
 1037TIP3    H1 3052   3.436   3.299   3.402
 1037TIP3    H2 3053   3.367   3.220   3.293
 1038TIP3   OH2 3054   3.990   0.263   0.784
 1038TIP3    H1 3055   3.962   0.212   0.708
 1038TIP3    H2 3056   3.933   0.339   0.784
 1039TIP3   OH2 3057   0.667   5.837   0.743
 1039TIP3    H1 3058   0.744   5.798   0.700
 1039TIP3    H2 3059   0.634   5.901   0.680
 1040TIP3   OH2 3060   3.607   2.664   1.832
 1040TIP3    H1 3061   3.534   2.633   1.886
 1040TIP3    H2 3062   3.607   2.759   1.844
 1041TIP3   OH2 3063   6.697   0.766   4.513
 1041TIP3    H1 3064   6.662   0.816   4.439
 1041TIP3    H2 3065   6.783   0.736   4.484
 1042TIP3   OH2 3066   5.780   3.793   4.992
 1042TIP3    H1 3067   5.849   3.824   5.051
 1042TIP3    H2 3068   5.749   3.872   4.949
 1043TIP3   OH2 3069   0.329   2.456   6.616
 1043TIP3    H1 3070   0.253   2.487   6.665
 1043TIP3    H2 3071   0.330   2.509   6.537
 1044TIP3   OH2 3072   7.956   1.793   2.422
 1044TIP3    H1 3073   7.864   1.799   2.447
 1044TIP3    H2 3074   8.000   1.764   2.502
 1045TIP3   OH2 3075   3.619   1.089   2.251
 1045TIP3    H1 3076   3.691   1.039   2.289
 1045TIP3    H2 3077   3.619   1.064   2.158
 1046TIP3   OH2 3078   1.420   6.256   2.316
 1046TIP3    H1 3079   1.464   6.337   2.340
 1046TIP3    H2 3080   1.466   6.226   2.237
 1047TIP3   OH2 3081   1.335   0.778   2.228
 1047TIP3    H1 3082   1.401   0.784   2.159
 1047TIP3    H2 3083   1.258   0.741   2.185
 1048TIP3   OH2 3084   1.608   6.300   3.402
 1048TIP3    H1 3085   1.561   6.340   3.476
 1048TIP3    H2 3086   1.542   6.292   3.333
 1049TIP3   OH2 3087   4.846   5.441   0.698
 1049TIP3    H1 3088   4.766   5.464   0.746
 1049TIP3    H2 3089   4.917   5.463   0.757
 1050TIP3   OH2 3090   1.682   0.856   2.597
 1050TIP3    H1 3091   1.625   0.894   2.530
 1050TIP3    H2 3092   1.638   0.775   2.623
 1051TIP3   OH2 3093   3.303   0.598   6.543
 1051TIP3    H1 3094   3.295   0.573   6.451
 1051TIP3    H2 3095   3.302   0.694   6.542
 1052TIP3   OH2 3096   1.854   2.659   2.797
 1052TIP3    H1 3097   1.939   2.701   2.792
 1052TIP3    H2 3098   1.870   2.568   2.772
 1053TIP3   OH2 3099   5.250   4.158   0.336
 1053TIP3    H1 3100   5.321   4.172   0.274
 1053TIP3    H2 3101   5.250   4.236   0.391
 1054TIP3   OH2 3102   4.934   3.183  -0.027
 1054TIP3    H1 3103   5.008   3.243  -0.031
 1054TIP3    H2 3104   4.915   3.175   0.067
 1055TIP3   OH2 3105   5.574   7.500   1.773
 1055TIP3    H1 3106   5.617   7.557   1.837
 1055TIP3    H2 3107   5.565   7.416   1.818
 1056TIP3   OH2 3108   8.114   5.076   3.849
 1056TIP3    H1 3109   8.098   5.093   3.756
 1056TIP3    H2 3110   8.208   5.084   3.859
 1057TIP3   OH2 3111   6.995   3.005   4.049
 1057TIP3    H1 3112   6.913   2.988   4.003
 1057TIP3    H2 3113   7.014   3.096   4.030
 1058TIP3   OH2 3114   3.799   2.058   1.876
 1058TIP3    H1 3115   3.797   2.154   1.875
 1058TIP3    H2 3116   3.796   2.033   1.783
 1059TIP3   OH2 3117   4.958   2.477   4.792
 1059TIP3    H1 3118   4.998   2.535   4.857
 1059TIP3    H2 3119   5.008   2.492   4.712
 1060TIP3   OH2 3120   5.420   0.224   6.252
 1060TIP3    H1 3121   5.365   0.185   6.320
 1060TIP3    H2 3122   5.401   0.318   6.257
 1061TIP3   OH2 3123   0.960   4.844   4.012
 1061TIP3    H1 3124   1.050   4.817   4.033
 1061TIP3    H2 3125   0.908   4.812   4.085
 1062TIP3   OH2 3126   5.712   2.289   6.168
 1062TIP3    H1 3127   5.744   2.201   6.145
 1062TIP3    H2 3128   5.760   2.312   6.247
 1063TIP3   OH2 3129   4.090   7.231   5.430
 1063TIP3    H1 3130   4.009   7.273   5.460
 1063TIP3    H2 3131   4.157   7.298   5.443
 1064TIP3   OH2 3132   5.694   7.314   4.048
 1064TIP3    H1 3133   5.718   7.275   3.963
 1064TIP3    H2 3134   5.598   7.319   4.045
 1065TIP3   OH2 3135   6.288   3.669   5.665
 1065TIP3    H1 3136   6.331   3.658   5.750
 1065TIP3    H2 3137   6.356   3.650   5.601
 1066TIP3   OH2 3138   2.757   5.244   3.960
 1066TIP3    H1 3139   2.789   5.332   3.980
 1066TIP3    H2 3140   2.666   5.244   3.990
 1067TIP3   OH2 3141   2.211   6.049   6.441
 1067TIP3    H1 3142   2.170   6.026   6.357
 1067TIP3    H2 3143   2.303   6.026   6.430
 1068TIP3   OH2 3144   1.567   3.438   5.928
 1068TIP3    H1 3145   1.595   3.431   6.020
 1068TIP3    H2 3146   1.491   3.381   5.921
 1069TIP3   OH2 3147   2.930   7.798   5.273
 1069TIP3    H1 3148   2.929   7.893   5.277
 1069TIP3    H2 3149   2.926   7.778   5.179
 1070TIP3   OH2 3150   2.475   5.170   2.034
 1070TIP3    H1 3151   2.413   5.240   2.054
 1070TIP3    H2 3152   2.444   5.096   2.087
 1071TIP3   OH2 3153   0.416   4.716   3.708
 1071TIP3    H1 3154   0.423   4.621   3.724
 1071TIP3    H2 3155   0.458   4.729   3.623
 1072TIP3   OH2 3156   2.342   3.330   2.977
 1072TIP3    H1 3157   2.294   3.383   3.041
 1072TIP3    H2 3158   2.316   3.239   2.997
 1073TIP3   OH2 3159   1.794   3.790   4.829
 1073TIP3    H1 3160   1.802   3.870   4.880
 1073TIP3    H2 3161   1.883   3.771   4.799
 1074TIP3   OH2 3162   4.742   4.916   2.630
 1074TIP3    H1 3163   4.782   4.916   2.717
 1074TIP3    H2 3164   4.675   4.847   2.634
 1075TIP3   OH2 3165   1.057   4.439   4.655
 1075TIP3    H1 3166   1.044   4.534   4.663
 1075TIP3    H2 3167   1.104   4.429   4.573
 1076TIP3   OH2 3168   7.785   5.935   1.314
 1076TIP3    H1 3169   7.854   5.903   1.371
 1076TIP3    H2 3170   7.705   5.931   1.367
 1077TIP3   OH2 3171   8.298   5.980   1.552
 1077TIP3    H1 3172   8.279   5.979   1.646
 1077TIP3    H2 3173   8.213   5.995   1.511
 1078TIP3   OH2 3174   6.992   7.047   6.492
 1078TIP3    H1 3175   7.015   6.959   6.523
 1078TIP3    H2 3176   6.969   7.035   6.400
 1079TIP3   OH2 3177   4.891   0.946   6.095
 1079TIP3    H1 3178   4.934   1.018   6.141
 1079TIP3    H2 3179   4.924   0.952   6.005
 1080TIP3   OH2 3180   7.011   1.194   0.350
 1080TIP3    H1 3181   7.030   1.109   0.392
 1080TIP3    H2 3182   6.965   1.171   0.270
 1081TIP3   OH2 3183   5.019   7.259   2.064
 1081TIP3    H1 3184   4.938   7.219   2.032
 1081TIP3    H2 3185   5.009   7.352   2.047
 1082TIP3   OH2 3186   0.945   4.871   5.643
 1082TIP3    H1 3187   0.952   4.950   5.590
 1082TIP3    H2 3188   0.950   4.799   5.580
 1083TIP3   OH2 3189   6.910   3.737   3.706
 1083TIP3    H1 3190   6.883   3.805   3.767
 1083TIP3    H2 3191   7.003   3.725   3.722
 1084TIP3   OH2 3192   6.445   0.298   1.294
 1084TIP3    H1 3193   6.510   0.312   1.225
 1084TIP3    H2 3194   6.360   0.303   1.249
 1085TIP3   OH2 3195   0.391   6.542   5.940
 1085TIP3    H1 3196   0.383   6.493   5.858
 1085TIP3    H2 3197   0.324   6.610   5.933
 1086TIP3   OH2 3198   6.571   3.920   5.736
 1086TIP3    H1 3199   6.607   3.838   5.770
 1086TIP3    H2 3200   6.577   3.981   5.810
 1087TIP3   OH2 3201   3.823   5.396   5.931
 1087TIP3    H1 3202   3.787   5.482   5.910
 1087TIP3    H2 3203   3.831   5.396   6.027
 1088TIP3   OH2 3204   7.351   1.196   0.389
 1088TIP3    H1 3205   7.268   1.163   0.424
 1088TIP3    H2 3206   7.413   1.182   0.461
 1089TIP3   OH2 3207   4.486   4.989   4.710
 1089TIP3    H1 3208   4.438   5.020   4.634
 1089TIP3    H2 3209   4.554   5.055   4.724
 1090TIP3   OH2 3210   3.169   4.669   4.132
 1090TIP3    H1 3211   3.199   4.578   4.122
 1090TIP3    H2 3212   3.202   4.714   4.054
 1091TIP3   OH2 3213   6.999   5.901   6.087
 1091TIP3    H1 3214   7.071   5.838   6.093
 1091TIP3    H2 3215   7.001   5.931   5.996
 1092TIP3   OH2 3216   1.822   3.042   0.151
 1092TIP3    H1 3217   1.745   3.032   0.095
 1092TIP3    H2 3218   1.884   2.977   0.118
 1093TIP3   OH2 3219   0.882   1.507   5.219
 1093TIP3    H1 3220   0.882   1.525   5.125
 1093TIP3    H2 3221   0.968   1.536   5.249
 1094TIP3   OH2 3222   1.628   0.995   6.206
 1094TIP3    H1 3223   1.656   1.047   6.131
 1094TIP3    H2 3224   1.701   0.936   6.224
 1095TIP3   OH2 3225   2.623   2.324   4.742
 1095TIP3    H1 3226   2.669   2.406   4.760
 1095TIP3    H2 3227   2.533   2.341   4.769
 1096TIP3   OH2 3228   4.722   6.411   0.474
 1096TIP3    H1 3229   4.697   6.320   0.486
 1096TIP3    H2 3230   4.739   6.443   0.563
 1097TIP3   OH2 3231   5.655   7.383   5.909
 1097TIP3    H1 3232   5.642   7.325   5.835
 1097TIP3    H2 3233   5.568   7.395   5.947
 1098TIP3   OH2 3234   7.734   7.177   5.874
 1098TIP3    H1 3235   7.785   7.098   5.890
 1098TIP3    H2 3236   7.798   7.248   5.881
 1099TIP3   OH2 3237   0.838   0.171   2.575
 1099TIP3    H1 3238   0.766   0.205   2.522
 1099TIP3    H2 3239   0.799   0.158   2.662
 1100TIP3   OH2 3240   7.651   0.663   2.108
 1100TIP3    H1 3241   7.708   0.635   2.179
 1100TIP3    H2 3242   7.615   0.747   2.138
 1101TIP3   OH2 3243   5.219   5.953   1.213
 1101TIP3    H1 3244   5.303   5.998   1.203
 1101TIP3    H2 3245   5.237   5.882   1.275
 1102TIP3   OH2 3246   0.891   5.270   3.816
 1102TIP3    H1 3247   0.975   5.239   3.851
 1102TIP3    H2 3248   0.825   5.221   3.864
 1103TIP3   OH2 3249   5.456   6.192   0.388
 1103TIP3    H1 3250   5.406   6.207   0.308
 1103TIP3    H2 3251   5.500   6.108   0.374
 1104TIP3   OH2 3252   2.732   2.985   2.603
 1104TIP3    H1 3253   2.812   3.036   2.589
 1104TIP3    H2 3254   2.722   2.981   2.698
 1105TIP3   OH2 3255   2.193   1.482   4.005
 1105TIP3    H1 3256   2.204   1.570   4.041
 1105TIP3    H2 3257   2.164   1.429   4.079
 1106TIP3   OH2 3258   2.335   2.210   3.277
 1106TIP3    H1 3259   2.316   2.201   3.183
 1106TIP3    H2 3260   2.334   2.305   3.292
 1107TIP3   OH2 3261   3.116   7.919   1.626
 1107TIP3    H1 3262   3.208   7.913   1.653
 1107TIP3    H2 3263   3.119   7.912   1.531
 1108TIP3   OH2 3264   7.977   1.337   0.057
 1108TIP3    H1 3265   8.023   1.258   0.031
 1108TIP3    H2 3266   8.039   1.385   0.112
 1109TIP3   OH2 3267   3.294   1.753   2.254
 1109TIP3    H1 3268   3.304   1.717   2.342
 1109TIP3    H2 3269   3.247   1.685   2.205
 1110TIP3   OH2 3270   0.900   1.611   2.935
 1110TIP3    H1 3271   0.926   1.606   2.843
 1110TIP3    H2 3272   0.953   1.544   2.979
 1111TIP3   OH2 3273   4.542   3.339   0.846
 1111TIP3    H1 3274   4.525   3.432   0.831
 1111TIP3    H2 3275   4.480   3.314   0.914
 1112TIP3   OH2 3276   3.010   3.235   0.479
 1112TIP3    H1 3277   2.981   3.146   0.460
 1112TIP3    H2 3278   3.102   3.226   0.502
 1113TIP3   OH2 3279   1.818   3.870   4.318
 1113TIP3    H1 3280   1.742   3.813   4.303
 1113TIP3    H2 3281   1.824   3.877   4.413
 1114TIP3   OH2 3282   0.291   2.229   0.011
 1114TIP3    H1 3283   0.312   2.316  -0.025
 1114TIP3    H2 3284   0.202   2.239   0.045
 1115TIP3   OH2 3285   5.797   3.691   5.366
 1115TIP3    H1 3286   5.738   3.761   5.394
 1115TIP3    H2 3287   5.745   3.611   5.378
 1116TIP3   OH2 3288   8.145   5.728   1.675
 1116TIP3    H1 3289   8.237   5.708   1.658
 1116TIP3    H2 3290   8.147   5.800   1.738
 1117TIP3   OH2 3291   3.250   4.546   3.069
 1117TIP3    H1 3292   3.228   4.527   2.978
 1117TIP3    H2 3293   3.216   4.634   3.085
 1118TIP3   OH2 3294   8.417   7.838   5.664
 1118TIP3    H1 3295   8.403   7.772   5.731
 1118TIP3    H2 3296   8.353   7.817   5.596
 1119TIP3   OH2 3297   2.374   3.176   4.396
 1119TIP3    H1 3298   2.345   3.243   4.457
 1119TIP3    H2 3299   2.424   3.224   4.330
 1120TIP3   OH2 3300   4.464   0.907   5.519
 1120TIP3    H1 3301   4.423   0.921   5.604
 1120TIP3    H2 3302   4.410   0.956   5.457
 1121TIP3   OH2 3303   0.326   0.036   1.153
 1121TIP3    H1 3304   0.258   0.002   1.094
 1121TIP3    H2 3305   0.408   0.020   1.106
 1122TIP3   OH2 3306   6.986   1.680   0.589
 1122TIP3    H1 3307   7.011   1.676   0.681
 1122TIP3    H2 3308   7.016   1.597   0.552
 1123TIP3   OH2 3309   5.534   0.703   2.651
 1123TIP3    H1 3310   5.471   0.709   2.580
 1123TIP3    H2 3311   5.553   0.609   2.657
 1124TIP3   OH2 3312   0.778   6.833   5.544
 1124TIP3    H1 3313   0.728   6.870   5.618
 1124TIP3    H2 3314   0.729   6.861   5.466
 1125TIP3   OH2 3315   3.304   0.345   2.936
 1125TIP3    H1 3316   3.263   0.268   2.896
 1125TIP3    H2 3317   3.363   0.378   2.868
 1126TIP3   OH2 3318   2.839   3.220   4.209
 1126TIP3    H1 3319   2.932   3.198   4.216
 1126TIP3    H2 3320   2.836   3.314   4.226
 1127TIP3   OH2 3321   5.830   4.502   5.642
 1127TIP3    H1 3322   5.861   4.516   5.553
 1127TIP3    H2 3323   5.816   4.407   5.647
 1128TIP3   OH2 3324   5.694   4.124   1.376
 1128TIP3    H1 3325   5.632   4.074   1.323
 1128TIP3    H2 3326   5.732   4.188   1.316
 1129TIP3   OH2 3327   7.637   3.276   6.284
 1129TIP3    H1 3328   7.603   3.324   6.360
 1129TIP3    H2 3329   7.729   3.300   6.280
 1130TIP3   OH2 3330   2.354   1.204   6.448
 1130TIP3    H1 3331   2.422   1.153   6.492
 1130TIP3    H2 3332   2.301   1.140   6.401
 1131TIP3   OH2 3333   7.821   3.783   5.880
 1131TIP3    H1 3334   7.891   3.776   5.945
 1131TIP3    H2 3335   7.778   3.697   5.883
 1132TIP3   OH2 3336   3.123   1.138   2.963
 1132TIP3    H1 3337   3.173   1.113   2.885
 1132TIP3    H2 3338   3.097   1.055   3.003
 1133TIP3   OH2 3339   7.877   5.384   0.190
 1133TIP3    H1 3340   7.852   5.325   0.119
 1133TIP3    H2 3341   7.898   5.327   0.263
 1134TIP3   OH2 3342   6.766   2.444   3.813
 1134TIP3    H1 3343   6.699   2.455   3.745
 1134TIP3    H2 3344   6.717   2.423   3.892
 1135TIP3   OH2 3345   3.796   0.097   6.238
 1135TIP3    H1 3346   3.784   0.133   6.151
 1135TIP3    H2 3347   3.849   0.018   6.224
 1136TIP3   OH2 3348   6.037   6.688   1.756
 1136TIP3    H1 3349   5.994   6.771   1.776
 1136TIP3    H2 3350   6.001   6.661   1.672
 1137TIP3   OH2 3351   0.894   0.931   0.371
 1137TIP3    H1 3352   0.961   0.973   0.317
 1137TIP3    H2 3353   0.823   0.994   0.375
 1138TIP3   OH2 3354   4.344   1.002   5.298
 1138TIP3    H1 3355   4.262   0.990   5.250
 1138TIP3    H2 3356   4.412   0.977   5.236
 1139TIP3   OH2 3357   7.786   4.952   0.480
 1139TIP3    H1 3358   7.831   5.021   0.432
 1139TIP3    H2 3359   7.791   4.876   0.421
 1140TIP3   OH2 3360   5.038   2.842   4.760
 1140TIP3    H1 3361   5.085   2.790   4.825
 1140TIP3    H2 3362   5.102   2.907   4.730
 1141TIP3   OH2 3363   2.673   2.213   5.968
 1141TIP3    H1 3364   2.618   2.281   5.928
 1141TIP3    H2 3365   2.759   2.254   5.977
 1142TIP3   OH2 3366   3.142   7.154   2.954
 1142TIP3    H1 3367   3.214   7.144   2.892
 1142TIP3    H2 3368   3.169   7.227   3.010
 1143TIP3   OH2 3369   5.077   3.155   1.524
 1143TIP3    H1 3370   5.130   3.225   1.562
 1143TIP3    H2 3371   5.137   3.107   1.469
 1144TIP3   OH2 3372   4.050   0.926   5.428
 1144TIP3    H1 3373   4.040   1.013   5.467
 1144TIP3    H2 3374   3.961   0.898   5.408
 1145TIP3   OH2 3375   0.496   6.607   3.942
 1145TIP3    H1 3376   0.435   6.672   3.977
 1145TIP3    H2 3377   0.545   6.576   4.018
 1146TIP3   OH2 3378   6.138   6.913   0.424
 1146TIP3    H1 3379   6.207   6.978   0.411
 1146TIP3    H2 3380   6.182   6.828   0.415
 1147TIP3   OH2 3381   2.632   5.128   1.755
 1147TIP3    H1 3382   2.547   5.121   1.800
 1147TIP3    H2 3383   2.680   5.195   1.804
 1148TIP3   OH2 3384   3.566   3.452   5.628
 1148TIP3    H1 3385   3.476   3.421   5.630
 1148TIP3    H2 3386   3.558   3.546   5.610
 1149TIP3   OH2 3387   2.849   7.316   6.770
 1149TIP3    H1 3388   2.938   7.337   6.798
 1149TIP3    H2 3389   2.801   7.298   6.851
 1150TIP3   OH2 3390   8.105   4.966   3.144
 1150TIP3    H1 3391   8.096   4.999   3.055
 1150TIP3    H2 3392   8.039   5.014   3.194
 1151TIP3   OH2 3393   1.581   1.026   5.352
 1151TIP3    H1 3394   1.491   1.051   5.332
 1151TIP3    H2 3395   1.634   1.095   5.312
 1152TIP3   OH2 3396   0.472   4.871   2.432
 1152TIP3    H1 3397   0.423   4.884   2.513
 1152TIP3    H2 3398   0.481   4.776   2.424
 1153TIP3   OH2 3399   7.062   0.704   4.907
 1153TIP3    H1 3400   7.126   0.726   4.839
 1153TIP3    H2 3401   7.097   0.744   4.987
 1154TIP3   OH2 3402   8.254   6.553   5.710
 1154TIP3    H1 3403   8.237   6.647   5.705
 1154TIP3    H2 3404   8.344   6.543   5.679
 1155TIP3   OH2 3405   3.916   1.349   0.197
 1155TIP3    H1 3406   3.934   1.302   0.279
 1155TIP3    H2 3407   3.843   1.407   0.217
 1156TIP3   OH2 3408   1.352   3.018   0.166
 1156TIP3    H1 3409   1.280   3.080   0.158
 1156TIP3    H2 3410   1.411   3.057   0.231
 1157TIP3   OH2 3411   1.232   0.935   6.638
 1157TIP3    H1 3412   1.227   1.027   6.662
 1157TIP3    H2 3413   1.153   0.896   6.676
 1158TIP3   OH2 3414   0.365   0.232   6.438
 1158TIP3    H1 3415   0.389   0.324   6.425
 1158TIP3    H2 3416   0.322   0.230   6.523
 1159TIP3   OH2 3417   0.908   3.205   2.584
 1159TIP3    H1 3418   0.876   3.121   2.616
 1159TIP3    H2 3419   0.938   3.186   2.495
 1160TIP3   OH2 3420   6.054   3.572   5.582
 1160TIP3    H1 3421   6.007   3.603   5.506
 1160TIP3    H2 3422   6.127   3.633   5.592
 1161TIP3   OH2 3423   3.366   2.605   1.975
 1161TIP3    H1 3424   3.278   2.566   1.977
 1161TIP3    H2 3425   3.369   2.660   2.054
 1162TIP3   OH2 3426   7.146   4.237   0.357
 1162TIP3    H1 3427   7.145   4.200   0.269
 1162TIP3    H2 3428   7.068   4.291   0.362
 1163TIP3   OH2 3429   4.352   0.246   0.261
 1163TIP3    H1 3430   4.305   0.302   0.200
 1163TIP3    H2 3431   4.404   0.307   0.314
 1164TIP3   OH2 3432   0.329   3.022   4.537
 1164TIP3    H1 3433   0.374   2.971   4.605
 1164TIP3    H2 3434   0.280   3.088   4.585
 1165TIP3   OH2 3435   3.758   6.233   4.092
 1165TIP3    H1 3436   3.689   6.189   4.142
 1165TIP3    H2 3437   3.815   6.271   4.158
 1166TIP3   OH2 3438   2.111   2.343   2.141
 1166TIP3    H1 3439   2.198   2.382   2.144
 1166TIP3    H2 3440   2.099   2.303   2.227
 1167TIP3   OH2 3441   3.695   2.628   0.241
 1167TIP3    H1 3442   3.605   2.595   0.238
 1167TIP3    H2 3443   3.729   2.613   0.152
 1168TIP3   OH2 3444   2.129   1.832   2.283
 1168TIP3    H1 3445   2.080   1.768   2.232
 1168TIP3    H2 3446   2.216   1.795   2.291
 1169TIP3   OH2 3447   4.961   0.742   4.609
 1169TIP3    H1 3448   4.927   0.781   4.528
 1169TIP3    H2 3449   4.883   0.728   4.663
 1170TIP3   OH2 3450   7.593   1.539   1.446
 1170TIP3    H1 3451   7.531   1.606   1.475
 1170TIP3    H2 3452   7.646   1.582   1.380
 1171TIP3   OH2 3453   1.649   5.067   1.554
 1171TIP3    H1 3454   1.653   4.988   1.501
 1171TIP3    H2 3455   1.714   5.053   1.623
 1172TIP3   OH2 3456   1.819   3.455   1.311
 1172TIP3    H1 3457   1.814   3.478   1.403
 1172TIP3    H2 3458   1.902   3.407   1.302
 1173TIP3   OH2 3459   3.246   6.322   4.294
 1173TIP3    H1 3460   3.223   6.403   4.250
 1173TIP3    H2 3461   3.326   6.293   4.251
 1174TIP3   OH2 3462   4.172   1.789   4.140
 1174TIP3    H1 3463   4.179   1.864   4.082
 1174TIP3    H2 3464   4.083   1.756   4.127
 1175TIP3   OH2 3465   2.462   7.443   2.762
 1175TIP3    H1 3466   2.512   7.522   2.741
 1175TIP3    H2 3467   2.437   7.453   2.854
 1176TIP3   OH2 3468   0.131   3.164   1.687
 1176TIP3    H1 3469   0.113   3.115   1.767
 1176TIP3    H2 3470   0.221   3.196   1.698
 1177TIP3   OH2 3471   6.741   4.318   2.364
 1177TIP3    H1 3472   6.694   4.283   2.439
 1177TIP3    H2 3473   6.833   4.297   2.382
 1178TIP3   OH2 3474   0.261   3.447   1.564
 1178TIP3    H1 3475   0.341   3.394   1.564
 1178TIP3    H2 3476   0.281   3.520   1.505
 1179TIP3   OH2 3477   6.851   2.247   5.989
 1179TIP3    H1 3478   6.917   2.222   6.053
 1179TIP3    H2 3479   6.822   2.333   6.018
 1180TIP3   OH2 3480   6.328   1.500   2.692
 1180TIP3    H1 3481   6.378   1.580   2.707
 1180TIP3    H2 3482   6.336   1.483   2.599
 1181TIP3   OH2 3483   4.051   5.636   5.836
 1181TIP3    H1 3484   4.084   5.699   5.771
 1181TIP3    H2 3485   4.037   5.688   5.914
 1182TIP3   OH2 3486   7.263   5.153   6.649
 1182TIP3    H1 3487   7.243   5.081   6.708
 1182TIP3    H2 3488   7.329   5.117   6.589
 1183TIP3   OH2 3489   6.335   6.441   6.357
 1183TIP3    H1 3490   6.287   6.395   6.288
 1183TIP3    H2 3491   6.336   6.380   6.431
 1184TIP3   OH2 3492   5.115   6.010   6.386
 1184TIP3    H1 3493   5.148   5.987   6.299
 1184TIP3    H2 3494   5.191   6.001   6.443
 1185TIP3   OH2 3495   7.308   5.253   3.510
 1185TIP3    H1 3496   7.243   5.189   3.539
 1185TIP3    H2 3497   7.358   5.207   3.442
 1186TIP3   OH2 3498   4.972   1.309   5.193
 1186TIP3    H1 3499   4.996   1.382   5.137
 1186TIP3    H2 3500   5.030   1.238   5.167
 1187TIP3   OH2 3501   4.554   1.376   2.108
 1187TIP3    H1 3502   4.531   1.464   2.079
 1187TIP3    H2 3503   4.500   1.318   2.053
 1188TIP3   OH2 3504   2.566   5.672   2.351
 1188TIP3    H1 3505   2.520   5.737   2.403
 1188TIP3    H2 3506   2.652   5.710   2.335
 1189TIP3   OH2 3507   0.537   0.709   1.809
 1189TIP3    H1 3508   0.558   0.702   1.902
 1189TIP3    H2 3509   0.479   0.784   1.803
 1190TIP3   OH2 3510   0.020   1.989   0.203
 1190TIP3    H1 3511   0.027   1.918   0.139
 1190TIP3    H2 3512   0.022   2.069   0.149
 1191TIP3   OH2 3513   1.254   7.442   0.118
 1191TIP3    H1 3514   1.234   7.521   0.169
 1191TIP3    H2 3515   1.176   7.428   0.065
 1192TIP3   OH2 3516   2.538   1.460   3.041
 1192TIP3    H1 3517   2.466   1.399   3.026
 1192TIP3    H2 3518   2.511   1.510   3.118
 1193TIP3   OH2 3519   5.209   3.365   5.841
 1193TIP3    H1 3520   5.240   3.360   5.932
 1193TIP3    H2 3521   5.134   3.425   5.846
 1194TIP3   OH2 3522   2.131   5.855   4.215
 1194TIP3    H1 3523   2.182   5.774   4.213
 1194TIP3    H2 3524   2.041   5.826   4.230
 1195TIP3   OH2 3525   0.748   4.855   3.799
 1195TIP3    H1 3526   0.826   4.870   3.851
 1195TIP3    H2 3527   0.715   4.769   3.827
 1196TIP3   OH2 3528   4.359   5.524   2.888
 1196TIP3    H1 3529   4.443   5.535   2.842
 1196TIP3    H2 3530   4.308   5.468   2.830
 1197TIP3   OH2 3531   1.860   4.980   5.099
 1197TIP3    H1 3532   1.887   4.973   5.008
 1197TIP3    H2 3533   1.784   5.039   5.098
 1198TIP3   OH2 3534   2.991   4.649   4.385
 1198TIP3    H1 3535   2.990   4.565   4.340
 1198TIP3    H2 3536   2.923   4.701   4.342
 1199TIP3   OH2 3537   4.926   1.274   6.316
 1199TIP3    H1 3538   4.837   1.241   6.326
 1199TIP3    H2 3539   4.982   1.196   6.323
 1200TIP3   OH2 3540   4.667   3.452   3.555
 1200TIP3    H1 3541   4.682   3.546   3.555
 1200TIP3    H2 3542   4.647   3.431   3.463
 1201TIP3   OH2 3543   5.791   5.755   4.525
 1201TIP3    H1 3544   5.859   5.799   4.474
 1201TIP3    H2 3545   5.725   5.729   4.461
 1202TIP3   OH2 3546   3.242   3.105   6.784
 1202TIP3    H1 3547   3.307   3.039   6.761
 1202TIP3    H2 3548   3.200   3.127   6.701
 1203TIP3   OH2 3549   6.427   3.351   5.370
 1203TIP3    H1 3550   6.385   3.287   5.427
 1203TIP3    H2 3551   6.441   3.305   5.288
 1204TIP3   OH2 3552   4.463   3.061   5.172
 1204TIP3    H1 3553   4.446   3.150   5.141
 1204TIP3    H2 3554   4.505   3.073   5.257
 1205TIP3   OH2 3555   4.567   3.181   5.783
 1205TIP3    H1 3556   4.491   3.159   5.729
 1205TIP3    H2 3557   4.535   3.175   5.873
 1206TIP3   OH2 3558   2.098   6.729   6.611
 1206TIP3    H1 3559   2.050   6.652   6.644
 1206TIP3    H2 3560   2.118   6.780   6.689
 1207TIP3   OH2 3561   0.782   7.897   0.761
 1207TIP3    H1 3562   0.781   7.806   0.729
 1207TIP3    H2 3563   0.706   7.938   0.720
 1208TIP3   OH2 3564   6.448   7.047   1.482
 1208TIP3    H1 3565   6.520   6.987   1.502
 1208TIP3    H2 3566   6.491   7.129   1.458
 1209TIP3   OH2 3567   0.988   1.838   5.389
 1209TIP3    H1 3568   1.047   1.908   5.362
 1209TIP3    H2 3569   1.046   1.763   5.407
 1210TIP3   OH2 3570   6.703   0.648   5.232
 1210TIP3    H1 3571   6.675   0.645   5.324
 1210TIP3    H2 3572   6.693   0.559   5.201
 1211TIP3   OH2 3573   7.677   4.495   3.643
 1211TIP3    H1 3574   7.598   4.445   3.663
 1211TIP3    H2 3575   7.677   4.503   3.548
 1212TIP3   OH2 3576   2.625   0.979   5.940
 1212TIP3    H1 3577   2.643   0.903   5.884
 1212TIP3    H2 3578   2.625   0.944   6.029
 1213TIP3   OH2 3579   3.983   3.536   0.477
 1213TIP3    H1 3580   3.992   3.632   0.483
 1213TIP3    H2 3581   4.063   3.508   0.431
 1214TIP3   OH2 3582   0.293   7.705   5.298
 1214TIP3    H1 3583   0.238   7.780   5.322
 1214TIP3    H2 3584   0.278   7.641   5.367
 1215TIP3   OH2 3585   1.173   1.356   4.146
 1215TIP3    H1 3586   1.230   1.336   4.221
 1215TIP3    H2 3587   1.105   1.412   4.181
 1216TIP3   OH2 3588   1.495   6.943   1.959
 1216TIP3    H1 3589   1.515   7.029   1.923
 1216TIP3    H2 3590   1.453   6.961   2.043
 1217TIP3   OH2 3591   1.807   7.730   4.793
 1217TIP3    H1 3592   1.724   7.696   4.759
 1217TIP3    H2 3593   1.873   7.671   4.757
 1218TIP3   OH2 3594   3.716   1.525   0.245
 1218TIP3    H1 3595   3.643   1.579   0.275
 1218TIP3    H2 3596   3.735   1.558   0.157
 1219TIP3   OH2 3597   2.007   4.931   5.937
 1219TIP3    H1 3598   2.078   4.995   5.942
 1219TIP3    H2 3599   2.028   4.866   6.004
 1220TIP3   OH2 3600   8.144   7.610   6.493
 1220TIP3    H1 3601   8.205   7.539   6.473
 1220TIP3    H2 3602   8.166   7.679   6.429
 1221TIP3   OH2 3603   0.354   1.108   2.322
 1221TIP3    H1 3604   0.358   1.107   2.418
 1221TIP3    H2 3605   0.436   1.067   2.294
 1222TIP3   OH2 3606   2.673   7.483   3.964
 1222TIP3    H1 3607   2.656   7.548   3.896
 1222TIP3    H2 3608   2.755   7.510   4.004
 1223TIP3   OH2 3609   3.982   6.671   5.630
 1223TIP3    H1 3610   3.919   6.627   5.573
 1223TIP3    H2 3611   3.965   6.634   5.717
 1224TIP3   OH2 3612   3.074   3.766   4.474
 1224TIP3    H1 3613   3.138   3.782   4.544
 1224TIP3    H2 3614   3.108   3.690   4.428
 1225TIP3   OH2 3615   2.180   3.332   0.241
 1225TIP3    H1 3616   2.168   3.282   0.160
 1225TIP3    H2 3617   2.261   3.298   0.278
 1226TIP3   OH2 3618   3.941   2.455   1.600
 1226TIP3    H1 3619   3.929   2.508   1.679
 1226TIP3    H2 3620   4.002   2.504   1.547
 1227TIP3   OH2 3621   5.661   2.709   4.076
 1227TIP3    H1 3622   5.650   2.700   3.981
 1227TIP3    H2 3623   5.590   2.767   4.103
 1228TIP3   OH2 3624   2.959   6.050   3.485
 1228TIP3    H1 3625   2.877   6.084   3.450
 1228TIP3    H2 3626   3.009   6.025   3.408
 1229TIP3   OH2 3627   6.596   7.357   0.864
 1229TIP3    H1 3628   6.659   7.423   0.892
 1229TIP3    H2 3629   6.647   7.294   0.814
 1230TIP3   OH2 3630   1.636   2.492   4.727
 1230TIP3    H1 3631   1.700   2.423   4.746
 1230TIP3    H2 3632   1.684   2.556   4.675
 1231TIP3   OH2 3633   5.843   3.865   5.675
 1231TIP3    H1 3634   5.889   3.906   5.602
 1231TIP3    H2 3635   5.913   3.834   5.733
 1232TIP3   OH2 3636   6.231   0.554   0.504
 1232TIP3    H1 3637   6.312   0.527   0.546
 1232TIP3    H2 3638   6.228   0.504   0.422
 1233TIP3   OH2 3639   0.501   1.031   1.513
 1233TIP3    H1 3640   0.506   1.126   1.502
 1233TIP3    H2 3641   0.429   1.018   1.575
 1234TIP3   OH2 3642   2.133   1.993   3.027
 1234TIP3    H1 3643   2.185   1.921   3.064
 1234TIP3    H2 3644   2.057   1.949   2.989
 1235TIP3   OH2 3645   2.359   7.778   5.151
 1235TIP3    H1 3646   2.434   7.733   5.111
 1235TIP3    H2 3647   2.295   7.708   5.167
 1236TIP3   OH2 3648   6.994   1.870   5.012
 1236TIP3    H1 3649   7.045   1.791   4.993
 1236TIP3    H2 3650   6.949   1.889   4.929
 1237TIP3   OH2 3651   1.745   0.079   2.188
 1237TIP3    H1 3652   1.833   0.110   2.167
 1237TIP3    H2 3653   1.737  -0.004   2.140
 1238TIP3   OH2 3654   0.289   1.852   1.889
 1238TIP3    H1 3655   0.219   1.791   1.915
 1238TIP3    H2 3656   0.283   1.856   1.794
 1239TIP3   OH2 3657   2.304   0.517   5.089
 1239TIP3    H1 3658   2.248   0.563   5.151
 1239TIP3    H2 3659   2.370   0.475   5.144
 1240TIP3   OH2 3660   6.525   4.731   4.882
 1240TIP3    H1 3661   6.619   4.720   4.873
 1240TIP3    H2 3662   6.510   4.825   4.872
 1241TIP3   OH2 3663   6.254   5.615   6.338
 1241TIP3    H1 3664   6.198   5.538   6.338
 1241TIP3    H2 3665   6.306   5.606   6.258
 1242TIP3   OH2 3666   4.682   1.043   6.738
 1242TIP3    H1 3667   4.605   1.095   6.761
 1242TIP3    H2 3668   4.757   1.099   6.756
 1243TIP3   OH2 3669   2.094   2.462   0.001
 1243TIP3    H1 3670   2.090   2.395  -0.068
 1243TIP3    H2 3671   2.110   2.412   0.081
 1244TIP3   OH2 3672   0.715   0.816   3.766
 1244TIP3    H1 3673   0.682   0.734   3.802
 1244TIP3    H2 3674   0.785   0.842   3.826
 1245TIP3   OH2 3675   5.390   4.330   3.920
 1245TIP3    H1 3676   5.437   4.250   3.945
 1245TIP3    H2 3677   5.446   4.371   3.854
 1246TIP3   OH2 3678   5.819   7.648   5.368
 1246TIP3    H1 3679   5.840   7.631   5.460
 1246TIP3    H2 3680   5.888   7.604   5.319
 1247TIP3   OH2 3681   7.057   6.345   4.588
 1247TIP3    H1 3682   7.048   6.364   4.682
 1247TIP3    H2 3683   6.967   6.338   4.556
 1248TIP3   OH2 3684   7.211   1.251   5.399
 1248TIP3    H1 3685   7.271   1.254   5.324
 1248TIP3    H2 3686   7.221   1.337   5.441
 1249TIP3   OH2 3687   5.897   6.332   3.683
 1249TIP3    H1 3688   5.840   6.408   3.695
 1249TIP3    H2 3689   5.978   6.355   3.730
 1250TIP3   OH2 3690   1.678   3.044   2.000
 1250TIP3    H1 3691   1.745   3.075   2.061
 1250TIP3    H2 3692   1.599   3.091   2.026
 1251TIP3   OH2 3693   1.993   3.325   4.758
 1251TIP3    H1 3694   2.008   3.231   4.744
 1251TIP3    H2 3695   1.921   3.347   4.698
 1252TIP3   OH2 3696   6.609   4.794   5.332
 1252TIP3    H1 3697   6.566   4.858   5.275
 1252TIP3    H2 3698   6.617   4.838   5.416
 1253TIP3   OH2 3699   6.811   0.595   6.307
 1253TIP3    H1 3700   6.825   0.658   6.237
 1253TIP3    H2 3701   6.896   0.553   6.319
 1254TIP3   OH2 3702   0.415   3.621   2.881
 1254TIP3    H1 3703   0.477   3.643   2.951
 1254TIP3    H2 3704   0.398   3.528   2.893
 1255TIP3   OH2 3705   5.545   6.226   2.617
 1255TIP3    H1 3706   5.530   6.206   2.709
 1255TIP3    H2 3707   5.628   6.182   2.595
 1256TIP3   OH2 3708   4.186   0.223   2.572
 1256TIP3    H1 3709   4.156   0.241   2.483
 1256TIP3    H2 3710   4.134   0.281   2.627
 1257TIP3   OH2 3711   6.567   4.990   6.291
 1257TIP3    H1 3712   6.530   4.941   6.217
 1257TIP3    H2 3713   6.641   5.038   6.253
 1258TIP3   OH2 3714   5.705   7.549   4.589
 1258TIP3    H1 3715   5.683   7.627   4.538
 1258TIP3    H2 3716   5.698   7.477   4.526
 1259TIP3   OH2 3717   7.845   4.379   1.415
 1259TIP3    H1 3718   7.921   4.396   1.470
 1259TIP3    H2 3719   7.773   4.368   1.477
 1260TIP3   OH2 3720   4.250   6.217   2.156
 1260TIP3    H1 3721   4.205   6.193   2.075
 1260TIP3    H2 3722   4.267   6.311   2.146
 1261TIP3   OH2 3723   6.791   5.062   5.300
 1261TIP3    H1 3724   6.828   4.976   5.317
 1261TIP3    H2 3725   6.867   5.118   5.286
 1262TIP3   OH2 3726   7.633   4.996   6.659
 1262TIP3    H1 3727   7.608   4.933   6.727
 1262TIP3    H2 3728   7.643   5.079   6.706
 1263TIP3   OH2 3729   1.923   7.801   5.445
 1263TIP3    H1 3730   1.856   7.838   5.503
 1263TIP3    H2 3731   1.962   7.876   5.402
 1264TIP3   OH2 3732   0.460   5.241   2.575
 1264TIP3    H1 3733   0.383   5.234   2.519
 1264TIP3    H2 3734   0.481   5.334   2.576
 1265TIP3   OH2 3735   3.105   5.882   2.634
 1265TIP3    H1 3736   3.178   5.861   2.576
 1265TIP3    H2 3737   3.146   5.898   2.719
 1266TIP3   OH2 3738   1.975   4.916   4.842
 1266TIP3    H1 3739   1.994   4.900   4.750
 1266TIP3    H2 3740   2.056   4.894   4.888
 1267TIP3   OH2 3741   5.194   1.520   1.188
 1267TIP3    H1 3742   5.271   1.533   1.243
 1267TIP3    H2 3743   5.226   1.529   1.098
 1268TIP3   OH2 3744   3.364   2.736   1.457
 1268TIP3    H1 3745   3.420   2.690   1.519
 1268TIP3    H2 3746   3.313   2.798   1.510
 1269TIP3   OH2 3747   4.106   4.562   0.213
 1269TIP3    H1 3748   4.148   4.544   0.297
 1269TIP3    H2 3749   4.090   4.656   0.213
 1270TIP3   OH2 3750   6.198   2.816   2.552
 1270TIP3    H1 3751   6.201   2.799   2.646
 1270TIP3    H2 3752   6.105   2.817   2.531
 1271TIP3   OH2 3753   1.418   6.782   6.323
 1271TIP3    H1 3754   1.488   6.799   6.385
 1271TIP3    H2 3755   1.412   6.686   6.318
 1272TIP3   OH2 3756   2.167   3.569   5.280
 1272TIP3    H1 3757   2.260   3.545   5.274
 1272TIP3    H2 3758   2.162   3.656   5.241
 1273TIP3   OH2 3759   6.611   1.997   0.994
 1273TIP3    H1 3760   6.671   1.982   0.921
 1273TIP3    H2 3761   6.669   2.014   1.069
 1274TIP3   OH2 3762   1.618   2.105   3.897
 1274TIP3    H1 3763   1.688   2.155   3.937
 1274TIP3    H2 3764   1.546   2.109   3.960
 1275TIP3   OH2 3765   1.672   5.281   0.144
 1275TIP3    H1 3766   1.701   5.355   0.196
 1275TIP3    H2 3767   1.682   5.205   0.202
 1276TIP3   OH2 3768   7.414   0.427   2.153
 1276TIP3    H1 3769   7.356   0.398   2.083
 1276TIP3    H2 3770   7.502   0.404   2.123
 1277TIP3   OH2 3771   6.454   7.844   5.832
 1277TIP3    H1 3772   6.435   7.895   5.911
 1277TIP3    H2 3773   6.547   7.859   5.816
 1278TIP3   OH2 3774   5.519   7.229   0.096
 1278TIP3    H1 3775   5.516   7.141   0.134
 1278TIP3    H2 3776   5.587   7.225   0.030
 1279TIP3   OH2 3777   5.939   6.703   1.156
 1279TIP3    H1 3778   6.027   6.736   1.135
 1279TIP3    H2 3779   5.950   6.609   1.163
 1280TIP3   OH2 3780   0.613   0.675   2.099
 1280TIP3    H1 3781   0.522   0.691   2.127
 1280TIP3    H2 3782   0.623   0.580   2.103
 1281TIP3   OH2 3783   7.293   2.397   0.644
 1281TIP3    H1 3784   7.313   2.407   0.551
 1281TIP3    H2 3785   7.204   2.431   0.654
 1282TIP3   OH2 3786   5.069   4.279   0.095
 1282TIP3    H1 3787   4.996   4.300   0.153
 1282TIP3    H2 3788   5.078   4.184   0.100
 1283TIP3   OH2 3789   7.166   7.222   2.090
 1283TIP3    H1 3790   7.222   7.288   2.050
 1283TIP3    H2 3791   7.079   7.239   2.053
 1284TIP3   OH2 3792   1.123   6.135   5.147
 1284TIP3    H1 3793   1.034   6.111   5.172
 1284TIP3    H2 3794   1.136   6.092   5.062
 1285TIP3   OH2 3795   2.357   2.094   4.938
 1285TIP3    H1 3796   2.380   2.114   4.847
 1285TIP3    H2 3797   2.266   2.124   4.947
 1286TIP3   OH2 3798   6.288   2.625   3.516
 1286TIP3    H1 3799   6.230   2.592   3.448
 1286TIP3    H2 3800   6.375   2.627   3.474
 1287TIP3   OH2 3801   7.911   2.486   3.143
 1287TIP3    H1 3802   7.997   2.491   3.101
 1287TIP3    H2 3803   7.854   2.450   3.075
 1288TIP3   OH2 3804   4.318   4.531   4.942
 1288TIP3    H1 3805   4.318   4.614   4.990
 1288TIP3    H2 3806   4.240   4.535   4.888
 1289TIP3   OH2 3807   5.820   3.507   0.252
 1289TIP3    H1 3808   5.780   3.447   0.315
 1289TIP3    H2 3809   5.747   3.538   0.199
 1290TIP3   OH2 3810   3.108   3.215   1.806
 1290TIP3    H1 3811   3.179   3.163   1.843
 1290TIP3    H2 3812   3.099   3.184   1.716
 1291TIP3   OH2 3813   3.420   2.647   0.827
 1291TIP3    H1 3814   3.494   2.594   0.797
 1291TIP3    H2 3815   3.396   2.699   0.750
 1292TIP3   OH2 3816   0.048   4.515   6.878
 1292TIP3    H1 3817   0.135   4.530   6.840
 1292TIP3    H2 3818   0.000   4.596   6.861
 1293TIP3   OH2 3819   3.894   1.906   3.339
 1293TIP3    H1 3820   3.933   1.973   3.283
 1293TIP3    H2 3821   3.800   1.922   3.333
 1294TIP3   OH2 3822   5.083   5.465   0.970
 1294TIP3    H1 3823   5.140   5.536   0.998
 1294TIP3    H2 3824   4.995   5.495   0.990
 1295TIP3   OH2 3825   4.718   2.721   3.163
 1295TIP3    H1 3826   4.638   2.685   3.125
 1295TIP3    H2 3827   4.787   2.701   3.099
 1296TIP3   OH2 3828   0.937   5.950   4.945
 1296TIP3    H1 3829   0.952   5.975   4.854
 1296TIP3    H2 3830   1.013   5.898   4.969
 1297TIP3   OH2 3831   3.859   1.238   2.400
 1297TIP3    H1 3832   3.791   1.300   2.374
 1297TIP3    H2 3833   3.830   1.154   2.364
 1298TIP3   OH2 3834   5.356   4.421   5.357
 1298TIP3    H1 3835   5.294   4.349   5.341
 1298TIP3    H2 3836   5.363   4.465   5.272
 1299TIP3   OH2 3837   0.790   0.038   0.546
 1299TIP3    H1 3838   0.872   0.038   0.496
 1299TIP3    H2 3839   0.814   0.001   0.631
 1300TIP3   OH2 3840   1.641   0.349   2.154
 1300TIP3    H1 3841   1.676   0.262   2.176
 1300TIP3    H2 3842   1.719   0.402   2.137
 1301TIP3   OH2 3843   1.643   4.129   3.413
 1301TIP3    H1 3844   1.562   4.156   3.371
 1301TIP3    H2 3845   1.712   4.174   3.365
 1302TIP3   OH2 3846   3.198   3.162   3.346
 1302TIP3    H1 3847   3.124   3.222   3.338
 1302TIP3    H2 3848   3.158   3.075   3.347
 1303TIP3   OH2 3849   7.829   5.560   4.745
 1303TIP3    H1 3850   7.900   5.518   4.794
 1303TIP3    H2 3851   7.859   5.561   4.654
 1304TIP3   OH2 3852   1.258   1.967   2.624
 1304TIP3    H1 3853   1.237   1.943   2.534
 1304TIP3    H2 3854   1.350   1.994   2.621
 1305TIP3   OH2 3855   6.915   3.101   2.559
 1305TIP3    H1 3856   6.978   3.131   2.624
 1305TIP3    H2 3857   6.834   3.087   2.608
 1306TIP3   OH2 3858   1.024   5.826   5.232
 1306TIP3    H1 3859   1.119   5.832   5.233
 1306TIP3    H2 3860   1.005   5.738   5.202
 1307TIP3   OH2 3861   4.679   5.744   4.280
 1307TIP3    H1 3862   4.672   5.656   4.244
 1307TIP3    H2 3863   4.690   5.800   4.203
 1308TIP3   OH2 3864   3.189   2.678   4.085
 1308TIP3    H1 3865   3.242   2.704   4.009
 1308TIP3    H2 3866   3.175   2.584   4.074
 1309TIP3   OH2 3867   4.926   7.202   3.026
 1309TIP3    H1 3868   4.897   7.139   3.093
 1309TIP3    H2 3869   4.865   7.188   2.953
 1310TIP3   OH2 3870   3.434   0.289   4.187
 1310TIP3    H1 3871   3.440   0.201   4.224
 1310TIP3    H2 3872   3.483   0.284   4.105
 1311TIP3   OH2 3873   8.235   4.064   3.654
 1311TIP3    H1 3874   8.228   4.145   3.603
 1311TIP3    H2 3875   8.318   4.026   3.628
 1312TIP3   OH2 3876   6.505   6.676   1.323
 1312TIP3    H1 3877   6.520   6.754   1.270
 1312TIP3    H2 3878   6.431   6.698   1.379
 1313TIP3   OH2 3879   0.474   0.984   2.977
 1313TIP3    H1 3880   0.455   1.077   2.960
 1313TIP3    H2 3881   0.455   0.940   2.894
 1314TIP3   OH2 3882   3.825   5.603   6.785
 1314TIP3    H1 3883   3.913   5.625   6.815
 1314TIP3    H2 3884   3.767   5.648   6.847
 1315TIP3   OH2 3885   5.559   4.974   2.905
 1315TIP3    H1 3886   5.601   5.037   2.963
 1315TIP3    H2 3887   5.478   5.017   2.877
 1316TIP3   OH2 3888   7.384   0.695   6.754
 1316TIP3    H1 3889   7.414   0.674   6.842
 1316TIP3    H2 3890   7.300   0.739   6.766
 1317TIP3   OH2 3891   1.647   4.192   4.538
 1317TIP3    H1 3892   1.629   4.148   4.622
 1317TIP3    H2 3893   1.742   4.184   4.527
 1318TIP3   OH2 3894   5.493   6.814   1.529
 1318TIP3    H1 3895   5.417   6.777   1.483
 1318TIP3    H2 3896   5.568   6.789   1.476
 1319TIP3   OH2 3897   1.704   3.303   4.230
 1319TIP3    H1 3898   1.671   3.352   4.155
 1319TIP3    H2 3899   1.637   3.313   4.297
 1320TIP3   OH2 3900   6.382   7.670   0.377
 1320TIP3    H1 3901   6.415   7.592   0.421
 1320TIP3    H2 3902   6.332   7.716   0.445
 1321TIP3   OH2 3903   7.907   1.540   3.881
 1321TIP3    H1 3904   7.964   1.581   3.815
 1321TIP3    H2 3905   7.818   1.556   3.849
 1322TIP3   OH2 3906   3.552   5.283   0.378
 1322TIP3    H1 3907   3.547   5.188   0.368
 1322TIP3    H2 3908   3.626   5.296   0.437
 1323TIP3   OH2 3909   1.442   1.774   1.094
 1323TIP3    H1 3910   1.497   1.810   1.164
 1323TIP3    H2 3911   1.466   1.681   1.091
 1324TIP3   OH2 3912   4.623   4.222   5.592
 1324TIP3    H1 3913   4.691   4.260   5.647
 1324TIP3    H2 3914   4.541   4.242   5.638
 1325TIP3   OH2 3915   3.206   2.926   1.624
 1325TIP3    H1 3916   3.132   2.982   1.599
 1325TIP3    H2 3917   3.172   2.873   1.696
 1326TIP3   OH2 3918   4.912   2.953   0.992
 1326TIP3    H1 3919   4.856   2.878   0.971
 1326TIP3    H2 3920   4.873   3.025   0.943
 1327TIP3   OH2 3921   7.870   5.722   3.286
 1327TIP3    H1 3922   7.800   5.728   3.221
 1327TIP3    H2 3923   7.877   5.811   3.320
 1328TIP3   OH2 3924   1.797   1.604   3.421
 1328TIP3    H1 3925   1.836   1.630   3.505
 1328TIP3    H2 3926   1.821   1.675   3.361
 1329TIP3   OH2 3927   6.095   3.511   4.602
 1329TIP3    H1 3928   6.094   3.496   4.697
 1329TIP3    H2 3929   6.187   3.499   4.577
 1330TIP3   OH2 3930   3.799   3.621   4.804
 1330TIP3    H1 3931   3.890   3.648   4.806
 1330TIP3    H2 3932   3.764   3.658   4.723
 1331TIP3   OH2 3933   4.211   7.701   4.782
 1331TIP3    H1 3934   4.302   7.713   4.756
 1331TIP3    H2 3935   4.194   7.773   4.843
 1332TIP3   OH2 3936   1.810   6.534   1.496
 1332TIP3    H1 3937   1.855   6.573   1.571
 1332TIP3    H2 3938   1.806   6.440   1.516
 1333TIP3   OH2 3939   5.944   6.169   4.578
 1333TIP3    H1 3940   5.885   6.183   4.505
 1333TIP3    H2 3941   5.901   6.105   4.633
 1334TIP3   OH2 3942   2.076   3.383   0.646
 1334TIP3    H1 3943   2.159   3.429   0.645
 1334TIP3    H2 3944   2.019   3.437   0.701
 1335TIP3   OH2 3945   7.773   0.934   2.418
 1335TIP3    H1 3946   7.697   0.931   2.477
 1335TIP3    H2 3947   7.811   1.020   2.433
 1336TIP3   OH2 3948   0.440   4.955   1.917
 1336TIP3    H1 3949   0.372   4.984   1.977
 1336TIP3    H2 3950   0.495   4.897   1.969
 1337TIP3   OH2 3951   4.754   7.508   3.832
 1337TIP3    H1 3952   4.832   7.537   3.784
 1337TIP3    H2 3953   4.780   7.424   3.870
 1338TIP3   OH2 3954   2.085   2.125   6.237
 1338TIP3    H1 3955   2.092   2.073   6.317
 1338TIP3    H2 3956   2.119   2.211   6.260
 1339TIP3   OH2 3957   1.299   0.800   5.751
 1339TIP3    H1 3958   1.385   0.830   5.782
 1339TIP3    H2 3959   1.310   0.706   5.737
 1340TIP3   OH2 3960   6.285   3.440   4.416
 1340TIP3    H1 3961   6.270   3.345   4.415
 1340TIP3    H2 3962   6.378   3.451   4.398
 1341TIP3   OH2 3963   6.729   7.387   3.149
 1341TIP3    H1 3964   6.804   7.335   3.121
 1341TIP3    H2 3965   6.735   7.389   3.244
 1342TIP3   OH2 3966   1.285   5.070   5.185
 1342TIP3    H1 3967   1.233   5.149   5.202
 1342TIP3    H2 3968   1.272   5.052   5.092
 1343TIP3   OH2 3969   2.859   7.397   5.656
 1343TIP3    H1 3970   2.860   7.396   5.752
 1343TIP3    H2 3971   2.922   7.465   5.632
 1344TIP3   OH2 3972   3.216   6.482   1.023
 1344TIP3    H1 3973   3.267   6.411   1.061
 1344TIP3    H2 3974   3.240   6.481   0.930
 1345TIP3   OH2 3975   5.160   6.086   5.758
 1345TIP3    H1 3976   5.174   5.998   5.795
 1345TIP3    H2 3977   5.142   6.070   5.665
 1346TIP3   OH2 3978   2.047   1.664   3.539
 1346TIP3    H1 3979   2.066   1.736   3.480
 1346TIP3    H2 3980   2.127   1.611   3.538
 1347TIP3   OH2 3981   7.768   5.731   0.519
 1347TIP3    H1 3982   7.858   5.759   0.500
 1347TIP3    H2 3983   7.720   5.813   0.533
 1348TIP3   OH2 3984   3.113   7.926   2.569
 1348TIP3    H1 3985   3.191   7.893   2.614
 1348TIP3    H2 3986   3.103   7.869   2.493
 1349TIP3   OH2 3987   4.302   4.887   1.437
 1349TIP3    H1 3988   4.349   4.819   1.485
 1349TIP3    H2 3989   4.344   4.891   1.351
 1350TIP3   OH2 3990   5.575   5.139   3.583
 1350TIP3    H1 3991   5.531   5.078   3.642
 1350TIP3    H2 3992   5.663   5.102   3.572
 1351TIP3   OH2 3993   4.056   7.383   4.505
 1351TIP3    H1 3994   4.143   7.423   4.497
 1351TIP3    H2 3995   4.038   7.383   4.599
 1352TIP3   OH2 3996   2.587   6.988   0.069
 1352TIP3    H1 3997   2.612   6.898   0.086
 1352TIP3    H2 3998   2.550   7.019   0.152
 1353TIP3   OH2 3999   0.866   0.982   2.385
 1353TIP3    H1 4000   0.873   0.919   2.457
 1353TIP3    H2 4001   0.847   1.065   2.428
 1354TIP3   OH2 4002   2.720   0.646   5.001
 1354TIP3    H1 4003   2.790   0.586   4.975
 1354TIP3    H2 4004   2.765   0.727   5.023
 1355TIP3   OH2 4005   3.251   6.471   3.202
 1355TIP3    H1 4006   3.313   6.513   3.144
 1355TIP3    H2 4007   3.287   6.383   3.217
 1356TIP3   OH2 4008   1.988   4.628   6.688
 1356TIP3    H1 4009   2.028   4.571   6.622
 1356TIP3    H2 4010   2.030   4.602   6.770
 1357TIP3   OH2 4011   1.554   4.736   6.540
 1357TIP3    H1 4012   1.641   4.770   6.560
 1357TIP3    H2 4013   1.494   4.798   6.582
 1358TIP3   OH2 4014   7.786   5.677   6.541
 1358TIP3    H1 4015   7.806   5.608   6.477
 1358TIP3    H2 4016   7.854   5.669   6.607
 1359TIP3   OH2 4017   4.123   2.480   2.152
 1359TIP3    H1 4018   4.140   2.442   2.066
 1359TIP3    H2 4019   4.028   2.473   2.163
 1360TIP3   OH2 4020   5.649   1.518   5.473
 1360TIP3    H1 4021   5.686   1.604   5.490
 1360TIP3    H2 4022   5.555   1.528   5.490
 1361TIP3   OH2 4023   6.065   6.195   4.119
 1361TIP3    H1 4024   5.972   6.212   4.102
 1361TIP3    H2 4025   6.104   6.282   4.124
 1362TIP3   OH2 4026   7.261   5.891   0.792
 1362TIP3    H1 4027   7.205   5.838   0.849
 1362TIP3    H2 4028   7.199   5.940   0.737
 1363TIP3   OH2 4029   1.772   4.565   5.711
 1363TIP3    H1 4030   1.759   4.556   5.805
 1363TIP3    H2 4031   1.861   4.534   5.696
 1364TIP3   OH2 4032   7.602   5.840   6.439
 1364TIP3    H1 4033   7.622   5.919   6.489
 1364TIP3    H2 4034   7.659   5.773   6.476
 1365TIP3   OH2 4035   3.558   3.722   5.602
 1365TIP3    H1 4036   3.619   3.738   5.673
 1365TIP3    H2 4037   3.530   3.809   5.573
 1366TIP3   OH2 4038   2.560   5.071   5.854
 1366TIP3    H1 4039   2.563   4.976   5.870
 1366TIP3    H2 4040   2.646   5.102   5.880
 1367TIP3   OH2 4041   1.129   7.538   4.833
 1367TIP3    H1 4042   1.095   7.601   4.769
 1367TIP3    H2 4043   1.170   7.592   4.900
 1368TIP3   OH2 4044   0.665   1.727   4.023
 1368TIP3    H1 4045   0.581   1.696   4.057
 1368TIP3    H2 4046   0.717   1.647   4.013
 1369TIP3   OH2 4047   0.402   0.830   1.318
 1369TIP3    H1 4048   0.427   0.906   1.370
 1369TIP3    H2 4049   0.480   0.808   1.268
 1370TIP3   OH2 4050   4.841   3.524   0.523
 1370TIP3    H1 4051   4.855   3.584   0.450
 1370TIP3    H2 4052   4.894   3.559   0.594
 1371TIP3   OH2 4053   7.827   4.639   4.774
 1371TIP3    H1 4054   7.806   4.604   4.687
 1371TIP3    H2 4055   7.780   4.722   4.778
 1372TIP3   OH2 4056   0.241   7.762   1.627
 1372TIP3    H1 4057   0.205   7.810   1.702
 1372TIP3    H2 4058   0.196   7.800   1.551
 1373TIP3   OH2 4059   3.651   6.528   0.472
 1373TIP3    H1 4060   3.697   6.503   0.391
 1373TIP3    H2 4061   3.639   6.622   0.463
 1374TIP3   OH2 4062   7.350   2.851   4.736
 1374TIP3    H1 4063   7.430   2.800   4.749
 1374TIP3    H2 4064   7.368   2.904   4.658
 1375TIP3   OH2 4065   5.439   2.872   4.124
 1375TIP3    H1 4066   5.351   2.841   4.147
 1375TIP3    H2 4067   5.450   2.953   4.175
 1376TIP3   OH2 4068   6.246   7.858   2.995
 1376TIP3    H1 4069   6.194   7.788   2.954
 1376TIP3    H2 4070   6.236   7.843   3.089
 1377TIP3   OH2 4071   7.688   3.428   4.408
 1377TIP3    H1 4072   7.662   3.519   4.395
 1377TIP3    H2 4073   7.642   3.401   4.487
 1378TIP3   OH2 4074   7.614   4.873   1.401
 1378TIP3    H1 4075   7.587   4.859   1.310
 1378TIP3    H2 4076   7.617   4.785   1.439
 1379TIP3   OH2 4077   8.194   2.304   0.581
 1379TIP3    H1 4078   8.271   2.337   0.626
 1379TIP3    H2 4079   8.133   2.378   0.579
 1380TIP3   OH2 4080   2.276   2.787   3.101
 1380TIP3    H1 4081   2.317   2.703   3.122
 1380TIP3    H2 4082   2.183   2.773   3.118
 1381TIP3   OH2 4083   0.735   5.873   3.598
 1381TIP3    H1 4084   0.789   5.898   3.524
 1381TIP3    H2 4085   0.716   5.781   3.584
 1382TIP3   OH2 4086   2.806   2.207   4.278
 1382TIP3    H1 4087   2.755   2.144   4.329
 1382TIP3    H2 4088   2.892   2.208   4.320
 1383TIP3   OH2 4089   7.138   5.492   0.399
 1383TIP3    H1 4090   7.081   5.455   0.467
 1383TIP3    H2 4091   7.113   5.445   0.319
 1384TIP3   OH2 4092   0.268   4.063   5.858
 1384TIP3    H1 4093   0.194   4.004   5.841
 1384TIP3    H2 4094   0.230   4.150   5.855
 1385TIP3   OH2 4095   3.028   4.231   5.943
 1385TIP3    H1 4096   3.041   4.157   6.002
 1385TIP3    H2 4097   2.970   4.290   5.990
 1386TIP3   OH2 4098   1.139   3.618   2.659
 1386TIP3    H1 4099   1.064   3.677   2.651
 1386TIP3    H2 4100   1.106   3.543   2.708
 1387TIP3   OH2 4101   0.771   2.614   6.457
 1387TIP3    H1 4102   0.726   2.586   6.537
 1387TIP3    H2 4103   0.864   2.614   6.482
 1388TIP3   OH2 4104   7.533   2.592   5.957
 1388TIP3    H1 4105   7.544   2.539   6.036
 1388TIP3    H2 4106   7.565   2.678   5.981
 1389TIP3   OH2 4107   0.302   0.689   3.734
 1389TIP3    H1 4108   0.312   0.681   3.639
 1389TIP3    H2 4109   0.208   0.677   3.749
 1390TIP3   OH2 4110   3.586   3.773   2.047
 1390TIP3    H1 4111   3.577   3.679   2.033
 1390TIP3    H2 4112   3.573   3.812   1.960
 1391TIP3   OH2 4113   3.647   1.162   0.949
 1391TIP3    H1 4114   3.701   1.216   0.892
 1391TIP3    H2 4115   3.573   1.218   0.973
 1392TIP3   OH2 4116   2.127   7.585   0.608
 1392TIP3    H1 4117   2.112   7.547   0.694
 1392TIP3    H2 4118   2.157   7.674   0.626
 1393TIP3   OH2 4119   7.006   4.600   3.885
 1393TIP3    H1 4120   7.017   4.505   3.890
 1393TIP3    H2 4121   6.918   4.616   3.918
 1394TIP3   OH2 4122   8.134   0.154   1.737
 1394TIP3    H1 4123   8.059   0.102   1.710
 1394TIP3    H2 4124   8.207   0.093   1.736
 1395TIP3   OH2 4125   7.719   7.604   3.404
 1395TIP3    H1 4126   7.666   7.531   3.370
 1395TIP3    H2 4127   7.796   7.562   3.441
 1396TIP3   OH2 4128   8.243   4.986   0.907
 1396TIP3    H1 4129   8.226   5.031   0.990
 1396TIP3    H2 4130   8.173   5.015   0.849
 1397TIP3   OH2 4131   1.015   4.776   0.553
 1397TIP3    H1 4132   0.932   4.750   0.594
 1397TIP3    H2 4133   1.065   4.695   0.546
 1398TIP3   OH2 4134   4.838   0.167   5.608
 1398TIP3    H1 4135   4.746   0.172   5.580
 1398TIP3    H2 4136   4.844   0.086   5.657
 1399TIP3   OH2 4137   6.632   1.329   4.648
 1399TIP3    H1 4138   6.664   1.245   4.614
 1399TIP3    H2 4139   6.580   1.306   4.725
 1400TIP3   OH2 4140   8.285   2.055   6.191
 1400TIP3    H1 4141   8.364   2.085   6.236
 1400TIP3    H2 4142   8.272   2.118   6.121
 1401TIP3   OH2 4143   5.430   4.023   3.211
 1401TIP3    H1 4144   5.399   4.085   3.277
 1401TIP3    H2 4145   5.364   4.026   3.142
 1402TIP3   OH2 4146   0.983   7.436   0.380
 1402TIP3    H1 4147   1.026   7.357   0.413
 1402TIP3    H2 4148   1.050   7.480   0.328
 1403TIP3   OH2 4149   7.938   4.738   1.423
 1403TIP3    H1 4150   7.914   4.825   1.454
 1403TIP3    H2 4151   7.857   4.702   1.386
 1404TIP3   OH2 4152   6.870   7.601   1.981
 1404TIP3    H1 4153   6.884   7.516   2.023
 1404TIP3    H2 4154   6.900   7.588   1.891
 1405TIP3   OH2 4155   0.095   4.593   0.557
 1405TIP3    H1 4156   0.043   4.578   0.636
 1405TIP3    H2 4157   0.184   4.565   0.581
 1406TIP3   OH2 4158   7.962   2.293   0.320
 1406TIP3    H1 4159   8.029   2.285   0.252
 1406TIP3    H2 4160   7.996   2.240   0.393
 1407TIP3   OH2 4161   7.536   0.698   5.914
 1407TIP3    H1 4162   7.477   0.760   5.871
 1407TIP3    H2 4163   7.580   0.750   5.981
 1408TIP3   OH2 4164   2.584   2.377   3.417
 1408TIP3    H1 4165   2.521   2.333   3.360
 1408TIP3    H2 4166   2.530   2.426   3.480
 1409TIP3   OH2 4167   7.029   4.876   2.327
 1409TIP3    H1 4168   7.124   4.881   2.327
 1409TIP3    H2 4169   7.001   4.938   2.394
 1410TIP3   OH2 4170   3.909   5.178   0.160
 1410TIP3    H1 4171   3.866   5.114   0.103
 1410TIP3    H2 4172   3.862   5.260   0.144
 1411TIP3   OH2 4173   3.106   6.115   0.298
 1411TIP3    H1 4174   3.102   6.199   0.343
 1411TIP3    H2 4175   3.186   6.073   0.331
 1412TIP3   OH2 4176   1.821   4.503   4.523
 1412TIP3    H1 4177   1.864   4.467   4.446
 1412TIP3    H2 4178   1.846   4.444   4.594
 1413TIP3   OH2 4179   8.166   7.014   2.948
 1413TIP3    H1 4180   8.173   6.976   3.036
 1413TIP3    H2 4181   8.101   7.084   2.957
 1414TIP3   OH2 4182   6.551   5.159   2.473
 1414TIP3    H1 4183   6.492   5.221   2.429
 1414TIP3    H2 4184   6.588   5.106   2.402
 1415TIP3   OH2 4185   8.023   1.323   1.484
 1415TIP3    H1 4186   7.990   1.256   1.424
 1415TIP3    H2 4187   7.947   1.377   1.504
 1416TIP3   OH2 4188   1.958   7.881   6.030
 1416TIP3    H1 4189   1.927   7.826   6.102
 1416TIP3    H2 4190   1.881   7.928   6.000
 1417TIP3   OH2 4191   3.652   5.475   1.269
 1417TIP3    H1 4192   3.622   5.531   1.197
 1417TIP3    H2 4193   3.640   5.386   1.236
 1418TIP3   OH2 4194   1.622   5.394   0.845
 1418TIP3    H1 4195   1.693   5.445   0.805
 1418TIP3    H2 4196   1.661   5.358   0.925
 1419TIP3   OH2 4197   6.176   2.490   0.658
 1419TIP3    H1 4198   6.225   2.493   0.740
 1419TIP3    H2 4199   6.164   2.397   0.640
 1420TIP3   OH2 4200   8.092   3.595   0.393
 1420TIP3    H1 4201   8.140   3.642   0.461
 1420TIP3    H2 4202   8.160   3.564   0.333
 1421TIP3   OH2 4203   5.841   0.793   3.950
 1421TIP3    H1 4204   5.908   0.724   3.958
 1421TIP3    H2 4205   5.882   0.860   3.895
 1422TIP3   OH2 4206   1.687   4.396   6.675
 1422TIP3    H1 4207   1.770   4.377   6.631
 1422TIP3    H2 4208   1.629   4.324   6.650
 1423TIP3   OH2 4209   4.437   5.006   5.640
 1423TIP3    H1 4210   4.509   5.067   5.658
 1423TIP3    H2 4211   4.468   4.921   5.673
 1424TIP3   OH2 4212   6.107   7.459   0.744
 1424TIP3    H1 4213   6.142   7.381   0.787
 1424TIP3    H2 4214   6.022   7.431   0.710
 1425TIP3   OH2 4215   2.203   6.231   3.061
 1425TIP3    H1 4216   2.201   6.138   3.087
 1425TIP3    H2 4217   2.210   6.278   3.144
 1426TIP3   OH2 4218   5.107   2.028   1.806
 1426TIP3    H1 4219   5.057   2.108   1.823
 1426TIP3    H2 4220   5.161   2.017   1.884
 1427TIP3   OH2 4221   5.171   2.082   2.328
 1427TIP3    H1 4222   5.215   2.041   2.254
 1427TIP3    H2 4223   5.094   2.027   2.344
 1428TIP3   OH2 4224   5.516   3.587   3.901
 1428TIP3    H1 4225   5.554   3.503   3.929
 1428TIP3    H2 4226   5.423   3.578   3.919
 1429TIP3   OH2 4227   6.455   5.333   5.947
 1429TIP3    H1 4228   6.385   5.291   5.897
 1429TIP3    H2 4229   6.517   5.263   5.966
 1430TIP3   OH2 4230   3.533   7.037   5.095
 1430TIP3    H1 4231   3.494   6.956   5.129
 1430TIP3    H2 4232   3.575   7.011   5.013
 1431TIP3   OH2 4233   1.740   2.455   5.812
 1431TIP3    H1 4234   1.690   2.536   5.814
 1431TIP3    H2 4235   1.701   2.402   5.882
 1432TIP3   OH2 4236   8.274   2.447   2.528
 1432TIP3    H1 4237   8.256   2.487   2.444
 1432TIP3    H2 4238   8.353   2.394   2.513
 1433TIP3   OH2 4239   5.247   6.548   1.674
 1433TIP3    H1 4240   5.313   6.525   1.740
 1433TIP3    H2 4241   5.240   6.470   1.619
 1434TIP3   OH2 4242   3.739   3.050   2.299
 1434TIP3    H1 4243   3.823   3.048   2.253
 1434TIP3    H2 4244   3.735   3.138   2.338
 1435TIP3   OH2 4245   6.870   6.210   3.601
 1435TIP3    H1 4246   6.952   6.204   3.651
 1435TIP3    H2 4247   6.812   6.261   3.657
 1436TIP3   OH2 4248   3.928   7.322   0.516
 1436TIP3    H1 4249   3.868   7.355   0.450
 1436TIP3    H2 4250   3.978   7.399   0.544
 1437TIP3   OH2 4251   0.256   4.418   4.695
 1437TIP3    H1 4252   0.251   4.451   4.785
 1437TIP3    H2 4253   0.288   4.492   4.643
 1438TIP3   OH2 4254   1.111   5.646   2.482
 1438TIP3    H1 4255   1.081   5.610   2.566
 1438TIP3    H2 4256   1.031   5.672   2.437
 1439TIP3   OH2 4257   6.847   5.110   1.614
 1439TIP3    H1 4258   6.799   5.192   1.601
 1439TIP3    H2 4259   6.790   5.056   1.668
 1440TIP3   OH2 4260   7.250   3.402   0.924
 1440TIP3    H1 4261   7.299   3.323   0.946
 1440TIP3    H2 4262   7.311   3.457   0.875
 1441TIP3   OH2 4263   5.476   3.278   2.832
 1441TIP3    H1 4264   5.474   3.188   2.798
 1441TIP3    H2 4265   5.387   3.294   2.862
 1442TIP3   OH2 4266   0.815   2.910   6.536
 1442TIP3    H1 4267   0.784   2.854   6.465
 1442TIP3    H2 4268   0.839   2.849   6.606
 1443TIP3   OH2 4269   7.642   5.821   0.174
 1443TIP3    H1 4270   7.724   5.774   0.188
 1443TIP3    H2 4271   7.661   5.911   0.201
 1444TIP3   OH2 4272   8.251   6.811   2.342
 1444TIP3    H1 4273   8.156   6.810   2.331
 1444TIP3    H2 4274   8.272   6.902   2.361
 1445TIP3   OH2 4275   1.560   3.031   0.510
 1445TIP3    H1 4276   1.533   3.081   0.433
 1445TIP3    H2 4277   1.601   2.953   0.475
 1446TIP3   OH2 4278   0.992   5.994   2.521
 1446TIP3    H1 4279   1.042   6.076   2.516
 1446TIP3    H2 4280   0.939   6.003   2.601
 1447TIP3   OH2 4281   7.657   6.152   0.902
 1447TIP3    H1 4282   7.563   6.134   0.899
 1447TIP3    H2 4283   7.678   6.155   0.995
 1448TIP3   OH2 4284   2.025   7.920   2.704
 1448TIP3    H1 4285   1.959   7.933   2.637
 1448TIP3    H2 4286   2.073   7.842   2.676
 1449TIP3   OH2 4287   4.358   7.696   3.656
 1449TIP3    H1 4288   4.451   7.706   3.679
 1449TIP3    H2 4289   4.337   7.775   3.606
 1450TIP3   OH2 4290   1.215   1.287   5.086
 1450TIP3    H1 4291   1.207   1.335   5.004
 1450TIP3    H2 4292   1.170   1.205   5.070
 1451TIP3   OH2 4293   5.781   3.612   1.822
 1451TIP3    H1 4294   5.723   3.621   1.746
 1451TIP3    H2 4295   5.730   3.646   1.895
 1452TIP3   OH2 4296   3.508   3.982   0.481
 1452TIP3    H1 4297   3.420   3.987   0.444
 1452TIP3    H2 4298   3.512   4.054   0.544
 1453TIP3   OH2 4299   0.211   4.875   6.594
 1453TIP3    H1 4300   0.169   4.850   6.676
 1453TIP3    H2 4301   0.139   4.896   6.535
 1454TIP3   OH2 4302   2.873   3.103   0.886
 1454TIP3    H1 4303   2.815   3.068   0.954
 1454TIP3    H2 4304   2.872   3.198   0.900
 1455TIP3   OH2 4305   2.925   5.533   4.529
 1455TIP3    H1 4306   3.008   5.502   4.492
 1455TIP3    H2 4307   2.887   5.587   4.459
 1456TIP3   OH2 4308   4.783   4.905   6.452
 1456TIP3    H1 4309   4.724   4.887   6.378
 1456TIP3    H2 4310   4.737   4.871   6.528
 1457TIP3   OH2 4311   7.312   5.759   6.438
 1457TIP3    H1 4312   7.290   5.711   6.518
 1457TIP3    H2 4313   7.407   5.760   6.436
 1458TIP3   OH2 4314   7.506   1.183   2.481
 1458TIP3    H1 4315   7.601   1.195   2.476
 1458TIP3    H2 4316   7.482   1.155   2.393
 1459TIP3   OH2 4317   1.183   0.185   3.687
 1459TIP3    H1 4318   1.262   0.228   3.657
 1459TIP3    H2 4319   1.126   0.256   3.716
 1460TIP3   OH2 4320   8.221   6.148   2.077
 1460TIP3    H1 4321   8.253   6.235   2.053
 1460TIP3    H2 4322   8.278   6.121   2.150
 1461TIP3   OH2 4323   6.263   3.516   3.650
 1461TIP3    H1 4324   6.179   3.501   3.693
 1461TIP3    H2 4325   6.325   3.462   3.701
 1462TIP3   OH2 4326   6.598   3.509   3.966
 1462TIP3    H1 4327   6.521   3.476   3.921
 1462TIP3    H2 4328   6.672   3.475   3.916
 1463TIP3   OH2 4329   3.139   4.704   6.448
 1463TIP3    H1 4330   3.184   4.737   6.526
 1463TIP3    H2 4331   3.054   4.748   6.449
 1464TIP3   OH2 4332   5.032   0.159   4.051
 1464TIP3    H1 4333   5.105   0.098   4.062
 1464TIP3    H2 4334   4.969   0.112   3.996
 1465TIP3   OH2 4335   6.758   1.746   3.086
 1465TIP3    H1 4336   6.756   1.759   2.991
 1465TIP3    H2 4337   6.699   1.672   3.101
 1466TIP3   OH2 4338   6.256   2.212   4.408
 1466TIP3    H1 4339   6.228   2.165   4.330
 1466TIP3    H2 4340   6.189   2.192   4.473
 1467TIP3   OH2 4341   1.145   2.733   0.525
 1467TIP3    H1 4342   1.211   2.682   0.479
 1467TIP3    H2 4343   1.097   2.669   0.578
 1468TIP3   OH2 4344   8.002   1.894   1.089
 1468TIP3    H1 4345   7.910   1.916   1.074
 1468TIP3    H2 4346   8.027   1.946   1.166
 1469TIP3   OH2 4347   4.625   1.088   5.807
 1469TIP3    H1 4348   4.666   1.065   5.891
 1469TIP3    H2 4349   4.540   1.044   5.809
 1470TIP3   OH2 4350   7.328   3.380   2.364
 1470TIP3    H1 4351   7.233   3.393   2.358
 1470TIP3    H2 4352   7.352   3.338   2.282
 1471TIP3   OH2 4353   5.714   5.485   5.480
 1471TIP3    H1 4354   5.698   5.560   5.423
 1471TIP3    H2 4355   5.651   5.419   5.451
 1472TIP3   OH2 4356   7.376   5.052   1.026
 1472TIP3    H1 4357   7.375   5.123   0.962
 1472TIP3    H2 4358   7.406   5.093   1.107
 1473TIP3   OH2 4359   0.317   2.766   0.328
 1473TIP3    H1 4360   0.319   2.713   0.249
 1473TIP3    H2 4361   0.253   2.835   0.309
 1474TIP3   OH2 4362   6.412   0.397   0.652
 1474TIP3    H1 4363   6.339   0.353   0.695
 1474TIP3    H2 4364   6.469   0.325   0.623
 1475TIP3   OH2 4365   5.030   1.257   1.139
 1475TIP3    H1 4366   5.103   1.198   1.123
 1475TIP3    H2 4367   4.952   1.206   1.117
 1476TIP3   OH2 4368   2.252   1.646   6.405
 1476TIP3    H1 4369   2.333   1.639   6.456
 1476TIP3    H2 4370   2.201   1.569   6.431
 1477TIP3   OH2 4371   4.876   6.845   3.833
 1477TIP3    H1 4372   4.908   6.933   3.851
 1477TIP3    H2 4373   4.947   6.805   3.781
 1478TIP3   OH2 4374   1.384   3.031   1.188
 1478TIP3    H1 4375   1.313   3.070   1.137
 1478TIP3    H2 4376   1.435   3.105   1.219
 1479TIP3   OH2 4377   4.979   2.410   0.272
 1479TIP3    H1 4378   4.994   2.495   0.232
 1479TIP3    H2 4379   4.943   2.430   0.359
 1480TIP3   OH2 4380   5.742   6.359   1.823
 1480TIP3    H1 4381   5.648   6.373   1.835
 1480TIP3    H2 4382   5.772   6.324   1.907
 1481TIP3   OH2 4383   0.732   1.947   5.400
 1481TIP3    H1 4384   0.816   1.908   5.375
 1481TIP3    H2 4385   0.669   1.876   5.387
 1482TIP3   OH2 4386   1.914   6.271   1.583
 1482TIP3    H1 4387   1.872   6.198   1.537
 1482TIP3    H2 4388   1.968   6.229   1.650
 1483TIP3   OH2 4389   6.325   3.759   3.540
 1483TIP3    H1 4390   6.286   3.677   3.570
 1483TIP3    H2 4391   6.368   3.795   3.617
 1484TIP3   OH2 4392   8.368   6.597   1.308
 1484TIP3    H1 4393   8.343   6.658   1.239
 1484TIP3    H2 4394   8.353   6.645   1.390
 1485TIP3   OH2 4395   1.261   6.703   0.286
 1485TIP3    H1 4396   1.243   6.790   0.322
 1485TIP3    H2 4397   1.179   6.655   0.299
 1486TIP3   OH2 4398   4.109   2.729   6.428
 1486TIP3    H1 4399   4.145   2.646   6.459
 1486TIP3    H2 4400   4.066   2.767   6.505
 1487TIP3   OH2 4401   1.389   7.720   1.917
 1487TIP3    H1 4402   1.379   7.711   2.012
 1487TIP3    H2 4403   1.335   7.796   1.895
 1488TIP3   OH2 4404   4.276   6.377   1.776
 1488TIP3    H1 4405   4.318   6.447   1.825
 1488TIP3    H2 4406   4.348   6.332   1.732
 1489TIP3   OH2 4407   3.000   3.438   5.987
 1489TIP3    H1 4408   2.995   3.433   6.083
 1489TIP3    H2 4409   3.039   3.524   5.970
 1490TIP3   OH2 4410   2.120   5.317   0.787
 1490TIP3    H1 4411   2.181   5.314   0.713
 1490TIP3    H2 4412   2.176   5.320   0.865
 1491TIP3   OH2 4413   7.764   4.564   0.727
 1491TIP3    H1 4414   7.765   4.656   0.700
 1491TIP3    H2 4415   7.856   4.537   0.721
 1492TIP3   OH2 4416   1.647   5.944   5.066
 1492TIP3    H1 4417   1.617   6.034   5.058
 1492TIP3    H2 4418   1.731   5.942   5.020
 1493TIP3   OH2 4419   2.312   3.189   2.082
 1493TIP3    H1 4420   2.329   3.094   2.083
 1493TIP3    H2 4421   2.379   3.225   2.140
 1494TIP3   OH2 4422   6.888   2.383   5.757
 1494TIP3    H1 4423   6.975   2.353   5.785
 1494TIP3    H2 4424   6.828   2.346   5.821
 1495TIP3   OH2 4425   4.529   4.718   4.833
 1495TIP3    H1 4426   4.468   4.755   4.897
 1495TIP3    H2 4427   4.524   4.777   4.758
 1496TIP3   OH2 4428   5.518   2.791   6.432
 1496TIP3    H1 4429   5.491   2.706   6.398
 1496TIP3    H2 4430   5.587   2.772   6.495
 1497TIP3   OH2 4431   6.806   7.428   2.354
 1497TIP3    H1 4432   6.899   7.428   2.378
 1497TIP3    H2 4433   6.761   7.406   2.436
 1498TIP3   OH2 4434   6.803   5.910   3.133
 1498TIP3    H1 4435   6.751   5.990   3.133
 1498TIP3    H2 4436   6.749   5.846   3.086
 1499TIP3   OH2 4437   3.419   7.361   2.478
 1499TIP3    H1 4438   3.512   7.339   2.480
 1499TIP3    H2 4439   3.400   7.397   2.565
 1500TIP3   OH2 4440   4.387   5.612   3.349
 1500TIP3    H1 4441   4.324   5.683   3.350
 1500TIP3    H2 4442   4.440   5.628   3.271
 1501TIP3   OH2 4443   7.157   4.113   4.592
 1501TIP3    H1 4444   7.115   4.181   4.644
 1501TIP3    H2 4445   7.243   4.102   4.632
 1502TIP3   OH2 4446   7.905   6.122   5.576
 1502TIP3    H1 4447   7.952   6.201   5.601
 1502TIP3    H2 4448   7.835   6.153   5.519
 1503TIP3   OH2 4449   6.351   2.035   3.581
 1503TIP3    H1 4450   6.271   1.983   3.582
 1503TIP3    H2 4451   6.325   2.121   3.614
 1504TIP3   OH2 4452   5.453   3.855   6.534
 1504TIP3    H1 4453   5.492   3.797   6.469
 1504TIP3    H2 4454   5.361   3.829   6.538
 1505TIP3   OH2 4455   0.013   4.531   2.641
 1505TIP3    H1 4456  -0.037   4.612   2.635
 1505TIP3    H2 4457   0.083   4.550   2.703
 1506TIP3   OH2 4458   1.013   0.336   1.012
 1506TIP3    H1 4459   0.969   0.252   1.009
 1506TIP3    H2 4460   0.971   0.383   1.085
 1507TIP3   OH2 4461   8.399   4.714   5.808
 1507TIP3    H1 4462   8.430   4.658   5.737
 1507TIP3    H2 4463   8.326   4.666   5.847
 1508TIP3   OH2 4464   5.320   0.994   6.374
 1508TIP3    H1 4465   5.302   1.031   6.460
 1508TIP3    H2 4466   5.387   0.928   6.390
 1509TIP3   OH2 4467   7.296   1.055   2.638
 1509TIP3    H1 4468   7.350   1.102   2.574
 1509TIP3    H2 4469   7.211   1.099   2.634
 1510TIP3   OH2 4470   6.635   1.157   1.795
 1510TIP3    H1 4471   6.673   1.074   1.825
 1510TIP3    H2 4472   6.695   1.188   1.727
 1511TIP3   OH2 4473   3.622   3.595   4.209
 1511TIP3    H1 4474   3.624   3.500   4.223
 1511TIP3    H2 4475   3.544   3.624   4.256
 1512TIP3   OH2 4476   4.361   3.389   3.030
 1512TIP3    H1 4477   4.298   3.352   2.968
 1512TIP3    H2 4478   4.354   3.333   3.107
 1513TIP3   OH2 4479   5.877   3.980   4.775
 1513TIP3    H1 4480   5.956   3.967   4.827
 1513TIP3    H2 4481   5.867   3.900   4.724
 1514TIP3   OH2 4482   1.255   6.628   4.451
 1514TIP3    H1 4483   1.322   6.696   4.461
 1514TIP3    H2 4484   1.266   6.572   4.528
 1515TIP3   OH2 4485   4.429   3.383   0.245
 1515TIP3    H1 4486   4.481   3.369   0.166
 1515TIP3    H2 4487   4.492   3.409   0.312
 1516TIP3   OH2 4488   1.331   4.480   2.456
 1516TIP3    H1 4489   1.313   4.467   2.549
 1516TIP3    H2 4490   1.381   4.402   2.431
 1517TIP3   OH2 4491   7.586   5.665   5.224
 1517TIP3    H1 4492   7.519   5.603   5.253
 1517TIP3    H2 4493   7.540   5.747   5.212
 1518TIP3   OH2 4494   4.141   3.931   2.329
 1518TIP3    H1 4495   4.235   3.929   2.309
 1518TIP3    H2 4496   4.131   4.006   2.388
 1519TIP3   OH2 4497   7.781   5.524   2.393
 1519TIP3    H1 4498   7.769   5.436   2.430
 1519TIP3    H2 4499   7.718   5.528   2.321
 1520TIP3   OH2 4500   2.234   0.589   0.101
 1520TIP3    H1 4501   2.317   0.570   0.059
 1520TIP3    H2 4502   2.226   0.523   0.170
 1521TIP3   OH2 4503   6.639   4.686   0.622
 1521TIP3    H1 4504   6.661   4.748   0.552
 1521TIP3    H2 4505   6.652   4.736   0.703
 1522TIP3   OH2 4506   6.032   1.419   4.566
 1522TIP3    H1 4507   6.043   1.414   4.661
 1522TIP3    H2 4508   5.964   1.353   4.546
 1523TIP3   OH2 4509   7.640   0.568   6.780
 1523TIP3    H1 4510   7.718   0.563   6.835
 1523TIP3    H2 4511   7.668   0.619   6.704
 1524TIP3   OH2 4512   5.625   3.859   3.309
 1524TIP3    H1 4513   5.596   3.822   3.392
 1524TIP3    H2 4514   5.559   3.926   3.289
 1525TIP3   OH2 4515   2.270   0.924   5.379
 1525TIP3    H1 4516   2.243   1.016   5.374
 1525TIP3    H2 4517   2.319   0.918   5.461
 1526TIP3   OH2 4518   0.180   5.605   6.727
 1526TIP3    H1 4519   0.229   5.524   6.739
 1526TIP3    H2 4520   0.247   5.673   6.717
 1527TIP3   OH2 4521   4.789   6.497   3.401
 1527TIP3    H1 4522   4.721   6.499   3.469
 1527TIP3    H2 4523   4.766   6.422   3.347
 1528TIP3   OH2 4524   6.889   5.482   3.988
 1528TIP3    H1 4525   6.870   5.517   4.075
 1528TIP3    H2 4526   6.977   5.514   3.968
 1529TIP3   OH2 4527   6.090   4.053   1.128
 1529TIP3    H1 4528   6.179   4.018   1.128
 1529TIP3    H2 4529   6.087   4.109   1.206
 1530TIP3   OH2 4530   5.424   7.880   0.313
 1530TIP3    H1 4531   5.369   7.852   0.386
 1530TIP3    H2 4532   5.461   7.963   0.342
 1531TIP3   OH2 4533   0.612   6.456   6.741
 1531TIP3    H1 4534   0.678   6.387   6.738
 1531TIP3    H2 4535   0.556   6.432   6.815
 1532TIP3   OH2 4536   7.911   2.656   3.979
 1532TIP3    H1 4537   7.951   2.710   3.911
 1532TIP3    H2 4538   7.818   2.654   3.956
 1533TIP3   OH2 4539   6.255   0.081   4.591
 1533TIP3    H1 4540   6.337   0.036   4.569
 1533TIP3    H2 4541   6.237   0.138   4.516
 1534TIP3   OH2 4542   2.445   0.255   1.272
 1534TIP3    H1 4543   2.534   0.284   1.292
 1534TIP3    H2 4544   2.439   0.168   1.313
 1535TIP3   OH2 4545   0.753   0.796   4.466
 1535TIP3    H1 4546   0.841   0.817   4.496
 1535TIP3    H2 4547   0.700   0.871   4.491
 1536TIP3   OH2 4548   1.506   3.370   4.418
 1536TIP3    H1 4549   1.429   3.330   4.376
 1536TIP3    H2 4550   1.473   3.451   4.457
 1537TIP3   OH2 4551   8.025   6.676   4.360
 1537TIP3    H1 4552   8.098   6.645   4.307
 1537TIP3    H2 4553   8.024   6.618   4.436
 1538TIP3   OH2 4554   0.759   6.377   2.163
 1538TIP3    H1 4555   0.788   6.323   2.237
 1538TIP3    H2 4556   0.803   6.461   2.178
 1539TIP3   OH2 4557   7.914   3.916   0.062
 1539TIP3    H1 4558   7.890   3.932   0.153
 1539TIP3    H2 4559   8.007   3.940   0.056
 1540TIP3   OH2 4560   1.291   0.654   3.817
 1540TIP3    H1 4561   1.369   0.646   3.763
 1540TIP3    H2 4562   1.233   0.584   3.788
 1541TIP3   OH2 4563   3.936   7.568   1.603
 1541TIP3    H1 4564   3.970   7.556   1.514
 1541TIP3    H2 4565   3.942   7.482   1.643
 1542TIP3   OH2 4566   5.248   5.660   1.017
 1542TIP3    H1 4567   5.228   5.752   1.001
 1542TIP3    H2 4568   5.344   5.658   1.025
 1543TIP3   OH2 4569   0.794   2.384   2.308
 1543TIP3    H1 4570   0.724   2.363   2.246
 1543TIP3    H2 4571   0.801   2.307   2.363
 1544TIP3   OH2 4572   2.218   4.779   3.219
 1544TIP3    H1 4573   2.277   4.826   3.276
 1544TIP3    H2 4574   2.276   4.734   3.156
 1545TIP3   OH2 4575   6.080   3.699   3.239
 1545TIP3    H1 4576   6.054   3.608   3.259
 1545TIP3    H2 4577   6.045   3.750   3.312
 1546TIP3   OH2 4578   1.573   2.346   6.861
 1546TIP3    H1 4579   1.559   2.378   6.772
 1546TIP3    H2 4580   1.487   2.353   6.903
 1547TIP3   OH2 4581   6.670   2.664   0.849
 1547TIP3    H1 4582   6.751   2.614   0.840
 1547TIP3    H2 4583   6.695   2.740   0.903
 1548TIP3   OH2 4584   4.926   4.186   2.600
 1548TIP3    H1 4585   5.005   4.140   2.569
 1548TIP3    H2 4586   4.854   4.131   2.571
 1549TIP3   OH2 4587   6.727   6.208   1.757
 1549TIP3    H1 4588   6.666   6.142   1.723
 1549TIP3    H2 4589   6.719   6.282   1.696
 1550TIP3   OH2 4590   4.766   1.887   6.002
 1550TIP3    H1 4591   4.672   1.896   5.987
 1550TIP3    H2 4592   4.806   1.944   5.937
 1551TIP3   OH2 4593   3.826   2.188   2.136
 1551TIP3    H1 4594   3.774   2.117   2.099
 1551TIP3    H2 4595   3.788   2.268   2.099
 1552TIP3   OH2 4596   0.247   0.312   3.097
 1552TIP3    H1 4597   0.231   0.249   3.027
 1552TIP3    H2 4598   0.339   0.337   3.087
 1553TIP3   OH2 4599   6.887   4.309   4.120
 1553TIP3    H1 4600   6.959   4.351   4.169
 1553TIP3    H2 4601   6.845   4.252   4.184
 1554TIP3   OH2 4602   7.241   0.054   4.161
 1554TIP3    H1 4603   7.194   0.045   4.079
 1554TIP3    H2 4604   7.180   0.020   4.227
 1555TIP3   OH2 4605   3.960   4.427   0.026
 1555TIP3    H1 4606   4.020   4.397  -0.042
 1555TIP3    H2 4607   4.016   4.456   0.098
 1556TIP3   OH2 4608   5.528   7.014   2.081
 1556TIP3    H1 4609   5.444   6.970   2.092
 1556TIP3    H2 4610   5.581   6.953   2.029
 1557TIP3   OH2 4611   4.915   7.538   3.197
 1557TIP3    H1 4612   4.943   7.614   3.248
 1557TIP3    H2 4613   4.885   7.475   3.263
 1558TIP3   OH2 4614   3.105   0.169   1.539
 1558TIP3    H1 4615   3.200   0.154   1.538
 1558TIP3    H2 4616   3.069   0.098   1.487
 1559TIP3   OH2 4617   3.132   1.225   1.159
 1559TIP3    H1 4618   3.059   1.223   1.098
 1559TIP3    H2 4619   3.094   1.256   1.241
 1560TIP3   OH2 4620   1.000   3.362   1.581
 1560TIP3    H1 4621   0.947   3.330   1.653
 1560TIP3    H2 4622   1.025   3.283   1.533
 1561TIP3   OH2 4623   8.246   4.790   2.614
 1561TIP3    H1 4624   8.208   4.799   2.527
 1561TIP3    H2 4625   8.315   4.857   2.618
 1562TIP3   OH2 4626   2.320   3.601   1.772
 1562TIP3    H1 4627   2.271   3.683   1.781
 1562TIP3    H2 4628   2.412   3.626   1.785
 1563TIP3   OH2 4629   1.910   4.565   5.148
 1563TIP3    H1 4630   1.858   4.617   5.087
 1563TIP3    H2 4631   1.858   4.565   5.229
 1564TIP3   OH2 4632   5.802   3.932   1.812
 1564TIP3    H1 4633   5.883   3.889   1.785
 1564TIP3    H2 4634   5.763   3.872   1.876
 1565TIP3   OH2 4635   6.006   7.493   5.268
 1565TIP3    H1 4636   6.030   7.461   5.181
 1565TIP3    H2 4637   6.089   7.508   5.312
 1566TIP3   OH2 4638   7.595   4.944   5.844
 1566TIP3    H1 4639   7.558   4.862   5.811
 1566TIP3    H2 4640   7.533   5.011   5.818
 1567TIP3   OH2 4641   1.474   3.876   1.504
 1567TIP3    H1 4642   1.390   3.851   1.543
 1567TIP3    H2 4643   1.474   3.835   1.418
 1568TIP3   OH2 4644   0.692   1.355   5.889
 1568TIP3    H1 4645   0.632   1.337   5.961
 1568TIP3    H2 4646   0.757   1.415   5.925
 1569TIP3   OH2 4647   4.847   0.279   2.106
 1569TIP3    H1 4648   4.933   0.314   2.129
 1569TIP3    H2 4649   4.794   0.289   2.186
 1570TIP3   OH2 4650   7.523   6.835   2.754
 1570TIP3    H1 4651   7.507   6.930   2.754
 1570TIP3    H2 4652   7.616   6.826   2.733
 1571TIP3   OH2 4653   7.169   0.815   6.835
 1571TIP3    H1 4654   7.092   0.860   6.800
 1571TIP3    H2 4655   7.175   0.844   6.926
 1572TIP3   OH2 4656   1.597   7.160   0.974
 1572TIP3    H1 4657   1.644   7.082   1.001
 1572TIP3    H2 4658   1.608   7.222   1.046
 1573TIP3   OH2 4659   1.840   6.142   3.314
 1573TIP3    H1 4660   1.791   6.214   3.353
 1573TIP3    H2 4661   1.918   6.134   3.368
 1574TIP3   OH2 4662   3.501   6.586   3.053
 1574TIP3    H1 4663   3.581   6.570   3.004
 1574TIP3    H2 4664   3.506   6.679   3.078
 1575TIP3   OH2 4665   4.571   5.512   2.362
 1575TIP3    H1 4666   4.535   5.589   2.408
 1575TIP3    H2 4667   4.643   5.482   2.418
 1576TIP3   OH2 4668   7.246   0.701   3.325
 1576TIP3    H1 4669   7.228   0.772   3.263
 1576TIP3    H2 4670   7.250   0.743   3.411
 1577TIP3   OH2 4671   8.319   3.640   1.942
 1577TIP3    H1 4672   8.392   3.605   1.891
 1577TIP3    H2 4673   8.241   3.622   1.889
 1578TIP3   OH2 4674   0.963   6.981   0.897
 1578TIP3    H1 4675   0.873   6.946   0.896
 1578TIP3    H2 4676   0.988   6.985   0.805
 1579TIP3   OH2 4677   4.535   5.959   4.904
 1579TIP3    H1 4678   4.526   5.985   4.812
 1579TIP3    H2 4679   4.531   6.042   4.953
 1580TIP3   OH2 4680   1.652   0.252   5.616
 1580TIP3    H1 4681   1.644   0.172   5.565
 1580TIP3    H2 4682   1.631   0.322   5.554
 1581TIP3   OH2 4683   3.378   7.522   0.691
 1581TIP3    H1 4684   3.378   7.470   0.771
 1581TIP3    H2 4685   3.469   7.549   0.680
 1582TIP3   OH2 4686   7.699   3.409   0.984
 1582TIP3    H1 4687   7.727   3.337   1.040
 1582TIP3    H2 4688   7.755   3.403   0.907
 1583TIP3   OH2 4689   8.065   3.966   6.565
 1583TIP3    H1 4690   8.097   3.886   6.606
 1583TIP3    H2 4691   8.070   4.033   6.633
 1584TIP3   OH2 4692   3.539   3.321   3.742
 1584TIP3    H1 4693   3.456   3.291   3.705
 1584TIP3    H2 4694   3.589   3.353   3.667
 1585TIP3   OH2 4695   1.973   7.577   1.496
 1585TIP3    H1 4696   2.051   7.591   1.442
 1585TIP3    H2 4697   2.005   7.577   1.586
 1586TIP3   OH2 4698   1.853   0.667   1.975
 1586TIP3    H1 4699   1.867   0.628   2.062
 1586TIP3    H2 4700   1.827   0.593   1.920
 1587TIP3   OH2 4701   0.909   3.518   0.821
 1587TIP3    H1 4702   0.876   3.483   0.738
 1587TIP3    H2 4703   0.999   3.486   0.827
 1588TIP3   OH2 4704   2.076   7.831   1.655
 1588TIP3    H1 4705   2.139   7.866   1.592
 1588TIP3    H2 4706   2.000   7.890   1.649
 1589TIP3   OH2 4707   4.689   6.192   5.450
 1589TIP3    H1 4708   4.624   6.231   5.508
 1589TIP3    H2 4709   4.768   6.186   5.504
 1590TIP3   OH2 4710   6.903   4.639   0.115
 1590TIP3    H1 4711   6.814   4.675   0.119
 1590TIP3    H2 4712   6.926   4.623   0.206
 1591TIP3   OH2 4713   6.500   7.231   3.448
 1591TIP3    H1 4714   6.558   7.155   3.457
 1591TIP3    H2 4715   6.482   7.259   3.538
 1592TIP3   OH2 4716   1.213   7.186   6.656
 1592TIP3    H1 4717   1.176   7.123   6.594
 1592TIP3    H2 4718   1.151   7.258   6.658
 1593TIP3   OH2 4719   4.654   4.945   0.714
 1593TIP3    H1 4720   4.704   5.026   0.705
 1593TIP3    H2 4721   4.671   4.898   0.632
 1594TIP3   OH2 4722   5.971   7.410   3.979
 1594TIP3    H1 4723   6.018   7.462   3.914
 1594TIP3    H2 4724   5.892   7.380   3.934
 1595TIP3   OH2 4725   6.538   2.933   6.452
 1595TIP3    H1 4726   6.519   2.843   6.478
 1595TIP3    H2 4727   6.631   2.945   6.475
 1596TIP3   OH2 4728   4.362   3.016   2.279
 1596TIP3    H1 4729   4.329   3.099   2.314
 1596TIP3    H2 4730   4.325   2.950   2.338
 1597TIP3   OH2 4731   6.632   7.566   6.302
 1597TIP3    H1 4732   6.603   7.538   6.389
 1597TIP3    H2 4733   6.555   7.607   6.263
 1598TIP3   OH2 4734   5.944   7.731   4.957
 1598TIP3    H1 4735   5.926   7.767   5.044
 1598TIP3    H2 4736   5.884   7.779   4.899
 1599TIP3   OH2 4737   4.756   4.432   6.656
 1599TIP3    H1 4738   4.716   4.395   6.735
 1599TIP3    H2 4739   4.693   4.413   6.587
 1600TIP3   OH2 4740   4.473   4.712   2.621
 1600TIP3    H1 4741   4.530   4.645   2.660
 1600TIP3    H2 4742   4.409   4.732   2.689
 1601TIP3   OH2 4743   3.451   1.430   6.004
 1601TIP3    H1 4744   3.511   1.362   5.975
 1601TIP3    H2 4745   3.379   1.383   6.045
 1602TIP3   OH2 4746   4.798   1.506   4.181
 1602TIP3    H1 4747   4.736   1.433   4.181
 1602TIP3    H2 4748   4.753   1.576   4.133
 1603TIP3   OH2 4749   4.865   7.326   3.385
 1603TIP3    H1 4750   4.847   7.317   3.478
 1603TIP3    H2 4751   4.840   7.242   3.346
 1604TIP3   OH2 4752   7.150   3.733   1.891
 1604TIP3    H1 4753   7.141   3.759   1.983
 1604TIP3    H2 4754   7.102   3.799   1.842
 1605TIP3   OH2 4755   3.053   5.273   1.961
 1605TIP3    H1 4756   3.140   5.237   1.945
 1605TIP3    H2 4757   2.992   5.206   1.931
 1606TIP3   OH2 4758   7.742   4.778   1.800
 1606TIP3    H1 4759   7.761   4.684   1.804
 1606TIP3    H2 4760   7.651   4.782   1.772
 1607TIP3   OH2 4761   5.155   7.006   3.655
 1607TIP3    H1 4762   5.161   7.064   3.578
 1607TIP3    H2 4763   5.074   6.958   3.642
 1608TIP3   OH2 4764   4.729   2.060   3.843
 1608TIP3    H1 4765   4.662   2.102   3.789
 1608TIP3    H2 4766   4.788   2.019   3.780
 1609TIP3   OH2 4767   3.587   2.651   3.286
 1609TIP3    H1 4768   3.523   2.707   3.242
 1609TIP3    H2 4769   3.669   2.668   3.240
 1610TIP3   OH2 4770   7.084   4.800   2.875
 1610TIP3    H1 4771   6.993   4.771   2.877
 1610TIP3    H2 4772   7.080   4.893   2.900
 1611TIP3   OH2 4773   6.667   3.293   0.309
 1611TIP3    H1 4774   6.711   3.277   0.226
 1611TIP3    H2 4775   6.732   3.273   0.375
 1612TIP3   OH2 4776   3.629   2.377   5.929
 1612TIP3    H1 4777   3.666   2.413   6.009
 1612TIP3    H2 4778   3.547   2.424   5.917
 1613TIP3   OH2 4779   1.340   6.002   4.525
 1613TIP3    H1 4780   1.310   6.064   4.458
 1613TIP3    H2 4781   1.332   5.916   4.484
 1614TIP3   OH2 4782   0.591   7.779   6.258
 1614TIP3    H1 4783   0.537   7.725   6.315
 1614TIP3    H2 4784   0.678   7.776   6.298
 1615TIP3   OH2 4785   5.367   3.923   1.508
 1615TIP3    H1 4786   5.455   3.960   1.516
 1615TIP3    H2 4787   5.370   3.842   1.559
 1616TIP3   OH2 4788   6.107   3.310   0.685
 1616TIP3    H1 4789   6.139   3.354   0.764
 1616TIP3    H2 4790   6.118   3.374   0.615
 1617TIP3   OH2 4791   6.344   3.269   2.576
 1617TIP3    H1 4792   6.249   3.282   2.572
 1617TIP3    H2 4793   6.363   3.263   2.670
 1618TIP3   OH2 4794   3.418   3.087   5.716
 1618TIP3    H1 4795   3.435   3.107   5.624
 1618TIP3    H2 4796   3.373   3.003   5.714
 1619TIP3   OH2 4797   0.538   2.299   4.084
 1619TIP3    H1 4798   0.541   2.351   4.004
 1619TIP3    H2 4799   0.449   2.312   4.118
 1620TIP3   OH2 4800   7.097   1.347   2.311
 1620TIP3    H1 4801   7.161   1.319   2.246
 1620TIP3    H2 4802   7.043   1.412   2.266
 1621TIP3   OH2 4803   7.616   6.641   1.156
 1621TIP3    H1 4804   7.625   6.571   1.220
 1621TIP3    H2 4805   7.585   6.598   1.077
 1622TIP3   OH2 4806   4.356   4.401   2.895
 1622TIP3    H1 4807   4.373   4.332   2.959
 1622TIP3    H2 4808   4.304   4.466   2.942
 1623TIP3   OH2 4809   7.317   2.077   1.108
 1623TIP3    H1 4810   7.276   2.133   1.043
 1623TIP3    H2 4811   7.244   2.030   1.148
 1624TIP3   OH2 4812   2.312   0.661   4.859
 1624TIP3    H1 4813   2.347   0.600   4.794
 1624TIP3    H2 4814   2.344   0.628   4.943
 1625TIP3   OH2 4815   0.080   0.937   4.277
 1625TIP3    H1 4816   0.022   0.994   4.328
 1625TIP3    H2 4817   0.152   0.917   4.337
 1626TIP3   OH2 4818   6.397   2.175   5.292
 1626TIP3    H1 4819   6.488   2.204   5.299
 1626TIP3    H2 4820   6.346   2.255   5.299
 1627TIP3   OH2 4821   3.400   6.382   4.886
 1627TIP3    H1 4822   3.429   6.424   4.967
 1627TIP3    H2 4823   3.305   6.383   4.892
 1628TIP3   OH2 4824   7.789   0.278   5.323
 1628TIP3    H1 4825   7.867   0.267   5.270
 1628TIP3    H2 4826   7.725   0.216   5.286
 1629TIP3   OH2 4827   7.980   0.865   6.453
 1629TIP3    H1 4828   8.062   0.820   6.474
 1629TIP3    H2 4829   7.992   0.953   6.487
 1630TIP3   OH2 4830   1.945   4.510   3.244
 1630TIP3    H1 4831   2.026   4.551   3.212
 1630TIP3    H2 4832   1.875   4.568   3.215
 1631TIP3   OH2 4833   2.751   4.640   0.316
 1631TIP3    H1 4834   2.657   4.656   0.310
 1631TIP3    H2 4835   2.764   4.605   0.404
 1632TIP3   OH2 4836   2.845   3.791   0.850
 1632TIP3    H1 4837   2.861   3.813   0.942
 1632TIP3    H2 4838   2.789   3.713   0.853
 1633TIP3   OH2 4839   1.956   5.049   6.551
 1633TIP3    H1 4840   1.954   5.070   6.458
 1633TIP3    H2 4841   1.951   5.133   6.596
 1634TIP3   OH2 4842   5.953   3.491   4.345
 1634TIP3    H1 4843   5.981   3.536   4.265
 1634TIP3    H2 4844   6.024   3.504   4.407
 1635TIP3   OH2 4845   5.460   4.295   5.617
 1635TIP3    H1 4846   5.388   4.251   5.662
 1635TIP3    H2 4847   5.420   4.339   5.543
 1636TIP3   OH2 4848   4.422   5.409   5.707
 1636TIP3    H1 4849   4.444   5.363   5.788
 1636TIP3    H2 4850   4.327   5.422   5.712
 1637TIP3   OH2 4851   1.932   0.355   2.690
 1637TIP3    H1 4852   1.890   0.297   2.754
 1637TIP3    H2 4853   1.982   0.296   2.633
 1638TIP3   OH2 4854   5.644   5.386   4.721
 1638TIP3    H1 4855   5.719   5.327   4.720
 1638TIP3    H2 4856   5.569   5.329   4.708
 1639TIP3   OH2 4857   3.643   6.562   3.494
 1639TIP3    H1 4858   3.574   6.496   3.494
 1639TIP3    H2 4859   3.599   6.643   3.468
 1640TIP3   OH2 4860   1.828   4.744   2.299
 1640TIP3    H1 4861   1.870   4.682   2.240
 1640TIP3    H2 4862   1.791   4.811   2.241
 1641TIP3   OH2 4863   5.294   7.856   5.581
 1641TIP3    H1 4864   5.327   7.788   5.640
 1641TIP3    H2 4865   5.339   7.840   5.498
 1642TIP3   OH2 4866   2.240   2.785   1.641
 1642TIP3    H1 4867   2.151   2.813   1.660
 1642TIP3    H2 4868   2.236   2.690   1.640
 1643TIP3   OH2 4869   4.469   6.349   6.628
 1643TIP3    H1 4870   4.490   6.365   6.720
 1643TIP3    H2 4871   4.536   6.288   6.598
 1644TIP3   OH2 4872   6.354   5.398   3.228
 1644TIP3    H1 4873   6.286   5.416   3.163
 1644TIP3    H2 4874   6.380   5.485   3.260
 1645TIP3   OH2 4875   6.840   3.229   2.965
 1645TIP3    H1 4876   6.918   3.254   3.015
 1645TIP3    H2 4877   6.794   3.311   2.949
 1646TIP3   OH2 4878   0.994   3.412   2.808
 1646TIP3    H1 4879   0.931   3.421   2.879
 1646TIP3    H2 4880   0.951   3.354   2.745
 1647TIP3   OH2 4881   7.557   1.689   0.002
 1647TIP3    H1 4882   7.518   1.603  -0.015
 1647TIP3    H2 4883   7.508   1.723   0.076
 1648TIP3   OH2 4884   7.786   1.797   5.280
 1648TIP3    H1 4885   7.703   1.788   5.234
 1648TIP3    H2 4886   7.794   1.718   5.333
 1649TIP3   OH2 4887   1.129   4.976   0.402
 1649TIP3    H1 4888   1.066   4.920   0.448
 1649TIP3    H2 4889   1.180   5.017   0.472
 1650TIP3   OH2 4890   6.385   5.386   2.409
 1650TIP3    H1 4891   6.367   5.393   2.316
 1650TIP3    H2 4892   6.300   5.396   2.451
 1651TIP3   OH2 4893   2.448   6.909   0.328
 1651TIP3    H1 4894   2.454   7.000   0.356
 1651TIP3    H2 4895   2.469   6.859   0.407
 1652TIP3   OH2 4896   7.242   0.039   5.339
 1652TIP3    H1 4897   7.202  -0.029   5.394
 1652TIP3    H2 4898   7.215   0.017   5.250
 1653TIP3   OH2 4899   3.250   7.010   6.273
 1653TIP3    H1 4900   3.291   6.933   6.234
 1653TIP3    H2 4901   3.170   7.024   6.223
 1654TIP3   OH2 4902   0.291   7.610   2.256
 1654TIP3    H1 4903   0.280   7.677   2.324
 1654TIP3    H2 4904   0.237   7.640   2.183
 1655TIP3   OH2 4905   7.683   7.882   5.360
 1655TIP3    H1 4906   7.716   7.807   5.312
 1655TIP3    H2 4907   7.761   7.923   5.399
 1656TIP3   OH2 4908   0.315   2.866   1.671
 1656TIP3    H1 4909   0.237   2.887   1.722
 1656TIP3    H2 4910   0.386   2.911   1.717
 1657TIP3   OH2 4911   2.975   7.118   1.980
 1657TIP3    H1 4912   2.901   7.141   1.924
 1657TIP3    H2 4913   2.985   7.024   1.967
 1658TIP3   OH2 4914   7.848   3.370   2.397
 1658TIP3    H1 4915   7.866   3.463   2.383
 1658TIP3    H2 4916   7.900   3.346   2.473
 1659TIP3   OH2 4917   4.942   5.067   6.312
 1659TIP3    H1 4918   4.914   5.000   6.374
 1659TIP3    H2 4919   5.035   5.080   6.332
 1660TIP3   OH2 4920   3.380   3.593   3.318
 1660TIP3    H1 4921   3.438   3.636   3.382
 1660TIP3    H2 4922   3.344   3.518   3.365
 1661TIP3   OH2 4923   3.986   5.233   5.526
 1661TIP3    H1 4924   3.926   5.235   5.452
 1661TIP3    H2 4925   4.046   5.306   5.510
 1662TIP3   OH2 4926   2.901   1.512   5.133
 1662TIP3    H1 4927   2.951   1.569   5.192
 1662TIP3    H2 4928   2.893   1.429   5.181
 1663TIP3   OH2 4929   5.452   7.867   5.041
 1663TIP3    H1 4930   5.395   7.838   4.969
 1663TIP3    H2 4931   5.486   7.952   5.013
 1664TIP3   OH2 4932   7.018   5.299   0.600
 1664TIP3    H1 4933   6.979   5.364   0.658
 1664TIP3    H2 4934   6.944   5.265   0.549
 1665TIP3   OH2 4935   6.787   7.847   0.684
 1665TIP3    H1 4936   6.817   7.873   0.597
 1665TIP3    H2 4937   6.813   7.755   0.691
 1666TIP3   OH2 4938   7.526   1.944   3.195
 1666TIP3    H1 4939   7.492   1.920   3.109
 1666TIP3    H2 4940   7.621   1.949   3.183
 1667TIP3   OH2 4941   5.314   6.492   4.388
 1667TIP3    H1 4942   5.314   6.398   4.367
 1667TIP3    H2 4943   5.285   6.534   4.308
 1668TIP3   OH2 4944   7.068   0.776   1.774
 1668TIP3    H1 4945   7.134   0.770   1.705
 1668TIP3    H2 4946   7.037   0.687   1.786
 1669TIP3   OH2 4947   0.028   2.771   5.139
 1669TIP3    H1 4948  -0.020   2.817   5.208
 1669TIP3    H2 4949   0.118   2.801   5.149
 1670TIP3   OH2 4950   6.943   0.098   5.853
 1670TIP3    H1 4951   6.882   0.025   5.843
 1670TIP3    H2 4952   6.887   0.175   5.859
 1671TIP3   OH2 4953   3.236   2.177   4.188
 1671TIP3    H1 4954   3.254   2.175   4.282
 1671TIP3    H2 4955   3.185   2.256   4.174
 1672TIP3   OH2 4956   4.185   1.769   4.438
 1672TIP3    H1 4957   4.190   1.780   4.343
 1672TIP3    H2 4958   4.246   1.834   4.473
 1673TIP3   OH2 4959   8.271   1.772   1.409
 1673TIP3    H1 4960   8.343   1.737   1.357
 1673TIP3    H2 4961   8.303   1.857   1.441
 1674TIP3   OH2 4962   0.537   2.380   5.012
 1674TIP3    H1 4963   0.519   2.289   5.033
 1674TIP3    H2 4964   0.631   2.391   5.031
 1675TIP3   OH2 4965   3.154   1.617   1.119
 1675TIP3    H1 4966   3.171   1.586   1.030
 1675TIP3    H2 4967   3.062   1.643   1.118
 1676TIP3   OH2 4968   4.944   0.414   5.571
 1676TIP3    H1 4969   4.990   0.422   5.654
 1676TIP3    H2 4970   4.904   0.327   5.574
 1677TIP3   OH2 4971   0.769   1.711   1.638
 1677TIP3    H1 4972   0.845   1.703   1.580
 1677TIP3    H2 4973   0.695   1.726   1.579
 1678TIP3   OH2 4974   6.702   4.604   4.166
 1678TIP3    H1 4975   6.753   4.677   4.200
 1678TIP3    H2 4976   6.699   4.619   4.072
 1679TIP3   OH2 4977   2.095   6.292   3.913
 1679TIP3    H1 4978   2.022   6.347   3.942
 1679TIP3    H2 4979   2.112   6.233   3.987
 1680TIP3   OH2 4980   3.248   0.986   1.324
 1680TIP3    H1 4981   3.195   1.043   1.269
 1680TIP3    H2 4982   3.185   0.945   1.383
 1681TIP3   OH2 4983   2.038   1.306   3.080
 1681TIP3    H1 4984   1.993   1.342   3.157
 1681TIP3    H2 4985   2.081   1.227   3.112
 1682TIP3   OH2 4986   6.738   1.256   4.020
 1682TIP3    H1 4987   6.771   1.314   4.089
 1682TIP3    H2 4988   6.653   1.226   4.053
 1683TIP3   OH2 4989   1.549   6.489   3.152
 1683TIP3    H1 4990   1.580   6.399   3.149
 1683TIP3    H2 4991   1.458   6.482   3.183
 1684TIP3   OH2 4992   5.985   3.099   1.393
 1684TIP3    H1 4993   6.009   3.189   1.371
 1684TIP3    H2 4994   6.020   3.086   1.481
 1685TIP3   OH2 4995   4.475   2.226   1.715
 1685TIP3    H1 4996   4.513   2.213   1.801
 1685TIP3    H2 4997   4.389   2.265   1.733
 1686TIP3   OH2 4998   7.583   5.158   4.089
 1686TIP3    H1 4999   7.629   5.074   4.090
 1686TIP3    H2 5000   7.498   5.140   4.128
 1687TIP3   OH2 5001   2.656   4.089   4.862
 1687TIP3    H1 5002   2.671   4.102   4.956
 1687TIP3    H2 5003   2.744   4.091   4.824
 1688TIP3   OH2 5004   5.215   2.858   3.041
 1688TIP3    H1 5005   5.219   2.762   3.034
 1688TIP3    H2 5006   5.195   2.875   3.133
 1689TIP3   OH2 5007   3.018   7.106   4.624
 1689TIP3    H1 5008   3.036   7.174   4.688
 1689TIP3    H2 5009   2.979   7.153   4.549
 1690TIP3   OH2 5010   2.469   4.290   6.131
 1690TIP3    H1 5011   2.463   4.254   6.220
 1690TIP3    H2 5012   2.390   4.259   6.087
 1691TIP3   OH2 5013   3.144   4.091   1.807
 1691TIP3    H1 5014   3.196   4.097   1.887
 1691TIP3    H2 5015   3.176   4.163   1.752
 1692TIP3   OH2 5016   3.706   7.513   3.494
 1692TIP3    H1 5017   3.791   7.552   3.476
 1692TIP3    H2 5018   3.662   7.577   3.551
 1693TIP3   OH2 5019   2.171   4.845   4.042
 1693TIP3    H1 5020   2.197   4.775   3.983
 1693TIP3    H2 5021   2.084   4.871   4.012
 1694TIP3   OH2 5022   7.687   6.299   0.100
 1694TIP3    H1 5023   7.662   6.278   0.010
 1694TIP3    H2 5024   7.608   6.335   0.139
 1695TIP3   OH2 5025   2.513   2.662   3.966
 1695TIP3    H1 5026   2.441   2.624   4.016
 1695TIP3    H2 5027   2.493   2.756   3.962
 1696TIP3   OH2 5028   4.838   0.307   0.420
 1696TIP3    H1 5029   4.812   0.295   0.329
 1696TIP3    H2 5030   4.927   0.342   0.415
 1697TIP3   OH2 5031   4.732   5.716   1.602
 1697TIP3    H1 5032   4.752   5.789   1.544
 1697TIP3    H2 5033   4.784   5.643   1.568
 1698TIP3   OH2 5034   3.990   4.273   1.187
 1698TIP3    H1 5035   4.070   4.313   1.221
 1698TIP3    H2 5036   3.977   4.195   1.241
 1699TIP3   OH2 5037   3.585   4.276   0.146
 1699TIP3    H1 5038   3.668   4.249   0.185
 1699TIP3    H2 5039   3.610   4.319   0.064
 1700TIP3   OH2 5040   4.214   1.521   4.562
 1700TIP3    H1 5041   4.279   1.555   4.624
 1700TIP3    H2 5042   4.189   1.597   4.509
 1701TIP3   OH2 5043   4.661   4.771   0.483
 1701TIP3    H1 5044   4.739   4.793   0.432
 1701TIP3    H2 5045   4.632   4.687   0.448
 1702TIP3   OH2 5046   3.666   4.638   3.418
 1702TIP3    H1 5047   3.718   4.567   3.381
 1702TIP3    H2 5048   3.576   4.607   3.412
 1703TIP3   OH2 5049   0.403   2.519   2.736
 1703TIP3    H1 5050   0.445   2.592   2.689
 1703TIP3    H2 5051   0.345   2.480   2.671
 1704TIP3   OH2 5052   7.894   6.892   3.968
 1704TIP3    H1 5053   7.919   6.801   3.982
 1704TIP3    H2 5054   7.948   6.941   4.030
 1705TIP3   OH2 5055   5.454   2.795   2.463
 1705TIP3    H1 5056   5.527   2.826   2.409
 1705TIP3    H2 5057   5.494   2.739   2.529
 1706TIP3   OH2 5058   6.547   6.312   5.222
 1706TIP3    H1 5059   6.474   6.292   5.281
 1706TIP3    H2 5060   6.555   6.233   5.167
 1707TIP3   OH2 5061   1.105   1.011   5.406
 1707TIP3    H1 5062   1.013   1.009   5.378
 1707TIP3    H2 5063   1.100   1.022   5.501
 1708TIP3   OH2 5064   2.651   1.477   6.380
 1708TIP3    H1 5065   2.707   1.533   6.325
 1708TIP3    H2 5066   2.693   1.392   6.377
 1709TIP3   OH2 5067   0.465   1.469   4.969
 1709TIP3    H1 5068   0.392   1.497   5.025
 1709TIP3    H2 5069   0.481   1.378   4.994
 1710TIP3   OH2 5070   7.866   2.986   5.556
 1710TIP3    H1 5071   7.948   3.032   5.576
 1710TIP3    H2 5072   7.888   2.893   5.564
 1711TIP3   OH2 5073   6.439   5.664   4.129
 1711TIP3    H1 5074   6.366   5.726   4.126
 1711TIP3    H2 5075   6.473   5.672   4.218
 1712TIP3   OH2 5076   7.270   4.502   0.585
 1712TIP3    H1 5077   7.206   4.571   0.602
 1712TIP3    H2 5078   7.287   4.507   0.491
 1713TIP3   OH2 5079   6.919   5.680   6.522
 1713TIP3    H1 5080   6.872   5.750   6.475
 1713TIP3    H2 5081   6.903   5.602   6.469
 1714TIP3   OH2 5082   3.623   2.980   4.285
 1714TIP3    H1 5083   3.565   2.962   4.211
 1714TIP3    H2 5084   3.575   2.946   4.361
 1715TIP3   OH2 5085   8.323   5.318   6.677
 1715TIP3    H1 5086   8.398   5.259   6.673
 1715TIP3    H2 5087   8.284   5.302   6.763
 1716TIP3   OH2 5088   5.391   0.123   5.240
 1716TIP3    H1 5089   5.339   0.059   5.287
 1716TIP3    H2 5090   5.384   0.096   5.148
 1717TIP3   OH2 5091   3.447   1.559   3.167
 1717TIP3    H1 5092   3.388   1.550   3.242
 1717TIP3    H2 5093   3.455   1.654   3.155
 1718TIP3   OH2 5094   6.347   4.335   3.302
 1718TIP3    H1 5095   6.428   4.385   3.289
 1718TIP3    H2 5096   6.285   4.398   3.338
 1719TIP3   OH2 5097   4.945   5.744   5.940
 1719TIP3    H1 5098   4.979   5.662   5.974
 1719TIP3    H2 5099   5.023   5.797   5.921
 1720TIP3   OH2 5100   4.596   5.258   4.123
 1720TIP3    H1 5101   4.532   5.189   4.107
 1720TIP3    H2 5102   4.642   5.231   4.203
 1721TIP3   OH2 5103   5.652   6.299   1.031
 1721TIP3    H1 5104   5.571   6.341   1.058
 1721TIP3    H2 5105   5.693   6.361   0.971
 1722TIP3   OH2 5106   6.000   5.328   3.754
 1722TIP3    H1 5107   5.973   5.280   3.833
 1722TIP3    H2 5108   5.926   5.319   3.694
 1723TIP3   OH2 5109   5.973   5.269   2.491
 1723TIP3    H1 5110   6.054   5.233   2.526
 1723TIP3    H2 5111   5.980   5.257   2.396
 1724TIP3   OH2 5112   1.307   7.009   3.927
 1724TIP3    H1 5113   1.240   7.076   3.946
 1724TIP3    H2 5114   1.324   6.968   4.011
 1725TIP3   OH2 5115   5.023   7.678   1.528
 1725TIP3    H1 5116   4.932   7.673   1.558
 1725TIP3    H2 5117   5.060   7.593   1.550
 1726TIP3   OH2 5118   1.423   1.131   2.037
 1726TIP3    H1 5119   1.356   1.179   2.085
 1726TIP3    H2 5120   1.497   1.126   2.097
 1727TIP3   OH2 5121   5.025   4.297   3.545
 1727TIP3    H1 5122   5.028   4.388   3.514
 1727TIP3    H2 5123   5.110   4.282   3.585
 1728TIP3   OH2 5124   7.817   3.501   3.673
 1728TIP3    H1 5125   7.862   3.417   3.666
 1728TIP3    H2 5126   7.779   3.501   3.761
 1729TIP3   OH2 5127   2.539   2.911   0.572
 1729TIP3    H1 5128   2.469   2.925   0.636
 1729TIP3    H2 5129   2.567   3.000   0.548
 1730TIP3   OH2 5130   2.682   3.430   2.061
 1730TIP3    H1 5131   2.730   3.409   1.980
 1730TIP3    H2 5132   2.745   3.479   2.114
 1731TIP3   OH2 5133   5.721   1.824   0.411
 1731TIP3    H1 5134   5.649   1.819   0.348
 1731TIP3    H2 5135   5.725   1.736   0.449
 1732TIP3   OH2 5136   1.520   6.894   3.794
 1732TIP3    H1 5137   1.570   6.975   3.789
 1732TIP3    H2 5138   1.436   6.919   3.831
 1733TIP3   OH2 5139   5.012   0.663   5.018
 1733TIP3    H1 5140   5.098   0.668   4.975
 1733TIP3    H2 5141   5.017   0.583   5.071
 1734TIP3   OH2 5142   1.515   7.794   2.787
 1734TIP3    H1 5143   1.430   7.831   2.811
 1734TIP3    H2 5144   1.548   7.754   2.868
 1735TIP3   OH2 5145   5.935   6.856   4.194
 1735TIP3    H1 5146   5.934   6.911   4.115
 1735TIP3    H2 5147   5.862   6.796   4.182
 1736TIP3   OH2 5148   5.040   7.810   5.474
 1736TIP3    H1 5149   4.994   7.861   5.541
 1736TIP3    H2 5150   5.121   7.783   5.516
 1737TIP3   OH2 5151   2.210   5.201   0.345
 1737TIP3    H1 5152   2.181   5.291   0.329
 1737TIP3    H2 5153   2.295   5.210   0.388
 1738TIP3   OH2 5154   2.258   1.390   0.230
 1738TIP3    H1 5155   2.244   1.322   0.296
 1738TIP3    H2 5156   2.231   1.350   0.147
 1739TIP3   OH2 5157   1.132   3.669   2.133
 1739TIP3    H1 5158   1.069   3.740   2.147
 1739TIP3    H2 5159   1.110   3.604   2.199
 1740TIP3   OH2 5160   4.135   7.252   3.840
 1740TIP3    H1 5161   4.162   7.221   3.754
 1740TIP3    H2 5162   4.184   7.333   3.853
 1741TIP3   OH2 5163   0.077   4.957   0.689
 1741TIP3    H1 5164   0.028   5.039   0.687
 1741TIP3    H2 5165   0.022   4.894   0.641
 1742TIP3   OH2 5166   7.480   2.833   1.580
 1742TIP3    H1 5167   7.459   2.916   1.536
 1742TIP3    H2 5168   7.401   2.811   1.629
 1743TIP3   OH2 5169   3.008   7.888   0.561
 1743TIP3    H1 5170   3.064   7.811   0.548
 1743TIP3    H2 5171   3.034   7.923   0.646
 1744TIP3   OH2 5172   3.657   2.725   5.441
 1744TIP3    H1 5173   3.748   2.696   5.435
 1744TIP3    H2 5174   3.630   2.698   5.529
 1745TIP3   OH2 5175   2.976   0.744   0.657
 1745TIP3    H1 5176   3.002   0.698   0.736
 1745TIP3    H2 5177   2.947   0.830   0.688
 1746TIP3   OH2 5178   6.378   7.889   6.382
 1746TIP3    H1 5179   6.341   7.900   6.470
 1746TIP3    H2 5180   6.463   7.933   6.386
 1747TIP3   OH2 5181   6.863   0.266   4.784
 1747TIP3    H1 5182   6.860   0.355   4.749
 1747TIP3    H2 5183   6.934   0.267   4.848
 1748TIP3   OH2 5184   6.132   2.913   6.290
 1748TIP3    H1 5185   6.188   2.837   6.305
 1748TIP3    H2 5186   6.175   2.984   6.337
 1749TIP3   OH2 5187   4.356   7.281   1.881
 1749TIP3    H1 5188   4.415   7.251   1.812
 1749TIP3    H2 5189   4.271   7.289   1.838
 1750TIP3   OH2 5190   5.188   6.970   1.039
 1750TIP3    H1 5191   5.198   6.975   1.134
 1750TIP3    H2 5192   5.222   7.053   1.006
 1751TIP3   OH2 5193   6.308   5.211   4.688
 1751TIP3    H1 5194   6.307   5.286   4.629
 1751TIP3    H2 5195   6.306   5.135   4.630
 1752TIP3   OH2 5196   3.595   7.743   2.690
 1752TIP3    H1 5197   3.681   7.746   2.732
 1752TIP3    H2 5198   3.534   7.727   2.762
 1753TIP3   OH2 5199   3.199   2.075   3.936
 1753TIP3    H1 5200   3.236   2.152   3.893
 1753TIP3    H2 5201   3.237   2.077   4.025
 1754TIP3   OH2 5202   0.954   3.861   1.719
 1754TIP3    H1 5203   0.889   3.899   1.660
 1754TIP3    H2 5204   0.905   3.798   1.772
 1755TIP3   OH2 5205   5.563   7.169   5.275
 1755TIP3    H1 5206   5.613   7.251   5.282
 1755TIP3    H2 5207   5.529   7.170   5.185
 1756TIP3   OH2 5208   7.087   0.332   0.708
 1756TIP3    H1 5209   7.173   0.372   0.695
 1756TIP3    H2 5210   7.046   0.385   0.777
 1757TIP3   OH2 5211   8.233   3.250   3.992
 1757TIP3    H1 5212   8.308   3.278   3.939
 1757TIP3    H2 5213   8.207   3.329   4.039
 1758TIP3   OH2 5214   5.736   0.479   2.206
 1758TIP3    H1 5215   5.816   0.515   2.170
 1758TIP3    H2 5216   5.740   0.499   2.299
 1759TIP3   OH2 5217   2.802   5.728   4.931
 1759TIP3    H1 5218   2.768   5.776   4.855
 1759TIP3    H2 5219   2.724   5.705   4.982
 1760TIP3   OH2 5220   7.122   7.726   1.897
 1760TIP3    H1 5221   7.142   7.642   1.856
 1760TIP3    H2 5222   7.199   7.744   1.952
 1761TIP3   OH2 5223   1.434   4.443   4.077
 1761TIP3    H1 5224   1.448   4.400   3.993
 1761TIP3    H2 5225   1.448   4.374   4.142
 1762TIP3   OH2 5226   1.688   1.109   6.558
 1762TIP3    H1 5227   1.618   1.099   6.493
 1762TIP3    H2 5228   1.704   1.021   6.590
 1763TIP3   OH2 5229   0.635   1.356   1.258
 1763TIP3    H1 5230   0.672   1.268   1.255
 1763TIP3    H2 5231   0.707   1.411   1.289
 1764TIP3   OH2 5232   7.826   5.844   3.019
 1764TIP3    H1 5233   7.766   5.901   2.970
 1764TIP3    H2 5234   7.913   5.874   2.992
 1765TIP3   OH2 5235   6.736   7.703   3.820
 1765TIP3    H1 5236   6.803   7.771   3.812
 1765TIP3    H2 5237   6.671   7.740   3.879
 1766TIP3   OH2 5238   3.954   6.879   6.420
 1766TIP3    H1 5239   3.975   6.889   6.513
 1766TIP3    H2 5240   3.927   6.787   6.411
 1767TIP3   OH2 5241   4.176   5.804   1.400
 1767TIP3    H1 5242   4.128   5.745   1.459
 1767TIP3    H2 5243   4.116   5.877   1.386
 1768TIP3   OH2 5244   8.337   5.566   6.849
 1768TIP3    H1 5245   8.425   5.572   6.812
 1768TIP3    H2 5246   8.330   5.476   6.881
 1769TIP3   OH2 5247   6.863   7.352   5.396
 1769TIP3    H1 5248   6.852   7.259   5.414
 1769TIP3    H2 5249   6.898   7.355   5.307
 1770TIP3   OH2 5250   5.159   6.683   5.971
 1770TIP3    H1 5251   5.245   6.640   5.965
 1770TIP3    H2 5252   5.104   6.637   5.908
 1771TIP3   OH2 5253   2.183   4.085   2.124
 1771TIP3    H1 5254   2.137   4.163   2.094
 1771TIP3    H2 5255   2.152   4.016   2.065
 1772TIP3   OH2 5256   4.029   5.373   1.347
 1772TIP3    H1 5257   4.071   5.291   1.371
 1772TIP3    H2 5258   4.050   5.433   1.419
 1773TIP3   OH2 5259   1.735   6.985   0.575
 1773TIP3    H1 5260   1.716   6.891   0.575
 1773TIP3    H2 5261   1.667   7.022   0.631
 1774TIP3   OH2 5262   6.540   2.062   5.626
 1774TIP3    H1 5263   6.521   2.139   5.679
 1774TIP3    H2 5264   6.633   2.070   5.604
 1775TIP3   OH2 5265   0.235   7.313   3.852
 1775TIP3    H1 5266   0.287   7.282   3.777
 1775TIP3    H2 5267   0.216   7.404   3.832
 1776TIP3   OH2 5268   6.543   1.009   2.964
 1776TIP3    H1 5269   6.637   1.012   2.946
 1776TIP3    H2 5270   6.532   1.065   3.040
 1777TIP3   OH2 5271   2.035   0.406   4.146
 1777TIP3    H1 5272   2.076   0.324   4.173
 1777TIP3    H2 5273   2.095   0.444   4.081
 1778TIP3   OH2 5274   3.725   7.518   0.937
 1778TIP3    H1 5275   3.773   7.512   0.855
 1778TIP3    H2 5276   3.665   7.443   0.936
 1779TIP3   OH2 5277   2.023   6.487   2.963
 1779TIP3    H1 5278   1.937   6.529   2.965
 1779TIP3    H2 5279   2.029   6.440   3.046
 1780TIP3   OH2 5280   4.871   3.325   2.948
 1780TIP3    H1 5281   4.860   3.420   2.941
 1780TIP3    H2 5282   4.789   3.295   2.987
 1781TIP3   OH2 5283   1.919   6.816   4.349
 1781TIP3    H1 5284   1.985   6.882   4.366
 1781TIP3    H2 5285   1.844   6.843   4.402
 1782TIP3   OH2 5286   4.494   1.649   3.420
 1782TIP3    H1 5287   4.551   1.572   3.415
 1782TIP3    H2 5288   4.553   1.724   3.409
 1783TIP3   OH2 5289   8.077   6.509   1.072
 1783TIP3    H1 5290   7.998   6.462   1.097
 1783TIP3    H2 5291   8.058   6.545   0.985
 1784TIP3   OH2 5292   6.203   5.988   4.258
 1784TIP3    H1 5293   6.293   6.007   4.230
 1784TIP3    H2 5294   6.150   6.002   4.180
 1785TIP3   OH2 5295   0.827   4.081   2.809
 1785TIP3    H1 5296   0.893   4.127   2.861
 1785TIP3    H2 5297   0.843   3.988   2.827
 1786TIP3   OH2 5298   5.438   3.611   3.156
 1786TIP3    H1 5299   5.497   3.668   3.107
 1786TIP3    H2 5300   5.434   3.651   3.244
 1787TIP3   OH2 5301   7.946   1.347   1.883
 1787TIP3    H1 5302   7.963   1.302   1.965
 1787TIP3    H2 5303   7.954   1.279   1.816
 1788TIP3   OH2 5304   2.504   3.576   5.928
 1788TIP3    H1 5305   2.524   3.669   5.921
 1788TIP3    H2 5306   2.587   3.532   5.909
 1789TIP3   OH2 5307   7.145   3.652   5.222
 1789TIP3    H1 5308   7.188   3.734   5.248
 1789TIP3    H2 5309   7.093   3.626   5.298
 1790TIP3   OH2 5310   2.009   4.272   1.918
 1790TIP3    H1 5311   2.098   4.295   1.944
 1790TIP3    H2 5312   2.009   4.277   1.823
 1791TIP3   OH2 5313   3.705   2.200   0.343
 1791TIP3    H1 5314   3.715   2.232   0.432
 1791TIP3    H2 5315   3.774   2.135   0.333
 1792TIP3   OH2 5316   5.485   3.012   3.007
 1792TIP3    H1 5317   5.399   3.002   3.047
 1792TIP3    H2 5318   5.468   3.012   2.912
 1793TIP3   OH2 5319   4.833   3.701   5.188
 1793TIP3    H1 5320   4.865   3.700   5.278
 1793TIP3    H2 5321   4.739   3.681   5.195
 1794TIP3   OH2 5322   2.263   3.130   1.369
 1794TIP3    H1 5323   2.317   3.072   1.315
 1794TIP3    H2 5324   2.196   3.072   1.407
 1795TIP3   OH2 5325   2.172   5.003   0.144
 1795TIP3    H1 5326   2.191   5.058   0.220
 1795TIP3    H2 5327   2.248   4.944   0.138
 1796TIP3   OH2 5328   2.138   0.903   2.164
 1796TIP3    H1 5329   2.140   0.857   2.248
 1796TIP3    H2 5330   2.226   0.891   2.127
 1797TIP3   OH2 5331   1.217   7.122   0.731
 1797TIP3    H1 5332   1.272   7.188   0.772
 1797TIP3    H2 5333   1.256   7.038   0.756
 1798TIP3   OH2 5334   3.949   1.727   1.659
 1798TIP3    H1 5335   3.931   1.701   1.568
 1798TIP3    H2 5336   3.960   1.822   1.655
 1799TIP3   OH2 5337   4.641   1.271   2.775
 1799TIP3    H1 5338   4.635   1.193   2.720
 1799TIP3    H2 5339   4.555   1.312   2.768
 1800TIP3   OH2 5340   5.525   5.544   4.091
 1800TIP3    H1 5341   5.505   5.577   4.004
 1800TIP3    H2 5342   5.447   5.494   4.116
 1801TIP3   OH2 5343   5.585   7.179   5.736
 1801TIP3    H1 5344   5.571   7.085   5.743
 1801TIP3    H2 5345   5.628   7.191   5.651
 1802TIP3   OH2 5346   3.281   2.027   2.254
 1802TIP3    H1 5347   3.288   2.049   2.347
 1802TIP3    H2 5348   3.289   1.932   2.251
 1803TIP3   OH2 5349   6.595   5.151   6.803
 1803TIP3    H1 5350   6.663   5.216   6.785
 1803TIP3    H2 5351   6.610   5.125   6.894
 1804TIP3   OH2 5352   2.932   1.941   4.589
 1804TIP3    H1 5353   2.873   1.890   4.645
 1804TIP3    H2 5354   2.892   2.028   4.585
 1805TIP3   OH2 5355   1.797   4.472   6.304
 1805TIP3    H1 5356   1.855   4.409   6.260
 1805TIP3    H2 5357   1.842   4.491   6.387
 1806TIP3   OH2 5358   4.650   3.824   3.894
 1806TIP3    H1 5359   4.705   3.789   3.964
 1806TIP3    H2 5360   4.689   3.791   3.814
 1807TIP3   OH2 5361   0.366   1.362   0.677
 1807TIP3    H1 5362   0.386   1.315   0.596
 1807TIP3    H2 5363   0.274   1.388   0.668
 1808TIP3   OH2 5364   1.173   4.344   6.860
 1808TIP3    H1 5365   1.160   4.410   6.791
 1808TIP3    H2 5366   1.251   4.296   6.833
 1809TIP3   OH2 5367   4.545   7.476   3.245
 1809TIP3    H1 5368   4.586   7.432   3.170
 1809TIP3    H2 5369   4.575   7.566   3.239
 1810TIP3   OH2 5370   8.270   0.224   5.363
 1810TIP3    H1 5371   8.323   0.145   5.369
 1810TIP3    H2 5372   8.278   0.266   5.449
 1811TIP3   OH2 5373   7.561   6.294   0.423
 1811TIP3    H1 5374   7.540   6.262   0.510
 1811TIP3    H2 5375   7.517   6.379   0.417
 1812TIP3   OH2 5376   2.126   4.592   2.542
 1812TIP3    H1 5377   2.099   4.525   2.605
 1812TIP3    H2 5378   2.107   4.553   2.456
 1813TIP3   OH2 5379   0.774   3.689   2.321
 1813TIP3    H1 5380   0.738   3.736   2.246
 1813TIP3    H2 5381   0.716   3.613   2.331
 1814TIP3   OH2 5382   0.899   4.968   6.169
 1814TIP3    H1 5383   0.872   4.883   6.202
 1814TIP3    H2 5384   0.865   4.971   6.080
 1815TIP3   OH2 5385   3.827   1.916   5.429
 1815TIP3    H1 5386   3.748   1.968   5.411
 1815TIP3    H2 5387   3.886   1.937   5.357
 1816TIP3   OH2 5388   7.827   0.333   2.750
 1816TIP3    H1 5389   7.822   0.375   2.664
 1816TIP3    H2 5390   7.915   0.296   2.754
 1817TIP3   OH2 5391   6.878   3.485   0.067
 1817TIP3    H1 5392   6.815   3.485  -0.005
 1817TIP3    H2 5393   6.882   3.394   0.096
 1818TIP3   OH2 5394   0.094   5.894   4.096
 1818TIP3    H1 5395   0.009   5.938   4.092
 1818TIP3    H2 5396   0.152   5.958   4.136
 1819TIP3   OH2 5397   5.534   7.689   3.574
 1819TIP3    H1 5398   5.559   7.780   3.558
 1819TIP3    H2 5399   5.438   7.692   3.582
 1820TIP3   OH2 5400   1.787   2.510   4.989
 1820TIP3    H1 5401   1.722   2.496   4.920
 1820TIP3    H2 5402   1.851   2.571   4.950
 1821TIP3   OH2 5403   0.951   5.064   2.325
 1821TIP3    H1 5404   0.875   5.067   2.383
 1821TIP3    H2 5405   0.992   5.149   2.336
 1822TIP3   OH2 5406   5.363   3.219   2.104
 1822TIP3    H1 5407   5.278   3.234   2.146
 1822TIP3    H2 5408   5.370   3.289   2.039
 1823TIP3   OH2 5409   0.969   5.093   2.710
 1823TIP3    H1 5410   0.922   5.175   2.695
 1823TIP3    H2 5411   0.902   5.025   2.703
 1824TIP3   OH2 5412   4.362   6.586   5.818
 1824TIP3    H1 5413   4.305   6.660   5.797
 1824TIP3    H2 5414   4.435   6.626   5.865
 1825TIP3   OH2 5415   7.115   5.641   0.776
 1825TIP3    H1 5416   7.055   5.570   0.753
 1825TIP3    H2 5417   7.197   5.617   0.732
 1826TIP3   OH2 5418   2.485   3.442   4.627
 1826TIP3    H1 5419   2.483   3.536   4.645
 1826TIP3    H2 5420   2.396   3.420   4.602
 1827TIP3   OH2 5421   1.518   4.668   5.994
 1827TIP3    H1 5422   1.574   4.714   5.931
 1827TIP3    H2 5423   1.577   4.637   6.061
 1828TIP3   OH2 5424   2.148   1.808   1.732
 1828TIP3    H1 5425   2.073   1.755   1.707
 1828TIP3    H2 5426   2.113   1.874   1.791
 1829TIP3   OH2 5427   6.216   0.356   0.318
 1829TIP3    H1 5428   6.185   0.278   0.364
 1829TIP3    H2 5429   6.304   0.333   0.289
 1830TIP3   OH2 5430   0.921   7.894   2.087
 1830TIP3    H1 5431   0.997   7.838   2.103
 1830TIP3    H2 5432   0.902   7.933   2.172
 1831TIP3   OH2 5433   4.032   6.948   1.050
 1831TIP3    H1 5434   4.027   7.020   0.987
 1831TIP3    H2 5435   4.025   6.869   0.997
 1832TIP3   OH2 5436   1.971   3.657   2.090
 1832TIP3    H1 5437   1.955   3.683   2.181
 1832TIP3    H2 5438   1.995   3.739   2.046
 1833TIP3   OH2 5439   1.318   5.754   4.368
 1833TIP3    H1 5440   1.295   5.692   4.436
 1833TIP3    H2 5441   1.249   5.745   4.302
 1834TIP3   OH2 5442   3.396   5.446   5.644
 1834TIP3    H1 5443   3.426   5.381   5.581
 1834TIP3    H2 5444   3.415   5.407   5.729
 1835TIP3   OH2 5445   8.275   7.333   4.959
 1835TIP3    H1 5446   8.336   7.276   4.913
 1835TIP3    H2 5447   8.225   7.377   4.890
 1836TIP3   OH2 5448   2.038   7.189   1.508
 1836TIP3    H1 5449   2.122   7.214   1.545
 1836TIP3    H2 5450   2.047   7.207   1.414
 1837TIP3   OH2 5451   1.724   1.435   6.304
 1837TIP3    H1 5452   1.719   1.415   6.397
 1837TIP3    H2 5453   1.760   1.523   6.301
 1838TIP3   OH2 5454   6.381   6.540   3.976
 1838TIP3    H1 5455   6.440   6.582   4.037
 1838TIP3    H2 5456   6.293   6.557   4.011
 1839TIP3   OH2 5457   3.673   4.172   5.217
 1839TIP3    H1 5458   3.734   4.245   5.208
 1839TIP3    H2 5459   3.723   4.096   5.187
 1840TIP3   OH2 5460   1.594   3.600   2.086
 1840TIP3    H1 5461   1.653   3.531   2.118
 1840TIP3    H2 5462   1.587   3.661   2.159
 1841TIP3   OH2 5463   7.655   5.760   5.811
 1841TIP3    H1 5464   7.635   5.831   5.872
 1841TIP3    H2 5465   7.683   5.688   5.867
 1842TIP3   OH2 5466   4.582   3.338   1.229
 1842TIP3    H1 5467   4.562   3.276   1.158
 1842TIP3    H2 5468   4.585   3.423   1.186
 1843TIP3   OH2 5469   6.994   7.675   4.632
 1843TIP3    H1 5470   7.038   7.709   4.554
 1843TIP3    H2 5471   6.944   7.599   4.601
 1844TIP3   OH2 5472   2.560   6.546   6.489
 1844TIP3    H1 5473   2.546   6.586   6.575
 1844TIP3    H2 5474   2.635   6.487   6.502
 1845TIP3   OH2 5475   2.346   4.661   1.200
 1845TIP3    H1 5476   2.299   4.578   1.212
 1845TIP3    H2 5477   2.438   4.638   1.207
 1846TIP3   OH2 5478   0.330   5.410   6.797
 1846TIP3    H1 5479   0.298   5.419   6.887
 1846TIP3    H2 5480   0.285   5.334   6.763
 1847TIP3   OH2 5481   3.735   0.068   4.731
 1847TIP3    H1 5482   3.830   0.065   4.740
 1847TIP3    H2 5483   3.703   0.085   4.820
 1848TIP3   OH2 5484   1.989   7.238   2.917
 1848TIP3    H1 5485   1.957   7.287   2.993
 1848TIP3    H2 5486   2.023   7.305   2.858
 1849TIP3   OH2 5487   0.879   1.952   0.591
 1849TIP3    H1 5488   0.966   1.913   0.577
 1849TIP3    H2 5489   0.876   2.026   0.530
 1850TIP3   OH2 5490   6.083   1.504   1.218
 1850TIP3    H1 5491   6.087   1.522   1.312
 1850TIP3    H2 5492   6.036   1.578   1.180
 1851TIP3   OH2 5493   2.008   7.677   2.887
 1851TIP3    H1 5494   1.924   7.676   2.842
 1851TIP3    H2 5495   1.995   7.737   2.961
 1852TIP3   OH2 5496   1.046   3.960   0.132
 1852TIP3    H1 5497   0.994   4.021   0.184
 1852TIP3    H2 5498   1.102   3.915   0.196
 1853TIP3   OH2 5499   6.659   4.890   3.328
 1853TIP3    H1 5500   6.609   4.917   3.405
 1853TIP3    H2 5501   6.627   4.947   3.258
 1854TIP3   OH2 5502   0.075   1.822   1.186
 1854TIP3    H1 5503   0.095   1.813   1.092
 1854TIP3    H2 5504   0.156   1.797   1.230
 1855TIP3   OH2 5505   5.487   3.055   4.862
 1855TIP3    H1 5506   5.575   3.030   4.834
 1855TIP3    H2 5507   5.500   3.094   4.949
 1856TIP3   OH2 5508   0.253   1.573   2.154
 1856TIP3    H1 5509   0.211   1.591   2.070
 1856TIP3    H2 5510   0.285   1.484   2.147
 1857TIP3   OH2 5511   0.558   5.812   2.318
 1857TIP3    H1 5512   0.467   5.807   2.348
 1857TIP3    H2 5513   0.576   5.906   2.316
 1858TIP3   OH2 5514   1.000   6.440   1.273
 1858TIP3    H1 5515   0.998   6.530   1.239
 1858TIP3    H2 5516   0.935   6.440   1.344
 1859TIP3   OH2 5517   3.858   6.496   5.441
 1859TIP3    H1 5518   3.863   6.532   5.352
 1859TIP3    H2 5519   3.811   6.414   5.430
 1860TIP3   OH2 5520   8.065   5.552   3.854
 1860TIP3    H1 5521   8.021   5.472   3.884
 1860TIP3    H2 5522   8.036   5.562   3.763
 1861TIP3   OH2 5523   0.076   7.724   1.097
 1861TIP3    H1 5524   0.030   7.642   1.078
 1861TIP3    H2 5525   0.046   7.748   1.185
 1862TIP3   OH2 5526   3.328   4.579   6.007
 1862TIP3    H1 5527   3.339   4.673   6.020
 1862TIP3    H2 5528   3.308   4.544   6.094
 1863TIP3   OH2 5529   1.029   0.459   6.462
 1863TIP3    H1 5530   1.124   0.464   6.448
 1863TIP3    H2 5531   1.006   0.543   6.501
 1864TIP3   OH2 5532   1.086   7.271   5.385
 1864TIP3    H1 5533   1.105   7.299   5.475
 1864TIP3    H2 5534   1.104   7.348   5.331
 1865TIP3   OH2 5535   3.260   3.248   3.726
 1865TIP3    H1 5536   3.239   3.341   3.734
 1865TIP3    H2 5537   3.174   3.205   3.724
 1866TIP3   OH2 5538   3.171   6.797   0.186
 1866TIP3    H1 5539   3.150   6.706   0.204
 1866TIP3    H2 5540   3.096   6.846   0.220
 1867TIP3   OH2 5541   6.290   0.297   6.177
 1867TIP3    H1 5542   6.289   0.286   6.082
 1867TIP3    H2 5543   6.338   0.221   6.209
 1868TIP3   OH2 5544   7.675   1.410   0.292
 1868TIP3    H1 5545   7.585   1.410   0.260
 1868TIP3    H2 5546   7.703   1.501   0.288
 1869TIP3   OH2 5547   4.303   6.187   5.390
 1869TIP3    H1 5548   4.307   6.095   5.366
 1869TIP3    H2 5549   4.386   6.205   5.434
 1870TIP3   OH2 5550   2.634   3.110   1.480
 1870TIP3    H1 5551   2.624   3.026   1.526
 1870TIP3    H2 5552   2.549   3.124   1.438
 1871TIP3   OH2 5553   2.731   7.635   3.719
 1871TIP3    H1 5554   2.771   7.624   3.632
 1871TIP3    H2 5555   2.642   7.665   3.701
 1872TIP3   OH2 5556   5.867   0.243   2.981
 1872TIP3    H1 5557   5.863   0.292   2.899
 1872TIP3    H2 5558   5.845   0.307   3.049
 1873TIP3   OH2 5559   1.698   2.709   0.053
 1873TIP3    H1 5560   1.643   2.784   0.029
 1873TIP3    H2 5561   1.644   2.657   0.112
 1874TIP3   OH2 5562   4.799   2.437   2.772
 1874TIP3    H1 5563   4.895   2.438   2.777
 1874TIP3    H2 5564   4.780   2.381   2.697
 1875TIP3   OH2 5565   3.280   5.440   4.661
 1875TIP3    H1 5566   3.286   5.345   4.650
 1875TIP3    H2 5567   3.220   5.468   4.592
 1876TIP3   OH2 5568   3.671   5.785   2.377
 1876TIP3    H1 5569   3.704   5.858   2.429
 1876TIP3    H2 5570   3.748   5.730   2.362
 1877TIP3   OH2 5571   7.434   4.881   5.152
 1877TIP3    H1 5572   7.452   4.967   5.190
 1877TIP3    H2 5573   7.459   4.819   5.221
 1878TIP3   OH2 5574   8.332   0.334   6.105
 1878TIP3    H1 5575   8.337   0.280   6.027
 1878TIP3    H2 5576   8.423   0.346   6.133
 1879TIP3   OH2 5577   3.343   7.470   2.730
 1879TIP3    H1 5578   3.398   7.515   2.793
 1879TIP3    H2 5579   3.255   7.505   2.746
 1880TIP3   OH2 5580   0.583   1.108   1.863
 1880TIP3    H1 5581   0.506   1.051   1.858
 1880TIP3    H2 5582   0.630   1.078   1.940
 1881TIP3   OH2 5583   0.527   6.108   4.264
 1881TIP3    H1 5584   0.478   6.037   4.306
 1881TIP3    H2 5585   0.466   6.182   4.262
 1882TIP3   OH2 5586   4.337   4.204   6.431
 1882TIP3    H1 5587   4.300   4.126   6.389
 1882TIP3    H2 5588   4.367   4.174   6.516
 1883TIP3   OH2 5589   3.004   1.662   0.404
 1883TIP3    H1 5590   3.067   1.670   0.332
 1883TIP3    H2 5591   2.930   1.614   0.366
 1884TIP3   OH2 5592   3.379   5.745   0.098
 1884TIP3    H1 5593   3.424   5.693   0.164
 1884TIP3    H2 5594   3.448   5.770   0.037
 1885TIP3   OH2 5595   6.685   2.000   3.198
 1885TIP3    H1 5596   6.732   1.924   3.164
 1885TIP3    H2 5597   6.705   2.070   3.136
 1886TIP3   OH2 5598   0.040   5.201   4.585
 1886TIP3    H1 5599   0.046   5.289   4.546
 1886TIP3    H2 5600   0.126   5.162   4.570
 1887TIP3   OH2 5601   4.726   2.920   5.832
 1887TIP3    H1 5602   4.726   2.998   5.778
 1887TIP3    H2 5603   4.800   2.931   5.892
 1888TIP3   OH2 5604   0.508   3.437   2.694
 1888TIP3    H1 5605   0.578   3.373   2.706
 1888TIP3    H2 5606   0.542   3.518   2.732
 1889TIP3   OH2 5607   6.013   4.541   4.998
 1889TIP3    H1 5608   6.085   4.521   4.939
 1889TIP3    H2 5609   6.004   4.462   5.052
 1890TIP3   OH2 5610   3.185   0.519   6.317
 1890TIP3    H1 5611   3.182   0.589   6.252
 1890TIP3    H2 5612   3.095   0.486   6.321
 1891TIP3   OH2 5613   3.372   3.135   1.580
 1891TIP3    H1 5614   3.310   3.067   1.608
 1891TIP3    H2 5615   3.457   3.101   1.607
 1892TIP3   OH2 5616   4.377   3.910   0.375
 1892TIP3    H1 5617   4.403   3.822   0.400
 1892TIP3    H2 5618   4.298   3.927   0.427
 1893TIP3   OH2 5619   7.214   7.725   6.313
 1893TIP3    H1 5620   7.268   7.772   6.249
 1893TIP3    H2 5621   7.208   7.636   6.278
 1894TIP3   OH2 5622   5.277   7.743   5.846
 1894TIP3    H1 5623   5.258   7.834   5.866
 1894TIP3    H2 5624   5.272   7.698   5.930
 1895TIP3   OH2 5625   1.678   6.941   4.444
 1895TIP3    H1 5626   1.591   6.904   4.454
 1895TIP3    H2 5627   1.663   7.025   4.399
 1896TIP3   OH2 5628   2.189   3.745   1.461
 1896TIP3    H1 5629   2.186   3.649   1.466
 1896TIP3    H2 5630   2.212   3.763   1.370
 1897TIP3   OH2 5631   6.499   0.638   3.337
 1897TIP3    H1 5632   6.497   0.560   3.392
 1897TIP3    H2 5633   6.541   0.705   3.391
 1898TIP3   OH2 5634   4.943   4.579   6.280
 1898TIP3    H1 5635   4.942   4.674   6.294
 1898TIP3    H2 5636   4.852   4.552   6.293
 1899TIP3   OH2 5637   6.779   1.353   3.564
 1899TIP3    H1 5638   6.831   1.316   3.635
 1899TIP3    H2 5639   6.768   1.445   3.589
 1900TIP3   OH2 5640   1.541   0.924   0.652
 1900TIP3    H1 5641   1.473   0.944   0.589
 1900TIP3    H2 5642   1.502   0.860   0.711
 1901TIP3   OH2 5643   3.498   4.449   3.637
 1901TIP3    H1 5644   3.447   4.380   3.678
 1901TIP3    H2 5645   3.446   4.477   3.562
 1902TIP3   OH2 5646   0.756   6.261   5.766
 1902TIP3    H1 5647   0.779   6.179   5.720
 1902TIP3    H2 5648   0.698   6.233   5.836
 1903TIP3   OH2 5649   1.916   1.185   5.855
 1903TIP3    H1 5650   2.010   1.199   5.845
 1903TIP3    H2 5651   1.886   1.260   5.907
 1904TIP3   OH2 5652   1.511   5.386   4.250
 1904TIP3    H1 5653   1.557   5.407   4.331
 1904TIP3    H2 5654   1.518   5.465   4.197
 1905TIP3   OH2 5655   2.717   5.034   2.082
 1905TIP3    H1 5656   2.662   4.995   2.150
 1905TIP3    H2 5657   2.665   5.107   2.048
 1906TIP3   OH2 5658   8.014   2.195   4.280
 1906TIP3    H1 5659   7.985   2.241   4.201
 1906TIP3    H2 5660   7.960   2.116   4.282
 1907TIP3   OH2 5661   7.292   5.870   1.297
 1907TIP3    H1 5662   7.281   5.942   1.235
 1907TIP3    H2 5663   7.270   5.908   1.382
 1908TIP3   OH2 5664   0.728   2.535   1.856
 1908TIP3    H1 5665   0.752   2.621   1.888
 1908TIP3    H2 5666   0.654   2.550   1.797
 1909TIP3   OH2 5667   4.545   1.430   3.771
 1909TIP3    H1 5668   4.578   1.448   3.683
 1909TIP3    H2 5669   4.450   1.431   3.761
 1910TIP3   OH2 5670   5.189   4.157   5.501
 1910TIP3    H1 5671   5.129   4.206   5.444
 1910TIP3    H2 5672   5.135   4.130   5.575
 1911TIP3   OH2 5673   6.665   4.750   0.065
 1911TIP3    H1 5674   6.670   4.833   0.113
 1911TIP3    H2 5675   6.573   4.723   0.073
 1912TIP3   OH2 5676   2.021   0.877   6.465
 1912TIP3    H1 5677   2.000   0.965   6.498
 1912TIP3    H2 5678   2.101   0.852   6.512
 1913TIP3   OH2 5679   4.484   3.985   3.744
 1913TIP3    H1 5680   4.513   3.900   3.776
 1913TIP3    H2 5681   4.388   3.980   3.748
 1914TIP3   OH2 5682   6.761   0.331   5.597
 1914TIP3    H1 5683   6.851   0.310   5.570
 1914TIP3    H2 5684   6.706   0.276   5.542
 1915TIP3   OH2 5685   3.883   3.668   4.061
 1915TIP3    H1 5686   3.855   3.600   4.123
 1915TIP3    H2 5687   3.899   3.745   4.116
 1916TIP3   OH2 5688   0.012   4.145   6.564
 1916TIP3    H1 5689   0.083   4.107   6.617
 1916TIP3    H2 5690  -0.024   4.214   6.618
 1917TIP3   OH2 5691   4.959   2.048   3.109
 1917TIP3    H1 5692   5.054   2.054   3.116
 1917TIP3    H2 5693   4.944   1.961   3.070
 1918TIP3   OH2 5694   8.127   6.057   2.612
 1918TIP3    H1 5695   8.050   6.009   2.580
 1918TIP3    H2 5696   8.146   6.120   2.542
 1919TIP3   OH2 5697   7.315   6.188   1.252
 1919TIP3    H1 5698   7.253   6.256   1.277
 1919TIP3    H2 5699   7.269   6.137   1.185
 1920TIP3   OH2 5700   1.803   6.791   1.705
 1920TIP3    H1 5701   1.834   6.873   1.667
 1920TIP3    H2 5702   1.879   6.757   1.752
 1921TIP3   OH2 5703   3.441   6.772   3.442
 1921TIP3    H1 5704   3.373   6.713   3.474
 1921TIP3    H2 5705   3.435   6.849   3.498
 1922TIP3   OH2 5706   0.304   3.541   6.597
 1922TIP3    H1 5707   0.272   3.451   6.601
 1922TIP3    H2 5708   0.314   3.566   6.689
 1923TIP3   OH2 5709   5.894   2.776   6.294
 1923TIP3    H1 5710   5.914   2.688   6.327
 1923TIP3    H2 5711   5.965   2.831   6.328
 1924TIP3   OH2 5712   7.236   3.114   4.562
 1924TIP3    H1 5713   7.264   3.153   4.645
 1924TIP3    H2 5714   7.309   3.057   4.537
 1925TIP3   OH2 5715   3.159   7.470   1.526
 1925TIP3    H1 5716   3.085   7.411   1.536
 1925TIP3    H2 5717   3.183   7.462   1.433
 1926TIP3   OH2 5718   5.776   5.631   5.043
 1926TIP3    H1 5719   5.725   5.622   4.962
 1926TIP3    H2 5720   5.839   5.701   5.024
 1927TIP3   OH2 5721   5.057   1.140   0.383
 1927TIP3    H1 5722   4.992   1.172   0.445
 1927TIP3    H2 5723   5.099   1.067   0.429
 1928TIP3   OH2 5724   4.427   6.187   2.373
 1928TIP3    H1 5725   4.479   6.265   2.353
 1928TIP3    H2 5726   4.373   6.174   2.295
 1929TIP3   OH2 5727   6.913   0.555   2.274
 1929TIP3    H1 5728   6.877   0.520   2.355
 1929TIP3    H2 5729   6.955   0.480   2.232
 1930TIP3   OH2 5730   6.027   4.077   6.348
 1930TIP3    H1 5731   5.943   4.095   6.392
 1930TIP3    H2 5732   6.086   4.145   6.382
 1931TIP3   OH2 5733   4.143   5.107   4.158
 1931TIP3    H1 5734   4.110   5.085   4.071
 1931TIP3    H2 5735   4.169   5.199   4.150
 1932TIP3   OH2 5736   1.244   5.084   3.656
 1932TIP3    H1 5737   1.307   5.127   3.597
 1932TIP3    H2 5738   1.162   5.085   3.608
 1933TIP3   OH2 5739   2.800   4.247   3.931
 1933TIP3    H1 5740   2.729   4.198   3.890
 1933TIP3    H2 5741   2.775   4.253   4.023
 1934TIP3   OH2 5742   2.944   3.770   4.750
 1934TIP3    H1 5743   2.976   3.720   4.676
 1934TIP3    H2 5744   2.980   3.725   4.827
 1935TIP3   OH2 5745   3.650   7.702   6.591
 1935TIP3    H1 5746   3.711   7.750   6.647
 1935TIP3    H2 5747   3.687   7.709   6.503
 1936TIP3   OH2 5748   5.828   2.237   0.625
 1936TIP3    H1 5749   5.914   2.198   0.609
 1936TIP3    H2 5750   5.835   2.273   0.714
 1937TIP3   OH2 5751   5.078   2.981   2.837
 1937TIP3    H1 5752   5.112   2.928   2.764
 1937TIP3    H2 5753   5.119   2.943   2.915
 1938TIP3   OH2 5754   5.855   5.519   5.740
 1938TIP3    H1 5755   5.873   5.608   5.770
 1938TIP3    H2 5756   5.813   5.530   5.654
 1939TIP3   OH2 5757   1.303   0.687   2.923
 1939TIP3    H1 5758   1.308   0.772   2.879
 1939TIP3    H2 5759   1.369   0.693   2.992
 1940TIP3   OH2 5760   0.860   6.366   0.710
 1940TIP3    H1 5761   0.771   6.399   0.695
 1940TIP3    H2 5762   0.866   6.287   0.658
 1941TIP3   OH2 5763   2.163   3.978   2.637
 1941TIP3    H1 5764   2.148   4.029   2.558
 1941TIP3    H2 5765   2.076   3.961   2.672
 1942TIP3   OH2 5766   5.006   0.905   3.578
 1942TIP3    H1 5767   5.093   0.864   3.570
 1942TIP3    H2 5768   5.002   0.966   3.505
 1943TIP3   OH2 5769   7.010   2.696   1.822
 1943TIP3    H1 5770   6.995   2.619   1.877
 1943TIP3    H2 5771   6.969   2.768   1.870
 1944TIP3   OH2 5772   0.367   2.904   6.108
 1944TIP3    H1 5773   0.349   2.990   6.071
 1944TIP3    H2 5774   0.285   2.856   6.097
 1945TIP3   OH2 5775   6.902   3.660   6.730
 1945TIP3    H1 5776   6.903   3.725   6.660
 1945TIP3    H2 5777   6.982   3.676   6.780
 1946TIP3   OH2 5778   2.927   0.497   4.923
 1946TIP3    H1 5779   2.998   0.560   4.909
 1946TIP3    H2 5780   2.944   0.428   4.859
 1947TIP3   OH2 5781   0.788   4.707   0.692
 1947TIP3    H1 5782   0.719   4.771   0.708
 1947TIP3    H2 5783   0.742   4.628   0.666
 1948TIP3   OH2 5784   0.055   2.233   2.076
 1948TIP3    H1 5785  -0.032   2.195   2.073
 1948TIP3    H2 5786   0.110   2.164   2.113
 1949TIP3   OH2 5787   6.561   5.437   0.946
 1949TIP3    H1 5788   6.534   5.430   0.854
 1949TIP3    H2 5789   6.648   5.397   0.947
 1950TIP3   OH2 5790   1.538   6.805   5.036
 1950TIP3    H1 5791   1.571   6.730   5.086
 1950TIP3    H2 5792   1.612   6.829   4.979
 1951TIP3   OH2 5793   2.120   4.169   1.035
 1951TIP3    H1 5794   2.086   4.127   1.115
 1951TIP3    H2 5795   2.128   4.097   0.973
 1952TIP3   OH2 5796   4.668   1.452   1.730
 1952TIP3    H1 5797   4.652   1.358   1.733
 1952TIP3    H2 5798   4.619   1.488   1.804
 1953TIP3   OH2 5799   6.544   5.791   0.628
 1953TIP3    H1 5800   6.517   5.808   0.537
 1953TIP3    H2 5801   6.494   5.855   0.679
 1954TIP3   OH2 5802   7.990   4.749   4.254
 1954TIP3    H1 5803   7.959   4.666   4.290
 1954TIP3    H2 5804   7.974   4.813   4.323
 1955TIP3   OH2 5805   0.890   2.550   5.669
 1955TIP3    H1 5806   0.918   2.460   5.689
 1955TIP3    H2 5807   0.799   2.554   5.701
 1956TIP3   OH2 5808   2.238   6.047   3.351
 1956TIP3    H1 5809   2.320   6.053   3.401
 1956TIP3    H2 5810   2.253   5.976   3.289
 1957TIP3   OH2 5811   4.637   0.182   3.523
 1957TIP3    H1 5812   4.709   0.243   3.506
 1957TIP3    H2 5813   4.645   0.162   3.617
 1958TIP3   OH2 5814   1.226   4.379   6.227
 1958TIP3    H1 5815   1.153   4.326   6.196
 1958TIP3    H2 5816   1.211   4.465   6.188
 1959TIP3   OH2 5817   8.090   7.732   2.096
 1959TIP3    H1 5818   8.026   7.662   2.085
 1959TIP3    H2 5819   8.041   7.804   2.135
 1960TIP3   OH2 5820   8.133   4.168   4.954
 1960TIP3    H1 5821   8.114   4.128   4.869
 1960TIP3    H2 5822   8.218   4.211   4.942
 1961TIP3   OH2 5823   7.043   0.440   5.779
 1961TIP3    H1 5824   7.048   0.371   5.713
 1961TIP3    H2 5825   6.972   0.412   5.837
 1962TIP3   OH2 5826   2.848   3.063   4.807
 1962TIP3    H1 5827   2.856   2.984   4.860
 1962TIP3    H2 5828   2.754   3.082   4.807
 1963TIP3   OH2 5829   0.713   0.136   1.105
 1963TIP3    H1 5830   0.645   0.198   1.132
 1963TIP3    H2 5831   0.676   0.090   1.030
 1964TIP3   OH2 5832   1.267   3.355   3.186
 1964TIP3    H1 5833   1.257   3.291   3.115
 1964TIP3    H2 5834   1.302   3.304   3.259
 1965TIP3   OH2 5835   7.762   6.452   0.566
 1965TIP3    H1 5836   7.849   6.483   0.541
 1965TIP3    H2 5837   7.726   6.416   0.485
 1966TIP3   OH2 5838   1.472   4.344   0.489
 1966TIP3    H1 5839   1.536   4.382   0.429
 1966TIP3    H2 5840   1.517   4.272   0.532
 1967TIP3   OH2 5841   5.487   4.155   0.784
 1967TIP3    H1 5842   5.531   4.161   0.869
 1967TIP3    H2 5843   5.408   4.105   0.801
 1968TIP3   OH2 5844   0.767   2.857   0.842
 1968TIP3    H1 5845   0.783   2.879   0.750
 1968TIP3    H2 5846   0.730   2.937   0.880
 1969TIP3   OH2 5847   2.141   0.336   0.153
 1969TIP3    H1 5848   2.160   0.244   0.139
 1969TIP3    H2 5849   2.076   0.358   0.085
 1970TIP3   OH2 5850   6.289   1.990   1.581
 1970TIP3    H1 5851   6.360   1.992   1.645
 1970TIP3    H2 5852   6.277   2.081   1.555
 1971TIP3   OH2 5853   0.076   6.890   1.329
 1971TIP3    H1 5854   0.103   6.887   1.237
 1971TIP3    H2 5855   0.146   6.844   1.376
 1972TIP3   OH2 5856   1.592   6.851   3.520
 1972TIP3    H1 5857   1.570   6.875   3.610
 1972TIP3    H2 5858   1.542   6.912   3.465
 1973TIP3   OH2 5859   3.803   1.030   4.824
 1973TIP3    H1 5860   3.880   1.071   4.864
 1973TIP3    H2 5861   3.729   1.081   4.856
 1974TIP3   OH2 5862   5.944   0.995   3.360
 1974TIP3    H1 5863   6.031   0.961   3.336
 1974TIP3    H2 5864   5.916   0.941   3.433
 1975TIP3   OH2 5865   1.025   6.896   2.275
 1975TIP3    H1 5866   1.096   6.837   2.300
 1975TIP3    H2 5867   1.062   6.947   2.202
 1976TIP3   OH2 5868   5.260   3.934   1.069
 1976TIP3    H1 5869   5.192   3.963   1.131
 1976TIP3    H2 5870   5.291   4.015   1.029
 1977TIP3   OH2 5871   0.646   5.396   4.057
 1977TIP3    H1 5872   0.616   5.463   3.995
 1977TIP3    H2 5873   0.642   5.314   4.007
 1978TIP3   OH2 5874   3.091   1.532   6.639
 1978TIP3    H1 5875   3.065   1.589   6.567
 1978TIP3    H2 5876   3.089   1.589   6.716
 1979TIP3   OH2 5877   1.760   7.149   1.318
 1979TIP3    H1 5878   1.844   7.120   1.284
 1979TIP3    H2 5879   1.779   7.231   1.365
 1980TIP3   OH2 5880   8.094   0.563   1.689
 1980TIP3    H1 5881   8.094   0.569   1.593
 1980TIP3    H2 5882   8.015   0.609   1.716
 1981TIP3   OH2 5883   0.645   4.750   5.680
 1981TIP3    H1 5884   0.741   4.755   5.675
 1981TIP3    H2 5885   0.626   4.749   5.774
 1982TIP3   OH2 5886   1.308   0.136   3.220
 1982TIP3    H1 5887   1.235   0.104   3.167
 1982TIP3    H2 5888   1.297   0.231   3.221
 1983TIP3   OH2 5889   1.715   3.588   1.566
 1983TIP3    H1 5890   1.758   3.587   1.651
 1983TIP3    H2 5891   1.626   3.619   1.585
 1984TIP3   OH2 5892   7.961   1.191   3.201
 1984TIP3    H1 5893   8.053   1.204   3.221
 1984TIP3    H2 5894   7.960   1.118   3.139
 1985TIP3   OH2 5895   8.417   5.866   1.313
 1985TIP3    H1 5896   8.386   5.892   1.400
 1985TIP3    H2 5897   8.375   5.928   1.253
 1986TIP3   OH2 5898   6.120   7.825   2.654
 1986TIP3    H1 5899   6.205   7.845   2.616
 1986TIP3    H2 5900   6.100   7.737   2.623
 1987TIP3   OH2 5901   2.748   1.393   1.231
 1987TIP3    H1 5902   2.738   1.299   1.246
 1987TIP3    H2 5903   2.780   1.428   1.313
 1988TIP3   OH2 5904   7.469   1.188   4.424
 1988TIP3    H1 5905   7.491   1.152   4.510
 1988TIP3    H2 5906   7.554   1.205   4.383
 1989TIP3   OH2 5907   1.368   6.059   4.796
 1989TIP3    H1 5908   1.425   6.136   4.797
 1989TIP3    H2 5909   1.394   6.011   4.717
 1990TIP3   OH2 5910   7.868   5.741   6.061
 1990TIP3    H1 5911   7.957   5.774   6.067
 1990TIP3    H2 5912   7.877   5.646   6.069
 1991TIP3   OH2 5913   0.870   3.221   1.749
 1991TIP3    H1 5914   0.863   3.265   1.833
 1991TIP3    H2 5915   0.797   3.158   1.748
 1992TIP3   OH2 5916   7.202   6.110   4.161
 1992TIP3    H1 5917   7.279   6.166   4.151
 1992TIP3    H2 5918   7.213   6.070   4.248
 1993TIP3   OH2 5919   6.697   3.434   2.906
 1993TIP3    H1 5920   6.709   3.472   2.819
 1993TIP3    H2 5921   6.720   3.504   2.967
 1994TIP3   OH2 5922   6.393   2.187   0.913
 1994TIP3    H1 5923   6.442   2.199   0.832
 1994TIP3    H2 5924   6.460   2.176   0.980
 1995TIP3   OH2 5925   0.516   3.771   0.217
 1995TIP3    H1 5926   0.544   3.717   0.290
 1995TIP3    H2 5927   0.573   3.746   0.145
 1996TIP3   OH2 5928   0.436   0.818   2.668
 1996TIP3    H1 5929   0.491   0.792   2.742
 1996TIP3    H2 5930   0.347   0.806   2.698
 1997TIP3   OH2 5931   6.476   5.431   5.218
 1997TIP3    H1 5932   6.515   5.516   5.197
 1997TIP3    H2 5933   6.384   5.439   5.191
 1998TIP3   OH2 5934   1.622   0.521   0.945
 1998TIP3    H1 5935   1.641   0.600   0.996
 1998TIP3    H2 5936   1.696   0.512   0.886
 1999TIP3   OH2 5937   6.520   4.409   0.708
 1999TIP3    H1 5938   6.539   4.496   0.671
 1999TIP3    H2 5939   6.551   4.415   0.798
 2000TIP3   OH2 5940   3.051   5.943   2.298
 2000TIP3    H1 5941   3.126   5.949   2.239
 2000TIP3    H2 5942   3.090   5.921   2.383
 2001TIP3   OH2 5943   3.438   7.083   2.152
 2001TIP3    H1 5944   3.468   7.166   2.114
 2001TIP3    H2 5945   3.403   7.108   2.237
 2002TIP3   OH2 5946   2.397   5.702   5.282
 2002TIP3    H1 5947   2.427   5.636   5.344
 2002TIP3    H2 5948   2.459   5.774   5.292
 2003TIP3   OH2 5949   6.958   1.022   4.693
 2003TIP3    H1 5950   6.941   1.084   4.622
 2003TIP3    H2 5951   6.871   0.995   4.723
 2004TIP3   OH2 5952   1.340   6.011   0.006
 2004TIP3    H1 5953   1.309   6.013   0.096
 2004TIP3    H2 5954   1.407   6.080   0.002
 2005TIP3   OH2 5955   6.257   1.860   5.060
 2005TIP3    H1 5956   6.317   1.867   4.985
 2005TIP3    H2 5957   6.314   1.867   5.136
 2006TIP3   OH2 5958   7.654   7.518   4.247
 2006TIP3    H1 5959   7.639   7.606   4.281
 2006TIP3    H2 5960   7.684   7.468   4.323
 2007TIP3   OH2 5961   5.672   1.097   5.380
 2007TIP3    H1 5962   5.582   1.094   5.410
 2007TIP3    H2 5963   5.666   1.098   5.284
 2008TIP3   OH2 5964   1.448   7.618   1.553
 2008TIP3    H1 5965   1.358   7.587   1.565
 2008TIP3    H2 5966   1.500   7.538   1.550
 2009TIP3   OH2 5967   7.195   5.548   6.633
 2009TIP3    H1 5968   7.121   5.489   6.621
 2009TIP3    H2 5969   7.158   5.623   6.680
 2010TIP3   OH2 5970   4.351   3.551   1.355
 2010TIP3    H1 5971   4.362   3.514   1.443
 2010TIP3    H2 5972   4.439   3.582   1.331
 2011TIP3   OH2 5973   8.147   0.391   2.297
 2011TIP3    H1 5974   8.131   0.382   2.203
 2011TIP3    H2 5975   8.201   0.470   2.305
 2012TIP3   OH2 5976   4.663   6.809   3.274
 2012TIP3    H1 5977   4.599   6.846   3.335
 2012TIP3    H2 5978   4.628   6.723   3.251
 2013TIP3   OH2 5979   3.477   6.895   1.712
 2013TIP3    H1 5980   3.490   6.920   1.621
 2013TIP3    H2 5981   3.553   6.842   1.735
 2014TIP3   OH2 5982   4.273   0.405   5.400
 2014TIP3    H1 5983   4.326   0.436   5.326
 2014TIP3    H2 5984   4.209   0.474   5.415
 2015TIP3   OH2 5985   8.169   6.320   4.437
 2015TIP3    H1 5986   8.198   6.408   4.411
 2015TIP3    H2 5987   8.169   6.323   4.533
 2016TIP3   OH2 5988   1.591   0.527   0.551
 2016TIP3    H1 5989   1.646   0.604   0.542
 2016TIP3    H2 5990   1.652   0.454   0.555
 2017TIP3   OH2 5991   1.011   2.095   1.650
 2017TIP3    H1 5992   1.011   2.189   1.668
 2017TIP3    H2 5993   1.010   2.089   1.554
 2018TIP3   OH2 5994   2.027   5.625   2.027
 2018TIP3    H1 5995   2.041   5.567   2.102
 2018TIP3    H2 5996   1.933   5.624   2.013
 2019TIP3   OH2 5997   0.602   1.894   0.568
 2019TIP3    H1 5998   0.693   1.917   0.587
 2019TIP3    H2 5999   0.608   1.812   0.518
 2020TIP3   OH2 6000   2.183   6.465   6.022
 2020TIP3    H1 6001   2.268   6.478   6.064
 2020TIP3    H2 6002   2.184   6.524   5.947
 2021TIP3   OH2 6003   4.480   4.428   0.704
 2021TIP3    H1 6004   4.409   4.378   0.745
 2021TIP3    H2 6005   4.436   4.490   0.647
 2022TIP3   OH2 6006   0.685   2.731   2.150
 2022TIP3    H1 6007   0.742   2.686   2.212
 2022TIP3    H2 6008   0.742   2.794   2.106
 2023TIP3   OH2 6009   0.497   1.977   5.775
 2023TIP3    H1 6010   0.482   2.021   5.858
 2023TIP3    H2 6011   0.554   2.036   5.725
 2024TIP3   OH2 6012   7.431   0.072   3.825
 2024TIP3    H1 6013   7.341   0.045   3.844
 2024TIP3    H2 6014   7.476  -0.010   3.805
 2025TIP3   OH2 6015   7.634   7.103   1.963
 2025TIP3    H1 6016   7.657   7.115   1.871
 2025TIP3    H2 6017   7.607   7.012   1.970
 2026TIP3   OH2 6018   0.570   3.591   6.545
 2026TIP3    H1 6019   0.586   3.664   6.604
 2026TIP3    H2 6020   0.478   3.569   6.558
 2027TIP3   OH2 6021   2.860   7.527   5.293
 2027TIP3    H1 6022   2.876   7.617   5.321
 2027TIP3    H2 6023   2.858   7.531   5.198
 2028TIP3   OH2 6024   7.596   1.299   0.543
 2028TIP3    H1 6025   7.635   1.354   0.475
 2028TIP3    H2 6026   7.576   1.359   0.614
 2029TIP3   OH2 6027   0.916   6.001   2.072
 2029TIP3    H1 6028   0.892   6.094   2.076
 2029TIP3    H2 6029   1.006   6.001   2.041
 2030TIP3   OH2 6030   3.982   3.439   1.292
 2030TIP3    H1 6031   4.071   3.405   1.293
 2030TIP3    H2 6032   3.932   3.377   1.345
 2031TIP3   OH2 6033   1.758   4.703   3.196
 2031TIP3    H1 6034   1.792   4.718   3.284
 2031TIP3    H2 6035   1.822   4.745   3.138
 2032TIP3   OH2 6036   4.025   5.120   0.414
 2032TIP3    H1 6037   3.994   5.135   0.324
 2032TIP3    H2 6038   3.987   5.035   0.439
 2033TIP3   OH2 6039   6.645   3.785   4.893
 2033TIP3    H1 6040   6.661   3.722   4.824
 2033TIP3    H2 6041   6.729   3.792   4.939
 2034TIP3   OH2 6042   6.938   1.770   3.775
 2034TIP3    H1 6043   6.933   1.774   3.679
 2034TIP3    H2 6044   7.032   1.777   3.793
 2035TIP3   OH2 6045   2.513   6.994   1.165
 2035TIP3    H1 6046   2.568   7.060   1.207
 2035TIP3    H2 6047   2.435   6.989   1.220
 2036TIP3   OH2 6048   0.435   1.602   4.107
 2036TIP3    H1 6049   0.461   1.565   4.191
 2036TIP3    H2 6050   0.439   1.528   4.046
 2037TIP3   OH2 6051   4.781   2.100   1.671
 2037TIP3    H1 6052   4.775   2.097   1.767
 2037TIP3    H2 6053   4.772   2.193   1.650
 2038TIP3   OH2 6054   2.465   4.689   0.309
 2038TIP3    H1 6055   2.443   4.606   0.267
 2038TIP3    H2 6056   2.437   4.678   0.400
 2039TIP3   OH2 6057   2.728   6.772   1.152
 2039TIP3    H1 6058   2.786   6.831   1.200
 2039TIP3    H2 6059   2.640   6.801   1.176
 2040TIP3   OH2 6060   0.022   6.063   2.220
 2040TIP3    H1 6061   0.056   6.150   2.200
 2040TIP3    H2 6062   0.095   6.017   2.262
 2041TIP3   OH2 6063   8.029   0.359   5.006
 2041TIP3    H1 6064   8.048   0.407   5.086
 2041TIP3    H2 6065   8.104   0.375   4.949
 2042TIP3   OH2 6066   5.278   6.443   5.660
 2042TIP3    H1 6067   5.314   6.531   5.672
 2042TIP3    H2 6068   5.206   6.438   5.723
 2043TIP3   OH2 6069   6.112   1.956   4.344
 2043TIP3    H1 6070   6.079   1.874   4.382
 2043TIP3    H2 6071   6.180   1.928   4.283
 2044TIP3   OH2 6072   7.839   5.485   6.135
 2044TIP3    H1 6073   7.769   5.442   6.185
 2044TIP3    H2 6074   7.918   5.471   6.187
 2045TIP3   OH2 6075   4.296   4.643   2.401
 2045TIP3    H1 6076   4.204   4.628   2.425
 2045TIP3    H2 6077   4.344   4.633   2.483
 2046TIP3   OH2 6078   6.356   6.110   3.546
 2046TIP3    H1 6079   6.375   6.180   3.609
 2046TIP3    H2 6080   6.332   6.156   3.466
 2047TIP3   OH2 6081   6.882   6.734   1.462
 2047TIP3    H1 6082   6.974   6.710   1.449
 2047TIP3    H2 6083   6.835   6.685   1.395
 2048TIP3   OH2 6084   0.322   3.354   2.991
 2048TIP3    H1 6085   0.271   3.347   3.072
 2048TIP3    H2 6086   0.397   3.296   3.005
 2049TIP3   OH2 6087   3.116   4.492   0.599
 2049TIP3    H1 6088   3.036   4.468   0.552
 2049TIP3    H2 6089   3.139   4.578   0.564
 2050TIP3   OH2 6090   1.172   3.566   4.251
 2050TIP3    H1 6091   1.100   3.526   4.300
 2050TIP3    H2 6092   1.202   3.496   4.192
 2051TIP3   OH2 6093   7.559   6.954   4.763
 2051TIP3    H1 6094   7.651   6.961   4.738
 2051TIP3    H2 6095   7.552   6.870   4.808
 2052TIP3   OH2 6096   4.696   0.389   3.961
 2052TIP3    H1 6097   4.616   0.437   3.941
 2052TIP3    H2 6098   4.765   0.439   3.917
 2053TIP3   OH2 6099   2.555   1.086   4.338
 2053TIP3    H1 6100   2.600   1.142   4.275
 2053TIP3    H2 6101   2.520   1.014   4.286
 2054TIP3   OH2 6102   6.595   7.691   5.410
 2054TIP3    H1 6103   6.674   7.713   5.360
 2054TIP3    H2 6104   6.627   7.638   5.483
 2055TIP3   OH2 6105   1.585   2.380   2.502
 2055TIP3    H1 6106   1.613   2.471   2.509
 2055TIP3    H2 6107   1.657   2.335   2.458
 2056TIP3   OH2 6108   2.082   4.733   0.354
 2056TIP3    H1 6109   2.102   4.822   0.385
 2056TIP3    H2 6110   2.057   4.745   0.263
 2057TIP3   OH2 6111   7.226   3.244   3.413
 2057TIP3    H1 6112   7.214   3.336   3.392
 2057TIP3    H2 6113   7.159   3.225   3.478
 2058TIP3   OH2 6114   0.229   5.595   3.473
 2058TIP3    H1 6115   0.274   5.643   3.543
 2058TIP3    H2 6116   0.172   5.533   3.519
 2059TIP3   OH2 6117   7.571   1.444   6.748
 2059TIP3    H1 6118   7.479   1.466   6.762
 2059TIP3    H2 6119   7.575   1.349   6.759
 2060TIP3   OH2 6120   6.084   4.812   1.897
 2060TIP3    H1 6121   6.025   4.802   1.971
 2060TIP3    H2 6122   6.050   4.752   1.831
 2061TIP3   OH2 6123   1.669   7.031   6.282
 2061TIP3    H1 6124   1.721   6.973   6.227
 2061TIP3    H2 6125   1.587   6.984   6.296
 2062TIP3   OH2 6126   4.966   6.139   4.699
 2062TIP3    H1 6127   5.005   6.175   4.620
 2062TIP3    H2 6128   4.888   6.193   4.715
 2063TIP3   OH2 6129   4.125   1.038   1.899
 2063TIP3    H1 6130   4.111   1.122   1.943
 2063TIP3    H2 6131   4.206   1.049   1.850
 2064TIP3   OH2 6132   3.581   4.100   2.966
 2064TIP3    H1 6133   3.599   4.155   3.043
 2064TIP3    H2 6134   3.667   4.080   2.929
 2065TIP3   OH2 6135   4.932   2.762   2.303
 2065TIP3    H1 6136   4.889   2.696   2.356
 2065TIP3    H2 6137   5.017   2.724   2.280
 2066TIP3   OH2 6138   0.752   7.434   0.810
 2066TIP3    H1 6139   0.829   7.377   0.814
 2066TIP3    H2 6140   0.752   7.481   0.894
 2067TIP3   OH2 6141   7.750   2.857   0.035
 2067TIP3    H1 6142   7.759   2.804   0.115
 2067TIP3    H2 6143   7.669   2.907   0.049
 2068TIP3   OH2 6144   0.162   5.002   6.034
 2068TIP3    H1 6145   0.189   4.917   6.068
 2068TIP3    H2 6146   0.165   4.992   5.939
 2069TIP3   OH2 6147   7.782   6.887   6.371
 2069TIP3    H1 6148   7.837   6.858   6.298
 2069TIP3    H2 6149   7.713   6.940   6.330
 2070TIP3   OH2 6150   5.525   3.179   3.768
 2070TIP3    H1 6151   5.589   3.216   3.829
 2070TIP3    H2 6152   5.553   3.210   3.682
 2071TIP3   OH2 6153   3.636   0.622   4.576
 2071TIP3    H1 6154   3.695   0.573   4.632
 2071TIP3    H2 6155   3.615   0.561   4.504
 2072TIP3   OH2 6156   4.542   6.182   2.636
 2072TIP3    H1 6157   4.632   6.179   2.604
 2072TIP3    H2 6158   4.489   6.198   2.558
 2073TIP3   OH2 6159   1.868   2.105   6.075
 2073TIP3    H1 6160   1.932   2.104   6.146
 2073TIP3    H2 6161   1.883   2.189   6.031
 2074TIP3   OH2 6162   3.856   3.445   6.014
 2074TIP3    H1 6163   3.771   3.428   5.973
 2074TIP3    H2 6164   3.882   3.359   6.049
 2075TIP3   OH2 6165   7.023   2.734   0.982
 2075TIP3    H1 6166   7.006   2.784   0.902
 2075TIP3    H2 6167   6.965   2.658   0.975
 2076TIP3   OH2 6168   6.170   7.567   2.960
 2076TIP3    H1 6169   6.087   7.612   2.944
 2076TIP3    H2 6170   6.162   7.485   2.912
 2077TIP3   OH2 6171   2.075   6.628   4.530
 2077TIP3    H1 6172   2.129   6.672   4.464
 2077TIP3    H2 6173   1.992   6.612   4.485
 2078TIP3   OH2 6174   3.200   7.492   6.297
 2078TIP3    H1 6175   3.267   7.489   6.365
 2078TIP3    H2 6176   3.249   7.510   6.216
 2079TIP3   OH2 6177   6.467   6.537   5.506
 2079TIP3    H1 6178   6.413   6.462   5.481
 2079TIP3    H2 6179   6.527   6.502   5.571
 2080TIP3   OH2 6180   7.307   0.374   4.649
 2080TIP3    H1 6181   7.354   0.424   4.716
 2080TIP3    H2 6182   7.273   0.298   4.696
 2081TIP3   OH2 6183   6.565   7.310   4.425
 2081TIP3    H1 6184   6.555   7.318   4.330
 2081TIP3    H2 6185   6.496   7.366   4.461
 2082TIP3   OH2 6186   6.875   1.540   5.663
 2082TIP3    H1 6187   6.780   1.549   5.648
 2082TIP3    H2 6188   6.909   1.508   5.580
 2083TIP3   OH2 6189   2.912   5.504   3.020
 2083TIP3    H1 6190   2.918   5.484   2.926
 2083TIP3    H2 6191   2.873   5.591   3.023
 2084TIP3   OH2 6192   4.582   0.945   0.696
 2084TIP3    H1 6193   4.549   1.031   0.670
 2084TIP3    H2 6194   4.674   0.945   0.669
 2085TIP3   OH2 6195   6.070   4.258   2.342
 2085TIP3    H1 6196   6.096   4.185   2.286
 2085TIP3    H2 6197   6.075   4.224   2.431
 2086TIP3   OH2 6198   5.469   7.618   6.816
 2086TIP3    H1 6199   5.479   7.681   6.745
 2086TIP3    H2 6200   5.545   7.560   6.808
 2087TIP3   OH2 6201   3.219   1.678   4.765
 2087TIP3    H1 6202   3.237   1.755   4.819
 2087TIP3    H2 6203   3.167   1.620   4.822
 2088TIP3   OH2 6204   0.955   3.393   3.132
 2088TIP3    H1 6205   1.010   3.316   3.114
 2088TIP3    H2 6206   1.017   3.461   3.157
 2089TIP3   OH2 6207   1.125   6.234   2.146
 2089TIP3    H1 6208   1.168   6.184   2.216
 2089TIP3    H2 6209   1.120   6.323   2.180
 2090TIP3   OH2 6210   2.682   5.749   6.430
 2090TIP3    H1 6211   2.640   5.664   6.418
 2090TIP3    H2 6212   2.751   5.733   6.494
 2091TIP3   OH2 6213   4.717   7.491   6.831
 2091TIP3    H1 6214   4.695   7.418   6.889
 2091TIP3    H2 6215   4.775   7.452   6.765
 2092TIP3   OH2 6216   1.743   3.718   5.351
 2092TIP3    H1 6217   1.675   3.724   5.418
 2092TIP3    H2 6218   1.748   3.624   5.331
 2093TIP3   OH2 6219   1.593   3.708   3.172
 2093TIP3    H1 6220   1.580   3.620   3.136
 2093TIP3    H2 6221   1.539   3.764   3.117
 2094TIP3   OH2 6222   7.047   1.597   3.369
 2094TIP3    H1 6223   7.026   1.547   3.290
 2094TIP3    H2 6224   7.143   1.596   3.372
 2095TIP3   OH2 6225   0.046   2.032   3.660
 2095TIP3    H1 6226   0.015   2.055   3.748
 2095TIP3    H2 6227   0.095   1.950   3.673
 2096TIP3   OH2 6228   7.443   5.491   4.197
 2096TIP3    H1 6229   7.447   5.580   4.232
 2096TIP3    H2 6230   7.514   5.445   4.242
 2097TIP3   OH2 6231   0.572   2.067   6.486
 2097TIP3    H1 6232   0.515   2.125   6.537
 2097TIP3    H2 6233   0.531   2.063   6.400
 2098TIP3   OH2 6234   5.430   2.644   1.262
 2098TIP3    H1 6235   5.512   2.679   1.296
 2098TIP3    H2 6236   5.371   2.642   1.337
 2099TIP3   OH2 6237   4.307   4.093   1.581
 2099TIP3    H1 6238   4.219   4.104   1.616
 2099TIP3    H2 6239   4.295   4.045   1.499
 2100TIP3   OH2 6240   3.645   2.776   5.846
 2100TIP3    H1 6241   3.723   2.764   5.791
 2100TIP3    H2 6242   3.651   2.867   5.876
 2101TIP3   OH2 6243   3.190   1.678   3.971
 2101TIP3    H1 6244   3.259   1.739   3.997
 2101TIP3    H2 6245   3.183   1.618   4.045
 2102TIP3   OH2 6246   2.282   4.357   2.361
 2102TIP3    H1 6247   2.366   4.395   2.385
 2102TIP3    H2 6248   2.300   4.263   2.352
 2103TIP3   OH2 6249   4.114   5.340   2.377
 2103TIP3    H1 6250   4.093   5.411   2.437
 2103TIP3    H2 6251   4.074   5.366   2.294
 2104TIP3   OH2 6252   1.709   3.821   2.482
 2104TIP3    H1 6253   1.731   3.869   2.561
 2104TIP3    H2 6254   1.755   3.738   2.490
 2105TIP3   OH2 6255   6.790   6.400   5.310
 2105TIP3    H1 6256   6.769   6.488   5.339
 2105TIP3    H2 6257   6.710   6.368   5.268
 2106TIP3   OH2 6258   0.042   4.651   2.262
 2106TIP3    H1 6259  -0.028   4.596   2.297
 2106TIP3    H2 6260   0.068   4.607   2.180
 2107TIP3   OH2 6261   7.492   0.208   5.832
 2107TIP3    H1 6262   7.522   0.293   5.866
 2107TIP3    H2 6263   7.489   0.152   5.910
 2108TIP3   OH2 6264   4.756   4.332   5.803
 2108TIP3    H1 6265   4.709   4.279   5.868
 2108TIP3    H2 6266   4.746   4.422   5.833
 2109TIP3   OH2 6267   7.709   1.149   5.270
 2109TIP3    H1 6268   7.782   1.187   5.221
 2109TIP3    H2 6269   7.657   1.103   5.203
 2110TIP3   OH2 6270   2.282   4.315   6.788
 2110TIP3    H1 6271   2.281   4.360   6.873
 2110TIP3    H2 6272   2.319   4.229   6.807
 2111TIP3   OH2 6273   4.152   7.185   3.566
 2111TIP3    H1 6274   4.209   7.192   3.489
 2111TIP3    H2 6275   4.076   7.238   3.545
 2112TIP3   OH2 6276   4.606   5.597   2.800
 2112TIP3    H1 6277   4.589   5.623   2.710
 2112TIP3    H2 6278   4.646   5.511   2.793
 2113TIP3   OH2 6279   6.606   5.965   1.898
 2113TIP3    H1 6280   6.569   5.934   1.981
 2113TIP3    H2 6281   6.696   5.987   1.919
 2114TIP3   OH2 6282   5.958   0.798   6.830
 2114TIP3    H1 6283   5.942   0.857   6.903
 2114TIP3    H2 6284   6.049   0.813   6.805
 2115TIP3   OH2 6285   0.156   3.538   4.480
 2115TIP3    H1 6286   0.252   3.532   4.471
 2115TIP3    H2 6287   0.130   3.603   4.415
 2116TIP3   OH2 6288   7.727   0.644   4.847
 2116TIP3    H1 6289   7.805   0.634   4.792
 2116TIP3    H2 6290   7.653   0.634   4.787
 2117TIP3   OH2 6291   7.476   3.625   0.175
 2117TIP3    H1 6292   7.382   3.640   0.187
 2117TIP3    H2 6293   7.518   3.680   0.241
 2118TIP3   OH2 6294   2.155   3.047   3.246
 2118TIP3    H1 6295   2.223   3.069   3.310
 2118TIP3    H2 6296   2.119   3.132   3.221
 2119TIP3   OH2 6297   2.535   1.463   5.442
 2119TIP3    H1 6298   2.479   1.531   5.480
 2119TIP3    H2 6299   2.617   1.507   5.422
 2120TIP3   OH2 6300   5.590   6.466   4.506
 2120TIP3    H1 6301   5.658   6.532   4.518
 2120TIP3    H2 6302   5.527   6.506   4.446
 2121TIP3   OH2 6303   3.590   6.431   0.972
 2121TIP3    H1 6304   3.572   6.398   1.060
 2121TIP3    H2 6305   3.684   6.448   0.972
 2122TIP3   OH2 6306   6.981   7.873   6.264
 2122TIP3    H1 6307   6.953   7.957   6.228
 2122TIP3    H2 6308   7.075   7.884   6.280
 2123TIP3   OH2 6309   4.511   5.922   5.449
 2123TIP3    H1 6310   4.518   5.870   5.529
 2123TIP3    H2 6311   4.592   5.974   5.447
 2124TIP3   OH2 6312   8.247   7.170   4.254
 2124TIP3    H1 6313   8.342   7.161   4.246
 2124TIP3    H2 6314   8.233   7.199   4.343
 2125TIP3   OH2 6315   3.666   2.308   3.037
 2125TIP3    H1 6316   3.647   2.362   2.961
 2125TIP3    H2 6317   3.712   2.232   3.002
 2126TIP3   OH2 6318   0.977   4.420   2.765
 2126TIP3    H1 6319   1.059   4.444   2.721
 2126TIP3    H2 6320   0.956   4.496   2.819
 2127TIP3   OH2 6321   7.240   5.632   3.341
 2127TIP3    H1 6322   7.306   5.669   3.282
 2127TIP3    H2 6323   7.290   5.582   3.406
 2128TIP3   OH2 6324   3.978   7.103   0.825
 2128TIP3    H1 6325   3.959   7.049   0.749
 2128TIP3    H2 6326   4.067   7.136   0.810
 2129TIP3   OH2 6327   3.930   6.151   0.776
 2129TIP3    H1 6328   3.861   6.204   0.736
 2129TIP3    H2 6329   3.977   6.113   0.701
 2130TIP3   OH2 6330   0.763   7.372   2.931
 2130TIP3    H1 6331   0.721   7.291   2.957
 2130TIP3    H2 6332   0.726   7.438   2.990
 2131TIP3   OH2 6333   7.209   3.636   4.622
 2131TIP3    H1 6334   7.212   3.717   4.673
 2131TIP3    H2 6335   7.267   3.576   4.669
 2132TIP3   OH2 6336   0.635   4.933   1.209
 2132TIP3    H1 6337   0.713   4.900   1.164
 2132TIP3    H2 6338   0.562   4.903   1.154
 2133TIP3   OH2 6339   1.739   0.443   5.825
 2133TIP3    H1 6340   1.833   0.430   5.829
 2133TIP3    H2 6341   1.711   0.394   5.747
 2134TIP3   OH2 6342   0.850   0.428   3.727
 2134TIP3    H1 6343   0.807   0.376   3.660
 2134TIP3    H2 6344   0.806   0.405   3.809
 2135TIP3   OH2 6345   2.049   6.570   3.623
 2135TIP3    H1 6346   1.979   6.530   3.572
 2135TIP3    H2 6347   2.005   6.634   3.679
 2136TIP3   OH2 6348   5.071   3.980   4.453
 2136TIP3    H1 6349   5.141   4.003   4.514
 2136TIP3    H2 6350   5.116   3.949   4.375
 2137TIP3   OH2 6351   6.022   6.451   1.263
 2137TIP3    H1 6352   5.961   6.381   1.286
 2137TIP3    H2 6353   6.105   6.426   1.304
 2138TIP3   OH2 6354   5.705   5.650   1.961
 2138TIP3    H1 6355   5.788   5.688   1.989
 2138TIP3    H2 6356   5.642   5.674   2.029
 2139TIP3   OH2 6357   1.936   6.682   5.783
 2139TIP3    H1 6358   1.911   6.773   5.799
 2139TIP3    H2 6359   2.018   6.672   5.830
 2140TIP3   OH2 6360   2.841   6.062   4.987
 2140TIP3    H1 6361   2.923   6.083   4.941
 2140TIP3    H2 6362   2.785   6.024   4.919
 2141TIP3   OH2 6363   4.114   0.851   5.143
 2141TIP3    H1 6364   4.080   0.810   5.063
 2141TIP3    H2 6365   4.037   0.892   5.183
 2142TIP3   OH2 6366   5.333   1.788   2.189
 2142TIP3    H1 6367   5.310   1.722   2.123
 2142TIP3    H2 6368   5.334   1.739   2.272
 2143TIP3   OH2 6369   8.020   4.529   1.563
 2143TIP3    H1 6370   8.114   4.546   1.573
 2143TIP3    H2 6371   7.986   4.607   1.520
 2144TIP3   OH2 6372   2.958   5.124   0.910
 2144TIP3    H1 6373   3.007   5.174   0.975
 2144TIP3    H2 6374   3.020   5.110   0.838
 2145TIP3   OH2 6375   2.053   7.131   1.855
 2145TIP3    H1 6376   2.068   7.190   1.929
 2145TIP3    H2 6377   2.049   7.044   1.894
 2146TIP3   OH2 6378   6.601   1.829   0.708
 2146TIP3    H1 6379   6.692   1.842   0.683
 2146TIP3    H2 6380   6.558   1.913   0.692
 2147TIP3   OH2 6381   7.257   0.315   1.966
 2147TIP3    H1 6382   7.304   0.380   1.914
 2147TIP3    H2 6383   7.285   0.231   1.930
 2148TIP3   OH2 6384   8.022   4.381   5.104
 2148TIP3    H1 6385   7.938   4.403   5.065
 2148TIP3    H2 6386   8.043   4.294   5.070
 2149TIP3   OH2 6387   8.286   0.675   2.838
 2149TIP3    H1 6388   8.324   0.627   2.912
 2149TIP3    H2 6389   8.360   0.722   2.800
 2150TIP3   OH2 6390   8.042   7.294   1.600
 2150TIP3    H1 6391   8.137   7.288   1.586
 2150TIP3    H2 6392   8.030   7.261   1.690
 2151TIP3   OH2 6393   8.052   0.055   6.003
 2151TIP3    H1 6394   7.980   0.115   5.984
 2151TIP3    H2 6395   8.065   0.064   6.098
 2152TIP3   OH2 6396   1.961   6.620   3.259
 2152TIP3    H1 6397   1.915   6.657   3.334
 2152TIP3    H2 6398   1.929   6.530   3.253
 2153TIP3   OH2 6399   3.225   1.375   2.847
 2153TIP3    H1 6400   3.216   1.313   2.919
 2153TIP3    H2 6401   3.175   1.451   2.875
 2154TIP3   OH2 6402   6.847  -0.013   1.361
 2154TIP3    H1 6403   6.762   0.030   1.359
 2154TIP3    H2 6404   6.900   0.034   1.297
 2155TIP3   OH2 6405   4.589   0.423   5.813
 2155TIP3    H1 6406   4.582   0.459   5.725
 2155TIP3    H2 6407   4.683   0.407   5.825
 2156TIP3   OH2 6408   6.889   3.553   2.120
 2156TIP3    H1 6409   6.928   3.469   2.143
 2156TIP3    H2 6410   6.869   3.546   2.027
 2157TIP3   OH2 6411   7.127   0.988   1.001
 2157TIP3    H1 6412   7.070   1.019   0.931
 2157TIP3    H2 6413   7.068   0.966   1.073
 2158TIP3   OH2 6414   3.108   1.499   4.921
 2158TIP3    H1 6415   3.101   1.404   4.935
 2158TIP3    H2 6416   3.152   1.532   4.999
 2159TIP3   OH2 6417   0.638   3.870   4.694
 2159TIP3    H1 6418   0.591   3.940   4.649
 2159TIP3    H2 6419   0.723   3.908   4.716
 2160TIP3   OH2 6420   4.415   5.753   4.673
 2160TIP3    H1 6421   4.499   5.728   4.634
 2160TIP3    H2 6422   4.362   5.673   4.667
 2161TIP3   OH2 6423   1.538   3.439   3.119
 2161TIP3    H1 6424   1.492   3.396   3.192
 2161TIP3    H2 6425   1.491   3.408   3.041
 2162TIP3   OH2 6426   3.710   1.011   6.547
 2162TIP3    H1 6427   3.772   1.082   6.525
 2162TIP3    H2 6428   3.750   0.932   6.510
 2163TIP3   OH2 6429   7.817   6.369   6.835
 2163TIP3    H1 6430   7.789   6.411   6.916
 2163TIP3    H2 6431   7.838   6.442   6.776
 2164TIP3   OH2 6432   0.409   4.949   2.762
 2164TIP3    H1 6433   0.375   5.036   2.740
 2164TIP3    H2 6434   0.503   4.955   2.742
 2165TIP3   OH2 6435   2.873   1.022   0.333
 2165TIP3    H1 6436   2.857   1.113   0.359
 2165TIP3    H2 6437   2.815   1.008   0.258
 2166TIP3   OH2 6438   2.774   7.345   3.383
 2166TIP3    H1 6439   2.822   7.263   3.392
 2166TIP3    H2 6440   2.758   7.352   3.289
 2167TIP3   OH2 6441   4.533   5.485   6.461
 2167TIP3    H1 6442   4.624   5.479   6.489
 2167TIP3    H2 6443   4.525   5.419   6.392
 2168TIP3   OH2 6444   6.243   2.559   2.459
 2168TIP3    H1 6445   6.195   2.510   2.526
 2168TIP3    H2 6446   6.243   2.649   2.491
 2169TIP3   OH2 6447   5.673   5.654   4.762
 2169TIP3    H1 6448   5.667   5.559   4.754
 2169TIP3    H2 6449   5.732   5.681   4.692
 2170TIP3   OH2 6450   8.128   3.228   1.151
 2170TIP3    H1 6451   8.177   3.147   1.167
 2170TIP3    H2 6452   8.158   3.288   1.219
 2171TIP3   OH2 6453   8.183   4.077   1.197
 2171TIP3    H1 6454   8.112   4.024   1.232
 2171TIP3    H2 6455   8.224   4.022   1.130
 2172TIP3   OH2 6456   2.013   4.109   4.952
 2172TIP3    H1 6457   2.065   4.184   4.925
 2172TIP3    H2 6458   1.944   4.147   5.008
 2173TIP3   OH2 6459   8.040   6.414   0.558
 2173TIP3    H1 6460   8.127   6.453   0.565
 2173TIP3    H2 6461   8.041   6.341   0.620
 2174TIP3   OH2 6462   7.212   5.646   2.641
 2174TIP3    H1 6463   7.211   5.742   2.634
 2174TIP3    H2 6464   7.141   5.617   2.584
 2175TIP3   OH2 6465   7.708   7.729   6.592
 2175TIP3    H1 6466   7.696   7.698   6.502
 2175TIP3    H2 6467   7.658   7.810   6.596
 2176TIP3   OH2 6468   5.699   4.162   0.260
 2176TIP3    H1 6469   5.691   4.148   0.354
 2176TIP3    H2 6470   5.792   4.148   0.241
 2177TIP3   OH2 6471   6.017   1.566   3.976
 2177TIP3    H1 6472   5.989   1.655   3.998
 2177TIP3    H2 6473   6.085   1.546   4.040
 2178TIP3   OH2 6474   3.993   6.371   5.691
 2178TIP3    H1 6475   4.003   6.409   5.604
 2178TIP3    H2 6476   3.968   6.444   5.747
 2179TIP3   OH2 6477   4.535   2.982   0.939
 2179TIP3    H1 6478   4.579   2.967   0.855
 2179TIP3    H2 6479   4.480   2.904   0.950
 2180TIP3   OH2 6480   4.740   0.437   3.319
 2180TIP3    H1 6481   4.831   0.406   3.313
 2180TIP3    H2 6482   4.723   0.445   3.412
 2181TIP3   OH2 6483   5.223   7.228   0.966
 2181TIP3    H1 6484   5.182   7.210   0.881
 2181TIP3    H2 6485   5.245   7.321   0.963
 2182TIP3   OH2 6486   7.203   0.147   4.768
 2182TIP3    H1 6487   7.150   0.133   4.690
 2182TIP3    H2 6488   7.153   0.107   4.839
 2183TIP3   OH2 6489   4.922   2.856   3.294
 2183TIP3    H1 6490   4.956   2.940   3.263
 2183TIP3    H2 6491   4.849   2.837   3.236
 2184TIP3   OH2 6492   1.568   4.116   3.014
 2184TIP3    H1 6493   1.513   4.177   2.965
 2184TIP3    H2 6494   1.544   4.131   3.105
 2185TIP3   OH2 6495   4.463   4.177   1.989
 2185TIP3    H1 6496   4.460   4.218   1.903
 2185TIP3    H2 6497   4.436   4.247   2.049
 2186TIP3   OH2 6498   1.194   7.468   1.549
 2186TIP3    H1 6499   1.195   7.386   1.599
 2186TIP3    H2 6500   1.219   7.442   1.461
 2187TIP3   OH2 6501   2.961   5.806   4.355
 2187TIP3    H1 6502   2.868   5.830   4.356
 2187TIP3    H2 6503   2.973   5.760   4.271
 2188TIP3   OH2 6504   2.061   1.152   5.411
 2188TIP3    H1 6505   2.000   1.193   5.473
 2188TIP3    H2 6506   2.005   1.115   5.343
 2189TIP3   OH2 6507   5.684   1.126   1.891
 2189TIP3    H1 6508   5.627   1.198   1.865
 2189TIP3    H2 6509   5.644   1.091   1.970
 2190TIP3   OH2 6510   0.942   3.969   5.184
 2190TIP3    H1 6511   0.848   3.981   5.166
 2190TIP3    H2 6512   0.985   3.992   5.102
 2191TIP3   OH2 6513   6.803   5.602   4.255
 2191TIP3    H1 6514   6.866   5.640   4.316
 2191TIP3    H2 6515   6.718   5.618   4.297
 2192TIP3   OH2 6516   3.815   1.083   1.421
 2192TIP3    H1 6517   3.854   1.147   1.479
 2192TIP3    H2 6518   3.790   1.133   1.343
 2193TIP3   OH2 6519   6.548   5.678   1.609
 2193TIP3    H1 6520   6.595   5.752   1.647
 2193TIP3    H2 6521   6.587   5.667   1.522
 2194TIP3   OH2 6522   6.821   2.349   5.134
 2194TIP3    H1 6523   6.821   2.257   5.108
 2194TIP3    H2 6524   6.914   2.369   5.149
 2195TIP3   OH2 6525   3.481   6.028   0.144
 2195TIP3    H1 6526   3.475   6.078   0.063
 2195TIP3    H2 6527   3.404   5.972   0.143
 2196TIP3   OH2 6528   3.547   1.187   4.882
 2196TIP3    H1 6529   3.499   1.262   4.846
 2196TIP3    H2 6530   3.502   1.111   4.846
 2197TIP3   OH2 6531   4.451   1.433   3.080
 2197TIP3    H1 6532   4.385   1.418   3.013
 2197TIP3    H2 6533   4.403   1.429   3.163
 2198TIP3   OH2 6534   5.195   2.786   2.026
 2198TIP3    H1 6535   5.154   2.872   2.030
 2198TIP3    H2 6536   5.202   2.758   2.117
 2199TIP3   OH2 6537   2.308   1.508   5.920
 2199TIP3    H1 6538   2.299   1.594   5.878
 2199TIP3    H2 6539   2.308   1.527   6.014
 2200TIP3   OH2 6540   5.947   0.498   5.655
 2200TIP3    H1 6541   5.864   0.507   5.608
 2200TIP3    H2 6542   6.013   0.489   5.587
 2201TIP3   OH2 6543   6.299   1.160   2.923
 2201TIP3    H1 6544   6.319   1.245   2.962
 2201TIP3    H2 6545   6.375   1.106   2.943
 2202TIP3   OH2 6546   7.328   6.396   2.899
 2202TIP3    H1 6547   7.393   6.447   2.851
 2202TIP3    H2 6548   7.335   6.427   2.990
 2203TIP3   OH2 6549   3.636   1.263   5.887
 2203TIP3    H1 6550   3.661   1.337   5.832
 2203TIP3    H2 6551   3.601   1.198   5.826
 2204TIP3   OH2 6552   5.387   6.846   4.914
 2204TIP3    H1 6553   5.348   6.837   5.001
 2204TIP3    H2 6554   5.345   6.778   4.862
 2205TIP3   OH2 6555   4.590   3.243   2.962
 2205TIP3    H1 6556   4.511   3.295   2.978
 2205TIP3    H2 6557   4.612   3.259   2.871
 2206TIP3   OH2 6558   6.432   7.624   3.277
 2206TIP3    H1 6559   6.451   7.597   3.367
 2206TIP3    H2 6560   6.342   7.594   3.262
 2207TIP3   OH2 6561   3.179   0.411   0.795
 2207TIP3    H1 6562   3.138   0.496   0.808
 2207TIP3    H2 6563   3.194   0.377   0.884
 2208TIP3   OH2 6564   1.487   3.599   3.485
 2208TIP3    H1 6565   1.511   3.691   3.496
 2208TIP3    H2 6566   1.410   3.587   3.542
 2209TIP3   OH2 6567   5.391   4.853   5.346
 2209TIP3    H1 6568   5.390   4.859   5.441
 2209TIP3    H2 6569   5.457   4.917   5.319
 2210TIP3   OH2 6570   2.090   4.365   0.170
 2210TIP3    H1 6571   2.103   4.418   0.249
 2210TIP3    H2 6572   2.163   4.389   0.113
 2211TIP3   OH2 6573   1.332   4.435   5.672
 2211TIP3    H1 6574   1.395   4.506   5.659
 2211TIP3    H2 6575   1.380   4.355   5.651
 2212TIP3   OH2 6576   3.997   6.480   1.383
 2212TIP3    H1 6577   3.952   6.491   1.467
 2212TIP3    H2 6578   3.946   6.412   1.338
 2213TIP3   OH2 6579   1.802   3.449   5.297
 2213TIP3    H1 6580   1.898   3.441   5.296
 2213TIP3    H2 6581   1.774   3.389   5.366
 2214TIP3   OH2 6582   0.014   2.405   0.707
 2214TIP3    H1 6583   0.062   2.346   0.649
 2214TIP3    H2 6584   0.080   2.469   0.735
 2215TIP3   OH2 6585   0.638   4.639   3.911
 2215TIP3    H1 6586   0.587   4.564   3.883
 2215TIP3    H2 6587   0.668   4.616   3.999
 2216TIP3   OH2 6588   3.905   2.624   1.192
 2216TIP3    H1 6589   3.960   2.546   1.194
 2216TIP3    H2 6590   3.867   2.625   1.104
 2217TIP3   OH2 6591   7.973   6.878   2.541
 2217TIP3    H1 6592   7.995   6.796   2.496
 2217TIP3    H2 6593   7.880   6.890   2.525
 2218TIP3   OH2 6594   2.660   1.845   6.093
 2218TIP3    H1 6595   2.718   1.910   6.133
 2218TIP3    H2 6596   2.579   1.850   6.144
 2219TIP3   OH2 6597   1.178   4.529   2.965
 2219TIP3    H1 6598   1.221   4.608   2.998
 2219TIP3    H2 6599   1.129   4.495   3.039
 2220TIP3   OH2 6600   5.810   6.051   1.973
 2220TIP3    H1 6601   5.789   6.137   2.010
 2220TIP3    H2 6602   5.725   6.008   1.963
 2221TIP3   OH2 6603   5.270   4.298   3.677
 2221TIP3    H1 6604   5.281   4.283   3.771
 2221TIP3    H2 6605   5.326   4.374   3.659
 2222TIP3   OH2 6606   3.360   4.350   2.371
 2222TIP3    H1 6607   3.366   4.254   2.366
 2222TIP3    H2 6608   3.392   4.380   2.286
 2223TIP3   OH2 6609   7.962   5.959   3.688
 2223TIP3    H1 6610   7.980   5.926   3.600
 2223TIP3    H2 6611   7.867   5.959   3.694
 2224TIP3   OH2 6612   1.880   7.045   0.786
 2224TIP3    H1 6613   1.914   6.963   0.823
 2224TIP3    H2 6614   1.843   7.019   0.701
 2225TIP3   OH2 6615   1.575   5.902   4.140
 2225TIP3    H1 6616   1.571   5.998   4.145
 2225TIP3    H2 6617   1.566   5.873   4.231
 2226TIP3   OH2 6618   6.311   5.439   4.051
 2226TIP3    H1 6619   6.370   5.416   3.980
 2226TIP3    H2 6620   6.345   5.522   4.084
 2227TIP3   OH2 6621   5.654   0.669   0.332
 2227TIP3    H1 6622   5.689   0.622   0.256
 2227TIP3    H2 6623   5.560   0.655   0.328
 2228TIP3   OH2 6624   4.770   2.734   2.642
 2228TIP3    H1 6625   4.717   2.654   2.639
 2228TIP3    H2 6626   4.859   2.704   2.659
 2229TIP3   OH2 6627   4.028   3.051   2.996
 2229TIP3    H1 6628   4.074   2.989   2.938
 2229TIP3    H2 6629   3.941   3.013   3.008
 2230TIP3   OH2 6630   7.510   6.350   4.785
 2230TIP3    H1 6631   7.451   6.422   4.766
 2230TIP3    H2 6632   7.568   6.346   4.709
 2231TIP3   OH2 6633   5.526   2.760   0.766
 2231TIP3    H1 6634   5.606   2.751   0.714
 2231TIP3    H2 6635   5.554   2.741   0.855
 2232TIP3   OH2 6636   5.058   3.752   1.766
 2232TIP3    H1 6637   5.139   3.714   1.799
 2232TIP3    H2 6638   4.993   3.731   1.834
 2233TIP3   OH2 6639   3.468   2.279   4.942
 2233TIP3    H1 6640   3.492   2.325   5.023
 2233TIP3    H2 6641   3.444   2.349   4.881
 2234TIP3   OH2 6642   7.531   2.049   0.380
 2234TIP3    H1 6643   7.615   2.021   0.343
 2234TIP3    H2 6644   7.550   2.073   0.470
 2235TIP3   OH2 6645   3.678   0.740   6.335
 2235TIP3    H1 6646   3.755   0.741   6.277
 2235TIP3    H2 6647   3.701   0.678   6.404
 2236TIP3   OH2 6648   3.348   6.882   4.153
 2236TIP3    H1 6649   3.269   6.881   4.098
 2236TIP3    H2 6650   3.418   6.911   4.094
 2237TIP3   OH2 6651   1.822   4.518   0.665
 2237TIP3    H1 6652   1.889   4.584   0.685
 2237TIP3    H2 6653   1.739   4.567   0.666
 2238TIP3   OH2 6654   5.562   0.800   3.907
 2238TIP3    H1 6655   5.655   0.787   3.888
 2238TIP3    H2 6656   5.561   0.851   3.988
 2239TIP3   OH2 6657   6.553   6.429   0.448
 2239TIP3    H1 6658   6.616   6.428   0.520
 2239TIP3    H2 6659   6.605   6.410   0.370
 2240TIP3   OH2 6660   3.753   4.640   5.891
 2240TIP3    H1 6661   3.700   4.695   5.834
 2240TIP3    H2 6662   3.699   4.563   5.907
 2241TIP3   OH2 6663   7.973   5.151   2.013
 2241TIP3    H1 6664   7.887   5.134   1.976
 2241TIP3    H2 6665   8.015   5.211   1.951
 2242TIP3   OH2 6666   6.525   2.942   0.000
 2242TIP3    H1 6667   6.451   2.882   0.000
 2242TIP3    H2 6668   6.517   2.991   0.081
 2243TIP3   OH2 6669   6.306   2.465   0.884
 2243TIP3    H1 6670   6.299   2.488   0.977
 2243TIP3    H2 6671   6.364   2.388   0.883
 2244TIP3   OH2 6672   4.361   2.289   6.075
 2244TIP3    H1 6673   4.367   2.321   5.985
 2244TIP3    H2 6674   4.447   2.307   6.113
 2245TIP3   OH2 6675   1.519   1.304   6.689
 2245TIP3    H1 6676   1.550   1.251   6.762
 2245TIP3    H2 6677   1.547   1.257   6.611
 2246TIP3   OH2 6678   2.629   6.758   1.855
 2246TIP3    H1 6679   2.560   6.820   1.880
 2246TIP3    H2 6680   2.708   6.812   1.846
 2247TIP3   OH2 6681   7.172   1.513   4.306
 2247TIP3    H1 6682   7.207   1.596   4.274
 2247TIP3    H2 6683   7.161   1.459   4.228
 2248TIP3   OH2 6684   5.184   7.188   2.935
 2248TIP3    H1 6685   5.100   7.198   2.980
 2248TIP3    H2 6686   5.165   7.206   2.843
 2249TIP3   OH2 6687   3.602   6.546   2.693
 2249TIP3    H1 6688   3.636   6.635   2.684
 2249TIP3    H2 6689   3.522   6.556   2.744
 2250TIP3   OH2 6690   5.023   5.343   6.339
 2250TIP3    H1 6691   4.960   5.278   6.307
 2250TIP3    H2 6692   5.054   5.387   6.259
 2251TIP3   OH2 6693   1.377   0.143   0.171
 2251TIP3    H1 6694   1.471   0.125   0.181
 2251TIP3    H2 6695   1.350   0.177   0.256
 2252TIP3   OH2 6696   7.419   0.318   5.046
 2252TIP3    H1 6697   7.477   0.254   5.005
 2252TIP3    H2 6698   7.415   0.291   5.138
 2253TIP3   OH2 6699   4.049   1.311   4.628
 2253TIP3    H1 6700   3.965   1.346   4.656
 2253TIP3    H2 6701   4.106   1.387   4.620
 2254TIP3   OH2 6702   1.320   0.025   0.415
 2254TIP3    H1 6703   1.383  -0.023   0.362
 2254TIP3    H2 6704   1.372   0.089   0.463
 2255TIP3   OH2 6705   3.999   4.281   4.949
 2255TIP3    H1 6706   3.908   4.291   4.922
 2255TIP3    H2 6707   4.009   4.339   5.024
 2256TIP3   OH2 6708   7.319   0.857   2.358
 2256TIP3    H1 6709   7.288   0.907   2.433
 2256TIP3    H2 6710   7.268   0.890   2.284
 2257TIP3   OH2 6711   4.398   1.242   4.564
 2257TIP3    H1 6712   4.394   1.270   4.655
 2257TIP3    H2 6713   4.360   1.314   4.514
 2258TIP3   OH2 6714   1.916   4.112   4.256
 2258TIP3    H1 6715   1.897   4.031   4.304
 2258TIP3    H2 6716   1.861   4.106   4.178
 2259TIP3   OH2 6717   7.655   2.627   1.951
 2259TIP3    H1 6718   7.667   2.612   1.857
 2259TIP3    H2 6719   7.619   2.715   1.957
 2260TIP3   OH2 6720   8.000   6.433   2.063
 2260TIP3    H1 6721   8.059   6.476   2.124
 2260TIP3    H2 6722   7.974   6.352   2.107
 2261TIP3   OH2 6723   0.378   2.376   3.153
 2261TIP3    H1 6724   0.468   2.344   3.153
 2261TIP3    H2 6725   0.379   2.450   3.092
 2262TIP3   OH2 6726   0.762   1.803   1.002
 2262TIP3    H1 6727   0.710   1.811   1.082
 2262TIP3    H2 6728   0.735   1.719   0.965
 2263TIP3   OH2 6729   4.489   1.483   4.311
 2263TIP3    H1 6730   4.454   1.547   4.248
 2263TIP3    H2 6731   4.413   1.429   4.334
 2264TIP3   OH2 6732   2.812   6.946   3.853
 2264TIP3    H1 6733   2.758   6.874   3.885
 2264TIP3    H2 6734   2.882   6.955   3.918
 2265TIP3   OH2 6735   1.549   6.669   1.768
 2265TIP3    H1 6736   1.552   6.758   1.803
 2265TIP3    H2 6737   1.625   6.664   1.710
 2266TIP3   OH2 6738   5.199   7.108   5.382
 2266TIP3    H1 6739   5.244   7.166   5.443
 2266TIP3    H2 6740   5.107   7.131   5.390
 2267TIP3   OH2 6741   3.773   3.625   3.606
 2267TIP3    H1 6742   3.843   3.614   3.541
 2267TIP3    H2 6743   3.816   3.613   3.690
 2268TIP3   OH2 6744   5.562   7.745   4.138
 2268TIP3    H1 6745   5.595   7.805   4.070
 2268TIP3    H2 6746   5.482   7.708   4.100
 2269TIP3   OH2 6747   3.144   0.931   1.881
 2269TIP3    H1 6748   3.126   1.025   1.891
 2269TIP3    H2 6749   3.221   0.916   1.934
 2270TIP3   OH2 6750   1.998   6.063   2.552
 2270TIP3    H1 6751   1.986   6.077   2.458
 2270TIP3    H2 6752   1.970   6.146   2.592
 2271TIP3   OH2 6753   3.486   0.922   0.376
 2271TIP3    H1 6754   3.573   0.961   0.385
 2271TIP3    H2 6755   3.500   0.828   0.381
 2272TIP3   OH2 6756   2.839   2.033   6.524
 2272TIP3    H1 6757   2.894   1.988   6.460
 2272TIP3    H2 6758   2.796   1.963   6.572
 2273TIP3   OH2 6759   6.331   2.958   3.125
 2273TIP3    H1 6760   6.371   2.871   3.133
 2273TIP3    H2 6761   6.398   3.019   3.153
 2274TIP3   OH2 6762   3.093   2.825   6.630
 2274TIP3    H1 6763   3.073   2.877   6.552
 2274TIP3    H2 6764   3.169   2.867   6.669
 2275TIP3   OH2 6765   6.229   4.842   0.522
 2275TIP3    H1 6766   6.253   4.750   0.516
 2275TIP3    H2 6767   6.162   4.854   0.454
 2276TIP3   OH2 6768   4.187   4.652   3.768
 2276TIP3    H1 6769   4.198   4.559   3.751
 2276TIP3    H2 6770   4.092   4.666   3.768
 2277TIP3   OH2 6771   5.746   6.617   3.570
 2277TIP3    H1 6772   5.678   6.560   3.607
 2277TIP3    H2 6773   5.700   6.669   3.505
 2278TIP3   OH2 6774   5.555   4.147   5.897
 2278TIP3    H1 6775   5.621   4.099   5.948
 2278TIP3    H2 6776   5.601   4.174   5.818
 2279TIP3   OH2 6777   3.368   4.626   0.998
 2279TIP3    H1 6778   3.371   4.705   1.052
 2279TIP3    H2 6779   3.384   4.554   1.059
 2280TIP3   OH2 6780   6.770   1.451   0.543
 2280TIP3    H1 6781   6.861   1.466   0.568
 2280TIP3    H2 6782   6.774   1.385   0.474
 2281TIP3   OH2 6783   7.647   1.870   0.878
 2281TIP3    H1 6784   7.724   1.813   0.876
 2281TIP3    H2 6785   7.586   1.830   0.815
 2282TIP3   OH2 6786   4.984   7.568   2.002
 2282TIP3    H1 6787   5.057   7.626   1.982
 2282TIP3    H2 6788   4.907   7.616   1.972
 2283TIP3   OH2 6789   4.159   6.832   0.524
 2283TIP3    H1 6790   4.207   6.888   0.585
 2283TIP3    H2 6791   4.214   6.829   0.447
 2284TIP3   OH2 6792   4.889   1.838   1.959
 2284TIP3    H1 6793   4.966   1.874   2.004
 2284TIP3    H2 6794   4.876   1.752   1.999
 2285TIP3   OH2 6795   7.403   2.146   4.896
 2285TIP3    H1 6796   7.342   2.087   4.851
 2285TIP3    H2 6797   7.483   2.143   4.844
 2286TIP3   OH2 6798   0.436   2.098   6.019
 2286TIP3    H1 6799   0.446   2.078   6.112
 2286TIP3    H2 6800   0.347   2.070   5.998
 2287TIP3   OH2 6801   4.425   6.667   4.400
 2287TIP3    H1 6802   4.401   6.709   4.483
 2287TIP3    H2 6803   4.394   6.728   4.333
 2288TIP3   OH2 6804   6.308   0.164   3.825
 2288TIP3    H1 6805   6.363   0.236   3.794
 2288TIP3    H2 6806   6.355   0.085   3.801
 2289TIP3   OH2 6807   4.608   3.919   6.076
 2289TIP3    H1 6808   4.522   3.900   6.113
 2289TIP3    H2 6809   4.648   3.833   6.063
 2290TIP3   OH2 6810   0.467   4.018   4.511
 2290TIP3    H1 6811   0.392   4.045   4.458
 2290TIP3    H2 6812   0.500   4.100   4.548
 2291TIP3   OH2 6813   3.655   3.102   1.635
 2291TIP3    H1 6814   3.742   3.133   1.660
 2291TIP3    H2 6815   3.667   3.070   1.545
 2292TIP3   OH2 6816   8.269   2.077   5.268
 2292TIP3    H1 6817   8.266   2.155   5.213
 2292TIP3    H2 6818   8.179   2.043   5.266
 2293TIP3   OH2 6819   5.894   0.817   3.561
 2293TIP3    H1 6820   5.848   0.737   3.585
 2293TIP3    H2 6821   5.969   0.820   3.621
 2294TIP3   OH2 6822   7.123   2.735   2.617
 2294TIP3    H1 6823   7.148   2.649   2.651
 2294TIP3    H2 6824   7.027   2.730   2.610
 2295TIP3   OH2 6825   2.853   7.275   3.108
 2295TIP3    H1 6826   2.847   7.180   3.113
 2295TIP3    H2 6827   2.815   7.296   3.022
 2296TIP3   OH2 6828   1.004   6.703   6.646
 2296TIP3    H1 6829   0.987   6.613   6.618
 2296TIP3    H2 6830   0.917   6.744   6.647
 2297TIP3   OH2 6831   3.483   1.655   5.306
 2297TIP3    H1 6832   3.565   1.703   5.295
 2297TIP3    H2 6833   3.497   1.599   5.382
 2298TIP3   OH2 6834   0.695   0.509   6.468
 2298TIP3    H1 6835   0.731   0.563   6.398
 2298TIP3    H2 6836   0.604   0.493   6.443
 2299TIP3   OH2 6837   5.856   0.917   5.471
 2299TIP3    H1 6838   5.889   0.887   5.386
 2299TIP3    H2 6839   5.792   0.985   5.449
 2300TIP3   OH2 6840   2.726   1.708   6.790
 2300TIP3    H1 6841   2.815   1.696   6.757
 2300TIP3    H2 6842   2.676   1.636   6.752
 2301TIP3   OH2 6843   3.449   4.414   1.163
 2301TIP3    H1 6844   3.367   4.365   1.160
 2301TIP3    H2 6845   3.516   4.348   1.178
 2302TIP3   OH2 6846   3.176   1.567   6.178
 2302TIP3    H1 6847   3.088   1.596   6.153
 2302TIP3    H2 6848   3.195   1.616   6.258
 2303TIP3   OH2 6849   3.530   1.356   0.393
 2303TIP3    H1 6850   3.525   1.352   0.298
 2303TIP3    H2 6851   3.598   1.420   0.412
 2304TIP3   OH2 6852   4.299   5.303   3.128
 2304TIP3    H1 6853   4.388   5.326   3.101
 2304TIP3    H2 6854   4.262   5.386   3.158
 2305TIP3   OH2 6855   5.290   7.651   6.096
 2305TIP3    H1 6856   5.385   7.651   6.089
 2305TIP3    H2 6857   5.272   7.643   6.189
 2306TIP3   OH2 6858   0.019   3.150   5.504
 2306TIP3    H1 6859   0.000   3.156   5.411
 2306TIP3    H2 6860   0.083   3.219   5.520
 2307TIP3   OH2 6861   8.050   5.781   0.393
 2307TIP3    H1 6862   8.074   5.735   0.473
 2307TIP3    H2 6863   8.119   5.847   0.381
 2308TIP3   OH2 6864   1.117   2.261   2.702
 2308TIP3    H1 6865   1.034   2.307   2.691
 2308TIP3    H2 6866   1.161   2.270   2.617
 2309TIP3   OH2 6867   3.439   6.362   2.820
 2309TIP3    H1 6868   3.525   6.368   2.862
 2309TIP3    H2 6869   3.394   6.291   2.866
 2310TIP3   OH2 6870   3.041   2.078   2.129
 2310TIP3    H1 6871   2.993   2.005   2.166
 2310TIP3    H2 6872   3.124   2.080   2.178
 2311TIP3   OH2 6873   2.290   2.200   0.660
 2311TIP3    H1 6874   2.233   2.127   0.685
 2311TIP3    H2 6875   2.264   2.272   0.718
 2312TIP3   OH2 6876   4.600   2.117   4.093
 2312TIP3    H1 6877   4.626   2.125   4.001
 2312TIP3    H2 6878   4.524   2.176   4.101
 2313TIP3   OH2 6879   5.149   6.538   1.257
 2313TIP3    H1 6880   5.152   6.448   1.226
 2313TIP3    H2 6881   5.240   6.568   1.254
 2314TIP3   OH2 6882   5.234   4.915   2.247
 2314TIP3    H1 6883   5.186   4.832   2.248
 2314TIP3    H2 6884   5.263   4.925   2.157
 2315TIP3   OH2 6885   0.216   5.280   4.280
 2315TIP3    H1 6886   0.260   5.194   4.282
 2315TIP3    H2 6887   0.123   5.259   4.283
 2316TIP3   OH2 6888   0.448   0.714   0.957
 2316TIP3    H1 6889   0.512   0.723   1.027
 2316TIP3    H2 6890   0.430   0.620   0.951
 2317TIP3   OH2 6891   3.515   6.534   5.125
 2317TIP3    H1 6892   3.527   6.627   5.139
 2317TIP3    H2 6893   3.501   6.498   5.213
 2318TIP3   OH2 6894   7.294   1.434   0.639
 2318TIP3    H1 6895   7.373   1.464   0.683
 2318TIP3    H2 6896   7.268   1.354   0.685
 2319TIP3   OH2 6897   6.723   2.315   0.319
 2319TIP3    H1 6898   6.764   2.238   0.358
 2319TIP3    H2 6899   6.713   2.376   0.392
 2320TIP3   OH2 6900   1.194   5.837   2.238
 2320TIP3    H1 6901   1.104   5.804   2.232
 2320TIP3    H2 6902   1.236   5.778   2.300
 2321TIP3   OH2 6903   7.395   0.775   3.011
 2321TIP3    H1 6904   7.303   0.761   3.033
 2321TIP3    H2 6905   7.437   0.690   3.023
 2322TIP3   OH2 6906   3.368   0.274   5.906
 2322TIP3    H1 6907   3.401   0.247   5.991
 2322TIP3    H2 6908   3.439   0.253   5.845
 2323TIP3   OH2 6909   5.949   6.367   2.920
 2323TIP3    H1 6910   5.978   6.433   2.857
 2323TIP3    H2 6911   5.891   6.414   2.979
 2324TIP3   OH2 6912   4.003   4.790   0.915
 2324TIP3    H1 6913   4.046   4.757   0.994
 2324TIP3    H2 6914   4.074   4.830   0.865
 2325TIP3   OH2 6915   3.807   0.014   3.229
 2325TIP3    H1 6916   3.838   0.021   3.319
 2325TIP3    H2 6917   3.785   0.104   3.204
 2326TIP3   OH2 6918   1.012   5.252   5.663
 2326TIP3    H1 6919   0.950   5.267   5.734
 2326TIP3    H2 6920   1.047   5.339   5.642
 2327TIP3   OH2 6921   4.868   2.506   2.116
 2327TIP3    H1 6922   4.837   2.484   2.204
 2327TIP3    H2 6923   4.964   2.500   2.123
 2328TIP3   OH2 6924   5.949   4.111   6.077
 2328TIP3    H1 6925   5.984   4.097   6.165
 2328TIP3    H2 6926   5.919   4.024   6.050
 2329TIP3   OH2 6927   4.514   4.448   6.144
 2329TIP3    H1 6928   4.571   4.372   6.158
 2329TIP3    H2 6929   4.457   4.449   6.221
 2330TIP3   OH2 6930   7.717   1.130   2.025
 2330TIP3    H1 6931   7.789   1.190   2.006
 2330TIP3    H2 6932   7.758   1.043   2.028
 2331TIP3   OH2 6933   4.066   6.448   0.024
 2331TIP3    H1 6934   4.043   6.367  -0.022
 2331TIP3    H2 6935   3.993   6.507   0.008
 2332TIP3   OH2 6936   3.355   6.336   6.603
 2332TIP3    H1 6937   3.344   6.378   6.518
 2332TIP3    H2 6938   3.358   6.242   6.583
 2333TIP3   OH2 6939   6.420   5.959   1.425
 2333TIP3    H1 6940   6.496   5.972   1.369
 2333TIP3    H2 6941   6.447   5.989   1.511
 2334TIP3   OH2 6942   5.646   0.911   2.780
 2334TIP3    H1 6943   5.618   0.839   2.723
 2334TIP3    H2 6944   5.584   0.982   2.761
 2335TIP3   OH2 6945   4.084   3.567   0.914
 2335TIP3    H1 6946   4.171   3.570   0.955
 2335TIP3    H2 6947   4.101   3.534   0.826
 2336TIP3   OH2 6948   5.360   0.232   5.967
 2336TIP3    H1 6949   5.351   0.247   6.061
 2336TIP3    H2 6950   5.427   0.164   5.959
 2337TIP3   OH2 6951   5.387   5.682   2.466
 2337TIP3    H1 6952   5.374   5.627   2.544
 2337TIP3    H2 6953   5.327   5.646   2.401
 2338TIP3   OH2 6954   4.761   6.895   4.417
 2338TIP3    H1 6955   4.822   6.965   4.441
 2338TIP3    H2 6956   4.807   6.845   4.350
 2339TIP3   OH2 6957   1.368   4.468   1.458
 2339TIP3    H1 6958   1.358   4.535   1.391
 2339TIP3    H2 6959   1.439   4.412   1.425
 2340TIP3   OH2 6960   6.428   7.631   5.016
 2340TIP3    H1 6961   6.356   7.692   4.998
 2340TIP3    H2 6962   6.477   7.673   5.088
 2341TIP3   OH2 6963   5.426   0.893   5.022
 2341TIP3    H1 6964   5.418   0.884   5.117
 2341TIP3    H2 6965   5.447   0.805   4.991
 2342TIP3   OH2 6966   3.165   3.141   5.427
 2342TIP3    H1 6967   3.147   3.056   5.467
 2342TIP3    H2 6968   3.155   3.204   5.498
 2343TIP3   OH2 6969   3.574   7.181   3.173
 2343TIP3    H1 6970   3.622   7.098   3.165
 2343TIP3    H2 6971   3.637   7.242   3.211
 2344TIP3   OH2 6972   2.570   5.679   6.169
 2344TIP3    H1 6973   2.611   5.763   6.190
 2344TIP3    H2 6974   2.477   5.698   6.166
 2345TIP3   OH2 6975   5.907   5.901   5.273
 2345TIP3    H1 6976   5.850   5.973   5.297
 2345TIP3    H2 6977   5.964   5.937   5.205
 2346TIP3   OH2 6978   0.193   7.710   6.151
 2346TIP3    H1 6979   0.206   7.704   6.056
 2346TIP3    H2 6980   0.264   7.767   6.181
 2347TIP3   OH2 6981   7.970   1.597   4.145
 2347TIP3    H1 6982   7.945   1.576   4.055
 2347TIP3    H2 6983   7.994   1.689   4.143
 2348TIP3   OH2 6984   4.365   4.759   3.582
 2348TIP3    H1 6985   4.303   4.716   3.642
 2348TIP3    H2 6986   4.417   4.816   3.639
 2349TIP3   OH2 6987   1.518   0.477   0.240
 2349TIP3    H1 6988   1.457   0.515   0.303
 2349TIP3    H2 6989   1.583   0.546   0.225
 2350TIP3   OH2 6990   6.748   1.314   2.562
 2350TIP3    H1 6991   6.659   1.281   2.548
 2350TIP3    H2 6992   6.783   1.259   2.633
 2351TIP3   OH2 6993   5.151   2.713   0.859
 2351TIP3    H1 6994   5.202   2.726   0.778
 2351TIP3    H2 6995   5.213   2.733   0.929
 2352TIP3   OH2 6996   6.036   5.379   3.340
 2352TIP3    H1 6997   6.091   5.411   3.411
 2352TIP3    H2 6998   6.027   5.285   3.356
 2353TIP3   OH2 6999   1.451   1.850   6.140
 2353TIP3    H1 7000   1.482   1.766   6.107
 2353TIP3    H2 7001   1.522   1.883   6.195
 2354TIP3   OH2 7002   0.309   7.670   0.544
 2354TIP3    H1 7003   0.348   7.603   0.600
 2354TIP3    H2 7004   0.214   7.657   0.553
 2355TIP3   OH2 7005   1.718   2.203   5.246
 2355TIP3    H1 7006   1.797   2.236   5.204
 2355TIP3    H2 7007   1.746   2.124   5.292
 2356TIP3   OH2 7008   6.294   7.825   2.226
 2356TIP3    H1 7009   6.230   7.876   2.175
 2356TIP3    H2 7010   6.377   7.838   2.179
 2357TIP3   OH2 7011   8.284   1.654   3.401
 2357TIP3    H1 7012   8.203   1.698   3.427
 2357TIP3    H2 7013   8.344   1.725   3.379
 2358TIP3   OH2 7014   4.826   6.160   3.366
 2358TIP3    H1 7015   4.760   6.094   3.343
 2358TIP3    H2 7016   4.897   6.109   3.406
 2359TIP3   OH2 7017   8.006   4.349   5.913
 2359TIP3    H1 7018   7.967   4.266   5.940
 2359TIP3    H2 7019   7.958   4.415   5.962
 2360TIP3   OH2 7020   1.598   0.597   3.976
 2360TIP3    H1 7021   1.582   0.554   4.060
 2360TIP3    H2 7022   1.580   0.689   3.993
 2361TIP3   OH2 7023   2.494   1.365   4.243
 2361TIP3    H1 7024   2.450   1.281   4.234
 2361TIP3    H2 7025   2.518   1.369   4.336
 2362TIP3   OH2 7026   0.200   7.942   4.600
 2362TIP3    H1 7027   0.119   7.915   4.556
 2362TIP3    H2 7028   0.269   7.892   4.558
 2363TIP3   OH2 7029   6.844   5.010   6.225
 2363TIP3    H1 7030   6.870   4.982   6.313
 2363TIP3    H2 7031   6.854   4.932   6.171
 2364TIP3   OH2 7032   6.973   2.535   0.201
 2364TIP3    H1 7033   6.970   2.462   0.263
 2364TIP3    H2 7034   7.066   2.557   0.194
 2365TIP3   OH2 7035   2.139   3.985   5.853
 2365TIP3    H1 7036   2.204   4.033   5.904
 2365TIP3    H2 7037   2.162   4.003   5.762
 2366TIP3   OH2 7038   3.524   3.895   4.100
 2366TIP3    H1 7039   3.562   3.982   4.116
 2366TIP3    H2 7040   3.591   3.849   4.048
 2367TIP3   OH2 7041   3.510   5.118   1.487
 2367TIP3    H1 7042   3.415   5.126   1.495
 2367TIP3    H2 7043   3.544   5.204   1.513
 2368TIP3   OH2 7044   5.043   6.344   3.045
 2368TIP3    H1 7045   5.097   6.331   2.967
 2368TIP3    H2 7046   5.098   6.317   3.118
 2369TIP3   OH2 7047   2.230   7.802   0.977
 2369TIP3    H1 7048   2.170   7.873   0.953
 2369TIP3    H2 7049   2.179   7.722   0.964
 2370TIP3   OH2 7050   5.263   5.873   1.541
 2370TIP3    H1 7051   5.298   5.952   1.581
 2370TIP3    H2 7052   5.327   5.805   1.561
 2371TIP3   OH2 7053   1.837   2.531   5.450
 2371TIP3    H1 7054   1.924   2.564   5.425
 2371TIP3    H2 7055   1.788   2.529   5.367
 2372TIP3   OH2 7056   2.093   1.329   6.506
 2372TIP3    H1 7057   2.174   1.279   6.503
 2372TIP3    H2 7058   2.031   1.279   6.453
 2373TIP3   OH2 7059   0.360   5.586   0.083
 2373TIP3    H1 7060   0.454   5.570   0.085
 2373TIP3    H2 7061   0.349   5.673   0.122
 2374TIP3   OH2 7062   0.787   3.323   6.811
 2374TIP3    H1 7063   0.745   3.318   6.897
 2374TIP3    H2 7064   0.715   3.315   6.749
 2375TIP3   OH2 7065   5.227   1.944   3.749
 2375TIP3    H1 7066   5.134   1.930   3.736
 2375TIP3    H2 7067   5.246   1.903   3.834
 2376TIP3   OH2 7068   6.454   0.734   4.873
 2376TIP3    H1 7069   6.386   0.745   4.807
 2376TIP3    H2 7070   6.525   0.792   4.844
 2377TIP3   OH2 7071   7.337   3.190   4.795
 2377TIP3    H1 7072   7.403   3.197   4.727
 2377TIP3    H2 7073   7.381   3.144   4.867
 2378TIP3   OH2 7074   5.816   7.133   1.461
 2378TIP3    H1 7075   5.859   7.064   1.411
 2378TIP3    H2 7076   5.735   7.150   1.413
 2379TIP3   OH2 7077   6.951   6.936   1.675
 2379TIP3    H1 7078   7.036   6.902   1.649
 2379TIP3    H2 7079   6.888   6.887   1.622
 2380TIP3   OH2 7080   7.228   5.978   4.411
 2380TIP3    H1 7081   7.185   6.013   4.489
 2380TIP3    H2 7082   7.310   5.940   4.444
 2381TIP3   OH2 7083   0.636   7.612   1.410
 2381TIP3    H1 7084   0.692   7.681   1.374
 2381TIP3    H2 7085   0.695   7.537   1.422
 2382TIP3   OH2 7086   4.664   4.047   2.877
 2382TIP3    H1 7087   4.659   4.028   2.784
 2382TIP3    H2 7088   4.594   3.995   2.916
 2383TIP3   OH2 7089   4.785   0.698   5.731
 2383TIP3    H1 7090   4.728   0.658   5.665
 2383TIP3    H2 7091   4.749   0.786   5.743
 2384TIP3   OH2 7092   8.179   2.217   2.043
 2384TIP3    H1 7093   8.175   2.143   1.982
 2384TIP3    H2 7094   8.091   2.254   2.040
 2385TIP3   OH2 7095   2.222   5.657   5.946
 2385TIP3    H1 7096   2.273   5.730   5.911
 2385TIP3    H2 7097   2.131   5.685   5.939
 2386TIP3   OH2 7098   1.016   6.110   4.653
 2386TIP3    H1 7099   0.935   6.161   4.654
 2386TIP3    H2 7100   1.081   6.169   4.691
 2387TIP3   OH2 7101   2.849   0.977   5.647
 2387TIP3    H1 7102   2.812   1.007   5.564
 2387TIP3    H2 7103   2.892   1.055   5.683
 2388TIP3   OH2 7104   3.822   3.540   2.171
 2388TIP3    H1 7105   3.848   3.616   2.120
 2388TIP3    H2 7106   3.849   3.561   2.261
 2389TIP3   OH2 7107   4.728   6.530   2.601
 2389TIP3    H1 7108   4.648   6.551   2.650
 2389TIP3    H2 7109   4.749   6.610   2.554
 2390TIP3   OH2 7110   0.662   4.021   5.150
 2390TIP3    H1 7111   0.610   4.090   5.192
 2390TIP3    H2 7112   0.639   4.027   5.058
 2391TIP3   OH2 7113   8.065   3.958   0.420
 2391TIP3    H1 7114   8.135   3.959   0.354
 2391TIP3    H2 7115   8.091   4.025   0.483
 2392TIP3   OH2 7116   7.270   0.933   5.064
 2392TIP3    H1 7117   7.252   0.915   5.156
 2392TIP3    H2 7118   7.355   0.975   5.064
 2393TIP3   OH2 7119   6.096   3.326   5.352
 2393TIP3    H1 7120   6.009   3.345   5.388
 2393TIP3    H2 7121   6.154   3.323   5.428
 2394TIP3   OH2 7122   1.019   0.057   2.801
 2394TIP3    H1 7123   1.014  -0.016   2.863
 2394TIP3    H2 7124   0.931   0.094   2.802
 2395TIP3   OH2 7125   2.149   5.012   2.229
 2395TIP3    H1 7126   2.161   4.982   2.139
 2395TIP3    H2 7127   2.230   5.059   2.250
 2396TIP3   OH2 7128   4.610   0.408   4.367
 2396TIP3    H1 7129   4.575   0.453   4.444
 2396TIP3    H2 7130   4.692   0.453   4.347
 2397TIP3   OH2 7131   6.862   4.207   6.249
 2397TIP3    H1 7132   6.872   4.116   6.277
 2397TIP3    H2 7133   6.768   4.223   6.253
 2398TIP3   OH2 7134   1.654   7.789   6.100
 2398TIP3    H1 7135   1.663   7.707   6.052
 2398TIP3    H2 7136   1.666   7.766   6.192
 2399TIP3   OH2 7137   5.196   0.204   0.638
 2399TIP3    H1 7138   5.148   0.224   0.718
 2399TIP3    H2 7139   5.268   0.147   0.667
 2400TIP3   OH2 7140   3.416   5.430   2.207
 2400TIP3    H1 7141   3.409   5.491   2.281
 2400TIP3    H2 7142   3.422   5.486   2.130
 2401TIP3   OH2 7143   5.343   7.459   2.871
 2401TIP3    H1 7144   5.399   7.409   2.812
 2401TIP3    H2 7145   5.332   7.403   2.948
 2402TIP3   OH2 7146   3.270   2.792   3.544
 2402TIP3    H1 7147   3.184   2.786   3.585
 2402TIP3    H2 7148   3.316   2.714   3.575
 2403TIP3   OH2 7149   1.606   0.790   2.066
 2403TIP3    H1 7150   1.555   0.819   1.990
 2403TIP3    H2 7151   1.665   0.723   2.032
 2404TIP3   OH2 7152   4.097   1.127   3.410
 2404TIP3    H1 7153   4.074   1.155   3.322
 2404TIP3    H2 7154   4.058   1.193   3.467
 2405TIP3   OH2 7155   6.457   0.373   5.042
 2405TIP3    H1 7156   6.512   0.447   5.018
 2405TIP3    H2 7157   6.488   0.300   4.988
 2406TIP3   OH2 7158   1.051   4.179   3.907
 2406TIP3    H1 7159   1.071   4.089   3.932
 2406TIP3    H2 7160   0.972   4.172   3.853
 2407TIP3   OH2 7161   7.073   1.162   3.002
 2407TIP3    H1 7162   7.166   1.171   3.022
 2407TIP3    H2 7163   7.066   1.077   2.958
 2408TIP3   OH2 7164   1.282   5.100   3.141
 2408TIP3    H1 7165   1.275   5.195   3.141
 2408TIP3    H2 7166   1.259   5.074   3.052
 2409TIP3   OH2 7167   2.581   5.224   3.319
 2409TIP3    H1 7168   2.583   5.180   3.403
 2409TIP3    H2 7169   2.639   5.300   3.330
 2410TIP3   OH2 7170   4.132   1.353   3.188
 2410TIP3    H1 7171   4.088   1.438   3.183
 2410TIP3    H2 7172   4.187   1.359   3.266
 2411TIP3   OH2 7173   6.733   6.710   2.014
 2411TIP3    H1 7174   6.692   6.634   1.973
 2411TIP3    H2 7175   6.827   6.695   2.004
 2412TIP3   OH2 7176   7.838   3.032   0.802
 2412TIP3    H1 7177   7.905   2.965   0.786
 2412TIP3    H2 7178   7.885   3.104   0.845
 2413TIP3   OH2 7179   5.877   3.622   5.904
 2413TIP3    H1 7180   5.844   3.573   5.829
 2413TIP3    H2 7181   5.888   3.556   5.973
 2414TIP3   OH2 7182   7.105   6.354   3.323
 2414TIP3    H1 7183   7.199   6.342   3.336
 2414TIP3    H2 7184   7.097   6.445   3.291
 2415TIP3   OH2 7185   6.901   1.253   3.793
 2415TIP3    H1 7186   6.991   1.263   3.824
 2415TIP3    H2 7187   6.847   1.274   3.869
 2416TIP3   OH2 7188   1.578   7.789   0.835
 2416TIP3    H1 7189   1.514   7.742   0.781
 2416TIP3    H2 7190   1.593   7.871   0.789
 2417TIP3   OH2 7191   5.953   5.857   6.341
 2417TIP3    H1 7192   5.985   5.891   6.257
 2417TIP3    H2 7193   5.874   5.907   6.359
 2418TIP3   OH2 7194   3.696   4.226   6.726
 2418TIP3    H1 7195   3.614   4.194   6.690
 2418TIP3    H2 7196   3.678   4.242   6.818
 2419TIP3   OH2 7197   2.374   3.291   6.143
 2419TIP3    H1 7198   2.384   3.385   6.129
 2419TIP3    H2 7199   2.295   3.268   6.093
 2420TIP3   OH2 7200   2.082   6.015   1.903
 2420TIP3    H1 7201   2.036   5.948   1.852
 2420TIP3    H2 7202   2.080   5.982   1.993
 2421TIP3   OH2 7203   2.169   4.329   4.825
 2421TIP3    H1 7204   2.221   4.348   4.747
 2421TIP3    H2 7205   2.136   4.415   4.853
 2422TIP3   OH2 7206   7.353   4.128   2.603
 2422TIP3    H1 7207   7.315   4.046   2.635
 2422TIP3    H2 7208   7.443   4.128   2.637
 2423TIP3   OH2 7209   8.020   1.563   3.234
 2423TIP3    H1 7210   8.088   1.499   3.254
 2423TIP3    H2 7211   7.942   1.510   3.218
 2424TIP3   OH2 7212   7.494   1.210   5.612
 2424TIP3    H1 7213   7.496   1.229   5.706
 2424TIP3    H2 7214   7.580   1.172   5.593
 2425TIP3   OH2 7215   6.691   0.288   1.137
 2425TIP3    H1 7216   6.756   0.243   1.083
 2425TIP3    H2 7217   6.742   0.352   1.187
 2426TIP3   OH2 7218   0.236   1.118   4.115
 2426TIP3    H1 7219   0.272   1.043   4.069
 2426TIP3    H2 7220   0.221   1.088   4.205
 2427TIP3   OH2 7221   2.015   1.667   6.000
 2427TIP3    H1 7222   2.030   1.602   6.069
 2427TIP3    H2 7223   2.073   1.740   6.022
 2428TIP3   OH2 7224   7.529   4.821   1.141
 2428TIP3    H1 7225   7.482   4.896   1.106
 2428TIP3    H2 7226   7.491   4.745   1.096
 2429TIP3   OH2 7227   7.174   7.868   4.996
 2429TIP3    H1 7228   7.122   7.948   4.992
 2429TIP3    H2 7229   7.134   7.809   4.932
 2430TIP3   OH2 7230   2.466   4.988   2.237
 2430TIP3    H1 7231   2.454   4.894   2.250
 2430TIP3    H2 7232   2.464   5.026   2.325
 2431TIP3   OH2 7233   4.521   2.776   5.966
 2431TIP3    H1 7234   4.432   2.804   5.945
 2431TIP3    H2 7235   4.577   2.834   5.915
 2432TIP3   OH2 7236   4.244   3.344   6.142
 2432TIP3    H1 7237   4.265   3.436   6.127
 2432TIP3    H2 7238   4.185   3.321   6.070
 2433TIP3   OH2 7239   5.693   7.163   6.414
 2433TIP3    H1 7240   5.680   7.120   6.499
 2433TIP3    H2 7241   5.787   7.181   6.411
 2434TIP3   OH2 7242   8.306   1.752   4.224
 2434TIP3    H1 7243   8.290   1.706   4.307
 2434TIP3    H2 7244   8.259   1.700   4.159
 2435TIP3   OH2 7245   3.236   5.600   3.464
 2435TIP3    H1 7246   3.260   5.569   3.551
 2435TIP3    H2 7247   3.295   5.675   3.448
 2436TIP3   OH2 7248   0.115   3.285   1.424
 2436TIP3    H1 7249   0.161   3.341   1.487
 2436TIP3    H2 7250   0.142   3.196   1.448
 2437TIP3   OH2 7251   7.758   1.440   3.284
 2437TIP3    H1 7252   7.768   1.420   3.191
 2437TIP3    H2 7253   7.770   1.356   3.328
 2438TIP3   OH2 7254   7.087   2.066   4.616
 2438TIP3    H1 7255   7.111   1.973   4.613
 2438TIP3    H2 7256   7.147   2.108   4.554
 2439TIP3   OH2 7257   6.528   0.588   1.316
 2439TIP3    H1 7258   6.510   0.540   1.397
 2439TIP3    H2 7259   6.441   0.614   1.284
 2440TIP3   OH2 7260   3.488   6.970   1.193
 2440TIP3    H1 7261   3.445   6.922   1.122
 2440TIP3    H2 7262   3.524   7.048   1.151
 2441TIP3   OH2 7263   8.341   6.329   1.245
 2441TIP3    H1 7264   8.350   6.301   1.336
 2441TIP3    H2 7265   8.324   6.423   1.249
 2442TIP3   OH2 7266   6.891   6.742   2.669
 2442TIP3    H1 7267   6.827   6.673   2.650
 2442TIP3    H2 7268   6.972   6.710   2.630
 2443TIP3   OH2 7269   4.304   0.651   1.424
 2443TIP3    H1 7270   4.333   0.740   1.403
 2443TIP3    H2 7271   4.244   0.629   1.352
 2444TIP3   OH2 7272   1.979   7.730   5.146
 2444TIP3    H1 7273   2.065   7.689   5.139
 2444TIP3    H2 7274   1.962   7.735   5.240
 2445TIP3   OH2 7275   5.615   1.228   1.066
 2445TIP3    H1 7276   5.666   1.190   0.995
 2445TIP3    H2 7277   5.526   1.234   1.031
 2446TIP3   OH2 7278   3.855   2.615   2.853
 2446TIP3    H1 7279   3.785   2.552   2.869
 2446TIP3    H2 7280   3.810   2.694   2.822
 2447TIP3   OH2 7281   2.832   5.856   6.232
 2447TIP3    H1 7282   2.921   5.879   6.259
 2447TIP3    H2 7283   2.792   5.816   6.309
 2448TIP3   OH2 7284   3.312   5.714   2.950
 2448TIP3    H1 7285   3.300   5.629   2.991
 2448TIP3    H2 7286   3.364   5.695   2.872
 2449TIP3   OH2 7287   7.769   5.236   3.661
 2449TIP3    H1 7288   7.801   5.306   3.603
 2449TIP3    H2 7289   7.743   5.166   3.602
 2450TIP3   OH2 7290   3.214   1.961   0.655
 2450TIP3    H1 7291   3.205   2.056   0.659
 2450TIP3    H2 7292   3.189   1.938   0.565
 2451TIP3   OH2 7293   7.943   2.529   1.752
 2451TIP3    H1 7294   7.997   2.530   1.831
 2451TIP3    H2 7295   7.863   2.484   1.778
 2452TIP3   OH2 7296   3.674   4.077   0.989
 2452TIP3    H1 7297   3.749   4.133   1.012
 2452TIP3    H2 7298   3.714   3.998   0.952
 2453TIP3   OH2 7299   8.251   3.781   2.271
 2453TIP3    H1 7300   8.280   3.694   2.247
 2453TIP3    H2 7301   8.256   3.782   2.367
 2454TIP3   OH2 7302   0.677   2.239   6.739
 2454TIP3    H1 7303   0.649   2.330   6.749
 2454TIP3    H2 7304   0.760   2.245   6.693
 2455TIP3   OH2 7305   0.456   4.319   3.126
 2455TIP3    H1 7306   0.416   4.242   3.084
 2455TIP3    H2 7307   0.546   4.318   3.094
 2456TIP3   OH2 7308   5.169   0.618   3.667
 2456TIP3    H1 7309   5.226   0.631   3.743
 2456TIP3    H2 7310   5.227   0.583   3.599
 2457TIP3   OH2 7311   1.345   4.754   3.001
 2457TIP3    H1 7312   1.401   4.717   2.932
 2457TIP3    H2 7313   1.383   4.840   3.018
 2458TIP3   OH2 7314   6.318   6.333   3.780
 2458TIP3    H1 7315   6.361   6.399   3.835
 2458TIP3    H2 7316   6.369   6.254   3.794
 2459TIP3   OH2 7317   7.833   6.643   2.124
 2459TIP3    H1 7318   7.861   6.554   2.101
 2459TIP3    H2 7319   7.756   6.659   2.069
 2460TIP3   OH2 7320   1.666   2.261   6.343
 2460TIP3    H1 7321   1.604   2.307   6.400
 2460TIP3    H2 7322   1.666   2.312   6.262
 2461TIP3   OH2 7323   6.437   1.505   4.505
 2461TIP3    H1 7324   6.492   1.562   4.451
 2461TIP3    H2 7325   6.499   1.449   4.552
 2462TIP3   OH2 7326   7.789   5.202   2.329
 2462TIP3    H1 7327   7.755   5.136   2.269
 2462TIP3    H2 7328   7.854   5.155   2.382
 2463TIP3   OH2 7329   6.940   4.487   0.349
 2463TIP3    H1 7330   6.865   4.438   0.316
 2463TIP3    H2 7331   6.922   4.499   0.442
 2464TIP3   OH2 7332   7.463   4.859   3.887
 2464TIP3    H1 7333   7.523   4.861   3.962
 2464TIP3    H2 7334   7.504   4.798   3.825
 2465TIP3   OH2 7335   5.349   4.274   4.568
 2465TIP3    H1 7336   5.352   4.273   4.472
 2465TIP3    H2 7337   5.307   4.191   4.591
 2466TIP3   OH2 7338   0.274   4.533   0.334
 2466TIP3    H1 7339   0.359   4.575   0.348
 2466TIP3    H2 7340   0.240   4.576   0.255
 2467TIP3   OH2 7341   3.179   3.154   0.194
 2467TIP3    H1 7342   3.191   3.192   0.281
 2467TIP3    H2 7343   3.257   3.181   0.145
 2468TIP3   OH2 7344   3.713   5.280   5.207
 2468TIP3    H1 7345   3.767   5.201   5.203
 2468TIP3    H2 7346   3.724   5.320   5.120
 2469TIP3   OH2 7347   1.458   1.313   4.668
 2469TIP3    H1 7348   1.504   1.233   4.695
 2469TIP3    H2 7349   1.526   1.367   4.627
 2470TIP3   OH2 7350   2.938   1.883   1.853
 2470TIP3    H1 7351   2.843   1.875   1.860
 2470TIP3    H2 7352   2.958   1.968   1.892
 2471TIP3   OH2 7353   6.500   4.523   6.809
 2471TIP3    H1 7354   6.414   4.564   6.808
 2471TIP3    H2 7355   6.512   4.495   6.900
 2472TIP3   OH2 7356   5.863   0.475   2.453
 2472TIP3    H1 7357   5.937   0.530   2.427
 2472TIP3    H2 7358   5.902   0.389   2.468
 2473TIP3   OH2 7359   4.585   0.638   6.123
 2473TIP3    H1 7360   4.537   0.555   6.113
 2473TIP3    H2 7361   4.636   0.626   6.203
 2474TIP3   OH2 7362   2.481   7.170   0.384
 2474TIP3    H1 7363   2.566   7.201   0.414
 2474TIP3    H2 7364   2.443   7.245   0.337
 2475TIP3   OH2 7365   3.331   4.453   1.887
 2475TIP3    H1 7366   3.277   4.396   1.832
 2475TIP3    H2 7367   3.277   4.530   1.901
 2476TIP3   OH2 7368   6.204   4.160   2.883
 2476TIP3    H1 7369   6.212   4.134   2.974
 2476TIP3    H2 7370   6.201   4.078   2.834
 2477TIP3   OH2 7371   1.191   2.868   5.446
 2477TIP3    H1 7372   1.117   2.927   5.457
 2477TIP3    H2 7373   1.200   2.823   5.530
 2478TIP3   OH2 7374   5.703   0.307   0.184
 2478TIP3    H1 7375   5.691   0.371   0.114
 2478TIP3    H2 7376   5.782   0.335   0.230
 2479TIP3   OH2 7377   8.018   1.941   5.296
 2479TIP3    H1 7378   8.064   1.880   5.238
 2479TIP3    H2 7379   7.928   1.910   5.298
 2480TIP3   OH2 7380   7.429   2.141   5.418
 2480TIP3    H1 7381   7.432   2.049   5.443
 2480TIP3    H2 7382   7.520   2.170   5.425
 2481TIP3   OH2 7383   3.663   0.894   0.040
 2481TIP3    H1 7384   3.744   0.860   0.003
 2481TIP3    H2 7385   3.690   0.939   0.120
 2482TIP3   OH2 7386   1.772   5.609   3.980
 2482TIP3    H1 7387   1.845   5.562   4.020
 2482TIP3    H2 7388   1.791   5.702   3.996
 2483TIP3   OH2 7389   5.359   0.447   0.642
 2483TIP3    H1 7390   5.337   0.503   0.568
 2483TIP3    H2 7391   5.305   0.368   0.630
 2484TIP3   OH2 7392   8.056   3.753   3.302
 2484TIP3    H1 7393   8.062   3.843   3.334
 2484TIP3    H2 7394   7.975   3.719   3.342
 2485TIP3   OH2 7395   8.259   7.576   5.062
 2485TIP3    H1 7396   8.274   7.481   5.056
 2485TIP3    H2 7397   8.334   7.615   5.016
 2486TIP3   OH2 7398   6.512   1.372   6.290
 2486TIP3    H1 7399   6.562   1.327   6.221
 2486TIP3    H2 7400   6.423   1.336   6.283
 2487TIP3   OH2 7401   4.716   3.770   3.628
 2487TIP3    H1 7402   4.638   3.775   3.573
 2487TIP3    H2 7403   4.776   3.835   3.592
 2488TIP3   OH2 7404   5.750   0.061   4.705
 2488TIP3    H1 7405   5.830   0.061   4.653
 2488TIP3    H2 7406   5.779   0.082   4.794
 2489TIP3   OH2 7407   0.904   4.894   1.419
 2489TIP3    H1 7408   0.904   4.989   1.407
 2489TIP3    H2 7409   0.979   4.877   1.476
 2490TIP3   OH2 7410   5.245   7.181   6.484
 2490TIP3    H1 7411   5.315   7.116   6.484
 2490TIP3    H2 7412   5.277   7.251   6.427
 2491TIP3   OH2 7413   6.788   1.527   3.823
 2491TIP3    H1 7414   6.832   1.613   3.830
 2491TIP3    H2 7415   6.834   1.472   3.886
 2492TIP3   OH2 7416   0.199   2.938   3.149
 2492TIP3    H1 7417   0.167   2.854   3.182
 2492TIP3    H2 7418   0.134   3.001   3.179
 2493TIP3   OH2 7419   1.529   4.604   5.601
 2493TIP3    H1 7420   1.497   4.664   5.669
 2493TIP3    H2 7421   1.622   4.595   5.619
 2494TIP3   OH2 7422   1.143   5.762   0.101
 2494TIP3    H1 7423   1.203   5.764   0.027
 2494TIP3    H2 7424   1.161   5.678   0.145
 2495TIP3   OH2 7425   7.068   7.372   1.281
 2495TIP3    H1 7426   7.000   7.344   1.342
 2495TIP3    H2 7427   7.024   7.376   1.196
 2496TIP3   OH2 7428   7.078   7.905   1.665
 2496TIP3    H1 7429   7.097   7.864   1.749
 2496TIP3    H2 7430   7.132   7.858   1.602
 2497TIP3   OH2 7431   7.331   6.744   3.364
 2497TIP3    H1 7432   7.303   6.673   3.422
 2497TIP3    H2 7433   7.271   6.740   3.290
 2498TIP3   OH2 7434   1.158   3.768   0.279
 2498TIP3    H1 7435   1.166   3.673   0.285
 2498TIP3    H2 7436   1.172   3.799   0.369
 2499TIP3   OH2 7437   5.574   4.670   0.899
 2499TIP3    H1 7438   5.662   4.700   0.921
 2499TIP3    H2 7439   5.587   4.609   0.826
 2500TIP3   OH2 7440   7.813   3.281   2.698
 2500TIP3    H1 7441   7.762   3.357   2.669
 2500TIP3    H2 7442   7.765   3.205   2.665
 2501TIP3   OH2 7443   7.796   5.283   4.936
 2501TIP3    H1 7444   7.876   5.322   4.902
 2501TIP3    H2 7445   7.764   5.347   5.000
 2502TIP3   OH2 7446   3.529   0.139   6.705
 2502TIP3    H1 7447   3.473   0.119   6.780
 2502TIP3    H2 7448   3.479   0.205   6.656
 2503TIP3   OH2 7449   6.939   2.562   4.664
 2503TIP3    H1 7450   6.856   2.606   4.645
 2503TIP3    H2 7451   7.001   2.634   4.678
 2504TIP3   OH2 7452   0.650   1.628   5.354
 2504TIP3    H1 7453   0.698   1.597   5.277
 2504TIP3    H2 7454   0.671   1.565   5.423
 2505TIP3   OH2 7455   7.475   7.873   4.270
 2505TIP3    H1 7456   7.490   7.828   4.353
 2505TIP3    H2 7457   7.465   7.803   4.205
 2506TIP3   OH2 7458   8.295   7.135   3.859
 2506TIP3    H1 7459   8.331   7.218   3.828
 2506TIP3    H2 7460   8.313   7.072   3.789
 2507TIP3   OH2 7461   1.172   1.756   5.885
 2507TIP3    H1 7462   1.199   1.791   5.800
 2507TIP3    H2 7463   1.094   1.806   5.909
 2508TIP3   OH2 7464   5.581   3.842   6.132
 2508TIP3    H1 7465   5.547   3.931   6.138
 2508TIP3    H2 7466   5.668   3.852   6.093
 2509TIP3   OH2 7467   1.827   6.253   3.672
 2509TIP3    H1 7468   1.903   6.202   3.642
 2509TIP3    H2 7469   1.842   6.264   3.766
 2510TIP3   OH2 7470   4.965   6.972   6.452
 2510TIP3    H1 7471   4.998   6.905   6.512
 2510TIP3    H2 7472   4.893   6.928   6.406
 2511TIP3   OH2 7473   7.448   6.648   6.449
 2511TIP3    H1 7474   7.463   6.577   6.386
 2511TIP3    H2 7475   7.373   6.696   6.413
 2512TIP3   OH2 7476   7.959   1.138   2.771
 2512TIP3    H1 7477   7.974   1.044   2.778
 2512TIP3    H2 7478   7.959   1.168   2.862
 2513TIP3   OH2 7479   2.665   7.769   6.038
 2513TIP3    H1 7480   2.681   7.781   6.132
 2513TIP3    H2 7481   2.615   7.687   6.033
 2514TIP3   OH2 7482   6.023   1.502   3.244
 2514TIP3    H1 7483   6.002   1.425   3.191
 2514TIP3    H2 7484   6.093   1.473   3.303
 2515TIP3   OH2 7485   5.986   7.786   6.108
 2515TIP3    H1 7486   6.021   7.812   6.193
 2515TIP3    H2 7487   5.916   7.848   6.089
 2516TIP3   OH2 7488   6.836   7.796   5.305
 2516TIP3    H1 7489   6.801   7.842   5.228
 2516TIP3    H2 7490   6.909   7.744   5.270
 2517TIP3   OH2 7491   0.837   5.337   4.264
 2517TIP3    H1 7492   0.886   5.258   4.239
 2517TIP3    H2 7493   0.771   5.347   4.195
 2518TIP3   OH2 7494   6.349   0.452   3.483
 2518TIP3    H1 7495   6.319   0.406   3.405
 2518TIP3    H2 7496   6.271   0.496   3.517
 2519TIP3   OH2 7497   3.781   5.835   5.997
 2519TIP3    H1 7498   3.862   5.798   5.962
 2519TIP3    H2 7499   3.726   5.850   5.920
 2520TIP3   OH2 7500   2.538   3.529   0.416
 2520TIP3    H1 7501   2.482   3.517   0.340
 2520TIP3    H2 7502   2.615   3.475   0.397
 2521TIP3   OH2 7503   0.624   4.415   1.667
 2521TIP3    H1 7504   0.652   4.486   1.609
 2521TIP3    H2 7505   0.640   4.449   1.755
 2522TIP3   OH2 7506   3.681   5.023   4.498
 2522TIP3    H1 7507   3.757   5.068   4.462
 2522TIP3    H2 7508   3.639   5.087   4.555
 2523TIP3   OH2 7509   3.007   6.476   4.021
 2523TIP3    H1 7510   2.954   6.464   4.100
 2523TIP3    H2 7511   3.011   6.389   3.980
 2524TIP3   OH2 7512   1.766   1.686   2.547
 2524TIP3    H1 7513   1.688   1.639   2.518
 2524TIP3    H2 7514   1.739   1.731   2.627
 2525TIP3   OH2 7515   1.239   0.817   1.505
 2525TIP3    H1 7516   1.167   0.793   1.447
 2525TIP3    H2 7517   1.296   0.739   1.506
 2526TIP3   OH2 7518   4.275   4.671   3.087
 2526TIP3    H1 7519   4.212   4.740   3.110
 2526TIP3    H2 7520   4.293   4.628   3.171
 2527TIP3   OH2 7521   0.504   0.408   1.746
 2527TIP3    H1 7522   0.556   0.405   1.665
 2527TIP3    H2 7523   0.477   0.500   1.754
 2528TIP3   OH2 7524   7.325   7.014   2.183
 2528TIP3    H1 7525   7.281   7.095   2.156
 2528TIP3    H2 7526   7.357   7.033   2.271
 2529TIP3   OH2 7527   7.307   7.155   4.093
 2529TIP3    H1 7528   7.218   7.162   4.127
 2529TIP3    H2 7529   7.310   7.217   4.020
 2530TIP3   OH2 7530   1.724   5.006   3.392
 2530TIP3    H1 7531   1.669   4.993   3.314
 2530TIP3    H2 7532   1.669   4.980   3.465
 2531TIP3   OH2 7533   1.677   6.991   5.511
 2531TIP3    H1 7534   1.597   6.981   5.562
 2531TIP3    H2 7535   1.727   7.058   5.558
 2532TIP3   OH2 7536   1.197   6.601   6.438
 2532TIP3    H1 7537   1.240   6.623   6.521
 2532TIP3    H2 7538   1.110   6.639   6.446
 2533TIP3   OH2 7539   0.150   4.857   2.605
 2533TIP3    H1 7540   0.190   4.923   2.662
 2533TIP3    H2 7541   0.165   4.774   2.650
 2534TIP3   OH2 7542   5.174   6.555   3.196
 2534TIP3    H1 7543   5.129   6.476   3.224
 2534TIP3    H2 7544   5.265   6.543   3.223
 2535TIP3   OH2 7545   6.554   6.460   3.143
 2535TIP3    H1 7546   6.545   6.413   3.060
 2535TIP3    H2 7547   6.647   6.453   3.165
 2536TIP3   OH2 7548   3.190   2.198   6.343
 2536TIP3    H1 7549   3.216   2.272   6.289
 2536TIP3    H2 7550   3.179   2.235   6.431
 2537TIP3   OH2 7551   4.449   4.948   6.777
 2537TIP3    H1 7552   4.360   4.922   6.751
 2537TIP3    H2 7553   4.465   5.029   6.729
 2538TIP3   OH2 7554   7.618   7.717   0.528
 2538TIP3    H1 7555   7.591   7.630   0.559
 2538TIP3    H2 7556   7.682   7.698   0.459
 2539TIP3   OH2 7557   7.866   0.540   5.392
 2539TIP3    H1 7558   7.784   0.585   5.413
 2539TIP3    H2 7559   7.838   0.455   5.358
 2540TIP3   OH2 7560   0.971   1.566   1.007
 2540TIP3    H1 7561   1.017   1.650   1.001
 2540TIP3    H2 7562   0.936   1.552   0.919
 2541TIP3   OH2 7563   2.701   4.659   2.882
 2541TIP3    H1 7564   2.623   4.699   2.921
 2541TIP3    H2 7565   2.767   4.665   2.950
 2542TIP3   OH2 7566   2.280   0.180   4.763
 2542TIP3    H1 7567   2.353   0.194   4.823
 2542TIP3    H2 7568   2.252   0.089   4.780
 2543TIP3   OH2 7569   1.619   2.800   4.343
 2543TIP3    H1 7570   1.647   2.889   4.367
 2543TIP3    H2 7571   1.523   2.803   4.349
 2544TIP3   OH2 7572   3.659   4.544   1.014
 2544TIP3    H1 7573   3.708   4.563   1.093
 2544TIP3    H2 7574   3.584   4.492   1.044
 2545TIP3   OH2 7575   8.134   0.801   4.009
 2545TIP3    H1 7576   8.116   0.718   4.053
 2545TIP3    H2 7577   8.230   0.809   4.012
 2546TIP3   OH2 7578   5.248   2.882   3.351
 2546TIP3    H1 7579   5.254   2.967   3.306
 2546TIP3    H2 7580   5.223   2.905   3.441
 2547TIP3   OH2 7581   2.147   5.593   5.171
 2547TIP3    H1 7582   2.172   5.502   5.186
 2547TIP3    H2 7583   2.222   5.644   5.201
 2548TIP3   OH2 7584   1.547   1.280   6.156
 2548TIP3    H1 7585   1.500   1.345   6.105
 2548TIP3    H2 7586   1.602   1.331   6.216
 2549TIP3   OH2 7587   1.194   5.748   6.346
 2549TIP3    H1 7588   1.148   5.823   6.384
 2549TIP3    H2 7589   1.285   5.777   6.341
 2550TIP3   OH2 7590   4.248   2.023   4.005
 2550TIP3    H1 7591   4.226   2.050   3.917
 2550TIP3    H2 7592   4.220   2.095   4.061
 2551TIP3   OH2 7593   1.402   5.053   5.958
 2551TIP3    H1 7594   1.409   5.143   5.988
 2551TIP3    H2 7595   1.308   5.035   5.954
 2552TIP3   OH2 7596   0.763   5.166   1.864
 2552TIP3    H1 7597   0.793   5.256   1.875
 2552TIP3    H2 7598   0.842   5.113   1.878
 2553TIP3   OH2 7599   5.609   0.687   1.394
 2553TIP3    H1 7600   5.675   0.700   1.463
 2553TIP3    H2 7601   5.657   0.648   1.322
 2554TIP3   OH2 7602   8.118   4.537   2.976
 2554TIP3    H1 7603   8.199   4.551   3.024
 2554TIP3    H2 7604   8.132   4.455   2.929
 2555TIP3   OH2 7605   0.985   5.255   3.290
 2555TIP3    H1 7606   0.946   5.270   3.376
 2555TIP3    H2 7607   1.038   5.176   3.301
 2556TIP3   OH2 7608   5.947   1.141   2.056
 2556TIP3    H1 7609   5.888   1.073   2.024
 2556TIP3    H2 7610   5.986   1.178   1.977
 2557TIP3   OH2 7611   5.313   7.242   0.260
 2557TIP3    H1 7612   5.246   7.301   0.226
 2557TIP3    H2 7613   5.387   7.252   0.200
 2558TIP3   OH2 7614   3.234   1.521   2.013
 2558TIP3    H1 7615   3.193   1.503   2.097
 2558TIP3    H2 7616   3.282   1.441   1.993
 2559TIP3   OH2 7617   1.743   5.088   0.775
 2559TIP3    H1 7618   1.835   5.086   0.804
 2559TIP3    H2 7619   1.694   5.103   0.856
 2560TIP3   OH2 7620   2.652   0.858   0.673
 2560TIP3    H1 7621   2.683   0.887   0.760
 2560TIP3    H2 7622   2.595   0.928   0.644
 2561TIP3   OH2 7623   7.393   2.453   4.879
 2561TIP3    H1 7624   7.376   2.497   4.796
 2561TIP3    H2 7625   7.354   2.366   4.868
 2562TIP3   OH2 7626   2.043   2.408   2.683
 2562TIP3    H1 7627   2.108   2.468   2.719
 2562TIP3    H2 7628   2.089   2.324   2.676
 2563TIP3   OH2 7629   3.746   3.260   2.487
 2563TIP3    H1 7630   3.786   3.214   2.561
 2563TIP3    H2 7631   3.705   3.337   2.527
 2564TIP3   OH2 7632   5.770   5.498   0.751
 2564TIP3    H1 7633   5.709   5.451   0.695
 2564TIP3    H2 7634   5.737   5.588   0.752
 2565TIP3   OH2 7635   2.166   1.134   6.248
 2565TIP3    H1 7636   2.071   1.138   6.259
 2565TIP3    H2 7637   2.180   1.070   6.178
 2566TIP3   OH2 7638   5.659   3.397   5.067
 2566TIP3    H1 7639   5.662   3.361   4.978
 2566TIP3    H2 7640   5.630   3.487   5.055
 2567TIP3   OH2 7641   3.393   5.066   4.202
 2567TIP3    H1 7642   3.385   5.149   4.249
 2567TIP3    H2 7643   3.386   5.090   4.109
 2568TIP3   OH2 7644   1.766   3.066   2.274
 2568TIP3    H1 7645   1.726   2.981   2.255
 2568TIP3    H2 7646   1.857   3.044   2.297
 2569TIP3   OH2 7647   5.311   3.014   2.364
 2569TIP3    H1 7648   5.387   3.047   2.316
 2569TIP3    H2 7649   5.329   2.921   2.376
 2570TIP3   OH2 7650   5.280   0.381   1.707
 2570TIP3    H1 7651   5.290   0.299   1.659
 2570TIP3    H2 7652   5.247   0.443   1.643
 2571TIP3   OH2 7653   6.446   2.406   5.789
 2571TIP3    H1 7654   6.491   2.334   5.834
 2571TIP3    H2 7655   6.414   2.462   5.860
 2572TIP3   OH2 7656   6.693   5.675   2.295
 2572TIP3    H1 7657   6.750   5.619   2.242
 2572TIP3    H2 7658   6.671   5.622   2.371
 2573TIP3   OH2 7659   0.196   1.990   2.123
 2573TIP3    H1 7660   0.253   1.957   2.193
 2573TIP3    H2 7661   0.223   1.942   2.045
 2574TIP3   OH2 7662   0.372   6.250   3.151
 2574TIP3    H1 7663   0.405   6.169   3.111
 2574TIP3    H2 7664   0.315   6.288   3.083
 2575TIP3   OH2 7665   5.326   2.781   1.048
 2575TIP3    H1 7666   5.239   2.801   1.082
 2575TIP3    H2 7667   5.375   2.747   1.123
 2576TIP3   OH2 7668   7.134   7.490   0.022
 2576TIP3    H1 7669   7.069   7.520   0.087
 2576TIP3    H2 7670   7.087   7.493  -0.061
 2577TIP3   OH2 7671   5.133   6.989   2.459
 2577TIP3    H1 7672   5.106   7.044   2.385
 2577TIP3    H2 7673   5.108   7.039   2.537
 2578TIP3   OH2 7674   7.079   3.417   2.300
 2578TIP3    H1 7675   6.996   3.417   2.348
 2578TIP3    H2 7676   7.073   3.342   2.241
 2579TIP3   OH2 7677   5.871   7.753   2.150
 2579TIP3    H1 7678   5.824   7.822   2.197
 2579TIP3    H2 7679   5.809   7.680   2.147
 2580TIP3   OH2 7680   2.623   0.350   6.596
 2580TIP3    H1 7681   2.708   0.317   6.625
 2580TIP3    H2 7682   2.619   0.439   6.631
 2581TIP3   OH2 7683   5.841   4.721   0.918
 2581TIP3    H1 7684   5.872   4.660   0.851
 2581TIP3    H2 7685   5.903   4.794   0.916
 2582TIP3   OH2 7686   6.068   5.527   2.107
 2582TIP3    H1 7687   6.079   5.558   2.017
 2582TIP3    H2 7688   6.058   5.607   2.158
 2583TIP3   OH2 7689   1.542   3.747   6.268
 2583TIP3    H1 7690   1.520   3.811   6.200
 2583TIP3    H2 7691   1.612   3.790   6.319
 2584TIP3   OH2 7692   0.718   6.754   0.637
 2584TIP3    H1 7693   0.638   6.807   0.638
 2584TIP3    H2 7694   0.774   6.797   0.572
 2585TIP3   OH2 7695   1.293   4.684   0.377
 2585TIP3    H1 7696   1.310   4.749   0.446
 2585TIP3    H2 7697   1.302   4.600   0.421
 2586TIP3   OH2 7698   4.777   2.378   1.839
 2586TIP3    H1 7699   4.712   2.430   1.793
 2586TIP3    H2 7700   4.834   2.442   1.882
 2587TIP3   OH2 7701   5.528   2.125   3.853
 2587TIP3    H1 7702   5.605   2.178   3.874
 2587TIP3    H2 7703   5.481   2.117   3.936
 2588TIP3   OH2 7704   2.278   6.257   1.595
 2588TIP3    H1 7705   2.353   6.245   1.654
 2588TIP3    H2 7706   2.239   6.170   1.588
 2589TIP3   OH2 7707   5.244   6.164   0.722
 2589TIP3    H1 7708   5.202   6.164   0.808
 2589TIP3    H2 7709   5.308   6.236   0.727
 2590TIP3   OH2 7710   4.888   5.479   5.435
 2590TIP3    H1 7711   4.870   5.458   5.527
 2590TIP3    H2 7712   4.959   5.420   5.411
 2591TIP3   OH2 7713   5.366   3.197   5.427
 2591TIP3    H1 7714   5.393   3.177   5.516
 2591TIP3    H2 7715   5.421   3.141   5.371
 2592TIP3   OH2 7716   1.545   4.992   0.580
 2592TIP3    H1 7717   1.604   4.941   0.525
 2592TIP3    H2 7718   1.596   5.014   0.657
 2593TIP3   OH2 7719   4.150   4.410   2.313
 2593TIP3    H1 7720   4.226   4.465   2.294
 2593TIP3    H2 7721   4.092   4.466   2.365
 2594TIP3   OH2 7722   4.293   1.135   1.447
 2594TIP3    H1 7723   4.228   1.073   1.478
 2594TIP3    H2 7724   4.242   1.202   1.401
 2595TIP3   OH2 7725   6.025   5.083   5.470
 2595TIP3    H1 7726   6.119   5.097   5.479
 2595TIP3    H2 7727   5.992   5.165   5.435
 2596TIP3   OH2 7728   2.755   0.334   0.169
 2596TIP3    H1 7729   2.753   0.388   0.090
 2596TIP3    H2 7730   2.781   0.247   0.138
 2597TIP3   OH2 7731   1.195   6.262   4.836
 2597TIP3    H1 7732   1.224   6.172   4.824
 2597TIP3    H2 7733   1.255   6.298   4.902
 2598TIP3   OH2 7734   3.237   3.187   4.995
 2598TIP3    H1 7735   3.298   3.257   4.971
 2598TIP3    H2 7736   3.189   3.222   5.070
 2599TIP3   OH2 7737   3.455   2.234   2.246
 2599TIP3    H1 7738   3.495   2.221   2.333
 2599TIP3    H2 7739   3.402   2.156   2.232
 2600TIP3   OH2 7740   7.067   6.842   5.604
 2600TIP3    H1 7741   7.050   6.936   5.595
 2600TIP3    H2 7742   7.020   6.816   5.683
 2601TIP3   OH2 7743   7.093   4.613   4.570
 2601TIP3    H1 7744   7.046   4.558   4.633
 2601TIP3    H2 7745   7.058   4.701   4.583
 2602TIP3   OH2 7746   5.557   1.776   0.661
 2602TIP3    H1 7747   5.637   1.823   0.683
 2602TIP3    H2 7748   5.580   1.724   0.584
 2603TIP3   OH2 7749   4.191   2.593   1.096
 2603TIP3    H1 7750   4.156   2.508   1.121
 2603TIP3    H2 7751   4.236   2.625   1.174
 2604TIP3   OH2 7752   7.508   7.564   5.816
 2604TIP3    H1 7753   7.542   7.650   5.793
 2604TIP3    H2 7754   7.538   7.550   5.906
 2605TIP3   OH2 7755   4.920   4.837   6.059
 2605TIP3    H1 7756   4.948   4.747   6.040
 2605TIP3    H2 7757   4.963   4.890   5.992
 2606TIP3   OH2 7758   0.957   7.155   3.868
 2606TIP3    H1 7759   1.036   7.103   3.885
 2606TIP3    H2 7760   0.987   7.246   3.868
 2607TIP3   OH2 7761   7.946   7.639   2.986
 2607TIP3    H1 7762   7.944   7.665   3.078
 2607TIP3    H2 7763   7.949   7.722   2.938
 2608TIP3   OH2 7764   5.648   1.020   6.167
 2608TIP3    H1 7765   5.636   1.003   6.073
 2608TIP3    H2 7766   5.586   1.090   6.187
 2609TIP3   OH2 7767   0.904   6.388   6.331
 2609TIP3    H1 7768   0.952   6.428   6.404
 2609TIP3    H2 7769   0.968   6.328   6.292
 2610TIP3   OH2 7770   4.672   7.326   5.850
 2610TIP3    H1 7771   4.748   7.380   5.872
 2610TIP3    H2 7772   4.606   7.389   5.821
 2611TIP3   OH2 7773   0.842   4.934   5.880
 2611TIP3    H1 7774   0.788   5.012   5.870
 2611TIP3    H2 7775   0.868   4.911   5.791
 2612TIP3   OH2 7776   6.775   1.001   2.119
 2612TIP3    H1 7777   6.721   0.926   2.143
 2612TIP3    H2 7778   6.812   1.031   2.202
 2613TIP3   OH2 7779   4.167   3.033   5.370
 2613TIP3    H1 7780   4.242   3.013   5.426
 2613TIP3    H2 7781   4.194   3.109   5.319
 2614TIP3   OH2 7782   5.358   0.032   0.812
 2614TIP3    H1 7783   5.317   0.034   0.898
 2614TIP3    H2 7784   5.419   0.106   0.813
 2615TIP3   OH2 7785   5.015   5.925   6.820
 2615TIP3    H1 7786   5.108   5.944   6.830
 2615TIP3    H2 7787   4.978   6.005   6.782
 2616TIP3   OH2 7788   7.460   1.309   3.539
 2616TIP3    H1 7789   7.427   1.392   3.575
 2616TIP3    H2 7790   7.487   1.259   3.616
 2617TIP3   OH2 7791   4.776   6.740   6.882
 2617TIP3    H1 7792   4.681   6.727   6.888
 2617TIP3    H2 7793   4.802   6.689   6.805
 2618TIP3   OH2 7794   3.223   4.139   2.088
 2618TIP3    H1 7795   3.171   4.204   2.135
 2618TIP3    H2 7796   3.288   4.191   2.039
 2619TIP3   OH2 7797   7.749   0.257   4.211
 2619TIP3    H1 7798   7.677   0.208   4.250
 2619TIP3    H2 7799   7.725   0.349   4.222
 2620TIP3   OH2 7800   3.323   1.681   0.543
 2620TIP3    H1 7801   3.231   1.686   0.571
 2620TIP3    H2 7802   3.369   1.744   0.598
 2621TIP3   OH2 7803   7.483   7.669   4.446
 2621TIP3    H1 7804   7.544   7.631   4.509
 2621TIP3    H2 7805   7.422   7.598   4.427
 2622TIP3   OH2 7806   4.924   0.044   3.304
 2622TIP3    H1 7807   4.866   0.091   3.244
 2622TIP3    H2 7808   4.983  -0.005   3.247
 2623TIP3   OH2 7809   6.326   6.991   5.832
 2623TIP3    H1 7810   6.245   6.943   5.851
 2623TIP3    H2 7811   6.321   7.010   5.738
 2624TIP3   OH2 7812   8.015   4.811   4.651
 2624TIP3    H1 7813   8.005   4.728   4.698
 2624TIP3    H2 7814   8.016   4.878   4.720
 2625TIP3   OH2 7815   1.082   1.065   5.002
 2625TIP3    H1 7816   1.118   0.996   5.059
 2625TIP3    H2 7817   0.998   1.087   5.042
 2626TIP3   OH2 7818   1.324   5.787   5.191
 2626TIP3    H1 7819   1.382   5.732   5.139
 2626TIP3    H2 7820   1.285   5.849   5.129
 2627TIP3   OH2 7821   3.244   2.176   3.384
 2627TIP3    H1 7822   3.225   2.225   3.304
 2627TIP3    H2 7823   3.212   2.231   3.455
 2628TIP3   OH2 7824   1.857   6.008   2.920
 2628TIP3    H1 7825   1.787   5.975   2.863
 2628TIP3    H2 7826   1.864   6.101   2.898
 2629TIP3   OH2 7827   3.736   3.143   3.470
 2629TIP3    H1 7828   3.699   3.073   3.524
 2629TIP3    H2 7829   3.682   3.219   3.490
 2630TIP3   OH2 7830   8.277   4.807   3.310
 2630TIP3    H1 7831   8.197   4.839   3.270
 2630TIP3    H2 7832   8.345   4.824   3.245
 2631TIP3   OH2 7833   5.187   2.093   1.464
 2631TIP3    H1 7834   5.118   2.039   1.501
 2631TIP3    H2 7835   5.142   2.154   1.406
 2632TIP3   OH2 7836   3.531   3.865   1.782
 2632TIP3    H1 7837   3.475   3.819   1.719
 2632TIP3    H2 7838   3.616   3.869   1.739
 2633TIP3   OH2 7839   4.534   3.325   6.884
 2633TIP3    H1 7840   4.508   3.416   6.871
 2633TIP3    H2 7841   4.481   3.276   6.822
 2634TIP3   OH2 7842   4.949   2.733   1.812
 2634TIP3    H1 7843   4.937   2.821   1.775
 2634TIP3    H2 7844   5.001   2.747   1.891
 2635TIP3   OH2 7845   5.632   1.021   4.654
 2635TIP3    H1 7846   5.607   0.973   4.575
 2635TIP3    H2 7847   5.654   0.953   4.717
 2636TIP3   OH2 7848   4.818   1.272   6.022
 2636TIP3    H1 7849   4.889   1.252   6.083
 2636TIP3    H2 7850   4.749   1.309   6.077
 2637TIP3   OH2 7851   0.637   4.634   0.087
 2637TIP3    H1 7852   0.717   4.631   0.140
 2637TIP3    H2 7853   0.617   4.542   0.070
 2638TIP3   OH2 7854   4.119   3.133   0.391
 2638TIP3    H1 7855   4.109   3.131   0.486
 2638TIP3    H2 7856   4.078   3.052   0.360
 2639TIP3   OH2 7857   3.302   6.200   3.237
 2639TIP3    H1 7858   3.218   6.155   3.238
 2639TIP3    H2 7859   3.352   6.159   3.307
 2640TIP3   OH2 7860   3.147   1.340   2.580
 2640TIP3    H1 7861   3.052   1.328   2.592
 2640TIP3    H2 7862   3.177   1.371   2.665
 2641TIP3   OH2 7863   7.499   1.035   4.665
 2641TIP3    H1 7864   7.407   1.011   4.678
 2641TIP3    H2 7865   7.513   1.110   4.722
 2642TIP3   OH2 7866   6.408   6.272   5.708
 2642TIP3    H1 7867   6.392   6.188   5.752
 2642TIP3    H2 7868   6.396   6.254   5.615
 2643TIP3   OH2 7869   0.623   1.014   2.632
 2643TIP3    H1 7870   0.566   1.075   2.679
 2643TIP3    H2 7871   0.570   0.934   2.626
 2644TIP3   OH2 7872   3.434   4.132   1.868
 2644TIP3    H1 7873   3.441   4.040   1.842
 2644TIP3    H2 7874   3.494   4.178   1.809
 2645TIP3   OH2 7875   5.425   6.698   4.113
 2645TIP3    H1 7876   5.382   6.630   4.061
 2645TIP3    H2 7877   5.355   6.759   4.137
 2646TIP3   OH2 7878   0.327   4.753   6.358
 2646TIP3    H1 7879   0.286   4.791   6.436
 2646TIP3    H2 7880   0.375   4.677   6.390
 2647TIP3   OH2 7881   7.397   4.101   6.747
 2647TIP3    H1 7882   7.423   4.024   6.697
 2647TIP3    H2 7883   7.389   4.069   6.837
 2648TIP3   OH2 7884   1.509   1.239   4.327
 2648TIP3    H1 7885   1.441   1.281   4.381
 2648TIP3    H2 7886   1.478   1.149   4.315
 2649TIP3   OH2 7887   7.537   6.981   6.282
 2649TIP3    H1 7888   7.508   7.069   6.255
 2649TIP3    H2 7889   7.498   6.968   6.368
 2650TIP3   OH2 7890   8.262   6.881   0.589
 2650TIP3    H1 7891   8.245   6.975   0.598
 2650TIP3    H2 7892   8.353   6.876   0.560
 2651TIP3   OH2 7893   4.803   0.592   1.991
 2651TIP3    H1 7894   4.788   0.686   1.992
 2651TIP3    H2 7895   4.727   0.555   2.036
 2652TIP3   OH2 7896   3.484   6.784   4.591
 2652TIP3    H1 7897   3.392   6.806   4.608
 2652TIP3    H2 7898   3.534   6.850   4.639
 2653TIP3   OH2 7899   7.770   5.868   3.918
 2653TIP3    H1 7900   7.728   5.837   3.838
 2653TIP3    H2 7901   7.860   5.834   3.912
 2654TIP3   OH2 7902   0.297   7.677   3.202
 2654TIP3    H1 7903   0.230   7.668   3.270
 2654TIP3    H2 7904   0.379   7.687   3.250
 2655TIP3   OH2 7905   7.184   4.827   0.936
 2655TIP3    H1 7906   7.273   4.807   0.966
 2655TIP3    H2 7907   7.138   4.854   1.015
 2656TIP3   OH2 7908   6.967   4.654   4.306
 2656TIP3    H1 7909   6.969   4.599   4.384
 2656TIP3    H2 7910   7.004   4.599   4.237
 2657TIP3   OH2 7911   7.704   6.969   2.497
 2657TIP3    H1 7912   7.700   6.958   2.402
 2657TIP3    H2 7913   7.648   7.045   2.515
 2658TIP3   OH2 7914   4.668   5.157   6.546
 2658TIP3    H1 7915   4.728   5.113   6.486
 2658TIP3    H2 7916   4.713   5.238   6.571
 2659TIP3   OH2 7917   3.313   7.372   2.186
 2659TIP3    H1 7918   3.233   7.333   2.223
 2659TIP3    H2 7919   3.363   7.399   2.263
 2660TIP3   OH2 7920   8.232   2.917   4.922
 2660TIP3    H1 7921   8.264   3.002   4.953
 2660TIP3    H2 7922   8.189   2.878   4.998
 2661TIP3   OH2 7923   6.774   4.650   4.715
 2661TIP3    H1 7924   6.848   4.625   4.771
 2661TIP3    H2 7925   6.809   4.720   4.659
 2662TIP3   OH2 7926   6.751   4.099   2.874
 2662TIP3    H1 7927   6.773   4.165   2.808
 2662TIP3    H2 7928   6.750   4.017   2.825
 2663TIP3   OH2 7929   4.754   4.611   3.768
 2663TIP3    H1 7930   4.752   4.620   3.672
 2663TIP3    H2 7931   4.675   4.655   3.797
 2664TIP3   OH2 7932   6.431   3.588   6.600
 2664TIP3    H1 7933   6.486   3.511   6.618
 2664TIP3    H2 7934   6.460   3.619   6.514
 2665TIP3   OH2 7935   6.986   7.245   3.255
 2665TIP3    H1 7936   6.971   7.150   3.260
 2665TIP3    H2 7937   6.948   7.280   3.335
 2666TIP3   OH2 7938   0.839   6.581   1.946
 2666TIP3    H1 7939   0.773   6.537   1.892
 2666TIP3    H2 7940   0.863   6.658   1.895
 2667TIP3   OH2 7941   0.192   6.741   5.916
 2667TIP3    H1 7942   0.165   6.726   5.826
 2667TIP3    H2 7943   0.161   6.829   5.937
 2668TIP3   OH2 7944   6.891   5.489   2.189
 2668TIP3    H1 7945   6.827   5.419   2.202
 2668TIP3    H2 7946   6.965   5.446   2.146
 2669TIP3   OH2 7947   6.864   3.241   0.487
 2669TIP3    H1 7948   6.931   3.310   0.488
 2669TIP3    H2 7949   6.860   3.211   0.577
 2670TIP3   OH2 7950   0.236   5.240   2.397
 2670TIP3    H1 7951   0.240   5.332   2.370
 2670TIP3    H2 7952   0.311   5.199   2.353
 2671TIP3   OH2 7953   5.856   5.129   2.857
 2671TIP3    H1 7954   5.921   5.200   2.861
 2671TIP3    H2 7955   5.820   5.125   2.946
 2672TIP3   OH2 7956   7.659   2.632   4.409
 2672TIP3    H1 7957   7.685   2.713   4.453
 2672TIP3    H2 7958   7.576   2.654   4.367
 2673TIP3   OH2 7959   4.974   1.536   6.303
 2673TIP3    H1 7960   4.916   1.575   6.369
 2673TIP3    H2 7961   4.960   1.442   6.312
 2674TIP3   OH2 7962   1.165   1.434   4.492
 2674TIP3    H1 7963   1.170   1.339   4.484
 2674TIP3    H2 7964   1.100   1.449   4.562
 2675TIP3   OH2 7965   5.264   6.133   2.166
 2675TIP3    H1 7966   5.288   6.042   2.154
 2675TIP3    H2 7967   5.293   6.154   2.255
 2676TIP3   OH2 7968   3.831   0.493   0.807
 2676TIP3    H1 7969   3.840   0.528   0.718
 2676TIP3    H2 7970   3.737   0.475   0.816
 2677TIP3   OH2 7971   8.134   0.919   1.051
 2677TIP3    H1 7972   8.156   0.875   0.969
 2677TIP3    H2 7973   8.201   0.891   1.113
 2678TIP3   OH2 7974   3.501   3.800   5.300
 2678TIP3    H1 7975   3.592   3.774   5.284
 2678TIP3    H2 7976   3.507   3.866   5.369
 2679TIP3   OH2 7977   2.479   6.751   3.502
 2679TIP3    H1 7978   2.563   6.711   3.477
 2679TIP3    H2 7979   2.435   6.683   3.553
 2680TIP3   OH2 7980   8.165   3.471   4.166
 2680TIP3    H1 7981   8.201   3.480   4.255
 2680TIP3    H2 7982   8.071   3.482   4.177
 2681TIP3   OH2 7983   2.190   6.277   1.912
 2681TIP3    H1 7984   2.265   6.256   1.858
 2681TIP3    H2 7985   2.132   6.201   1.904
 2682TIP3   OH2 7986   4.248   0.935   2.535
 2682TIP3    H1 7987   4.284   0.985   2.462
 2682TIP3    H2 7988   4.273   0.983   2.613
 2683TIP3   OH2 7989   4.111   4.576   4.749
 2683TIP3    H1 7990   4.079   4.640   4.813
 2683TIP3    H2 7991   4.164   4.627   4.688
 2684TIP3   OH2 7992   2.761   7.840   1.346
 2684TIP3    H1 7993   2.737   7.889   1.267
 2684TIP3    H2 7994   2.814   7.768   1.314
 2685TIP3   OH2 7995   5.260   4.220   2.737
 2685TIP3    H1 7996   5.183   4.231   2.793
 2685TIP3    H2 7997   5.225   4.178   2.658
 2686TIP3   OH2 7998   7.301   6.336   5.812
 2686TIP3    H1 7999   7.313   6.243   5.797
 2686TIP3    H2 8000   7.209   6.353   5.790
 2687TIP3   OH2 8001   6.241   6.319   2.681
 2687TIP3    H1 8002   6.232   6.373   2.603
 2687TIP3    H2 8003   6.314   6.357   2.729
 2688TIP3   OH2 8004   4.960   5.557   1.265
 2688TIP3    H1 8005   5.036   5.511   1.303
 2688TIP3    H2 8006   4.995   5.641   1.237
 2689TIP3   OH2 8007   7.109   5.825   5.851
 2689TIP3    H1 8008   7.193   5.779   5.853
 2689TIP3    H2 8009   7.045   5.757   5.833
 2690TIP3   OH2 8010   4.725   3.553   5.416
 2690TIP3    H1 8011   4.634   3.527   5.401
 2690TIP3    H2 8012   4.776   3.472   5.405
 2691TIP3   OH2 8013   3.756   7.730   6.317
 2691TIP3    H1 8014   3.739   7.663   6.250
 2691TIP3    H2 8015   3.707   7.807   6.286
 2692TIP3   OH2 8016   0.496   3.291   1.585
 2692TIP3    H1 8017   0.516   3.206   1.624
 2692TIP3    H2 8018   0.574   3.313   1.533
 2693TIP3   OH2 8019   7.608   3.788   0.951
 2693TIP3    H1 8020   7.650   3.776   0.866
 2693TIP3    H2 8021   7.609   3.883   0.966
 2694TIP3   OH2 8022   1.051   5.357   1.561
 2694TIP3    H1 8023   1.088   5.333   1.476
 2694TIP3    H2 8024   1.071   5.283   1.618
 2695TIP3   OH2 8025   5.123   1.927   3.401
 2695TIP3    H1 8026   5.030   1.952   3.397
 2695TIP3    H2 8027   5.168   2.007   3.427
 2696TIP3   OH2 8028   1.921   7.583   5.917
 2696TIP3    H1 8029   1.905   7.612   6.007
 2696TIP3    H2 8030   1.847   7.527   5.895
 2697TIP3   OH2 8031   7.972   1.218   4.478
 2697TIP3    H1 8032   7.928   1.284   4.533
 2697TIP3    H2 8033   8.027   1.170   4.539
 2698TIP3   OH2 8034   2.680   4.026   1.318
 2698TIP3    H1 8035   2.594   3.991   1.295
 2698TIP3    H2 8036   2.741   3.978   1.261
 2699TIP3   OH2 8037   4.050   2.721   1.549
 2699TIP3    H1 8038   3.986   2.788   1.572
 2699TIP3    H2 8039   4.113   2.723   1.622
 2700TIP3   OH2 8040   7.390   2.663   3.476
 2700TIP3    H1 8041   7.344   2.598   3.423
 2700TIP3    H2 8042   7.379   2.745   3.428
 2701TIP3   OH2 8043   0.082   5.607   5.235
 2701TIP3    H1 8044   0.138   5.601   5.312
 2701TIP3    H2 8045  -0.004   5.634   5.269
 2702TIP3   OH2 8046   3.527   0.442   3.402
 2702TIP3    H1 8047   3.462   0.429   3.470
 2702TIP3    H2 8048   3.477   0.449   3.321
 2703TIP3   OH2 8049   3.354   0.317   6.633
 2703TIP3    H1 8050   3.281   0.267   6.595
 2703TIP3    H2 8051   3.345   0.405   6.596
 2704TIP3   OH2 8052   6.344   3.542   4.110
 2704TIP3    H1 8053   6.420   3.549   4.169
 2704TIP3    H2 8054   6.330   3.447   4.101
 2705TIP3   OH2 8055   8.410   5.463   4.406
 2705TIP3    H1 8056   8.325   5.427   4.379
 2705TIP3    H2 8057   8.439   5.514   4.331
 2706TIP3   OH2 8058   3.971   0.192   6.472
 2706TIP3    H1 8059   4.019   0.123   6.518
 2706TIP3    H2 8060   3.926   0.146   6.400
 2707TIP3   OH2 8061   1.092   5.094   4.767
 2707TIP3    H1 8062   1.146   5.065   4.694
 2707TIP3    H2 8063   1.023   5.028   4.774
 2708TIP3   OH2 8064   4.836   3.181   2.084
 2708TIP3    H1 8065   4.741   3.195   2.079
 2708TIP3    H2 8066   4.845   3.087   2.100
 2709TIP3   OH2 8067   6.429   3.572   1.046
 2709TIP3    H1 8068   6.483   3.555   1.123
 2709TIP3    H2 8069   6.489   3.608   0.981
 2710TIP3   OH2 8070   0.786   2.811   1.895
 2710TIP3    H1 8071   0.842   2.878   1.935
 2710TIP3    H2 8072   0.739   2.857   1.825
 2711TIP3   OH2 8073   5.600   5.749   1.458
 2711TIP3    H1 8074   5.616   5.668   1.506
 2711TIP3    H2 8075   5.647   5.816   1.507
 2712TIP3   OH2 8076   4.705   2.731   1.277
 2712TIP3    H1 8077   4.722   2.724   1.371
 2712TIP3    H2 8078   4.639   2.800   1.270
 2713TIP3   OH2 8079   2.474   0.331   3.980
 2713TIP3    H1 8080   2.429   0.288   4.053
 2713TIP3    H2 8081   2.567   0.321   3.999
 2714TIP3   OH2 8082   3.111   2.415   3.992
 2714TIP3    H1 8083   3.053   2.343   3.967
 2714TIP3    H2 8084   3.189   2.403   3.938
 2715TIP3   OH2 8085   2.753   3.558   5.306
 2715TIP3    H1 8086   2.776   3.564   5.213
 2715TIP3    H2 8087   2.826   3.512   5.346
 2716TIP3   OH2 8088   0.077   2.675   2.953
 2716TIP3    H1 8089  -0.014   2.673   2.924
 2716TIP3    H2 8090   0.072   2.678   3.049
 2717TIP3   OH2 8091   5.717   6.179   6.573
 2717TIP3    H1 8092   5.698   6.272   6.572
 2717TIP3    H2 8093   5.788   6.169   6.636
 2718TIP3   OH2 8094   1.453   5.483   2.667
 2718TIP3    H1 8095   1.539   5.521   2.684
 2718TIP3    H2 8096   1.432   5.435   2.748
 2719TIP3   OH2 8097   7.393   3.446   6.229
 2719TIP3    H1 8098   7.444   3.366   6.219
 2719TIP3    H2 8099   7.318   3.434   6.170
 2720TIP3   OH2 8100   3.290   0.247   0.089
 2720TIP3    H1 8101   3.277   0.198   0.008
 2720TIP3    H2 8102   3.203   0.284   0.109
 2721TIP3   OH2 8103   2.658   6.169   1.386
 2721TIP3    H1 8104   2.712   6.178   1.307
 2721TIP3    H2 8105   2.722   6.165   1.458
 2722TIP3   OH2 8106   8.392   4.723   6.199
 2722TIP3    H1 8107   8.439   4.732   6.116
 2722TIP3    H2 8108   8.300   4.718   6.173
 2723TIP3   OH2 8109   4.751   5.381   6.769
 2723TIP3    H1 8110   4.680   5.442   6.751
 2723TIP3    H2 8111   4.817   5.399   6.702
 2724TIP3   OH2 8112   3.337   7.288   6.818
 2724TIP3    H1 8113   3.253   7.260   6.781
 2724TIP3    H2 8114   3.395   7.213   6.807
 2725TIP3   OH2 8115   4.502   2.124   1.466
 2725TIP3    H1 8116   4.517   2.030   1.482
 2725TIP3    H2 8117   4.493   2.161   1.554
 2726TIP3   OH2 8118   3.478   3.488   4.604
 2726TIP3    H1 8119   3.567   3.470   4.574
 2726TIP3    H2 8120   3.425   3.485   4.524
 2727TIP3   OH2 8121   1.031   5.334   4.878
 2727TIP3    H1 8122   1.049   5.263   4.816
 2727TIP3    H2 8123   1.008   5.409   4.824
 2728TIP3   OH2 8124   3.023   5.003   3.744
 2728TIP3    H1 8125   3.115   5.022   3.726
 2728TIP3    H2 8126   3.004   5.051   3.825
 2729TIP3   OH2 8127   6.188   4.698   1.185
 2729TIP3    H1 8128   6.177   4.709   1.090
 2729TIP3    H2 8129   6.282   4.688   1.197
 2730TIP3   OH2 8130   6.951   0.917   6.717
 2730TIP3    H1 8131   6.918   0.845   6.663
 2730TIP3    H2 8132   6.970   0.987   6.654
 2731TIP3   OH2 8133   4.768   5.713   6.467
 2731TIP3    H1 8134   4.822   5.768   6.524
 2731TIP3    H2 8135   4.717   5.776   6.415
 2732TIP3   OH2 8136   2.459   0.409   3.388
 2732TIP3    H1 8137   2.496   0.324   3.413
 2732TIP3    H2 8138   2.529   0.453   3.341
 2733TIP3   OH2 8139   1.459   6.461   3.659
 2733TIP3    H1 8140   1.473   6.512   3.579
 2733TIP3    H2 8141   1.479   6.522   3.730
 2734TIP3   OH2 8142   4.094   1.895   5.864
 2734TIP3    H1 8143   4.031   1.868   5.930
 2734TIP3    H2 8144   4.092   1.826   5.799
 2735TIP3   OH2 8145   6.225   3.846   2.591
 2735TIP3    H1 8146   6.310   3.874   2.625
 2735TIP3    H2 8147   6.165   3.858   2.664
 2736TIP3   OH2 8148   3.935   5.344   2.688
 2736TIP3    H1 8149   3.889   5.324   2.770
 2736TIP3    H2 8150   4.019   5.300   2.696
 2737TIP3   OH2 8151   2.259   5.817   1.424
 2737TIP3    H1 8152   2.171   5.807   1.388
 2737TIP3    H2 8153   2.260   5.762   1.503
 2738TIP3   OH2 8154   4.990   2.481   5.559
 2738TIP3    H1 8155   4.953   2.434   5.483
 2738TIP3    H2 8156   4.913   2.514   5.605
 2739TIP3   OH2 8157   3.436   4.257   2.774
 2739TIP3    H1 8158   3.379   4.180   2.782
 2739TIP3    H2 8159   3.483   4.261   2.857
 2740TIP3   OH2 8160   4.346   5.744   1.806
 2740TIP3    H1 8161   4.347   5.784   1.893
 2740TIP3    H2 8162   4.255   5.749   1.778
 2741TIP3   OH2 8163   5.500   5.375   5.648
 2741TIP3    H1 8164   5.422   5.385   5.703
 2741TIP3    H2 8165   5.572   5.366   5.710
 2742TIP3   OH2 8166   3.658   0.182   4.958
 2742TIP3    H1 8167   3.611   0.122   5.016
 2742TIP3    H2 8168   3.604   0.262   4.958
 2743TIP3   OH2 8169   5.552   7.011   0.639
 2743TIP3    H1 8170   5.497   7.085   0.612
 2743TIP3    H2 8171   5.507   6.934   0.605
 2744TIP3   OH2 8172   5.607   5.323   0.952
 2744TIP3    H1 8173   5.670   5.251   0.959
 2744TIP3    H2 8174   5.534   5.286   0.901
 2745TIP3   OH2 8175   1.314   4.111   4.733
 2745TIP3    H1 8176   1.378   4.164   4.780
 2745TIP3    H2 8177   1.344   4.021   4.744
 2746TIP3   OH2 8178   5.580   5.684   0.417
 2746TIP3    H1 8179   5.529   5.618   0.370
 2746TIP3    H2 8180   5.669   5.674   0.382
 2747TIP3   OH2 8181   6.877   0.324   3.806
 2747TIP3    H1 8182   6.950   0.385   3.810
 2747TIP3    H2 8183   6.812   0.360   3.867
 2748TIP3   OH2 8184   4.956   2.197   6.608
 2748TIP3    H1 8185   4.961   2.274   6.551
 2748TIP3    H2 8186   4.876   2.152   6.580
 2749TIP3   OH2 8187   4.824   1.083   1.333
 2749TIP3    H1 8188   4.737   1.104   1.368
 2749TIP3    H2 8189   4.884   1.105   1.404
 2750TIP3   OH2 8190   2.282   2.205   3.013
 2750TIP3    H1 8191   2.232   2.123   3.022
 2750TIP3    H2 8192   2.280   2.224   2.920
 2751TIP3   OH2 8193   4.912   0.927   3.832
 2751TIP3    H1 8194   4.973   0.955   3.901
 2751TIP3    H2 8195   4.966   0.920   3.754
 2752TIP3   OH2 8196   6.523   5.266   0.680
 2752TIP3    H1 8197   6.489   5.336   0.624
 2752TIP3    H2 8198   6.450   5.206   0.690
 2753TIP3   OH2 8199   4.348   1.603   4.079
 2753TIP3    H1 8200   4.294   1.524   4.073
 2753TIP3    H2 8201   4.289   1.670   4.115
 2754TIP3   OH2 8202   0.211   0.706   2.888
 2754TIP3    H1 8203   0.161   0.773   2.841
 2754TIP3    H2 8204   0.183   0.714   2.979
 2755TIP3   OH2 8205   5.780   2.029   2.863
 2755TIP3    H1 8206   5.834   2.103   2.836
 2755TIP3    H2 8207   5.807   2.012   2.954
 2756TIP3   OH2 8208   6.972   5.485   3.689
 2756TIP3    H1 8209   6.955   5.503   3.596
 2756TIP3    H2 8210   6.887   5.458   3.724
 2757TIP3   OH2 8211   4.382   1.824   6.317
 2757TIP3    H1 8212   4.365   1.767   6.242
 2757TIP3    H2 8213   4.457   1.876   6.291
 2758TIP3   OH2 8214   8.088   0.274   4.408
 2758TIP3    H1 8215   8.028   0.283   4.482
 2758TIP3    H2 8216   8.046   0.209   4.351
 2759TIP3   OH2 8217   1.091   4.272   4.875
 2759TIP3    H1 8218   1.075   4.338   4.807
 2759TIP3    H2 8219   1.186   4.258   4.872
 2760TIP3   OH2 8220   1.066   1.201   1.076
 2760TIP3    H1 8221   1.031   1.245   0.999
 2760TIP3    H2 8222   1.153   1.172   1.049
 2761TIP3   OH2 8223   8.168   3.513   2.672
 2761TIP3    H1 8224   8.079   3.532   2.701
 2761TIP3    H2 8225   8.201   3.596   2.639
 2762TIP3   OH2 8226   8.395   3.153   1.978
 2762TIP3    H1 8227   8.341   3.126   2.052
 2762TIP3    H2 8228   8.432   3.071   1.944
 2763TIP3   OH2 8229   6.345   4.504   4.494
 2763TIP3    H1 8230   6.377   4.417   4.469
 2763TIP3    H2 8231   6.407   4.535   4.560
 2764TIP3   OH2 8232   0.147   6.503   3.642
 2764TIP3    H1 8233   0.170   6.567   3.575
 2764TIP3    H2 8234   0.194   6.423   3.616
 2765TIP3   OH2 8235   3.824   1.611   5.542
 2765TIP3    H1 8236   3.820   1.682   5.478
 2765TIP3    H2 8237   3.878   1.544   5.500
 2766TIP3   OH2 8238   7.900   6.766   0.867
 2766TIP3    H1 8239   7.863   6.801   0.948
 2766TIP3    H2 8240   7.906   6.842   0.809
 2767TIP3   OH2 8241   4.812   2.197   0.624
 2767TIP3    H1 8242   4.748   2.251   0.669
 2767TIP3    H2 8243   4.764   2.156   0.552
 2768TIP3   OH2 8244   1.071   6.252   1.047
 2768TIP3    H1 8245   1.057   6.290   1.133
 2768TIP3    H2 8246   1.147   6.195   1.058
 2769TIP3   OH2 8247   6.819   6.926   0.540
 2769TIP3    H1 8248   6.849   6.835   0.545
 2769TIP3    H2 8249   6.812   6.944   0.447
 2770TIP3   OH2 8250   7.496   6.948   3.448
 2770TIP3    H1 8251   7.415   6.957   3.398
 2770TIP3    H2 8252   7.475   6.984   3.534
 2771TIP3   OH2 8253   1.111   3.044   3.293
 2771TIP3    H1 8254   1.070   2.961   3.269
 2771TIP3    H2 8255   1.039   3.107   3.293
 2772TIP3   OH2 8256   6.268   1.173   5.850
 2772TIP3    H1 8257   6.198   1.215   5.901
 2772TIP3    H2 8258   6.222   1.113   5.791
 2773TIP3   OH2 8259   6.355   7.800   5.350
 2773TIP3    H1 8260   6.428   7.774   5.407
 2773TIP3    H2 8261   6.395   7.859   5.286
 2774TIP3   OH2 8262   1.947   6.530   6.688
 2774TIP3    H1 8263   1.946   6.487   6.603
 2774TIP3    H2 8264   1.992   6.467   6.745
 2775TIP3   OH2 8265   2.157   0.740   2.393
 2775TIP3    H1 8266   2.088   0.723   2.456
 2775TIP3    H2 8267   2.228   0.779   2.444
 2776TIP3   OH2 8268   5.188   6.529   0.930
 2776TIP3    H1 8269   5.103   6.509   0.891
 2776TIP3    H2 8270   5.252   6.499   0.865
 2777TIP3   OH2 8271   3.897   5.909   6.373
 2777TIP3    H1 8272   3.882   5.822   6.335
 2777TIP3    H2 8273   3.952   5.954   6.309
 2778TIP3   OH2 8274   1.617   0.049   2.783
 2778TIP3    H1 8275   1.711   0.036   2.771
 2778TIP3    H2 8276   1.580  -0.039   2.776
 2779TIP3   OH2 8277   0.047   7.598   0.676
 2779TIP3    H1 8278  -0.007   7.646   0.738
 2779TIP3    H2 8279   0.061   7.513   0.717
 2780TIP3   OH2 8280   4.775   6.622   0.703
 2780TIP3    H1 8281   4.743   6.652   0.788
 2780TIP3    H2 8282   4.864   6.592   0.721
 2781TIP3   OH2 8283   4.599   2.004   3.476
 2781TIP3    H1 8284   4.547   1.943   3.527
 2781TIP3    H2 8285   4.569   1.992   3.386
 2782TIP3   OH2 8286   1.381   2.115   1.510
 2782TIP3    H1 8287   1.348   2.142   1.596
 2782TIP3    H2 8288   1.466   2.157   1.503
 2783TIP3   OH2 8289   2.120   0.180   3.520
 2783TIP3    H1 8290   2.076   0.114   3.467
 2783TIP3    H2 8291   2.140   0.136   3.603
 2784TIP3   OH2 8292   5.273   1.905   0.784
 2784TIP3    H1 8293   5.366   1.895   0.763
 2784TIP3    H2 8294   5.251   1.993   0.753
 2785TIP3   OH2 8295   1.090   5.499   5.550
 2785TIP3    H1 8296   1.026   5.524   5.483
 2785TIP3    H2 8297   1.174   5.527   5.515
 2786TIP3   OH2 8298   3.321   1.296   3.111
 2786TIP3    H1 8299   3.349   1.381   3.146
 2786TIP3    H2 8300   3.226   1.296   3.121
 2787TIP3   OH2 8301   0.025   3.684   4.291
 2787TIP3    H1 8302   0.054   3.619   4.227
 2787TIP3    H2 8303  -0.002   3.759   4.238
 2788TIP3   OH2 8304   1.852   0.549   0.813
 2788TIP3    H1 8305   1.877   0.613   0.880
 2788TIP3    H2 8306   1.868   0.593   0.730
 2789TIP3   OH2 8307   2.923   4.861   1.042
 2789TIP3    H1 8308   2.912   4.925   1.112
 2789TIP3    H2 8309   2.975   4.906   0.976
 2790TIP3   OH2 8310   4.182   5.308   4.918
 2790TIP3    H1 8311   4.248   5.323   4.986
 2790TIP3    H2 8312   4.166   5.214   4.919
 2791TIP3   OH2 8313   2.700   2.691   6.118
 2791TIP3    H1 8314   2.700   2.736   6.203
 2791TIP3    H2 8315   2.722   2.600   6.139
 2792TIP3   OH2 8316   7.121   1.800   2.273
 2792TIP3    H1 8317   7.029   1.782   2.288
 2792TIP3    H2 8318   7.165   1.718   2.293
 2793TIP3   OH2 8319   4.335   7.036   6.110
 2793TIP3    H1 8320   4.342   7.113   6.167
 2793TIP3    H2 8321   4.413   6.984   6.129
 2794TIP3   OH2 8322   0.258   2.865   4.221
 2794TIP3    H1 8323   0.335   2.860   4.278
 2794TIP3    H2 8324   0.193   2.809   4.262
 2795TIP3   OH2 8325   5.519   4.818   0.575
 2795TIP3    H1 8326   5.472   4.820   0.492
 2795TIP3    H2 8327   5.471   4.756   0.629
 2796TIP3   OH2 8328   7.110   5.453   4.355
 2796TIP3    H1 8329   7.160   5.414   4.284
 2796TIP3    H2 8330   7.047   5.386   4.381
 2797TIP3   OH2 8331   8.149   5.361   4.338
 2797TIP3    H1 8332   8.104   5.364   4.254
 2797TIP3    H2 8333   8.109   5.287   4.384
 2798TIP3   OH2 8334   3.704   7.180   5.946
 2798TIP3    H1 8335   3.650   7.214   5.875
 2798TIP3    H2 8336   3.745   7.257   5.985
 2799TIP3   OH2 8337   3.525   4.607   3.061
 2799TIP3    H1 8338   3.444   4.564   3.090
 2799TIP3    H2 8339   3.499   4.655   2.983
 2800TIP3   OH2 8340   4.724   1.092   2.351
 2800TIP3    H1 8341   4.731   1.187   2.359
 2800TIP3    H2 8342   4.737   1.075   2.257
 2801TIP3   OH2 8343   5.353   0.868   6.116
 2801TIP3    H1 8344   5.298   0.877   6.194
 2801TIP3    H2 8345   5.315   0.793   6.069
 2802TIP3   OH2 8346   4.825   2.045   0.213
 2802TIP3    H1 8347   4.800   1.963   0.257
 2802TIP3    H2 8348   4.897   2.080   0.265
 2803TIP3   OH2 8349   3.114   4.378   2.237
 2803TIP3    H1 8350   3.127   4.298   2.289
 2803TIP3    H2 8351   3.181   4.438   2.268
 2804TIP3   OH2 8352   7.853   6.001   1.734
 2804TIP3    H1 8353   7.812   5.916   1.713
 2804TIP3    H2 8354   7.788   6.045   1.790
 2805TIP3   OH2 8355   5.785   4.210   1.769
 2805TIP3    H1 8356   5.798   4.115   1.770
 2805TIP3    H2 8357   5.690   4.221   1.760
 2806TIP3   OH2 8358   7.928   5.002   3.462
 2806TIP3    H1 8359   7.836   4.984   3.445
 2806TIP3    H2 8360   7.949   5.078   3.408
 2807TIP3   OH2 8361   3.906   3.168   5.302
 2807TIP3    H1 8362   3.943   3.086   5.333
 2807TIP3    H2 8363   3.816   3.168   5.334
 2808TIP3   OH2 8364   7.198   4.893   6.771
 2808TIP3    H1 8365   7.171   4.814   6.723
 2808TIP3    H2 8366   7.239   4.859   6.850
 2809TIP3   OH2 8367   0.716   6.856   0.908
 2809TIP3    H1 8368   0.725   6.804   0.828
 2809TIP3    H2 8369   0.651   6.809   0.960
 2810TIP3   OH2 8370   1.738   4.466   2.464
 2810TIP3    H1 8371   1.829   4.487   2.487
 2810TIP3    H2 8372   1.688   4.544   2.485
 2811TIP3   OH2 8373   4.602   4.343   4.527
 2811TIP3    H1 8374   4.608   4.347   4.622
 2811TIP3    H2 8375   4.518   4.299   4.510
 2812TIP3   OH2 8376   1.832   5.867   6.418
 2812TIP3    H1 8377   1.806   5.781   6.385
 2812TIP3    H2 8378   1.808   5.866   6.511
 2813TIP3   OH2 8379   8.240   1.549   5.371
 2813TIP3    H1 8380   8.225   1.505   5.455
 2813TIP3    H2 8381   8.311   1.611   5.390
 2814TIP3   OH2 8382   0.006   1.310   2.477
 2814TIP3    H1 8383  -0.042   1.292   2.396
 2814TIP3    H2 8384   0.042   1.398   2.464
 2815TIP3   OH2 8385   4.367   3.088   0.290
 2815TIP3    H1 8386   4.272   3.098   0.300
 2815TIP3    H2 8387   4.384   3.112   0.199
 2816TIP3   OH2 8388   2.139   1.827   0.203
 2816TIP3    H1 8389   2.212   1.794   0.151
 2816TIP3    H2 8390   2.088   1.750   0.226
 2817TIP3   OH2 8391   6.112   7.919   5.305
 2817TIP3    H1 8392   6.078   7.922   5.395
 2817TIP3    H2 8393   6.187   7.860   5.310
 2818TIP3   OH2 8394   2.410   2.731   5.678
 2818TIP3    H1 8395   2.449   2.730   5.766
 2818TIP3    H2 8396   2.390   2.639   5.660
 2819TIP3   OH2 8397   1.408   1.792   4.360
 2819TIP3    H1 8398   1.453   1.766   4.279
 2819TIP3    H2 8399   1.315   1.797   4.334
 2820TIP3   OH2 8400   6.571   4.615   3.385
 2820TIP3    H1 8401   6.622   4.694   3.368
 2820TIP3    H2 8402   6.565   4.572   3.300
 2821TIP3   OH2 8403   4.784   2.956   4.718
 2821TIP3    H1 8404   4.869   2.911   4.720
 2821TIP3    H2 8405   4.734   2.909   4.650
 2822TIP3   OH2 8406   2.196   1.876   1.142
 2822TIP3    H1 8407   2.246   1.812   1.092
 2822TIP3    H2 8408   2.239   1.878   1.227
 2823TIP3   OH2 8409   2.591   5.642   3.272
 2823TIP3    H1 8410   2.684   5.619   3.280
 2823TIP3    H2 8411   2.565   5.607   3.187
 2824TIP3   OH2 8412   0.429   4.246   1.547
 2824TIP3    H1 8413   0.430   4.292   1.463
 2824TIP3    H2 8414   0.499   4.288   1.597
 2825TIP3   OH2 8415   5.144   1.645   4.820
 2825TIP3    H1 8416   5.079   1.670   4.754
 2825TIP3    H2 8417   5.227   1.645   4.773
 2826TIP3   OH2 8418   0.479   5.196   4.777
 2826TIP3    H1 8419   0.462   5.226   4.687
 2826TIP3    H2 8420   0.392   5.179   4.813
 2827TIP3   OH2 8421   4.692   2.147   1.940
 2827TIP3    H1 8422   4.725   2.138   2.029
 2827TIP3    H2 8423   4.713   2.236   1.915
 2828TIP3   OH2 8424   5.857   3.126   3.508
 2828TIP3    H1 8425   5.782   3.122   3.449
 2828TIP3    H2 8426   5.925   3.171   3.457
 2829TIP3   OH2 8427   0.169   1.292   1.086
 2829TIP3    H1 8428   0.097   1.251   1.038
 2829TIP3    H2 8429   0.234   1.223   1.097
 2830TIP3   OH2 8430   4.787   5.000   5.170
 2830TIP3    H1 8431   4.806   4.980   5.261
 2830TIP3    H2 8432   4.788   4.916   5.125
 2831TIP3   OH2 8433   6.853   7.006   6.135
 2831TIP3    H1 8434   6.791   6.979   6.067
 2831TIP3    H2 8435   6.871   7.098   6.116
 2832TIP3   OH2 8436   3.255   0.774   1.645
 2832TIP3    H1 8437   3.291   0.749   1.730
 2832TIP3    H2 8438   3.261   0.695   1.592
 2833TIP3   OH2 8439   7.061   5.813   0.986
 2833TIP3    H1 8440   6.975   5.845   0.956
 2833TIP3    H2 8441   7.054   5.718   0.976
 2834TIP3   OH2 8442   2.421   3.092   2.714
 2834TIP3    H1 8443   2.352   3.030   2.739
 2834TIP3    H2 8444   2.439   3.072   2.622
 2835TIP3   OH2 8445   4.899   3.869   1.115
 2835TIP3    H1 8446   4.844   3.937   1.076
 2835TIP3    H2 8447   4.929   3.907   1.197
 2836TIP3   OH2 8448   7.173   4.914   1.367
 2836TIP3    H1 8449   7.186   4.836   1.313
 2836TIP3    H2 8450   7.257   4.960   1.362
 2837TIP3   OH2 8451   4.962   4.252   4.231
 2837TIP3    H1 8452   4.954   4.313   4.304
 2837TIP3    H2 8453   4.890   4.274   4.173
 2838TIP3   OH2 8454   2.663   0.903   0.959
 2838TIP3    H1 8455   2.691   0.928   1.047
 2838TIP3    H2 8456   2.623   0.982   0.923
 2839TIP3   OH2 8457   7.008   4.684   3.430
 2839TIP3    H1 8458   6.970   4.597   3.442
 2839TIP3    H2 8459   6.951   4.727   3.366
 2840TIP3   OH2 8460   1.720   5.403   3.011
 2840TIP3    H1 8461   1.773   5.451   3.075
 2840TIP3    H2 8462   1.643   5.458   2.997
 2841TIP3   OH2 8463   1.740   3.238   1.805
 2841TIP3    H1 8464   1.746   3.175   1.877
 2841TIP3    H2 8465   1.708   3.318   1.846
 2842TIP3   OH2 8466   2.173   0.921   2.798
 2842TIP3    H1 8467   2.092   0.894   2.841
 2842TIP3    H2 8468   2.163   1.015   2.784
 2843TIP3   OH2 8469   3.378   4.519   2.682
 2843TIP3    H1 8470   3.409   4.443   2.731
 2843TIP3    H2 8471   3.358   4.485   2.595
 2844TIP3   OH2 8472   6.193   1.411   2.378
 2844TIP3    H1 8473   6.258   1.438   2.312
 2844TIP3    H2 8474   6.138   1.489   2.390
 2845TIP3   OH2 8475   4.481   6.893   5.814
 2845TIP3    H1 8476   4.513   6.978   5.845
 2845TIP3    H2 8477   4.471   6.841   5.893
 2846TIP3   OH2 8478   4.222   5.966   2.288
 2846TIP3    H1 8479   4.127   5.953   2.287
 2846TIP3    H2 8480   4.235   6.055   2.256
 2847TIP3   OH2 8481   5.909   6.018   0.728
 2847TIP3    H1 8482   5.858   6.070   0.666
 2847TIP3    H2 8483   5.880   6.047   0.814
 2848TIP3   OH2 8484   3.532   5.936   6.736
 2848TIP3    H1 8485   3.593   5.897   6.798
 2848TIP3    H2 8486   3.456   5.961   6.790
 2849TIP3   OH2 8487   3.464   2.079   3.037
 2849TIP3    H1 8488   3.526   2.151   3.045
 2849TIP3    H2 8489   3.383   2.121   3.007
 2850TIP3   OH2 8490   8.057   7.406   1.995
 2850TIP3    H1 8491   8.053   7.312   2.010
 2850TIP3    H2 8492   7.970   7.429   1.962
 2851TIP3   OH2 8493   2.952   0.073   1.794
 2851TIP3    H1 8494   2.978   0.084   1.885
 2851TIP3    H2 8495   3.034   0.080   1.744
 2852TIP3   OH2 8496   0.068   2.184   4.298
 2852TIP3    H1 8497   0.113   2.111   4.342
 2852TIP3    H2 8498  -0.011   2.145   4.261
 2853TIP3   OH2 8499   6.668   0.516   4.872
 2853TIP3    H1 8500   6.699   0.455   4.805
 2853TIP3    H2 8501   6.580   0.541   4.843
 2854TIP3   OH2 8502   3.293   0.482   1.402
 2854TIP3    H1 8503   3.296   0.560   1.347
 2854TIP3    H2 8504   3.209   0.487   1.447
 2855TIP3   OH2 8505   0.949   6.609   6.038
 2855TIP3    H1 8506   1.030   6.644   6.074
 2855TIP3    H2 8507   0.977   6.545   5.972
 2856TIP3   OH2 8508   0.246   0.414   5.760
 2856TIP3    H1 8509   0.233   0.492   5.814
 2856TIP3    H2 8510   0.329   0.378   5.790
 2857TIP3   OH2 8511   5.298   2.812   0.271
 2857TIP3    H1 8512   5.345   2.850   0.344
 2857TIP3    H2 8513   5.366   2.788   0.208
 2858TIP3   OH2 8514   7.340   3.792   2.604
 2858TIP3    H1 8515   7.303   3.727   2.545
 2858TIP3    H2 8516   7.267   3.820   2.659
 2859TIP3   OH2 8517   7.013   4.069   2.108
 2859TIP3    H1 8518   6.982   3.986   2.144
 2859TIP3    H2 8519   7.099   4.050   2.072
 2860TIP3   OH2 8520   1.020   0.104   3.478
 2860TIP3    H1 8521   1.076   0.176   3.450
 2860TIP3    H2 8522   1.037   0.096   3.572
 2861TIP3   OH2 8523   5.017   2.685   1.328
 2861TIP3    H1 8524   5.005   2.623   1.256
 2861TIP3    H2 8525   4.945   2.665   1.389
 2862TIP3   OH2 8526   7.790   4.449   5.004
 2862TIP3    H1 8527   7.765   4.518   4.943
 2862TIP3    H2 8528   7.707   4.420   5.043
 2863TIP3   OH2 8529   5.456   5.242   2.321
 2863TIP3    H1 8530   5.508   5.316   2.289
 2863TIP3    H2 8531   5.502   5.165   2.289
 2864TIP3   OH2 8532   3.042   6.841   1.979
 2864TIP3    H1 8533   3.041   6.802   2.067
 2864TIP3    H2 8534   3.135   6.854   1.960
 2865TIP3   OH2 8535   4.671   3.387   6.210
 2865TIP3    H1 8536   4.595   3.376   6.266
 2865TIP3    H2 8537   4.639   3.437   6.135
 2866TIP3   OH2 8538   7.881   3.060   2.346
 2866TIP3    H1 8539   7.819   3.077   2.276
 2866TIP3    H2 8540   7.942   3.134   2.344
 2867TIP3   OH2 8541   8.224   5.065   4.130
 2867TIP3    H1 8542   8.238   5.074   4.224
 2867TIP3    H2 8543   8.312   5.057   4.093
 2868TIP3   OH2 8544   7.299   6.733   3.814
 2868TIP3    H1 8545   7.379   6.719   3.763
 2868TIP3    H2 8546   7.330   6.774   3.895
 2869TIP3   OH2 8547   6.731   0.539   2.708
 2869TIP3    H1 8548   6.752   0.485   2.785
 2869TIP3    H2 8549   6.751   0.482   2.634
 2870TIP3   OH2 8550   7.045   6.568   4.350
 2870TIP3    H1 8551   7.034   6.487   4.400
 2870TIP3    H2 8552   7.035   6.541   4.259
 2871TIP3   OH2 8553   5.595   5.851   2.433
 2871TIP3    H1 8554   5.520   5.794   2.453
 2871TIP3    H2 8555   5.629   5.876   2.519
 2872TIP3   OH2 8556   4.910   7.893   6.255
 2872TIP3    H1 8557   4.864   7.841   6.321
 2872TIP3    H2 8558   4.925   7.978   6.298
 2873TIP3   OH2 8559   5.354   5.015   2.562
 2873TIP3    H1 8560   5.325   4.940   2.510
 2873TIP3    H2 8561   5.448   5.021   2.546
 2874TIP3   OH2 8562   5.345   3.863   2.624
 2874TIP3    H1 8563   5.372   3.803   2.555
 2874TIP3    H2 8564   5.307   3.807   2.691
 2875TIP3   OH2 8565   3.813   1.983   1.594
 2875TIP3    H1 8566   3.734   1.938   1.625
 2875TIP3    H2 8567   3.781   2.069   1.566
 2876TIP3   OH2 8568   3.361   0.778   4.258
 2876TIP3    H1 8569   3.399   0.837   4.323
 2876TIP3    H2 8570   3.267   0.775   4.280
 2877TIP3   OH2 8571   7.104   3.662   1.547
 2877TIP3    H1 8572   7.037   3.633   1.609
 2877TIP3    H2 8573   7.135   3.581   1.506
 2878TIP3   OH2 8574   1.710   4.874   6.231
 2878TIP3    H1 8575   1.625   4.912   6.210
 2878TIP3    H2 8576   1.730   4.909   6.318
 2879TIP3   OH2 8577   4.545   0.479   1.396
 2879TIP3    H1 8578   4.602   0.514   1.464
 2879TIP3    H2 8579   4.460   0.519   1.412
 2880TIP3   OH2 8580   7.240   0.694   4.690
 2880TIP3    H1 8581   7.291   0.633   4.743
 2880TIP3    H2 8582   7.304   0.750   4.647
 2881TIP3   OH2 8583   6.377   0.761   3.620
 2881TIP3    H1 8584   6.455   0.815   3.626
 2881TIP3    H2 8585   6.359   0.756   3.526
 2882TIP3   OH2 8586   5.037   1.731   4.220
 2882TIP3    H1 8587   4.944   1.754   4.215
 2882TIP3    H2 8588   5.038   1.651   4.273
 2883TIP3   OH2 8589   5.837   3.334   5.481
 2883TIP3    H1 8590   5.807   3.253   5.438
 2883TIP3    H2 8591   5.762   3.393   5.476
 2884TIP3   OH2 8592   6.287   4.197   3.544
 2884TIP3    H1 8593   6.370   4.213   3.591
 2884TIP3    H2 8594   6.308   4.212   3.452
 2885TIP3   OH2 8595   2.054   1.933   2.541
 2885TIP3    H1 8596   2.149   1.939   2.549
 2885TIP3    H2 8597   2.039   1.909   2.449
 2886TIP3   OH2 8598   4.322   3.659   5.394
 2886TIP3    H1 8599   4.333   3.754   5.394
 2886TIP3    H2 8600   4.232   3.645   5.364
 2887TIP3   OH2 8601   4.575   3.478   3.891
 2887TIP3    H1 8602   4.564   3.411   3.823
 2887TIP3    H2 8603   4.512   3.546   3.868
 2888TIP3   OH2 8604   5.555   0.930   4.413
 2888TIP3    H1 8605   5.473   0.886   4.393
 2888TIP3    H2 8606   5.619   0.890   4.354
 2889TIP3   OH2 8607   0.353   4.922   0.694
 2889TIP3    H1 8608   0.396   5.004   0.669
 2889TIP3    H2 8609   0.260   4.941   0.688
 2890TIP3   OH2 8610   1.160   4.281   2.204
 2890TIP3    H1 8611   1.229   4.310   2.144
 2890TIP3    H2 8612   1.108   4.219   2.153
 2891TIP3   OH2 8613   5.509   4.914   4.114
 2891TIP3    H1 8614   5.501   4.854   4.040
 2891TIP3    H2 8615   5.480   4.862   4.189
 2892TIP3   OH2 8616   1.095   5.707   4.854
 2892TIP3    H1 8617   1.157   5.638   4.879
 2892TIP3    H2 8618   1.033   5.663   4.796
 2893TIP3   OH2 8619   1.301   7.218   4.343
 2893TIP3    H1 8620   1.296   7.195   4.436
 2893TIP3    H2 8621   1.300   7.313   4.341
 2894TIP3   OH2 8622   4.040   7.066   2.395
 2894TIP3    H1 8623   4.055   7.127   2.468
 2894TIP3    H2 8624   4.079   6.984   2.425
 2895TIP3   OH2 8625   6.056   2.977   3.105
 2895TIP3    H1 8626   6.149   2.965   3.123
 2895TIP3    H2 8627   6.015   2.897   3.137
 2896TIP3   OH2 8628   5.612   6.770   3.368
 2896TIP3    H1 8629   5.547   6.825   3.411
 2896TIP3    H2 8630   5.567   6.735   3.291
 2897TIP3   OH2 8631   5.244   0.122   1.057
 2897TIP3    H1 8632   5.173   0.152   1.000
 2897TIP3    H2 8633   5.207   0.130   1.146
 2898TIP3   OH2 8634   7.815   4.215   0.808
 2898TIP3    H1 8635   7.786   4.291   0.858
 2898TIP3    H2 8636   7.880   4.172   0.864
 2899TIP3   OH2 8637   3.764   1.622   5.259
 2899TIP3    H1 8638   3.745   1.571   5.180
 2899TIP3    H2 8639   3.827   1.689   5.230
 2900TIP3   OH2 8640   8.203   6.935   0.941
 2900TIP3    H1 8641   8.284   6.972   0.906
 2900TIP3    H2 8642   8.134   6.991   0.907
 2901TIP3   OH2 8643   6.522   7.345   0.054
 2901TIP3    H1 8644   6.548   7.400   0.128
 2901TIP3    H2 8645   6.441   7.302   0.084
 2902TIP3   OH2 8646   3.865   0.078   0.628
 2902TIP3    H1 8647   3.953   0.056   0.600
 2902TIP3    H2 8648   3.820  -0.007   0.635
 2903TIP3   OH2 8649   3.019   5.619   0.905
 2903TIP3    H1 8650   3.037   5.561   0.979
 2903TIP3    H2 8651   2.977   5.562   0.841
 2904TIP3   OH2 8652   5.771   1.288   2.445
 2904TIP3    H1 8653   5.830   1.298   2.371
 2904TIP3    H2 8654   5.724   1.206   2.427
 2905TIP3   OH2 8655   5.192   6.542   0.628
 2905TIP3    H1 8656   5.110   6.492   0.625
 2905TIP3    H2 8657   5.257   6.485   0.587
 2906TIP3   OH2 8658   5.436   2.473   6.128
 2906TIP3    H1 8659   5.442   2.479   6.033
 2906TIP3    H2 8660   5.522   2.438   6.155
 2907TIP3   OH2 8661   7.318   7.474   2.262
 2907TIP3    H1 8662   7.323   7.474   2.166
 2907TIP3    H2 8663   7.380   7.542   2.289
 2908TIP3   OH2 8664   7.946   2.092   2.679
 2908TIP3    H1 8665   7.967   2.165   2.736
 2908TIP3    H2 8666   8.031   2.055   2.654
 2909TIP3   OH2 8667   7.027   6.001   5.227
 2909TIP3    H1 8668   6.955   5.994   5.163
 2909TIP3    H2 8669   7.009   5.932   5.291
 2910TIP3   OH2 8670   2.071   2.080   3.324
 2910TIP3    H1 8671   2.088   2.007   3.264
 2910TIP3    H2 8672   2.147   2.137   3.315
 2911TIP3   OH2 8673   3.616   1.350   1.366
 2911TIP3    H1 8674   3.571   1.273   1.402
 2911TIP3    H2 8675   3.664   1.316   1.291
 2912TIP3   OH2 8676   1.132   4.024   2.638
 2912TIP3    H1 8677   1.112   3.961   2.569
 2912TIP3    H2 8678   1.120   4.109   2.597
 2913TIP3   OH2 8679   5.741   0.719   5.894
 2913TIP3    H1 8680   5.830   0.687   5.884
 2913TIP3    H2 8681   5.692   0.643   5.927
 2914TIP3   OH2 8682   0.580   1.122   3.938
 2914TIP3    H1 8683   0.674   1.117   3.921
 2914TIP3    H2 8684   0.541   1.063   3.874
 2915TIP3   OH2 8685   6.813   3.178   0.084
 2915TIP3    H1 8686   6.817   3.086   0.109
 2915TIP3    H2 8687   6.810   3.178  -0.011
 2916TIP3   OH2 8688   5.371   3.235   0.422
 2916TIP3    H1 8689   5.277   3.222   0.437
 2916TIP3    H2 8690   5.406   3.256   0.508
 2917TIP3   OH2 8691   0.570   4.258   5.271
 2917TIP3    H1 8692   0.535   4.293   5.189
 2917TIP3    H2 8693   0.492   4.230   5.321
 2918TIP3   OH2 8694   5.413   2.654   5.588
 2918TIP3    H1 8695   5.347   2.679   5.524
 2918TIP3    H2 8696   5.495   2.689   5.553
 2919TIP3   OH2 8697   5.952   4.545   1.151
 2919TIP3    H1 8698   6.028   4.595   1.182
 2919TIP3    H2 8699   5.913   4.599   1.083
 2920TIP3   OH2 8700   1.136   3.497   0.279
 2920TIP3    H1 8701   1.175   3.474   0.195
 2920TIP3    H2 8702   1.043   3.504   0.261
 2921TIP3   OH2 8703   4.581   6.526   3.710
 2921TIP3    H1 8704   4.626   6.610   3.698
 2921TIP3    H2 8705   4.651   6.462   3.714
 2922TIP3   OH2 8706   6.464   4.322   0.361
 2922TIP3    H1 8707   6.403   4.272   0.307
 2922TIP3    H2 8708   6.418   4.334   0.444
 2923TIP3   OH2 8709   0.631   0.716   2.427
 2923TIP3    H1 8710   0.673   0.788   2.475
 2923TIP3    H2 8711   0.704   0.674   2.381
 2924TIP3   OH2 8712   4.452   3.601   0.797
 2924TIP3    H1 8713   4.393   3.668   0.831
 2924TIP3    H2 8714   4.506   3.647   0.732
 2925TIP3   OH2 8715   7.724   6.247   3.722
 2925TIP3    H1 8716   7.814   6.280   3.712
 2925TIP3    H2 8717   7.724   6.205   3.808
 2926TIP3   OH2 8718   0.463   7.796   2.666
 2926TIP3    H1 8719   0.528   7.809   2.736
 2926TIP3    H2 8720   0.491   7.715   2.623
 2927TIP3   OH2 8721   5.909   4.443   2.605
 2927TIP3    H1 8722   5.832   4.430   2.550
 2927TIP3    H2 8723   5.978   4.392   2.563
 2928TIP3   OH2 8724   1.227   6.431   2.535
 2928TIP3    H1 8725   1.150   6.476   2.569
 2928TIP3    H2 8726   1.220   6.440   2.440
 2929TIP3   OH2 8727   1.598   2.391   6.124
 2929TIP3    H1 8728   1.515   2.417   6.086
 2929TIP3    H2 8729   1.658   2.462   6.102
 2930TIP3   OH2 8730   4.663   3.321   2.308
 2930TIP3    H1 8731   4.650   3.382   2.236
 2930TIP3    H2 8732   4.681   3.378   2.384
 2931TIP3   OH2 8733   3.557   1.644   4.167
 2931TIP3    H1 8734   3.509   1.613   4.244
 2931TIP3    H2 8735   3.630   1.695   4.202
 2932TIP3   OH2 8736   6.174   4.527   0.492
 2932TIP3    H1 8737   6.153   4.567   0.408
 2932TIP3    H2 8738   6.202   4.438   0.470
 2933TIP3   OH2 8739   0.988   2.417   5.400
 2933TIP3    H1 8740   0.991   2.510   5.380
 2933TIP3    H2 8741   1.068   2.401   5.451
 2934TIP3   OH2 8742   1.009   5.276   6.048
 2934TIP3    H1 8743   0.991   5.324   6.128
 2934TIP3    H2 8744   0.926   5.279   5.999
 2935TIP3   OH2 8745   1.590   2.008   6.509
 2935TIP3    H1 8746   1.525   1.938   6.515
 2935TIP3    H2 8747   1.632   1.995   6.423
 2936TIP3   OH2 8748   2.362   0.915   2.567
 2936TIP3    H1 8749   2.373   0.980   2.497
 2936TIP3    H2 8750   2.310   0.961   2.633
 2937TIP3   OH2 8751   7.588   1.711   4.235
 2937TIP3    H1 8752   7.629   1.769   4.171
 2937TIP3    H2 8753   7.605   1.623   4.202
 2938TIP3   OH2 8754   1.902   6.315   0.861
 2938TIP3    H1 8755   1.978   6.313   0.918
 2938TIP3    H2 8756   1.834   6.266   0.909
 2939TIP3   OH2 8757   2.939   5.560   2.452
 2939TIP3    H1 8758   2.896   5.642   2.475
 2939TIP3    H2 8759   2.878   5.517   2.392
 2940TIP3   OH2 8760   3.404   7.678   2.909
 2940TIP3    H1 8761   3.337   7.740   2.882
 2940TIP3    H2 8762   3.389   7.664   3.002
 2941TIP3   OH2 8763   8.147   2.449   0.085
 2941TIP3    H1 8764   8.182   2.450   0.174
 2941TIP3    H2 8765   8.097   2.530   0.077
 2942TIP3   OH2 8766   0.379   1.847   1.253
 2942TIP3    H1 8767   0.373   1.783   1.182
 2942TIP3    H2 8768   0.471   1.875   1.253
 2943TIP3   OH2 8769   0.609   4.493   0.700
 2943TIP3    H1 8770   0.589   4.401   0.717
 2943TIP3    H2 8771   0.621   4.531   0.787
 2944TIP3   OH2 8772   6.333   4.842   4.300
 2944TIP3    H1 8773   6.275   4.905   4.343
 2944TIP3    H2 8774   6.413   4.842   4.352
 2945TIP3   OH2 8775   1.738   3.870   3.916
 2945TIP3    H1 8776   1.762   3.863   3.824
 2945TIP3    H2 8777   1.817   3.844   3.964
 2946TIP3   OH2 8778   3.896   5.654   4.525
 2946TIP3    H1 8779   3.864   5.595   4.593
 2946TIP3    H2 8780   3.860   5.739   4.549
 2947TIP3   OH2 8781   1.131   2.316   1.958
 2947TIP3    H1 8782   1.100   2.332   1.869
 2947TIP3    H2 8783   1.178   2.233   1.952
 2948TIP3   OH2 8784   0.898   7.473   1.996
 2948TIP3    H1 8785   0.956   7.520   2.056
 2948TIP3    H2 8786   0.953   7.405   1.958
 2949TIP3   OH2 8787   1.494   7.789   1.181
 2949TIP3    H1 8788   1.461   7.802   1.270
 2949TIP3    H2 8789   1.509   7.878   1.148
 2950TIP3   OH2 8790   2.080   4.058   0.693
 2950TIP3    H1 8791   2.008   4.108   0.730
 2950TIP3    H2 8792   2.041   4.009   0.620
 2951TIP3   OH2 8793   5.556   7.240   1.936
 2951TIP3    H1 8794   5.548   7.200   1.850
 2951TIP3    H2 8795   5.534   7.170   1.998
 2952TIP3   OH2 8796   1.184   6.005   3.724
 2952TIP3    H1 8797   1.092   5.998   3.752
 2952TIP3    H2 8798   1.230   6.033   3.803
 2953TIP3   OH2 8799   5.246   7.144   3.901
 2953TIP3    H1 8800   5.243   7.084   3.827
 2953TIP3    H2 8801   5.194   7.101   3.969
 2954TIP3   OH2 8802   5.523   0.053   4.540
 2954TIP3    H1 8803   5.452   0.073   4.601
 2954TIP3    H2 8804   5.603   0.073   4.589
 2955TIP3   OH2 8805   2.704   5.817   2.869
 2955TIP3    H1 8806   2.782   5.813   2.924
 2955TIP3    H2 8807   2.641   5.869   2.920
 2956TIP3   OH2 8808   1.204   7.839   2.855
 2956TIP3    H1 8809   1.115   7.837   2.889
 2956TIP3    H2 8810   1.200   7.786   2.775
 2957TIP3   OH2 8811   7.204   5.007   2.611
 2957TIP3    H1 8812   7.247   5.073   2.667
 2957TIP3    H2 8813   7.277   4.959   2.571
 2958TIP3   OH2 8814   3.919   0.249   5.051
 2958TIP3    H1 8815   3.935   0.340   5.076
 2958TIP3    H2 8816   3.833   0.251   5.010
 2959TIP3   OH2 8817   5.832  -0.001   1.062
 2959TIP3    H1 8818   5.748   0.026   1.099
 2959TIP3    H2 8819   5.898   0.038   1.120
 2960TIP3   OH2 8820   2.625   0.354   4.323
 2960TIP3    H1 8821   2.542   0.313   4.350
 2960TIP3    H2 8822   2.605   0.448   4.319
 2961TIP3   OH2 8823   1.897   5.916   5.265
 2961TIP3    H1 8824   1.873   5.843   5.208
 2961TIP3    H2 8825   1.976   5.953   5.225
 2962TIP3   OH2 8826   5.998   2.277   5.378
 2962TIP3    H1 8827   5.937   2.203   5.384
 2962TIP3    H2 8828   5.944   2.353   5.399
 2963TIP3   OH2 8829   6.145   5.270   4.189
 2963TIP3    H1 8830   6.084   5.335   4.225
 2963TIP3    H2 8831   6.206   5.321   4.135
 2964TIP3   OH2 8832   8.310   2.846   0.189
 2964TIP3    H1 8833   8.289   2.771   0.244
 2964TIP3    H2 8834   8.355   2.907   0.247
 2965TIP3   OH2 8835   6.832   1.083   6.200
 2965TIP3    H1 8836   6.768   1.100   6.269
 2965TIP3    H2 8837   6.882   1.007   6.232
 2966TIP3   OH2 8838   1.393   0.138   5.466
 2966TIP3    H1 8839   1.467   0.117   5.410
 2966TIP3    H2 8840   1.362   0.054   5.498
 2967TIP3   OH2 8841   4.132   2.899   4.431
 2967TIP3    H1 8842   4.175   2.911   4.346
 2967TIP3    H2 8843   4.075   2.823   4.418
 2968TIP3   OH2 8844   1.870   6.894   5.294
 2968TIP3    H1 8845   1.889   6.914   5.386
 2968TIP3    H2 8846   1.800   6.954   5.270
 2969TIP3   OH2 8847   5.645   0.884   1.708
 2969TIP3    H1 8848   5.642   0.918   1.797
 2969TIP3    H2 8849   5.613   0.794   1.716
 2970TIP3   OH2 8850   6.786   7.324   3.412
 2970TIP3    H1 8851   6.710   7.273   3.436
 2970TIP3    H2 8852   6.824   7.354   3.495
 2971TIP3   OH2 8853   5.846   7.785   3.178
 2971TIP3    H1 8854   5.928   7.830   3.197
 2971TIP3    H2 8855   5.820   7.820   3.093
 2972TIP3   OH2 8856   4.297   1.284   4.293
 2972TIP3    H1 8857   4.302   1.263   4.200
 2972TIP3    H2 8858   4.315   1.201   4.337
 2973TIP3   OH2 8859   5.692   3.207   6.303
 2973TIP3    H1 8860   5.705   3.117   6.272
 2973TIP3    H2 8861   5.665   3.256   6.226
 2974TIP3   OH2 8862   7.718   2.864   2.724
 2974TIP3    H1 8863   7.657   2.921   2.676
 2974TIP3    H2 8864   7.804   2.888   2.691
 2975TIP3   OH2 8865   7.516   6.550   2.747
 2975TIP3    H1 8866   7.555   6.638   2.745
 2975TIP3    H2 8867   7.521   6.520   2.657
 2976TIP3   OH2 8868   6.203   4.677   3.929
 2976TIP3    H1 8869   6.132   4.719   3.978
 2976TIP3    H2 8870   6.262   4.643   3.996
 2977TIP3   OH2 8871   6.000   1.039   4.781
 2977TIP3    H1 8872   6.060   0.967   4.763
 2977TIP3    H2 8873   5.951   1.050   4.700
 2978TIP3   OH2 8874   5.504   5.736   5.741
 2978TIP3    H1 8875   5.488   5.662   5.799
 2978TIP3    H2 8876   5.496   5.700   5.652
 2979TIP3   OH2 8877   7.143   0.320   0.358
 2979TIP3    H1 8878   7.161   0.333   0.265
 2979TIP3    H2 8879   7.131   0.409   0.393
 2980TIP3   OH2 8880   2.685   4.574   1.440
 2980TIP3    H1 8881   2.640   4.590   1.357
 2980TIP3    H2 8882   2.734   4.654   1.457
 2981TIP3   OH2 8883   2.606   4.016   3.988
 2981TIP3    H1 8884   2.546   4.072   3.938
 2981TIP3    H2 8885   2.657   3.970   3.922
 2982TIP3   OH2 8886   7.127   1.380   4.565
 2982TIP3    H1 8887   7.138   1.412   4.475
 2982TIP3    H2 8888   7.097   1.290   4.555
 2983TIP3   OH2 8889   2.425   4.241   1.752
 2983TIP3    H1 8890   2.478   4.307   1.797
 2983TIP3    H2 8891   2.380   4.290   1.683
 2984TIP3   OH2 8892   7.677   6.966   2.227
 2984TIP3    H1 8893   7.581   6.968   2.219
 2984TIP3    H2 8894   7.709   6.985   2.139
 2985TIP3   OH2 8895   7.068   7.460   3.501
 2985TIP3    H1 8896   7.081   7.536   3.445
 2985TIP3    H2 8897   7.153   7.417   3.504
 2986TIP3   OH2 8898   4.650   2.496   4.316
 2986TIP3    H1 8899   4.585   2.550   4.273
 2986TIP3    H2 8900   4.683   2.550   4.388
 2987TIP3   OH2 8901   4.726   6.698   4.626
 2987TIP3    H1 8902   4.708   6.628   4.563
 2987TIP3    H2 8903   4.741   6.775   4.572
 2988TIP3   OH2 8904   4.039   4.438   3.546
 2988TIP3    H1 8905   4.013   4.527   3.566
 2988TIP3    H2 8906   4.028   4.431   3.451
 2989TIP3   OH2 8907   6.342   4.269   6.279
 2989TIP3    H1 8908   6.364   4.179   6.257
 2989TIP3    H2 8909   6.251   4.266   6.309
 2990TIP3   OH2 8910   7.210   3.287   0.128
 2990TIP3    H1 8911   7.197   3.273   0.034
 2990TIP3    H2 8912   7.249   3.205   0.159
 2991TIP3   OH2 8913   6.229   6.290   4.964
 2991TIP3    H1 8914   6.300   6.354   4.960
 2991TIP3    H2 8915   6.242   6.235   4.887
 2992TIP3   OH2 8916   0.745   5.321   4.549
 2992TIP3    H1 8917   0.650   5.309   4.540
 2992TIP3    H2 8918   0.778   5.319   4.459
 2993TIP3   OH2 8919   4.812   3.963   4.171
 2993TIP3    H1 8920   4.865   4.043   4.164
 2993TIP3    H2 8921   4.849   3.904   4.106
 2994TIP3   OH2 8922   2.864   2.164   5.210
 2994TIP3    H1 8923   2.824   2.135   5.128
 2994TIP3    H2 8924   2.791   2.197   5.262
 2995TIP3   OH2 8925   4.468   4.738   6.367
 2995TIP3    H1 8926   4.437   4.648   6.376
 2995TIP3    H2 8927   4.487   4.766   6.456
 2996TIP3   OH2 8928   4.235   7.785   6.201
 2996TIP3    H1 8929   4.149   7.825   6.183
 2996TIP3    H2 8930   4.297   7.840   6.154
 2997TIP3   OH2 8931   4.854   0.506   4.275
 2997TIP3    H1 8932   4.918   0.575   4.258
 2997TIP3    H2 8933   4.871   0.440   4.207
 2998TIP3   OH2 8934   7.802   4.296   2.926
 2998TIP3    H1 8935   7.886   4.301   2.971
 2998TIP3    H2 8936   7.748   4.241   2.983
 2999TIP3   OH2 8937   6.153   0.745   0.992
 2999TIP3    H1 8938   6.122   0.835   1.002
 2999TIP3    H2 8939   6.243   0.754   0.961
 3000TIP3   OH2 8940   4.536   4.934   3.731
 3000TIP3    H1 8941   4.491   5.017   3.747
 3000TIP3    H2 8942   4.598   4.953   3.661
 3001TIP3   OH2 8943   4.734   7.105   6.215
 3001TIP3    H1 8944   4.739   7.044   6.289
 3001TIP3    H2 8945   4.686   7.180   6.248
 3002TIP3   OH2 8946   0.978   6.238   4.133
 3002TIP3    H1 8947   1.034   6.251   4.056
 3002TIP3    H2 8948   0.980   6.323   4.178
 3003TIP3   OH2 8949   8.251   3.277   1.387
 3003TIP3    H1 8950   8.345   3.292   1.386
 3003TIP3    H2 8951   8.238   3.202   1.445
 3004TIP3   OH2 8952   5.181   0.286   4.945
 3004TIP3    H1 8953   5.122   0.295   4.871
 3004TIP3    H2 8954   5.245   0.219   4.918
 3005TIP3   OH2 8955   3.229   3.609   5.948
 3005TIP3    H1 8956   3.276   3.619   6.031
 3005TIP3    H2 8957   3.222   3.699   5.914
 3006TIP3   OH2 8958   2.010   7.210   1.205
 3006TIP3    H1 8959   2.030   7.302   1.185
 3006TIP3    H2 8960   2.051   7.161   1.133
 3007TIP3   OH2 8961   0.106   7.177   4.464
 3007TIP3    H1 8962   0.132   7.109   4.526
 3007TIP3    H2 8963   0.156   7.158   4.385
 3008TIP3   OH2 8964   7.050   5.212   0.209
 3008TIP3    H1 8965   7.089   5.284   0.161
 3008TIP3    H2 8966   7.041   5.142   0.144
 3009TIP3   OH2 8967   6.859   3.788   5.813
 3009TIP3    H1 8968   6.838   3.765   5.903
 3009TIP3    H2 8969   6.933   3.732   5.791
 3010TIP3   OH2 8970   8.161   0.979   6.204
 3010TIP3    H1 8971   8.115   0.929   6.271
 3010TIP3    H2 8972   8.134   0.938   6.121
 3011TIP3   OH2 8973   8.037   2.709   1.590
 3011TIP3    H1 8974   7.987   2.642   1.638
 3011TIP3    H2 8975   7.975   2.781   1.579
 3012TIP3   OH2 8976   8.313   6.043   4.402
 3012TIP3    H1 8977   8.323   6.122   4.349
 3012TIP3    H2 8978   8.252   6.069   4.472
 3013TIP3   OH2 8979   4.671   2.706   5.044
 3013TIP3    H1 8980   4.681   2.691   5.138
 3013TIP3    H2 8981   4.644   2.798   5.037
 3014TIP3   OH2 8982   3.920   1.431   0.908
 3014TIP3    H1 8983   3.969   1.509   0.880
 3014TIP3    H2 8984   3.914   1.439   1.003
 3015TIP3   OH2 8985   4.719   7.882   1.398
 3015TIP3    H1 8986   4.626   7.874   1.376
 3015TIP3    H2 8987   4.742   7.799   1.438
 3016TIP3   OH2 8988   6.513   4.381   1.534
 3016TIP3    H1 8989   6.497   4.290   1.562
 3016TIP3    H2 8990   6.460   4.434   1.593
 3017TIP3   OH2 8991   5.868   4.116   6.754
 3017TIP3    H1 8992   5.903   4.050   6.694
 3017TIP3    H2 8993   5.794   4.073   6.797
 3018TIP3   OH2 8994   5.499   1.378   4.565
 3018TIP3    H1 8995   5.475   1.346   4.478
 3018TIP3    H2 8996   5.521   1.299   4.615
 3019TIP3   OH2 8997   3.611   0.212   3.649
 3019TIP3    H1 8998   3.518   0.226   3.669
 3019TIP3    H2 8999   3.646   0.168   3.726
 3020TIP3   OH2 9000   4.423   3.984   2.992
 3020TIP3    H1 9001   4.446   4.072   3.022
 3020TIP3    H2 9002   4.417   3.932   3.072
 3021TIP3   OH2 9003   1.624   2.765   2.941
 3021TIP3    H1 9004   1.568   2.837   2.969
 3021TIP3    H2 9005   1.686   2.806   2.880
 3022TIP3   OH2 9006   5.694   7.067   5.488
 3022TIP3    H1 9007   5.753   7.008   5.441
 3022TIP3    H2 9008   5.646   7.114   5.420
 3023TIP3   OH2 9009   2.882   1.105   4.608
 3023TIP3    H1 9010   2.862   1.021   4.649
 3023TIP3    H2 9011   2.974   1.098   4.582
 3024TIP3   OH2 9012   0.837   7.788   2.349
 3024TIP3    H1 9013   0.751   7.812   2.314
 3024TIP3    H2 9014   0.847   7.843   2.427
 3025TIP3   OH2 9015   7.156   2.576   5.148
 3025TIP3    H1 9016   7.068   2.580   5.184
 3025TIP3    H2 9017   7.144   2.585   5.053
 3026TIP3   OH2 9018   5.225   7.079   2.026
 3026TIP3    H1 9019   5.219   6.984   2.014
 3026TIP3    H2 9020   5.134   7.108   2.033
 3027TIP3   OH2 9021   8.360   6.080   0.617
 3027TIP3    H1 9022   8.325   6.082   0.528
 3027TIP3    H2 9023   8.298   6.026   0.666
 3028TIP3   OH2 9024   4.539   6.667   6.017
 3028TIP3    H1 9025   4.451   6.667   6.053
 3028TIP3    H2 9026   4.590   6.612   6.077
 3029TIP3   OH2 9027   5.795   4.999   3.566
 3029TIP3    H1 9028   5.829   4.952   3.490
 3029TIP3    H2 9029   5.846   4.965   3.640
 3030TIP3   OH2 9030   4.327   0.110   6.604
 3030TIP3    H1 9031   4.251   0.061   6.570
 3030TIP3    H2 9032   4.349   0.065   6.686
 3031TIP3   OH2 9033   0.896   7.421   3.595
 3031TIP3    H1 9034   0.934   7.401   3.509
 3031TIP3    H2 9035   0.851   7.341   3.621
 3032TIP3   OH2 9036   4.457   5.954   1.642
 3032TIP3    H1 9037   4.458   5.890   1.572
 3032TIP3    H2 9038   4.408   5.912   1.713
 3033TIP3   OH2 9039   4.325   3.960   1.123
 3033TIP3    H1 9040   4.362   3.906   1.053
 3033TIP3    H2 9041   4.243   3.993   1.088
 3034TIP3   OH2 9042   4.677   7.533   4.918
 3034TIP3    H1 9043   4.622   7.475   4.865
 3034TIP3    H2 9044   4.694   7.484   4.998
 3035TIP3   OH2 9045   2.245   6.689   2.472
 3035TIP3    H1 9046   2.328   6.678   2.518
 3035TIP3    H2 9047   2.268   6.683   2.379
 3036TIP3   OH2 9048   5.486   4.800   6.115
 3036TIP3    H1 9049   5.431   4.727   6.144
 3036TIP3    H2 9050   5.468   4.870   6.178
 3037TIP3   OH2 9051   1.300   3.410   2.213
 3037TIP3    H1 9052   1.260   3.497   2.216
 3037TIP3    H2 9053   1.324   3.397   2.121
 3038TIP3   OH2 9054   0.549   7.074   3.281
 3038TIP3    H1 9055   0.544   7.109   3.191
 3038TIP3    H2 9056   0.603   6.995   3.273
 3039TIP3   OH2 9057   6.125   3.738   6.113
 3039TIP3    H1 9058   6.185   3.812   6.101
 3039TIP3    H2 9059   6.159   3.670   6.054
 3040TIP3   OH2 9060   5.427   0.755   0.206
 3040TIP3    H1 9061   5.433   0.850   0.217
 3040TIP3    H2 9062   5.434   0.741   0.111
 3041TIP3   OH2 9063   5.972   7.241   0.108
 3041TIP3    H1 9064   5.910   7.204   0.171
 3041TIP3    H2 9065   6.001   7.166   0.056
 3042TIP3   OH2 9066   2.060   3.583   0.191
 3042TIP3    H1 9067   2.104   3.498   0.200
 3042TIP3    H2 9068   2.004   3.573   0.114
 3043TIP3   OH2 9069   7.048   6.478   3.589
 3043TIP3    H1 9070   6.994   6.465   3.511
 3043TIP3    H2 9071   7.069   6.389   3.618
 3044TIP3   OH2 9072   6.533   4.898   1.844
 3044TIP3    H1 9073   6.626   4.882   1.859
 3044TIP3    H2 9074   6.489   4.843   1.910
 3045TIP3   OH2 9075   2.440   7.529   1.422
 3045TIP3    H1 9076   2.470   7.551   1.334
 3045TIP3    H2 9077   2.488   7.589   1.479
 3046TIP3   OH2 9078   1.908   3.033   0.705
 3046TIP3    H1 9079   1.897   3.058   0.613
 3046TIP3    H2 9080   1.823   3.049   0.744
 3047TIP3   OH2 9081   5.990   7.607   2.537
 3047TIP3    H1 9082   6.019   7.587   2.448
 3047TIP3    H2 9083   5.943   7.529   2.566
 3048TIP3   OH2 9084   4.835   6.774   1.316
 3048TIP3    H1 9085   4.885   6.767   1.397
 3048TIP3    H2 9086   4.891   6.826   1.258
 3049TIP3   OH2 9087   7.154   1.956   1.567
 3049TIP3    H1 9088   7.065   1.990   1.571
 3049TIP3    H2 9089   7.204   2.010   1.629
 3050TIP3   OH2 9090   7.267   7.273   0.477
 3050TIP3    H1 9091   7.277   7.202   0.412
 3050TIP3    H2 9092   7.290   7.352   0.429
 3051TIP3   OH2 9093   0.096   7.211   2.614
 3051TIP3    H1 9094   0.190   7.194   2.624
 3051TIP3    H2 9095   0.062   7.210   2.703
 3052TIP3   OH2 9096   2.895   1.598   1.392
 3052TIP3    H1 9097   2.919   1.627   1.304
 3052TIP3    H2 9098   2.936   1.513   1.402
 3053TIP3   OH2 9099   1.729   2.187   6.680
 3053TIP3    H1 9100   1.666   2.220   6.744
 3053TIP3    H2 9101   1.675   2.148   6.611
 3054TIP3   OH2 9102   3.643   0.997   2.505
 3054TIP3    H1 9103   3.595   0.951   2.575
 3054TIP3    H2 9104   3.729   1.013   2.543
 3055TIP3   OH2 9105   0.903   7.905   5.296
 3055TIP3    H1 9106   0.826   7.937   5.249
 3055TIP3    H2 9107   0.891   7.810   5.299
 3056TIP3   OH2 9108   3.776   3.112   5.057
 3056TIP3    H1 9109   3.844   3.125   5.123
 3056TIP3    H2 9110   3.734   3.029   5.081
 3057TIP3   OH2 9111   4.412   2.405   0.059
 3057TIP3    H1 9112   4.472   2.340   0.022
 3057TIP3    H2 9113   4.470   2.473   0.093
 3058TIP3   OH2 9114   4.996   4.650   0.280
 3058TIP3    H1 9115   5.003   4.575   0.340
 3058TIP3    H2 9116   4.989   4.610   0.193
 3059TIP3   OH2 9117   2.201   2.604   1.386
 3059TIP3    H1 9118   2.200   2.509   1.393
 3059TIP3    H2 9119   2.168   2.621   1.297
 3060TIP3   OH2 9120   7.711   1.690   1.263
 3060TIP3    H1 9121   7.689   1.782   1.252
 3060TIP3    H2 9122   7.805   1.690   1.283
 3061TIP3   OH2 9123   6.848   1.842   5.454
 3061TIP3    H1 9124   6.829   1.920   5.506
 3061TIP3    H2 9125   6.838   1.870   5.363
 3062TIP3   OH2 9126   1.794   5.308   3.658
 3062TIP3    H1 9127   1.762   5.295   3.748
 3062TIP3    H2 9128   1.806   5.403   3.651
 3063TIP3   OH2 9129   6.389   1.295   1.832
 3063TIP3    H1 9130   6.341   1.247   1.764
 3063TIP3    H2 9131   6.469   1.245   1.845
 3064TIP3   OH2 9132   5.439   3.225   4.620
 3064TIP3    H1 9133   5.372   3.293   4.613
 3064TIP3    H2 9134   5.401   3.160   4.678
 3065TIP3   OH2 9135   5.491   7.659   0.945
 3065TIP3    H1 9136   5.448   7.742   0.965
 3065TIP3    H2 9137   5.422   7.594   0.958
 3066TIP3   OH2 9138   3.455   7.260   4.564
 3066TIP3    H1 9139   3.500   7.255   4.479
 3066TIP3    H2 9140   3.410   7.176   4.572
 3067TIP3   OH2 9141   7.876   2.881   1.884
 3067TIP3    H1 9142   7.838   2.840   1.807
 3067TIP3    H2 9143   7.803   2.928   1.925
 3068TIP3   OH2 9144   1.412   5.551   6.656
 3068TIP3    H1 9145   1.378   5.635   6.624
 3068TIP3    H2 9146   1.500   5.571   6.688
 3069TIP3   OH2 9147   5.397   6.443   0.501
 3069TIP3    H1 9148   5.394   6.382   0.428
 3069TIP3    H2 9149   5.486   6.479   0.499
 3070TIP3   OH2 9150   1.421   6.241   0.413
 3070TIP3    H1 9151   1.402   6.242   0.319
 3070TIP3    H2 9152   1.501   6.189   0.421
 3071TIP3   OH2 9153   0.393   0.045   5.588
 3071TIP3    H1 9154   0.429   0.132   5.572
 3071TIP3    H2 9155   0.456   0.004   5.647
 3072TIP3   OH2 9156   4.377   0.795   0.301
 3072TIP3    H1 9157   4.472   0.800   0.304
 3072TIP3    H2 9158   4.347   0.857   0.368
 3073TIP3   OH2 9159   7.377   5.032   5.715
 3073TIP3    H1 9160   7.413   5.033   5.626
 3073TIP3    H2 9161   7.303   4.971   5.709
 3074TIP3   OH2 9162   5.290   4.432   1.092
 3074TIP3    H1 9163   5.286   4.505   1.031
 3074TIP3    H2 9164   5.228   4.455   1.161
 3075TIP3   OH2 9165   5.559   5.922   0.064
 3075TIP3    H1 9166   5.473   5.945   0.099
 3075TIP3    H2 9167   5.548   5.834   0.029
 3076TIP3   OH2 9168   1.889   2.307   1.592
 3076TIP3    H1 9169   1.910   2.342   1.679
 3076TIP3    H2 9170   1.903   2.381   1.533
 3077TIP3   OH2 9171   5.308   5.323   0.940
 3077TIP3    H1 9172   5.324   5.341   1.032
 3077TIP3    H2 9173   5.217   5.350   0.925
 3078TIP3   OH2 9174   7.635   4.098   5.257
 3078TIP3    H1 9175   7.647   4.004   5.266
 3078TIP3    H2 9176   7.718   4.136   5.284
 3079TIP3   OH2 9177   7.136   2.734   6.204
 3079TIP3    H1 9178   7.084   2.681   6.264
 3079TIP3    H2 9179   7.150   2.678   6.128
 3080TIP3   OH2 9180   3.627   2.943   1.862
 3080TIP3    H1 9181   3.631   2.997   1.783
 3080TIP3    H2 9182   3.600   3.003   1.931
 3081TIP3   OH2 9183   1.191   6.980   2.048
 3081TIP3    H1 9184   1.124   6.924   2.009
 3081TIP3    H2 9185   1.209   7.045   1.980
 3082TIP3   OH2 9186   1.113   2.668   5.261
 3082TIP3    H1 9187   1.136   2.742   5.317
 3082TIP3    H2 9188   1.163   2.594   5.297
 3083TIP3   OH2 9189   5.710   6.677   1.719
 3083TIP3    H1 9190   5.742   6.604   1.665
 3083TIP3    H2 9191   5.615   6.674   1.710
 3084TIP3   OH2 9192   5.534   3.318   4.373
 3084TIP3    H1 9193   5.528   3.294   4.466
 3084TIP3    H2 9194   5.569   3.407   4.374
 3085TIP3   OH2 9195   5.434   4.746   5.609
 3085TIP3    H1 9196   5.501   4.695   5.653
 3085TIP3    H2 9197   5.359   4.687   5.603
 3086TIP3   OH2 9198   3.196   1.939   3.265
 3086TIP3    H1 9199   3.274   1.886   3.280
 3086TIP3    H2 9200   3.219   2.025   3.299
 3087TIP3   OH2 9201   6.497   1.951   0.210
 3087TIP3    H1 9202   6.434   1.881   0.191
 3087TIP3    H2 9203   6.582   1.906   0.212
 3088TIP3   OH2 9204   4.676   7.313   6.372
 3088TIP3    H1 9205   4.705   7.309   6.463
 3088TIP3    H2 9206   4.732   7.379   6.331
 3089TIP3   OH2 9207   2.955   6.686   2.750
 3089TIP3    H1 9208   3.050   6.692   2.759
 3089TIP3    H2 9209   2.922   6.762   2.800
 3090TIP3   OH2 9210   2.250   3.483   5.910
 3090TIP3    H1 9211   2.202   3.565   5.922
 3090TIP3    H2 9212   2.342   3.509   5.914
 3091TIP3   OH2 9213   6.505   0.139   6.284
 3091TIP3    H1 9214   6.555   0.212   6.321
 3091TIP3    H2 9215   6.476   0.089   6.360
 3092TIP3   OH2 9216   7.698   7.101   1.687
 3092TIP3    H1 9217   7.708   7.164   1.615
 3092TIP3    H2 9218   7.682   7.018   1.643
 3093TIP3   OH2 9219   0.460   1.498   2.396
 3093TIP3    H1 9220   0.434   1.567   2.456
 3093TIP3    H2 9221   0.377   1.464   2.361
 3094TIP3   OH2 9222   4.332   4.485   3.290
 3094TIP3    H1 9223   4.278   4.511   3.365
 3094TIP3    H2 9224   4.418   4.468   3.328
 3095TIP3   OH2 9225   8.276   6.928   3.661
 3095TIP3    H1 9226   8.267   6.887   3.575
 3095TIP3    H2 9227   8.187   6.937   3.693
 3096TIP3   OH2 9228   0.298   2.487   4.365
 3096TIP3    H1 9229   0.389   2.462   4.381
 3096TIP3    H2 9230   0.278   2.450   4.279
 3097TIP3   OH2 9231   4.807   6.869   5.845
 3097TIP3    H1 9232   4.737   6.931   5.868
 3097TIP3    H2 9233   4.770   6.816   5.774
 3098TIP3   OH2 9234   3.146   5.384   5.390
 3098TIP3    H1 9235   3.142   5.309   5.450
 3098TIP3    H2 9236   3.139   5.461   5.446
 3099TIP3   OH2 9237   3.361   2.898   6.638
 3099TIP3    H1 9238   3.377   2.874   6.546
 3099TIP3    H2 9239   3.426   2.848   6.687
 3100TIP3   OH2 9240   3.444   3.127   5.424
 3100TIP3    H1 9241   3.350   3.141   5.410
 3100TIP3    H2 9242   3.486   3.199   5.378
 3101TIP3   OH2 9243   4.344   0.241   1.849
 3101TIP3    H1 9244   4.288   0.315   1.822
 3101TIP3    H2 9245   4.433   0.276   1.844
 3102TIP3   OH2 9246   3.023   3.419   6.278
 3102TIP3    H1 9247   2.978   3.335   6.279
 3102TIP3    H2 9248   3.112   3.399   6.308
 3103TIP3   OH2 9249   4.192   2.220   0.904
 3103TIP3    H1 9250   4.269   2.250   0.951
 3103TIP3    H2 9251   4.172   2.292   0.843
 3104TIP3   OH2 9252   4.555   2.555   2.611
 3104TIP3    H1 9253   4.514   2.560   2.697
 3104TIP3    H2 9254   4.482   2.557   2.549
 3105TIP3   OH2 9255   3.264   7.786   5.890
 3105TIP3    H1 9256   3.354   7.799   5.920
 3105TIP3    H2 9257   3.272   7.727   5.815
 3106TIP3   OH2 9258   7.435   7.578   5.165
 3106TIP3    H1 9259   7.386   7.610   5.241
 3106TIP3    H2 9260   7.518   7.627   5.169
 3107TIP3   OH2 9261   7.986   4.934   4.891
 3107TIP3    H1 9262   8.022   4.985   4.963
 3107TIP3    H2 9263   7.892   4.933   4.906
 3108TIP3   OH2 9264   2.422   7.496   0.042
 3108TIP3    H1 9265   2.458   7.543  -0.033
 3108TIP3    H2 9266   2.446   7.405   0.027
 3109TIP3   OH2 9267   5.116   0.933   2.252
 3109TIP3    H1 9268   5.075   0.907   2.334
 3109TIP3    H2 9269   5.080   1.020   2.234
 3110TIP3   OH2 9270   2.792   1.759   4.753
 3110TIP3    H1 9271   2.728   1.763   4.683
 3110TIP3    H2 9272   2.789   1.668   4.784
 3111TIP3   OH2 9273   1.916   1.370   3.332
 3111TIP3    H1 9274   1.887   1.459   3.347
 3111TIP3    H2 9275   1.847   1.315   3.370
 3112TIP3   OH2 9276   8.272   3.252   5.981
 3112TIP3    H1 9277   8.181   3.275   5.999
 3112TIP3    H2 9278   8.267   3.165   5.942
 3113TIP3   OH2 9279   1.768   2.037   4.845
 3113TIP3    H1 9280   1.804   2.001   4.926
 3113TIP3    H2 9281   1.736   1.961   4.796
 3114TIP3   OH2 9282   6.103   1.003   5.126
 3114TIP3    H1 9283   6.056   0.926   5.158
 3114TIP3    H2 9284   6.075   1.074   5.184
 3115TIP3   OH2 9285   0.443   6.240   1.556
 3115TIP3    H1 9286   0.470   6.327   1.585
 3115TIP3    H2 9287   0.488   6.180   1.616
 3116TIP3   OH2 9288   0.481   6.697   0.267
 3116TIP3    H1 9289   0.413   6.648   0.314
 3116TIP3    H2 9290   0.500   6.771   0.324
 3117TIP3   OH2 9291   3.914   0.556   1.408
 3117TIP3    H1 9292   3.891   0.647   1.387
 3117TIP3    H2 9293   3.943   0.519   1.324
 3118TIP3   OH2 9294   0.464   0.611   0.588
 3118TIP3    H1 9295   0.538   0.659   0.624
 3118TIP3    H2 9296   0.503   0.535   0.545
 3119TIP3   OH2 9297   4.205   2.747   2.249
 3119TIP3    H1 9298   4.287   2.740   2.200
 3119TIP3    H2 9299   4.151   2.675   2.214
 3120TIP3   OH2 9300   7.081   0.464   4.011
 3120TIP3    H1 9301   7.148   0.495   4.072
 3120TIP3    H2 9302   7.056   0.542   3.961
 3121TIP3   OH2 9303   3.073   6.494   4.685
 3121TIP3    H1 9304   3.134   6.562   4.657
 3121TIP3    H2 9305   2.998   6.542   4.720
 3122TIP3   OH2 9306   4.684   4.699   1.819
 3122TIP3    H1 9307   4.771   4.706   1.779
 3122TIP3    H2 9308   4.647   4.786   1.809
 3123TIP3   OH2 9309   7.663   7.311   1.478
 3123TIP3    H1 9310   7.735   7.373   1.464
 3123TIP3    H2 9311   7.585   7.357   1.446
 3124TIP3   OH2 9312   7.017   2.558   6.346
 3124TIP3    H1 9313   7.011   2.602   6.430
 3124TIP3    H2 9314   6.980   2.471   6.362
 3125TIP3   OH2 9315   1.852   0.337   5.363
 3125TIP3    H1 9316   1.766   0.371   5.390
 3125TIP3    H2 9317   1.884   0.402   5.300
 3126TIP3   OH2 9318   0.698   7.636   2.152
 3126TIP3    H1 9319   0.708   7.558   2.207
 3126TIP3    H2 9320   0.778   7.686   2.168
 3127TIP3   OH2 9321   2.116   7.392   6.122
 3127TIP3    H1 9322   2.203   7.404   6.083
 3127TIP3    H2 9323   2.113   7.455   6.194
 3128TIP3   OH2 9324   8.203   2.528   2.788
 3128TIP3    H1 9325   8.228   2.443   2.824
 3128TIP3    H2 9326   8.214   2.517   2.693
 3129TIP3   OH2 9327   2.158   6.246   4.537
 3129TIP3    H1 9328   2.183   6.305   4.466
 3129TIP3    H2 9329   2.175   6.158   4.504
 3130TIP3   OH2 9330   2.800   4.742   4.593
 3130TIP3    H1 9331   2.880   4.736   4.540
 3130TIP3    H2 9332   2.785   4.653   4.624
 3131TIP3   OH2 9333   3.695   4.818   4.315
 3131TIP3    H1 9334   3.609   4.797   4.279
 3131TIP3    H2 9335   3.677   4.873   4.391
 3132TIP3   OH2 9336   8.086   3.306   5.698
 3132TIP3    H1 9337   8.062   3.281   5.787
 3132TIP3    H2 9338   8.106   3.223   5.655
 3133TIP3   OH2 9339   7.243   2.573   0.221
 3133TIP3    H1 9340   7.252   2.636   0.292
 3133TIP3    H2 9341   7.312   2.595   0.159
 3134TIP3   OH2 9342   0.436   5.118   2.277
 3134TIP3    H1 9343   0.474   5.038   2.313
 3134TIP3    H2 9344   0.390   5.089   2.198
 3135TIP3   OH2 9345   2.774   3.482   4.662
 3135TIP3    H1 9346   2.834   3.443   4.726
 3135TIP3    H2 9347   2.692   3.493   4.710
 3136TIP3   OH2 9348   2.019   2.972   1.401
 3136TIP3    H1 9349   2.030   2.907   1.331
 3136TIP3    H2 9350   2.019   2.920   1.481
 3137TIP3   OH2 9351   8.292   1.307   5.136
 3137TIP3    H1 9352   8.270   1.379   5.196
 3137TIP3    H2 9353   8.388   1.305   5.135
 3138TIP3   OH2 9354   0.658   7.586   5.618
 3138TIP3    H1 9355   0.564   7.569   5.614
 3138TIP3    H2 9356   0.666   7.666   5.670
 3139TIP3   OH2 9357   0.618   2.955   2.442
 3139TIP3    H1 9358   0.539   2.902   2.432
 3139TIP3    H2 9359   0.636   2.953   2.536
 3140TIP3   OH2 9360   8.256   0.758   2.206
 3140TIP3    H1 9361   8.188   0.701   2.170
 3140TIP3    H2 9362   8.285   0.714   2.286
 3141TIP3   OH2 9363   0.823   0.275   0.135
 3141TIP3    H1 9364   0.891   0.342   0.125
 3141TIP3    H2 9365   0.741   0.324   0.136
 3142TIP3   OH2 9366   0.372   7.571   5.055
 3142TIP3    H1 9367   0.327   7.487   5.043
 3142TIP3    H2 9368   0.341   7.603   5.140
 3143TIP3   OH2 9369   4.609   2.234   3.331
 3143TIP3    H1 9370   4.623   2.172   3.403
 3143TIP3    H2 9371   4.675   2.302   3.346
 3144TIP3   OH2 9372   2.561   5.636   5.007
 3144TIP3    H1 9373   2.552   5.557   4.955
 3144TIP3    H2 9374   2.472   5.658   5.034
 3145TIP3   OH2 9375   6.244   3.381   5.768
 3145TIP3    H1 9376   6.198   3.429   5.699
 3145TIP3    H2 9377   6.288   3.309   5.723
 3146TIP3   OH2 9378   0.830   1.569   0.740
 3146TIP3    H1 9379   0.736   1.553   0.754
 3146TIP3    H2 9380   0.869   1.482   0.742
 3147TIP3   OH2 9381   7.458   1.856   6.247
 3147TIP3    H1 9382   7.520   1.925   6.221
 3147TIP3    H2 9383   7.514   1.786   6.282
 3148TIP3   OH2 9384   5.032   0.246   0.882
 3148TIP3    H1 9385   4.969   0.180   0.855
 3148TIP3    H2 9386   4.981   0.327   0.885
 3149TIP3   OH2 9387   5.144   3.478   1.550
 3149TIP3    H1 9388   5.050   3.495   1.559
 3149TIP3    H2 9389   5.153   3.439   1.463
 3150TIP3   OH2 9390   2.093   0.377   5.884
 3150TIP3    H1 9391   2.049   0.456   5.914
 3150TIP3    H2 9392   2.168   0.408   5.835
 3151TIP3   OH2 9393   7.976   4.377   2.508
 3151TIP3    H1 9394   7.989   4.390   2.601
 3151TIP3    H2 9395   7.882   4.379   2.496
 3152TIP3   OH2 9396   8.154   5.815   4.607
 3152TIP3    H1 9397   8.124   5.749   4.544
 3152TIP3    H2 9398   8.075   5.863   4.630
 3153TIP3   OH2 9399   0.508   4.988   5.135
 3153TIP3    H1 9400   0.521   4.934   5.213
 3153TIP3    H2 9401   0.420   4.964   5.105
 3154TIP3   OH2 9402   7.905   7.327   0.501
 3154TIP3    H1 9403   7.986   7.371   0.475
 3154TIP3    H2 9404   7.917   7.236   0.477
 3155TIP3   OH2 9405   7.238   1.142   5.687
 3155TIP3    H1 9406   7.319   1.143   5.635
 3155TIP3    H2 9407   7.168   1.146   5.623
 3156TIP3   OH2 9408   0.679   5.528   5.958
 3156TIP3    H1 9409   0.589   5.499   5.946
 3156TIP3    H2 9410   0.683   5.612   5.912
 3157TIP3   OH2 9411   5.349   4.590   0.138
 3157TIP3    H1 9412   5.420   4.526   0.132
 3157TIP3    H2 9413   5.313   4.594   0.049
 3158TIP3   OH2 9414   0.612   3.960   1.701
 3158TIP3    H1 9415   0.664   3.987   1.625
 3158TIP3    H2 9416   0.614   4.035   1.759
 3159TIP3   OH2 9417   6.120   1.009   1.023
 3159TIP3    H1 9418   6.167   1.031   1.104
 3159TIP3    H2 9419   6.154   1.071   0.959
 3160TIP3   OH2 9420   5.511   2.794   5.066
 3160TIP3    H1 9421   5.460   2.813   4.987
 3160TIP3    H2 9422   5.600   2.781   5.034
 3161TIP3   OH2 9423   5.891   6.623   5.428
 3161TIP3    H1 9424   5.839   6.683   5.375
 3161TIP3    H2 9425   5.838   6.544   5.434
 3162TIP3   OH2 9426   3.602   1.800   1.688
 3162TIP3    H1 9427   3.592   1.716   1.642
 3162TIP3    H2 9428   3.512   1.824   1.711
 3163TIP3   OH2 9429   4.414   6.659   3.503
 3163TIP3    H1 9430   4.420   6.604   3.425
 3163TIP3    H2 9431   4.456   6.607   3.572
 3164TIP3   OH2 9432   1.238   0.857   5.096
 3164TIP3    H1 9433   1.276   0.841   5.183
 3164TIP3    H2 9434   1.173   0.788   5.085
 3165TIP3   OH2 9435   4.679   4.664   3.514
 3165TIP3    H1 9436   4.585   4.681   3.513
 3165TIP3    H2 9437   4.701   4.646   3.423
 3166TIP3   OH2 9438   3.297   2.861   5.616
 3166TIP3    H1 9439   3.300   2.845   5.522
 3166TIP3    H2 9440   3.211   2.902   5.631
 3167TIP3   OH2 9441   1.440   3.182   1.588
 3167TIP3    H1 9442   1.515   3.123   1.581
 3167TIP3    H2 9443   1.435   3.204   1.681
 3168TIP3   OH2 9444   0.683   5.084   0.910
 3168TIP3    H1 9445   0.611   5.134   0.947
 3168TIP3    H2 9446   0.745   5.074   0.982
 3169TIP3   OH2 9447   6.737   2.105   3.810
 3169TIP3    H1 9448   6.806   2.074   3.752
 3169TIP3    H2 9449   6.666   2.042   3.799
 3170TIP3   OH2 9450   4.837   3.117   5.159
 3170TIP3    H1 9451   4.791   3.066   5.092
 3170TIP3    H2 9452   4.914   3.064   5.181
 3171TIP3   OH2 9453   0.484   6.905   0.057
 3171TIP3    H1 9454   0.508   6.896  -0.035
 3171TIP3    H2 9455   0.482   6.815   0.090
 3172TIP3   OH2 9456   1.379   4.156   5.007
 3172TIP3    H1 9457   1.359   4.216   5.079
 3172TIP3    H2 9458   1.387   4.070   5.049
 3173TIP3   OH2 9459   7.153   6.739   4.792
 3173TIP3    H1 9460   7.175   6.825   4.827
 3173TIP3    H2 9461   7.064   6.748   4.759
 3174TIP3   OH2 9462   6.006   6.159   3.466
 3174TIP3    H1 9463   5.987   6.231   3.405
 3174TIP3    H2 9464   5.977   6.193   3.551
 3175TIP3   OH2 9465   5.982   2.963   3.861
 3175TIP3    H1 9466   5.899   2.950   3.815
 3175TIP3    H2 9467   5.972   2.916   3.944
 3176TIP3   OH2 9468   7.104   4.149   1.822
 3176TIP3    H1 9469   7.171   4.126   1.886
 3176TIP3    H2 9470   7.133   4.234   1.787
 3177TIP3   OH2 9471   3.185   7.130   0.104
 3177TIP3    H1 9472   3.229   7.059   0.057
 3177TIP3    H2 9473   3.105   7.145   0.055
 3178TIP3   OH2 9474   4.647   3.413   4.510
 3178TIP3    H1 9475   4.733   3.423   4.551
 3178TIP3    H2 9476   4.620   3.502   4.489
 3179TIP3   OH2 9477   3.946   4.654   4.410
 3179TIP3    H1 9478   3.898   4.737   4.423
 3179TIP3    H2 9479   4.036   4.681   4.391
 3180TIP3   OH2 9480   2.818   2.204   4.588
 3180TIP3    H1 9481   2.858   2.285   4.558
 3180TIP3    H2 9482   2.731   2.230   4.620
 3181TIP3   OH2 9483   6.364   7.247   5.917
 3181TIP3    H1 9484   6.295   7.312   5.902
 3181TIP3    H2 9485   6.323   7.163   5.895
 3182TIP3   OH2 9486   1.776   1.683   6.396
 3182TIP3    H1 9487   1.826   1.749   6.445
 3182TIP3    H2 9488   1.685   1.712   6.403
 3183TIP3   OH2 9489   5.720   7.317   4.750
 3183TIP3    H1 9490   5.699   7.225   4.735
 3183TIP3    H2 9491   5.660   7.365   4.692
 3184TIP3   OH2 9492   5.826   2.063   6.041
 3184TIP3    H1 9493   5.917   2.053   6.070
 3184TIP3    H2 9494   5.778   1.996   6.090
 3185TIP3   OH2 9495   3.240   3.636   2.304
 3185TIP3    H1 9496   3.178   3.571   2.273
 3185TIP3    H2 9497   3.260   3.689   2.228
 3186TIP3   OH2 9498   2.372   1.961   2.591
 3186TIP3    H1 9499   2.425   1.934   2.516
 3186TIP3    H2 9500   2.383   1.890   2.655
 3187TIP3   OH2 9501   8.197   0.452   5.712
 3187TIP3    H1 9502   8.118   0.504   5.699
 3187TIP3    H2 9503   8.165   0.363   5.730
 3188TIP3   OH2 9504   0.704   1.923   2.365
 3188TIP3    H1 9505   0.712   1.871   2.445
 3188TIP3    H2 9506   0.763   1.881   2.303
 3189TIP3   OH2 9507   3.019   1.364   1.423
 3189TIP3    H1 9508   2.987   1.276   1.444
 3189TIP3    H2 9509   3.093   1.378   1.481
 3190TIP3   OH2 9510   6.231   7.160   3.417
 3190TIP3    H1 9511   6.264   7.249   3.435
 3190TIP3    H2 9512   6.298   7.122   3.360
 3191TIP3   OH2 9513   3.127   5.498   6.751
 3191TIP3    H1 9514   3.075   5.576   6.774
 3191TIP3    H2 9515   3.137   5.450   6.833
 3192TIP3   OH2 9516   8.121   2.573   5.922
 3192TIP3    H1 9517   8.159   2.497   5.880
 3192TIP3    H2 9518   8.067   2.613   5.854
 3193TIP3   OH2 9519   7.175   1.051   1.658
 3193TIP3    H1 9520   7.209   1.140   1.660
 3193TIP3    H2 9521   7.089   1.059   1.616
 3194TIP3   OH2 9522   0.380   3.138   5.538
 3194TIP3    H1 9523   0.346   3.138   5.448
 3194TIP3    H2 9524   0.306   3.106   5.590
 3195TIP3   OH2 9525   3.504   1.645   0.342
 3195TIP3    H1 9526   3.499   1.740   0.331
 3195TIP3    H2 9527   3.437   1.625   0.408
 3196TIP3   OH2 9528   6.344   5.001   5.768
 3196TIP3    H1 9529   6.317   4.955   5.689
 3196TIP3    H2 9530   6.419   4.951   5.801
 3197TIP3   OH2 9531   8.271   3.086   2.223
 3197TIP3    H1 9532   8.218   3.008   2.204
 3197TIP3    H2 9533   8.309   3.069   2.309
 3198TIP3   OH2 9534   8.118   2.357   6.562
 3198TIP3    H1 9535   8.141   2.338   6.653
 3198TIP3    H2 9536   8.033   2.315   6.549
 3199TIP3   OH2 9537   2.930   6.903   0.317
 3199TIP3    H1 9538   2.896   6.976   0.265
 3199TIP3    H2 9539   2.980   6.944   0.387
 3200TIP3   OH2 9540   2.041   2.999   2.796
 3200TIP3    H1 9541   1.993   3.021   2.876
 3200TIP3    H2 9542   2.042   3.080   2.745
 3201TIP3   OH2 9543   1.323   4.483   4.536
 3201TIP3    H1 9544   1.334   4.498   4.630
 3201TIP3    H2 9545   1.375   4.551   4.494
 3202TIP3   OH2 9546   7.512   4.305   1.009
 3202TIP3    H1 9547   7.498   4.272   1.098
 3202TIP3    H2 9548   7.455   4.381   1.003
 3203TIP3   OH2 9549   1.170   2.592   6.013
 3203TIP3    H1 9550   1.253   2.633   6.040
 3203TIP3    H2 9551   1.192   2.546   5.932
 3204TIP3   OH2 9552   3.593   5.015   0.382
 3204TIP3    H1 9553   3.665   4.951   0.385
 3204TIP3    H2 9554   3.515   4.964   0.405
 3205TIP3   OH2 9555   5.329   1.079   2.118
 3205TIP3    H1 9556   5.382   1.012   2.074
 3205TIP3    H2 9557   5.256   1.030   2.155
 3206TIP3   OH2 9558   8.082   6.741   5.546
 3206TIP3    H1 9559   8.136   6.810   5.507
 3206TIP3    H2 9560   8.050   6.691   5.470
 3207TIP3   OH2 9561   7.308   6.400   2.534
 3207TIP3    H1 9562   7.399   6.407   2.503
 3207TIP3    H2 9563   7.256   6.439   2.464
 3208TIP3   OH2 9564   4.527   1.839   3.677
 3208TIP3    H1 9565   4.617   1.809   3.668
 3208TIP3    H2 9566   4.498   1.803   3.761
 3209TIP3   OH2 9567   5.233   3.962   3.498
 3209TIP3    H1 9568   5.222   4.028   3.430
 3209TIP3    H2 9569   5.295   4.001   3.560
 3210TIP3   OH2 9570   3.574   1.786   2.500
 3210TIP3    H1 9571   3.648   1.760   2.445
 3210TIP3    H2 9572   3.573   1.882   2.494
 3211TIP3   OH2 9573   1.413   7.774   6.321
 3211TIP3    H1 9574   1.506   7.753   6.318
 3211TIP3    H2 9575   1.371   7.704   6.270
 3212TIP3   OH2 9576   0.590   2.566   5.762
 3212TIP3    H1 9577   0.610   2.499   5.827
 3212TIP3    H2 9578   0.566   2.643   5.814
 3213TIP3   OH2 9579   6.774   2.967   2.358
 3213TIP3    H1 9580   6.840   3.012   2.411
 3213TIP3    H2 9581   6.698   2.959   2.415
 3214TIP3   OH2 9582   3.488   4.510   5.050
 3214TIP3    H1 9583   3.443   4.586   5.087
 3214TIP3    H2 9584   3.420   4.461   5.004
 3215TIP3   OH2 9585   5.042   0.621   5.833
 3215TIP3    H1 9586   5.077   0.533   5.821
 3215TIP3    H2 9587   4.949   0.613   5.810
 3216TIP3   OH2 9588   1.586   5.777   2.578
 3216TIP3    H1 9589   1.502   5.770   2.625
 3216TIP3    H2 9590   1.562   5.813   2.493
 3217TIP3   OH2 9591   0.414   6.959   1.332
 3217TIP3    H1 9592   0.379   6.916   1.410
 3217TIP3    H2 9593   0.459   7.037   1.367
 3218TIP3   OH2 9594   7.492   6.409   3.410
 3218TIP3    H1 9595   7.562   6.468   3.382
 3218TIP3    H2 9596   7.449   6.457   3.481
 3219TIP3   OH2 9597   3.459   2.545   6.793
 3219TIP3    H1 9598   3.459   2.450   6.804
 3219TIP3    H2 9599   3.374   2.573   6.827
 3220TIP3   OH2 9600   2.862   6.665   0.412
 3220TIP3    H1 9601   2.904   6.728   0.354
 3220TIP3    H2 9602   2.809   6.718   0.471
 3221TIP3   OH2 9603   6.970   6.666   5.398
 3221TIP3    H1 9604   6.874   6.663   5.396
 3221TIP3    H2 9605   6.991   6.687   5.489
 3222TIP3   OH2 9606   7.277   7.257   0.950
 3222TIP3    H1 9607   7.346   7.237   1.014
 3222TIP3    H2 9608   7.264   7.175   0.902
 3223TIP3   OH2 9609   3.007   3.157   3.574
 3223TIP3    H1 9610   2.955   3.190   3.647
 3223TIP3    H2 9611   2.944   3.145   3.503
 3224TIP3   OH2 9612   6.597   0.062   2.017
 3224TIP3    H1 9613   6.667   0.120   2.045
 3224TIP3    H2 9614   6.632  -0.026   2.030
 3225TIP3   OH2 9615   0.293   4.350   6.729
 3225TIP3    H1 9616   0.346   4.368   6.652
 3225TIP3    H2 9617   0.269   4.258   6.722
 3226TIP3   OH2 9618   4.308   5.894   6.570
 3226TIP3    H1 9619   4.357   5.914   6.650
 3226TIP3    H2 9620   4.247   5.968   6.560
 3227TIP3   OH2 9621   0.421   5.523   5.243
 3227TIP3    H1 9622   0.458   5.450   5.194
 3227TIP3    H2 9623   0.451   5.511   5.333
 3228TIP3   OH2 9624   7.478   6.290   6.810
 3228TIP3    H1 9625   7.487   6.329   6.897
 3228TIP3    H2 9626   7.451   6.362   6.753
 3229TIP3   OH2 9627   5.894   3.332   1.132
 3229TIP3    H1 9628   5.915   3.405   1.073
 3229TIP3    H2 9629   5.805   3.350   1.162
 3230TIP3   OH2 9630   4.778   6.947   2.274
 3230TIP3    H1 9631   4.690   6.936   2.238
 3230TIP3    H2 9632   4.775   7.033   2.317
 3231TIP3   OH2 9633   3.561   5.309   5.465
 3231TIP3    H1 9634   3.628   5.355   5.516
 3231TIP3    H2 9635   3.594   5.312   5.375
 3232TIP3   OH2 9636   5.443   5.021   4.466
 3232TIP3    H1 9637   5.385   4.969   4.522
 3232TIP3    H2 9638   5.515   5.046   4.523
 3233TIP3   OH2 9639   6.698   3.174   5.305
 3233TIP3    H1 9640   6.696   3.083   5.277
 3233TIP3    H2 9641   6.707   3.170   5.400
 3234TIP3   OH2 9642   2.511   3.888   5.679
 3234TIP3    H1 9643   2.556   3.824   5.734
 3234TIP3    H2 9644   2.557   3.883   5.595
 3235TIP3   OH2 9645   2.852   1.534   3.203
 3235TIP3    H1 9646   2.820   1.624   3.209
 3235TIP3    H2 9647   2.779   1.480   3.232
 3236TIP3   OH2 9648   4.250   0.502   4.943
 3236TIP3    H1 9649   4.287   0.427   4.990
 3236TIP3    H2 9650   4.301   0.577   4.973
 3237TIP3   OH2 9651   5.718   7.298   1.207
 3237TIP3    H1 9652   5.725   7.392   1.194
 3237TIP3    H2 9653   5.639   7.272   1.159
 3238TIP3   OH2 9654   3.264   1.032   4.156
 3238TIP3    H1 9655   3.331   0.964   4.160
 3238TIP3    H2 9656   3.182   0.984   4.144
 3239TIP3   OH2 9657   1.259   0.271   5.257
 3239TIP3    H1 9658   1.326   0.340   5.259
 3239TIP3    H2 9659   1.289   0.206   5.320
 3240TIP3   OH2 9660   0.333   6.009   2.111
 3240TIP3    H1 9661   0.391   6.061   2.166
 3240TIP3    H2 9662   0.272   6.073   2.073
 3241TIP3   OH2 9663   3.052   0.590   3.175
 3241TIP3    H1 9664   3.091   0.512   3.215
 3241TIP3    H2 9665   2.998   0.627   3.245
 3242TIP3   OH2 9666   3.655   0.339   6.094
 3242TIP3    H1 9667   3.641   0.271   6.029
 3242TIP3    H2 9668   3.571   0.345   6.140
 3243TIP3   OH2 9669   4.954   3.859   3.483
 3243TIP3    H1 9670   4.972   3.874   3.575
 3243TIP3    H2 9671   4.986   3.938   3.439
 3244TIP3   OH2 9672   0.799   6.219   2.394
 3244TIP3    H1 9673   0.884   6.175   2.391
 3244TIP3    H2 9674   0.778   6.224   2.487
 3245TIP3   OH2 9675   0.385   7.603   5.536
 3245TIP3    H1 9676   0.292   7.580   5.536
 3245TIP3    H2 9677   0.386   7.698   5.546
 3246TIP3   OH2 9678   2.002   4.733   3.049
 3246TIP3    H1 9679   2.042   4.676   2.983
 3246TIP3    H2 9680   2.074   4.759   3.105
 3247TIP3   OH2 9681   2.908   4.170   4.759
 3247TIP3    H1 9682   2.992   4.130   4.783
 3247TIP3    H2 9683   2.917   4.262   4.786
 3248TIP3   OH2 9684   4.225   6.184   4.003
 3248TIP3    H1 9685   4.279   6.135   4.065
 3248TIP3    H2 9686   4.177   6.116   3.955
 3249TIP3   OH2 9687   1.342   2.777   3.204
 3249TIP3    H1 9688   1.415   2.716   3.214
 3249TIP3    H2 9689   1.372   2.856   3.249
 3250TIP3   OH2 9690   6.655   5.147   4.455
 3250TIP3    H1 9691   6.563   5.140   4.426
 3250TIP3    H2 9692   6.704   5.163   4.375
 3251TIP3   OH2 9693   4.361   1.233   5.709
 3251TIP3    H1 9694   4.314   1.270   5.784
 3251TIP3    H2 9695   4.333   1.141   5.707
 3252TIP3   OH2 9696   0.988   7.426   1.066
 3252TIP3    H1 9697   1.031   7.407   0.982
 3252TIP3    H2 9698   1.044   7.384   1.132
 3253TIP3   OH2 9699   8.072   3.280   4.391
 3253TIP3    H1 9700   8.026   3.344   4.337
 3253TIP3    H2 9701   8.127   3.231   4.330
 3254TIP3   OH2 9702   4.767   2.895   2.123
 3254TIP3    H1 9703   4.689   2.868   2.171
 3254TIP3    H2 9704   4.839   2.851   2.167
 3255TIP3   OH2 9705   4.863   1.985   4.108
 3255TIP3    H1 9706   4.885   1.916   4.045
 3255TIP3    H2 9707   4.769   1.998   4.097
 3256TIP3   OH2 9708   7.834   2.391   3.571
 3256TIP3    H1 9709   7.902   2.382   3.504
 3256TIP3    H2 9710   7.772   2.454   3.535
 3257TIP3   OH2 9711   1.101   0.825   6.238
 3257TIP3    H1 9712   1.190   0.855   6.223
 3257TIP3    H2 9713   1.106   0.730   6.226
 3258TIP3   OH2 9714   7.989   4.809   6.819
 3258TIP3    H1 9715   7.956   4.720   6.806
 3258TIP3    H2 9716   7.951   4.837   6.901
 3259TIP3   OH2 9717   0.972   7.022   0.620
 3259TIP3    H1 9718   1.064   7.040   0.639
 3259TIP3    H2 9719   0.972   6.940   0.571
 3260TIP3   OH2 9720   6.723   4.344   0.254
 3260TIP3    H1 9721   6.636   4.341   0.294
 3260TIP3    H2 9722   6.706   4.351   0.160
 3261TIP3   OH2 9723   3.084   5.508   5.812
 3261TIP3    H1 9724   3.010   5.566   5.795
 3261TIP3    H2 9725   3.058   5.425   5.772
 3262TIP3   OH2 9726   6.272   7.247   0.157
 3262TIP3    H1 9727   6.287   7.207   0.242
 3262TIP3    H2 9728   6.191   7.207   0.125
 3263TIP3   OH2 9729   5.272   1.223   1.865
 3263TIP3    H1 9730   5.310   1.202   1.951
 3263TIP3    H2 9731   5.340   1.274   1.821
 3264TIP3   OH2 9732   7.514   7.926   3.951
 3264TIP3    H1 9733   7.463   7.969   3.882
 3264TIP3    H2 9734   7.479   7.837   3.955
 3265TIP3   OH2 9735   7.482   4.494   5.948
 3265TIP3    H1 9736   7.435   4.575   5.970
 3265TIP3    H2 9737   7.422   4.447   5.890
 3266TIP3   OH2 9738   6.571   0.246   3.980
 3266TIP3    H1 9739   6.623   0.325   3.966
 3266TIP3    H2 9740   6.506   0.272   4.046
 3267TIP3   OH2 9741   1.901   2.604   2.096
 3267TIP3    H1 9742   1.822   2.552   2.108
 3267TIP3    H2 9743   1.971   2.551   2.135
 3268TIP3   OH2 9744   1.368   5.186   0.849
 3268TIP3    H1 9745   1.419   5.105   0.848
 3268TIP3    H2 9746   1.428   5.252   0.816
 3269TIP3   OH2 9747   7.016   7.378   5.079
 3269TIP3    H1 9748   7.044   7.287   5.089
 3269TIP3    H2 9749   7.047   7.403   4.992
 3270TIP3   OH2 9750   2.547   2.952   1.836
 3270TIP3    H1 9751   2.574   3.044   1.832
 3270TIP3    H2 9752   2.468   2.953   1.891
 3271TIP3   OH2 9753   4.053   7.664   3.954
 3271TIP3    H1 9754   4.131   7.718   3.966
 3271TIP3    H2 9755   4.027   7.640   4.043
 3272TIP3   OH2 9756   5.986   7.852   6.716
 3272TIP3    H1 9757   5.955   7.855   6.626
 3272TIP3    H2 9758   5.939   7.779   6.756
 3273TIP3   OH2 9759   5.521   1.578   5.794
 3273TIP3    H1 9760   5.615   1.594   5.786
 3273TIP3    H2 9761   5.515   1.502   5.851
 3274TIP3   OH2 9762   6.637   5.939   2.717
 3274TIP3    H1 9763   6.578   5.925   2.790
 3274TIP3    H2 9764   6.639   6.034   2.706
 3275TIP3   OH2 9765   1.949   2.184   0.781
 3275TIP3    H1 9766   1.936   2.153   0.691
 3275TIP3    H2 9767   1.971   2.105   0.830
 3276TIP3   OH2 9768   3.722   5.183   4.194
 3276TIP3    H1 9769   3.805   5.148   4.225
 3276TIP3    H2 9770   3.655   5.136   4.244
 3277TIP3   OH2 9771   7.928   3.577   1.575
 3277TIP3    H1 9772   7.915   3.487   1.547
 3277TIP3    H2 9773   8.013   3.576   1.619
 3278TIP3   OH2 9774   0.503   7.163   4.356
 3278TIP3    H1 9775   0.466   7.134   4.440
 3278TIP3    H2 9776   0.439   7.133   4.291
 3279TIP3   OH2 9777   2.274   7.513   3.341
 3279TIP3    H1 9778   2.298   7.426   3.308
 3279TIP3    H2 9779   2.351   7.567   3.323
 3280TIP3   OH2 9780   4.013   5.867   5.275
 3280TIP3    H1 9781   4.102   5.852   5.306
 3280TIP3    H2 9782   4.023   5.886   5.182
 3281TIP3   OH2 9783   3.840   0.038   1.547
 3281TIP3    H1 9784   3.779   0.071   1.612
 3281TIP3    H2 9785   3.836  -0.057   1.556
 3282TIP3   OH2 9786   2.810   2.301   1.871
 3282TIP3    H1 9787   2.893   2.258   1.894
 3282TIP3    H2 9788   2.797   2.280   1.779
 3283TIP3   OH2 9789   1.227   7.014   5.601
 3283TIP3    H1 9790   1.154   7.075   5.614
 3283TIP3    H2 9791   1.283   7.058   5.538
 3284TIP3   OH2 9792   7.539   4.906   4.395
 3284TIP3    H1 9793   7.584   4.903   4.480
 3284TIP3    H2 9794   7.488   4.825   4.392
 3285TIP3   OH2 9795   4.628   6.760   0.908
 3285TIP3    H1 9796   4.646   6.719   0.993
 3285TIP3    H2 9797   4.708   6.809   0.887
 3286TIP3   OH2 9798   5.198   5.813   5.877
 3286TIP3    H1 9799   5.267   5.754   5.907
 3286TIP3    H2 9800   5.170   5.777   5.793
 3287TIP3   OH2 9801   7.478   0.409   5.605
 3287TIP3    H1 9802   7.407   0.448   5.657
 3287TIP3    H2 9803   7.453   0.425   5.514
 3288TIP3   OH2 9804   2.988   2.389   4.484
 3288TIP3    H1 9805   2.948   2.439   4.413
 3288TIP3    H2 9806   3.079   2.420   4.488
 3289TIP3   OH2 9807   5.695   3.430   6.485
 3289TIP3    H1 9808   5.708   3.348   6.436
 3289TIP3    H2 9809   5.605   3.424   6.517
 3290TIP3   OH2 9810   8.302   1.035   2.788
 3290TIP3    H1 9811   8.291   1.010   2.879
 3290TIP3    H2 9812   8.326   1.127   2.790
 3291TIP3   OH2 9813   7.075   6.185   2.494
 3291TIP3    H1 9814   7.076   6.164   2.400
 3291TIP3    H2 9815   7.069   6.280   2.497
 3292TIP3   OH2 9816   2.917   0.121   2.754
 3292TIP3    H1 9817   2.888   0.152   2.840
 3292TIP3    H2 9818   2.845   0.146   2.695
 3293TIP3   OH2 9819   7.324   5.920   6.114
 3293TIP3    H1 9820   7.363   5.887   6.033
 3293TIP3    H2 9821   7.263   5.852   6.141
 3294TIP3   OH2 9822   0.630   4.223   0.740
 3294TIP3    H1 9823   0.538   4.201   0.723
 3294TIP3    H2 9824   0.677   4.190   0.663
 3295TIP3   OH2 9825   4.224   6.446   4.332
 3295TIP3    H1 9826   4.283   6.445   4.257
 3295TIP3    H2 9827   4.267   6.503   4.396
 3296TIP3   OH2 9828   5.020   3.887   2.194
 3296TIP3    H1 9829   4.962   3.816   2.221
 3296TIP3    H2 9830   4.974   3.967   2.221
 3297TIP3   OH2 9831   2.553   6.020   0.996
 3297TIP3    H1 9832   2.540   6.099   0.942
 3297TIP3    H2 9833   2.635   5.983   0.964
 3298TIP3   OH2 9834   2.392   5.588   3.443
 3298TIP3    H1 9835   2.468   5.602   3.388
 3298TIP3    H2 9836   2.319   5.581   3.382
 3299TIP3   OH2 9837   0.312   7.356   0.542
 3299TIP3    H1 9838   0.394   7.404   0.546
 3299TIP3    H2 9839   0.291   7.337   0.634
 3300TIP3   OH2 9840   4.945   7.562   5.391
 3300TIP3    H1 9841   4.868   7.550   5.448
 3300TIP3    H2 9842   5.000   7.625   5.438
 3301TIP3   OH2 9843   4.887   3.179   0.259
 3301TIP3    H1 9844   4.794   3.165   0.276
 3301TIP3    H2 9845   4.929   3.097   0.283
 3302TIP3   OH2 9846   5.582   1.928   5.214
 3302TIP3    H1 9847   5.489   1.929   5.193
 3302TIP3    H2 9848   5.616   1.851   5.168
 3303TIP3   OH2 9849   3.007   6.685   5.386
 3303TIP3    H1 9850   3.078   6.723   5.336
 3303TIP3    H2 9851   2.972   6.757   5.438
 3304TIP3   OH2 9852   0.733   1.279   5.356
 3304TIP3    H1 9853   0.778   1.227   5.422
 3304TIP3    H2 9854   0.801   1.335   5.319
 3305TIP3   OH2 9855   2.504   2.739   2.721
 3305TIP3    H1 9856   2.454   2.680   2.664
 3305TIP3    H2 9857   2.449   2.816   2.731
 3306TIP3   OH2 9858   0.566   6.173   3.838
 3306TIP3    H1 9859   0.592   6.096   3.787
 3306TIP3    H2 9860   0.642   6.193   3.893
 3307TIP3   OH2 9861   6.354   4.591   1.667
 3307TIP3    H1 9862   6.333   4.561   1.755
 3307TIP3    H2 9863   6.319   4.681   1.663
 3308TIP3   OH2 9864   4.223   7.667   2.585
 3308TIP3    H1 9865   4.312   7.662   2.618
 3308TIP3    H2 9866   4.214   7.590   2.528
 3309TIP3   OH2 9867   2.556   5.079   2.483
 3309TIP3    H1 9868   2.474   5.047   2.520
 3309TIP3    H2 9869   2.579   5.154   2.538
 3310TIP3   OH2 9870   7.085   3.402   0.602
 3310TIP3    H1 9871   7.083   3.497   0.589
 3310TIP3    H2 9872   7.153   3.388   0.668
 3311TIP3   OH2 9873   8.337   2.093   4.880
 3311TIP3    H1 9874   8.405   2.041   4.838
 3311TIP3    H2 9875   8.273   2.109   4.811
 3312TIP3   OH2 9876   6.070   2.597   3.982
 3312TIP3    H1 9877   6.016   2.675   3.993
 3312TIP3    H2 9878   6.158   2.623   4.011
 3313TIP3   OH2 9879   5.688   2.811   2.290
 3313TIP3    H1 9880   5.660   2.862   2.215
 3313TIP3    H2 9881   5.654   2.723   2.274
 3314TIP3   OH2 9882   1.921   5.179   5.739
 3314TIP3    H1 9883   1.849   5.190   5.800
 3314TIP3    H2 9884   1.885   5.125   5.668
 3315TIP3   OH2 9885   2.521   6.457   2.049
 3315TIP3    H1 9886   2.590   6.501   1.999
 3315TIP3    H2 9887   2.563   6.378   2.083
 3316TIP3   OH2 9888   5.272   5.138   0.345
 3316TIP3    H1 9889   5.295   5.157   0.436
 3316TIP3    H2 9890   5.246   5.046   0.345
 3317TIP3   OH2 9891   1.887   4.898   4.030
 3317TIP3    H1 9892   1.842   4.851   4.100
 3317TIP3    H2 9893   1.817   4.942   3.982
 3318TIP3   OH2 9894   2.068   3.481   5.538
 3318TIP3    H1 9895   2.105   3.523   5.460
 3318TIP3    H2 9896   2.058   3.553   5.601
 3319TIP3   OH2 9897   4.989   3.570   4.095
 3319TIP3    H1 9898   4.938   3.490   4.082
 3319TIP3    H2 9899   5.070   3.540   4.136
 3320TIP3   OH2 9900   1.300   1.600   4.033
 3320TIP3    H1 9901   1.323   1.575   3.944
 3320TIP3    H2 9902   1.250   1.526   4.067
 3321TIP3   OH2 9903   0.838   3.007   5.757
 3321TIP3    H1 9904   0.830   2.931   5.815
 3321TIP3    H2 9905   0.832   3.082   5.815
 3322TIP3   OH2 9906   3.620   2.676   2.191
 3322TIP3    H1 9907   3.560   2.744   2.220
 3322TIP3    H2 9908   3.700   2.723   2.168
 3323TIP3   OH2 9909   6.460   5.639   6.513
 3323TIP3    H1 9910   6.382   5.642   6.457
 3323TIP3    H2 9911   6.529   5.679   6.461
 3324TIP3   OH2 9912   7.873   3.221   4.568
 3324TIP3    H1 9913   7.936   3.221   4.496
 3324TIP3    H2 9914   7.888   3.304   4.613
 3325TIP3   OH2 9915   7.813   2.101   3.166
 3325TIP3    H1 9916   7.892   2.143   3.132
 3325TIP3    H2 9917   7.846   2.035   3.228
 3326TIP3   OH2 9918   1.707   5.905   3.322
 3326TIP3    H1 9919   1.750   5.986   3.295
 3326TIP3    H2 9920   1.659   5.929   3.402
 3327TIP3   OH2 9921   7.430   2.750   4.045
 3327TIP3    H1 9922   7.405   2.814   4.112
 3327TIP3    H2 9923   7.350   2.735   3.995
 3328TIP3   OH2 9924   2.494   3.216   6.673
 3328TIP3    H1 9925   2.578   3.230   6.715
 3328TIP3    H2 9926   2.444   3.296   6.690
 3329TIP3   OH2 9927   6.217   4.537   4.823
 3329TIP3    H1 9928   6.302   4.576   4.840
 3329TIP3    H2 9929   6.236   4.445   4.806
 3330TIP3   OH2 9930   0.220   0.101   6.198
 3330TIP3    H1 9931   0.279   0.099   6.273
 3330TIP3    H2 9932   0.209   0.194   6.179
 3331TIP3   OH2 9933   4.093   3.336   6.381
 3331TIP3    H1 9934   4.075   3.244   6.366
 3331TIP3    H2 9935   4.146   3.363   6.306
 3332TIP3   OH2 9936   0.651   0.597   3.976
 3332TIP3    H1 9937   0.644   0.502   3.986
 3332TIP3    H2 9938   0.650   0.631   4.065
 3333TIP3   OH2 9939   5.490   5.501   5.903
 3333TIP3    H1 9940   5.535   5.433   5.953
 3333TIP3    H2 9941   5.487   5.576   5.963
 3334TIP3   OH2 9942   4.167   0.555   3.181
 3334TIP3    H1 9943   4.158   0.466   3.215
 3334TIP3    H2 9944   4.259   0.562   3.154
 3335TIP3   OH2 9945   1.592   2.497   2.900
 3335TIP3    H1 9946   1.627   2.585   2.910
 3335TIP3    H2 9947   1.667   2.444   2.874
 3336TIP3   OH2 9948   0.667   6.832   2.430
 3336TIP3    H1 9949   0.627   6.794   2.508
 3336TIP3    H2 9950   0.732   6.893   2.464
 3337TIP3   OH2 9951   3.255   5.552   3.726
 3337TIP3    H1 9952   3.326   5.545   3.789
 3337TIP3    H2 9953   3.181   5.508   3.768
 3338TIP3   OH2 9954   3.786   1.992   3.801
 3338TIP3    H1 9955   3.837   1.948   3.734
 3338TIP3    H2 9956   3.773   1.926   3.869
 3339TIP3   OH2 9957   0.733   0.617   3.069
 3339TIP3    H1 9958   0.734   0.606   3.164
 3339TIP3    H2 9959   0.810   0.570   3.038
 3340TIP3   OH2 9960   5.494   6.042   4.398
 3340TIP3    H1 9961   5.531   5.971   4.450
 3340TIP3    H2 9962   5.476   6.002   4.313
 3341TIP3   OH2 9963   2.747   5.492   5.811
 3341TIP3    H1 9964   2.664   5.538   5.824
 3341TIP3    H2 9965   2.802   5.556   5.766
 3342TIP3   OH2 9966   6.393   5.165   4.359
 3342TIP3    H1 9967   6.365   5.256   4.355
 3342TIP3    H2 9968   6.314   5.117   4.383
 3343TIP3   OH2 9969   4.088   6.998   4.656
 3343TIP3    H1 9970   4.069   7.055   4.731
 3343TIP3    H2 9971   4.184   6.996   4.652
 3344TIP3   OH2 9972   8.050   5.467   5.846
 3344TIP3    H1 9973   8.082   5.457   5.936
 3344TIP3    H2 9974   8.103   5.406   5.795
 3345TIP3   OH2 9975   8.306   0.473   6.501
 3345TIP3    H1 9976   8.257   0.435   6.428
 3345TIP3    H2 9977   8.386   0.506   6.461
 3346TIP3   OH2 9978   2.185   7.687   2.585
 3346TIP3    H1 9979   2.138   7.698   2.502
 3346TIP3    H2 9980   2.270   7.728   2.569
 3347TIP3   OH2 9981   7.744   5.481   5.114
 3347TIP3    H1 9982   7.704   5.562   5.146
 3347TIP3    H2 9983   7.693   5.411   5.156
 3348TIP3   OH2 9984   6.900   1.624   5.903
 3348TIP3    H1 9985   6.811   1.622   5.939
 3348TIP3    H2 9986   6.892   1.586   5.816
 3349TIP3   OH2 9987   3.585   7.246   6.346
 3349TIP3    H1 9988   3.582   7.299   6.426
 3349TIP3    H2 9989   3.677   7.226   6.334
 3350TIP3   OH2 9990   6.129   0.526   4.337
 3350TIP3    H1 9991   6.136   0.501   4.429
 3350TIP3    H2 9992   6.181   0.606   4.330
 3351TIP3   OH2 9993   2.006   3.283   3.195
 3351TIP3    H1 9994   1.931   3.308   3.141
 3351TIP3    H2 9995   1.972   3.285   3.285
 3352TIP3   OH2 9996   0.963   4.353   0.083
 3352TIP3    H1 9997   1.005   4.394   0.006
 3352TIP3    H2 9998   1.028   4.291   0.116
 3353TIP3   OH2 9999   5.422   5.757   6.034
 3353TIP3    H110000   5.389   5.752   6.124
 3353TIP3    H210001   5.461   5.844   6.028
 3354TIP3   OH210002   0.335   4.917   0.184
 3354TIP3    H110003   0.306   4.891   0.271
 3354TIP3    H210004   0.268   4.978   0.154
 3355TIP3   OH210005   2.697   5.837   4.374
 3355TIP3    H110006   2.677   5.787   4.453
 3355TIP3    H210007   2.618   5.830   4.320
 3356TIP3   OH210008   2.951   6.078   1.834
 3356TIP3    H110009   2.952   6.150   1.897
 3356TIP3    H210010   2.880   6.021   1.863
 3357TIP3   OH210011   4.333   7.716   1.034
 3357TIP3    H110012   4.354   7.687   1.123
 3357TIP3    H210013   4.260   7.660   1.007
 3358TIP3   OH210014   1.107   0.701   6.742
 3358TIP3    H110015   1.141   0.621   6.782
 3358TIP3    H210016   1.022   0.715   6.784
 3359TIP3   OH210017   7.524   1.262   6.160
 3359TIP3    H110018   7.560   1.279   6.247
 3359TIP3    H210019   7.455   1.197   6.176
 3360TIP3   OH210020   5.058   3.540   4.784
 3360TIP3    H110021   5.032   3.501   4.867
 3360TIP3    H210022   5.065   3.634   4.803
 3361TIP3   OH210023   3.749   5.828   1.008
 3361TIP3    H110024   3.754   5.858   0.917
 3361TIP3    H210025   3.774   5.904   1.060
 3362TIP3   OH210026   1.461   7.685   4.975
 3362TIP3    H110027   1.436   7.669   5.066
 3362TIP3    H210028   1.556   7.677   4.975
 3363TIP3   OH210029   2.269   0.189   1.847
 3363TIP3    H110030   2.298   0.273   1.883
 3363TIP3    H210031   2.205   0.156   1.910
 3364TIP3   OH210032   5.693   0.009   6.795
 3364TIP3    H110033   5.663   0.056   6.717
 3364TIP3    H210034   5.789   0.012   6.789
 3365TIP3   OH210035   8.246   1.213   3.150
 3365TIP3    H110036   8.307   1.276   3.190
 3365TIP3    H210037   8.223   1.252   3.066
 3366TIP3   OH210038   5.279   2.113   3.174
 3366TIP3    H110039   5.340   2.112   3.100
 3366TIP3    H210040   5.273   2.022   3.201
 3367TIP3   OH210041   0.866   1.522   2.093
 3367TIP3    H110042   0.811   1.550   2.020
 3367TIP3    H210043   0.930   1.593   2.103
 3368TIP3   OH210044   1.406   6.941   5.271
 3368TIP3    H110045   1.351   7.009   5.232
 3368TIP3    H210046   1.468   6.918   5.202
 3369TIP3   OH210047   3.964   1.073   3.139
 3369TIP3    H110048   4.032   1.008   3.150
 3369TIP3    H210049   3.961   1.090   3.045
 3370TIP3   OH210050   5.267   0.963   0.415
 3370TIP3    H110051   5.326   0.940   0.487
 3370TIP3    H210052   5.325   0.997   0.346
 3371TIP3   OH210053   4.860   6.248   5.988
 3371TIP3    H110054   4.839   6.174   5.931
 3371TIP3    H210055   4.927   6.298   5.941
 3372TIP3   OH210056   8.171   7.760   1.493
 3372TIP3    H110057   8.118   7.706   1.552
 3372TIP3    H210058   8.233   7.804   1.551
 3373TIP3   OH210059   3.967   2.716   5.485
 3373TIP3    H110060   4.007   2.733   5.399
 3373TIP3    H210061   3.974   2.799   5.531
 3374TIP3   OH210062   2.262   7.621   0.363
 3374TIP3    H110063   2.193   7.631   0.429
 3374TIP3    H210064   2.292   7.531   0.373
 3375TIP3   OH210065   6.001   6.400   5.765
 3375TIP3    H110066   5.915   6.434   5.793
 3375TIP3    H210067   6.046   6.477   5.729
 3376TIP3   OH210068   2.281   7.136   5.826
 3376TIP3    H110069   2.331   7.187   5.890
 3376TIP3    H210070   2.319   7.159   5.741
 3377TIP3   OH210071   0.616   3.884   5.534
 3377TIP3    H110072   0.697   3.907   5.488
 3377TIP3    H210073   0.623   3.928   5.619
 3378TIP3   OH210074   6.360   6.334   3.380
 3378TIP3    H110075   6.392   6.423   3.395
 3378TIP3    H210076   6.435   6.287   3.343
 3379TIP3   OH210077   7.912   1.086   1.740
 3379TIP3    H110078   7.827   1.042   1.747
 3379TIP3    H210079   7.969   1.034   1.796
 3380TIP3   OH210080   6.310   5.503   0.165
 3380TIP3    H110081   6.307   5.408   0.158
 3380TIP3    H210082   6.376   5.530   0.101
 3381TIP3   OH210083   1.608   1.803   2.822
 3381TIP3    H110084   1.669   1.786   2.894
 3381TIP3    H210085   1.610   1.898   2.810
 3382TIP3   OH210086   7.531   0.559   4.337
 3382TIP3    H110087   7.619   0.524   4.347
 3382TIP3    H210088   7.474   0.485   4.357
 3383TIP3   OH210089   3.473   2.220   0.141
 3383TIP3    H110090   3.562   2.250   0.160
 3383TIP3    H210091   3.484   2.157   0.070
 3384TIP3   OH210092   0.513   5.026   6.068
 3384TIP3    H110093   0.460   5.072   6.134
 3384TIP3    H210094   0.452   4.963   6.030
 3385TIP3   OH210095   5.855   7.467   3.253
 3385TIP3    H110096   5.819   7.547   3.213
 3385TIP3    H210097   5.838   7.398   3.188
 3386TIP3   OH210098   3.942   1.534   1.182
 3386TIP3    H110099   3.910   1.584   1.257
 3386TIP3    H210100   4.019   1.582   1.152
 3387TIP3   OH210101   6.810   4.284   4.906
 3387TIP3    H110102   6.758   4.291   4.986
 3387TIP3    H210103   6.754   4.237   4.844
 3388TIP3   OH210104   6.397   4.074   1.283
 3388TIP3    H110105   6.476   4.055   1.333
 3388TIP3    H210106   6.397   4.009   1.213
 3389TIP3   OH210107   4.654   3.447   1.808
 3389TIP3    H110108   4.631   3.390   1.734
 3389TIP3    H210109   4.605   3.527   1.793
 3390TIP3   OH210110   4.893   7.335   6.117
 3390TIP3    H110111   4.811   7.384   6.121
 3390TIP3    H210112   4.954   7.394   6.072
 3391TIP3   OH210113   0.644   4.753   6.428
 3391TIP3    H110114   0.736   4.742   6.454
 3391TIP3    H210115   0.623   4.843   6.452
 3392TIP3   OH210116   2.444   3.918   1.255
 3392TIP3    H110117   2.410   3.913   1.344
 3392TIP3    H210118   2.403   3.846   1.209
 3393TIP3   OH210119   7.817   0.826   4.129
 3393TIP3    H110120   7.880   0.894   4.153
 3393TIP3    H210121   7.815   0.829   4.033
 3394TIP3   OH210122   2.095   2.691   2.660
 3394TIP3    H110123   2.072   2.755   2.592
 3394TIP3    H210124   2.159   2.735   2.715
 3395TIP3   OH210125   0.711   5.400   3.158
 3395TIP3    H110126   0.800   5.373   3.135
 3395TIP3    H210127   0.664   5.317   3.173
 3396TIP3   OH210128   0.307   2.835   2.742
 3396TIP3    H110129   0.352   2.879   2.814
 3396TIP3    H210130   0.216   2.826   2.772
 3397TIP3   OH210131   2.003   3.454   4.011
 3397TIP3    H110132   2.068   3.424   3.948
 3397TIP3    H210133   2.053   3.465   4.093
 3398TIP3   OH210134   7.060   7.023   0.785
 3398TIP3    H110135   7.007   7.015   0.705
 3398TIP3    H210136   7.150   7.014   0.754
 3399TIP3   OH210137   3.517   4.240   3.460
 3399TIP3    H110138   3.559   4.304   3.518
 3399TIP3    H210139   3.428   4.231   3.496
 3400TIP3   OH210140   6.028   0.963   2.253
 3400TIP3    H110141   6.025   1.019   2.174
 3400TIP3    H210142   6.051   1.024   2.323
 3401TIP3   OH210143   0.816   0.272   6.547
 3401TIP3    H110144   0.824   0.221   6.466
 3401TIP3    H210145   0.790   0.359   6.519
 3402TIP3   OH210146   2.397   3.230   0.453
 3402TIP3    H110147   2.400   3.169   0.380
 3402TIP3    H210148   2.334   3.192   0.514
 3403TIP3   OH210149   1.109   7.024   2.952
 3403TIP3    H110150   1.146   7.109   2.978
 3403TIP3    H210151   1.095   6.978   3.035
 3404TIP3   OH210152   3.170   1.061   5.456
 3404TIP3    H110153   3.221   1.002   5.512
 3404TIP3    H210154   3.126   1.003   5.394
 3405TIP3   OH210155   2.837   0.242   2.981
 3405TIP3    H110156   2.846   0.322   2.929
 3405TIP3    H210157   2.766   0.261   3.042
 3406TIP3   OH210158   1.175   3.083   0.966
 3406TIP3    H110159   1.094   3.081   1.017
 3406TIP3    H210160   1.151   3.047   0.881
 3407TIP3   OH210161   0.738   2.830   3.142
 3407TIP3    H110162   0.655   2.810   3.186
 3407TIP3    H210163   0.795   2.861   3.213
 3408TIP3   OH210164   7.494   4.404   1.933
 3408TIP3    H110165   7.512   4.365   1.847
 3408TIP3    H210166   7.534   4.343   1.996
 3409TIP3   OH210167   7.251   3.667   4.941
 3409TIP3    H110168   7.212   3.642   5.025
 3409TIP3    H210169   7.259   3.584   4.894
 3410TIP3   OH210170   4.343   4.000   2.174
 3410TIP3    H110171   4.381   3.987   2.261
 3410TIP3    H210172   4.406   4.055   2.128
 3411TIP3   OH210173   5.359   2.539   1.967
 3411TIP3    H110174   5.310   2.535   1.885
 3411TIP3    H210175   5.344   2.627   2.000
 3412TIP3   OH210176   1.551   2.138   4.986
 3412TIP3    H110177   1.614   2.163   4.919
 3412TIP3    H210178   1.602   2.135   5.067
 3413TIP3   OH210179   6.154   2.673   4.506
 3413TIP3    H110180   6.244   2.663   4.474
 3413TIP3    H210181   6.106   2.601   4.464
 3414TIP3   OH210182   3.600   7.203   2.887
 3414TIP3    H110183   3.636   7.289   2.868
 3414TIP3    H210184   3.599   7.198   2.983
 3415TIP3   OH210185   5.496   6.706   6.278
 3415TIP3    H110186   5.465   6.617   6.293
 3415TIP3    H210187   5.540   6.731   6.359
 3416TIP3   OH210188   7.669   2.509   0.873
 3416TIP3    H110189   7.591   2.551   0.837
 3416TIP3    H210190   7.635   2.438   0.928
 3417TIP3   OH210191   4.294   3.484   5.798
 3417TIP3    H110192   4.365   3.451   5.743
 3417TIP3    H210193   4.220   3.427   5.779
 3418TIP3   OH210194   0.166   3.730   1.130
 3418TIP3    H110195   0.207   3.816   1.121
 3418TIP3    H210196   0.237   3.668   1.116
 3419TIP3   OH210197   7.303   6.212   4.573
 3419TIP3    H110198   7.217   6.227   4.614
 3419TIP3    H210199   7.329   6.299   4.542
 3420TIP3   OH210200   7.996   7.421   2.517
 3420TIP3    H110201   8.004   7.335   2.558
 3420TIP3    H210202   7.956   7.476   2.584
 3421TIP3   OH210203   2.306   6.206   2.580
 3421TIP3    H110204   2.315   6.154   2.500
 3421TIP3    H210205   2.358   6.159   2.645
 3422TIP3   OH210206   6.210   3.393   6.605
 3422TIP3    H110207   6.197   3.419   6.696
 3422TIP3    H210208   6.278   3.451   6.572
 3423TIP3   OH210209   1.118   4.621   5.120
 3423TIP3    H110210   1.115   4.635   5.215
 3423TIP3    H210211   1.176   4.546   5.109
 3424TIP3   OH210212   4.115   0.692   0.374
 3424TIP3    H110213   4.203   0.729   0.381
 3424TIP3    H210214   4.111   0.659   0.284
 3425TIP3   OH210215   7.126   4.568   3.149
 3425TIP3    H110216   7.213   4.603   3.171
 3425TIP3    H210217   7.068   4.606   3.214
 3426TIP3   OH210218   1.225   0.951   2.426
 3426TIP3    H110219   1.177   0.914   2.499
 3426TIP3    H210220   1.250   0.875   2.373
 3427TIP3   OH210221   0.573   3.807   2.721
 3427TIP3    H110222   0.496   3.774   2.766
 3427TIP3    H210223   0.548   3.807   2.628
 3428TIP3   OH210224   1.820   5.484   0.230
 3428TIP3    H110225   1.810   5.558   0.290
 3428TIP3    H210226   1.904   5.445   0.255
 3429TIP3   OH210227   7.023   2.977   6.075
 3429TIP3    H110228   6.948   3.003   6.129
 3429TIP3    H210229   7.066   2.908   6.126
 3430TIP3   OH210230   0.818   6.002   6.727
 3430TIP3    H110231   0.911   6.021   6.734
 3430TIP3    H210232   0.812   5.907   6.738
 3431TIP3   OH210233   3.929   2.363   5.183
 3431TIP3    H110234   4.014   2.346   5.142
 3431TIP3    H210235   3.914   2.456   5.170
 3432TIP3   OH210236   5.946   2.953   0.121
 3432TIP3    H110237   5.858   2.920   0.101
 3432TIP3    H210238   6.004   2.900   0.066
 3433TIP3   OH210239   6.668   5.367   4.267
 3433TIP3    H110240   6.736   5.433   4.281
 3433TIP3    H210241   6.607   5.408   4.207
 3434TIP3   OH210242   6.632   6.699   0.137
 3434TIP3    H110243   6.543   6.690   0.173
 3434TIP3    H210244   6.640   6.792   0.115
 3435TIP3   OH210245   7.498   2.926   6.655
 3435TIP3    H110246   7.441   2.989   6.699
 3435TIP3    H210247   7.564   2.979   6.612
 3436TIP3   OH210248   2.661   2.134   0.725
 3436TIP3    H110249   2.719   2.208   0.705
 3436TIP3    H210250   2.635   2.100   0.640
 3437TIP3   OH210251   2.269   6.700   5.455
 3437TIP3    H110252   2.331   6.690   5.527
 3437TIP3    H210253   2.251   6.794   5.451
 3438TIP3   OH210254   0.609   7.521   6.643
 3438TIP3    H110255   0.548   7.565   6.702
 3438TIP3    H210256   0.607   7.429   6.670
 3439TIP3   OH210257   2.674   3.546   4.381
 3439TIP3    H110258   2.719   3.630   4.383
 3439TIP3    H210259   2.648   3.531   4.472
 3440TIP3   OH210260   3.329   7.119   5.918
 3440TIP3    H110261   3.322   7.159   5.831
 3440TIP3    H210262   3.352   7.028   5.900
 3441TIP3   OH210263   5.704   2.158   4.924
 3441TIP3    H110264   5.710   2.194   4.835
 3441TIP3    H210265   5.649   2.081   4.915
 3442TIP3   OH210266   0.281   6.212   1.345
 3442TIP3    H110267   0.191   6.219   1.378
 3442TIP3    H210268   0.335   6.215   1.424
 3443TIP3   OH210269   0.098   0.762   3.140
 3443TIP3    H110270   0.016   0.809   3.128
 3443TIP3    H210271   0.161   0.828   3.167
 3444TIP3   OH210272   3.761   7.731   3.987
 3444TIP3    H110273   3.687   7.721   4.047
 3444TIP3    H210274   3.830   7.677   4.025
 3445TIP3   OH210275   8.369   1.020   6.644
 3445TIP3    H110276   8.405   1.105   6.618
 3445TIP3    H210277   8.326   0.987   6.566
 3446TIP3   OH210278   6.158   5.249   0.513
 3446TIP3    H110279   6.174   5.260   0.420
 3446TIP3    H210280   6.143   5.338   0.546
 3447TIP3   OH210281   5.614   3.801   5.809
 3447TIP3    H110282   5.699   3.799   5.766
 3447TIP3    H210283   5.614   3.723   5.865
 3448TIP3   OH210284   2.333   6.806   2.096
 3448TIP3    H110285   2.271   6.771   2.032
 3448TIP3    H210286   2.381   6.729   2.127
 3449TIP3   OH210287   1.726   1.601   2.968
 3449TIP3    H110288   1.809   1.617   2.922
 3449TIP3    H210289   1.738   1.644   3.053
 3450TIP3   OH210290   7.024   7.098   5.636
 3450TIP3    H110291   6.931   7.120   5.643
 3450TIP3    H210292   7.069   7.181   5.652
 3451TIP3   OH210293   7.202   6.756   6.384
 3451TIP3    H110294   7.164   6.760   6.472
 3451TIP3    H210295   7.140   6.805   6.329
 3452TIP3   OH210296   4.978   0.269   4.746
 3452TIP3    H110297   4.986   0.320   4.665
 3452TIP3    H210298   4.990   0.178   4.718
 3453TIP3   OH210299   2.639   6.581   4.074
 3453TIP3    H110300   2.702   6.641   4.114
 3453TIP3    H210301   2.677   6.494   4.087
 3454TIP3   OH210302   5.523   7.795   3.185
 3454TIP3    H110303   5.563   7.763   3.104
 3454TIP3    H210304   5.547   7.730   3.251
 3455TIP3   OH210305   8.001   3.679   2.436
 3455TIP3    H110306   7.939   3.750   2.452
 3455TIP3    H210307   8.075   3.699   2.493
 3456TIP3   OH210308   0.716   6.679   2.864
 3456TIP3    H110309   0.650   6.675   2.795
 3456TIP3    H210310   0.776   6.748   2.836
 3457TIP3   OH210311   1.632   5.160   2.921
 3457TIP3    H110312   1.687   5.237   2.937
 3457TIP3    H210313   1.693   5.091   2.896
 3458TIP3   OH210314   8.244   5.539   6.528
 3458TIP3    H110315   8.276   5.468   6.584
 3458TIP3    H210316   8.323   5.587   6.503
 3459TIP3   OH210317   6.167   3.628   5.215
 3459TIP3    H110318   6.108   3.563   5.179
 3459TIP3    H210319   6.240   3.632   5.153
 3460TIP3   OH210320   0.342   0.251   2.825
 3460TIP3    H110321   0.389   0.314   2.879
 3460TIP3    H210322   0.400   0.235   2.751
 3461TIP3   OH210323   4.697   4.160   1.423
 3461TIP3    H110324   4.655   4.156   1.509
 3461TIP3    H210325   4.659   4.087   1.375
 3462TIP3   OH210326   1.174   0.573   2.107
 3462TIP3    H110327   1.088   0.532   2.103
 3462TIP3    H210328   1.231   0.512   2.059
 3463TIP3   OH210329   3.730   3.514   2.869
 3463TIP3    H110330   3.778   3.433   2.882
 3463TIP3    H210331   3.692   3.534   2.955
 3464TIP3   OH210332   6.919   7.661   3.139
 3464TIP3    H110333   6.910   7.705   3.054
 3464TIP3    H210334   6.842   7.689   3.189
 3465TIP3   OH210335   5.053   6.720   5.102
 3465TIP3    H110336   5.044   6.625   5.112
 3465TIP3    H210337   5.002   6.740   5.024
 3466TIP3   OH210338   0.897   0.694   1.154
 3466TIP3    H110339   0.907   0.731   1.242
 3466TIP3    H210340   0.862   0.607   1.168
 3467TIP3   OH210341   6.700   4.198   0.571
 3467TIP3    H110342   6.640   4.269   0.590
 3467TIP3    H210343   6.762   4.197   0.644
 3468TIP3   OH210344   5.921   1.788   4.135
 3468TIP3    H110345   5.959   1.821   4.053
 3468TIP3    H210346   5.850   1.850   4.155
 3469TIP3   OH210347   7.466   5.753   4.300
 3469TIP3    H110348   7.500   5.810   4.232
 3469TIP3    H210349   7.533   5.754   4.368
 3470TIP3   OH210350   1.885   0.061   0.210
 3470TIP3    H110351   1.967   0.014   0.196
 3470TIP3    H210352   1.861   0.042   0.300
 3471TIP3   OH210353   1.825   4.634   6.065
 3471TIP3    H110354   1.783   4.586   6.136
 3471TIP3    H210355   1.903   4.673   6.106
 3472TIP3   OH210356   5.827   4.971   5.313
 3472TIP3    H110357   5.868   4.888   5.287
 3472TIP3    H210358   5.898   5.022   5.352
 3473TIP3   OH210359   8.316   7.230   1.585
 3473TIP3    H110360   8.292   7.189   1.502
 3473TIP3    H210361   8.396   7.279   1.565
 3474TIP3   OH210362   6.700   2.705   4.664
 3474TIP3    H110363   6.662   2.716   4.752
 3474TIP3    H210364   6.648   2.763   4.609
 3475TIP3   OH210365   6.886   6.177   6.419
 3475TIP3    H110366   6.806   6.222   6.395
 3475TIP3    H210367   6.940   6.244   6.460
 3476TIP3   OH210368   4.411   3.593   2.788
 3476TIP3    H110369   4.493   3.603   2.836
 3476TIP3    H210370   4.367   3.520   2.831
 3477TIP3   OH210371   6.169   4.777   6.466
 3477TIP3    H110372   6.126   4.817   6.541
 3477TIP3    H210373   6.253   4.822   6.458
 3478TIP3   OH210374   8.170   3.265   3.508
 3478TIP3    H110375   8.104   3.291   3.572
 3478TIP3    H210376   8.119   3.241   3.430
 3479TIP3   OH210377   4.016   0.020   1.884
 3479TIP3    H110378   3.939  -0.022   1.845
 3479TIP3    H210379   3.995   0.029   1.977
 3480TIP3   OH210380   0.896   2.826   3.366
 3480TIP3    H110381   0.916   2.797   3.455
 3480TIP3    H210382   0.955   2.776   3.310
 3481TIP3   OH210383   4.610   6.417   6.877
 3481TIP3    H110384   4.703   6.399   6.866
 3481TIP3    H210385   4.596   6.499   6.829
 3482TIP3   OH210386   0.732   7.143   0.954
 3482TIP3    H110387   0.827   7.151   0.948
 3482TIP3    H210388   0.716   7.053   0.982
 3483TIP3   OH210389   5.460   7.264   6.106
 3483TIP3    H110390   5.526   7.195   6.098
 3483TIP3    H210391   5.476   7.303   6.192
 3484TIP3   OH210392   3.586   6.954   1.451
 3484TIP3    H110393   3.538   6.945   1.369
 3484TIP3    H210394   3.675   6.976   1.425
 3485TIP3   OH210395   5.327   6.795   0.167
 3485TIP3    H110396   5.307   6.703   0.151
 3485TIP3    H210397   5.314   6.838   0.082
 3486TIP3   OH210398   6.576   4.939   2.627
 3486TIP3    H110399   6.611   4.875   2.565
 3486TIP3    H210400   6.559   5.017   2.574
 3487TIP3   OH210401   4.939   3.302   2.680
 3487TIP3    H110402   5.029   3.293   2.712
 3487TIP3    H210403   4.885   3.303   2.759
 3488TIP3   OH210404   0.038   3.752   0.214
 3488TIP3    H110405   0.002   3.670   0.248
 3488TIP3    H210406   0.132   3.738   0.213
 3489TIP3   OH210407   7.356   3.241   3.901
 3489TIP3    H110408   7.339   3.153   3.866
 3489TIP3    H210409   7.358   3.297   3.824
 3490TIP3   OH210410   3.057   6.129   4.274
 3490TIP3    H110411   3.127   6.194   4.282
 3490TIP3    H210412   3.075   6.085   4.191
 3491TIP3   OH210413   6.021   1.881   0.812
 3491TIP3    H110414   5.991   1.917   0.729
 3491TIP3    H210415   5.970   1.800   0.823
 3492TIP3   OH210416   7.248   1.482   6.221
 3492TIP3    H110417   7.214   1.570   6.240
 3492TIP3    H210418   7.339   1.485   6.250
 3493TIP3   OH210419   7.100   7.702   3.325
 3493TIP3    H110420   7.063   7.780   3.368
 3493TIP3    H210421   7.043   7.685   3.251
 3494TIP3   OH210422   3.885   1.563   3.748
 3494TIP3    H110423   3.800   1.600   3.773
 3494TIP3    H210424   3.944   1.638   3.743
 3495TIP3   OH210425   3.370   5.270   4.384
 3495TIP3    H110426   3.440   5.275   4.449
 3495TIP3    H210427   3.320   5.351   4.397
 3496TIP3   OH210428   5.319   1.895   2.655
 3496TIP3    H110429   5.406   1.934   2.660
 3496TIP3    H210430   5.292   1.884   2.747
 3497TIP3   OH210431   0.373   6.490   6.201
 3497TIP3    H110432   0.355   6.497   6.108
 3497TIP3    H210433   0.468   6.490   6.208
 3498TIP3   OH210434   2.195   1.388   5.440
 3498TIP3    H110435   2.255   1.373   5.514
 3498TIP3    H210436   2.171   1.300   5.411
 3499TIP3   OH210437   4.875   5.952   6.218
 3499TIP3    H110438   4.917   5.972   6.134
 3499TIP3    H210439   4.948   5.944   6.280
 3500TIP3   OH210440   5.663   7.370   4.381
 3500TIP3    H110441   5.646   7.288   4.337
 3500TIP3    H210442   5.692   7.430   4.312
 3501TIP3   OH210443   2.172   1.738   5.066
 3501TIP3    H110444   2.197   1.723   5.158
 3501TIP3    H210445   2.108   1.809   5.070
 3502TIP3   OH210446   7.695   3.086   2.568
 3502TIP3    H110447   7.750   3.087   2.491
 3502TIP3    H210448   7.607   3.108   2.536
 3503TIP3   OH210449   4.358   6.060   4.234
 3503TIP3    H110450   4.414   6.034   4.308
 3503TIP3    H210451   4.276   6.088   4.275
 3504TIP3   OH210452   3.882   1.164   1.766
 3504TIP3    H110453   3.953   1.108   1.799
 3504TIP3    H210454   3.859   1.220   1.840
 3505TIP3   OH210455   0.564   5.348   3.560
 3505TIP3    H110456   0.500   5.303   3.615
 3505TIP3    H210457   0.527   5.346   3.473
 3506TIP3   OH210458   3.593   4.361   4.084
 3506TIP3    H110459   3.661   4.365   4.150
 3506TIP3    H210460   3.607   4.278   4.039
 3507TIP3   OH210461   2.117   0.044   1.053
 3507TIP3    H110462   2.057   0.099   1.003
 3507TIP3    H210463   2.181   0.012   0.990
 3508TIP3   OH210464   2.654   7.831   6.313
 3508TIP3    H110465   2.581   7.884   6.346
 3508TIP3    H210466   2.650   7.750   6.364
 3509TIP3   OH210467   5.633   5.324   0.544
 3509TIP3    H110468   5.592   5.327   0.458
 3509TIP3    H210469   5.573   5.274   0.598
 3510TIP3   OH210470   7.459   1.181   5.877
 3510TIP3    H110471   7.366   1.200   5.888
 3510TIP3    H210472   7.495   1.187   5.965
 3511TIP3   OH210473   5.766   5.889   5.661
 3511TIP3    H110474   5.736   5.920   5.747
 3511TIP3    H210475   5.723   5.804   5.649
 3512TIP3   OH210476   5.775   1.625   1.464
 3512TIP3    H110477   5.760   1.558   1.530
 3512TIP3    H210478   5.718   1.599   1.391
 3513TIP3   OH210479   6.168   0.270   6.680
 3513TIP3    H110480   6.222   0.191   6.686
 3513TIP3    H210481   6.087   0.240   6.638
 3514TIP3   OH210482   6.642   2.075   6.406
 3514TIP3    H110483   6.714   2.066   6.469
 3514TIP3    H210484   6.633   1.987   6.368
 3515TIP3   OH210485   2.190   2.016   4.154
 3515TIP3    H110486   2.116   2.009   4.214
 3515TIP3    H210487   2.170   2.093   4.101
 3516TIP3   OH210488   7.936   6.483   5.685
 3516TIP3    H110489   7.941   6.433   5.767
 3516TIP3    H210490   8.021   6.526   5.678
 3517TIP3   OH210491   7.494   6.501   0.662
 3517TIP3    H110492   7.588   6.489   0.655
 3517TIP3    H210493   7.463   6.510   0.572
 3518TIP3   OH210494   7.705   1.244   1.183
 3518TIP3    H110495   7.761   1.321   1.195
 3518TIP3    H210496   7.729   1.186   1.256
 3519TIP3   OH210497   5.448   6.189   4.039
 3519TIP3    H110498   5.417   6.179   3.949
 3519TIP3    H210499   5.372   6.222   4.087
 3520TIP3   OH210500   5.492   5.922   0.965
 3520TIP3    H110501   5.512   5.829   0.982
 3520TIP3    H210502   5.567   5.953   0.915
 3521TIP3   OH210503   3.829   6.466   0.280
 3521TIP3    H110504   3.826   6.389   0.336
 3521TIP3    H210505   3.897   6.521   0.319
 3522TIP3   OH210506   6.403   6.739   0.453
 3522TIP3    H110507   6.484   6.725   0.503
 3522TIP3    H210508   6.341   6.676   0.490
 3523TIP3   OH210509   6.565   5.304   1.742
 3523TIP3    H110510   6.484   5.292   1.792
 3523TIP3    H210511   6.616   5.365   1.796
 3524TIP3   OH210512   6.297   4.524   6.562
 3524TIP3    H110513   6.363   4.589   6.588
 3524TIP3    H210514   6.261   4.558   6.480
 3525TIP3   OH210515   3.213   7.700   2.018
 3525TIP3    H110516   3.206   7.679   1.925
 3525TIP3    H210517   3.125   7.728   2.043
 3526TIP3   OH210518   0.350   0.604   0.212
 3526TIP3    H110519   0.299   0.665   0.266
 3526TIP3    H210520   0.323   0.622   0.123
 3527TIP3   OH210521   2.139   5.721   2.331
 3527TIP3    H110522   2.085   5.799   2.349
 3527TIP3    H210523   2.178   5.700   2.416
 3528TIP3   OH210524   1.692   5.128   5.874
 3528TIP3    H110525   1.640   5.208   5.874
 3528TIP3    H210526   1.630   5.059   5.897
 3529TIP3   OH210527   6.941   3.886   0.191
 3529TIP3    H110528   6.919   3.907   0.101
 3529TIP3    H210529   6.926   3.967   0.240
 3530TIP3   OH210530   6.316   7.066   4.399
 3530TIP3    H110531   6.235   7.103   4.363
 3530TIP3    H210532   6.299   6.972   4.405
 3531TIP3   OH210533   4.096   6.591   3.540
 3531TIP3    H110534   4.025   6.531   3.561
 3531TIP3    H210535   4.097   6.653   3.613
 3532TIP3   OH210536   5.614   7.001   6.203
 3532TIP3    H110537   5.663   7.045   6.273
 3532TIP3    H210538   5.666   7.016   6.124
 3533TIP3   OH210539   5.410   0.865   0.623
 3533TIP3    H110540   5.451   0.788   0.582
 3533TIP3    H210541   5.369   0.830   0.702
 3534TIP3   OH210542   6.903   0.106   5.354
 3534TIP3    H110543   6.964   0.174   5.325
 3534TIP3    H210544   6.937   0.079   5.440
 3535TIP3   OH210545   0.250   1.931   6.494
 3535TIP3    H110546   0.169   1.885   6.517
 3535TIP3    H210547   0.241   2.017   6.535
 3536TIP3   OH210548   0.676   7.951   4.271
 3536TIP3    H110549   0.612   7.902   4.219
 3536TIP3    H210550   0.759   7.907   4.256
 3537TIP3   OH210551   4.985   1.175   2.194
 3537TIP3    H110552   4.914   1.228   2.157
 3537TIP3    H210553   5.009   1.220   2.275
 3538TIP3   OH210554   1.135   3.177   4.767
 3538TIP3    H110555   1.160   3.091   4.735
 3538TIP3    H210556   1.099   3.161   4.854
 3539TIP3   OH210557   3.337   7.186   2.764
 3539TIP3    H110558   3.422   7.173   2.806
 3539TIP3    H210559   3.343   7.274   2.725
 3540TIP3   OH210560   2.272   0.766   6.631
 3540TIP3    H110561   2.322   0.827   6.685
 3540TIP3    H210562   2.273   0.683   6.679
 3541TIP3   OH210563   5.336   1.283   0.618
 3541TIP3    H110564   5.316   1.240   0.701
 3541TIP3    H210565   5.261   1.340   0.601
 3542TIP3   OH210566   4.627   6.802   5.607
 3542TIP3    H110567   4.549   6.834   5.652
 3542TIP3    H210568   4.656   6.727   5.659
 3543TIP3   OH210569   6.616   3.508  -0.017
 3543TIP3    H110570   6.575   3.590  -0.045
 3543TIP3    H210571   6.644   3.525   0.073
 3544TIP3   OH210572   7.672   5.236   5.692
 3544TIP3    H110573   7.717   5.264   5.771
 3544TIP3    H210574   7.643   5.317   5.650
 3545TIP3   OH210575   8.087   5.295   6.252
 3545TIP3    H110576   8.149   5.270   6.320
 3545TIP3    H210577   8.103   5.234   6.181
 3546TIP3   OH210578   1.225   1.974   0.486
 3546TIP3    H110579   1.299   2.018   0.528
 3546TIP3    H210580   1.190   2.040   0.425
 3547TIP3   OH210581   5.093   1.158   4.534
 3547TIP3    H110582   5.108   1.169   4.440
 3547TIP3    H210583   5.106   1.246   4.571
 3548TIP3   OH210584   0.196   5.043   2.098
 3548TIP3    H110585   0.142   4.995   2.035
 3548TIP3    H210586   0.167   5.011   2.184
 3549TIP3   OH210587   2.236   2.084   0.222
 3549TIP3    H110588   2.205   2.001   0.186
 3549TIP3    H210589   2.330   2.083   0.207
 3550TIP3   OH210590   6.278   1.781   1.858
 3550TIP3    H110591   6.243   1.803   1.771
 3550TIP3    H210592   6.367   1.815   1.857
 3551TIP3   OH210593   6.902   2.967   6.453
 3551TIP3    H110594   6.995   2.982   6.470
 3551TIP3    H210595   6.860   2.985   6.537
 3552TIP3   OH210596   4.184   6.923   1.265
 3552TIP3    H110597   4.114   6.935   1.200
 3552TIP3    H210598   4.191   6.828   1.275
 3553TIP3   OH210599   5.109   4.217   6.057
 3553TIP3    H110600   5.088   4.249   6.145
 3553TIP3    H210601   5.169   4.144   6.072
 3554TIP3   OH210602   5.213   0.321   4.466
 3554TIP3    H110603   5.139   0.372   4.500
 3554TIP3    H210604   5.194   0.312   4.372
 3555TIP3   OH210605   4.967   0.189   6.349
 3555TIP3    H110606   4.992   0.098   6.363
 3555TIP3    H210607   4.874   0.185   6.326
 3556TIP3   OH210608   2.443   7.551   6.375
 3556TIP3    H110609   2.466   7.593   6.458
 3556TIP3    H210610   2.436   7.458   6.396
 3557TIP3   OH210611   1.730   1.480   0.476
 3557TIP3    H110612   1.818   1.492   0.440
 3557TIP3    H210613   1.726   1.387   0.499
 3558TIP3   OH210614   1.718   7.903   5.598
 3558TIP3    H110615   1.694   7.897   5.690
 3558TIP3    H210616   1.635   7.917   5.552
 3559TIP3   OH210617   3.344   2.044   6.516
 3559TIP3    H110618   3.429   2.087   6.531
 3559TIP3    H210619   3.314   2.081   6.433
 3560TIP3   OH210620   2.553   2.122   5.636
 3560TIP3    H110621   2.551   2.165   5.550
 3560TIP3    H210622   2.646   2.122   5.661
 3561TIP3   OH210623   1.659   2.194   1.526
 3561TIP3    H110624   1.747   2.228   1.543
 3561TIP3    H210625   1.648   2.123   1.590
 3562TIP3   OH210626   6.111   2.222   0.625
 3562TIP3    H110627   6.138   2.173   0.703
 3562TIP3    H210628   6.154   2.176   0.552
 3563TIP3   OH210629   6.832   4.119   0.337
 3563TIP3    H110630   6.787   4.153   0.414
 3563TIP3    H210631   6.813   4.181   0.268
 3564TIP3   OH210632   0.275   6.203   6.320
 3564TIP3    H110633   0.359   6.226   6.280
 3564TIP3    H210634   0.216   6.275   6.296
 3565TIP3   OH210635   0.854   1.920   5.721
 3565TIP3    H110636   0.804   1.995   5.690
 3565TIP3    H210637   0.817   1.845   5.674
 3566TIP3   OH210638   5.174   3.554   2.975
 3566TIP3    H110639   5.193   3.494   2.903
 3566TIP3    H210640   5.250   3.612   2.978
 3567TIP3   OH210641   1.012   5.732   6.714
 3567TIP3    H110642   1.088   5.789   6.725
 3567TIP3    H210643   1.038   5.650   6.756
 3568TIP3   OH210644   4.996   6.923   2.073
 3568TIP3    H110645   4.919   6.897   2.124
 3568TIP3    H210646   4.967   6.914   1.982
 3569TIP3   OH210647   7.427   7.331   4.559
 3569TIP3    H110648   7.513   7.323   4.599
 3569TIP3    H210649   7.442   7.314   4.466
 3570TIP3   OH210650   6.544   4.665   2.792
 3570TIP3    H110651   6.609   4.677   2.723
 3570TIP3    H210652   6.464   4.639   2.745
 3571TIP3   OH210653   2.364   6.781   1.308
 3571TIP3    H110654   2.295   6.780   1.375
 3571TIP3    H210655   2.438   6.823   1.350
 3572TIP3   OH210656   1.731   4.628   5.399
 3572TIP3    H110657   1.656   4.597   5.450
 3572TIP3    H210658   1.693   4.671   5.323
 3573TIP3   OH210659   4.774   2.264   4.274
 3573TIP3    H110660   4.742   2.189   4.225
 3573TIP3    H210661   4.704   2.329   4.268
 3574TIP3   OH210662   1.571   3.237   4.988
 3574TIP3    H110663   1.544   3.228   5.079
 3574TIP3    H210664   1.590   3.330   4.978
 3575TIP3   OH210665   0.855   7.231   6.784
 3575TIP3    H110666   0.891   7.301   6.839
 3575TIP3    H210667   0.834   7.161   6.846
 3576TIP3   OH210668   6.422   7.197   4.622
 3576TIP3    H110669   6.372   7.155   4.551
 3576TIP3    H210670   6.486   7.251   4.577
 3577TIP3   OH210671   0.229   1.933   5.774
 3577TIP3    H110672   0.323   1.940   5.789
 3577TIP3    H210673   0.190   1.959   5.858
 3578TIP3   OH210674   2.325   2.905   3.925
 3578TIP3    H110675   2.254   2.869   3.872
 3578TIP3    H210676   2.286   2.917   4.012
 3579TIP3   OH210677   8.360   3.895   1.069
 3579TIP3    H110678   8.419   3.821   1.080
 3579TIP3    H210679   8.384   3.933   0.985
 3580TIP3   OH210680   8.209   3.100   4.554
 3580TIP3    H110681   8.185   3.180   4.507
 3580TIP3    H210682   8.272   3.130   4.620
 3581TIP3   OH210683   5.581   3.059   2.193
 3581TIP3    H110684   5.500   3.079   2.146
 3581TIP3    H210685   5.616   3.144   2.219
 3582TIP3   OH210686   5.063   0.225   1.600
 3582TIP3    H110687   5.087   0.158   1.664
 3582TIP3    H210688   4.970   0.209   1.583
 3583TIP3   OH210689   8.031   2.897   5.302
 3583TIP3    H110690   7.951   2.890   5.355
 3583TIP3    H210691   8.026   2.824   5.241
 3584TIP3   OH210692   8.319   5.610   0.884
 3584TIP3    H110693   8.337   5.691   0.931
 3584TIP3    H210694   8.242   5.630   0.830
 3585TIP3   OH210695   6.758   3.903   0.785
 3585TIP3    H110696   6.811   3.827   0.807
 3585TIP3    H210697   6.801   3.941   0.708
 3586TIP3   OH210698   2.270   6.673   3.203
 3586TIP3    H110699   2.359   6.709   3.213
 3586TIP3    H210700   2.212   6.747   3.221
 3587TIP3   OH210701   2.602   6.515   5.561
 3587TIP3    H110702   2.615   6.428   5.597
 3587TIP3    H210703   2.636   6.509   5.471
 3588TIP3   OH210704   6.298   6.769   0.017
 3588TIP3    H110705   6.236   6.780   0.089
 3588TIP3    H210706   6.316   6.675   0.015
 3589TIP3   OH210707   0.876   1.518   4.945
 3589TIP3    H110708   0.815   1.575   4.899
 3589TIP3    H210709   0.846   1.429   4.924
 3590TIP3   OH210710   1.765   2.330   0.550
 3590TIP3    H110711   1.765   2.237   0.527
 3590TIP3    H210712   1.855   2.358   0.536
 3591TIP3   OH210713   4.680   3.769   0.442
 3591TIP3    H110714   4.652   3.727   0.361
 3591TIP3    H210715   4.770   3.796   0.426
 3592TIP3   OH210716   6.571   5.655   5.127
 3592TIP3    H110717   6.590   5.734   5.177
 3592TIP3    H210718   6.616   5.667   5.044
 3593TIP3   OH210719   7.456   1.845   5.269
 3593TIP3    H110720   7.515   1.920   5.266
 3593TIP3    H210721   7.409   1.855   5.352
 3594TIP3   OH210722   2.972   1.828   0.769
 3594TIP3    H110723   2.968   1.922   0.782
 3594TIP3    H210724   3.003   1.794   0.853
 3595TIP3   OH210725   8.365   3.169   0.891
 3595TIP3    H110726   8.329   3.081   0.883
 3595TIP3    H210727   8.318   3.207   0.966
 3596TIP3   OH210728   8.035   3.606   1.235
 3596TIP3    H110729   7.955   3.613   1.183
 3596TIP3    H210730   8.007   3.568   1.318
 3597TIP3   OH210731   0.104   2.803   6.098
 3597TIP3    H110732   0.064   2.772   6.017
 3597TIP3    H210733   0.089   2.733   6.161
 3598TIP3   OH210734   6.613   7.172   0.461
 3598TIP3    H110735   6.677   7.106   0.436
 3598TIP3    H210736   6.597   7.157   0.554
 3599TIP3   OH210737   6.574   6.347   4.214
 3599TIP3    H110738   6.578   6.269   4.158
 3599TIP3    H210739   6.595   6.314   4.302
 3600TIP3   OH210740   4.401   5.333   5.095
 3600TIP3    H110741   4.454   5.257   5.070
 3600TIP3    H210742   4.444   5.367   5.174
 3601TIP3   OH210743   5.874   3.265   6.625
 3601TIP3    H110744   5.924   3.298   6.700
 3601TIP3    H210745   5.791   3.314   6.629
 3602TIP3   OH210746   7.758   5.972   4.816
 3602TIP3    H110747   7.716   6.026   4.748
 3602TIP3    H210748   7.692   5.963   4.884
 3603TIP3   OH210749   3.112   4.956   4.810
 3603TIP3    H110750   3.025   4.915   4.812
 3603TIP3    H210751   3.166   4.899   4.865
 3604TIP3   OH210752   5.300   7.658   1.670
 3604TIP3    H110753   5.388   7.643   1.704
 3604TIP3    H210754   5.311   7.727   1.604
 3605TIP3   OH210755   7.791   3.984   4.998
 3605TIP3    H110756   7.880   3.999   5.030
 3605TIP3    H210757   7.738   3.974   5.078
 3606TIP3   OH210758   1.165   1.575   6.111
 3606TIP3    H110759   1.093   1.514   6.102
 3606TIP3    H210760   1.160   1.631   6.032
 3607TIP3   OH210761   0.919   2.276   6.112
 3607TIP3    H110762   0.994   2.239   6.066
 3607TIP3    H210763   0.946   2.277   6.204
 3608TIP3   OH210764   4.821   7.350   4.507
 3608TIP3    H110765   4.865   7.407   4.570
 3608TIP3    H210766   4.735   7.332   4.547
 3609TIP3   OH210767   7.830   0.909   2.122
 3609TIP3    H110768   7.891   0.835   2.129
 3609TIP3    H210769   7.755   0.882   2.174
 3610TIP3   OH210770   7.310   3.033   3.262
 3610TIP3    H110771   7.316   3.092   3.187
 3610TIP3    H210772   7.302   3.092   3.338
 3611TIP3   OH210773   4.015   0.115   4.136
 3611TIP3    H110774   4.092   0.146   4.183
 3611TIP3    H210775   4.035   0.024   4.114
 3612TIP3   OH210776   4.704   5.209   5.469
 3612TIP3    H110777   4.619   5.239   5.436
 3612TIP3    H210778   4.767   5.240   5.404
 3613TIP3   OH210779   6.145   6.516   6.761
 3613TIP3    H110780   6.172   6.562   6.682
 3613TIP3    H210781   6.155   6.423   6.740
 3614TIP3   OH210782   0.389   3.586   4.333
 3614TIP3    H110783   0.450   3.657   4.309
 3614TIP3    H210784   0.428   3.508   4.295
 3615TIP3   OH210785   5.590   1.363   5.077
 3615TIP3    H110786   5.665   1.419   5.101
 3615TIP3    H210787   5.625   1.274   5.080
 3616TIP3   OH210788   2.794   0.471   1.421
 3616TIP3    H110789   2.860   0.540   1.420
 3616TIP3    H210790   2.840   0.393   1.390
 3617TIP3   OH210791   6.816   0.625   4.191
 3617TIP3    H110792   6.825   0.573   4.271
 3617TIP3    H210793   6.844   0.713   4.216
 3618TIP3   OH210794   7.600   6.138   2.631
 3618TIP3    H110795   7.560   6.106   2.549
 3618TIP3    H210796   7.529   6.185   2.674
 3619TIP3   OH210797   7.399   3.494   5.804
 3619TIP3    H110798   7.424   3.570   5.752
 3619TIP3    H210799   7.467   3.429   5.787
 3620TIP3   OH210800   2.621   6.752   3.858
 3620TIP3    H110801   2.644   6.678   3.801
 3620TIP3    H210802   2.595   6.711   3.940
 3621TIP3   OH210803   2.144   7.030   4.594
 3621TIP3    H110804   2.177   6.956   4.646
 3621TIP3    H210805   2.053   7.041   4.623
 3622TIP3   OH210806   5.753   3.186   0.013
 3622TIP3    H110807   5.681   3.154   0.068
 3622TIP3    H210808   5.832   3.164   0.061
 3623TIP3   OH210809   0.600   7.606   6.052
 3623TIP3    H110810   0.606   7.673   6.120
 3623TIP3    H210811   0.691   7.583   6.033
 3624TIP3   OH210812   4.649   1.570   6.057
 3624TIP3    H110813   4.637   1.487   6.102
 3624TIP3    H210814   4.623   1.636   6.121
 3625TIP3   OH210815   3.563   4.336   3.128
 3625TIP3    H110816   3.507   4.337   3.206
 3625TIP3    H210817   3.583   4.428   3.112
 3626TIP3   OH210818   1.814   6.376   5.730
 3626TIP3    H110819   1.756   6.430   5.676
 3626TIP3    H210820   1.787   6.286   5.712
 3627TIP3   OH210821   6.570   0.009   1.248
 3627TIP3    H110822   6.585   0.095   1.209
 3627TIP3    H210823   6.577  -0.052   1.176
 3628TIP3   OH210824   4.794   0.737   3.468
 3628TIP3    H110825   4.879   0.775   3.488
 3628TIP3    H210826   4.765   0.697   3.550
 3629TIP3   OH210827   7.290   0.803   1.594
 3629TIP3    H110828   7.267   0.890   1.627
 3629TIP3    H210829   7.297   0.814   1.499
 3630TIP3   OH210830   0.507   3.172   2.295
 3630TIP3    H110831   0.578   3.127   2.341
 3630TIP3    H210832   0.467   3.105   2.240
 3631TIP3   OH210833   1.483   4.123   1.815
 3631TIP3    H110834   1.560   4.122   1.758
 3631TIP3    H210835   1.436   4.203   1.790
 3632TIP3   OH210836   6.665   2.725   1.388
 3632TIP3    H110837   6.584   2.722   1.441
 3632TIP3    H210838   6.698   2.814   1.402
 3633TIP3   OH210839   1.674   2.455   3.571
 3633TIP3    H110840   1.663   2.364   3.598
 3633TIP3    H210841   1.585   2.492   3.575
 3634TIP3   OH210842   6.995   3.206   3.208
 3634TIP3    H110843   6.916   3.194   3.260
 3634TIP3    H210844   7.057   3.248   3.268
 3635TIP3   OH210845   7.063   6.367   2.857
 3635TIP3    H110846   7.158   6.371   2.866
 3635TIP3    H210847   7.041   6.275   2.873
 3636TIP3   OH210848   7.080   7.399   4.025
 3636TIP3    H110849   7.045   7.311   4.040
 3636TIP3    H210850   7.046   7.425   3.940
 3637TIP3   OH210851   6.090   0.799   0.235
 3637TIP3    H110852   6.024   0.801   0.304
 3637TIP3    H210853   6.167   0.761   0.277
 3638TIP3   OH210854   1.673   4.081   6.221
 3638TIP3    H110855   1.693   4.036   6.303
 3638TIP3    H210856   1.623   4.017   6.170
 3639TIP3   OH210857   3.392   6.003   1.483
 3639TIP3    H110858   3.354   6.066   1.544
 3639TIP3    H210859   3.467   5.966   1.530
 3640TIP3   OH210860   1.150   4.853   1.590
 3640TIP3    H110861   1.179   4.930   1.540
 3640TIP3    H210862   1.194   4.862   1.674
 3641TIP3   OH210863   6.513   7.263   4.115
 3641TIP3    H110864   6.435   7.207   4.117
 3641TIP3    H210865   6.565   7.229   4.042
 3642TIP3   OH210866   7.605   4.800   0.587
 3642TIP3    H110867   7.659   4.875   0.565
 3642TIP3    H210868   7.557   4.780   0.506
 3643TIP3   OH210869   6.315   5.937   6.875
 3643TIP3    H110870   6.349   5.852   6.844
 3643TIP3    H210871   6.259   5.967   6.803
 3644TIP3   OH210872   7.498   1.767   2.449
 3644TIP3    H110873   7.496   1.671   2.455
 3644TIP3    H210874   7.442   1.796   2.521
 3645TIP3   OH210875   6.153   6.618   0.478
 3645TIP3    H110876   6.098   6.604   0.401
 3645TIP3    H210877   6.093   6.612   0.552
 3646TIP3   OH210878   2.310   4.866   3.764
 3646TIP3    H110879   2.371   4.811   3.814
 3646TIP3    H210880   2.224   4.825   3.778
 3647TIP3   OH210881   5.679   2.574   4.695
 3647TIP3    H110882   5.746   2.640   4.680
 3647TIP3    H210883   5.715   2.518   4.764
 3648TIP3   OH210884   0.335   2.814   5.222
 3648TIP3    H110885   0.427   2.839   5.221
 3648TIP3    H210886   0.332   2.731   5.174
 3649TIP3   OH210887   2.327   6.773   5.116
 3649TIP3    H110888   2.276   6.852   5.132
 3649TIP3    H210889   2.264   6.701   5.125
 3650TIP3   OH210890   8.189   4.655   0.246
 3650TIP3    H110891   8.254   4.717   0.213
 3650TIP3    H210892   8.235   4.571   0.249
 3651TIP3   OH210893   1.322   1.808   5.656
 3651TIP3    H110894   1.334   1.852   5.572
 3651TIP3    H210895   1.334   1.715   5.637
 3652TIP3   OH210896   2.933   2.852   0.041
 3652TIP3    H110897   2.962   2.943   0.045
 3652TIP3    H210898   2.925   2.826   0.133
 3653TIP3   OH210899   5.447   6.940   6.545
 3653TIP3    H110900   5.424   6.946   6.452
 3653TIP3    H210901   5.410   6.857   6.573
 3654TIP3   OH210902   7.825   6.393   1.135
 3654TIP3    H110903   7.774   6.316   1.157
 3654TIP3    H210904   7.779   6.433   1.061
 3655TIP3   OH210905   2.959   4.882   3.353
 3655TIP3    H110906   2.888   4.932   3.312
 3655TIP3    H210907   2.916   4.828   3.419
 3656TIP3   OH210908   8.039   1.697   5.672
 3656TIP3    H110909   8.090   1.774   5.647
 3656TIP3    H210910   7.952   1.712   5.634
 3657TIP3   OH210911   7.827   2.497   4.257
 3657TIP3    H110912   7.767   2.536   4.320
 3657TIP3    H210913   7.782   2.420   4.224
 3658TIP3   OH210914   2.307   5.990   4.928
 3658TIP3    H110915   2.314   5.898   4.904
 3658TIP3    H210916   2.392   6.028   4.903
 3659TIP3   OH210917   4.182   0.795   6.548
 3659TIP3    H110918   4.115   0.801   6.617
 3659TIP3    H210919   4.133   0.772   6.469
 3660TIP3   OH210920   2.051   1.014   3.646
 3660TIP3    H110921   2.020   1.019   3.555
 3660TIP3    H210922   2.090   1.099   3.663
 3661TIP3   OH210923   7.562   0.890   2.602
 3661TIP3    H110924   7.481   0.940   2.607
 3661TIP3    H210925   7.546   0.814   2.658
 3662TIP3   OH210926   1.755   4.742   6.882
 3662TIP3    H110927   1.785   4.696   6.804
 3662TIP3    H210928   1.707   4.817   6.848
 3663TIP3   OH210929   5.121   0.098   5.642
 3663TIP3    H110930   5.032   0.132   5.633
 3663TIP3    H210931   5.121   0.052   5.725
 3664TIP3   OH210932   4.747   5.419   4.664
 3664TIP3    H110933   4.686   5.489   4.641
 3664TIP3    H210934   4.822   5.433   4.607
 3665TIP3   OH210935   0.342   7.316   0.841
 3665TIP3    H110936   0.368   7.277   0.925
 3665TIP3    H210937   0.345   7.410   0.856
 3666TIP3   OH210938   5.214   3.686   4.447
 3666TIP3    H110939   5.280   3.682   4.378
 3666TIP3    H210940   5.138   3.729   4.406
 3667TIP3   OH210941   4.969   0.563   1.068
 3667TIP3    H110942   4.932   0.493   1.123
 3667TIP3    H210943   4.892   0.608   1.032
 3668TIP3   OH210944   2.383   0.510   6.269
 3668TIP3    H110945   2.390   0.605   6.273
 3668TIP3    H210946   2.474   0.480   6.258
 3669TIP3   OH210947   5.052   6.024   3.544
 3669TIP3    H110948   5.146   6.004   3.549
 3669TIP3    H210949   5.044   6.113   3.578
 3670TIP3   OH210950   7.888   7.213   1.824
 3670TIP3    H110951   7.879   7.173   1.910
 3670TIP3    H210952   7.825   7.166   1.769
 3671TIP3   OH210953   1.742   7.020   2.285
 3671TIP3    H110954   1.735   7.034   2.379
 3671TIP3    H210955   1.668   7.069   2.248
 3672TIP3   OH210956   3.784   6.582   0.011
 3672TIP3    H110957   3.693   6.574  -0.019
 3672TIP3    H210958   3.783   6.550   0.101
 3673TIP3   OH210959   3.479   3.551   2.441
 3673TIP3    H110960   3.429   3.594   2.372
 3673TIP3    H210961   3.456   3.458   2.433
 3674TIP3   OH210962   7.134   1.029   4.057
 3674TIP3    H110963   7.203   1.079   4.101
 3674TIP3    H210964   7.169   1.013   3.970
 3675TIP3   OH210965   4.326   7.369   5.423
 3675TIP3    H110966   4.363   7.302   5.481
 3675TIP3    H210967   4.396   7.434   5.416
 3676TIP3   OH210968   8.045   6.157   4.262
 3676TIP3    H110969   8.093   6.212   4.324
 3676TIP3    H210970   8.111   6.099   4.225
 3677TIP3   OH210971   4.984   6.650   6.195
 3677TIP3    H110972   5.063   6.660   6.248
 3677TIP3    H210973   5.016   6.631   6.107
 3678TIP3   OH210974   1.345   6.396   4.239
 3678TIP3    H110975   1.333   6.441   4.156
 3678TIP3    H210976   1.291   6.446   4.301
 3679TIP3   OH210977   4.304   1.443   3.398
 3679TIP3    H110978   4.319   1.384   3.471
 3679TIP3    H210979   4.361   1.518   3.415
 3680TIP3   OH210980   7.024   6.737   2.025
 3680TIP3    H110981   7.008   6.645   2.047
 3680TIP3    H210982   7.113   6.754   2.055
 3681TIP3   OH210983   5.317   0.148   0.238
 3681TIP3    H110984   5.317   0.054   0.256
 3681TIP3    H210985   5.327   0.154   0.143
 3682TIP3   OH210986   4.698   2.573   6.275
 3682TIP3    H110987   4.791   2.586   6.291
 3682TIP3    H210988   4.680   2.623   6.195
 3683TIP3   OH210989   5.053   3.583   5.780
 3683TIP3    H110990   5.094   3.622   5.703
 3683TIP3    H210991   5.066   3.648   5.849
 3684TIP3   OH210992   1.033   6.840   1.330
 3684TIP3    H110993   1.051   6.903   1.260
 3684TIP3    H210994   1.039   6.755   1.287
 3685TIP3   OH210995   4.652   6.195   6.483
 3685TIP3    H110996   4.720   6.221   6.421
 3685TIP3    H210997   4.615   6.115   6.447
 3686TIP3   OH210998   4.567   2.523   5.826
 3686TIP3    H110999   4.509   2.446   5.823
 3686TIP3    H211000   4.524   2.583   5.887
 3687TIP3   OH211001   6.321   3.129   6.634
 3687TIP3    H111002   6.360   3.133   6.547
 3687TIP3    H211003   6.306   3.221   6.658
 3688TIP3   OH211004   3.172   3.239   6.519
 3688TIP3    H111005   3.131   3.309   6.569
 3688TIP3    H211006   3.236   3.284   6.464
 3689TIP3   OH211007   7.943   3.368   1.396
 3689TIP3    H111008   8.007   3.297   1.399
 3689TIP3    H211009   7.887   3.347   1.321
 3690TIP3   OH211010   1.519   2.421   0.096
 3690TIP3    H111011   1.611   2.446   0.106
 3690TIP3    H211012   1.500   2.369   0.175
 3691TIP3   OH211013   1.324   7.584   3.215
 3691TIP3    H111014   1.402   7.535   3.191
 3691TIP3    H211015   1.347   7.676   3.198
 3692TIP3   OH211016   3.448   4.373   5.317
 3692TIP3    H111017   3.503   4.446   5.287
 3692TIP3    H211018   3.452   4.309   5.246
 3693TIP3   OH211019   5.808   5.474   0.392
 3693TIP3    H111020   5.825   5.443   0.303
 3693TIP3    H211021   5.795   5.395   0.444
 3694TIP3   OH211022   8.360   0.804   1.166
 3694TIP3    H111023   8.405   0.719   1.162
 3694TIP3    H211024   8.430   0.868   1.154
 3695TIP3   OH211025   6.828   7.359   2.088
 3695TIP3    H111026   6.841   7.265   2.102
 3695TIP3    H211027   6.818   7.395   2.176
 3696TIP3   OH211028   2.208   1.761   4.606
 3696TIP3    H111029   2.265   1.695   4.644
 3696TIP3    H211030   2.154   1.791   4.678
 3697TIP3   OH211031   7.791   4.773   3.297
 3697TIP3    H111032   7.777   4.842   3.233
 3697TIP3    H211033   7.838   4.704   3.250
 3698TIP3   OH211034   3.673   4.536   6.266
 3698TIP3    H111035   3.695   4.449   6.297
 3698TIP3    H211036   3.651   4.585   6.345
 3699TIP3   OH211037   7.440   7.684   2.364
 3699TIP3    H111038   7.382   7.741   2.415
 3699TIP3    H211039   7.526   7.698   2.402
 3700TIP3   OH211040   7.731   2.385   4.533
 3700TIP3    H111041   7.698   2.466   4.495
 3700TIP3    H211042   7.807   2.363   4.480
 3701TIP3   OH211043   2.385   1.723   0.980
 3701TIP3    H111044   2.430   1.759   0.903
 3701TIP3    H211045   2.437   1.753   1.055
 3702TIP3   OH211046   7.702   7.641   1.120
 3702TIP3    H111047   7.724   7.553   1.153
 3702TIP3    H211048   7.704   7.697   1.198
 3703TIP3   OH211049   7.626   6.676   3.986
 3703TIP3    H111050   7.694   6.643   3.927
 3703TIP3    H211051   7.603   6.601   4.040
 3704TIP3   OH211052   4.307   4.818   2.845
 3704TIP3    H111053   4.282   4.759   2.915
 3704TIP3    H211054   4.300   4.906   2.883
 3705TIP3   OH211055   0.763   7.785   3.257
 3705TIP3    H111056   0.755   7.751   3.346
 3705TIP3    H211057   0.857   7.798   3.244
 3706TIP3   OH211058   7.726   6.943   0.045
 3706TIP3    H111059   7.706   6.966   0.136
 3706TIP3    H211060   7.677   7.006  -0.008
 3707TIP3   OH211061   1.181   2.223   3.813
 3707TIP3    H111062   1.193   2.171   3.891
 3707TIP3    H211063   1.257   2.203   3.758
 3708TIP3   OH211064   3.241   6.197   2.967
 3708TIP3    H111065   3.164   6.224   2.918
 3708TIP3    H211066   3.212   6.196   3.058
 3709TIP3   OH211067   7.398   3.059   1.479
 3709TIP3    H111068   7.409   3.110   1.559
 3709TIP3    H211069   7.305   3.068   1.458
 3710TIP3   OH211070   7.749   5.213   2.831
 3710TIP3    H111071   7.835   5.251   2.846
 3710TIP3    H211072   7.756   5.124   2.864
 3711TIP3   OH211073   0.376   3.944   6.531
 3711TIP3    H111074   0.338   3.890   6.462
 3711TIP3    H211075   0.466   3.960   6.502
 3712TIP3   OH211076   2.937   6.270   2.009
 3712TIP3    H111077   2.913   6.361   1.991
 3712TIP3    H211078   3.017   6.277   2.061
 3713TIP3   OH211079   2.288   6.190   6.803
 3713TIP3    H111080   2.216   6.241   6.842
 3713TIP3    H211081   2.329   6.251   6.742
 3714TIP3   OH211082   6.143   1.151   2.430
 3714TIP3    H111083   6.153   1.244   2.410
 3714TIP3    H211084   6.200   1.137   2.506
 3715TIP3   OH211085   3.897   5.392   1.675
 3715TIP3    H111086   3.887   5.464   1.738
 3715TIP3    H211087   3.814   5.390   1.627
 3716TIP3   OH211088   2.420   3.314   1.157
 3716TIP3    H111089   2.406   3.328   1.250
 3716TIP3    H211090   2.333   3.321   1.118
 3717TIP3   OH211091   3.634   7.586   0.582
 3717TIP3    H111092   3.720   7.583   0.624
 3717TIP3    H211093   3.648   7.549   0.495
 3718TIP3   OH211094   7.976   5.751   4.063
 3718TIP3    H111095   8.033   5.828   4.069
 3718TIP3    H211096   8.021   5.693   4.001
 3719TIP3   OH211097   0.062   0.214   2.857
 3719TIP3    H111098   0.046   0.187   2.947
 3719TIP3    H211099   0.158   0.214   2.849
 3720TIP3   OH211100   1.310   0.751   6.421
 3720TIP3    H111101   1.250   0.807   6.471
 3720TIP3    H211102   1.395   0.795   6.427
 3721TIP3   OH211103   6.706   0.165   5.148
 3721TIP3    H111104   6.758   0.144   5.225
 3721TIP3    H211105   6.622   0.122   5.164
 3722TIP3   OH211106   4.658   6.335   4.831
 3722TIP3    H111107   4.701   6.345   4.746
 3722TIP3    H211108   4.716   6.380   4.892
 3723TIP3   OH211109   8.194   3.404   6.280
 3723TIP3    H111110   8.184   3.364   6.194
 3723TIP3    H211111   8.253   3.345   6.328
 3724TIP3   OH211112   5.728   2.983   1.353
 3724TIP3    H111113   5.718   2.974   1.447
 3724TIP3    H211114   5.803   3.042   1.342
 3725TIP3   OH211115   6.751   1.927   5.171
 3725TIP3    H111116   6.837   1.900   5.140
 3725TIP3    H211117   6.733   2.009   5.126
 3726TIP3   OH211118   4.367   6.970   6.854
 3726TIP3    H111119   4.283   6.962   6.900
 3726TIP3    H211120   4.361   7.053   6.807
 3727TIP3   OH211121   5.113   5.306   4.004
 3727TIP3    H111122   5.178   5.267   3.945
 3727TIP3    H211123   5.166   5.353   4.069
 3728TIP3   OH211124   5.671   2.013   5.754
 3728TIP3    H111125   5.616   1.969   5.819
 3728TIP3    H211126   5.625   2.001   5.671
 3729TIP3   OH211127   4.235   5.616   5.449
 3729TIP3    H111128   4.313   5.565   5.469
 3729TIP3    H211129   4.235   5.625   5.354
 3730TIP3   OH211130   3.386   1.285   0.986
 3730TIP3    H111131   3.303   1.253   1.020
 3730TIP3    H211132   3.408   1.360   1.041
 3731TIP3   OH211133   7.120   0.883   5.783
 3731TIP3    H111134   7.083   0.954   5.731
 3731TIP3    H211135   7.064   0.808   5.764
 3732TIP3   OH211136   0.583   6.515   4.180
 3732TIP3    H111137   0.617   6.445   4.236
 3732TIP3    H211138   0.624   6.595   4.213
 3733TIP3   OH211139   5.796   7.225   2.369
 3733TIP3    H111140   5.785   7.130   2.369
 3733TIP3    H211141   5.855   7.242   2.442
 3734TIP3   OH211142   3.989   6.764   2.267
 3734TIP3    H111143   4.000   6.742   2.175
 3734TIP3    H211144   3.905   6.726   2.292
 3735TIP3   OH211145   1.596   0.592   6.571
 3735TIP3    H111146   1.653   0.535   6.623
 3735TIP3    H211147   1.618   0.572   6.481
 3736TIP3   OH211148   1.740   0.067   6.428
 3736TIP3    H111149   1.679   0.140   6.438
 3736TIP3    H211150   1.724   0.033   6.340
 3737TIP3   OH211151   6.016   4.904   4.010
 3737TIP3    H111152   6.018   4.865   4.097
 3737TIP3    H211153   6.093   4.961   4.007
 3738TIP3   OH211154   5.044   1.364   1.422
 3738TIP3    H111155   5.026   1.277   1.457
 3738TIP3    H211156   5.060   1.418   1.499
 3739TIP3   OH211157   5.724   7.516   6.229
 3739TIP3    H111158   5.778   7.457   6.176
 3739TIP3    H211159   5.679   7.571   6.165
 3740TIP3   OH211160   5.600   5.301   3.879
 3740TIP3    H111161   5.632   5.282   3.791
 3740TIP3    H211162   5.621   5.393   3.893
 3741TIP3   OH211163   2.276   7.203   0.605
 3741TIP3    H111164   2.364   7.172   0.581
 3741TIP3    H211165   2.220   7.176   0.532
 3742TIP3   OH211166   3.749   1.541   4.939
 3742TIP3    H111167   3.711   1.505   4.860
 3742TIP3    H211168   3.824   1.593   4.909
 3743TIP3   OH211169   4.478   7.106   5.135
 3743TIP3    H111170   4.490   7.200   5.148
 3743TIP3    H211171   4.502   7.067   5.218
 3744TIP3   OH211172   6.863   6.848   2.924
 3744TIP3    H111173   6.859   6.841   2.829
 3744TIP3    H211174   6.878   6.759   2.954
 3745TIP3   OH211175   1.340   4.910   6.564
 3745TIP3    H111176   1.280   4.977   6.531
 3745TIP3    H211177   1.288   4.861   6.627
 3746TIP3   OH211178   5.800   5.685   3.408
 3746TIP3    H111179   5.831   5.709   3.495
 3746TIP3    H211180   5.728   5.745   3.390
 3747TIP3   OH211181   4.295   0.113   4.249
 3747TIP3    H111182   4.273   0.165   4.326
 3747TIP3    H211183   4.361   0.051   4.280
 3748TIP3   OH211184   6.463   5.847   3.606
 3748TIP3    H111185   6.465   5.847   3.701
 3748TIP3    H211186   6.414   5.925   3.583
 3749TIP3   OH211187   7.487   0.689   0.951
 3749TIP3    H111188   7.505   0.781   0.932
 3749TIP3    H211189   7.546   0.641   0.894
 3750TIP3   OH211190   3.487   6.648   0.870
 3750TIP3    H111191   3.524   6.567   0.907
 3750TIP3    H211192   3.403   6.658   0.915
 3751TIP3   OH211193   8.063   2.928   0.204
 3751TIP3    H111194   8.154   2.903   0.193
 3751TIP3    H211195   8.031   2.873   0.276
 3752TIP3   OH211196   6.718   7.185   3.921
 3752TIP3    H111197   6.788   7.152   3.977
 3752TIP3    H211198   6.750   7.270   3.890
 3753TIP3   OH211199   0.215   0.365   6.143
 3753TIP3    H111200   0.266   0.397   6.217
 3753TIP3    H211201   0.226   0.431   6.075
 3754TIP3   OH211202   5.100   7.460   3.522
 3754TIP3    H111203   5.164   7.391   3.542
 3754TIP3    H211204   5.049   7.424   3.449
 3755TIP3   OH211205   2.298   7.819   0.636
 3755TIP3    H111206   2.356   7.888   0.603
 3755TIP3    H211207   2.357   7.746   0.656
 3756TIP3   OH211208   2.929   3.474   1.574
 3756TIP3    H111209   2.893   3.416   1.507
 3756TIP3    H211210   2.881   3.556   1.564
 3757TIP3   OH211211   0.171   5.346   0.514
 3757TIP3    H111212   0.210   5.317   0.596
 3757TIP3    H211213   0.223   5.303   0.446
 3758TIP3   OH211214   0.099   0.894   2.709
 3758TIP3    H111215   0.020   0.946   2.721
 3758TIP3    H211216   0.094   0.864   2.618
 3759TIP3   OH211217   5.582   7.637   2.459
 3759TIP3    H111218   5.503   7.679   2.426
 3759TIP3    H211219   5.635   7.621   2.381
 3760TIP3   OH211220   4.187   6.884   2.598
 3760TIP3    H111221   4.207   6.836   2.679
 3760TIP3    H211222   4.205   6.821   2.528
 3761TIP3   OH211223   3.595   4.776   2.111
 3761TIP3    H111224   3.677   4.823   2.094
 3761TIP3    H211225   3.527   4.831   2.070
 3762TIP3   OH211226   6.887   0.270   6.161
 3762TIP3    H111227   6.840   0.282   6.243
 3762TIP3    H211228   6.839   0.324   6.098
 3763TIP3   OH211229   8.294   5.680   6.100
 3763TIP3    H111230   8.292   5.585   6.112
 3763TIP3    H211231   8.376   5.697   6.054
 3764TIP3   OH211232   6.757   6.220   1.411
 3764TIP3    H111233   6.682   6.215   1.470
 3764TIP3    H211234   6.752   6.308   1.373
 3765TIP3   OH211235   3.663   4.693   0.061
 3765TIP3    H111236   3.597   4.706  -0.007
 3765TIP3    H211237   3.627   4.624   0.116
 3766TIP3   OH211238   0.998   2.669   6.573
 3766TIP3    H111239   1.001   2.601   6.640
 3766TIP3    H211240   1.079   2.658   6.524
 3767TIP3   OH211241   4.035   4.898   0.592
 3767TIP3    H111242   3.982   4.878   0.670
 3767TIP3    H211243   4.098   4.964   0.622
 3768TIP3   OH211244   6.069   1.533   2.773
 3768TIP3    H111245   6.045   1.624   2.788
 3768TIP3    H211246   6.158   1.537   2.738
 3769TIP3   OH211247   0.612   5.656   0.118
 3769TIP3    H111248   0.662   5.585   0.077
 3769TIP3    H211249   0.660   5.735   0.095
 3770TIP3   OH211250   3.194   0.795   5.262
 3770TIP3    H111251   3.146   0.716   5.236
 3770TIP3    H211252   3.209   0.842   5.180
 3771TIP3   OH211253   7.586   2.970   6.379
 3771TIP3    H111254   7.508   2.969   6.323
 3771TIP3    H211255   7.592   3.061   6.409
 3772TIP3   OH211256   1.218   5.923   4.991
 3772TIP3    H111257   1.277   5.975   4.935
 3772TIP3    H211258   1.200   5.845   4.939
 3773TIP3   OH211259   4.689   6.935   5.383
 3773TIP3    H111260   4.698   6.895   5.470
 3773TIP3    H211261   4.618   6.999   5.394
 3774TIP3   OH211262   4.044   2.250   5.789
 3774TIP3    H111263   4.138   2.236   5.801
 3774TIP3    H211264   4.019   2.189   5.720
 3775TIP3   OH211265   5.583   7.754   4.410
 3775TIP3    H111266   5.492   7.759   4.379
 3775TIP3    H211267   5.635   7.745   4.330
 3776TIP3   OH211268   1.560   0.345   3.848
 3776TIP3    H111269   1.638   0.298   3.878
 3776TIP3    H211270   1.577   0.436   3.871
 3777TIP3   OH211271   7.127   4.430   1.838
 3777TIP3    H111272   7.089   4.518   1.831
 3777TIP3    H211273   7.164   4.427   1.926
 3778TIP3   OH211274   7.960   7.261   4.903
 3778TIP3    H111275   7.869   7.229   4.900
 3778TIP3    H211276   8.013   7.182   4.911
 3779TIP3   OH211277   5.988   1.333   1.017
 3779TIP3    H111278   6.045   1.386   1.073
 3779TIP3    H211279   5.931   1.287   1.079
 3780TIP3   OH211280   3.453   3.721   4.370
 3780TIP3    H111281   3.510   3.784   4.326
 3780TIP3    H211282   3.373   3.771   4.388
 3781TIP3   OH211283   4.490   1.344   4.843
 3781TIP3    H111284   4.437   1.423   4.829
 3781TIP3    H211285   4.518   1.349   4.934
 3782TIP3   OH211286   0.607   2.220   1.062
 3782TIP3    H111287   0.573   2.191   1.147
 3782TIP3    H211288   0.608   2.141   1.008
 3783TIP3   OH211289   5.761   5.982   4.732
 3783TIP3    H111290   5.685   5.961   4.786
 3783TIP3    H211291   5.753   5.923   4.657
 3784TIP3   OH211292   2.810   1.638   6.215
 3784TIP3    H111293   2.742   1.689   6.170
 3784TIP3    H211294   2.887   1.645   6.158
 3785TIP3   OH211295   7.372   6.145   0.926
 3785TIP3    H111296   7.288   6.189   0.935
 3785TIP3    H211297   7.350   6.054   0.906
 3786TIP3   OH211298   2.018   4.313   4.402
 3786TIP3    H111299   2.099   4.289   4.447
 3786TIP3    H211300   2.003   4.242   4.339
 3787TIP3   OH211301   0.336   4.767   3.971
 3787TIP3    H111302   0.371   4.723   3.894
 3787TIP3    H211303   0.288   4.842   3.935
 3788TIP3   OH211304   6.805   0.366   2.015
 3788TIP3    H111305   6.754   0.361   2.096
 3788TIP3    H211306   6.895   0.356   2.043
 3789TIP3   OH211307   1.575   7.901   6.824
 3789TIP3    H111308   1.522   7.843   6.878
 3789TIP3    H211309   1.665   7.867   6.834
 3790TIP3   OH211310   6.684   0.472   0.652
 3790TIP3    H111311   6.704   0.389   0.610
 3790TIP3    H211312   6.612   0.453   0.712
 3791TIP3   OH211313   0.960   4.476   6.205
 3791TIP3    H111314   0.922   4.522   6.130
 3791TIP3    H211315   0.982   4.546   6.267
 3792TIP3   OH211316   7.418   7.381   1.369
 3792TIP3    H111317   7.443   7.321   1.298
 3792TIP3    H211318   7.327   7.360   1.387
 3793TIP3   OH211319   7.665   5.040   3.487
 3793TIP3    H111320   7.622   4.970   3.535
 3793TIP3    H211321   7.613   5.050   3.407
 3794TIP3   OH211322   4.709   1.106   6.388
 3794TIP3    H111323   4.753   1.023   6.406
 3794TIP3    H211324   4.619   1.093   6.418
 3795TIP3   OH211325   1.044   7.701   3.444
 3795TIP3    H111326   1.128   7.731   3.411
 3795TIP3    H211327   1.003   7.780   3.481
 3796TIP3   OH211328   3.621   3.589   6.205
 3796TIP3    H111329   3.705   3.631   6.223
 3796TIP3    H211330   3.633   3.546   6.121
 3797TIP3   OH211331   3.157   6.349   4.987
 3797TIP3    H111332   3.128   6.410   5.055
 3797TIP3    H211333   3.203   6.280   5.035
 3798TIP3   OH211334   6.363   0.185   1.622
 3798TIP3    H111335   6.364   0.118   1.553
 3798TIP3    H211336   6.449   0.179   1.663
 3799TIP3   OH211337   5.132   7.006   4.302
 3799TIP3    H111338   5.093   6.960   4.377
 3799TIP3    H211339   5.226   7.005   4.320
 3800TIP3   OH211340   3.630   4.050   3.276
 3800TIP3    H111341   3.563   4.113   3.304
 3800TIP3    H211342   3.585   3.995   3.212
 3801TIP3   OH211343   3.141   2.372   2.050
 3801TIP3    H111344   3.200   2.402   2.120
 3801TIP3    H211345   3.133   2.278   2.064
 3802TIP3   OH211346   5.177   0.565   1.524
 3802TIP3    H111347   5.255   0.612   1.552
 3802TIP3    H211348   5.198   0.532   1.437
 3803TIP3   OH211349   6.116   2.590   6.691
 3803TIP3    H111350   6.211   2.588   6.704
 3803TIP3    H211351   6.098   2.678   6.657
 3804TIP3   OH211352   1.828   2.780   6.735
 3804TIP3    H111353   1.856   2.829   6.812
 3804TIP3    H211354   1.820   2.845   6.665
 3805TIP3   OH211355   1.430   3.016   5.691
 3805TIP3    H111356   1.399   2.941   5.741
 3805TIP3    H211357   1.413   3.091   5.748
 3806TIP3   OH211358   5.802   2.563   5.748
 3806TIP3    H111359   5.822   2.654   5.768
 3806TIP3    H211360   5.709   2.553   5.769
 3807TIP3   OH211361   1.406   2.143   4.081
 3807TIP3    H111362   1.321   2.098   4.082
 3807TIP3    H211363   1.438   2.136   4.171
 3808TIP3   OH211364   4.713   5.795   0.254
 3808TIP3    H111365   4.717   5.719   0.196
 3808TIP3    H211366   4.804   5.813   0.277
 3809TIP3   OH211367   0.272   4.434   3.471
 3809TIP3    H111368   0.246   4.383   3.394
 3809TIP3    H211369   0.196   4.430   3.530
 3810TIP3   OH211370   5.272   7.020   1.580
 3810TIP3    H111371   5.246   6.955   1.515
 3810TIP3    H211372   5.190   7.065   1.603
 3811TIP3   OH211373   6.179   5.624   4.302
 3811TIP3    H111374   6.121   5.663   4.368
 3811TIP3    H211375   6.128   5.628   4.221
 3812TIP3   OH211376   4.485   5.524   0.303
 3812TIP3    H111377   4.564   5.544   0.252
 3812TIP3    H211378   4.489   5.429   0.316
 3813TIP3   OH211379   3.519   4.236   4.783
 3813TIP3    H111380   3.508   4.195   4.869
 3813TIP3    H211381   3.605   4.206   4.753
 3814TIP3   OH211382   4.510   2.112   5.403
 3814TIP3    H111383   4.519   2.131   5.310
 3814TIP3    H211384   4.523   2.196   5.446
 3815TIP3   OH211385   4.909   7.224   2.399
 3815TIP3    H111386   4.994   7.210   2.357
 3815TIP3    H211387   4.850   7.246   2.327
 3816TIP3   OH211388   7.655   1.995   1.879
 3816TIP3    H111389   7.588   2.011   1.944
 3816TIP3    H211390   7.738   2.014   1.924
 3817TIP3   OH211391   1.842   4.062   2.989
 3817TIP3    H111392   1.845   4.117   2.911
 3817TIP3    H211393   1.750   4.064   3.016
 3818TIP3   OH211394   1.473   7.149   1.333
 3818TIP3    H111395   1.459   7.056   1.314
 3818TIP3    H211396   1.562   7.167   1.303
 3819TIP3   OH211397   7.226   4.183   0.070
 3819TIP3    H111398   7.175   4.259   0.043
 3819TIP3    H211399   7.202   4.114   0.008
 3820TIP3   OH211400   6.449   2.012   6.075
 3820TIP3    H111401   6.447   1.939   6.013
 3820TIP3    H211402   6.427   1.973   6.159
 3821TIP3   OH211403   0.587   0.540   1.423
 3821TIP3    H111404   0.599   0.626   1.462
 3821TIP3    H211405   0.640   0.481   1.477
 3822TIP3   OH211406   0.946   1.219   6.620
 3822TIP3    H111407   0.876   1.238   6.557
 3822TIP3    H211408   1.023   1.264   6.586
 3823TIP3   OH211409   2.418   0.589   4.316
 3823TIP3    H111410   2.434   0.634   4.398
 3823TIP3    H211411   2.324   0.592   4.304
 3824TIP3   OH211412   6.080   5.954   5.799
 3824TIP3    H111413   6.057   5.986   5.712
 3824TIP3    H211414   6.127   6.028   5.839
 3825TIP3   OH211415   7.401   7.078   2.694
 3825TIP3    H111416   7.393   7.158   2.641
 3825TIP3    H211417   7.313   7.065   2.729
 3826TIP3   OH211418   3.664   3.043   5.836
 3826TIP3    H111419   3.610   3.047   5.757
 3826TIP3    H211420   3.703   3.130   5.843
 3827TIP3   OH211421   3.176   7.124   3.369
 3827TIP3    H111422   3.155   7.030   3.373
 3827TIP3    H211423   3.164   7.156   3.458
 3828TIP3   OH211424   0.495   6.012   1.740
 3828TIP3    H111425   0.515   5.931   1.694
 3828TIP3    H211426   0.579   6.040   1.777
 3829TIP3   OH211427   1.466   3.929   4.473
 3829TIP3    H111428   1.556   3.918   4.503
 3829TIP3    H211429   1.412   3.900   4.546
 3830TIP3   OH211430   1.336   2.331   0.617
 3830TIP3    H111431   1.242   2.345   0.610
 3830TIP3    H211432   1.365   2.393   0.684
 3831TIP3   OH211433   2.621   0.106   2.615
 3831TIP3    H111434   2.664   0.049   2.551
 3831TIP3    H211435   2.623   0.056   2.697
 3832TIP3   OH211436   3.669   2.565   5.647
 3832TIP3    H111437   3.743   2.529   5.697
 3832TIP3    H211438   3.593   2.547   5.701
 3833TIP3   OH211439   4.071   6.039   6.089
 3833TIP3    H111440   4.072   6.067   5.998
 3833TIP3    H211441   4.150   6.078   6.128
 3834TIP3   OH211442   6.163   0.561   2.610
 3834TIP3    H111443   6.097   0.628   2.627
 3834TIP3    H211444   6.173   0.560   2.515
 3835TIP3   OH211445   0.654   2.899   0.582
 3835TIP3    H111446   0.667   2.829   0.517
 3835TIP3    H211447   0.582   2.951   0.547
 3836TIP3   OH211448   0.308   0.613   3.441
 3836TIP3    H111449   0.366   0.568   3.380
 3836TIP3    H211450   0.220   0.589   3.412
 3837TIP3   OH211451   4.803   1.790   4.973
 3837TIP3    H111452   4.855   1.710   4.965
 3837TIP3    H211453   4.786   1.797   5.067
 3838TIP3   OH211454   8.229   6.125   4.676
 3838TIP3    H111455   8.269   6.069   4.742
 3838TIP3    H211456   8.141   6.090   4.666
 3839TIP3   OH211457   6.241   2.385   1.628
 3839TIP3    H111458   6.222   2.339   1.710
 3839TIP3    H211459   6.156   2.413   1.595
 3840TIP3   OH211460   5.106   0.202   3.435
 3840TIP3    H111461   5.057   0.138   3.384
 3840TIP3    H211462   5.052   0.281   3.432
 3841TIP3   OH211463   4.669   0.845   1.575
 3841TIP3    H111464   4.734   0.911   1.551
 3841TIP3    H211465   4.587   0.893   1.582
 3842TIP3   OH211466   3.398   0.925   2.030
 3842TIP3    H111467   3.400   0.876   2.112
 3842TIP3    H211468   3.482   0.971   2.028
 3843TIP3   OH211469   3.917   2.091   5.616
 3843TIP3    H111470   3.902   2.003   5.581
 3843TIP3    H211471   3.831   2.131   5.618
 3844TIP3   OH211472   7.784   2.869   4.505
 3844TIP3    H111473   7.795   2.963   4.494
 3844TIP3    H211474   7.842   2.846   4.578
 3845TIP3   OH211475   4.503   5.364   1.191
 3845TIP3    H111476   4.417   5.373   1.149
 3845TIP3    H211477   4.487   5.302   1.263
 3846TIP3   OH211478   5.681   6.319   6.832
 3846TIP3    H111479   5.694   6.238   6.881
 3846TIP3    H211480   5.590   6.343   6.850
 3847TIP3   OH211481   3.595   0.778   0.706
 3847TIP3    H111482   3.686   0.756   0.688
 3847TIP3    H211483   3.598   0.826   0.789
 3848TIP3   OH211484   2.911   0.909   2.234
 3848TIP3    H111485   2.919   0.817   2.260
 3848TIP3    H211486   2.821   0.932   2.254
 3849TIP3   OH211487   0.976   6.010   4.308
 3849TIP3    H111488   0.956   6.089   4.257
 3849TIP3    H211489   1.007   6.044   4.392
 3850TIP3   OH211490   4.160   6.486   6.278
 3850TIP3    H111491   4.070   6.467   6.303
 3850TIP3    H211492   4.213   6.428   6.333
 3851TIP3   OH211493   7.463   4.754   0.035
 3851TIP3    H111494   7.484   4.848   0.036
 3851TIP3    H211495   7.385   4.748  -0.019
 3852TIP3   OH211496   3.044   2.964   4.016
 3852TIP3    H111497   3.007   2.878   4.033
 3852TIP3    H211498   3.124   2.947   3.966
 3853TIP3   OH211499   5.569   4.670   5.080
 3853TIP3    H111500   5.599   4.744   5.028
 3853TIP3    H211501   5.481   4.695   5.110
 3854TIP3   OH211502   2.111   3.126   3.726
 3854TIP3    H111503   2.132   3.188   3.796
 3854TIP3    H211504   2.086   3.046   3.772
 3855TIP3   OH211505   4.484   4.582   5.638
 3855TIP3    H111506   4.565   4.559   5.593
 3855TIP3    H211507   4.511   4.644   5.706
 3856TIP3   OH211508   1.823   0.048   5.396
 3856TIP3    H111509   1.841   0.141   5.404
 3856TIP3    H211510   1.908   0.008   5.379
 3857TIP3   OH211511   3.939   7.662   3.712
 3857TIP3    H111512   3.971   7.643   3.800
 3857TIP3    H211513   3.894   7.746   3.720
 3858TIP3   OH211514   1.796   4.587   2.766
 3858TIP3    H111515   1.820   4.679   2.759
 3858TIP3    H211516   1.878   4.541   2.785
 3859TIP3   OH211517   3.641   0.506   3.822
 3859TIP3    H111518   3.573   0.550   3.772
 3859TIP3    H211519   3.668   0.570   3.888
 3860TIP3   OH211520   3.092   6.247   3.664
 3860TIP3    H111521   3.068   6.333   3.630
 3860TIP3    H211522   3.070   6.186   3.593
 3861TIP3   OH211523   6.435   2.873   2.428
 3861TIP3    H111524   6.420   2.849   2.336
 3861TIP3    H211525   6.348   2.894   2.462
 3862TIP3   OH211526   0.577   2.304   1.352
 3862TIP3    H111527   0.519   2.376   1.327
 3862TIP3    H211528   0.665   2.336   1.332
 3863TIP3   OH211529   0.626   4.204   1.047
 3863TIP3    H111530   0.635   4.230   0.955
 3863TIP3    H211531   0.632   4.109   1.045
 3864TIP3   OH211532   4.751   3.308   4.990
 3864TIP3    H111533   4.746   3.267   4.904
 3864TIP3    H211534   4.791   3.241   5.046
 3865TIP3   OH211535   1.498   6.734   4.733
 3865TIP3    H111536   1.481   6.644   4.706
 3865TIP3    H211537   1.447   6.745   4.813
 3866TIP3   OH211538   2.937   5.056   4.061
 3866TIP3    H111539   2.889   5.102   3.993
 3866TIP3    H211540   2.869   5.018   4.117
 3867TIP3   OH211541   2.941   1.236   3.503
 3867TIP3    H111542   2.974   1.311   3.454
 3867TIP3    H211543   3.003   1.225   3.575
 3868TIP3   OH211544   0.514   3.665   5.188
 3868TIP3    H111545   0.513   3.723   5.112
 3868TIP3    H211546   0.432   3.616   5.182
 3869TIP3   OH211547   5.266   7.701   3.591
 3869TIP3    H111548   5.224   7.787   3.583
 3869TIP3    H211549   5.200   7.639   3.560
 3870TIP3   OH211550   4.160   7.776   1.625
 3870TIP3    H111551   4.111   7.694   1.632
 3870TIP3    H211552   4.108   7.831   1.566
 3871TIP3   OH211553   4.017   0.963   4.042
 3871TIP3    H111554   4.006   1.049   4.083
 3871TIP3    H211555   3.983   0.901   4.107
 3872TIP3   OH211556   7.534   7.527   2.711
 3872TIP3    H111557   7.450   7.489   2.736
 3872TIP3    H211558   7.532   7.615   2.749
 3873TIP3   OH211559   4.165   0.893   3.182
 3873TIP3    H111560   4.260   0.904   3.176
 3873TIP3    H211561   4.151   0.846   3.264
 3874TIP3   OH211562   2.621   2.600   5.479
 3874TIP3    H111563   2.576   2.515   5.475
 3874TIP3    H211564   2.698   2.583   5.533
 3875TIP3   OH211565   1.412   0.879   3.383
 3875TIP3    H111566   1.401   0.974   3.385
 3875TIP3    H211567   1.503   0.864   3.409
 3876TIP3   OH211568   4.550   7.605   5.303
 3876TIP3    H111569   4.617   7.660   5.344
 3876TIP3    H211570   4.599   7.546   5.246
 3877TIP3   OH211571   1.363   2.160   2.308
 3877TIP3    H111572   1.390   2.188   2.221
 3877TIP3    H211573   1.322   2.074   2.294
 3878TIP3   OH211574   5.700   4.362   3.512
 3878TIP3    H111575   5.780   4.385   3.465
 3878TIP3    H211576   5.704   4.267   3.522
 3879TIP3   OH211577   8.172   6.763   1.152
 3879TIP3    H111578   8.150   6.673   1.127
 3879TIP3    H211579   8.163   6.813   1.071
 3880TIP3   OH211580   3.542   1.090   3.957
 3880TIP3    H111581   3.613   1.094   3.893
 3880TIP3    H211582   3.479   1.029   3.919
 3881TIP3   OH211583   5.537   4.750   1.193
 3881TIP3    H111584   5.446   4.732   1.170
 3881TIP3    H211585   5.588   4.685   1.143
 3882TIP3   OH211586   6.778   2.051   4.473
 3882TIP3    H111587   6.849   2.005   4.428
 3882TIP3    H211588   6.717   1.982   4.498
 3883TIP3   OH211589   4.333   5.889   3.823
 3883TIP3    H111590   4.241   5.902   3.799
 3883TIP3    H211591   4.361   5.814   3.770
 3884TIP3   OH211592   7.160   1.500   2.686
 3884TIP3    H111593   7.166   1.557   2.763
 3884TIP3    H211594   7.071   1.513   2.653
 3885TIP3   OH211595   6.104   7.518   6.581
 3885TIP3    H111596   6.128   7.584   6.647
 3885TIP3    H211597   6.188   7.483   6.551
 3886TIP3   OH211598   1.736   2.568   6.519
 3886TIP3    H111599   1.810   2.585   6.461
 3886TIP3    H211600   1.775   2.535   6.600
 3887TIP3   OH211601   0.043   0.640   3.666
 3887TIP3    H111602   0.007   0.726   3.642
 3887TIP3    H211603  -0.033   0.582   3.665
 3888TIP3   OH211604   7.077   0.528   3.618
 3888TIP3    H111605   7.000   0.515   3.563
 3888TIP3    H211606   7.139   0.575   3.562
 3889TIP3   OH211607   7.211   2.694   0.611
 3889TIP3    H111608   7.129   2.649   0.630
 3889TIP3    H211609   7.195   2.785   0.633
 3890TIP3   OH211610   7.562   7.682   6.812
 3890TIP3    H111611   7.599   7.697   6.725
 3890TIP3    H211612   7.628   7.628   6.857
 3891TIP3   OH211613   0.728   0.709   6.661
 3891TIP3    H111614   0.796   0.745   6.604
 3891TIP3    H211615   0.720   0.617   6.634
 3892TIP3   OH211616   1.680   2.532   4.290
 3892TIP3    H111617   1.594   2.490   4.284
 3892TIP3    H211618   1.665   2.609   4.345
 3893TIP3   OH211619   7.221   3.332   1.975
 3893TIP3    H111620   7.278   3.289   2.040
 3893TIP3    H211621   7.282   3.380   1.919
 3894TIP3   OH211622   6.928   3.994   5.426
 3894TIP3    H111623   6.913   4.055   5.354
 3894TIP3    H211624   7.019   3.965   5.414
 3895TIP3   OH211625   5.362   2.436   2.734
 3895TIP3    H111626   5.271   2.407   2.736
 3895TIP3    H211627   5.412   2.358   2.709
 3896TIP3   OH211628   2.783   6.135   4.395
 3896TIP3    H111629   2.863   6.118   4.345
 3896TIP3    H211630   2.716   6.080   4.354
 3897TIP3   OH211631   6.144   6.644   3.239
 3897TIP3    H111632   6.095   6.667   3.318
 3897TIP3    H211633   6.114   6.556   3.217
 3898TIP3   OH211634   6.535   2.817   2.904
 3898TIP3    H111635   6.571   2.820   2.815
 3898TIP3    H211636   6.596   2.870   2.956
 3899TIP3   OH211637   1.007   1.154   4.752
 3899TIP3    H111638   0.913   1.136   4.746
 3899TIP3    H211639   1.028   1.142   4.845
 3900TIP3   OH211640   3.430   2.228   0.484
 3900TIP3    H111641   3.442   2.135   0.498
 3900TIP3    H211642   3.440   2.240   0.389
 3901TIP3   OH211643   3.928   7.232   1.062
 3901TIP3    H111644   3.912   7.215   0.969
 3901TIP3    H211645   4.023   7.231   1.070
 3902TIP3   OH211646   0.691   4.101   1.942
 3902TIP3    H111647   0.782   4.113   1.969
 3902TIP3    H211648   0.640   4.156   2.002
 3903TIP3   OH211649   4.608   6.845   2.591
 3903TIP3    H111650   4.531   6.897   2.615
 3903TIP3    H211651   4.573   6.770   2.542
 3904TIP3   OH211652   3.572   3.333   4.267
 3904TIP3    H111653   3.629   3.260   4.289
 3904TIP3    H211654   3.505   3.295   4.211
 3905TIP3   OH211655   8.202   0.915   4.841
 3905TIP3    H111656   8.165   0.852   4.902
 3905TIP3    H211657   8.293   0.926   4.869
 3906TIP3   OH211658   3.428   5.584   4.244
 3906TIP3    H111659   3.426   5.646   4.317
 3906TIP3    H211660   3.490   5.517   4.271
 3907TIP3   OH211661   3.065   6.093   0.648
 3907TIP3    H111662   3.105   6.061   0.729
 3907TIP3    H211663   2.984   6.043   0.640
 3908TIP3   OH211664   7.334   7.044   5.822
 3908TIP3    H111665   7.394   7.080   5.888
 3908TIP3    H211666   7.255   7.021   5.871
 3909TIP3   OH211667   0.687   2.110   5.613
 3909TIP3    H111668   0.695   2.065   5.529
 3909TIP3    H211669   0.679   2.203   5.590
 3910TIP3   OH211670   3.678   1.627   6.104
 3910TIP3    H111671   3.621   1.593   6.034
 3910TIP3    H211672   3.632   1.604   6.185
 3911TIP3   OH211673   8.071   2.171   3.063
 3911TIP3    H111674   8.165   2.172   3.079
 3911TIP3    H211675   8.061   2.213   2.977
 3912TIP3   OH211676   5.053   1.114   4.862
 3912TIP3    H111677   5.088   1.053   4.797
 3912TIP3    H211678   5.124   1.177   4.876
 3913TIP3   OH211679   4.289   3.130   4.368
 3913TIP3    H111680   4.343   3.207   4.346
 3913TIP3    H211681   4.270   3.140   4.462
 3914TIP3   OH211682   3.010   0.867   1.477
 3914TIP3    H111683   3.024   0.790   1.422
 3914TIP3    H211684   2.999   0.831   1.565
 3915TIP3   OH211685   8.366   2.681   1.805
 3915TIP3    H111686   8.283   2.639   1.828
 3915TIP3    H211687   8.422   2.610   1.773
 3916TIP3   OH211688   0.817   6.592   2.495
 3916TIP3    H111689   0.791   6.678   2.463
 3916TIP3    H211690   0.832   6.540   2.415
 3917TIP3   OH211691   0.674   2.516   3.222
 3917TIP3    H111692   0.762   2.506   3.258
 3917TIP3    H211693   0.687   2.533   3.129
 3918TIP3   OH211694   0.053   3.638   2.446
 3918TIP3    H111695   0.019   3.581   2.378
 3918TIP3    H211696   0.133   3.595   2.477
 3919TIP3   OH211697   2.733   7.540   0.911
 3919TIP3    H111698   2.803   7.484   0.877
 3919TIP3    H211699   2.749   7.625   0.871
 3920TIP3   OH211700   2.817   5.995   5.242
 3920TIP3    H111701   2.805   5.977   5.149
 3920TIP3    H211702   2.906   6.029   5.248
 3921TIP3   OH211703   2.120   1.963   6.009
 3921TIP3    H111704   2.031   1.928   6.007
 3921TIP3    H211705   2.115   2.039   6.067
 3922TIP3   OH211706   4.311   0.305   3.575
 3922TIP3    H111707   4.273   0.305   3.487
 3922TIP3    H211708   4.238   0.327   3.633
 3923TIP3   OH211709   3.193   2.225   0.633
 3923TIP3    H111710   3.176   2.313   0.667
 3923TIP3    H211711   3.257   2.238   0.563
 3924TIP3   OH211712   0.479   7.557   0.763
 3924TIP3    H111713   0.499   7.641   0.722
 3924TIP3    H211714   0.564   7.521   0.786
 3925TIP3   OH211715   2.861   7.085   3.378
 3925TIP3    H111716   2.772   7.051   3.366
 3925TIP3    H211717   2.882   7.068   3.470
 3926TIP3   OH211718   6.628   1.245   5.075
 3926TIP3    H111719   6.594   1.287   5.154
 3926TIP3    H211720   6.722   1.263   5.077
 3927TIP3   OH211721   6.706   1.627   3.328
 3927TIP3    H111722   6.739   1.692   3.266
 3927TIP3    H211723   6.652   1.679   3.388
 3928TIP3   OH211724   8.293   0.944   3.044
 3928TIP3    H111725   8.206   0.909   3.025
 3928TIP3    H211726   8.277   1.020   3.100
 3929TIP3   OH211727   2.213   7.666   5.990
 3929TIP3    H111728   2.196   7.615   5.911
 3929TIP3    H211729   2.126   7.693   6.020
 3930TIP3   OH211730   5.356   0.750   0.869
 3930TIP3    H111731   5.388   0.660   0.876
 3930TIP3    H211732   5.281   0.755   0.928
 3931TIP3   OH211733   6.719   7.350   1.716
 3931TIP3    H111734   6.630   7.347   1.682
 3931TIP3    H211735   6.732   7.266   1.760
 3932TIP3   OH211736   0.655   3.091   5.563
 3932TIP3    H111737   0.657   3.031   5.637
 3932TIP3    H211738   0.562   3.105   5.546
 3933TIP3   OH211739   2.866   2.494   0.452
 3933TIP3    H111740   2.809   2.557   0.497
 3933TIP3    H211741   2.841   2.500   0.360
 3934TIP3   OH211742   3.626   4.031   6.117
 3934TIP3    H111743   3.621   4.010   6.210
 3934TIP3    H211744   3.539   4.010   6.083
 3935TIP3   OH211745   2.356   3.437   1.409
 3935TIP3    H111746   2.415   3.510   1.429
 3935TIP3    H211747   2.292   3.437   1.481
 3936TIP3   OH211748   3.872   7.359   1.808
 3936TIP3    H111749   3.892   7.309   1.887
 3936TIP3    H211750   3.873   7.294   1.738
 3937TIP3   OH211751   0.750   4.130   5.444
 3937TIP3    H111752   0.687   4.171   5.385
 3937TIP3    H211753   0.829   4.119   5.392
 3938TIP3   OH211754   8.303   2.435   4.963
 3938TIP3    H111755   8.248   2.414   4.888
 3938TIP3    H211756   8.342   2.520   4.940
 3939TIP3   OH211757   7.989   1.016   4.276
 3939TIP3    H111758   7.979   1.090   4.336
 3939TIP3    H211759   8.056   0.961   4.316
 3940TIP3   OH211760   7.280   3.959   5.763
 3940TIP3    H111761   7.317   3.889   5.711
 3940TIP3    H211762   7.330   3.957   5.845
 3941TIP3   OH211763   1.316   3.340   4.894
 3941TIP3    H111764   1.233   3.303   4.862
 3941TIP3    H211765   1.383   3.282   4.859
 3942TIP3   OH211766   7.917   6.333   6.478
 3942TIP3    H111767   7.867   6.403   6.521
 3942TIP3    H211768   7.850   6.271   6.449
 3943TIP3   OH211769   7.511   6.060   1.395
 3943TIP3    H111770   7.454   6.119   1.345
 3943TIP3    H211771   7.478   5.972   1.375
 3944TIP3   OH211772   6.907   0.780   6.096
 3944TIP3    H111773   6.956   0.739   6.024
 3944TIP3    H211774   6.825   0.809   6.055
 3945TIP3   OH211775   0.850   2.166   2.470
 3945TIP3    H111776   0.911   2.115   2.524
 3945TIP3    H211777   0.794   2.100   2.429
 3946TIP3   OH211778   3.121   4.222   6.701
 3946TIP3    H111779   3.061   4.200   6.772
 3946TIP3    H211780   3.094   4.309   6.671
 3947TIP3   OH211781   7.357   1.645   5.107
 3947TIP3    H111782   7.405   1.711   5.157
 3947TIP3    H211783   7.266   1.675   5.108
 3948TIP3   OH211784   1.722   4.409   0.385
 3948TIP3    H111785   1.766   4.463   0.450
 3948TIP3    H211786   1.786   4.341   0.363
 3949TIP3   OH211787   7.062   7.058   4.772
 3949TIP3    H111788   6.987   7.063   4.832
 3949TIP3    H211789   7.129   7.113   4.814
 3950TIP3   OH211790   1.601   7.650   3.015
 3950TIP3    H111791   1.617   7.684   3.103
 3950TIP3    H211792   1.588   7.556   3.027
 3951TIP3   OH211793   0.131   3.304   6.833
 3951TIP3    H111794   0.049   3.310   6.784
 3951TIP3    H211795   0.199   3.295   6.766
 3952TIP3   OH211796   0.354   5.283   0.288
 3952TIP3    H111797   0.403   5.339   0.228
 3952TIP3    H211798   0.418   5.222   0.324
 3953TIP3   OH211799   7.073   3.735   1.021
 3953TIP3    H111800   7.159   3.763   0.990
 3953TIP3    H211801   7.072   3.758   1.114
 3954TIP3   OH211802   1.309   4.488   3.251
 3954TIP3    H111803   1.293   4.489   3.345
 3954TIP3    H211804   1.378   4.552   3.237
 3955TIP3   OH211805   6.620   3.454   2.627
 3955TIP3    H111806   6.570   3.392   2.680
 3955TIP3    H211807   6.633   3.409   2.543
 3956TIP3   OH211808   5.034   7.180   1.670
 3956TIP3    H111809   5.009   7.261   1.715
 3956TIP3    H211810   4.976   7.176   1.594
 3957TIP3   OH211811   5.926   2.569   1.847
 3957TIP3    H111812   5.996   2.597   1.905
 3957TIP3    H211813   5.848   2.615   1.878
 3958TIP3   OH211814   3.268   1.121   3.406
 3958TIP3    H111815   3.180   1.152   3.383
 3958TIP3    H211816   3.293   1.064   3.334
 3959TIP3   OH211817   2.251   7.542   2.252
 3959TIP3    H111818   2.215   7.629   2.269
 3959TIP3    H211819   2.178   7.492   2.217
 3960TIP3   OH211820   0.689   2.581   6.195
 3960TIP3    H111821   0.727   2.564   6.282
 3960TIP3    H211822   0.758   2.556   6.134
 3961TIP3   OH211823   2.979   5.530   4.841
 3961TIP3    H111824   3.053   5.544   4.899
 3961TIP3    H211825   2.910   5.587   4.876
 3962TIP3   OH211826   3.989   3.524   3.470
 3962TIP3    H111827   3.984   3.444   3.417
 3962TIP3    H211828   4.038   3.499   3.547
 3963TIP3   OH211829   2.566   5.196   6.641
 3963TIP3    H111830   2.647   5.208   6.691
 3963TIP3    H211831   2.527   5.117   6.679
 3964TIP3   OH211832   5.777   0.857   3.124
 3964TIP3    H111833   5.817   0.896   3.202
 3964TIP3    H211834   5.751   0.932   3.071
 3965TIP3   OH211835   7.135   6.035   1.103
 3965TIP3    H111836   7.099   5.947   1.093
 3965TIP3    H211837   7.060   6.093   1.087
 3966TIP3   OH211838   6.589   0.208   0.584
 3966TIP3    H111839   6.646   0.172   0.516
 3966TIP3    H211840   6.610   0.156   0.662
 3967TIP3   OH211841   3.879   6.836   3.727
 3967TIP3    H111842   3.962   6.861   3.686
 3967TIP3    H211843   3.901   6.763   3.785
 3968TIP3   OH211844   2.801   7.579   6.447
 3968TIP3    H111845   2.858   7.593   6.523
 3968TIP3    H211846   2.735   7.518   6.477
 3969TIP3   OH211847   4.440   6.772   3.987
 3969TIP3    H111848   4.408   6.826   3.915
 3969TIP3    H211849   4.505   6.715   3.947
 3970TIP3   OH211850   6.287   1.242   4.144
 3970TIP3    H111851   6.203   1.255   4.100
 3970TIP3    H211852   6.279   1.289   4.227
 3971TIP3   OH211853   7.132   6.302   0.868
 3971TIP3    H111854   7.065   6.240   0.897
 3971TIP3    H211855   7.110   6.319   0.776
 3972TIP3   OH211856   5.706   6.807   5.284
 3972TIP3    H111857   5.628   6.839   5.330
 3972TIP3    H211858   5.698   6.843   5.196
 3973TIP3   OH211859   7.258   6.489   1.103
 3973TIP3    H111860   7.194   6.532   1.048
 3973TIP3    H211861   7.316   6.443   1.042
 3974TIP3   OH211862   2.715   0.108   6.726
 3974TIP3    H111863   2.736   0.016   6.715
 3974TIP3    H211864   2.705   0.120   6.820
 3975TIP3   OH211865   8.274   4.311   3.483
 3975TIP3    H111866   8.194   4.287   3.437
 3975TIP3    H211867   8.309   4.386   3.435
 3976TIP3   OH211868   2.286   3.340   4.900
 3976TIP3    H111869   2.282   3.255   4.857
 3976TIP3    H211870   2.365   3.337   4.953
 3977TIP3   OH211871   2.651   2.445   5.027
 3977TIP3    H111872   2.707   2.470   4.954
 3977TIP3    H211873   2.654   2.350   5.028
 3978TIP3   OH211874   7.785   5.257   0.646
 3978TIP3    H111875   7.697   5.233   0.617
 3978TIP3    H211876   7.782   5.352   0.657
 3979TIP3   OH211877   2.539   1.742   0.243
 3979TIP3    H111878   2.485   1.697   0.308
 3979TIP3    H211879   2.501   1.719   0.159
 3980TIP3   OH211880   5.714   4.997   1.263
 3980TIP3    H111881   5.634   4.945   1.257
 3980TIP3    H211882   5.780   4.935   1.293
 3981TIP3   OH211883   7.744   5.068   5.090
 3981TIP3    H111884   7.762   5.126   5.017
 3981TIP3    H211885   7.671   5.110   5.136
 3982TIP3   OH211886   0.116   5.049   4.093
 3982TIP3    H111887   0.155   5.123   4.046
 3982TIP3    H211888   0.190   4.994   4.118
 3983TIP3   OH211889   0.967   4.388   1.997
 3983TIP3    H111890   0.994   4.310   1.949
 3983TIP3    H211891   1.021   4.458   1.963
 3984TIP3   OH211892   8.111   3.844   1.047
 3984TIP3    H111893   8.084   3.754   1.065
 3984TIP3    H211894   8.204   3.836   1.024
 3985TIP3   OH211895   3.571   4.187   2.537
 3985TIP3    H111896   3.636   4.253   2.512
 3985TIP3    H211897   3.535   4.218   2.620
 3986TIP3   OH211898   6.596   2.295   2.701
 3986TIP3    H111899   6.548   2.358   2.647
 3986TIP3    H211900   6.687   2.326   2.697
 3987TIP3   OH211901   7.730   3.019   4.082
 3987TIP3    H111902   7.705   3.007   4.174
 3987TIP3    H211903   7.800   2.955   4.068
 3988TIP3   OH211904   1.564   2.822   3.516
 3988TIP3    H111905   1.567   2.856   3.426
 3988TIP3    H211906   1.541   2.898   3.569
 3989TIP3   OH211907   7.838   1.967   4.278
 3989TIP3    H111908   7.803   1.942   4.193
 3989TIP3    H211909   7.868   1.885   4.317
 3990TIP3   OH211910   1.947   2.682   4.853
 3990TIP3    H111911   2.041   2.668   4.840
 3990TIP3    H211912   1.941   2.771   4.888
 3991TIP3   OH211913   6.265   7.405   2.282
 3991TIP3    H111914   6.203   7.333   2.291
 3991TIP3    H211915   6.213   7.484   2.295
 3992TIP3   OH211916   4.465   2.079   0.218
 3992TIP3    H111917   4.489   1.989   0.238
 3992TIP3    H211918   4.505   2.097   0.133
 3993TIP3   OH211919   1.767   3.264   1.119
 3993TIP3    H111920   1.857   3.234   1.123
 3993TIP3    H211921   1.754   3.313   1.201
 3994TIP3   OH211922   7.598   3.797   3.204
 3994TIP3    H111923   7.644   3.736   3.146
 3994TIP3    H211924   7.580   3.746   3.283
 3995TIP3   OH211925   0.747   2.773   0.249
 3995TIP3    H111926   0.797   2.726   0.183
 3995TIP3    H211927   0.753   2.719   0.327
 3996TIP3   OH211928   1.979   2.620   6.378
 3996TIP3    H111929   2.054   2.568   6.348
 3996TIP3    H211930   2.015   2.673   6.450
 3997TIP3   OH211931   1.365   4.443   1.058
 3997TIP3    H111932   1.459   4.460   1.067
 3997TIP3    H211933   1.323   4.513   1.108
 3998TIP3   OH211934   2.266   7.693   4.358
 3998TIP3    H111935   2.204   7.763   4.338
 3998TIP3    H211936   2.347   7.738   4.379
 3999TIP3   OH211937   7.186   2.431   6.684
 3999TIP3    H111938   7.103   2.474   6.663
 3999TIP3    H211939   7.211   2.386   6.603
 4000TIP3   OH211940   1.015   6.321   2.811
 4000TIP3    H111941   1.012   6.334   2.906
 4000TIP3    H211942   1.034   6.407   2.775
 4001TIP3   OH211943   6.635   5.493   2.502
 4001TIP3    H111944   6.648   5.552   2.576
 4001TIP3    H211945   6.548   5.455   2.517
 4002TIP3   OH211946   5.901   4.000   4.088
 4002TIP3    H111947   5.816   3.973   4.121
 4002TIP3    H211948   5.961   3.931   4.116
 4003TIP3   OH211949   4.849   1.231   0.573
 4003TIP3    H111950   4.823   1.293   0.641
 4003TIP3    H211951   4.768   1.212   0.525
 4004TIP3   OH211952   1.825   0.689   0.552
 4004TIP3    H111953   1.804   0.757   0.488
 4004TIP3    H211954   1.907   0.717   0.592
 4005TIP3   OH211955   5.807   3.761   0.844
 4005TIP3    H111956   5.871   3.802   0.787
 4005TIP3    H211957   5.723   3.796   0.815
 4006TIP3   OH211958   5.712   2.340   6.453
 4006TIP3    H111959   5.709   2.244   6.459
 4006TIP3    H211960   5.621   2.367   6.464
 4007TIP3   OH211961   3.677   7.433   5.399
 4007TIP3    H111962   3.680   7.452   5.305
 4007TIP3    H211963   3.584   7.417   5.417
 4008TIP3   OH211964   0.748   4.501   4.407
 4008TIP3    H111965   0.826   4.556   4.419
 4008TIP3    H211966   0.698   4.513   4.487
 4009TIP3   OH211967   3.669   3.792   0.605
 4009TIP3    H111968   3.614   3.843   0.545
 4009TIP3    H211969   3.705   3.722   0.550
 4010TIP3   OH211970   5.459   2.516   2.968
 4010TIP3    H111971   5.491   2.448   3.027
 4010TIP3    H211972   5.418   2.469   2.895
 4011TIP3   OH211973   3.265   0.100   0.341
 4011TIP3    H111974   3.204   0.152   0.393
 4011TIP3    H211975   3.251   0.132   0.251
 4012TIP3   OH211976   8.128   6.080   5.281
 4012TIP3    H111977   8.160   6.143   5.346
 4012TIP3    H211978   8.144   6.123   5.197
 4013TIP3   OH211979   4.765   1.959   2.788
 4013TIP3    H111980   4.723   1.873   2.784
 4013TIP3    H211981   4.697   2.017   2.824
 4014TIP3   OH211982   4.273   0.916   3.973
 4014TIP3    H111983   4.334   0.966   4.028
 4014TIP3    H211984   4.187   0.934   4.010
 4015TIP3   OH211985   3.297   3.906   2.473
 4015TIP3    H111986   3.223   3.855   2.505
 4015TIP3    H211987   3.312   3.873   2.384
 4016TIP3   OH211988   3.177   4.039   1.381
 4016TIP3    H111989   3.158   4.044   1.288
 4016TIP3    H211990   3.091   4.047   1.423
 4017TIP3   OH211991   1.065   5.760   6.099
 4017TIP3    H111992   1.088   5.717   6.182
 4017TIP3    H211993   1.125   5.835   6.094
 4018TIP3   OH211994   1.527   3.046   4.568
 4018TIP3    H111995   1.447   3.098   4.559
 4018TIP3    H211996   1.585   3.079   4.499
 4019TIP3   OH211997   4.076   2.393   1.222
 4019TIP3    H111998   4.005   2.330   1.230
 4019TIP3    H211999   4.156   2.341   1.233
 4020TIP3   OH212000   0.970   1.495   4.691
 4020TIP3    H112001   0.945   1.485   4.783
 4020TIP3    H212002   0.910   1.436   4.644
 4021TIP3   OH212003   7.645   2.569   3.448
 4021TIP3    H112004   7.647   2.600   3.358
 4021TIP3    H212005   7.557   2.591   3.480
 4022TIP3   OH212006   2.688   0.772   5.752
 4022TIP3    H112007   2.752   0.836   5.719
 4022TIP3    H212008   2.712   0.690   5.709
 4023TIP3   OH212009   4.717   1.433   4.461
 4023TIP3    H112010   4.650   1.468   4.403
 4023TIP3    H212011   4.706   1.338   4.458
 4024TIP3   OH212012   6.416   1.412   2.946
 4024TIP3    H112013   6.385   1.440   2.860
 4024TIP3    H212014   6.510   1.434   2.946
 4025TIP3   OH212015   7.647   3.641   2.641
 4025TIP3    H112016   7.571   3.590   2.615
 4025TIP3    H212017   7.635   3.726   2.599
 4026TIP3   OH212018   4.428   2.977   2.967
 4026TIP3    H112019   4.491   3.048   2.975
 4026TIP3    H212020   4.443   2.923   3.045
 4027TIP3   OH212021   2.907   6.383   2.597
 4027TIP3    H112022   2.900   6.471   2.559
 4027TIP3    H212023   2.900   6.397   2.691
 4028TIP3   OH212024   3.658   1.434   1.756
 4028TIP3    H112025   3.642   1.489   1.679
 4028TIP3    H212026   3.633   1.346   1.728
 4029TIP3   OH212027   5.239   5.102   5.642
 4029TIP3    H112028   5.312   5.070   5.696
 4029TIP3    H212029   5.221   5.189   5.677
 4030TIP3   OH212030   0.329   1.670   2.584
 4030TIP3    H112031   0.346   1.758   2.549
 4030TIP3    H212032   0.244   1.647   2.548
 4031TIP3   OH212033   2.556   0.603   2.847
 4031TIP3    H112034   2.540   0.514   2.878
 4031TIP3    H212035   2.645   0.623   2.876
 4032TIP3   OH212036   7.308   4.688   6.021
 4032TIP3    H112037   7.299   4.782   6.003
 4032TIP3    H212038   7.304   4.681   6.116
 4033TIP3   OH212039   6.683   5.423   5.471
 4033TIP3    H112040   6.735   5.390   5.398
 4033TIP3    H212041   6.594   5.395   5.451
 4034TIP3   OH212042   5.870   7.894   5.173
 4034TIP3    H112043   5.819   7.836   5.229
 4034TIP3    H212044   5.954   7.902   5.218
 4035TIP3   OH212045   1.770   4.857   2.725
 4035TIP3    H112046   1.836   4.877   2.658
 4035TIP3    H212047   1.803   4.900   2.804
 4036TIP3   OH212048   5.291   3.389   6.115
 4036TIP3    H112049   5.301   3.377   6.209
 4036TIP3    H212050   5.252   3.476   6.106
 4037TIP3   OH212051   6.564   3.102   0.695
 4037TIP3    H112052   6.480   3.097   0.649
 4037TIP3    H212053   6.569   3.019   0.743
 4038TIP3   OH212054   2.841   0.658   2.300
 4038TIP3    H112055   2.839   0.687   2.391
 4038TIP3    H212056   2.749   0.661   2.272
 4039TIP3   OH212057   1.036   0.919   2.168
 4039TIP3    H112058   0.960   0.943   2.221
 4039TIP3    H212059   1.111   0.957   2.215
 4040TIP3   OH212060   0.084   3.520   1.739
 4040TIP3    H112061   0.156   3.471   1.700
 4040TIP3    H212062   0.060   3.585   1.673
 4041TIP3   OH212063   2.635   0.889   1.423
 4041TIP3    H112064   2.687   0.865   1.500
 4041TIP3    H212065   2.568   0.949   1.456
 4042TIP3   OH212066   5.095   6.165   0.985
 4042TIP3    H112067   5.006   6.184   1.016
 4042TIP3    H212068   5.099   6.070   0.983
 4043TIP3   OH212069   5.724   3.575   0.581
 4043TIP3    H112070   5.693   3.496   0.536
 4043TIP3    H212071   5.654   3.639   0.567
 4044TIP3   OH212072   3.768   2.698   3.887
 4044TIP3    H112073   3.712   2.762   3.842
 4044TIP3    H212074   3.722   2.681   3.970
 4045TIP3   OH212075   2.112   6.467   1.487
 4045TIP3    H112076   2.193   6.417   1.499
 4045TIP3    H212077   2.046   6.402   1.464
 4046TIP3   OH212078   4.696   4.029   0.018
 4046TIP3    H112079   4.758   3.988   0.078
 4046TIP3    H212080   4.610   4.015   0.057
 4047TIP3   OH212081   7.635   0.354   0.454
 4047TIP3    H112082   7.720   0.325   0.421
 4047TIP3    H212083   7.571   0.315   0.394
 4048TIP3   OH212084   0.580   4.278   4.341
 4048TIP3    H112085   0.633   4.349   4.304
 4048TIP3    H212086   0.490   4.311   4.335
 4049TIP3   OH212087   1.683   0.899   3.444
 4049TIP3    H112088   1.692   0.910   3.538
 4049TIP3    H212089   1.757   0.948   3.407
 4050TIP3   OH212090   1.598   2.721   5.392
 4050TIP3    H112091   1.682   2.720   5.437
 4050TIP3    H212092   1.607   2.656   5.322
 4051TIP3   OH212093   2.906   1.115   1.564
 4051TIP3    H112094   2.992   1.146   1.592
 4051TIP3    H212095   2.920   1.024   1.540
 4052TIP3   OH212096   6.601   7.592   1.159
 4052TIP3    H112097   6.521   7.607   1.209
 4052TIP3    H212098   6.664   7.656   1.193
 4053TIP3   OH212099   6.271   5.930   4.900
 4053TIP3    H112100   6.254   6.005   4.844
 4053TIP3    H212101   6.282   5.856   4.840
 4054TIP3   OH212102   4.901   3.931   0.639
 4054TIP3    H112103   4.971   3.947   0.575
 4054TIP3    H212104   4.945   3.888   0.713
 4055TIP3   OH212105   4.335   0.402   2.828
 4055TIP3    H112106   4.373   0.489   2.825
 4055TIP3    H212107   4.249   0.413   2.786
 4056TIP3   OH212108   0.907   1.629   5.724
 4056TIP3    H112109   0.959   1.708   5.733
 4056TIP3    H212110   0.891   1.600   5.814
 4057TIP3   OH212111   0.375   4.123   2.958
 4057TIP3    H112112   0.444   4.125   2.892
 4057TIP3    H212113   0.299   4.163   2.915
 4058TIP3   OH212114   7.642   2.628   3.895
 4058TIP3    H112115   7.572   2.667   3.947
 4058TIP3    H212116   7.637   2.534   3.913
 4059TIP3   OH212117   1.801   6.528   4.482
 4059TIP3    H112118   1.805   6.614   4.524
 4059TIP3    H212119   1.711   6.499   4.497
 4060TIP3   OH212120   0.782   5.691   6.555
 4060TIP3    H112121   0.867   5.665   6.589
 4060TIP3    H212122   0.799   5.725   6.468
 4061TIP3   OH212123   7.958   4.015   1.294
 4061TIP3    H112124   7.883   4.064   1.262
 4061TIP3    H212125   7.924   3.927   1.310
 4062TIP3   OH212126   2.007   3.016   5.337
 4062TIP3    H112127   2.079   3.063   5.379
 4062TIP3    H212128   1.972   3.078   5.272
 4063TIP3   OH212129   7.332   3.062   1.801
 4063TIP3    H112130   7.281   2.996   1.753
 4063TIP3    H212131   7.326   3.141   1.747
 4064TIP3   OH212132   4.601   3.135   2.476
 4064TIP3    H112133   4.592   3.206   2.413
 4064TIP3    H212134   4.690   3.102   2.464
 4065TIP3   OH212135   5.963   0.557   4.122
 4065TIP3    H112136   6.023   0.517   4.185
 4065TIP3    H212137   5.884   0.503   4.128
 4066TIP3   OH212138   8.278   2.332   2.959
 4066TIP3    H112139   8.372   2.310   2.959
 4066TIP3    H212140   8.258   2.351   3.050
 4067TIP3   OH212141   6.658   2.916   5.235
 4067TIP3    H112142   6.621   2.860   5.167
 4067TIP3    H212143   6.629   2.877   5.317
 4068TIP3   OH212144   8.359   6.611   0.915
 4068TIP3    H112145   8.279   6.628   0.866
 4068TIP3    H212146   8.370   6.516   0.911
 4069TIP3   OH212147   7.862   2.096   0.529
 4069TIP3    H112148   7.917   2.083   0.607
 4069TIP3    H212149   7.818   2.180   0.545
 4070TIP3   OH212150   4.852   4.888   0.264
 4070TIP3    H112151   4.868   4.907   0.172
 4070TIP3    H212152   4.888   4.800   0.276
 4071TIP3   OH212153   7.998   1.503   4.426
 4071TIP3    H112154   8.079   1.455   4.441
 4071TIP3    H212155   7.995   1.517   4.332
 4072TIP3   OH212156   2.306   6.983   5.457
 4072TIP3    H112157   2.394   6.966   5.491
 4072TIP3    H212158   2.294   7.077   5.470
 4073TIP3   OH212159   2.902   1.873   2.240
 4073TIP3    H112160   2.930   1.877   2.332
 4073TIP3    H212161   2.814   1.910   2.241
 4074TIP3   OH212162   6.644   0.830   1.896
 4074TIP3    H112163   6.671   0.759   1.954
 4074TIP3    H212164   6.719   0.889   1.892
 4075TIP3   OH212165   5.139   7.054   0.112
 4075TIP3    H112166   5.153   7.040   0.206
 4075TIP3    H212167   5.124   7.148   0.103
 4076TIP3   OH212168   5.628   4.140   2.413
 4076TIP3    H112169   5.582   4.158   2.495
 4076TIP3    H212170   5.598   4.053   2.387
 4077TIP3   OH212171   0.208   1.781   4.279
 4077TIP3    H112172   0.176   1.823   4.199
 4077TIP3    H212173   0.160   1.698   4.283
 4078TIP3   OH212174   0.746   3.305   4.097
 4078TIP3    H112175   0.808   3.300   4.170
 4078TIP3    H212176   0.758   3.222   4.050
 4079TIP3   OH212177   6.825   3.169   1.834
 4079TIP3    H112178   6.840   3.262   1.849
 4079TIP3    H212179   6.901   3.125   1.872
 4080TIP3   OH212180   7.115   0.393   6.561
 4080TIP3    H112181   7.132   0.299   6.549
 4080TIP3    H212182   7.202   0.433   6.551
 4081TIP3   OH212183   4.041   0.640   4.188
 4081TIP3    H112184   4.036   0.631   4.284
 4081TIP3    H212185   3.967   0.590   4.155
 4082TIP3   OH212186   4.781   0.680   0.699
 4082TIP3    H112187   4.797   0.775   0.700
 4082TIP3    H212188   4.759   0.660   0.790
 4083TIP3   OH212189   7.077   7.191   4.237
 4083TIP3    H112190   6.983   7.174   4.250
 4083TIP3    H212191   7.121   7.120   4.285
 4084TIP3   OH212192   0.348   6.793   3.104
 4084TIP3    H112193   0.269   6.843   3.125
 4084TIP3    H212194   0.330   6.756   3.018
 4085TIP3   OH212195   6.084   3.068   0.521
 4085TIP3    H112196   6.087   3.156   0.557
 4085TIP3    H212197   5.994   3.039   0.535
 4086TIP3   OH212198   2.894   6.627   2.499
 4086TIP3    H112199   2.907   6.679   2.578
 4086TIP3    H212200   2.836   6.680   2.444
 4087TIP3   OH212201   5.786   2.595   5.060
 4087TIP3    H112202   5.821   2.560   4.978
 4087TIP3    H212203   5.758   2.518   5.109
 4088TIP3   OH212204   2.276   4.317   2.040
 4088TIP3    H112205   2.337   4.244   2.034
 4088TIP3    H212206   2.282   4.345   2.132
 4089TIP3   OH212207   3.100   2.474   6.162
 4089TIP3    H112208   3.082   2.547   6.220
 4089TIP3    H212209   3.195   2.461   6.169
 4090TIP3   OH212210   6.853   3.384   6.579
 4090TIP3    H112211   6.855   3.473   6.614
 4090TIP3    H212212   6.910   3.334   6.638
 4091TIP3   OH212213   0.631   5.907   6.031
 4091TIP3    H112214   0.581   5.865   5.961
 4091TIP3    H212215   0.719   5.919   5.994
 4092TIP3   OH212216   3.110   1.287   1.670
 4092TIP3    H112217   3.191   1.289   1.722
 4092TIP3    H212218   3.042   1.317   1.730
 4093TIP3   OH212219   1.842   6.264   0.601
 4093TIP3    H112220   1.904   6.257   0.673
 4093TIP3    H212221   1.855   6.353   0.566
 4094TIP3   OH212222   3.361   3.089   4.306
 4094TIP3    H112223   3.392   3.020   4.247
 4094TIP3    H212224   3.284   3.125   4.262
 4095TIP3   OH212225   2.942   5.264   4.654
 4095TIP3    H112226   2.937   5.356   4.628
 4095TIP3    H212227   3.036   5.247   4.664
 4096TIP3   OH212228   5.672   0.273   6.381
 4096TIP3    H112229   5.586   0.306   6.358
 4096TIP3    H212230   5.680   0.288   6.475
 4097TIP3   OH212231   3.541   5.900   5.838
 4097TIP3    H112232   3.508   5.990   5.838
 4097TIP3    H212233   3.468   5.847   5.808
 4098TIP3   OH212234   8.335   5.843   6.507
 4098TIP3    H112235   8.428   5.866   6.518
 4098TIP3    H212236   8.313   5.794   6.586
 4099TIP3   OH212237   5.095   6.209   4.922
 4099TIP3    H112238   5.105   6.120   4.955
 4099TIP3    H212239   5.074   6.199   4.829
 4100TIP3   OH212240   4.638   3.198   4.342
 4100TIP3    H112241   4.614   3.124   4.398
 4100TIP3    H212242   4.629   3.275   4.399
 4101TIP3   OH212243   3.995   2.081   0.282
 4101TIP3    H112244   3.967   2.018   0.216
 4101TIP3    H212245   4.025   2.157   0.231
 4102TIP3   OH212246   0.317   5.080   5.571
 4102TIP3    H112247   0.355   5.077   5.483
 4102TIP3    H212248   0.290   5.171   5.582
 4103TIP3   OH212249   3.678   7.298   4.762
 4103TIP3    H112250   3.590   7.333   4.778
 4103TIP3    H212251   3.665   7.204   4.750
 4104TIP3   OH212252   7.803   2.575   0.398
 4104TIP3    H112253   7.735   2.607   0.339
 4104TIP3    H212254   7.794   2.480   0.394
 4105TIP3   OH212255   5.350   2.203   6.721
 4105TIP3    H112256   5.324   2.294   6.713
 4105TIP3    H212257   5.320   2.177   6.808
 4106TIP3   OH212258   5.466   4.156   0.151
 4106TIP3    H112259   5.550   4.170   0.195
 4106TIP3    H212260   5.461   4.061   0.139
 4107TIP3   OH212261   0.404   0.644   4.896
 4107TIP3    H112262   0.417   0.616   4.987
 4107TIP3    H212263   0.479   0.608   4.849
 4108TIP3   OH212264   0.285   1.452   4.777
 4108TIP3    H112265   0.347   1.393   4.820
 4108TIP3    H212266   0.321   1.539   4.792
 4109TIP3   OH212267   2.792   3.707   1.523
 4109TIP3    H112268   2.784   3.750   1.609
 4109TIP3    H212269   2.868   3.749   1.483
 4110TIP3   OH212270   3.720   4.101   3.806
 4110TIP3    H112271   3.757   4.189   3.804
 4110TIP3    H212272   3.700   4.081   3.714
 4111TIP3   OH212273   5.211   3.626   5.521
 4111TIP3    H112274   5.274   3.638   5.449
 4111TIP3    H212275   5.148   3.697   5.509
 4112TIP3   OH212276   5.862   1.561   4.785
 4112TIP3    H112277   5.832   1.651   4.795
 4112TIP3    H212278   5.832   1.534   4.698
 4113TIP3   OH212279   5.790   6.241   4.122
 4113TIP3    H112280   5.744   6.161   4.097
 4113TIP3    H212281   5.776   6.249   4.216
 4114TIP3   OH212282   3.537   3.031   3.822
 4114TIP3    H112283   3.552   2.971   3.749
 4114TIP3    H212284   3.526   3.117   3.780
 4115TIP3   OH212285   7.969   7.943   1.411
 4115TIP3    H112286   7.964   7.934   1.506
 4115TIP3    H212287   8.036   7.880   1.384
 4116TIP3   OH212288   4.313   5.294   3.916
 4116TIP3    H112289   4.230   5.335   3.894
 4116TIP3    H212290   4.379   5.350   3.875
 4117TIP3   OH212291   2.731   7.003   6.485
 4117TIP3    H112292   2.736   7.041   6.397
 4117TIP3    H212293   2.660   6.939   6.481
 4118TIP3   OH212294   1.442   6.493   6.308
 4118TIP3    H112295   1.461   6.416   6.254
 4118TIP3    H212296   1.347   6.496   6.314
 4119TIP3   OH212297   0.640   2.658   2.620
 4119TIP3    H112298   0.702   2.654   2.547
 4119TIP3    H212299   0.693   2.678   2.697
 4120TIP3   OH212300   2.408   5.621   0.169
 4120TIP3    H112301   2.498   5.590   0.174
 4120TIP3    H212302   2.383   5.638   0.260
 4121TIP3   OH212303   1.729   7.783   6.568
 4121TIP3    H112304   1.644   7.825   6.580
 4121TIP3    H212305   1.754   7.752   6.655
 4122TIP3   OH212306   4.529   0.166   2.080
 4122TIP3    H112307   4.480   0.177   1.998
 4122TIP3    H212308   4.469   0.117   2.137
 4123TIP3   OH212309   1.446   1.563   4.504
 4123TIP3    H112310   1.355   1.538   4.522
 4123TIP3    H212311   1.440   1.649   4.464
 4124TIP3   OH212312   1.458   1.131   3.131
 4124TIP3    H112313   1.507   1.201   3.087
 4124TIP3    H212314   1.522   1.062   3.145
 4125TIP3   OH212315   8.046   7.204   1.152
 4125TIP3    H112316   8.009   7.133   1.205
 4125TIP3    H212317   8.118   7.238   1.205
 4126TIP3   OH212318   1.581   1.538   1.067
 4126TIP3    H112319   1.570   1.485   1.147
 4126TIP3    H212320   1.643   1.488   1.014
 4127TIP3   OH212321   0.140   1.610   6.219
 4127TIP3    H112322   0.078   1.673   6.254
 4127TIP3    H212323   0.219   1.661   6.201
 4128TIP3   OH212324   3.850   6.091   3.689
 4128TIP3    H112325   3.856   6.087   3.593
 4128TIP3    H212326   3.761   6.062   3.709
 4129TIP3   OH212327   4.569   6.027   1.324
 4129TIP3    H112328   4.523   6.010   1.242
 4129TIP3    H212329   4.559   5.945   1.374
 4130TIP3   OH212330   8.313   4.307   5.485
 4130TIP3    H112331   8.225   4.296   5.521
 4130TIP3    H212332   8.303   4.299   5.391
 4131TIP3   OH212333   1.934   6.763   0.793
 4131TIP3    H112334   2.010   6.742   0.847
 4131TIP3    H212335   1.867   6.701   0.819
 4132TIP3   OH212336   0.090   2.525   6.749
 4132TIP3    H112337   0.022   2.593   6.749
 4132TIP3    H212338   0.093   2.495   6.840
 4133TIP3   OH212339   0.486   3.755   4.927
 4133TIP3    H112340   0.553   3.798   4.874
 4133TIP3    H212341   0.404   3.775   4.884
 4134TIP3   OH212342   8.394   4.602   3.840
 4134TIP3    H112343   8.419   4.656   3.914
 4134TIP3    H212344   8.349   4.527   3.879
 4135TIP3   OH212345   6.117   5.727   5.360
 4135TIP3    H112346   6.028   5.745   5.331
 4135TIP3    H212347   6.170   5.734   5.281
 4136TIP3   OH212348   2.771   2.566   4.761
 4136TIP3    H112349   2.690   2.602   4.723
 4136TIP3    H212350   2.841   2.617   4.720
 4137TIP3   OH212351   3.841   5.419   4.690
 4137TIP3    H112352   3.852   5.345   4.631
 4137TIP3    H212353   3.764   5.398   4.741
 4138TIP3   OH212354   8.059   5.276   1.710
 4138TIP3    H112355   8.002   5.348   1.737
 4138TIP3    H212356   8.147   5.315   1.706
 4139TIP3   OH212357   7.280   3.122   5.563
 4139TIP3    H112358   7.215   3.192   5.552
 4139TIP3    H212359   7.327   3.119   5.480
 4140TIP3   OH212360   3.124   7.655   5.617
 4140TIP3    H112361   3.142   7.699   5.533
 4140TIP3    H212362   3.155   7.566   5.604
 4141TIP3   OH212363   6.210   6.988   1.319
 4141TIP3    H112364   6.272   7.017   1.385
 4141TIP3    H212365   6.217   7.052   1.249
 4142TIP3   OH212366   6.510   1.509   5.702
 4142TIP3    H112367   6.463   1.517   5.619
 4142TIP3    H212368   6.541   1.597   5.721
 4143TIP3   OH212369   2.749   6.562   0.786
 4143TIP3    H112370   2.746   6.534   0.694
 4143TIP3    H212371   2.657   6.566   0.813
 4144TIP3   OH212372   4.024   4.135   1.662
 4144TIP3    H112373   4.001   4.155   1.752
 4144TIP3    H212374   4.007   4.041   1.653
 4145TIP3   OH212375   0.040   5.758   3.346
 4145TIP3    H112376   0.116   5.724   3.392
 4145TIP3    H212377   0.057   5.852   3.337
 4146TIP3   OH212378   0.368   0.377   5.259
 4146TIP3    H112379   0.428   0.314   5.221
 4146TIP3    H212380   0.282   0.351   5.226
 4147TIP3   OH212381   0.088   1.576   3.227
 4147TIP3    H112382   0.010   1.624   3.202
 4147TIP3    H212383   0.055   1.494   3.264
 4148TIP3   OH212384   4.341   6.183   2.815
 4148TIP3    H112385   4.274   6.236   2.771
 4148TIP3    H212386   4.407   6.167   2.749
 4149TIP3   OH212387   3.127   4.614   1.352
 4149TIP3    H112388   3.063   4.620   1.281
 4149TIP3    H212389   3.172   4.699   1.351
 4150TIP3   OH212390   5.721   7.529   0.914
 4150TIP3    H112391   5.637   7.573   0.910
 4150TIP3    H212392   5.748   7.535   1.005
 4151TIP3   OH212393   0.386   7.282   5.282
 4151TIP3    H112394   0.393   7.267   5.377
 4151TIP3    H212395   0.456   7.344   5.263
 4152TIP3   OH212396   1.133   2.657   3.525
 4152TIP3    H112397   1.046   2.660   3.566
 4152TIP3    H212398   1.140   2.569   3.490
 4153TIP3   OH212399   2.287   1.115   0.320
 4153TIP3    H112400   2.301   1.053   0.249
 4153TIP3    H212401   2.345   1.085   0.390
 4154TIP3   OH212402   3.103   4.467   4.569
 4154TIP3    H112403   3.022   4.515   4.548
 4154TIP3    H212404   3.145   4.520   4.636
 4155TIP3   OH212405   1.558   4.437   5.062
 4155TIP3    H112406   1.539   4.350   5.097
 4155TIP3    H212407   1.503   4.496   5.112
 4156TIP3   OH212408   5.933   3.322   1.679
 4156TIP3    H112409   5.844   3.288   1.671
 4156TIP3    H212410   5.922   3.417   1.672
 4157TIP3   OH212411   0.895   5.521   4.714
 4157TIP3    H112412   0.832   5.555   4.777
 4157TIP3    H212413   0.841   5.482   4.645
 4158TIP3   OH212414   1.535   7.404   4.980
 4158TIP3    H112415   1.592   7.344   4.932
 4158TIP3    H212416   1.592   7.477   5.003
 4159TIP3   OH212417   2.066   7.148   3.256
 4159TIP3    H112418   2.099   7.066   3.218
 4159TIP3    H212419   2.143   7.192   3.289
 4160TIP3   OH212420   1.769   7.392   1.411
 4160TIP3    H112421   1.712   7.422   1.482
 4160TIP3    H212422   1.851   7.439   1.424
 4161TIP3   OH212423   2.980   6.123   5.811
 4161TIP3    H112424   2.945   6.149   5.896
 4161TIP3    H212425   3.036   6.196   5.784
 4162TIP3   OH212426   6.654   1.121   1.151
 4162TIP3    H112427   6.587   1.120   1.083
 4162TIP3    H212428   6.614   1.074   1.224
 4163TIP3   OH212429   2.121   7.782   2.287
 4163TIP3    H112430   2.169   7.865   2.280
 4163TIP3    H212431   2.045   7.794   2.229
 4164TIP3   OH212432   0.529   1.809   1.515
 4164TIP3    H112433   0.463   1.740   1.508
 4164TIP3    H212434   0.488   1.875   1.571
 4165TIP3   OH212435   7.113   6.590   0.879
 4165TIP3    H112436   7.099   6.497   0.860
 4165TIP3    H212437   7.025   6.627   0.887
 4166TIP3   OH212438   0.977   6.246   6.076
 4166TIP3    H112439   0.888   6.233   6.042
 4166TIP3    H212440   1.014   6.315   6.019
 4167TIP3   OH212441   4.199   5.103   6.855
 4167TIP3    H112442   4.180   5.027   6.800
 4167TIP3    H212443   4.258   5.157   6.803
 4168TIP3   OH212444   4.968   0.697   5.378
 4168TIP3    H112445   4.978   0.662   5.467
 4168TIP3    H212446   5.052   0.681   5.337
 4169TIP3   OH212447   1.258   3.485   0.564
 4169TIP3    H112448   1.332   3.425   0.570
 4169TIP3    H212449   1.197   3.442   0.504
 4170TIP3   OH212450   2.528   4.391   4.681
 4170TIP3    H112451   2.500   4.395   4.772
 4170TIP3    H212452   2.527   4.482   4.652
 4171TIP3   OH212453   8.314   5.625   3.909
 4171TIP3    H112454   8.291   5.707   3.866
 4171TIP3    H212455   8.236   5.570   3.899
 4172TIP3   OH212456   3.242   5.727   4.424
 4172TIP3    H112457   3.185   5.728   4.500
 4172TIP3    H212458   3.203   5.790   4.364
 4173TIP3   OH212459   7.965   2.497   5.010
 4173TIP3    H112460   7.882   2.500   5.058
 4173TIP3    H212461   7.938   2.481   4.919
 4174TIP3   OH212462   2.172   5.037   1.737
 4174TIP3    H112463   2.222   5.116   1.757
 4174TIP3    H212464   2.205   5.009   1.652
 4175TIP3   OH212465   2.096   0.556   6.410
 4175TIP3    H112466   2.187   0.586   6.409
 4175TIP3    H212467   2.073   0.554   6.503
 4176TIP3   OH212468   7.619   6.843   6.588
 4176TIP3    H112469   7.584   6.762   6.551
 4176TIP3    H212470   7.700   6.858   6.540
 4177TIP3   OH212471   0.748   0.147   1.971
 4177TIP3    H112472   0.703   0.079   1.921
 4177TIP3    H212473   0.824   0.103   2.009
 4178TIP3   OH212474   3.171   2.311   1.276
 4178TIP3    H112475   3.204   2.397   1.303
 4178TIP3    H212476   3.176   2.312   1.180
 4179TIP3   OH212477   0.470   6.022   3.065
 4179TIP3    H112478   0.501   5.999   2.977
 4179TIP3    H212479   0.466   5.938   3.111
 4180TIP3   OH212480   7.760   0.045   1.960
 4180TIP3    H112481   7.705  -0.033   1.959
 4180TIP3    H212482   7.845   0.016   1.927
 4181TIP3   OH212483   6.926   6.678   0.588
 4181TIP3    H112484   6.999   6.737   0.605
 4181TIP3    H212485   6.963   6.591   0.600
 4182TIP3   OH212486   7.595   5.502   5.884
 4182TIP3    H112487   7.636   5.433   5.936
 4182TIP3    H212488   7.630   5.489   5.796
 4183TIP3   OH212489   3.437   7.300   6.123
 4183TIP3    H112490   3.451   7.250   6.204
 4183TIP3    H212491   3.407   7.235   6.060
 4184TIP3   OH212492   0.275   3.096   5.296
 4184TIP3    H112493   0.188   3.118   5.263
 4184TIP3    H212494   0.287   3.003   5.274
 4185TIP3   OH212495   6.476   3.962   0.164
 4185TIP3    H112496   6.497   3.910   0.241
 4185TIP3    H212497   6.396   4.010   0.188
 4186TIP3   OH212498   0.127   0.593   1.116
 4186TIP3    H112499   0.093   0.557   1.034
 4186TIP3    H212500   0.187   0.526   1.149
 4187TIP3   OH212501   2.508   7.687   5.793
 4187TIP3    H112502   2.467   7.774   5.795
 4187TIP3    H212503   2.550   7.679   5.878
 4188TIP3   OH212504   1.399   2.503   0.832
 4188TIP3    H112505   1.377   2.586   0.875
 4188TIP3    H212506   1.368   2.436   0.893
 4189TIP3   OH212507   2.257   3.750   6.070
 4189TIP3    H112508   2.307   3.813   6.122
 4189TIP3    H212509   2.212   3.803   6.005
 4190TIP3   OH212510   6.355   4.360   4.189
 4190TIP3    H112511   6.444   4.360   4.223
 4190TIP3    H212512   6.332   4.453   4.183
 4191TIP3   OH212513   7.198   2.654   5.659
 4191TIP3    H112514   7.120   2.635   5.712
 4191TIP3    H212515   7.162   2.690   5.578
 4192TIP3   OH212516   1.945   2.698   0.648
 4192TIP3    H112517   1.902   2.748   0.579
 4192TIP3    H212518   1.901   2.725   0.729
 4193TIP3   OH212519   7.421   6.009   3.656
 4193TIP3    H112520   7.397   6.032   3.746
 4193TIP3    H212521   7.426   5.914   3.655
 4194TIP3   OH212522   6.201   6.150   4.723
 4194TIP3    H112523   6.225   6.153   4.631
 4194TIP3    H212524   6.105   6.145   4.723
 4195TIP3   OH212525   7.712   6.197   5.414
 4195TIP3    H112526   7.748   6.284   5.397
 4195TIP3    H212527   7.618   6.212   5.423
 4196TIP3   OH212528   1.413   3.972   2.756
 4196TIP3    H112529   1.346   3.998   2.693
 4196TIP3    H212530   1.481   4.039   2.748
 4197TIP3   OH212531   1.289   5.295   1.080
 4197TIP3    H112532   1.332   5.253   1.005
 4197TIP3    H212533   1.326   5.250   1.157
 4198TIP3   OH212534   7.309   7.143   6.822
 4198TIP3    H112535   7.233   7.177   6.775
 4198TIP3    H212536   7.352   7.220   6.858
 4199TIP3   OH212537   3.777   4.770   6.180
 4199TIP3    H112538   3.752   4.684   6.214
 4199TIP3    H212539   3.782   4.757   6.085
 4200TIP3   OH212540   4.064   6.734   1.992
 4200TIP3    H112541   4.068   6.731   1.897
 4200TIP3    H212542   4.150   6.768   2.019
 4201TIP3   OH212543   8.295   2.052   1.174
 4201TIP3    H112544   8.295   2.086   1.085
 4201TIP3    H212545   8.333   1.964   1.167
 4202TIP3   OH212546   1.101   6.377   1.553
 4202TIP3    H112547   1.140   6.296   1.520
 4202TIP3    H212548   1.010   6.353   1.571
 4203TIP3   OH212549   3.262   4.391   3.302
 4203TIP3    H112550   3.170   4.378   3.323
 4203TIP3    H212551   3.262   4.442   3.221
 4204TIP3   OH212552   1.811   3.170   1.432
 4204TIP3    H112553   1.756   3.110   1.482
 4204TIP3    H212554   1.883   3.116   1.400
 4205TIP3   OH212555   5.344   1.164   1.222
 4205TIP3    H112556   5.384   1.233   1.274
 4205TIP3    H212557   5.415   1.102   1.205
 4206TIP3   OH212558   2.286   5.568   4.434
 4206TIP3    H112559   2.206   5.622   4.437
 4206TIP3    H212560   2.288   5.524   4.519
 4207TIP3   OH212561   5.221   4.973   3.157
 4207TIP3    H112562   5.233   4.963   3.062
 4207TIP3    H212563   5.204   4.885   3.189
 4208TIP3   OH212564   1.518   4.711   4.108
 4208TIP3    H112565   1.495   4.622   4.082
 4208TIP3    H212566   1.508   4.712   4.203
 4209TIP3   OH212567   6.264   2.106   6.800
 4209TIP3    H112568   6.198   2.098   6.731
 4209TIP3    H212569   6.340   2.146   6.756
 4210TIP3   OH212570   6.737   5.764   5.941
 4210TIP3    H112571   6.761   5.783   6.032
 4210TIP3    H212572   6.648   5.798   5.931
 4211TIP3   OH212573   4.332   6.797   4.639
 4211TIP3    H112574   4.389   6.742   4.693
 4211TIP3    H212575   4.365   6.886   4.654
 4212TIP3   OH212576   5.852   2.403   0.854
 4212TIP3    H112577   5.841   2.480   0.910
 4212TIP3    H212578   5.931   2.422   0.803
 4213TIP3   OH212579   3.264   4.604   0.276
 4213TIP3    H112580   3.318   4.556   0.214
 4213TIP3    H212581   3.176   4.602   0.239
 4214TIP3   OH212582   8.125   2.221   6.813
 4214TIP3    H112583   8.111   2.214   6.907
 4214TIP3    H212584   8.163   2.137   6.788
 4215TIP3   OH212585   0.499   6.402   6.492
 4215TIP3    H112586   0.558   6.413   6.567
 4215TIP3    H212587   0.415   6.377   6.531
 4216TIP3   OH212588   0.832   2.647   2.379
 4216TIP3    H112589   0.835   2.554   2.359
 4216TIP3    H212590   0.924   2.671   2.395
 4217TIP3   OH212591   1.626   7.365   1.170
 4217TIP3    H112592   1.694   7.377   1.236
 4217TIP3    H212593   1.640   7.437   1.108
 4218TIP3   OH212594   6.049   3.023   2.289
 4218TIP3    H112595   6.103   3.088   2.244
 4218TIP3    H212596   5.999   3.073   2.353
 4219TIP3   OH212597   3.498   2.617   6.034
 4219TIP3    H112598   3.563   2.663   5.981
 4219TIP3    H212599   3.442   2.687   6.068
 4220TIP3   OH212600   0.844   0.632   6.273
 4220TIP3    H112601   0.849   0.688   6.195
 4220TIP3    H212602   0.902   0.558   6.254
 4221TIP3   OH212603   3.906   6.992   4.448
 4221TIP3    H112604   3.916   6.914   4.394
 4221TIP3    H212605   3.966   6.979   4.521
 4222TIP3   OH212606   6.875   1.504   6.871
 4222TIP3    H112607   6.924   1.434   6.827
 4222TIP3    H212608   6.901   1.584   6.825
 4223TIP3   OH212609   0.042   1.076   1.970
 4223TIP3    H112610   0.077   1.165   1.966
 4223TIP3    H212611   0.113   1.024   2.006
 4224TIP3   OH212612   5.550   1.449   0.728
 4224TIP3    H112613   5.460   1.420   0.736
 4224TIP3    H212614   5.602   1.369   0.733
 4225TIP3   OH212615   1.974   4.953   3.329
 4225TIP3    H112616   1.980   4.859   3.347
 4225TIP3    H212617   1.885   4.976   3.356
 4226TIP3   OH212618   6.367   6.812   2.237
 4226TIP3    H112619   6.297   6.798   2.173
 4226TIP3    H212620   6.405   6.896   2.212
 4227TIP3   OH212621   8.140   5.585   0.593
 4227TIP3    H112622   8.233   5.572   0.574
 4227TIP3    H212623   8.105   5.497   0.606
 4228TIP3   OH212624   2.778   1.572   0.299
 4228TIP3    H112625   2.800   1.565   0.207
 4228TIP3    H212626   2.687   1.541   0.305
 4229TIP3   OH212627   6.945   3.931   1.799
 4229TIP3    H112628   6.868   3.971   1.758
 4229TIP3    H212629   7.009   4.002   1.804
 4230TIP3   OH212630   1.972   1.326   2.812
 4230TIP3    H112631   1.984   1.414   2.845
 4230TIP3    H212632   1.975   1.270   2.890
 4231TIP3   OH212633   3.812   4.997   5.117
 4231TIP3    H112634   3.817   4.948   5.035
 4231TIP3    H212635   3.739   4.958   5.165
 4232TIP3   OH212636   6.775   4.347   6.007
 4232TIP3    H112637   6.778   4.344   6.103
 4232TIP3    H212638   6.851   4.296   5.979
 4233TIP3   OH212639   4.353   3.625   3.792
 4233TIP3    H112640   4.276   3.665   3.832
 4233TIP3    H212641   4.319   3.559   3.732
 4234TIP3   OH212642   0.298   2.566   4.035
 4234TIP3    H112643   0.294   2.565   3.939
 4234TIP3    H212644   0.266   2.479   4.061
 4235TIP3   OH212645   4.942   4.558   1.493
 4235TIP3    H112646   4.924   4.648   1.468
 4235TIP3    H212647   4.946   4.560   1.588
 4236TIP3   OH212648   2.571   6.853   0.856
 4236TIP3    H112649   2.496   6.864   0.914
 4236TIP3    H212650   2.647   6.873   0.911
 4237TIP3   OH212651   3.521   1.049   5.715
 4237TIP3    H112652   3.426   1.038   5.703
 4237TIP3    H212653   3.544   0.981   5.778
 4238TIP3   OH212654   7.220   2.363   2.965
 4238TIP3    H112655   7.267   2.323   3.039
 4238TIP3    H212656   7.129   2.370   2.996
 4239TIP3   OH212657   6.977   3.474   4.582
 4239TIP3    H112658   7.007   3.401   4.527
 4239TIP3    H212659   7.057   3.522   4.604
 4240TIP3   OH212660   4.014   5.742   4.838
 4240TIP3    H112661   3.931   5.752   4.791
 4240TIP3    H212662   4.076   5.796   4.789
 4241TIP3   OH212663   1.278   6.404   6.091
 4241TIP3    H112664   1.212   6.406   6.022
 4241TIP3    H212665   1.341   6.472   6.066
 4242TIP3   OH212666   6.797   7.214   2.846
 4242TIP3    H112667   6.840   7.144   2.798
 4242TIP3    H212668   6.779   7.282   2.781
 4243TIP3   OH212669   1.893   0.530   4.354
 4243TIP3    H112670   1.814   0.563   4.312
 4243TIP3    H212671   1.939   0.482   4.285
 4244TIP3   OH212672   8.195   1.608   1.704
 4244TIP3    H112673   8.277   1.573   1.669
 4244TIP3    H212674   8.133   1.535   1.697
 4245TIP3   OH212675   0.243   2.583   0.731
 4245TIP3    H112676   0.290   2.513   0.776
 4245TIP3    H212677   0.305   2.617   0.668
 4246TIP3   OH212678   4.279   2.711   3.642
 4246TIP3    H112679   4.257   2.682   3.730
 4246TIP3    H212680   4.273   2.632   3.588
 4247TIP3   OH212681   5.801   7.846   0.958
 4247TIP3    H112682   5.863   7.773   0.965
 4247TIP3    H212683   5.788   7.857   0.864
 4248TIP3   OH212684   6.713   3.286   1.274
 4248TIP3    H112685   6.695   3.314   1.184
 4248TIP3    H212686   6.804   3.311   1.289
 4249TIP3   OH212687   1.608   3.472   0.052
 4249TIP3    H112688   1.627   3.545   0.111
 4249TIP3    H212689   1.644   3.500  -0.032
 4250TIP3   OH212690   7.788   7.429   2.987
 4250TIP3    H112691   7.707   7.478   2.992
 4250TIP3    H212692   7.857   7.496   2.987
 4251TIP3   OH212693   6.932   0.649   5.353
 4251TIP3    H112694   6.885   0.655   5.436
 4251TIP3    H212695   6.865   0.668   5.287
 4252TIP3   OH212696   0.269   0.300   6.749
 4252TIP3    H112697   0.192   0.357   6.747
 4252TIP3    H212698   0.312   0.321   6.832
 4253TIP3   OH212699   5.359   2.529   4.798
 4253TIP3    H112700   5.283   2.587   4.806
 4253TIP3    H212701   5.434   2.589   4.801
 4254TIP3   OH212702   0.924   4.285   5.085
 4254TIP3    H112703   1.006   4.267   5.040
 4254TIP3    H212704   0.948   4.293   5.177
 4255TIP3   OH212705   3.455   0.097   6.124
 4255TIP3    H112706   3.418   0.023   6.171
 4255TIP3    H212707   3.426   0.174   6.173
 4256TIP3   OH212708   1.230   0.984   0.664
 4256TIP3    H112709   1.285   1.020   0.734
 4256TIP3    H212710   1.142   0.984   0.701
 4257TIP3   OH212711   2.497   5.108   1.095
 4257TIP3    H112712   2.463   5.047   1.160
 4257TIP3    H212713   2.522   5.185   1.146
 4258TIP3   OH212714   1.370   6.406   2.760
 4258TIP3    H112715   1.326   6.413   2.676
 4258TIP3    H212716   1.461   6.384   2.738
 4259TIP3   OH212717   2.252   3.101   5.085
 4259TIP3    H112718   2.340   3.117   5.118
 4259TIP3    H212719   2.215   3.188   5.070
 4260TIP3   OH212720   5.112   6.575   6.796
 4260TIP3    H112721   5.032   6.538   6.831
 4260TIP3    H212722   5.156   6.501   6.754
 4261TIP3   OH212723   0.434   0.476   2.970
 4261TIP3    H112724   0.493   0.514   3.035
 4261TIP3    H212725   0.369   0.545   2.955
 4262TIP3   OH212726   6.601   4.956   1.074
 4262TIP3    H112727   6.510   4.950   1.045
 4262TIP3    H212728   6.605   5.038   1.123
 4263TIP3   OH212729   3.174   5.928   2.909
 4263TIP3    H112730   3.213   6.011   2.936
 4263TIP3    H212731   3.233   5.861   2.945
 4264TIP3   OH212732   4.024   2.799   0.987
 4264TIP3    H112733   3.986   2.741   0.921
 4264TIP3    H212734   4.070   2.739   1.046
 4265TIP3   OH212735   0.909   5.086   0.709
 4265TIP3    H112736   0.817   5.082   0.735
 4265TIP3    H212737   0.907   5.113   0.617
 4266TIP3   OH212738   0.982   1.948   1.041
 4266TIP3    H112739   0.904   1.897   1.018
 4266TIP3    H212740   1.021   1.971   0.957
 4267TIP3   OH212741   5.493   2.668   6.831
 4267TIP3    H112742   5.565   2.699   6.775
 4267TIP3    H212743   5.447   2.748   6.856
 4268TIP3   OH212744   7.764   3.570   0.182
 4268TIP3    H112745   7.696   3.637   0.187
 4268TIP3    H212746   7.748   3.514   0.257
 4269TIP3   OH212747   4.080   5.398   3.812
 4269TIP3    H112748   4.075   5.492   3.794
 4269TIP3    H212749   4.010   5.359   3.759
 4270TIP3   OH212750   3.470   6.088   0.929
 4270TIP3    H112751   3.439   6.105   0.840
 4270TIP3    H212752   3.541   6.151   0.942
 4271TIP3   OH212753   7.990   6.383   3.681
 4271TIP3    H112754   8.052   6.453   3.701
 4271TIP3    H212755   7.998   6.370   3.587
 4272TIP3   OH212756   2.990   2.491   5.512
 4272TIP3    H112757   3.068   2.462   5.561
 4272TIP3    H212758   2.922   2.501   5.579
 4273TIP3   OH212759   8.271   5.530   2.716
 4273TIP3    H112760   8.199   5.512   2.778
 4273TIP3    H212761   8.327   5.591   2.762
 4274TIP3   OH212762   0.065   5.119   1.830
 4274TIP3    H112763  -0.027   5.142   1.820
 4274TIP3    H212764   0.111   5.203   1.829
 4275TIP3   OH212765   0.165   6.461   6.381
 4275TIP3    H112766   0.251   6.482   6.345
 4275TIP3    H212767   0.120   6.545   6.387
 4276TIP3   OH212768   2.323   3.556   6.258
 4276TIP3    H112769   2.320   3.638   6.208
 4276TIP3    H212770   2.413   3.526   6.249
 4277TIP3   OH212771   6.658   4.943   5.580
 4277TIP3    H112772   6.665   5.037   5.597
 4277TIP3    H212773   6.635   4.905   5.665
 4278TIP3   OH212774   6.494   1.591   5.273
 4278TIP3    H112775   6.574   1.572   5.322
 4278TIP3    H212776   6.514   1.670   5.223
 4279TIP3   OH212777   0.162   6.727   6.797
 4279TIP3    H112778   0.110   6.659   6.753
 4279TIP3    H212779   0.111   6.749   6.875
 4280TIP3   OH212780   0.744   5.399   0.648
 4280TIP3    H112781   0.738   5.404   0.552
 4280TIP3    H212782   0.653   5.400   0.678
 4281TIP3   OH212783   2.209   0.153   6.453
 4281TIP3    H112784   2.218   0.075   6.398
 4281TIP3    H212785   2.139   0.131   6.514
 4282TIP3   OH212786   3.647   5.127   4.832
 4282TIP3    H112787   3.689   5.204   4.871
 4282TIP3    H212788   3.659   5.058   4.898
 4283TIP3   OH212789   4.335   7.169   3.330
 4283TIP3    H112790   4.276   7.098   3.304
 4283TIP3    H212791   4.302   7.245   3.282
 4284TIP3   OH212792   4.946   6.205   6.696
 4284TIP3    H112793   4.882   6.207   6.625
 4284TIP3    H212794   5.031   6.211   6.652
 4285TIP3   OH212795   5.683   5.547   3.775
 4285TIP3    H112796   5.760   5.588   3.814
 4285TIP3    H212797   5.645   5.615   3.719
 4286TIP3   OH212798   6.688   1.450   1.096
 4286TIP3    H112799   6.770   1.443   1.145
 4286TIP3    H212800   6.620   1.426   1.159
 4287TIP3   OH212801   5.905   4.998   6.376
 4287TIP3    H112802   5.934   5.031   6.290
 4287TIP3    H212803   5.926   4.905   6.374
 4288TIP3   OH212804   1.836   1.075   1.066
 4288TIP3    H112805   1.803   1.005   1.009
 4288TIP3    H212806   1.887   1.131   1.008
 4289TIP3   OH212807   5.207   1.511   3.853
 4289TIP3    H112808   5.159   1.482   3.931
 4289TIP3    H212809   5.299   1.510   3.880
 4290TIP3   OH212810   5.775   1.393   6.707
 4290TIP3    H112811   5.729   1.464   6.754
 4290TIP3    H212812   5.867   1.418   6.711
 4291TIP3   OH212813   4.947   3.946   6.189
 4291TIP3    H112814   5.032   3.902   6.200
 4291TIP3    H212815   4.950   3.983   6.101
 4292TIP3   OH212816   1.473   3.182   6.189
 4292TIP3    H112817   1.562   3.215   6.205
 4292TIP3    H212818   1.415   3.252   6.221
 4293TIP3   OH212819   4.906   3.674   0.298
 4293TIP3    H112820   4.861   3.659   0.215
 4293TIP3    H212821   4.997   3.692   0.273
 4294TIP3   OH212822   4.981   5.612   4.804
 4294TIP3    H112823   4.929   5.573   4.734
 4294TIP3    H212824   4.978   5.706   4.786
 4295TIP3   OH212825   5.095   4.194   0.960
 4295TIP3    H112826   5.053   4.260   1.015
 4295TIP3    H212827   5.178   4.175   1.005
 4296TIP3   OH212828   1.128   5.276   5.340
 4296TIP3    H112829   1.072   5.198   5.346
 4296TIP3    H212830   1.166   5.284   5.427
 4297TIP3   OH212831   1.837   3.931   5.637
 4297TIP3    H112832   1.885   3.878   5.573
 4297TIP3    H212833   1.745   3.913   5.618
 4298TIP3   OH212834   5.698   5.755   1.186
 4298TIP3    H112835   5.774   5.810   1.203
 4298TIP3    H212836   5.641   5.767   1.262
 4299TIP3   OH212837   1.410   6.577   5.205
 4299TIP3    H112838   1.344   6.620   5.260
 4299TIP3    H212839   1.493   6.604   5.244
 4300TIP3   OH212840   2.072   2.295   4.080
 4300TIP3    H112841   2.060   2.316   4.173
 4300TIP3    H212842   2.128   2.365   4.047
 4301TIP3   OH212843   6.392   1.569   3.556
 4301TIP3    H112844   6.310   1.590   3.510
 4301TIP3    H212845   6.380   1.606   3.643
 4302TIP3   OH212846   6.444   5.477   1.305
 4302TIP3    H112847   6.540   5.475   1.314
 4302TIP3    H212848   6.412   5.478   1.395
 4303TIP3   OH212849   7.518   1.346   1.007
 4303TIP3    H112850   7.593   1.309   1.053
 4303TIP3    H212851   7.447   1.283   1.023
 4304TIP3   OH212852   2.391   5.296   2.696
 4304TIP3    H112853   2.385   5.278   2.790
 4304TIP3    H212854   2.337   5.228   2.655
 4305TIP3   OH212855   4.537   4.343   2.478
 4305TIP3    H112856   4.541   4.413   2.412
 4305TIP3    H212857   4.579   4.268   2.436
 4306TIP3   OH212858   3.199   4.718   1.917
 4306TIP3    H112859   3.120   4.741   1.967
 4306TIP3    H212860   3.180   4.747   1.828
 4307TIP3   OH212861   5.361   2.339   1.214
 4307TIP3    H112862   5.374   2.434   1.206
 4307TIP3    H212863   5.450   2.303   1.218
 4308TIP3   OH212864   6.528   3.277   0.941
 4308TIP3    H112865   6.441   3.249   0.969
 4308TIP3    H212866   6.535   3.249   0.850
 4309TIP3   OH212867   6.237   4.855   1.670
 4309TIP3    H112868   6.144   4.862   1.647
 4309TIP3    H212869   6.237   4.851   1.766
 4310TIP3   OH212870   0.757   6.982   4.989
 4310TIP3    H112871   0.733   7.037   5.063
 4310TIP3    H212872   0.728   7.032   4.912
 4311TIP3   OH212873   5.465   5.222   1.538
 4311TIP3    H112874   5.462   5.248   1.630
 4311TIP3    H212875   5.441   5.129   1.539
 4312TIP3   OH212876   7.319   6.359   6.133
 4312TIP3    H112877   7.280   6.272   6.133
 4312TIP3    H212878   7.247   6.417   6.107
 4313TIP3   OH212879   6.200   7.246   4.797
 4313TIP3    H112880   6.165   7.334   4.805
 4313TIP3    H212881   6.285   7.257   4.755
 4314TIP3   OH212882   2.480   5.840   4.211
 4314TIP3    H112883   2.386   5.838   4.192
 4314TIP3    H212884   2.505   5.931   4.194
 4315TIP3   OH212885   3.540   4.601   2.387
 4315TIP3    H112886   3.504   4.655   2.317
 4315TIP3    H212887   3.511   4.512   2.367
 4316TIP3   OH212888   3.312   1.833   0.904
 4316TIP3    H112889   3.279   1.833   0.814
 4316TIP3    H212890   3.322   1.740   0.926
 4317TIP3   OH212891   2.793   3.810   4.424
 4317TIP3    H112892   2.888   3.804   4.433
 4317TIP3    H212893   2.768   3.887   4.476
 4318TIP3   OH212894   3.173   7.543   1.788
 4318TIP3    H112895   3.200   7.452   1.805
 4318TIP3    H212896   3.175   7.551   1.693
 4319TIP3   OH212897   3.981   5.502   0.385
 4319TIP3    H112898   3.960   5.554   0.463
 4319TIP3    H212899   4.074   5.481   0.394
 4320TIP3   OH212900   7.279   3.648   0.576
 4320TIP3    H112901   7.219   3.667   0.648
 4320TIP3    H212902   7.332   3.727   0.567
 4321TIP3   OH212903   2.663   1.437   6.735
 4321TIP3    H112904   2.572   1.423   6.762
 4321TIP3    H212905   2.715   1.409   6.810
 4322TIP3   OH212906   2.379   1.637   5.582
 4322TIP3    H112907   2.406   1.725   5.555
 4322TIP3    H212908   2.304   1.652   5.640
 4323TIP3   OH212909   5.782   1.242   1.278
 4323TIP3    H112910   5.722   1.245   1.204
 4323TIP3    H212911   5.769   1.326   1.323
 4324TIP3   OH212912   6.901   6.974   3.220
 4324TIP3    H112913   6.845   6.927   3.283
 4324TIP3    H212914   6.873   6.941   3.135
 4325TIP3   OH212915   5.244   2.979   4.992
 4325TIP3    H112916   5.218   3.039   5.062
 4325TIP3    H212917   5.319   3.021   4.950
 4326TIP3   OH212918   4.882   3.134   3.963
 4326TIP3    H112919   4.964   3.109   4.008
 4326TIP3    H212920   4.856   3.215   4.006
 4327TIP3   OH212921   0.306   4.131   0.929
 4327TIP3    H112922   0.238   4.063   0.923
 4327TIP3    H212923   0.379   4.095   0.880
 4328TIP3   OH212924   5.244   1.705   6.240
 4328TIP3    H112925   5.279   1.668   6.321
 4328TIP3    H212926   5.314   1.759   6.205
 4329TIP3   OH212927   0.939   5.593   1.977
 4329TIP3    H112928   0.986   5.585   2.061
 4329TIP3    H212929   0.878   5.520   1.977
 4330TIP3   OH212930   5.287   5.859   2.100
 4330TIP3    H112931   5.268   5.858   2.006
 4330TIP3    H212932   5.358   5.796   2.111
 4331TIP3   OH212933   2.258   3.741   5.658
 4331TIP3    H112934   2.268   3.835   5.645
 4331TIP3    H212935   2.340   3.703   5.624
 4332TIP3   OH212936   8.331   2.407   6.089
 4332TIP3    H112937   8.266   2.459   6.041
 4332TIP3    H212938   8.292   2.394   6.175
 4333TIP3   OH212939   1.282   0.390   4.301
 4333TIP3    H112940   1.263   0.424   4.213
 4333TIP3    H212941   1.222   0.438   4.358
 4334TIP3   OH212942   4.221   4.092   5.180
 4334TIP3    H112943   4.169   4.172   5.173
 4334TIP3    H212944   4.156   4.022   5.179
 4335TIP3   OH212945   3.470   3.964   5.548
 4335TIP3    H112946   3.561   3.991   5.537
 4335TIP3    H212947   3.421   4.047   5.547
 4336TIP3   OH212948   0.374   2.615   2.989
 4336TIP3    H112949   0.401   2.599   2.898
 4336TIP3    H212950   0.280   2.634   2.982
 4337TIP3   OH212951   5.635   1.506   1.248
 4337TIP3    H112952   5.552   1.458   1.250
 4337TIP3    H212953   5.647   1.531   1.157
 4338TIP3   OH212954   7.972   4.060   0.961
 4338TIP3    H112955   7.904   4.045   1.026
 4338TIP3    H212956   8.021   3.977   0.959
 4339TIP3   OH212957   7.604   7.784   5.617
 4339TIP3    H112958   7.627   7.691   5.609
 4339TIP3    H212959   7.546   7.801   5.543
 4340TIP3   OH212960   2.309   1.358   3.325
 4340TIP3    H112961   2.306   1.396   3.412
 4340TIP3    H212962   2.350   1.272   3.337
 4341TIP3   OH212963   6.536   2.906   4.521
 4341TIP3    H112964   6.590   2.982   4.495
 4341TIP3    H212965   6.557   2.839   4.456
 4342TIP3   OH212966   3.251   3.712   4.710
 4342TIP3    H112967   3.313   3.784   4.717
 4342TIP3    H212968   3.296   3.646   4.657
 4343TIP3   OH212969   7.162   5.024   6.374
 4343TIP3    H112970   7.238   5.016   6.432
 4343TIP3    H212971   7.092   4.978   6.419
 4344TIP3   OH212972   4.006   2.229   6.574
 4344TIP3    H112973   3.982   2.143   6.539
 4344TIP3    H212974   3.989   2.222   6.668
 4345TIP3   OH212975   4.328   3.031   4.909
 4345TIP3    H112976   4.240   2.993   4.911
 4345TIP3    H212977   4.331   3.090   4.984
 4346TIP3   OH212978   7.519   1.839   3.750
 4346TIP3    H112979   7.589   1.808   3.808
 4346TIP3    H212980   7.560   1.842   3.663
 4347TIP3   OH212981   6.509   3.732   6.873
 4347TIP3    H112982   6.552   3.671   6.813
 4347TIP3    H212983   6.423   3.747   6.833
 4348TIP3   OH212984   0.080   6.306   0.411
 4348TIP3    H112985   0.081   6.233   0.474
 4348TIP3    H212986   0.059   6.383   0.464
 4349TIP3   OH212987   4.199   6.802   5.704
 4349TIP3    H112988   4.256   6.828   5.631
 4349TIP3    H212989   4.129   6.752   5.662
 4350TIP3   OH212990   2.045   4.050   6.694
 4350TIP3    H112991   2.053   3.956   6.678
 4350TIP3    H212992   2.121   4.072   6.748
 4351TIP3   OH212993   7.398   6.097   1.646
 4351TIP3    H112994   7.461   6.075   1.577
 4351TIP3    H212995   7.437   6.060   1.725
 4352TIP3   OH212996   3.464   2.479   4.067
 4352TIP3    H112997   3.538   2.420   4.056
 4352TIP3    H212998   3.465   2.502   4.160
 4353TIP3   OH212999   1.046   6.815   3.662
 4353TIP3    H113000   0.995   6.867   3.600
 4353TIP3    H213001   0.996   6.734   3.672
 4354TIP3   OH213002   2.438   2.931   0.975
 4354TIP3    H113003   2.383   2.855   0.956
 4354TIP3    H213004   2.519   2.914   0.927
 4355TIP3   OH213005   2.504   2.403   3.091
 4355TIP3    H113006   2.520   2.314   3.125
 4355TIP3    H213007   2.428   2.393   3.034
 4356TIP3   OH213008   5.140   3.341   5.507
 4356TIP3    H113009   5.217   3.322   5.454
 4356TIP3    H213010   5.161   3.422   5.553
 4357TIP3   OH213011   3.846   6.957   5.443
 4357TIP3    H113012   3.767   7.010   5.436
 4357TIP3    H213013   3.855   6.941   5.537
 4358TIP3   OH213014   2.069   3.430   2.186
 4358TIP3    H113015   2.051   3.356   2.128
 4358TIP3    H213016   2.046   3.507   2.134
 4359TIP3   OH213017   6.972   3.363   1.357
 4359TIP3    H113018   7.014   3.329   1.435
 4359TIP3    H213019   7.040   3.414   1.313
 4360TIP3   OH213020   7.078   5.308   6.340
 4360TIP3    H113021   7.069   5.332   6.432
 4360TIP3    H213022   7.091   5.213   6.341
 4361TIP3   OH213023   8.127   2.580   4.212
 4361TIP3    H113024   8.166   2.593   4.298
 4361TIP3    H213025   8.200   2.593   4.151
 4362TIP3   OH213026   7.310   2.973   3.847
 4362TIP3    H113027   7.365   2.915   3.793
 4362TIP3    H213028   7.320   2.940   3.936
 4363TIP3   OH213029   1.646   3.237   2.483
 4363TIP3    H113030   1.677   3.164   2.429
 4363TIP3    H213031   1.647   3.203   2.572
 4364TIP3   OH213032   6.752   1.527   5.355
 4364TIP3    H113033   6.838   1.484   5.353
 4364TIP3    H213034   6.773   1.621   5.361
 4365TIP3   OH213035   1.063   2.399   0.602
 4365TIP3    H113036   1.026   2.385   0.515
 4365TIP3    H213037   1.025   2.481   0.632
 4366TIP3   OH213038   3.761   3.430   3.250
 4366TIP3    H113039   3.706   3.352   3.243
 4366TIP3    H213040   3.725   3.491   3.185
 4367TIP3   OH213041   7.119   1.756   5.480
 4367TIP3    H113042   7.123   1.809   5.400
 4367TIP3    H213043   7.036   1.780   5.520
 4368TIP3   OH213044   1.928   7.418   6.754
 4368TIP3    H113045   1.904   7.452   6.840
 4368TIP3    H213046   2.002   7.361   6.769
 4369TIP3   OH213047   6.088   4.894   6.702
 4369TIP3    H113048   6.062   4.861   6.788
 4369TIP3    H213049   6.162   4.952   6.721
 4370TIP3   OH213050   1.909   4.574   2.089
 4370TIP3    H113051   1.936   4.522   2.014
 4370TIP3    H213052   1.856   4.515   2.142
 4371TIP3   OH213053   3.907   6.659   1.066
 4371TIP3    H113054   3.936   6.567   1.068
 4371TIP3    H213055   3.955   6.697   0.992
 4372TIP3   OH213056   4.229   5.315   0.173
 4372TIP3    H113057   4.238   5.348   0.263
 4372TIP3    H213058   4.145   5.350   0.143
 4373TIP3   OH213059   4.296   2.958   0.744
 4373TIP3    H113060   4.372   3.008   0.716
 4373TIP3    H213061   4.331   2.885   0.796
 4374TIP3   OH213062   1.853   4.202   0.719
 4374TIP3    H113063   1.796   4.148   0.664
 4374TIP3    H213064   1.830   4.292   0.696
 4375TIP3   OH213065   3.687   6.317   1.203
 4375TIP3    H113066   3.754   6.299   1.270
 4375TIP3    H213067   3.626   6.244   1.210
 4376TIP3   OH213068   3.712   2.835   5.126
 4376TIP3    H113069   3.780   2.791   5.178
 4376TIP3    H213070   3.637   2.841   5.185
 4377TIP3   OH213071   4.536   6.697   5.266
 4377TIP3    H113072   4.445   6.703   5.293
 4377TIP3    H213073   4.586   6.723   5.344
 4378TIP3   OH213074   3.310   3.951   4.527
 4378TIP3    H113075   3.353   4.026   4.485
 4378TIP3    H213076   3.258   3.990   4.598
 4379TIP3   OH213077   6.281   6.451   1.358
 4379TIP3    H113078   6.335   6.417   1.428
 4379TIP3    H213079   6.269   6.544   1.380
 4380TIP3   OH213080   3.276   5.297   0.464
 4380TIP3    H113081   3.302   5.314   0.555
 4380TIP3    H213082   3.359   5.291   0.417
 4381TIP3   OH213083   5.661   2.420   4.479
 4381TIP3    H113084   5.694   2.473   4.407
 4381TIP3    H213085   5.652   2.482   4.552
 4382TIP3   OH213086   5.453   5.367   0.343
 4382TIP3    H113087   5.391   5.295   0.333
 4382TIP3    H213088   5.406   5.444   0.311
 4383TIP3   OH213089   1.096   0.800   0.964
 4383TIP3    H113090   1.033   0.799   1.036
 4383TIP3    H213091   1.084   0.716   0.920
 4384TIP3   OH213092   4.347   1.856   4.926
 4384TIP3    H113093   4.259   1.855   4.963
 4384TIP3    H213094   4.382   1.942   4.948
 4385TIP3   OH213095   1.082   7.248   4.862
 4385TIP3    H113096   1.102   7.335   4.829
 4385TIP3    H213097   1.038   7.263   4.946
 4386TIP3   OH213098   1.081   1.750   0.528
 4386TIP3    H113099   1.152   1.814   0.530
 4386TIP3    H213100   1.044   1.758   0.440
 4387TIP3   OH213101   5.890   1.744   0.134
 4387TIP3    H113102   5.833   1.809   0.175
 4387TIP3    H213103   5.904   1.778   0.045
 4388TIP3   OH213104   4.385   2.759   0.941
 4388TIP3    H113105   4.431   2.717   1.014
 4388TIP3    H213106   4.296   2.725   0.945
 4389TIP3   OH213107   3.138   3.594   0.495
 4389TIP3    H113108   3.064   3.575   0.437
 4389TIP3    H213109   3.121   3.542   0.573
 4390TIP3   OH213110   0.096   3.378   6.104
 4390TIP3    H113111   0.015   3.339   6.072
 4390TIP3    H213112   0.080   3.472   6.103
 4391TIP3   OH213113   6.487   3.130   0.198
 4391TIP3    H113114   6.409   3.121   0.253
 4391TIP3    H213115   6.533   3.205   0.234
 4392TIP3   OH213116   7.215   1.972   4.851
 4392TIP3    H113117   7.204   1.916   4.775
 4392TIP3    H213118   7.129   1.975   4.892
 4393TIP3   OH213119   2.318   2.262   6.847
 4393TIP3    H113120   2.269   2.208   6.908
 4393TIP3    H213121   2.306   2.220   6.762
 4394TIP3   OH213122   0.663   1.013   0.950
 4394TIP3    H113123   0.695   0.926   0.924
 4394TIP3    H213124   0.709   1.032   1.032
 4395TIP3   OH213125   5.921   1.376   2.206
 4395TIP3    H113126   5.950   1.307   2.146
 4395TIP3    H213127   6.002   1.408   2.246
 4396TIP3   OH213128   3.146   5.685   4.689
 4396TIP3    H113129   3.068   5.631   4.679
 4396TIP3    H213130   3.201   5.637   4.751
 4397TIP3   OH213131   4.099   2.076   1.576
 4397TIP3    H113132   4.034   2.011   1.550
 4397TIP3    H213133   4.161   2.028   1.631
 4398TIP3   OH213134   6.736   6.110   5.889
 4398TIP3    H113135   6.786   6.190   5.908
 4398TIP3    H213136   6.795   6.039   5.915
 4399TIP3   OH213137   0.288   3.279   4.786
 4399TIP3    H113138   0.326   3.303   4.701
 4399TIP3    H213139   0.331   3.337   4.848
 4400TIP3   OH213140   7.022   2.328   4.497
 4400TIP3    H113141   7.052   2.411   4.535
 4400TIP3    H213142   7.092   2.303   4.437
 4401TIP3   OH213143   1.926   4.001   1.739
 4401TIP3    H113144   1.970   4.060   1.678
 4401TIP3    H213145   1.832   4.014   1.721
 4402TIP3   OH213146   3.898   7.604   0.292
 4402TIP3    H113147   3.952   7.676   0.324
 4402TIP3    H213148   3.960   7.537   0.264
 4403TIP3   OH213149   4.433   1.081   6.475
 4403TIP3    H113150   4.430   1.117   6.563
 4403TIP3    H213151   4.402   1.152   6.419
 4404TIP3   OH213152   5.940   4.551   3.269
 4404TIP3    H113153   5.967   4.585   3.354
 4404TIP3    H213154   6.018   4.560   3.214
 4405TIP3   OH213155   3.180   6.752   2.302
 4405TIP3    H113156   3.127   6.831   2.294
 4405TIP3    H213157   3.136   6.699   2.368
 4406TIP3   OH213158   7.554   0.441   3.299
 4406TIP3    H113159   7.538   0.372   3.235
 4406TIP3    H213160   7.473   0.492   3.301
 4407TIP3   OH213161   7.602   2.569   1.374
 4407TIP3    H113162   7.631   2.495   1.320
 4407TIP3    H213163   7.617   2.540   1.464
 4408TIP3   OH213164   3.564   3.743   3.460
 4408TIP3    H113165   3.621   3.748   3.537
 4408TIP3    H213166   3.621   3.771   3.388
 4409TIP3   OH213167   2.035   3.359   5.165
 4409TIP3    H113168   2.036   3.430   5.100
 4409TIP3    H213169   2.085   3.395   5.239
 4410TIP3   OH213170   6.686   3.117   2.129
 4410TIP3    H113171   6.593   3.116   2.151
 4410TIP3    H213172   6.728   3.071   2.201
 4411TIP3   OH213173   3.819   3.660   1.844
 4411TIP3    H113174   3.736   3.613   1.855
 4411TIP3    H213175   3.886   3.592   1.843
 4412TIP3   OH213176   7.951   2.304   2.856
 4412TIP3    H113177   7.992   2.390   2.848
 4412TIP3    H213178   7.858   2.324   2.870
 4413TIP3   OH213179   7.165   3.505   6.775
 4413TIP3    H113180   7.076   3.472   6.778
 4413TIP3    H213181   7.210   3.462   6.848
 4414TIP3   OH213182   6.518   0.178   5.544
 4414TIP3    H113183   6.431   0.157   5.510
 4414TIP3    H213184   6.565   0.095   5.544
 4415TIP3   OH213185   8.387   4.560   5.516
 4415TIP3    H113186   8.371   4.469   5.493
 4415TIP3    H213187   8.307   4.589   5.559
 4416TIP3   OH213188   2.118   1.034   6.815
 4416TIP3    H113189   2.083   1.111   6.860
 4416TIP3    H213190   2.041   0.979   6.800
 4417TIP3   OH213191   6.286   5.586   3.480
 4417TIP3    H113192   6.333   5.659   3.521
 4417TIP3    H213193   6.311   5.509   3.532
 4418TIP3   OH213194   4.329   1.582   0.294
 4418TIP3    H113195   4.392   1.611   0.228
 4418TIP3    H213196   4.366   1.609   0.378
 4419TIP3   OH213197   6.142   6.405   1.855
 4419TIP3    H113198   6.121   6.495   1.832
 4419TIP3    H213199   6.212   6.380   1.794
 4420TIP3   OH213200   7.529   6.742   0.233
 4420TIP3    H113201   7.531   6.830   0.268
 4420TIP3    H213202   7.472   6.747   0.156
 4421TIP3   OH213203   2.154   2.736   6.557
 4421TIP3    H113204   2.125   2.809   6.611
 4421TIP3    H213205   2.231   2.701   6.602
 4422TIP3   OH213206   6.730   2.413   0.053
 4422TIP3    H113207   6.646   2.432   0.096
 4422TIP3    H213208   6.790   2.395   0.125
 4423TIP3   OH213209   5.611   3.483   6.179
 4423TIP3    H113210   5.549   3.522   6.116
 4423TIP3    H213211   5.696   3.489   6.136
 4424TIP3   OH213212   7.864   7.348   4.410
 4424TIP3    H113213   7.871   7.337   4.315
 4424TIP3    H213214   7.910   7.272   4.447
 4425TIP3   OH213215   7.763   4.677   4.051
 4425TIP3    H113216   7.816   4.638   4.121
 4425TIP3    H213217   7.821   4.676   3.974
 4426TIP3   OH213218   5.573   7.680   6.055
 4426TIP3    H113219   5.593   7.686   5.962
 4426TIP3    H213220   5.572   7.770   6.085
 4427TIP3   OH213221   1.774   6.083   5.958
 4427TIP3    H113222   1.834   6.155   5.944
 4427TIP3    H213223   1.739   6.064   5.871
 4428TIP3   OH213224   1.682   3.070   4.359
 4428TIP3    H113225   1.653   3.049   4.270
 4428TIP3    H213226   1.739   3.146   4.348
 4429TIP3   OH213227   0.187   2.332   6.043
 4429TIP3    H113228   0.264   2.364   6.091
 4429TIP3    H213229   0.113   2.361   6.096
 4430TIP3   OH213230   1.789   3.837   3.638
 4430TIP3    H113231   1.880   3.864   3.637
 4430TIP3    H213232   1.775   3.795   3.553
 4431TIP3   OH213233   2.780   5.388   3.265
 4431TIP3    H113234   2.815   5.416   3.180
 4431TIP3    H213235   2.856   5.392   3.323
 4432TIP3   OH213236   0.532   0.992   3.679
 4432TIP3    H113237   0.604   0.934   3.704
 4432TIP3    H213238   0.491   0.948   3.604
 4433TIP3   OH213239   0.127   5.992   3.286
 4433TIP3    H113240   0.138   6.062   3.221
 4433TIP3    H213241   0.180   6.019   3.360
 4434TIP3   OH213242   7.810   4.900   2.674
 4434TIP3    H113243   7.851   4.818   2.700
 4434TIP3    H213244   7.786   4.942   2.757
 4435TIP3   OH213245   3.601   3.980   4.423
 4435TIP3    H113246   3.646   4.036   4.359
 4435TIP3    H213247   3.553   4.042   4.478
 4436TIP3   OH213248   2.760   5.917   4.709
 4436TIP3    H113249   2.846   5.935   4.672
 4436TIP3    H213250   2.700   5.969   4.656
 4437TIP3   OH213251   4.703   2.380   4.600
 4437TIP3    H113252   4.696   2.473   4.621
 4437TIP3    H213253   4.719   2.377   4.506
 4438TIP3   OH213254   8.016   6.875   1.949
 4438TIP3    H113255   8.065   6.793   1.955
 4438TIP3    H213256   8.035   6.907   1.860
 4439TIP3   OH213257   1.021   0.887   4.584
 4439TIP3    H113258   1.093   0.846   4.633
 4439TIP3    H213259   0.962   0.919   4.652
 4440TIP3   OH213260   4.613   1.499   1.041
 4440TIP3    H113261   4.616   1.407   1.015
 4440TIP3    H213262   4.614   1.547   0.958
 4441TIP3   OH213263   6.035   0.813   4.248
 4441TIP3    H113264   6.019   0.881   4.182
 4441TIP3    H213265   6.000   0.733   4.209
 4442TIP3   OH213266   5.460   2.284   4.302
 4442TIP3    H113267   5.391   2.345   4.276
 4442TIP3    H213268   5.508   2.330   4.371
 4443TIP3   OH213269   2.129   6.154   4.807
 4443TIP3    H113270   2.197   6.097   4.843
 4443TIP3    H213271   2.154   6.167   4.716
 4444TIP3   OH213272   7.364   6.609   1.636
 4444TIP3    H113273   7.435   6.546   1.643
 4444TIP3    H213274   7.292   6.570   1.686
 4445TIP3   OH213275   5.742   3.123   3.004
 4445TIP3    H113276   5.756   3.188   2.935
 4445TIP3    H213277   5.648   3.111   3.007
 4446TIP3   OH213278   7.038   3.153   5.250
 4446TIP3    H113279   7.006   3.175   5.337
 4446TIP3    H213280   7.097   3.224   5.227
 4447TIP3   OH213281   2.091   6.873   1.697
 4447TIP3    H113282   2.047   6.957   1.685
 4447TIP3    H213283   2.094   6.834   1.610
 4448TIP3   OH213284   2.110   4.091   3.657
 4448TIP3    H113285   2.118   3.996   3.652
 4448TIP3    H213286   2.076   4.117   3.571
 4449TIP3   OH213287   2.093   0.688   3.440
 4449TIP3    H113288   2.073   0.711   3.531
 4449TIP3    H213289   2.128   0.599   3.445
 4450TIP3   OH213290   1.773   3.540   1.856
 4450TIP3    H113291   1.836   3.492   1.911
 4450TIP3    H213292   1.711   3.577   1.918
 4451TIP3   OH213293   6.890   6.891   5.813
 4451TIP3    H113294   6.842   6.972   5.797
 4451TIP3    H213295   6.834   6.840   5.871
 4452TIP3   OH213296   3.611   7.378   3.810
 4452TIP3    H113297   3.705   7.380   3.828
 4452TIP3    H213298   3.571   7.352   3.894
 4453TIP3   OH213299   3.144   1.422   3.639
 4453TIP3    H113300   3.101   1.472   3.570
 4453TIP3    H213301   3.123   1.470   3.720
 4454TIP3   OH213302   2.354   4.064   3.789
 4454TIP3    H113303   2.383   4.128   3.724
 4454TIP3    H213304   2.263   4.088   3.807
 4455TIP3   OH213305   3.078   3.445   2.560
 4455TIP3    H113306   3.001   3.408   2.516
 4455TIP3    H213307   3.051   3.455   2.651
 4456TIP3   OH213308   1.854   6.779   3.465
 4456TIP3    H113309   1.860   6.738   3.551
 4456TIP3    H213310   1.761   6.803   3.457
 4457TIP3   OH213311   5.101   3.246   4.888
 4457TIP3    H113312   5.109   3.201   4.805
 4457TIP3    H213313   5.007   3.253   4.903
 4458TIP3   OH213314   0.454   2.605   6.370
 4458TIP3    H113315   0.544   2.593   6.339
 4458TIP3    H213316   0.445   2.700   6.380
 4459TIP3   OH213317   1.828   6.790   2.878
 4459TIP3    H113318   1.818   6.856   2.946
 4459TIP3    H213319   1.779   6.715   2.910
 4460TIP3   OH213320   6.295   0.750   4.314
 4460TIP3    H113321   6.330   0.836   4.337
 4460TIP3    H213322   6.209   0.769   4.276
 4461TIP3   OH213323   6.004   3.115   4.229
 4461TIP3    H113324   5.984   3.168   4.306
 4461TIP3    H213325   5.964   3.163   4.156
 4462TIP3   OH213326   2.622   3.192   4.744
 4462TIP3    H113327   2.644   3.236   4.662
 4462TIP3    H213328   2.528   3.177   4.739
 4463TIP3   OH213329   6.493   2.239   0.150
 4463TIP3    H113330   6.486   2.144   0.146
 4463TIP3    H213331   6.554   2.256   0.221
 4464TIP3   OH213332   6.911   7.359   6.015
 4464TIP3    H113333   6.911   7.384   6.107
 4464TIP3    H213334   6.830   7.308   6.004
 4465TIP3   OH213335   5.833   4.369   0.015
 4465TIP3    H113336   5.858   4.459  -0.005
 4465TIP3    H213337   5.859   4.357   0.106
 4466TIP3   OH213338   2.225   1.048   6.013
 4466TIP3    H113339   2.241   0.970   5.960
 4466TIP3    H213340   2.223   1.120   5.950
 4467TIP3   OH213341   0.217   4.065   6.734
 4467TIP3    H113342   0.268   4.017   6.668
 4467TIP3    H213343   0.252   4.034   6.818
 4468TIP3   OH213344   2.169   1.180   2.712
 4468TIP3    H113345   2.248   1.234   2.710
 4468TIP3    H213346   2.097   1.243   2.707
 4469TIP3   OH213347   7.527   6.754   3.627
 4469TIP3    H113348   7.492   6.799   3.550
 4469TIP3    H213349   7.585   6.687   3.592
 4470TIP3   OH213350   4.711   5.928   3.266
 4470TIP3    H113351   4.640   5.878   3.226
 4470TIP3    H213352   4.784   5.919   3.205
 4471TIP3   OH213353   6.143   4.370   5.579
 4471TIP3    H113354   6.111   4.345   5.666
 4471TIP3    H213355   6.226   4.324   5.570
 4472TIP3   OH213356   6.804   4.804   6.041
 4472TIP3    H113357   6.879   4.852   6.006
 4472TIP3    H213358   6.786   4.737   5.975
 4473TIP3   OH213359   1.049   7.054   3.298
 4473TIP3    H113360   0.993   7.131   3.297
 4473TIP3    H213361   1.033   7.014   3.384
 4474TIP3   OH213362   3.955   1.571   2.554
 4474TIP3    H113363   3.915   1.572   2.641
 4474TIP3    H213364   3.882   1.578   2.493
 4475TIP3   OH213365   4.316   5.918   5.880
 4475TIP3    H113366   4.239   5.893   5.828
 4475TIP3    H213367   4.331   6.010   5.857
 4476TIP3   OH213368   2.653   1.164   5.470
 4476TIP3    H113369   2.652   1.260   5.468
 4476TIP3    H213370   2.697   1.138   5.390
 4477TIP3   OH213371   5.843   5.186   4.630
 4477TIP3    H113372   5.830   5.104   4.582
 4477TIP3    H213373   5.852   5.252   4.561
 4478TIP3   OH213374   6.536   4.896   4.493
 4478TIP3    H113375   6.578   4.967   4.542
 4478TIP3    H213376   6.604   4.865   4.433
 4479TIP3   OH213377   3.681   5.590   0.730
 4479TIP3    H113378   3.732   5.512   0.708
 4479TIP3    H213379   3.648   5.621   0.646
 4480TIP3   OH213380   6.834   1.430   4.212
 4480TIP3    H113381   6.920   1.401   4.243
 4480TIP3    H213382   6.819   1.513   4.259
 4481TIP3   OH213383   3.683   5.174   1.971
 4481TIP3    H113384   3.735   5.114   2.024
 4481TIP3    H213385   3.682   5.135   1.884
 4482TIP3   OH213386   5.097   5.648   6.882
 4482TIP3    H113387   5.090   5.721   6.820
 4482TIP3    H213388   5.095   5.569   6.827
 4483TIP3   OH213389   4.628   5.767   1.847
 4483TIP3    H113390   4.546   5.721   1.826
 4483TIP3    H213391   4.684   5.752   1.771
 4484TIP3   OH213392   3.137   2.310   3.170
 4484TIP3    H113393   3.115   2.398   3.138
 4484TIP3    H213394   3.053   2.269   3.190
 4485TIP3   OH213395   4.584   5.653   1.041
 4485TIP3    H113396   4.516   5.667   1.107
 4485TIP3    H213397   4.583   5.732   0.988
 4486TIP3   OH213398   1.841   1.877   6.578
 4486TIP3    H113399   1.827   1.855   6.670
 4486TIP3    H213400   1.778   1.946   6.559
 4487TIP3   OH213401   2.881   5.468   2.745
 4487TIP3    H113402   2.936   5.480   2.667
 4487TIP3    H213403   2.847   5.379   2.737
 4488TIP3   OH213404   6.109   1.705   4.806
 4488TIP3    H113405   6.129   1.734   4.895
 4488TIP3    H213406   6.054   1.627   4.819
 4489TIP3   OH213407   4.672   2.285   6.738
 4489TIP3    H113408   4.582   2.298   6.707
 4489TIP3    H213409   4.690   2.193   6.720
 4490TIP3   OH213410   5.690   3.710   2.278
 4490TIP3    H113411   5.746   3.676   2.348
 4490TIP3    H213412   5.623   3.760   2.323
 4491TIP3   OH213413   5.203   1.309   0.199
 4491TIP3    H113414   5.131   1.277   0.254
 4491TIP3    H213415   5.247   1.374   0.253
 4492TIP3   OH213416   7.645   2.043   6.158
 4492TIP3    H113417   7.739   2.030   6.164
 4492TIP3    H213418   7.634   2.123   6.107
 4493TIP3   OH213419   8.268   0.774   1.444
 4493TIP3    H113420   8.227   0.689   1.430
 4493TIP3    H213421   8.321   0.788   1.365
 4494TIP3   OH213422   1.105   2.013   0.071
 4494TIP3    H113423   1.057   2.028   0.152
 4494TIP3    H213424   1.090   2.091   0.018
 4495TIP3   OH213425   1.364   5.541   0.844
 4495TIP3    H113426   1.442   5.486   0.836
 4495TIP3    H213427   1.348   5.547   0.938
 4496TIP3   OH213428   5.459   1.693   1.739
 4496TIP3    H113429   5.375   1.728   1.708
 4496TIP3    H213430   5.440   1.601   1.760
 4497TIP3   OH213431   2.989   0.635   1.315
 4497TIP3    H113432   3.061   0.671   1.263
 4497TIP3    H213433   2.967   0.553   1.271
 4498TIP3   OH213434   6.225   4.494   6.111
 4498TIP3    H113435   6.233   4.483   6.016
 4498TIP3    H213436   6.271   4.576   6.129
 4499TIP3   OH213437   6.348   0.130   0.778
 4499TIP3    H113438   6.364   0.066   0.708
 4499TIP3    H213439   6.283   0.190   0.741
 4500TIP3   OH213440   2.150   4.471   0.425
 4500TIP3    H113441   2.146   4.566   0.413
 4500TIP3    H213442   2.163   4.459   0.519
 4501TIP3   OH213443   6.019   0.673   4.912
 4501TIP3    H113444   6.071   0.712   4.841
 4501TIP3    H213445   5.991   0.749   4.964
 4502TIP3   OH213446   4.753   0.259   0.125
 4502TIP3    H113447   4.766   0.353   0.137
 4502TIP3    H213448   4.792   0.240   0.040
 4503TIP3   OH213449   3.411   6.800   5.168
 4503TIP3    H113450   3.441   6.824   5.256
 4503TIP3    H213451   3.316   6.805   5.174
 4504TIP3   OH213452   8.229   5.868   3.784
 4504TIP3    H113453   8.153   5.906   3.740
 4504TIP3    H213454   8.277   5.823   3.715
 4505TIP3   OH213455   2.561   7.482   1.153
 4505TIP3    H113456   2.520   7.566   1.132
 4505TIP3    H213457   2.626   7.469   1.085
 4506TIP3   OH213458   0.144   6.992   5.127
 4506TIP3    H113459   0.198   6.995   5.206
 4506TIP3    H213460   0.206   6.999   5.055
 4507TIP3   OH213461   5.528   1.479   4.031
 4507TIP3    H113462   5.558   1.390   4.053
 4507TIP3    H213463   5.590   1.509   3.964
 4508TIP3   OH213464   1.149   7.548   0.623
 4508TIP3    H113465   1.104   7.587   0.548
 4508TIP3    H213466   1.214   7.490   0.584
 4509TIP3   OH213467   0.472   0.068   3.999
 4509TIP3    H113468   0.524   0.094   4.075
 4509TIP3    H213469   0.387   0.043   4.035
 4510TIP3   OH213470   8.155   4.045   2.594
 4510TIP3    H113471   8.211   4.110   2.550
 4510TIP3    H213472   8.114   4.095   2.665
 4511TIP3   OH213473   0.689   4.363   2.737
 4511TIP3    H113474   0.651   4.449   2.719
 4511TIP3    H213475   0.784   4.377   2.736
 4512TIP3   OH213476   1.008   3.989   1.120
 4512TIP3    H113477   0.936   3.956   1.066
 4512TIP3    H213478   1.033   4.071   1.078
 4513TIP3   OH213479   3.601   3.335   6.417
 4513TIP3    H113480   3.576   3.314   6.328
 4513TIP3    H213481   3.683   3.384   6.408
 4514TIP3   OH213482   0.355   1.448   2.744
 4514TIP3    H113483   0.311   1.474   2.825
 4514TIP3    H213484   0.368   1.530   2.696
 4515TIP3   OH213485   3.787   0.763   5.681
 4515TIP3    H113486   3.881   0.747   5.680
 4515TIP3    H213487   3.765   0.787   5.591
 4516TIP3   OH213488   0.423   7.285   2.068
 4516TIP3    H113489   0.441   7.209   2.012
 4516TIP3    H213490   0.454   7.360   2.017
 4517TIP3   OH213491   1.535   4.877   5.736
 4517TIP3    H113492   1.511   4.960   5.777
 4517TIP3    H213493   1.624   4.859   5.768
 4518TIP3   OH213494   2.318   5.899   3.047
 4518TIP3    H113495   2.357   5.814   3.067
 4518TIP3    H213496   2.228   5.892   3.077
 4519TIP3   OH213497   6.821   5.202   2.698
 4519TIP3    H113498   6.880   5.266   2.735
 4519TIP3    H213499   6.734   5.229   2.728
 4520TIP3   OH213500   4.229   7.519   3.492
 4520TIP3    H113501   4.271   7.573   3.559
 4520TIP3    H213502   4.138   7.549   3.489
 4521TIP3   OH213503   4.824   4.204   0.294
 4521TIP3    H113504   4.867   4.141   0.236
 4521TIP3    H213505   4.740   4.220   0.254
 4522TIP3   OH213506   1.539   1.865   2.461
 4522TIP3    H113507   1.474   1.813   2.508
 4522TIP3    H213508   1.500   1.880   2.375
 4523TIP3   OH213509   2.017   1.392   4.196
 4523TIP3    H113510   2.076   1.390   4.272
 4523TIP3    H213511   1.938   1.347   4.226
 4524TIP3   OH213512   7.015   2.403   3.876
 4524TIP3    H113513   6.926   2.429   3.854
 4524TIP3    H213514   7.003   2.331   3.938
 4525TIP3   OH213515   0.962   1.950   5.995
 4525TIP3    H113516   0.883   1.954   5.941
 4525TIP3    H213517   1.007   2.033   5.978
 4526TIP3   OH213518   4.067   0.386   5.672
 4526TIP3    H113519   4.134   0.445   5.704
 4526TIP3    H213520   4.067   0.313   5.734
 4527TIP3   OH213521   3.097   5.370   1.021
 4527TIP3    H113522   3.185   5.341   1.044
 4527TIP3    H213523   3.097   5.370   0.925
 4528TIP3   OH213524   8.111   4.980   0.387
 4528TIP3    H113525   8.202   4.955   0.370
 4528TIP3    H213526   8.071   4.900   0.422
 4529TIP3   OH213527   3.245   1.437   0.464
 4529TIP3    H113528   3.259   1.530   0.483
 4529TIP3    H213529   3.319   1.393   0.505
 4530TIP3   OH213530   7.340   3.395   5.505
 4530TIP3    H113531   7.357   3.481   5.543
 4530TIP3    H213532   7.425   3.352   5.502
 4531TIP3   OH213533   2.678   4.188   6.526
 4531TIP3    H113534   2.673   4.283   6.537
 4531TIP3    H213535   2.725   4.157   6.604
 4532TIP3   OH213536   7.897   5.188   0.395
 4532TIP3    H113537   7.881   5.215   0.486
 4532TIP3    H213538   7.993   5.183   0.388
 4533TIP3   OH213539   4.778   2.707   0.973
 4533TIP3    H113540   4.740   2.619   0.983
 4533TIP3    H213541   4.750   2.754   1.051
 4534TIP3   OH213542   0.105   5.243   5.800
 4534TIP3    H113543   0.107   5.256   5.705
 4534TIP3    H213544   0.083   5.150   5.811
 4535TIP3   OH213545   6.093   2.933   5.635
 4535TIP3    H113546   6.154   2.879   5.686
 4535TIP3    H213547   6.072   3.005   5.694
 4536TIP3   OH213548   5.279   4.675   0.912
 4536TIP3    H113549   5.354   4.690   0.854
 4536TIP3    H213550   5.220   4.620   0.861
 4537TIP3   OH213551   6.765   3.894   2.506
 4537TIP3    H113552   6.733   3.843   2.431
 4537TIP3    H213553   6.828   3.955   2.468
 4538TIP3   OH213554   3.685   7.895   5.196
 4538TIP3    H113555   3.705   7.835   5.268
 4538TIP3    H213556   3.656   7.838   5.125
 4539TIP3   OH213557   2.458   0.291   0.591
 4539TIP3    H113558   2.471   0.222   0.656
 4539TIP3    H213559   2.366   0.282   0.565
 4540TIP3   OH213560   4.342   5.256   1.631
 4540TIP3    H113561   4.316   5.348   1.630
 4540TIP3    H213562   4.403   5.247   1.558
 4541TIP3   OH213563   6.090   5.640   1.457
 4541TIP3    H113564   6.116   5.675   1.372
 4541TIP3    H213565   6.171   5.612   1.498
 4542TIP3   OH213566   7.181   5.361   2.436
 4542TIP3    H113567   7.146   5.302   2.369
 4542TIP3    H213568   7.275   5.360   2.422
 4543TIP3   OH213569   0.359   6.951   5.337
 4543TIP3    H113570   0.446   6.989   5.325
 4543TIP3    H213571   0.366   6.898   5.416
 4544TIP3   OH213572   7.653   6.071   3.190
 4544TIP3    H113573   7.613   6.107   3.269
 4544TIP3    H213574   7.647   6.141   3.126
 4545TIP3   OH213575   3.301   7.062   5.289
 4545TIP3    H113576   3.309   7.124   5.216
 4545TIP3    H213577   3.206   7.059   5.306
 4546TIP3   OH213578   6.961   2.288   4.188
 4546TIP3    H113579   6.928   2.377   4.204
 4546TIP3    H213580   6.884   2.232   4.192
 4547TIP3   OH213581   4.508   4.619   0.925
 4547TIP3    H113582   4.583   4.585   0.974
 4547TIP3    H213583   4.488   4.551   0.861
 4548TIP3   OH213584   4.887   1.473   5.416
 4548TIP3    H113585   4.904   1.397   5.361
 4548TIP3    H213586   4.792   1.484   5.414
 4549TIP3   OH213587   1.884   1.813   5.559
 4549TIP3    H113588   1.858   1.721   5.569
 4549TIP3    H213589   1.882   1.848   5.648
 4550TIP3   OH213590   4.952   5.303   3.483
 4550TIP3    H113591   4.963   5.258   3.567
 4550TIP3    H213592   4.955   5.233   3.418
 4551TIP3   OH213593   7.358   1.450   5.794
 4551TIP3    H113594   7.331   1.425   5.706
 4551TIP3    H213595   7.291   1.412   5.851
 4552TIP3   OH213596   3.521   0.524   2.518
 4552TIP3    H113597   3.605   0.555   2.483
 4552TIP3    H213598   3.463   0.521   2.441
 4553TIP3   OH213599   0.052   3.183   2.683
 4553TIP3    H113600   0.141   3.172   2.715
 4553TIP3    H213601   0.000   3.198   2.762
 4554TIP3   OH213602   7.044   1.549   4.001
 4554TIP3    H113603   7.098   1.516   3.930
 4554TIP3    H213604   7.043   1.478   4.065
 4555TIP3   OH213605   2.034   2.977   6.683
 4555TIP3    H113606   1.986   2.983   6.766
 4555TIP3    H213607   2.078   3.062   6.675
 4556TIP3   OH213608   7.223   0.512   2.753
 4556TIP3    H113609   7.191   0.465   2.677
 4556TIP3    H213610   7.165   0.587   2.762
 4557TIP3   OH213611   5.874   2.411   4.852
 4557TIP3    H113612   5.821   2.332   4.839
 4557TIP3    H213613   5.949   2.398   4.794
 4558TIP3   OH213614   2.714   7.036   2.238
 4558TIP3    H113615   2.702   7.117   2.287
 4558TIP3    H213616   2.625   7.008   2.217
 4559TIP3   OH213617   3.835   4.901   2.401
 4559TIP3    H113618   3.925   4.901   2.433
 4559TIP3    H213619   3.810   4.993   2.400
 4560TIP3   OH213620   6.313   6.678   3.600
 4560TIP3    H113621   6.295   6.772   3.593
 4560TIP3    H213622   6.321   6.647   3.510
 4561TIP3   OH213623   5.888   2.890   4.367
 4561TIP3    H113624   5.931   2.964   4.324
 4561TIP3    H213625   5.795   2.913   4.365
 4562TIP3   OH213626   2.543   0.186   6.124
 4562TIP3    H113627   2.637   0.173   6.126
 4562TIP3    H213628   2.532   0.280   6.140
 4563TIP3   OH213629   0.663   4.114   6.637
 4563TIP3    H113630   0.600   4.187   6.638
 4563TIP3    H213631   0.748   4.156   6.639
 4564TIP3   OH213632   4.272   3.912   5.424
 4564TIP3    H113633   4.187   3.933   5.384
 4564TIP3    H213634   4.320   3.994   5.422
 4565TIP3   OH213635   1.398   3.742   5.082
 4565TIP3    H113636   1.316   3.695   5.071
 4565TIP3    H213637   1.450   3.688   5.141
 4566TIP3   OH213638   5.740   7.486   2.247
 4566TIP3    H113639   5.772   7.459   2.161
 4566TIP3    H213640   5.759   7.411   2.303
 4567TIP3   OH213641   7.022   1.658   0.867
 4567TIP3    H113642   6.930   1.684   0.874
 4567TIP3    H213643   7.023   1.566   0.893
 4568TIP3   OH213644   5.800   5.397   3.559
 4568TIP3    H113645   5.848   5.456   3.501
 4568TIP3    H213646   5.754   5.455   3.620
 4569TIP3   OH213647   6.816   0.808   3.828
 4569TIP3    H113648   6.900   0.765   3.813
 4569TIP3    H213649   6.822   0.843   3.917
 4570TIP3   OH213650   1.777   2.809   5.846
 4570TIP3    H113651   1.788   2.890   5.896
 4570TIP3    H213652   1.707   2.829   5.784
 4571TIP3   OH213653   4.629   5.209   5.730
 4571TIP3    H113654   4.671   5.203   5.644
 4571TIP3    H213655   4.564   5.279   5.720
 4572TIP3   OH213656   7.266   5.813   2.182
 4572TIP3    H113657   7.219   5.837   2.102
 4572TIP3    H213658   7.211   5.747   2.223
 4573TIP3   OH213659   6.223   0.290   4.069
 4573TIP3    H113660   6.236   0.246   3.985
 4573TIP3    H213661   6.211   0.382   4.046
 4574TIP3   OH213662   2.719   1.673   5.822
 4574TIP3    H113663   2.642   1.728   5.838
 4574TIP3    H213664   2.690   1.584   5.843
 4575TIP3   OH213665   7.686   3.986   6.018
 4575TIP3    H113666   7.729   3.913   5.973
 4575TIP3    H213667   7.594   3.962   6.019
 4576TIP3   OH213668   6.997   1.834   4.089
 4576TIP3    H113669   6.940   1.761   4.067
 4576TIP3    H213670   7.086   1.802   4.073
 4577TIP3   OH213671   5.969   0.921   6.113
 4577TIP3    H113672   5.931   0.996   6.066
 4577TIP3    H213673   6.025   0.879   6.049
 4578TIP3   OH213674   5.470   1.157   4.013
 4578TIP3    H113675   5.417   1.171   3.935
 4578TIP3    H213676   5.415   1.105   4.071
 4579TIP3   OH213677   2.547   1.042   1.781
 4579TIP3    H113678   2.499   0.960   1.777
 4579TIP3    H213679   2.622   1.023   1.837
 4580TIP3   OH213680   5.798   4.994   6.631
 4580TIP3    H113681   5.820   5.001   6.538
 4580TIP3    H213682   5.852   4.923   6.664
 4581TIP3   OH213683   4.109   3.864   0.178
 4581TIP3    H113684   4.172   3.792   0.170
 4581TIP3    H213685   4.122   3.915   0.098
 4582TIP3   OH213686   7.962   1.983   0.025
 4582TIP3    H113687   8.040   2.016   0.070
 4582TIP3    H213688   7.922   2.061  -0.015
 4583TIP3   OH213689   7.647   7.847   2.465
 4583TIP3    H113690   7.667   7.940   2.470
 4583TIP3    H213691   7.728   7.806   2.434
 4584TIP3   OH213692   3.459   5.711   6.241
 4584TIP3    H113693   3.458   5.684   6.333
 4584TIP3    H213694   3.491   5.635   6.193
 4585TIP3   OH213695   7.872   0.720   1.775
 4585TIP3    H113696   7.785   0.720   1.737
 4585TIP3    H213697   7.857   0.707   1.869
 4586TIP3   OH213698   0.420   4.473   3.862
 4586TIP3    H113699   0.487   4.422   3.909
 4586TIP3    H213700   0.337   4.442   3.899
 4587TIP3   OH213701   2.406   0.515   6.774
 4587TIP3    H113702   2.352   0.496   6.851
 4587TIP3    H213703   2.427   0.429   6.738
 4588TIP3   OH213704  -0.008   6.324   0.976
 4588TIP3    H113705  -0.043   6.301   1.062
 4588TIP3    H213706   0.075   6.367   0.995
 4589TIP3   OH213707   3.683   5.377   6.659
 4589TIP3    H113708   3.728   5.449   6.704
 4589TIP3    H213709   3.590   5.401   6.664
 4590TIP3   OH213710   2.335   6.059   0.424
 4590TIP3    H113711   2.292   6.043   0.339
 4590TIP3    H213712   2.263   6.063   0.487
 4591TIP3   OH213713   5.690   1.523   3.814
 4591TIP3    H113714   5.669   1.505   3.722
 4591TIP3    H213715   5.754   1.455   3.837
 4592TIP3   OH213716   0.142   7.711   2.609
 4592TIP3    H113717   0.202   7.646   2.647
 4592TIP3    H213718   0.106   7.756   2.685
 4593TIP3   OH213719   2.814   1.666   1.691
 4593TIP3    H113720   2.881   1.732   1.707
 4593TIP3    H213721   2.838   1.626   1.607
 4594TIP3   OH213722   3.722   3.985   0.308
 4594TIP3    H113723   3.642   3.994   0.358
 4594TIP3    H213724   3.750   4.075   0.290
 4595TIP3   OH213725   0.555   0.007   3.547
 4595TIP3    H113726   0.640  -0.038   3.545
 4595TIP3    H213727   0.554   0.053   3.631
 4596TIP3   OH213728   1.221   5.305   4.498
 4596TIP3    H113729   1.211   5.309   4.403
 4596TIP3    H213730   1.268   5.386   4.520
 4597TIP3   OH213731   4.095   1.302   1.936
 4597TIP3    H113732   4.141   1.323   2.017
 4597TIP3    H213733   4.031   1.373   1.926
 4598TIP3   OH213734   5.925   3.931   3.815
 4598TIP3    H113735   5.901   3.964   3.901
 4598TIP3    H213736   5.880   3.987   3.753
 4599TIP3   OH213737   5.691   3.592   4.433
 4599TIP3    H113738   5.740   3.642   4.498
 4599TIP3    H213739   5.754   3.528   4.401
 4600TIP3   OH213740   3.755   4.361   4.317
 4600TIP3    H113741   3.846   4.390   4.322
 4600TIP3    H213742   3.711   4.411   4.387
 4601TIP3   OH213743   4.017   1.681   0.856
 4601TIP3    H113744   4.092   1.740   0.844
 4601TIP3    H213745   3.944   1.726   0.812
 4602TIP3   OH213746   2.093   7.368   4.032
 4602TIP3    H113747   2.153   7.435   4.065
 4602TIP3    H213748   2.081   7.390   3.939
 4603TIP3   OH213749   6.192   5.323   1.281
 4603TIP3    H113750   6.280   5.359   1.289
 4603TIP3    H213751   6.144   5.387   1.230
 4604TIP3   OH213752   3.729   0.242   4.023
 4604TIP3    H113753   3.733   0.153   3.987
 4604TIP3    H213754   3.661   0.286   3.971
 4605TIP3   OH213755   0.858   0.794   5.147
 4605TIP3    H113756   0.815   0.716   5.182
 4605TIP3    H213757   0.786   0.852   5.122
 4606TIP3   OH213758   6.654   5.548   0.267
 4606TIP3    H113759   6.600   5.522   0.192
 4606TIP3    H213760   6.710   5.472   0.283
 4607TIP3   OH213761   8.144   5.584   5.000
 4607TIP3    H113762   8.180   5.647   5.062
 4607TIP3    H213763   8.062   5.625   4.970
 4608TIP3   OH213764   2.422   4.726   2.294
 4608TIP3    H113765   2.439   4.652   2.353
 4608TIP3    H213766   2.347   4.697   2.241
 4609TIP3   OH213767   1.072   4.635   5.403
 4609TIP3    H113768   1.140   4.675   5.456
 4609TIP3    H213769   1.006   4.605   5.467
 4610TIP3   OH213770   2.514   6.269   6.147
 4610TIP3    H113771   2.594   6.228   6.179
 4610TIP3    H213772   2.465   6.198   6.107
 4611TIP3   OH213773   5.332   6.748   5.627
 4611TIP3    H113774   5.347   6.777   5.537
 4611TIP3    H213775   5.250   6.790   5.652
 4612TIP3   OH213776   7.132   7.683   0.432
 4612TIP3    H113777   7.168   7.749   0.491
 4612TIP3    H213778   7.098   7.615   0.491
 4613TIP3   OH213779   3.146   3.065   0.823
 4613TIP3    H113780   3.051   3.067   0.812
 4613TIP3    H213781   3.180   3.078   0.734
 4614TIP3   OH213782   7.622   2.710   0.238
 4614TIP3    H113783   7.559   2.732   0.307
 4614TIP3    H213784   7.567   2.687   0.162
 4615TIP3   OH213785   1.938   0.856   6.756
 4615TIP3    H113786   1.915   0.811   6.675
 4615TIP3    H213787   1.864   0.839   6.815
 4616TIP3   OH213788   3.436   7.764   3.790
 4616TIP3    H113789   3.477   7.750   3.875
 4616TIP3    H213790   3.342   7.770   3.809
 4617TIP3   OH213791   5.433   3.144   6.421
 4617TIP3    H113792   5.409   3.236   6.415
 4617TIP3    H213793   5.528   3.142   6.405
 4618TIP3   OH213794   1.426   2.595   3.593
 4618TIP3    H113795   1.465   2.674   3.555
 4618TIP3    H213796   1.332   2.607   3.583
 4619TIP3   OH213797   5.295   2.489   6.377
 4619TIP3    H113798   5.352   2.473   6.452
 4619TIP3    H213799   5.348   2.465   6.301
 4620TIP3   OH213800   7.605   2.599   2.679
 4620TIP3    H113801   7.617   2.692   2.699
 4620TIP3    H213802   7.551   2.566   2.751
 4621TIP3   OH213803   6.124   0.285   0.683
 4621TIP3    H113804   6.118   0.381   0.678
 4621TIP3    H213805   6.071   0.254   0.610
 4622TIP3   OH213806   3.356   7.688   4.398
 4622TIP3    H113807   3.319   7.666   4.483
 4622TIP3    H213808   3.448   7.661   4.403
 4623TIP3   OH213809   2.638   3.150   3.157
 4623TIP3    H113810   2.548   3.123   3.144
 4623TIP3    H213811   2.655   3.212   3.086
 4624TIP3   OH213812   4.840   7.409   4.225
 4624TIP3    H113813   4.824   7.419   4.319
 4624TIP3    H213814   4.932   7.383   4.220
 4625TIP3   OH213815   6.663   5.905   5.205
 4625TIP3    H113816   6.679   5.923   5.298
 4625TIP3    H213817   6.580   5.950   5.187
 4626TIP3   OH213818   6.615   4.018   1.443
 4626TIP3    H113819   6.627   4.039   1.535
 4626TIP3    H213820   6.667   3.939   1.428
 4627TIP3   OH213821   4.131   2.666   3.383
 4627TIP3    H113822   4.080   2.641   3.461
 4627TIP3    H213823   4.178   2.745   3.409
 4628TIP3   OH213824   2.167   0.933   4.089
 4628TIP3    H113825   2.189   0.886   4.008
 4628TIP3    H213826   2.075   0.954   4.079
 4629TIP3   OH213827   1.666   2.811   4.085
 4629TIP3    H113828   1.676   2.777   4.174
 4629TIP3    H213829   1.611   2.746   4.041
 4630TIP3   OH213830   5.945   2.870   3.481
 4630TIP3    H113831   5.912   2.960   3.493
 4630TIP3    H213832   6.040   2.878   3.491
 4631TIP3   OH213833   3.000   6.206   3.922
 4631TIP3    H113834   2.931   6.140   3.915
 4631TIP3    H213835   3.027   6.223   3.832
 4632TIP3   OH213836   6.587   4.131   5.911
 4632TIP3    H113837   6.668   4.180   5.930
 4632TIP3    H213838   6.518   4.197   5.915
 4633TIP3   OH213839   4.367   0.665   2.858
 4633TIP3    H113840   4.452   0.682   2.899
 4633TIP3    H213841   4.328   0.751   2.848
 4634TIP3   OH213842   5.512   3.117   0.126
 4634TIP3    H113843   5.424   3.151   0.143
 4634TIP3    H213844   5.516   3.036   0.177
 4635TIP3   OH213845   8.093   5.606   5.396
 4635TIP3    H113846   8.025   5.655   5.443
 4635TIP3    H213847   8.131   5.670   5.335
 4636TIP3   OH213848   5.690   3.468   0.919
 4636TIP3    H113849   5.717   3.438   0.832
 4636TIP3    H213850   5.709   3.562   0.920
 4637TIP3   OH213851   1.476   0.760   4.958
 4637TIP3    H113852   1.529   0.690   4.921
 4637TIP3    H213853   1.504   0.766   5.050
 4638TIP3   OH213854   7.639   1.647   4.499
 4638TIP3    H113855   7.633   1.719   4.562
 4638TIP3    H213856   7.631   1.690   4.414
 4639TIP3   OH213857   6.567   4.503   4.650
 4639TIP3    H113858   6.565   4.456   4.734
 4639TIP3    H213859   6.620   4.580   4.667
 4640TIP3   OH213860   7.184   6.891   5.020
 4640TIP3    H113861   7.144   6.806   5.041
 4640TIP3    H213862   7.276   6.881   5.042
 4641TIP3   OH213863   0.070   7.427   6.756
 4641TIP3    H113864  -0.025   7.422   6.761
 4641TIP3    H213865   0.101   7.353   6.808
 4642TIP3   OH213866   3.764   5.448   5.574
 4642TIP3    H113867   3.845   5.474   5.530
 4642TIP3    H213868   3.734   5.527   5.619
 4643TIP3   OH213869   7.299   4.592   3.992
 4643TIP3    H113870   7.392   4.568   3.991
 4643TIP3    H213871   7.257   4.522   4.042
 4644TIP3   OH213872   7.577   2.032   5.704
 4644TIP3    H113873   7.562   2.103   5.767
 4644TIP3    H213874   7.527   1.958   5.739
 4645TIP3   OH213875   4.231   6.021   0.348
 4645TIP3    H113876   4.213   6.096   0.291
 4645TIP3    H213877   4.325   6.006   0.339
 4646TIP3   OH213878   5.318   5.280   1.996
 4646TIP3    H113879   5.345   5.193   1.966
 4646TIP3    H213880   5.232   5.265   2.037
 4647TIP3   OH213881   7.368   0.536   6.527
 4647TIP3    H113882   7.377   0.602   6.596
 4647TIP3    H213883   7.440   0.554   6.467
 4648TIP3   OH213884   4.983   1.153   4.018
 4648TIP3    H113885   4.904   1.183   3.973
 4648TIP3    H213886   5.054   1.177   3.958
 4649TIP3   OH213887   4.889   2.296   3.091
 4649TIP3    H113888   4.938   2.315   3.171
 4649TIP3    H213889   4.891   2.201   3.083
 4650TIP3   OH213890   5.089   5.133   4.255
 4650TIP3    H113891   5.180   5.126   4.227
 4650TIP3    H213892   5.041   5.074   4.197
 4651TIP3   OH213893   5.287   5.883   3.521
 4651TIP3    H113894   5.282   5.822   3.594
 4651TIP3    H213895   5.355   5.946   3.546
 4652TIP3   OH213896   1.028   0.071   6.407
 4652TIP3    H113897   1.081   0.074   6.327
 4652TIP3    H213898   1.066  -0.001   6.457
 4653TIP3   OH213899   0.480   3.360   4.180
 4653TIP3    H113900   0.568   3.377   4.146
 4653TIP3    H213901   0.474   3.264   4.184
 4654TIP3   OH213902   3.761   2.241   1.565
 4654TIP3    H113903   3.743   2.264   1.656
 4654TIP3    H213904   3.828   2.303   1.537
 4655TIP3   OH213905   4.718   5.124   0.301
 4655TIP3    H113906   4.775   5.046   0.303
 4655TIP3    H213907   4.709   5.144   0.208
 4656TIP3   OH213908   6.946   7.794   5.576
 4656TIP3    H113909   7.018   7.732   5.586
 4656TIP3    H213910   6.903   7.768   5.494
 4657TIP3   OH213911   5.518   5.338   1.781
 4657TIP3    H113912   5.593   5.294   1.822
 4657TIP3    H213913   5.446   5.325   1.843
 4658TIP3   OH213914   0.283   1.202   5.929
 4658TIP3    H113915   0.335   1.195   5.849
 4658TIP3    H213916   0.201   1.156   5.908
 4659TIP3   OH213917   2.078   2.503   5.199
 4659TIP3    H113918   2.031   2.585   5.183
 4659TIP3    H213919   2.163   2.516   5.157
 4660TIP3   OH213920   1.337   2.562   0.418
 4660TIP3    H113921   1.390   2.501   0.469
 4660TIP3    H213922   1.397   2.631   0.392
 4661TIP3   OH213923   7.369   2.175   0.165
 4661TIP3    H113924   7.389   2.095   0.213
 4661TIP3    H213925   7.410   2.163   0.079
 4662TIP3   OH213926   1.449   7.289   3.883
 4662TIP3    H113927   1.368   7.255   3.844
 4662TIP3    H213928   1.519   7.247   3.834
 4663TIP3   OH213929   3.601   0.154   1.667
 4663TIP3    H113930   3.512   0.177   1.641
 4663TIP3    H213931   3.624   0.219   1.734
 4664TIP3   OH213932   6.131   2.130   0.993
 4664TIP3    H113933   6.220   2.154   0.967
 4664TIP3    H213934   6.115   2.048   0.947
 4665TIP3   OH213935   4.809   3.530   5.690
 4665TIP3    H113936   4.898   3.534   5.726
 4665TIP3    H213937   4.822   3.525   5.595
 4666TIP3   OH213938   0.432   2.604   2.169
 4666TIP3    H113939   0.434   2.562   2.255
 4666TIP3    H213940   0.513   2.655   2.165
 4667TIP3   OH213941   3.624   6.330   2.232
 4667TIP3    H113942   3.677   6.314   2.310
 4667TIP3    H213943   3.550   6.381   2.265
 4668TIP3   OH213944   7.120   2.904   2.863
 4668TIP3    H113945   7.181   2.881   2.933
 4668TIP3    H213946   7.087   2.819   2.832
 4669TIP3   OH213947   3.412   0.277   5.492
 4669TIP3    H113948   3.349   0.336   5.532
 4669TIP3    H213949   3.450   0.229   5.566
 4670TIP3   OH213950   1.238   7.188   2.470
 4670TIP3    H113951   1.143   7.188   2.483
 4670TIP3    H213952   1.250   7.155   2.381
 4671TIP3   OH213953   7.434   6.552   0.397
 4671TIP3    H113954   7.349   6.595   0.396
 4671TIP3    H213955   7.495   6.619   0.366
 4672TIP3   OH213956   4.648   7.418   1.929
 4672TIP3    H113957   4.606   7.353   1.873
 4672TIP3    H213958   4.690   7.367   1.998
 4673TIP3   OH213959   3.066   2.594   3.142
 4673TIP3    H113960   3.094   2.624   3.228
 4673TIP3    H213961   2.980   2.633   3.129
 4674TIP3   OH213962   6.117   6.165   1.433
 4674TIP3    H113963   6.045   6.211   1.478
 4674TIP3    H213964   6.196   6.213   1.460
 4675TIP3   OH213965   6.055   0.470   1.361
 4675TIP3    H113966   6.105   0.446   1.283
 4675TIP3    H213967   6.064   0.394   1.419
 4676TIP3   OH213968   4.031   4.763   2.941
 4676TIP3    H113969   4.028   4.823   2.866
 4676TIP3    H213970   3.940   4.737   2.955
 4677TIP3   OH213971   1.273   1.297   0.390
 4677TIP3    H113972   1.293   1.361   0.322
 4677TIP3    H213973   1.330   1.322   0.463
 4678TIP3   OH213974   3.866   6.565   5.841
 4678TIP3    H113975   3.819   6.482   5.849
 4678TIP3    H213976   3.866   6.601   5.930
 4679TIP3   OH213977   7.955   4.656   5.388
 4679TIP3    H113978   8.021   4.724   5.379
 4679TIP3    H213979   7.886   4.679   5.325
 4680TIP3   OH213980   6.235   2.759   3.763
 4680TIP3    H113981   6.241   2.747   3.668
 4680TIP3    H213982   6.142   2.778   3.779
 4681TIP3   OH213983   1.297   7.020   6.235
 4681TIP3    H113984   1.333   7.001   6.149
 4681TIP3    H213985   1.336   6.955   6.293
 4682TIP3   OH213986   6.122   7.217   4.186
 4682TIP3    H113987   6.186   7.166   4.136
 4682TIP3    H213988   6.068   7.151   4.230
 4683TIP3   OH213989   7.616   4.411   4.650
 4683TIP3    H113990   7.641   4.500   4.622
 4683TIP3    H213991   7.541   4.424   4.708
 4684TIP3   OH213992   5.518   0.325   3.226
 4684TIP3    H113993   5.589   0.343   3.287
 4684TIP3    H213994   5.522   0.397   3.162
 4685TIP3   OH213995   1.594   2.405   5.551
 4685TIP3    H113996   1.548   2.440   5.474
 4685TIP3    H213997   1.530   2.348   5.593
 4686TIP3   OH213998   4.483   0.796   6.496
 4686TIP3    H113999   4.407   0.749   6.463
 4686TIP3    H214000   4.458   0.889   6.492
 4687TIP3   OH214001   1.998   3.821   0.585
 4687TIP3    H114002   1.979   3.795   0.676
 4687TIP3    H214003   2.053   3.751   0.551
 4688TIP3   OH214004   2.290   6.413   4.844
 4688TIP3    H114005   2.304   6.504   4.819
 4688TIP3    H214006   2.214   6.385   4.794
 4689TIP3   OH214007   0.868   0.782   1.398
 4689TIP3    H114008   0.939   0.798   1.459
 4689TIP3    H214009   0.795   0.752   1.453
 4690TIP3   OH214010   1.051   2.471   4.410
 4690TIP3    H114011   1.041   2.554   4.363
 4690TIP3    H214012   1.074   2.497   4.500
 4691TIP3   OH214013   7.661   1.576   3.746
 4691TIP3    H114014   7.704   1.592   3.661
 4691TIP3    H214015   7.568   1.582   3.727
 4692TIP3   OH214016   1.016   6.820   5.406
 4692TIP3    H114017   1.086   6.855   5.461
 4692TIP3    H214018   0.937   6.830   5.459
 4693TIP3   OH214019   8.346   3.142   6.665
 4693TIP3    H114020   8.294   3.221   6.660
 4693TIP3    H214021   8.282   3.071   6.676
 4694TIP3   OH214022   2.256   5.144   3.880
 4694TIP3    H114023   2.172   5.182   3.852
 4694TIP3    H214024   2.260   5.059   3.836
 4695TIP3   OH214025   7.144   7.536   5.755
 4695TIP3    H114026   7.051   7.519   5.768
 4695TIP3    H214027   7.186   7.451   5.768
 4696TIP3   OH214028   1.102   5.984   6.447
 4696TIP3    H114029   1.170   6.051   6.453
 4696TIP3    H214030   1.036   6.021   6.388
 4697TIP3   OH214031   6.872   2.285   3.532
 4697TIP3    H114032   6.783   2.297   3.563
 4697TIP3    H214033   6.888   2.191   3.541
 4698TIP3   OH214034   0.792   6.517   3.919
 4698TIP3    H114035   0.780   6.439   3.865
 4698TIP3    H214036   0.736   6.502   3.995
 4699TIP3   OH214037   7.245   5.751   0.360
 4699TIP3    H114038   7.175   5.688   0.349
 4699TIP3    H214039   7.296   5.717   0.434
 4700TIP3   OH214040   7.800   6.721   5.684
 4700TIP3    H114041   7.834   6.634   5.663
 4700TIP3    H214042   7.851   6.780   5.628
 4701TIP3   OH214043   3.628   5.596   5.992
 4701TIP3    H114044   3.660   5.684   6.011
 4701TIP3    H214045   3.540   5.610   5.955
 4702TIP3   OH214046   8.220   7.508   3.575
 4702TIP3    H114047   8.306   7.538   3.543
 4702TIP3    H214048   8.203   7.563   3.651
 4703TIP3   OH214049   5.482   3.636   5.980
 4703TIP3    H114050   5.500   3.715   6.030
 4703TIP3    H214051   5.413   3.661   5.919
 4704TIP3   OH214052   1.360   2.537   4.542
 4704TIP3    H114053   1.275   2.573   4.569
 4704TIP3    H214054   1.421   2.609   4.556
 4705TIP3   OH214055   7.403   5.125   1.280
 4705TIP3    H114056   7.482   5.176   1.258
 4705TIP3    H214057   7.418   5.096   1.370
 4706TIP3   OH214058   0.843   2.181   4.263
 4706TIP3    H114059   0.815   2.148   4.348
 4706TIP3    H214060   0.794   2.129   4.199
 4707TIP3   OH214061   5.627   6.654   2.099
 4707TIP3    H114062   5.624   6.672   2.193
 4707TIP3    H214063   5.631   6.740   2.059
 4708TIP3   OH214064   8.249   0.733   1.858
 4708TIP3    H114065   8.217   0.701   1.774
 4708TIP3    H214066   8.212   0.821   1.867
 4709TIP3   OH214067   8.187   6.662   5.169
 4709TIP3    H114068   8.219   6.751   5.186
 4709TIP3    H214069   8.261   6.606   5.195
 4710TIP3   OH214070   1.791   6.646   6.887
 4710TIP3    H114071   1.841   6.602   6.818
 4710TIP3    H214072   1.773   6.733   6.852
 4711TIP3   OH214073   4.274   0.288   0.847
 4711TIP3    H114074   4.180   0.283   0.828
 4711TIP3    H214075   4.315   0.305   0.762
 4712TIP3   OH214076   0.110   1.870   4.788
 4712TIP3    H114077   0.040   1.805   4.795
 4712TIP3    H214078   0.186   1.821   4.758
 4713TIP3   OH214079   4.583   4.511   0.376
 4713TIP3    H114080   4.618   4.512   0.287
 4713TIP3    H214081   4.571   4.418   0.396
 4714TIP3   OH214082   4.104   2.869   3.925
 4714TIP3    H114083   4.107   2.774   3.911
 4714TIP3    H214084   4.137   2.881   4.014
 4715TIP3   OH214085   2.124   7.433   2.810
 4715TIP3    H114086   2.067   7.509   2.802
 4715TIP3    H214087   2.142   7.408   2.719
 4716TIP3   OH214088   4.399   6.195   5.795
 4716TIP3    H114089   4.466   6.249   5.753
 4716TIP3    H214090   4.347   6.256   5.847
 4717TIP3   OH214091   4.282   6.272   6.441
 4717TIP3    H114092   4.340   6.297   6.514
 4717TIP3    H214093   4.235   6.195   6.474
 4718TIP3   OH214094   2.476   3.452   5.258
 4718TIP3    H114095   2.465   3.539   5.220
 4718TIP3    H214096   2.570   3.445   5.276
 4719TIP3   OH214097   1.477   5.826   6.600
 4719TIP3    H114098   1.463   5.896   6.536
 4719TIP3    H214099   1.572   5.818   6.607
 4720TIP3   OH214100   1.529   3.478   2.350
 4720TIP3    H114101   1.532   3.573   2.358
 4720TIP3    H214102   1.450   3.460   2.299
 4721TIP3   OH214103   2.359   1.266   5.632
 4721TIP3    H114104   2.369   1.174   5.656
 4721TIP3    H214105   2.449   1.298   5.623
 4722TIP3   OH214106   0.376   1.717   6.119
 4722TIP3    H114107   0.351   1.646   6.060
 4722TIP3    H214108   0.442   1.767   6.071
 4723TIP3   OH214109   4.801   7.016   4.949
 4723TIP3    H114110   4.862   6.944   4.968
 4723TIP3    H214111   4.792   7.062   5.033
 4724TIP3   OH214112   3.553   1.694   5.702
 4724TIP3    H114113   3.588   1.625   5.646
 4724TIP3    H214114   3.616   1.702   5.773
 4725TIP3   OH214115   5.549   4.115   6.516
 4725TIP3    H114116   5.473   4.172   6.504
 4725TIP3    H214117   5.513   4.027   6.522
 4726TIP3   OH214118   3.576   5.568   0.217
 4726TIP3    H114119   3.668   5.546   0.206
 4726TIP3    H214120   3.562   5.570   0.312
 4727TIP3   OH214121   3.555   4.445   5.896
 4727TIP3    H114122   3.486   4.490   5.945
 4727TIP3    H214123   3.513   4.422   5.813
 4728TIP3   OH214124   4.253   7.818   1.886
 4728TIP3    H114125   4.216   7.826   1.798
 4728TIP3    H214126   4.296   7.733   1.887
 4729TIP3   OH214127   6.156   0.809   0.558
 4729TIP3    H114128   6.172   0.716   0.542
 4729TIP3    H214129   6.232   0.838   0.609
 4730TIP3   OH214130   4.406   5.346   2.576
 4730TIP3    H114131   4.397   5.308   2.489
 4730TIP3    H214132   4.386   5.439   2.564
 4731TIP3   OH214133   0.006   7.558   2.989
 4731TIP3    H114134   0.032   7.639   2.946
 4731TIP3    H214135   0.057   7.490   2.945
 4732TIP3   OH214136   5.597   5.978   0.650
 4732TIP3    H114137   5.615   6.072   0.653
 4732TIP3    H214138   5.588   5.958   0.557
 4733TIP3   OH214139   2.235   0.201   5.420
 4733TIP3    H114140   2.322   0.232   5.394
 4733TIP3    H214141   2.175   0.253   5.367
 4734TIP3   OH214142   2.291   2.813   2.361
 4734TIP3    H114143   2.369   2.864   2.384
 4734TIP3    H214144   2.300   2.798   2.267
 4735TIP3   OH214145   7.651   5.291   1.269
 4735TIP3    H114146   7.745   5.279   1.285
 4735TIP3    H214147   7.645   5.313   1.177
 4736TIP3   OH214148   2.611   1.257   0.511
 4736TIP3    H114149   2.582   1.339   0.550
 4736TIP3    H214150   2.696   1.277   0.472
 4737TIP3   OH214151   3.420   0.670   0.447
 4737TIP3    H114152   3.388   0.587   0.483
 4737TIP3    H214153   3.365   0.737   0.488
 4738TIP3   OH214154   3.256   4.972   3.365
 4738TIP3    H114155   3.196   4.912   3.410
 4738TIP3    H214156   3.343   4.938   3.387
 4739TIP3   OH214157   1.267   4.173   0.677
 4739TIP3    H114158   1.251   4.104   0.741
 4739TIP3    H214159   1.182   4.216   0.665
 4740TIP3   OH214160   1.025   5.262   2.025
 4740TIP3    H114161   1.074   5.316   2.086
 4740TIP3    H214162   1.060   5.285   1.939
 4741TIP3   OH214163   1.229   5.384   5.101
 4741TIP3    H114164   1.149   5.362   5.055
 4741TIP3    H214165   1.215   5.353   5.191
 4742TIP3   OH214166   4.678   5.813   5.900
 4742TIP3    H114167   4.686   5.908   5.904
 4742TIP3    H214168   4.764   5.780   5.923
 4743TIP3   OH214169   2.332   3.050   4.768
 4743TIP3    H114170   2.394   3.015   4.704
 4743TIP3    H214171   2.306   2.973   4.819
 4744TIP3   OH214172   2.080   1.209   1.471
 4744TIP3    H114173   1.994   1.171   1.452
 4744TIP3    H214174   2.076   1.233   1.563
 4745TIP3   OH214175   4.634   6.390   6.030
 4745TIP3    H114176   4.721   6.352   6.025
 4745TIP3    H214177   4.577   6.318   6.058
 4746TIP3   OH214178   6.522   6.652   2.683
 4746TIP3    H114179   6.463   6.679   2.612
 4746TIP3    H214180   6.533   6.731   2.736
 4747TIP3   OH214181   6.264   7.115   1.065
 4747TIP3    H114182   6.278   7.187   1.003
 4747TIP3    H214183   6.314   7.042   1.028
 4748TIP3   OH214184   3.227   5.655   1.132
 4748TIP3    H114185   3.249   5.747   1.114
 4748TIP3    H214186   3.252   5.609   1.052
 4749TIP3   OH214187   7.793   3.206   5.332
 4749TIP3    H114188   7.832   3.261   5.400
 4749TIP3    H214189   7.808   3.117   5.363
 4750TIP3   OH214190   6.900   4.092   3.118
 4750TIP3    H114191   6.927   4.181   3.138
 4750TIP3    H214192   6.888   4.091   3.023
 4751TIP3   OH214193   5.122   0.038   1.802
 4751TIP3    H114194   5.206   0.011   1.840
 4751TIP3    H214195   5.069  -0.042   1.802
 4752TIP3   OH214196   4.647   2.822   5.297
 4752TIP3    H114197   4.643   2.812   5.392
 4752TIP3    H214198   4.652   2.916   5.282
 4753TIP3   OH214199   5.542   5.742   2.161
 4753TIP3    H114200   5.525   5.653   2.191
 4753TIP3    H214201   5.554   5.793   2.241
 4754TIP3   OH214202   3.871   0.199   5.653
 4754TIP3    H114203   3.912   0.285   5.645
 4754TIP3    H214204   3.871   0.164   5.564
 4755TIP3   OH214205   2.144   3.323   1.027
 4755TIP3    H114206   2.135   3.324   0.932
 4755TIP3    H214207   2.096   3.400   1.057
 4756TIP3   OH214208   1.957   5.174   0.953
 4756TIP3    H114209   2.039   5.125   0.963
 4756TIP3    H214210   1.978   5.244   0.891
 4757TIP3   OH214211   5.371   2.594   5.225
 4757TIP3    H114212   5.418   2.652   5.165
 4757TIP3    H214213   5.440   2.541   5.265
 4758TIP3   OH214214   7.545   4.716   5.360
 4758TIP3    H114215   7.562   4.657   5.434
 4758TIP3    H214216   7.631   4.733   5.322
 4759TIP3   OH214217   5.879   4.824   5.649
 4759TIP3    H114218   5.812   4.789   5.590
 4759TIP3    H214219   5.831   4.845   5.729
 4760TIP3   OH214220   7.147   4.621   6.735
 4760TIP3    H114221   7.216   4.572   6.778
 4760TIP3    H214222   7.095   4.555   6.690
 4761TIP3   OH214223   0.983   5.437   1.078
 4761TIP3    H114224   0.981   5.341   1.070
 4761TIP3    H214225   1.015   5.467   0.992
 4762TIP3   OH214226   1.605   6.581   4.229
 4762TIP3    H114227   1.569   6.667   4.252
 4762TIP3    H214228   1.673   6.566   4.294
 4763TIP3   OH214229   0.084   7.891   5.291
 4763TIP3    H114230   0.123   7.926   5.211
 4763TIP3    H214231   0.008   7.841   5.261
 4764TIP3   OH214232   4.250   6.474   3.348
 4764TIP3    H114233   4.198   6.507   3.421
 4764TIP3    H214234   4.246   6.379   3.357
 4765TIP3   OH214235   3.932   2.342   3.430
 4765TIP3    H114236   3.866   2.410   3.441
 4765TIP3    H214237   4.000   2.363   3.495
 4766TIP3   OH214238   3.966   6.340   1.754
 4766TIP3    H114239   4.047   6.387   1.736
 4766TIP3    H214240   3.897   6.396   1.720
 4767TIP3   OH214241   7.726   0.231   6.351
 4767TIP3    H114242   7.689   0.292   6.287
 4767TIP3    H214243   7.693   0.262   6.436
 4768TIP3   OH214244   6.818   2.087   0.704
 4768TIP3    H114245   6.884   2.105   0.771
 4768TIP3    H214246   6.867   2.086   0.622
 4769TIP3   OH214247   8.214   0.334   0.056
 4769TIP3    H114248   8.260   0.312  -0.025
 4769TIP3    H214249   8.221   0.255   0.110
 4770TIP3   OH214250   3.668   3.397   3.516
 4770TIP3    H114251   3.674   3.404   3.421
 4770TIP3    H214252   3.702   3.481   3.548
 4771TIP3   OH214253   0.745   5.164   1.323
 4771TIP3    H114254   0.715   5.218   1.250
 4771TIP3    H214255   0.714   5.076   1.302
 4772TIP3   OH214256   5.865   0.915   4.991
 4772TIP3    H114257   5.911   0.989   4.951
 4772TIP3    H214258   5.841   0.859   4.917
 4773TIP3   OH214259   7.470   5.963   1.877
 4773TIP3    H114260   7.457   6.006   1.962
 4773TIP3    H214261   7.487   5.871   1.899
 4774TIP3   OH214262   8.167   7.036   4.638
 4774TIP3    H114263   8.212   6.952   4.651
 4774TIP3    H214264   8.076   7.019   4.662
 4775TIP3   OH214265   0.534   5.646   2.095
 4775TIP3    H114266   0.540   5.723   2.152
 4775TIP3    H214267   0.572   5.674   2.012
 4776TIP3   OH214268   3.479   0.279   1.327
 4776TIP3    H114269   3.503   0.283   1.235
 4776TIP3    H214270   3.416   0.351   1.338
 4777TIP3   OH214271   7.391   1.389   5.033
 4777TIP3    H114272   7.428   1.360   5.117
 4777TIP3    H214273   7.356   1.477   5.051
 4778TIP3   OH214274   0.946   3.598   3.397
 4778TIP3    H114275   1.005   3.615   3.324
 4778TIP3    H214276   0.896   3.521   3.370
 4779TIP3   OH214277   4.349   7.274   0.487
 4779TIP3    H114278   4.340   7.196   0.542
 4779TIP3    H214279   4.429   7.259   0.436
 4780TIP3   OH214280   7.794   3.852   2.500
 4780TIP3    H114281   7.707   3.891   2.489
 4780TIP3    H214282   7.843   3.918   2.549
 4781TIP3   OH214283   5.892   0.327   4.566
 4781TIP3    H114284   5.973   0.368   4.536
 4781TIP3    H214285   5.903   0.234   4.544
 4782TIP3   OH214286   2.449   2.613   3.279
 4782TIP3    H114287   2.373   2.575   3.323
 4782TIP3    H214288   2.496   2.537   3.243
 4783TIP3   OH214289   6.170   6.032   3.209
 4783TIP3    H114290   6.099   6.082   3.249
 4783TIP3    H214291   6.167   5.946   3.252
 4784TIP3   OH214292   2.487   0.773   2.038
 4784TIP3    H114293   2.491   0.721   1.958
 4784TIP3    H214294   2.444   0.854   2.012
 4785TIP3   OH214295   5.778   0.817   4.736
 4785TIP3    H114296   5.720   0.770   4.676
 4785TIP3    H214297   5.860   0.826   4.689
 4786TIP3   OH214298   1.554   7.368   0.200
 4786TIP3    H114299   1.460   7.386   0.200
 4786TIP3    H214300   1.593   7.443   0.244
 4787TIP3   OH214301   3.989   3.879   1.182
 4787TIP3    H114302   4.030   3.942   1.123
 4787TIP3    H214303   3.968   3.930   1.261
 4788TIP3   OH214304   8.218   1.136   0.072
 4788TIP3    H114305   8.223   1.193   0.149
 4788TIP3    H214306   8.265   1.057   0.098
 4789TIP3   OH214307   2.893   2.454   6.822
 4789TIP3    H114308   2.856   2.374   6.784
 4789TIP3    H214309   2.883   2.443   6.916
 4790TIP3   OH214310   3.701   3.579   0.402
 4790TIP3    H114311   3.788   3.603   0.370
 4790TIP3    H214312   3.642   3.599   0.329
 4791TIP3   OH214313   5.165   7.415   3.215
 4791TIP3    H114314   5.095   7.461   3.170
 4791TIP3    H214315   5.243   7.468   3.199
 4792TIP3   OH214316   7.635   5.625   6.268
 4792TIP3    H114317   7.704   5.629   6.202
 4792TIP3    H214318   7.646   5.705   6.319
 4793TIP3   OH214319   5.417   1.079   5.467
 4793TIP3    H114320   5.336   1.047   5.507
 4793TIP3    H214321   5.396   1.168   5.439
 4794TIP3   OH214322   2.929   2.128   0.111
 4794TIP3    H114323   2.952   2.167   0.195
 4794TIP3    H214324   2.905   2.038   0.132
 4795TIP3   OH214325   1.142   0.816   1.936
 4795TIP3    H114326   1.163   0.731   1.975
 4795TIP3    H214327   1.082   0.857   1.999
 4796TIP3   OH214328   5.195   7.724   1.949
 4796TIP3    H114329   5.275   7.758   1.989
 4796TIP3    H214330   5.222   7.693   1.863
 4797TIP3   OH214331   2.337   7.021   6.145
 4797TIP3    H114332   2.281   7.011   6.222
 4797TIP3    H214333   2.342   7.115   6.131
 4798TIP3   OH214334   5.509   4.257   2.157
 4798TIP3    H114335   5.528   4.324   2.090
 4798TIP3    H214336   5.507   4.305   2.239
 4799TIP3   OH214337   3.066   5.244   0.304
 4799TIP3    H114338   3.127   5.285   0.365
 4799TIP3    H214339   3.031   5.169   0.352
 4800TIP3   OH214340   4.463   0.516   3.886
 4800TIP3    H114341   4.377   0.540   3.922
 4800TIP3    H214342   4.464   0.558   3.799
 4801TIP3   OH214343   4.239   6.525   4.863
 4801TIP3    H114344   4.172   6.568   4.809
 4801TIP3    H214345   4.318   6.525   4.808
 4802TIP3   OH214346   2.511   5.550   3.044
 4802TIP3    H114347   2.471   5.602   2.975
 4802TIP3    H214348   2.452   5.476   3.057
 4803TIP3   OH214349   2.737   2.985   6.434
 4803TIP3    H114350   2.661   3.032   6.400
 4803TIP3    H214351   2.749   3.019   6.523
 4804TIP3   OH214352   6.658   2.368   6.577
 4804TIP3    H114353   6.711   2.356   6.498
 4804TIP3    H214354   6.720   2.355   6.650
 4805TIP3   OH214355   1.588   6.246   5.513
 4805TIP3    H114356   1.536   6.225   5.436
 4805TIP3    H214357   1.677   6.221   5.488
 4806TIP3   OH214358   0.885   0.665   2.286
 4806TIP3    H114359   0.919   0.753   2.299
 4806TIP3    H214360   0.897   0.648   2.192
 4807TIP3   OH214361   7.092   2.059   2.065
 4807TIP3    H114362   7.131   2.030   2.147
 4807TIP3    H214363   7.085   2.154   2.073
 4808TIP3   OH214364   1.042   7.738   4.016
 4808TIP3    H114365   1.056   7.684   3.938
 4808TIP3    H214366   1.117   7.718   4.072
 4809TIP3   OH214367   5.406   7.480   3.142
 4809TIP3    H114368   5.473   7.487   3.209
 4809TIP3    H214369   5.437   7.535   3.070
 4810TIP3   OH214370   7.979   3.968   4.291
 4810TIP3    H114371   7.988   3.886   4.340
 4810TIP3    H214372   7.979   3.941   4.199
 4811TIP3   OH214373   6.096   3.318   6.219
 4811TIP3    H114374   6.106   3.274   6.304
 4811TIP3    H214375   6.161   3.276   6.163
 4812TIP3   OH214376   7.509   1.150   2.213
 4812TIP3    H114377   7.577   1.133   2.148
 4812TIP3    H214378   7.458   1.221   2.176
 4813TIP3   OH214379   2.284   2.852   2.835
 4813TIP3    H114380   2.296   2.797   2.913
 4813TIP3    H214381   2.195   2.886   2.844
 4814TIP3   OH214382   0.094   5.612   1.200
 4814TIP3    H114383   0.058   5.698   1.223
 4814TIP3    H214384   0.074   5.558   1.276
 4815TIP3   OH214385   6.271   4.560   5.196
 4815TIP3    H114386   6.216   4.617   5.143
 4815TIP3    H214387   6.360   4.584   5.173
 4816TIP3   OH214388   1.204   7.220   3.108
 4816TIP3    H114389   1.172   7.310   3.106
 4816TIP3    H214390   1.139   7.173   3.161
 4817TIP3   OH214391   1.225   1.496   2.802
 4817TIP3    H114392   1.186   1.471   2.885
 4817TIP3    H214393   1.233   1.414   2.753
 4818TIP3   OH214394   7.654   2.943   0.962
 4818TIP3    H114395   7.727   2.982   0.914
 4818TIP3    H214396   7.696   2.885   1.026
 4819TIP3   OH214397   0.375   0.369   2.252
 4819TIP3    H114398   0.405   0.355   2.162
 4819TIP3    H214399   0.387   0.285   2.295
 4820TIP3   OH214400   7.426   0.225   6.593
 4820TIP3    H114401   7.478   0.212   6.672
 4820TIP3    H214402   7.404   0.318   6.595
 4821TIP3   OH214403   5.261   1.695   5.864
 4821TIP3    H114404   5.196   1.642   5.910
 4821TIP3    H214405   5.248   1.675   5.772
 4822TIP3   OH214406   0.515   3.515   6.140
 4822TIP3    H114407   0.508   3.479   6.051
 4822TIP3    H214408   0.444   3.472   6.188
 4823TIP3   OH214409   7.743   6.578   3.006
 4823TIP3    H114410   7.813   6.642   2.990
 4823TIP3    H214411   7.690   6.580   2.926
 4824TIP3   OH214412   7.545   1.660   3.171
 4824TIP3    H114413   7.588   1.598   3.229
 4824TIP3    H214414   7.485   1.709   3.227
 4825TIP3   OH214415   4.573   4.093   3.505
 4825TIP3    H114416   4.532   4.041   3.574
 4825TIP3    H214417   4.611   4.028   3.446
 4826TIP3   OH214418   4.015   7.885   4.620
 4826TIP3    H114419   4.060   7.800   4.624
 4826TIP3    H214420   3.984   7.900   4.710
 4827TIP3   OH214421   2.710   7.469   2.414
 4827TIP3    H114422   2.626   7.439   2.380
 4827TIP3    H214423   2.687   7.515   2.495
 4828TIP3   OH214424   3.937   0.251   4.421
 4828TIP3    H114425   3.854   0.232   4.463
 4828TIP3    H214426   3.932   0.208   4.336
 4829TIP3   OH214427   7.282   4.074   0.954
 4829TIP3    H114428   7.258   4.129   0.880
 4829TIP3    H214429   7.358   4.116   0.992
 4830TIP3   OH214430   6.587   1.251   5.823
 4830TIP3    H114431   6.573   1.345   5.812
 4830TIP3    H214432   6.502   1.217   5.852
 4831TIP3   OH214433   0.480   1.589   3.226
 4831TIP3    H114434   0.546   1.553   3.167
 4831TIP3    H214435   0.468   1.522   3.293
 4832TIP3   OH214436   7.444   4.340   0.257
 4832TIP3    H114437   7.473   4.251   0.237
 4832TIP3    H214438   7.364   4.328   0.309
 4833TIP3   OH214439   0.007   0.186   0.344
 4833TIP3    H114440   0.048   0.255   0.291
 4833TIP3    H214441   0.044   0.105   0.311
 4834TIP3   OH214442   1.146   1.923   4.599
 4834TIP3    H114443   1.227   1.961   4.635
 4834TIP3    H214444   1.076   1.965   4.650
 4835TIP3   OH214445   2.314   4.982   6.303
 4835TIP3    H114446   2.345   5.067   6.270
 4835TIP3    H214447   2.381   4.954   6.365
 4836TIP3   OH214448   1.752   2.850   6.469
 4836TIP3    H114449   1.746   2.840   6.374
 4836TIP3    H214450   1.748   2.761   6.503
 4837TIP3   OH214451   3.843   5.068   6.073
 4837TIP3    H114452   3.878   5.026   6.152
 4837TIP3    H214453   3.873   5.158   6.078
 4838TIP3   OH214454   4.550   4.603   4.452
 4838TIP3    H114455   4.498   4.576   4.377
 4838TIP3    H214456   4.543   4.530   4.514
 4839TIP3   OH214457   7.596   0.631   5.372
 4839TIP3    H114458   7.636   0.660   5.290
 4839TIP3    H214459   7.596   0.709   5.428
 4840TIP3   OH214460   0.149   3.886   2.366
 4840TIP3    H114461   0.151   3.871   2.272
 4840TIP3    H214462   0.095   3.814   2.401
 4841TIP3   OH214463   1.058   7.627   5.417
 4841TIP3    H114464   1.132   7.647   5.359
 4841TIP3    H214465   1.095   7.568   5.483
 4842TIP3   OH214466   5.357   7.167   0.517
 4842TIP3    H114467   5.341   7.186   0.424
 4842TIP3    H214468   5.381   7.251   0.555
 4843TIP3   OH214469   0.328   2.996   4.825
 4843TIP3    H114470   0.316   3.089   4.804
 4843TIP3    H214471   0.385   2.997   4.902
 4844TIP3   OH214472   3.363   0.232   4.794
 4844TIP3    H114473   3.347   0.138   4.801
 4844TIP3    H214474   3.372   0.247   4.700
 4845TIP3   OH214475   4.496   4.870   3.080
 4845TIP3    H114476   4.422   4.816   3.107
 4845TIP3    H214477   4.461   4.959   3.076
 4846TIP3   OH214478   4.320   0.465   5.918
 4846TIP3    H114479   4.282   0.504   5.839
 4846TIP3    H214480   4.407   0.435   5.891
 4847TIP3   OH214481   2.167   5.929   0.150
 4847TIP3    H114482   2.188   5.863   0.216
 4847TIP3    H214483   2.115   5.995   0.198
 4848TIP3   OH214484   2.852   6.916   1.335
 4848TIP3    H114485   2.922   6.852   1.328
 4848TIP3    H214486   2.842   6.931   1.429
 4849TIP3   OH214487   7.747   6.174   6.337
 4849TIP3    H114488   7.659   6.138   6.322
 4849TIP3    H214489   7.794   6.105   6.383
 4850TIP3   OH214490   5.668   6.658   1.108
 4850TIP3    H114491   5.673   6.623   1.019
 4850TIP3    H214492   5.759   6.679   1.130
 4851TIP3   OH214493   3.834   0.439   0.513
 4851TIP3    H114494   3.758   0.381   0.526
 4851TIP3    H214495   3.818   0.480   0.428
 4852TIP3   OH214496   4.775   4.306   2.858
 4852TIP3    H114497   4.822   4.326   2.777
 4852TIP3    H214498   4.724   4.227   2.837
 4853TIP3   OH214499   8.045   3.079   3.891
 4853TIP3    H114500   8.090   3.143   3.946
 4853TIP3    H214501   8.095   2.998   3.904
 4854TIP3   OH214502   7.953   0.533   6.143
 4854TIP3    H114503   7.960   0.465   6.076
 4854TIP3    H214504   8.031   0.521   6.198
 4855TIP3   OH214505   6.406   2.665   3.093
 4855TIP3    H114506   6.470   2.655   3.164
 4855TIP3    H214507   6.458   2.691   3.017
 4856TIP3   OH214508   6.256   0.880   3.976
 4856TIP3    H114509   6.332   0.832   3.942
 4856TIP3    H214510   6.286   0.970   3.985
 4857TIP3   OH214511   2.067   7.359   0.118
 4857TIP3    H114512   2.032   7.270   0.123
 4857TIP3    H214513   2.055   7.384   0.026
 4858TIP3   OH214514   7.706   5.770   3.676
 4858TIP3    H114515   7.680   5.768   3.584
 4858TIP3    H214516   7.672   5.688   3.712
 4859TIP3   OH214517   4.067   3.289   5.589
 4859TIP3    H114518   3.994   3.285   5.527
 4859TIP3    H214519   4.038   3.352   5.656
 4860TIP3   OH214520   8.204   7.177   3.179
 4860TIP3    H114521   8.113   7.156   3.200
 4860TIP3    H214522   8.199   7.254   3.123
 4861TIP3   OH214523   7.753   7.569   0.216
 4861TIP3    H114524   7.818   7.583   0.284
 4861TIP3    H214525   7.787   7.494   0.166
 4862TIP3   OH214526   6.873   3.641   0.843
 4862TIP3    H114527   6.924   3.650   0.763
 4862TIP3    H214528   6.938   3.644   0.914
 4863TIP3   OH214529   1.555   4.348   2.830
 4863TIP3    H114530   1.627   4.328   2.769
 4863TIP3    H214531   1.594   4.407   2.894
 4864TIP3   OH214532   8.105   7.505   6.096
 4864TIP3    H114533   8.034   7.452   6.133
 4864TIP3    H214534   8.089   7.593   6.131
 4865TIP3   OH214535   0.821   3.097   5.249
 4865TIP3    H114536   0.875   3.027   5.213
 4865TIP3    H214537   0.794   3.148   5.173
 4866TIP3   OH214538   5.595   4.979   2.464
 4866TIP3    H114539   5.644   5.056   2.493
 4866TIP3    H214540   5.653   4.905   2.483
 4867TIP3   OH214541   2.777   4.996   0.434
 4867TIP3    H114542   2.788   5.085   0.466
 4867TIP3    H214543   2.847   4.985   0.369
 4868TIP3   OH214544   8.259   7.578   4.025
 4868TIP3    H114545   8.212   7.520   4.086
 4868TIP3    H214546   8.301   7.643   4.080
 4869TIP3   OH214547   3.161   3.984   4.203
 4869TIP3    H114548   3.199   3.951   4.121
 4869TIP3    H214549   3.179   3.915   4.267
 4870TIP3   OH214550   4.605   5.468   5.246
 4870TIP3    H114551   4.578   5.512   5.327
 4870TIP3    H214552   4.691   5.430   5.267
 4871TIP3   OH214553   3.101   4.823   3.136
 4871TIP3    H114554   3.063   4.846   3.221
 4871TIP3    H214555   3.108   4.907   3.090
 4872TIP3   OH214556   2.308   0.676   1.303
 4872TIP3    H114557   2.249   0.609   1.338
 4872TIP3    H214558   2.396   0.641   1.316
 4873TIP3   OH214559   0.424   5.784   5.596
 4873TIP3    H114560   0.437   5.778   5.501
 4873TIP3    H214561   0.506   5.753   5.634
 4874TIP3   OH214562   4.163   1.719   1.116
 4874TIP3    H114563   4.154   1.682   1.028
 4874TIP3    H214564   4.185   1.811   1.101
 4875TIP3   OH214565   2.753   0.343   4.576
 4875TIP3    H114566   2.675   0.382   4.616
 4875TIP3    H214567   2.720   0.300   4.497
 4876TIP3   OH214568   4.746   2.533   3.952
 4876TIP3    H114569   4.736   2.495   3.864
 4876TIP3    H214570   4.797   2.468   4.000
 4877TIP3   OH214571   2.394   5.823   3.593
 4877TIP3    H114572   2.309   5.838   3.635
 4877TIP3    H214573   2.375   5.759   3.524
 4878TIP3   OH214574   1.846   2.086   0.490
 4878TIP3    H114575   1.812   1.997   0.498
 4878TIP3    H214576   1.941   2.076   0.502
 4879TIP3   OH214577   7.458   4.235   1.726
 4879TIP3    H114578   7.493   4.164   1.779
 4879TIP3    H214579   7.391   4.194   1.671
 4880TIP3   OH214580   0.725   0.962   3.104
 4880TIP3    H114581   0.738   0.868   3.113
 4880TIP3    H214582   0.636   0.971   3.070
 4881TIP3   OH214583   6.066   1.545   3.654
 4881TIP3    H114584   6.017   1.622   3.627
 4881TIP3    H214585   6.086   1.561   3.746
 4882TIP3   OH214586   4.384   1.922   5.560
 4882TIP3    H114587   4.428   1.989   5.508
 4882TIP3    H214588   4.389   1.843   5.506
 4883TIP3   OH214589   4.910   3.532   6.092
 4883TIP3    H114590   4.959   3.500   6.016
 4883TIP3    H214591   4.889   3.453   6.142
 4884TIP3   OH214592   1.980   1.391   5.222
 4884TIP3    H114593   1.909   1.434   5.272
 4884TIP3    H214594   2.052   1.385   5.285
 4885TIP3   OH214595   2.955   7.669   6.667
 4885TIP3    H114596   3.010   7.723   6.611
 4885TIP3    H214597   2.886   7.729   6.697
 4886TIP3   OH214598   5.249   1.470   2.367
 4886TIP3    H114599   5.300   1.405   2.320
 4886TIP3    H214600   5.314   1.526   2.410
 4887TIP3   OH214601   3.290   5.882   3.181
 4887TIP3    H114602   3.303   5.809   3.120
 4887TIP3    H214603   3.377   5.895   3.221
 4888TIP3   OH214604   0.773   0.401   1.556
 4888TIP3    H114605   0.842   0.443   1.607
 4888TIP3    H214606   0.817   0.329   1.511
 4889TIP3   OH214607   4.182   1.616   1.460
 4889TIP3    H114608   4.169   1.665   1.379
 4889TIP3    H214609   4.188   1.683   1.528
 4890TIP3   OH214610   4.356   2.194   2.163
 4890TIP3    H114611   4.312   2.278   2.152
 4890TIP3    H214612   4.377   2.166   2.073
 4891TIP3   OH214613   0.151   0.268   2.556
 4891TIP3    H114614   0.162   0.340   2.617
 4891TIP3    H214615   0.133   0.310   2.472
 4892TIP3   OH214616   3.923   7.743  -0.017
 4892TIP3    H114617   3.890   7.828   0.013
 4892TIP3    H214618   4.011   7.738   0.019
 4893TIP3   OH214619   1.597   1.062   3.860
 4893TIP3    H114620   1.649   1.118   3.917
 4893TIP3    H214621   1.661   1.009   3.813
 4894TIP3   OH214622   5.628   1.252   5.847
 4894TIP3    H114623   5.662   1.271   5.759
 4894TIP3    H214624   5.629   1.157   5.853
 4895TIP3   OH214625   1.340   2.893   1.760
 4895TIP3    H114626   1.367   2.886   1.668
 4895TIP3    H214627   1.282   2.969   1.762
 4896TIP3   OH214628   2.759   2.593   0.211
 4896TIP3    H114629   2.695   2.544   0.159
 4896TIP3    H214630   2.710   2.668   0.245
 4897TIP3   OH214631   2.639   6.019   2.582
 4897TIP3    H114632   2.711   5.974   2.627
 4897TIP3    H214633   2.584   5.949   2.549
 4898TIP3   OH214634   2.522   6.316   3.831
 4898TIP3    H114635   2.585   6.328   3.902
 4898TIP3    H214636   2.554   6.373   3.761
 4899TIP3   OH214637   5.133   7.583   4.617
 4899TIP3    H114638   5.085   7.625   4.546
 4899TIP3    H214639   5.065   7.556   4.679
 4900TIP3   OH214640   0.863   0.109   6.064
 4900TIP3    H114641   0.952   0.119   6.099
 4900TIP3    H214642   0.812   0.079   6.139
 4901TIP3   OH214643   6.066   5.195   6.556
 4901TIP3    H114644   6.088   5.106   6.528
 4901TIP3    H214645   6.094   5.199   6.647
 4902TIP3   OH214646   0.877   7.589   5.969
 4902TIP3    H114647   0.863   7.684   5.966
 4902TIP3    H214648   0.915   7.573   6.055
 4903TIP3   OH214649   8.395   1.873   6.555
 4903TIP3    H114650   8.366   1.818   6.482
 4903TIP3    H214651   8.323   1.934   6.569
 4904TIP3   OH214652   3.357   2.641   4.318
 4904TIP3    H114653   3.284   2.679   4.268
 4904TIP3    H214654   3.315   2.594   4.390
 4905TIP3   OH214655   1.212   2.008   6.665
 4905TIP3    H114656   1.180   1.951   6.595
 4905TIP3    H214657   1.182   1.966   6.746
 4906TIP3   OH214658   7.399   5.044   2.811
 4906TIP3    H114659   7.405   5.140   2.806
 4906TIP3    H214660   7.445   5.013   2.734
 4907TIP3   OH214661   4.552   1.864   1.529
 4907TIP3    H114662   4.637   1.871   1.573
 4907TIP3    H214663   4.553   1.776   1.490
 4908TIP3   OH214664   6.082   1.794   3.225
 4908TIP3    H114665   6.031   1.713   3.216
 4908TIP3    H214666   6.166   1.765   3.261
 4909TIP3   OH214667   2.603   5.728   5.619
 4909TIP3    H114668   2.556   5.808   5.598
 4909TIP3    H214669   2.566   5.700   5.703
 4910TIP3   OH214670   6.454   1.093   3.809
 4910TIP3    H114671   6.506   1.082   3.730
 4910TIP3    H214672   6.419   1.182   3.803
 4911TIP3   OH214673   1.034   0.087   0.447
 4911TIP3    H114674   0.998   0.038   0.373
 4911TIP3    H214675   1.129   0.075   0.440
 4912TIP3   OH214676   7.491   1.917   1.301
 4912TIP3    H114677   7.434   1.928   1.225
 4912TIP3    H214678   7.438   1.869   1.364
 4913TIP3   OH214679   4.731   7.629   1.535
 4913TIP3    H114680   4.760   7.562   1.596
 4913TIP3    H214681   4.691   7.580   1.463
 4914TIP3   OH214682   1.353   1.201   1.499
 4914TIP3    H114683   1.273   1.186   1.549
 4914TIP3    H214684   1.423   1.192   1.564
 4915TIP3   OH214685   6.274   4.959   6.169
 4915TIP3    H114686   6.218   5.027   6.132
 4915TIP3    H214687   6.269   4.972   6.264
 4916TIP3   OH214688   4.459   3.640   3.428
 4916TIP3    H114689   4.449   3.618   3.521
 4916TIP3    H214690   4.447   3.557   3.382
 4917TIP3   OH214691   7.256   5.309   4.146
 4917TIP3    H114692   7.321   5.376   4.165
 4917TIP3    H214693   7.296   5.227   4.174
 4918TIP3   OH214694   1.193   5.990   0.257
 4918TIP3    H114695   1.107   6.029   0.271
 4918TIP3    H214696   1.177   5.919   0.194
 4919TIP3   OH214697   0.630   6.932   5.740
 4919TIP3    H114698   0.585   7.015   5.754
 4919TIP3    H214699   0.706   6.935   5.799
 4920TIP3   OH214700   2.180   5.779   5.678
 4920TIP3    H114701   2.226   5.805   5.598
 4920TIP3    H214702   2.244   5.791   5.748
 4921TIP3   OH214703   4.350   3.732   6.502
 4921TIP3    H114704   4.417   3.665   6.488
 4921TIP3    H214705   4.397   3.814   6.500
 4922TIP3   OH214706   3.339   2.073   2.515
 4922TIP3    H114707   3.410   2.109   2.568
 4922TIP3    H214708   3.298   2.007   2.571
 4923TIP3   OH214709   0.225   1.116   2.867
 4923TIP3    H114710   0.163   1.051   2.833
 4923TIP3    H214711   0.261   1.157   2.788
 4924TIP3   OH214712   2.592   1.206   2.119
 4924TIP3    H114713   2.631   1.263   2.052
 4924TIP3    H214714   2.561   1.267   2.187
 4925TIP3   OH214715   7.977   5.470   1.488
 4925TIP3    H114716   8.056   5.417   1.494
 4925TIP3    H214717   7.977   5.522   1.568
 4926TIP3   OH214718   4.888   0.601   3.872
 4926TIP3    H114719   4.869   0.669   3.936
 4926TIP3    H214720   4.980   0.615   3.849
 4927TIP3   OH214721   5.813   7.901   0.680
 4927TIP3    H114722   5.755   7.826   0.668
 4927TIP3    H214723   5.858   7.911   0.596
 4928TIP3   OH214724   2.589   5.372   2.544
 4928TIP3    H114725   2.512   5.357   2.599
 4928TIP3    H214726   2.636   5.442   2.588
 4929TIP3   OH214727   1.487   4.938   0.890
 4929TIP3    H114728   1.552   4.873   0.862
 4929TIP3    H214729   1.414   4.886   0.922
 4930TIP3   OH214730   0.738   5.133   5.292
 4930TIP3    H114731   0.663   5.121   5.234
 4930TIP3    H214732   0.705   5.111   5.379
 4931TIP3   OH214733   7.395   6.869   1.775
 4931TIP3    H114734   7.415   6.940   1.714
 4931TIP3    H214735   7.400   6.790   1.722
 4932TIP3   OH214736   5.072   4.554   0.751
 4932TIP3    H114737   5.116   4.487   0.699
 4932TIP3    H214738   4.998   4.581   0.696
 4933TIP3   OH214739   7.166   2.396   1.965
 4933TIP3    H114740   7.246   2.352   1.937
 4933TIP3    H214741   7.100   2.369   1.901
 4934TIP3   OH214742   4.169   4.079   3.273
 4934TIP3    H114743   4.172   3.984   3.259
 4934TIP3    H214744   4.138   4.115   3.190
 4935TIP3   OH214745   0.183   0.404   1.694
 4935TIP3    H114746   0.243   0.476   1.672
 4935TIP3    H214747   0.107   0.448   1.733
 4936TIP3   OH214748   0.043   1.399   6.061
 4936TIP3    H114749   0.073   1.474   6.114
 4936TIP3    H214750   0.113   1.334   6.070
 4937TIP3   OH214751   5.531   4.706   2.137
 4937TIP3    H114752   5.541   4.618   2.100
 4937TIP3    H214753   5.511   4.761   2.061
 4938TIP3   OH214754   1.138   3.977   5.742
 4938TIP3    H114755   1.189   4.027   5.806
 4938TIP3    H214756   1.049   4.010   5.752
 4939TIP3   OH214757   2.505   2.721   5.948
 4939TIP3    H114758   2.424   2.746   5.992
 4939TIP3    H214759   2.569   2.711   6.018
 4940TIP3   OH214760   5.117   3.084   4.065
 4940TIP3    H114761   5.132   3.019   3.997
 4940TIP3    H214762   5.134   3.037   4.147
 4941TIP3   OH214763   7.417   0.562   4.861
 4941TIP3    H114764   7.394   0.484   4.910
 4941TIP3    H214765   7.474   0.612   4.920
 4942TIP3   OH214766   5.236   5.901   0.897
 4942TIP3    H114767   5.325   5.907   0.931
 4942TIP3    H214768   5.246   5.889   0.803
 4943TIP3   OH214769   6.204   7.668   0.601
 4943TIP3    H114770   6.205   7.704   0.690
 4943TIP3    H214771   6.201   7.573   0.614
 4944TIP3   OH214772   0.433   5.329   1.634
 4944TIP3    H114773   0.467   5.350   1.547
 4944TIP3    H214774   0.473   5.245   1.656
 4945TIP3   OH214775   0.258   1.011   1.665
 4945TIP3    H114776   0.198   1.082   1.688
 4945TIP3    H214777   0.202   0.935   1.655
 4946TIP3   OH214778   1.133   5.444   2.210
 4946TIP3    H114779   1.162   5.372   2.265
 4946TIP3    H214780   1.063   5.486   2.260
 4947TIP3   OH214781   6.889   6.360   1.928
 4947TIP3    H114782   6.866   6.304   1.853
 4947TIP3    H214783   6.849   6.445   1.907
 4948TIP3   OH214784   7.721   4.317   5.616
 4948TIP3    H114785   7.677   4.235   5.636
 4948TIP3    H214786   7.749   4.351   5.701
 4949TIP3   OH214787   3.646   3.052   0.043
 4949TIP3    H114788   3.690   3.115  -0.014
 4949TIP3    H214789   3.642   2.971  -0.009
 4950TIP3   OH214790   0.168   3.589   2.740
 4950TIP3    H114791   0.192   3.537   2.664
 4950TIP3    H214792   0.248   3.596   2.791
 4951TIP3   OH214793   7.032   3.789   2.134
 4951TIP3    H114794   7.079   3.776   2.216
 4951TIP3    H214795   6.973   3.713   2.128
 4952TIP3   OH214796   1.725   4.382   2.177
 4952TIP3    H114797   1.655   4.325   2.145
 4952TIP3    H214798   1.698   4.406   2.266
 4953TIP3   OH214799   1.609   7.708   1.764
 4953TIP3    H114800   1.557   7.691   1.685
 4953TIP3    H214801   1.546   7.743   1.827
 4954TIP3   OH214802   3.930   4.180   1.905
 4954TIP3    H114803   3.901   4.088   1.903
 4954TIP3    H214804   3.941   4.199   1.998
 4955TIP3   OH214805   0.037   0.743   0.146
 4955TIP3    H114806   0.041   0.673   0.081
 4955TIP3    H214807   0.076   0.818   0.103
 4956TIP3   OH214808   3.673   0.317   2.185
 4956TIP3    H114809   3.719   0.272   2.256
 4956TIP3    H214810   3.729   0.390   2.162
 4957TIP3   OH214811   6.727   6.521   1.613
 4957TIP3    H114812   6.678   6.500   1.534
 4957TIP3    H214813   6.809   6.559   1.582
 4958TIP3   OH214814   3.928   0.424   3.695
 4958TIP3    H114815   3.836   0.432   3.720
 4958TIP3    H214816   3.973   0.398   3.776
 4959TIP3   OH214817   5.796   0.526   1.270
 4959TIP3    H114818   5.885   0.504   1.296
 4959TIP3    H214819   5.741   0.463   1.316
 4960TIP3   OH214820   5.837   4.551   4.783
 4960TIP3    H114821   5.892   4.512   4.716
 4960TIP3    H214822   5.872   4.519   4.866
 4961TIP3   OH214823   8.267   2.901   2.827
 4961TIP3    H114824   8.341   2.879   2.771
 4961TIP3    H214825   8.270   2.996   2.835
 4962TIP3   OH214826   6.879   6.668   2.346
 4962TIP3    H114827   6.846   6.755   2.325
 4962TIP3    H214828   6.810   6.629   2.401
 4963TIP3   OH214829   6.291   2.709   6.374
 4963TIP3    H114830   6.332   2.684   6.457
 4963TIP3    H214831   6.351   2.677   6.307
 4964TIP3   OH214832   8.365   3.027   2.489
 4964TIP3    H114833   8.373   2.943   2.534
 4964TIP3    H214834   8.392   3.092   2.554
 4965TIP3   OH214835   2.650   6.017   6.064
 4965TIP3    H114836   2.685   5.981   5.982
 4965TIP3    H214837   2.696   5.969   6.133
 4966TIP3   OH214838   5.224   1.282   3.470
 4966TIP3    H114839   5.292   1.223   3.503
 4966TIP3    H214840   5.255   1.308   3.384
 4967TIP3   OH214841   3.154   2.327   0.993
 4967TIP3    H114842   3.212   2.372   0.931
 4967TIP3    H214843   3.175   2.234   0.982
 4968TIP3   OH214844   3.797   1.990   6.186
 4968TIP3    H114845   3.848   2.030   6.115
 4968TIP3    H214846   3.741   2.061   6.218
 4969TIP3   OH214847   7.748   0.742   3.616
 4969TIP3    H114848   7.668   0.786   3.586
 4969TIP3    H214849   7.740   0.652   3.583
 4970TIP3   OH214850   5.850   7.252   3.036
 4970TIP3    H114851   5.875   7.159   3.032
 4970TIP3    H214852   5.918   7.297   2.987
 4971TIP3   OH214853   5.540   1.873   3.620
 4971TIP3    H114854   5.471   1.937   3.634
 4971TIP3    H214855   5.610   1.899   3.680
 4972TIP3   OH214856   6.618   4.415   1.948
 4972TIP3    H114857   6.575   4.336   1.916
 4972TIP3    H214858   6.692   4.383   2.000
 4973TIP3   OH214859   5.388   2.247   4.764
 4973TIP3    H114860   5.322   2.228   4.697
 4973TIP3    H214861   5.383   2.342   4.776
 4974TIP3   OH214862   4.644   5.321   2.692
 4974TIP3    H114863   4.697   5.267   2.633
 4974TIP3    H214864   4.568   5.348   2.640
 4975TIP3   OH214865   5.804   1.579   3.029
 4975TIP3    H114866   5.797   1.623   2.945
 4975TIP3    H214867   5.877   1.518   3.019
 4976TIP3   OH214868   7.305   0.310   2.897
 4976TIP3    H114869   7.365   0.264   2.838
 4976TIP3    H214870   7.277   0.388   2.848
 4977TIP3   OH214871   3.923   3.380   4.156
 4977TIP3    H114872   3.946   3.292   4.186
 4977TIP3    H214873   3.841   3.368   4.108
 4978TIP3   OH214874   0.642   4.218   6.092
 4978TIP3    H114875   0.675   4.269   6.019
 4978TIP3    H214876   0.590   4.149   6.052
 4979TIP3   OH214877   5.255   6.802   3.063
 4979TIP3    H114878   5.273   6.779   2.972
 4979TIP3    H214879   5.226   6.720   3.103
 4980TIP3   OH214880   6.760   1.650   1.355
 4980TIP3    H114881   6.797   1.639   1.267
 4980TIP3    H214882   6.675   1.606   1.350
 4981TIP3   OH214883   5.897   0.030   3.287
 4981TIP3    H114884   5.835  -0.042   3.296
 4981TIP3    H214885   5.851   0.107   3.322
 4982TIP3   OH214886   5.524   0.256   0.862
 4982TIP3    H114887   5.545   0.335   0.912
 4982TIP3    H214888   5.562   0.272   0.776
 4983TIP3   OH214889   3.002   0.597   0.880
 4983TIP3    H114890   2.932   0.539   0.909
 4983TIP3    H214891   3.002   0.669   0.944
 4984TIP3   OH214892   1.371   4.433   0.763
 4984TIP3    H114893   1.332   4.345   0.759
 4984TIP3    H214894   1.369   4.455   0.856
 4985TIP3   OH214895   0.189   4.640   1.409
 4985TIP3    H114896   0.218   4.620   1.498
 4985TIP3    H214897   0.160   4.731   1.414
 4986TIP3   OH214898   7.800   0.239   3.287
 4986TIP3    H114899   7.880   0.187   3.296
 4986TIP3    H214900   7.736   0.193   3.342
 4987TIP3   OH214901   2.227   0.501   2.180
 4987TIP3    H114902   2.194   0.571   2.235
 4987TIP3    H214903   2.151   0.445   2.165
 4988TIP3   OH214904   3.543   6.556   6.186
 4988TIP3    H114905   3.566   6.649   6.177
 4988TIP3    H214906   3.509   6.548   6.276
 4989TIP3   OH214907   6.821   0.413   2.957
 4989TIP3    H114908   6.864   0.470   3.021
 4989TIP3    H214909   6.872   0.332   2.959
 4990TIP3   OH214910   1.509   5.784   1.669
 4990TIP3    H114911   1.445   5.715   1.687
 4990TIP3    H214912   1.593   5.739   1.667
 4991TIP3   OH214913   3.863   6.899   4.092
 4991TIP3    H114914   3.913   6.880   4.172
 4991TIP3    H214915   3.847   6.814   4.053
 4992TIP3   OH214916   8.280   2.618   0.368
 4992TIP3    H114917   8.348   2.552   0.385
 4992TIP3    H214918   8.216   2.604   0.438
 4993TIP3   OH214919   5.389   3.130   5.695
 4993TIP3    H114920   5.477   3.119   5.731
 4993TIP3    H214921   5.350   3.201   5.745
 4994TIP3   OH214922   5.582   5.954   0.331
 4994TIP3    H114923   5.551   5.864   0.346
 4994TIP3    H214924   5.633   5.948   0.250
 4995TIP3   OH214925   4.894   2.274   3.554
 4995TIP3    H114926   4.816   2.305   3.600
 4995TIP3    H214927   4.944   2.354   3.536
 4996TIP3   OH214928   3.552   2.924   3.582
 4996TIP3    H114929   3.472   2.907   3.532
 4996TIP3    H214930   3.606   2.846   3.568
 4997TIP3   OH214931   5.903   3.396   1.981
 4997TIP3    H114932   5.846   3.447   1.923
 4997TIP3    H214933   5.955   3.342   1.921
 4998TIP3   OH214934   2.730   4.028   4.565
 4998TIP3    H114935   2.798   4.046   4.630
 4998TIP3    H214936   2.707   4.113   4.529
 4999TIP3   OH214937   1.228   2.426   5.796
 4999TIP3    H114938   1.300   2.396   5.740
 4999TIP3    H214939   1.190   2.346   5.830
 5000TIP3   OH214940   0.016   6.586   3.208
 5000TIP3    H114941  -0.006   6.523   3.140
 5000TIP3    H214942   0.098   6.555   3.244
 5001TIP3   OH214943   5.755   4.987   4.133
 5001TIP3    H114944   5.668   4.948   4.134
 5001TIP3    H214945   5.807   4.930   4.076
 5002TIP3   OH214946   4.750   4.879   4.444
 5002TIP3    H114947   4.701   4.797   4.456
 5002TIP3    H214948   4.818   4.858   4.381
 5003TIP3   OH214949   0.554   6.095   2.323
 5003TIP3    H114950   0.525   6.094   2.415
 5003TIP3    H214951   0.642   6.133   2.326
 5004TIP3   OH214952   2.780   6.772   3.086
 5004TIP3    H114953   2.829   6.853   3.100
 5004TIP3    H214954   2.819   6.710   3.148
 5005TIP3   OH214955   3.664   3.013   6.110
 5005TIP3    H114956   3.656   2.999   6.016
 5005TIP3    H214957   3.757   3.031   6.124
 5006TIP3   OH214958   6.333   1.427   1.174
 5006TIP3    H114959   6.341   1.456   1.084
 5006TIP3    H214960   6.245   1.454   1.201
 5007TIP3   OH214961   7.005   0.899   6.309
 5007TIP3    H114962   7.028   0.834   6.376
 5007TIP3    H214963   7.000   0.849   6.227
 5008TIP3   OH214964   3.000   4.211   5.655
 5008TIP3    H114965   3.023   4.208   5.748
 5008TIP3    H214966   3.035   4.129   5.619
 5009TIP3   OH214967   4.820   3.220   6.810
 5009TIP3    H114968   4.883   3.285   6.779
 5009TIP3    H214969   4.735   3.263   6.803
 5010TIP3   OH214970   6.594   3.139   3.703
 5010TIP3    H114971   6.674   3.182   3.734
 5010TIP3    H214972   6.527   3.164   3.766
 5011TIP3   OH214973   5.322   7.790   2.384
 5011TIP3    H114974   5.264   7.863   2.404
 5011TIP3    H214975   5.276   7.712   2.415
 5012TIP3   OH214976   7.162   0.941   2.136
 5012TIP3    H114977   7.147   1.019   2.082
 5012TIP3    H214978   7.083   0.889   2.124
 5013TIP3   OH214979   2.014   4.430   5.657
 5013TIP3    H114980   1.966   4.361   5.702
 5013TIP3    H214981   2.105   4.400   5.658
 5014TIP3   OH214982   6.528   6.081   1.649
 5014TIP3    H114983   6.462   6.150   1.642
 5014TIP3    H214984   6.491   6.018   1.710
 5015TIP3   OH214985   0.362   4.495   2.224
 5015TIP3    H114986   0.321   4.452   2.299
 5015TIP3    H214987   0.415   4.565   2.262
 5016TIP3   OH214988   0.356   0.913   5.097
 5016TIP3    H114989   0.324   0.980   5.158
 5016TIP3    H214990   0.310   0.833   5.123
 5017TIP3   OH214991   8.296   4.413   2.260
 5017TIP3    H114992   8.207   4.380   2.243
 5017TIP3    H214993   8.353   4.352   2.214
 5018TIP3   OH214994   5.212   3.947   4.204
 5018TIP3    H114995   5.287   3.961   4.261
 5018TIP3    H214996   5.209   4.025   4.149
 5019TIP3   OH214997   4.249   1.047   0.412
 5019TIP3    H114998   4.243   1.060   0.507
 5019TIP3    H214999   4.251   1.136   0.377
 5020TIP3   OH215000   4.410   2.958   3.678
 5020TIP3    H115001   4.376   2.873   3.649
 5020TIP3    H215002   4.406   2.953   3.774
 5021TIP3   OH215003   0.424   4.201   2.549
 5021TIP3    H115004   0.458   4.173   2.634
 5021TIP3    H215005   0.344   4.149   2.537
 5022TIP3   OH215006   4.657   1.000   0.257
 5022TIP3    H115007   4.665   0.928   0.319
 5022TIP3    H215008   4.697   0.967   0.176
 5023TIP3   OH215009   3.474   1.448   2.663
 5023TIP3    H115010   3.487   1.372   2.607
 5023TIP3    H215011   3.428   1.415   2.740
 5024TIP3   OH215012   4.394   1.234   5.425
 5024TIP3    H115013   4.400   1.150   5.380
 5024TIP3    H215014   4.395   1.210   5.518
 5025TIP3   OH215015   8.339   0.486   0.428
 5025TIP3    H115016   8.385   0.405   0.408
 5025TIP3    H215017   8.408   0.550   0.444
 5026TIP3   OH215018   2.476   0.890   2.910
 5026TIP3    H115019   2.392   0.865   2.870
 5026TIP3    H215020   2.520   0.807   2.927
 5027TIP3   OH215021   6.104   7.199   2.122
 5027TIP3    H115022   6.012   7.224   2.120
 5027TIP3    H215023   6.103   7.104   2.129
 5028TIP3   OH215024   5.938   5.646   3.668
 5028TIP3    H115025   6.023   5.625   3.706
 5028TIP3    H215026   5.943   5.739   3.647
 5029TIP3   OH215027   4.325   7.574   1.971
 5029TIP3    H115028   4.359   7.487   1.949
 5029TIP3    H215029   4.230   7.564   1.965
 5030TIP3   OH215030   2.465   3.670   0.173
 5030TIP3    H115031   2.427   3.723   0.243
 5030TIP3    H215032   2.553   3.706   0.162
 5031TIP3   OH215033   4.641   5.683   4.537
 5031TIP3    H115034   4.635   5.691   4.442
 5031TIP3    H215035   4.725   5.724   4.559
 5032TIP3   OH215036   3.331   4.404   4.136
 5032TIP3    H115037   3.336   4.407   4.232
 5032TIP3    H215038   3.420   4.422   4.107
 5033TIP3   OH215039   6.398   3.015   4.065
 5033TIP3    H115040   6.490   2.992   4.080
 5033TIP3    H215041   6.374   2.968   3.985
 5034TIP3   OH215042   6.558   2.684   6.560
 5034TIP3    H115043   6.491   2.625   6.597
 5034TIP3    H215044   6.628   2.684   6.626
 5035TIP3   OH215045   1.114   2.535   0.903
 5035TIP3    H115046   1.168   2.529   0.825
 5035TIP3    H215047   1.024   2.541   0.869
 5036TIP3   OH215048   8.255   5.047   2.205
 5036TIP3    H115049   8.189   5.017   2.267
 5036TIP3    H215050   8.338   5.010   2.238
 5037TIP3   OH215051   3.638   1.882   5.125
 5037TIP3    H115052   3.729   1.861   5.105
 5037TIP3    H215053   3.642   1.940   5.200
 5038TIP3   OH215054   0.421   3.474   0.726
 5038TIP3    H115055   0.357   3.470   0.798
 5038TIP3    H215056   0.380   3.425   0.655
 5039TIP3   OH215057   0.873   3.160   3.301
 5039TIP3    H115058   0.836   3.097   3.362
 5039TIP3    H215059   0.815   3.236   3.307
 5040TIP3   OH215060   7.535   4.387   5.082
 5040TIP3    H115061   7.517   4.460   5.142
 5040TIP3    H215062   7.539   4.310   5.138
 5041TIP3   OH215063   2.053   0.832   0.241
 5041TIP3    H115064   2.135   0.881   0.238
 5041TIP3    H215065   2.034   0.811   0.149
 5042TIP3   OH215066   3.042   1.669   2.596
 5042TIP3    H115067   3.105   1.731   2.559
 5042TIP3    H215068   3.038   1.598   2.531
 5043TIP3   OH215069   7.891   3.391   4.218
 5043TIP3    H115070   7.833   3.376   4.144
 5043TIP3    H215071   7.833   3.397   4.293
 5044TIP3   OH215072   2.723   5.622   1.771
 5044TIP3    H115073   2.799   5.675   1.796
 5044TIP3    H215074   2.647   5.672   1.801
 5045TIP3   OH215075   3.570   6.839   0.026
 5045TIP3    H115076   3.512   6.875   0.093
 5045TIP3    H215077   3.522   6.850  -0.056
 5046TIP3   OH215078   5.266   5.084   3.602
 5046TIP3    H115079   5.332   5.014   3.603
 5046TIP3    H215080   5.200   5.054   3.541
 5047TIP3   OH215081   2.393   0.728   3.597
 5047TIP3    H115082   2.435   0.814   3.599
 5047TIP3    H215083   2.463   0.666   3.614
 5048TIP3   OH215084   6.231   6.215   4.439
 5048TIP3    H115085   6.213   6.156   4.366
 5048TIP3    H215086   6.218   6.303   4.404
 5049TIP3   OH215087   3.094   2.213   4.711
 5049TIP3    H115088   3.018   2.211   4.652
 5049TIP3    H215089   3.114   2.306   4.720
 5050TIP3   OH215090   5.590   7.838   1.159
 5050TIP3    H115091   5.644   7.835   1.080
 5050TIP3    H215092   5.565   7.930   1.167
 5051TIP3   OH215093   7.803   1.612   1.834
 5051TIP3    H115094   7.844   1.526   1.837
 5051TIP3    H215095   7.864   1.670   1.879
 5052TIP3   OH215096   2.316   7.119   4.387
 5052TIP3    H115097   2.264   7.047   4.421
 5052TIP3    H215098   2.257   7.168   4.331
 5053TIP3   OH215099   3.806   7.028   0.262
 5053TIP3    H115100   3.874   7.080   0.305
 5053TIP3    H215101   3.800   7.064   0.174
 5054TIP3   OH215102   3.142   4.885   5.634
 5054TIP3    H115103   3.079   4.938   5.584
 5054TIP3    H215104   3.101   4.799   5.638
 5055TIP3   OH215105   2.610   1.827   5.591
 5055TIP3    H115106   2.618   1.856   5.682
 5055TIP3    H215107   2.572   1.902   5.545
 5056TIP3   OH215108   0.312   6.079   3.928
 5056TIP3    H115109   0.384   6.142   3.916
 5056TIP3    H215110   0.351   5.994   3.906
 5057TIP3   OH215111   2.348   2.335   0.954
 5057TIP3    H115112   2.367   2.260   0.898
 5057TIP3    H215113   2.282   2.304   1.016
 5058TIP3   OH215114   7.374   1.324   4.643
 5058TIP3    H115115   7.398   1.314   4.551
 5058TIP3    H215116   7.288   1.366   4.641
 5059TIP3   OH215117   6.630   7.163   4.998
 5059TIP3    H115118   6.617   7.086   4.941
 5059TIP3    H215119   6.594   7.136   5.083
 5060TIP3   OH215120   1.713   1.227   0.577
 5060TIP3    H115121   1.789   1.170   0.570
 5060TIP3    H215122   1.659   1.187   0.646
 5061TIP3   OH215123   7.762   1.316   5.687
 5061TIP3    H115124   7.794   1.340   5.600
 5061TIP3    H215125   7.713   1.393   5.716
 5062TIP3   OH215126   2.123   5.923   6.699
 5062TIP3    H115127   2.208   5.899   6.735
 5062TIP3    H215128   2.143   5.978   6.623
 5063TIP3   OH215129   5.388   4.834   4.780
 5063TIP3    H115130   5.333   4.822   4.703
 5063TIP3    H215131   5.470   4.790   4.758
 5064TIP3   OH215132   1.718   6.096   1.817
 5064TIP3    H115133   1.736   6.188   1.836
 5064TIP3    H215134   1.750   6.084   1.727
 5065TIP3   OH215135   6.221   1.174   1.623
 5065TIP3    H115136   6.229   1.087   1.584
 5065TIP3    H215137   6.256   1.233   1.556
 5066TIP3   OH215138   0.934   2.069   5.094
 5066TIP3    H115139   0.941   2.027   5.009
 5066TIP3    H215140   0.840   2.077   5.111
 5067TIP3   OH215141   2.236   7.009  -0.025
 5067TIP3    H115142   2.249   6.931   0.028
 5067TIP3    H215143   2.160   7.052   0.013
 5068TIP3   OH215144   8.010   3.987   1.877
 5068TIP3    H115145   8.026   3.921   1.944
 5068TIP3    H215146   8.074   3.967   1.808
 5069TIP3   OH215147   3.419   3.303   0.373
 5069TIP3    H115148   3.461   3.222   0.345
 5069TIP3    H215149   3.443   3.367   0.306
 5070TIP3   OH215150   3.890   5.018   3.354
 5070TIP3    H115151   3.848   4.977   3.279
 5070TIP3    H215152   3.818   5.055   3.405
 5071TIP3   OH215153   5.834   0.798   1.959
 5071TIP3    H115154   5.926   0.782   1.942
 5071TIP3    H215155   5.814   0.745   2.036
 5072TIP3   OH215156   2.738   0.974   0.094
 5072TIP3    H115157   2.686   0.911   0.045
 5072TIP3    H215158   2.687   1.055   0.092
 5073TIP3   OH215159   2.286   7.833   1.483
 5073TIP3    H115160   2.372   7.845   1.442
 5073TIP3    H215161   2.232   7.795   1.414
 5074TIP3   OH215162   4.007   5.333   6.426
 5074TIP3    H115163   3.986   5.420   6.457
 5074TIP3    H215164   4.098   5.339   6.396
 5075TIP3   OH215165   3.120   2.688   2.573
 5075TIP3    H115166   3.083   2.601   2.557
 5075TIP3    H215167   3.086   2.742   2.501
 5076TIP3   OH215168   1.364   1.736   0.807
 5076TIP3    H115169   1.428   1.708   0.742
 5076TIP3    H215170   1.411   1.733   0.890
 5077TIP3   OH215171   3.139   4.027   0.093
 5077TIP3    H115172   3.154   3.986   0.008
 5077TIP3    H215173   3.179   4.114   0.085
 5078TIP3   OH215174   2.694   3.119   4.451
 5078TIP3    H115175   2.705   3.145   4.359
 5078TIP3    H215176   2.783   3.111   4.485
 5079TIP3   OH215177   5.349   5.152   0.656
 5079TIP3    H115178   5.402   5.119   0.728
 5079TIP3    H215179   5.260   5.122   0.676
 5080TIP3   OH215180   6.425   0.595   2.301
 5080TIP3    H115181   6.366   0.670   2.310
 5080TIP3    H215182   6.442   0.567   2.391
 5081TIP3   OH215183   5.056   3.849   4.946
 5081TIP3    H115184   4.968   3.811   4.944
 5081TIP3    H215185   5.069   3.885   4.859
 5082TIP3   OH215186   1.555   0.992   1.645
 5082TIP3    H115187   1.508   0.970   1.726
 5082TIP3    H215188   1.645   0.965   1.661
 5083TIP3   OH215189   2.261   6.563   1.878
 5083TIP3    H115190   2.349   6.526   1.884
 5083TIP3    H215191   2.202   6.488   1.885
 5084TIP3   OH215192   1.627   0.327   0.034
 5084TIP3    H115193   1.609   0.349   0.125
 5084TIP3    H215194   1.596   0.237   0.024
 5085TIP3   OH215195   2.515   1.821   3.761
 5085TIP3    H115196   2.442   1.864   3.716
 5085TIP3    H215197   2.473   1.756   3.817
 5086TIP3   OH215198   5.729   2.967   3.743
 5086TIP3    H115199   5.653   3.014   3.778
 5086TIP3    H215200   5.734   2.994   3.652
 5087TIP3   OH215201   3.219   3.702   5.514
 5087TIP3    H115202   3.129   3.735   5.505
 5087TIP3    H215203   3.269   3.777   5.544
 5088TIP3   OH215204   1.073   2.947   2.905
 5088TIP3    H115205   1.133   2.900   2.848
 5088TIP3    H215206   0.996   2.964   2.851
 5089TIP3   OH215207   3.228   7.496   0.216
 5089TIP3    H115208   3.252   7.464   0.303
 5089TIP3    H215209   3.288   7.568   0.199
 5090TIP3   OH215210   0.603   2.907   5.263
 5090TIP3    H115211   0.692   2.940   5.251
 5090TIP3    H215212   0.600   2.882   5.355
 5091TIP3   OH215213   8.160   6.395   0.265
 5091TIP3    H115214   8.077   6.423   0.227
 5091TIP3    H215215   8.173   6.455   0.339
 5092TIP3   OH215216   0.162   1.055   6.868
 5092TIP3    H115217   0.102   1.062   6.794
 5092TIP3    H215218   0.249   1.059   6.829
 5093TIP3   OH215219   6.055   1.245   6.501
 5093TIP3    H115220   6.010   1.167   6.535
 5093TIP3    H215221   6.144   1.215   6.483
 5094TIP3   OH215222   2.759   1.022   2.789
 5094TIP3    H115223   2.789   1.111   2.810
 5094TIP3    H215224   2.666   1.023   2.809
 5095TIP3   OH215225   3.003   1.359   4.412
 5095TIP3    H115226   3.093   1.331   4.432
 5095TIP3    H215227   2.961   1.280   4.378
 5096TIP3   OH215228   5.909   6.863   3.621
 5096TIP3    H115229   5.837   6.801   3.611
 5096TIP3    H215230   5.941   6.878   3.532
 5097TIP3   OH215231   0.848   0.844   2.618
 5097TIP3    H115232   0.776   0.853   2.681
 5097TIP3    H215233   0.882   0.756   2.633
 5098TIP3   OH215234   3.944   4.079   1.362
 5098TIP3    H115235   3.851   4.059   1.376
 5098TIP3    H215236   3.978   4.096   1.450
 5099TIP3   OH215237   6.347   3.990   6.248
 5099TIP3    H115238   6.326   3.971   6.156
 5099TIP3    H215239   6.264   3.978   6.294
 5100TIP3   OH215240   0.945   5.258   0.397
 5100TIP3    H115241   1.007   5.261   0.324
 5100TIP3    H215242   0.982   5.318   0.462
 5101TIP3   OH215243   1.327   3.803   3.825
 5101TIP3    H115244   1.350   3.883   3.873
 5101TIP3    H215245   1.232   3.796   3.835
 5102TIP3   OH215246   5.399   2.497   0.591
 5102TIP3    H115247   5.471   2.437   0.572
 5102TIP3    H215248   5.321   2.450   0.563
 5103TIP3   OH215249   3.488   1.471   1.154
 5103TIP3    H115250   3.537   1.435   1.228
 5103TIP3    H215251   3.506   1.565   1.157
 5104TIP3   OH215252   7.986   2.288   3.987
 5104TIP3    H115253   8.080   2.272   3.978
 5104TIP3    H215254   7.946   2.236   3.918
 5105TIP3   OH215255   4.470   0.995   4.465
 5105TIP3    H115256   4.456   1.068   4.526
 5105TIP3    H215257   4.523   0.933   4.515
 5106TIP3   OH215258   8.186   1.390   5.892
 5106TIP3    H115259   8.276   1.386   5.925
 5106TIP3    H215260   8.132   1.387   5.971
 5107TIP3   OH215261   5.592   1.483   2.413
 5107TIP3    H115262   5.664   1.427   2.443
 5107TIP3    H215263   5.515   1.450   2.461
 5108TIP3   OH215264   7.652   1.040   0.386
 5108TIP3    H115265   7.639   0.975   0.455
 5108TIP3    H215266   7.637   1.124   0.430
 5109TIP3   OH215267   3.334   2.478   6.414
 5109TIP3    H115268   3.323   2.572   6.433
 5109TIP3    H215269   3.327   2.436   6.500
 5110TIP3   OH215270   7.429   4.370   3.771
 5110TIP3    H115271   7.388   4.301   3.823
 5110TIP3    H215272   7.476   4.423   3.835
 5111TIP3   OH215273   4.336   0.057   3.004
 5111TIP3    H115274   4.379  -0.007   3.061
 5111TIP3    H215275   4.407   0.092   2.950
 5112TIP3   OH215276   4.471   3.850   0.908
 5112TIP3    H115277   4.446   3.925   0.853
 5112TIP3    H215278   4.554   3.820   0.871
 5113TIP3   OH215279   6.090   6.977   5.448
 5113TIP3    H115280   6.070   7.058   5.401
 5113TIP3    H215281   6.080   6.908   5.382
 5114TIP3   OH215282   2.208   5.288   1.233
 5114TIP3    H115283   2.182   5.236   1.309
 5114TIP3    H215284   2.300   5.265   1.219
 5115TIP3   OH215285   0.611   4.647   2.324
 5115TIP3    H115286   0.678   4.594   2.281
 5115TIP3    H215287   0.641   4.655   2.414
 5116TIP3   OH215288   6.457   2.346   2.015
 5116TIP3    H115289   6.411   2.393   2.085
 5116TIP3    H215290   6.542   2.390   2.008
 5117TIP3   OH215291   5.580   0.955   0.866
 5117TIP3    H115292   5.671   0.926   0.861
 5117TIP3    H215293   5.529   0.879   0.840
 5118TIP3   OH215294   6.458   0.644   6.572
 5118TIP3    H115295   6.462   0.649   6.668
 5118TIP3    H215296   6.457   0.551   6.552
 5119TIP3   OH215297   1.138   6.266   3.920
 5119TIP3    H115298   1.215   6.210   3.913
 5119TIP3    H215299   1.152   6.336   3.856
 5120TIP3   OH215300   5.283   6.937   5.163
 5120TIP3    H115301   5.207   6.961   5.110
 5120TIP3    H215302   5.290   7.006   5.229
 5121TIP3   OH215303   5.026   6.579   4.245
 5121TIP3    H115304   5.057   6.580   4.155
 5121TIP3    H215305   4.934   6.553   4.239
 5122TIP3   OH215306   3.253   1.890   6.736
 5122TIP3    H115307   3.308   1.812   6.740
 5122TIP3    H215308   3.299   1.950   6.677
 5123TIP3   OH215309   1.330   1.094   5.268
 5123TIP3    H115310   1.256   1.057   5.316
 5123TIP3    H215311   1.291   1.153   5.205
 5124TIP3   OH215312   3.721   4.269   0.458
 5124TIP3    H115313   3.809   4.304   0.444
 5124TIP3    H215314   3.683   4.265   0.370
 5125TIP3   OH215315   2.902   4.808   0.628
 5125TIP3    H115316   2.867   4.868   0.562
 5125TIP3    H215317   2.843   4.733   0.625
 5126TIP3   OH215318   7.495   3.719   2.897
 5126TIP3    H115319   7.483   3.813   2.908
 5126TIP3    H215320   7.535   3.710   2.811
 5127TIP3   OH215321   2.375   6.374   6.643
 5127TIP3    H115322   2.357   6.467   6.638
 5127TIP3    H215323   2.362   6.342   6.553
 5128TIP3   OH215324   7.843   5.016   1.484
 5128TIP3    H115325   7.860   5.051   1.397
 5128TIP3    H215326   7.751   4.992   1.483
 5129TIP3   OH215327   5.322   6.931   3.398
 5129TIP3    H115328   5.354   6.980   3.322
 5129TIP3    H215329   5.336   6.990   3.472
 5130TIP3   OH215330   4.262   3.687   3.072
 5130TIP3    H115331   4.250   3.703   2.979
 5130TIP3    H215332   4.306   3.602   3.076
 5131TIP3   OH215333   3.389   7.891   0.437
 5131TIP3    H115334   3.399   7.859   0.347
 5131TIP3    H215335   3.475   7.881   0.476
 5132TIP3   OH215336   4.561   4.734   6.621
 5132TIP3    H115337   4.508   4.661   6.651
 5132TIP3    H215338   4.564   4.794   6.696
 5133TIP3   OH215339   8.177   3.164   0.683
 5133TIP3    H115340   8.140   3.155   0.771
 5133TIP3    H215341   8.128   3.237   0.644
 5134TIP3   OH215342   0.734   1.202   0.201
 5134TIP3    H115343   0.809   1.229   0.255
 5134TIP3    H215344   0.768   1.204   0.111
 5135TIP3   OH215345   2.647   1.100   6.536
 5135TIP3    H115346   2.738   1.124   6.518
 5135TIP3    H215347   2.620   1.050   6.459
 5136TIP3   OH215348   5.260   7.348   1.911
 5136TIP3    H115349   5.355   7.343   1.910
 5136TIP3    H215350   5.233   7.271   1.961
 5137TIP3   OH215351   4.410   3.535   2.477
 5137TIP3    H115352   4.337   3.541   2.415
 5137TIP3    H215353   4.380   3.584   2.554
 5138TIP3   OH215354   2.155   7.119   0.383
 5138TIP3    H115355   2.062   7.103   0.366
 5138TIP3    H215356   2.191   7.031   0.399
 5139TIP3   OH215357   7.413   0.555   3.775
 5139TIP3    H115358   7.412   0.470   3.820
 5139TIP3    H215359   7.481   0.605   3.819
 5140TIP3   OH215360   3.950   7.095   5.689
 5140TIP3    H115361   4.037   7.093   5.729
 5140TIP3    H215362   3.937   7.187   5.665
 5141TIP3   OH215363   7.299   6.546   3.587
 5141TIP3    H115364   7.211   6.508   3.590
 5141TIP3    H215365   7.296   6.618   3.650
 5142TIP3   OH215366   0.225   3.732   6.384
 5142TIP3    H115367   0.146   3.785   6.384
 5142TIP3    H215368   0.222   3.684   6.466
 5143TIP3   OH215369   2.367   1.512   3.798
 5143TIP3    H115370   2.435   1.494   3.863
 5143TIP3    H215371   2.287   1.524   3.850
 5144TIP3   OH215372   2.144   6.882   0.603
 5144TIP3    H115373   2.061   6.880   0.651
 5144TIP3    H215374   2.122   6.848   0.517
 5145TIP3   OH215375   4.150   1.266   0.057
 5145TIP3    H115376   4.215   1.285   0.124
 5145TIP3    H215377   4.071   1.311   0.087
 5146TIP3   OH215378   3.554   0.347   2.758
 5146TIP3    H115379   3.589   0.265   2.722
 5146TIP3    H215380   3.543   0.403   2.681
 5147TIP3   OH215381   7.255   2.830   3.085
 5147TIP3    H115382   7.253   2.901   3.149
 5147TIP3    H215383   7.340   2.839   3.042
 5148TIP3   OH215384   6.886   6.265   2.252
 5148TIP3    H115385   6.808   6.288   2.201
 5148TIP3    H215386   6.892   6.170   2.245
 5149TIP3   OH215387   8.267   3.086   1.630
 5149TIP3    H115388   8.357   3.108   1.654
 5149TIP3    H215389   8.271   2.995   1.602
 5150TIP3   OH215390   1.148   7.223   5.962
 5150TIP3    H115391   1.234   7.260   5.945
 5150TIP3    H215392   1.148   7.139   5.916
 5151TIP3   OH215393   3.264   6.231   5.415
 5151TIP3    H115394   3.301   6.313   5.383
 5151TIP3    H215395   3.336   6.189   5.462
 5152TIP3   OH215396   0.740   7.774   4.712
 5152TIP3    H115397   0.817   7.826   4.691
 5152TIP3    H215398   0.733   7.711   4.640
 5153TIP3   OH215399   5.341   3.661   1.601
 5153TIP3    H115400   5.354   3.655   1.696
 5153TIP3    H215401   5.263   3.608   1.584
 5154TIP3   OH215402   1.565   6.269   6.282
 5154TIP3    H115403   1.551   6.236   6.371
 5154TIP3    H215404   1.558   6.191   6.227
 5155TIP3   OH215405   2.738   0.238   4.100
 5155TIP3    H115406   2.672   0.261   4.165
 5155TIP3    H215407   2.821   0.237   4.147
 5156TIP3   OH215408   3.595   5.944   2.851
 5156TIP3    H115409   3.611   5.908   2.938
 5156TIP3    H215410   3.641   5.885   2.792
 5157TIP3   OH215411   2.586   3.518   6.219
 5157TIP3    H115412   2.629   3.450   6.169
 5157TIP3    H215413   2.628   3.515   6.305
 5158TIP3   OH215414   7.441   5.479   3.475
 5158TIP3    H115415   7.513   5.453   3.418
 5158TIP3    H215416   7.385   5.402   3.479
 5159TIP3   OH215417   3.503   1.852   4.590
 5159TIP3    H115418   3.497   1.840   4.685
 5159TIP3    H215419   3.412   1.863   4.562
 5160TIP3   OH215420   5.229   0.905   1.550
 5160TIP3    H115421   5.191   0.844   1.615
 5160TIP3    H215422   5.282   0.849   1.493
 5161TIP3   OH215423   0.998   0.221   5.548
 5161TIP3    H115424   0.927   0.200   5.608
 5161TIP3    H215425   1.070   0.164   5.575
 5162TIP3   OH215426   0.831   7.172   5.281
 5162TIP3    H115427   0.782   7.210   5.354
 5162TIP3    H215428   0.921   7.170   5.310
 5163TIP3   OH215429   1.103   5.801   4.185
 5163TIP3    H115430   1.086   5.888   4.222
 5163TIP3    H215431   1.035   5.746   4.223
 5164TIP3   OH215432   6.939   4.329   4.458
 5164TIP3    H115433   7.026   4.342   4.420
 5164TIP3    H215434   6.897   4.265   4.401
 5165TIP3   OH215435   6.165   7.198   3.780
 5165TIP3    H115436   6.070   7.198   3.765
 5165TIP3    H215437   6.193   7.286   3.757
 5166TIP3   OH215438   0.959   6.680   1.102
 5166TIP3    H115439   0.969   6.660   1.009
 5166TIP3    H215440   0.871   6.717   1.109
 5167TIP3   OH215441   2.927   3.118   0.128
 5167TIP3    H115442   3.017   3.132   0.159
 5167TIP3    H215443   2.897   3.205   0.101
 5168TIP3   OH215444   6.894   3.305   4.812
 5168TIP3    H115445   6.902   3.337   4.722
 5168TIP3    H215446   6.953   3.360   4.863
 5169TIP3   OH215447   5.144   0.286   0.388
 5169TIP3    H115448   5.204   0.233   0.335
 5169TIP3    H215449   5.157   0.256   0.477
 5170TIP3   OH215450   7.088   3.629   5.795
 5170TIP3    H115451   7.170   3.593   5.761
 5170TIP3    H215452   7.115   3.681   5.871
 5171TIP3   OH215453   6.858   3.672   1.822
 5171TIP3    H115454   6.865   3.766   1.806
 5171TIP3    H215455   6.841   3.635   1.735
 5172TIP3   OH215456   6.520   6.193   6.823
 5172TIP3    H115457   6.543   6.104   6.850
 5172TIP3    H215458   6.599   6.245   6.843
 5173TIP3   OH215459   0.388   5.941   4.418
 5173TIP3    H115460   0.294   5.938   4.405
 5173TIP3    H215461   0.416   5.850   4.420
 5174TIP3   OH215462   3.795   3.722   5.751
 5174TIP3    H115463   3.778   3.755   5.840
 5174TIP3    H215464   3.867   3.776   5.718
 5175TIP3   OH215465   0.625   1.395   5.595
 5175TIP3    H115466   0.695   1.368   5.536
 5175TIP3    H215467   0.662   1.384   5.683
 5176TIP3   OH215468   8.351   1.987   3.130
 5176TIP3    H115469   8.269   1.966   3.174
 5176TIP3    H215470   8.417   1.983   3.200
 5177TIP3   OH215471   4.811   0.558   0.182
 5177TIP3    H115472   4.896   0.516   0.166
 5177TIP3    H215473   4.833   0.649   0.200
 5178TIP3   OH215474   1.209   1.229   2.177
 5178TIP3    H115475   1.143   1.212   2.244
 5178TIP3    H215476   1.172   1.298   2.123
 5179TIP3   OH215477   6.146   3.575   1.985
 5179TIP3    H115478   6.202   3.652   1.999
 5179TIP3    H215479   6.071   3.609   1.937
 5180TIP3   OH215480   7.676   4.664   4.514
 5180TIP3    H115481   7.684   4.759   4.527
 5180TIP3    H215482   7.645   4.654   4.424
 5181TIP3   OH215483   7.999   6.985   5.714
 5181TIP3    H115484   7.935   6.938   5.767
 5181TIP3    H215485   8.082   6.971   5.758
 5182TIP3   OH215486   2.330   1.910   1.369
 5182TIP3    H115487   2.353   1.965   1.443
 5182TIP3    H215488   2.410   1.907   1.315
 5183TIP3   OH215489   2.712   4.164   5.126
 5183TIP3    H115490   2.771   4.206   5.189
 5183TIP3    H215491   2.638   4.135   5.179
 5184TIP3   OH215492   3.815   0.383   3.433
 5184TIP3    H115493   3.726   0.417   3.444
 5184TIP3    H215494   3.852   0.386   3.521
 5185TIP3   OH215495   7.021   3.279   1.597
 5185TIP3    H115496   7.006   3.337   1.672
 5185TIP3    H215497   7.116   3.263   1.597
 5186TIP3   OH215498   1.151   5.920   1.841
 5186TIP3    H115499   1.194   5.967   1.770
 5186TIP3    H215500   1.149   5.829   1.812
 5187TIP3   OH215501   4.350   5.854   2.673
 5187TIP3    H115502   4.433   5.873   2.628
 5187TIP3    H215503   4.373   5.853   2.766
 5188TIP3   OH215504   5.628   0.514   4.218
 5188TIP3    H115505   5.566   0.494   4.289
 5188TIP3    H215506   5.705   0.461   4.238
 5189TIP3   OH215507   4.181   5.232   2.713
 5189TIP3    H115508   4.158   5.153   2.663
 5189TIP3    H215509   4.255   5.270   2.665
 5190TIP3   OH215510   1.073   6.146   6.742
 5190TIP3    H115511   1.078   6.215   6.808
 5190TIP3    H215512   1.079   6.192   6.659
 5191TIP3   OH215513   0.443   1.333   4.026
 5191TIP3    H115514   0.366   1.278   4.037
 5191TIP3    H215515   0.513   1.273   4.001
 5192TIP3   OH215516   4.018   4.389   4.377
 5192TIP3    H115517   4.011   4.356   4.466
 5192TIP3    H215518   4.059   4.475   4.386
 5193TIP3   OH215519   7.194   5.697   6.181
 5193TIP3    H115520   7.254   5.628   6.154
 5193TIP3    H215521   7.222   5.719   6.270
 5194TIP3   OH215522   0.806   0.454   1.206
 5194TIP3    H115523   0.720   0.422   1.179
 5194TIP3    H215524   0.833   0.394   1.276
 5195TIP3   OH215525   5.595   1.405   6.483
 5195TIP3    H115526   5.671   1.377   6.432
 5195TIP3    H215527   5.633   1.439   6.564
 5196TIP3   OH215528   0.515   1.321   3.390
 5196TIP3    H115529   0.487   1.329   3.481
 5196TIP3    H215530   0.582   1.252   3.392
 5197TIP3   OH215531   3.340   6.753   6.033
 5197TIP3    H115532   3.404   6.800   5.981
 5197TIP3    H215533   3.392   6.711   6.102
 5198TIP3   OH215534   4.831   5.173   1.984
 5198TIP3    H115535   4.811   5.091   2.029
 5198TIP3    H215536   4.873   5.145   1.902
 5199TIP3   OH215537   6.526   7.885   0.763
 5199TIP3    H115538   6.498   7.803   0.805
 5199TIP3    H215539   6.614   7.866   0.730
 5200TIP3   OH215540   3.486   4.343   1.496
 5200TIP3    H115541   3.517   4.396   1.422
 5200TIP3    H215542   3.553   4.356   1.563
 5201TIP3   OH215543  -0.011   3.752   3.544
 5201TIP3    H115544   0.005   3.846   3.557
 5201TIP3    H215545   0.071   3.711   3.571
 5202TIP3   OH215546   6.470   1.945   4.115
 5202TIP3    H115547   6.424   1.861   4.111
 5202TIP3    H215548   6.513   1.945   4.200
 5203TIP3   OH215549   2.587   6.505   4.539
 5203TIP3    H115550   2.666   6.552   4.563
 5203TIP3    H215551   2.516   6.555   4.579
 5204TIP3   OH215552   0.384   2.956   1.252
 5204TIP3    H115553   0.374   3.012   1.175
 5204TIP3    H215554   0.297   2.954   1.292
 5205TIP3   OH215555   6.812   3.556   0.362
 5205TIP3    H115556   6.896   3.552   0.317
 5205TIP3    H215557   6.761   3.484   0.323
 5206TIP3   OH215558   5.368   1.176   0.892
 5206TIP3    H115559   5.432   1.115   0.855
 5206TIP3    H215560   5.320   1.124   0.956
 5207TIP3   OH215561   4.704   5.185   4.778
 5207TIP3    H115562   4.713   5.277   4.752
 5207TIP3    H215563   4.794   5.156   4.794
 5208TIP3   OH215564   8.307   5.123   3.271
 5208TIP3    H115565   8.249   5.052   3.243
 5208TIP3    H215566   8.360   5.084   3.340
 5209TIP3   OH215567   0.445   6.720   6.789
 5209TIP3    H115568   0.351   6.708   6.801
 5209TIP3    H215569   0.477   6.633   6.763
 5210TIP3   OH215570   2.233   1.372   2.347
 5210TIP3    H115571   2.322   1.406   2.351
 5210TIP3    H215572   2.192   1.420   2.275
 5211TIP3   OH215573   7.845   5.038   5.852
 5211TIP3    H115574   7.836   5.115   5.795
 5211TIP3    H215575   7.759   4.995   5.846
 5212TIP3   OH215576   2.541   7.647   4.561
 5212TIP3    H115577   2.484   7.713   4.601
 5212TIP3    H215578   2.485   7.599   4.500
 5213TIP3   OH215579   6.582  -0.008   5.774
 5213TIP3    H115580   6.622  -0.048   5.697
 5213TIP3    H215581   6.534   0.067   5.739
 5214TIP3   OH215582   0.394   0.353   3.623
 5214TIP3    H115583   0.460   0.303   3.672
 5214TIP3    H215584   0.444   0.417   3.573
 5215TIP3   OH215585   5.331   0.592   0.421
 5215TIP3    H115586   5.325   0.654   0.348
 5215TIP3    H215587   5.384   0.520   0.387
 5216TIP3   OH215588   4.609   1.031   2.616
 5216TIP3    H115589   4.647   1.062   2.534
 5216TIP3    H215590   4.611   0.935   2.609
 5217TIP3   OH215591   2.657   0.644   0.206
 5217TIP3    H115592   2.740   0.641   0.158
 5217TIP3    H215593   2.676   0.695   0.284
 5218TIP3   OH215594   5.384   4.387   2.369
 5218TIP3    H115595   5.345   4.472   2.348
 5218TIP3    H215596   5.342   4.361   2.451
 5219TIP3   OH215597   3.884   2.503   2.600
 5219TIP3    H115598   3.869   2.421   2.553
 5219TIP3    H215599   3.836   2.492   2.682
 5220TIP3   OH215600   7.412   0.333   3.950
 5220TIP3    H115601   7.333   0.310   3.901
 5220TIP3    H215602   7.472   0.261   3.932
 5221TIP3   OH215603   1.004   7.365   5.131
 5221TIP3    H115604   0.924   7.341   5.178
 5221TIP3    H215605   0.992   7.456   5.106
 5222TIP3   OH215606   2.631   6.406   0.552
 5222TIP3    H115607   2.555   6.377   0.502
 5222TIP3    H215608   2.706   6.365   0.510
 5223TIP3   OH215609   6.581   2.056   3.441
 5223TIP3    H115610   6.601   2.027   3.352
 5223TIP3    H215611   6.486   2.042   3.450
 5224TIP3   OH215612   0.146   1.525   5.600
 5224TIP3    H115613   0.086   1.571   5.659
 5224TIP3    H215614   0.138   1.433   5.625
 5225TIP3   OH215615   7.397   5.872   3.323
 5225TIP3    H115616   7.411   5.964   3.346
 5225TIP3    H215617   7.483   5.831   3.334
 5226TIP3   OH215618   5.212   4.259   1.655
 5226TIP3    H115619   5.170   4.173   1.659
 5226TIP3    H215620   5.203   4.287   1.564
 5227TIP3   OH215621   4.108   5.649   2.209
 5227TIP3    H115622   4.052   5.710   2.256
 5227TIP3    H215623   4.055   5.620   2.135
 5228TIP3   OH215624   3.363   6.152   5.853
 5228TIP3    H115625   3.277   6.126   5.886
 5228TIP3    H215626   3.391   6.221   5.913
 5229TIP3   OH215627   6.958   2.528   3.304
 5229TIP3    H115628   6.918   2.615   3.297
 5229TIP3    H215629   6.914   2.488   3.379
 5230TIP3   OH215630   6.555   0.821   4.030
 5230TIP3    H115631   6.632   0.875   4.012
 5230TIP3    H215632   6.554   0.813   4.126
 5231TIP3   OH215633   3.728   0.209   0.228
 5231TIP3    H115634   3.692   0.259   0.154
 5231TIP3    H215635   3.672   0.234   0.302
 5232TIP3   OH215636   3.984   5.491   0.127
 5232TIP3    H115637   3.977   5.497   0.222
 5232TIP3    H215638   3.939   5.569   0.095
 5233TIP3   OH215639   1.677   7.087   5.255
 5233TIP3    H115640   1.631   7.067   5.337
 5233TIP3    H215641   1.649   7.175   5.233
 5234TIP3   OH215642   2.543   3.768   2.845
 5234TIP3    H115643   2.485   3.807   2.779
 5234TIP3    H215644   2.614   3.831   2.854
 5235TIP3   OH215645   4.077   1.650   5.730
 5235TIP3    H115646   4.156   1.606   5.698
 5235TIP3    H215647   4.016   1.646   5.656
 5236TIP3   OH215648   4.723   3.022   1.480
 5236TIP3    H115649   4.687   2.988   1.398
 5236TIP3    H215650   4.775   3.098   1.453
 5237TIP3   OH215651   3.644   7.877   0.556
 5237TIP3    H115652   3.714   7.901   0.617
 5237TIP3    H215653   3.651   7.782   0.547
 5238TIP3   OH215654   2.441   0.239   2.763
 5238TIP3    H115655   2.418   0.317   2.712
 5238TIP3    H215656   2.486   0.182   2.701
 5239TIP3   OH215657   6.705   4.053   2.217
 5239TIP3    H115658   6.732   4.143   2.237
 5239TIP3    H215659   6.717   4.045   2.123
 5240TIP3   OH215660   3.003   5.074   4.435
 5240TIP3    H115661   3.015   5.139   4.366
 5240TIP3    H215662   3.032   4.991   4.396
 5241TIP3   OH215663   4.937   1.798   2.978
 5241TIP3    H115664   4.861   1.815   2.923
 5241TIP3    H215665   4.923   1.708   3.010
 5242TIP3   OH215666   2.599   2.073   3.618
 5242TIP3    H115667   2.627   1.990   3.581
 5242TIP3    H215668   2.504   2.074   3.605
 5243TIP3   OH215669   3.231   2.587   1.299
 5243TIP3    H115670   3.270   2.667   1.335
 5243TIP3    H215671   3.247   2.593   1.205
 5244TIP3   OH215672   1.298   7.798   3.425
 5244TIP3    H115673   1.385   7.776   3.457
 5244TIP3    H215674   1.310   7.814   3.331
 5245TIP3   OH215675   8.341   6.250   0.129
 5245TIP3    H115676   8.381   6.286   0.207
 5245TIP3    H215677   8.248   6.272   0.137
 5246TIP3   OH215678   6.008   4.055   3.219
 5246TIP3    H115679   5.958   4.084   3.142
 5246TIP3    H215680   6.100   4.065   3.194
 5247TIP3   OH215681   6.561   7.573   1.480
 5247TIP3    H115682   6.534   7.506   1.543
 5247TIP3    H215683   6.655   7.557   1.466
 5248TIP3   OH215684   1.781   5.844   3.730
 5248TIP3    H115685   1.774   5.886   3.816
 5248TIP3    H215686   1.728   5.899   3.673
 5249TIP3   OH215687   7.619   4.376   0.602
 5249TIP3    H115688   7.653   4.372   0.513
 5249TIP3    H215689   7.658   4.455   0.639
 5250TIP3   OH215690   4.214   7.165   1.440
 5250TIP3    H115691   4.214   7.071   1.423
 5250TIP3    H215692   4.201   7.205   1.354
 5251TIP3   OH215693   6.731   0.487   3.959
 5251TIP3    H115694   6.708   0.562   3.904
 5251TIP3    H215695   6.764   0.526   4.040
 5252TIP3   OH215696   7.005   0.180   2.374
 5252TIP3    H115697   7.008   0.113   2.305
 5252TIP3    H215698   6.990   0.131   2.454
 5253TIP3   OH215699   0.264   1.537   5.940
 5253TIP3    H115700   0.270   1.442   5.926
 5253TIP3    H215701   0.171   1.553   5.955
 5254TIP3   OH215702   6.468   3.634   6.327
 5254TIP3    H115703   6.530   3.707   6.327
 5254TIP3    H215704   6.506   3.571   6.264
 5255TIP3   OH215705   7.014   4.595   4.846
 5255TIP3    H115706   7.037   4.504   4.829
 5255TIP3    H215707   7.098   4.641   4.850
 5256TIP3   OH215708   6.373   6.415   5.931
 5256TIP3    H115709   6.320   6.494   5.920
 5256TIP3    H215710   6.378   6.377   5.843
 5257TIP3   OH215711   5.714   7.656   0.601
 5257TIP3    H115712   5.711   7.596   0.675
 5257TIP3    H215713   5.794   7.632   0.554
 5258TIP3   OH215714   4.496   6.604   4.766
 5258TIP3    H115715   4.576   6.618   4.715
 5258TIP3    H215716   4.525   6.609   4.857
 5259TIP3   OH215717   6.423   2.219   1.268
 5259TIP3    H115718   6.440   2.254   1.356
 5259TIP3    H215719   6.469   2.278   1.209
 5260TIP3   OH215720   3.363   4.202   5.557
 5260TIP3    H115721   3.328   4.229   5.642
 5260TIP3    H215722   3.384   4.284   5.512
 5261TIP3   OH215723   0.788   0.825   1.967
 5261TIP3    H115724   0.718   0.783   2.017
 5261TIP3    H215725   0.799   0.911   2.008
 5262TIP3   OH215726   4.196   4.870   6.724
 5262TIP3    H115727   4.133   4.856   6.653
 5262TIP3    H215728   4.191   4.790   6.776
 5263TIP3   OH215729   5.259   2.631   1.474
 5263TIP3    H115730   5.254   2.548   1.522
 5263TIP3    H215731   5.173   2.642   1.435
 5264TIP3   OH215732   0.048   1.956   2.843
 5264TIP3    H115733   0.126   2.012   2.843
 5264TIP3    H215734   0.017   1.958   2.934
 5265TIP3   OH215735   5.729   7.064   4.634
 5265TIP3    H115736   5.810   7.023   4.663
 5265TIP3    H215737   5.694   7.005   4.568
 5266TIP3   OH215738   0.601   7.366   0.031
 5266TIP3    H115739   0.534   7.424   0.068
 5266TIP3    H215740   0.584   7.281   0.071
 5267TIP3   OH215741   0.882   2.517   5.959
 5267TIP3    H115742   0.976   2.529   5.974
 5267TIP3    H215743   0.870   2.423   5.958
 5268TIP3   OH215744   0.913   4.149   3.160
 5268TIP3    H115745   0.910   4.059   3.128
 5268TIP3    H215746   0.822   4.179   3.154
 5269TIP3   OH215747   7.194   7.224   6.461
 5269TIP3    H115748   7.248   7.160   6.415
 5269TIP3    H215749   7.123   7.173   6.501
 5270TIP3   OH215750   7.440   5.386   4.982
 5270TIP3    H115751   7.406   5.297   4.969
 5270TIP3    H215752   7.364   5.437   5.008
 5271TIP3   OH215753   2.132   6.728   2.821
 5271TIP3    H115754   2.218   6.770   2.824
 5271TIP3    H215755   2.069   6.799   2.828
 5272TIP3   OH215756   0.221   6.049   1.671
 5272TIP3    H115757   0.205   5.955   1.679
 5272TIP3    H215758   0.316   6.058   1.676
 5273TIP3   OH215759   7.968   5.058   2.482
 5273TIP3    H115760   7.996   4.981   2.432
 5273TIP3    H215761   7.942   5.023   2.567
 5274TIP3   OH215762   1.816   5.251   3.389
 5274TIP3    H115763   1.793   5.159   3.399
 5274TIP3    H215764   1.812   5.286   3.478
 5275TIP3   OH215765   7.062   6.872   0.249
 5275TIP3    H115766   7.124   6.880   0.177
 5275TIP3    H215767   7.042   6.778   0.254
 5276TIP3   OH215768   2.062   4.870   5.242
 5276TIP3    H115769   1.982   4.900   5.199
 5276TIP3    H215770   2.068   4.924   5.320
 5277TIP3   OH215771   5.953   1.860   5.809
 5277TIP3    H115772   5.872   1.903   5.837
 5277TIP3    H215773   6.000   1.927   5.759
 5278TIP3   OH215774   7.240   2.441   2.439
 5278TIP3    H115775   7.314   2.443   2.379
 5278TIP3    H215776   7.280   2.447   2.526
 5279TIP3   OH215777   6.390   3.713   0.297
 5279TIP3    H115778   6.485   3.709   0.283
 5279TIP3    H215779   6.368   3.629   0.337
 5280TIP3   OH215780   5.649   3.342   0.397
 5280TIP3    H115781   5.562   3.302   0.399
 5280TIP3    H215782   5.702   3.280   0.346
 5281TIP3   OH215783   7.763   6.310   6.090
 5281TIP3    H115784   7.670   6.322   6.070
 5281TIP3    H215785   7.764   6.260   6.172
 5282TIP3   OH215786   4.892   4.432   3.897
 5282TIP3    H115787   4.858   4.346   3.924
 5282TIP3    H215788   4.827   4.465   3.835
 5283TIP3   OH215789   4.681   3.758   0.730
 5283TIP3    H115790   4.734   3.837   0.716
 5283TIP3    H215791   4.694   3.706   0.650
 5284TIP3   OH215792   7.727   2.613   6.574
 5284TIP3    H115793   7.736   2.670   6.498
 5284TIP3    H215794   7.804   2.633   6.628
 5285TIP3   OH215795   4.689   0.086   3.792
 5285TIP3    H115796   4.697   0.149   3.863
 5285TIP3    H215797   4.772   0.038   3.792
 5286TIP3   OH215798   1.596   1.076   4.746
 5286TIP3    H115799   1.690   1.066   4.761
 5286TIP3    H215800   1.556   1.070   4.833
 5287TIP3   OH215801   5.734   3.067   4.967
 5287TIP3    H115802   5.763   3.130   5.033
 5287TIP3    H215803   5.773   2.984   4.994
 5288TIP3   OH215804   7.772   6.103   6.832
 5288TIP3    H115805   7.791   6.193   6.806
 5288TIP3    H215806   7.743   6.109   6.923
 5289TIP3   OH215807   6.290   3.111   5.497
 5289TIP3    H115808   6.217   3.078   5.549
 5289TIP3    H215809   6.298   3.049   5.425
 5290TIP3   OH215810   3.595   3.459   5.910
 5290TIP3    H115811   3.528   3.392   5.895
 5290TIP3    H215812   3.612   3.495   5.823
 5291TIP3   OH215813   1.135   3.654   3.213
 5291TIP3    H115814   1.204   3.711   3.248
 5291TIP3    H215815   1.180   3.599   3.148
 5292TIP3   OH215816   7.433   6.032   2.138
 5292TIP3    H115817   7.457   6.081   2.216
 5292TIP3    H215818   7.407   5.946   2.170
 5293TIP3   OH215819   6.026   3.866   2.364
 5293TIP3    H115820   6.111   3.889   2.404
 5293TIP3    H215821   6.024   3.917   2.283
 5294TIP3   OH215822   0.168   7.467   4.471
 5294TIP3    H115823   0.158   7.453   4.377
 5294TIP3    H215824   0.163   7.380   4.510
 5295TIP3   OH215825   2.449   4.421   0.230
 5295TIP3    H115826   2.515   4.353   0.216
 5295TIP3    H215827   2.427   4.414   0.323
 5296TIP3   OH215828   8.164   3.510   0.990
 5296TIP3    H115829   8.087   3.561   0.968
 5296TIP3    H215830   8.166   3.507   1.085
 5297TIP3   OH215831   5.964   0.600   6.043
 5297TIP3    H115832   5.897   0.592   6.111
 5297TIP3    H215833   6.012   0.517   6.047
 5298TIP3   OH215834   3.802   0.433   4.675
 5298TIP3    H115835   3.753   0.351   4.673
 5298TIP3    H215836   3.892   0.407   4.695
 5299TIP3   OH215837   5.143   4.627   6.003
 5299TIP3    H115838   5.169   4.683   5.930
 5299TIP3    H215839   5.092   4.557   5.961
 5300TIP3   OH215840   5.092   6.734   1.502
 5300TIP3    H115841   5.095   6.658   1.444
 5300TIP3    H215842   5.100   6.698   1.590
 5301TIP3   OH215843   0.530   1.248   0.431
 5301TIP3    H115844   0.550   1.158   0.456
 5301TIP3    H215845   0.590   1.266   0.358
 5302TIP3   OH215846   5.207   2.589   3.027
 5302TIP3    H115847   5.161   2.512   2.993
 5302TIP3    H215848   5.299   2.568   3.016
 5303TIP3   OH215849   0.882   6.056   3.342
 5303TIP3    H115850   0.968   6.082   3.374
 5303TIP3    H215851   0.887   6.068   3.247
 5304TIP3   OH215852   3.901   5.936   5.758
 5304TIP3    H115853   3.981   5.988   5.753
 5304TIP3    H215854   3.909   5.872   5.687
 5305TIP3   OH215855   6.490   5.821   6.108
 5305TIP3    H115856   6.404   5.849   6.139
 5305TIP3    H215857   6.473   5.775   6.026
 5306TIP3   OH215858   5.120   6.008   4.360
 5306TIP3    H115859   5.067   6.063   4.303
 5306TIP3    H215860   5.169   6.070   4.414
 5307TIP3   OH215861   3.057   7.394   1.080
 5307TIP3    H115862   3.027   7.402   0.990
 5307TIP3    H215863   3.008   7.321   1.116
 5308TIP3   OH215864   5.736   4.977   0.406
 5308TIP3    H115865   5.659   4.959   0.460
 5308TIP3    H215866   5.789   5.037   0.459
 5309TIP3   OH215867   3.470   0.604   0.883
 5309TIP3    H115868   3.395   0.652   0.920
 5309TIP3    H215869   3.513   0.668   0.826
 5310TIP3   OH215870   7.527   2.448   6.695
 5310TIP3    H115871   7.602   2.494   6.659
 5310TIP3    H215872   7.484   2.408   6.619
 5311TIP3   OH215873   6.701   5.318   4.844
 5311TIP3    H115874   6.618   5.349   4.879
 5311TIP3    H215875   6.703   5.349   4.754
 5312TIP3   OH215876   2.944   5.308   1.240
 5312TIP3    H115877   2.990   5.316   1.157
 5312TIP3    H215878   2.874   5.373   1.235
 5313TIP3   OH215879   1.517   3.912   5.286
 5313TIP3    H115880   1.509   3.862   5.367
 5313TIP3    H215881   1.501   3.847   5.217
 5314TIP3   OH215882   3.868   4.354   5.644
 5314TIP3    H115883   3.793   4.339   5.701
 5314TIP3    H215884   3.930   4.404   5.698
 5315TIP3   OH215885   2.067   5.320   6.603
 5315TIP3    H115886   2.156   5.291   6.580
 5315TIP3    H215887   2.075   5.350   6.693
 5316TIP3   OH215888   3.475   1.884   3.769
 5316TIP3    H115889   3.439   1.969   3.745
 5316TIP3    H215890   3.431   1.861   3.850
 5317TIP3   OH215891   2.908   0.266   6.642
 5317TIP3    H115892   2.860   0.191   6.677
 5317TIP3    H215893   2.965   0.294   6.714
 5318TIP3   OH215894   0.126   6.618   5.677
 5318TIP3    H115895   0.131   6.659   5.590
 5318TIP3    H215896   0.192   6.549   5.674
 5319TIP3   OH215897   1.012   6.578   0.275
 5319TIP3    H115898   0.996   6.651   0.214
 5319TIP3    H215899   0.953   6.509   0.245
 5320TIP3   OH215900   4.362   0.790   0.723
 5320TIP3    H115901   4.296   0.857   0.704
 5320TIP3    H215902   4.446   0.832   0.703
 5321TIP3   OH215903   7.825   0.811   6.222
 5321TIP3    H115904   7.882   0.739   6.195
 5321TIP3    H215905   7.850   0.830   6.312
 5322TIP3   OH215906   0.030   2.513   3.523
 5322TIP3    H115907   0.014   2.603   3.552
 5322TIP3    H215908   0.121   2.513   3.494
 5323TIP3   OH215909   0.674   3.670   0.657
 5323TIP3    H115910   0.654   3.650   0.565
 5323TIP3    H215911   0.753   3.724   0.653
 5324TIP3   OH215912   5.976   6.004   5.533
 5324TIP3    H115913   5.910   5.962   5.588
 5324TIP3    H215914   5.980   5.949   5.455
 5325TIP3   OH215915   4.105   0.395   4.726
 5325TIP3    H115916   4.193   0.358   4.717
 5325TIP3    H215917   4.113   0.458   4.797
 5326TIP3   OH215918   4.696   4.508   1.070
 5326TIP3    H115919   4.739   4.586   1.105
 5326TIP3    H215920   4.731   4.436   1.123
 5327TIP3   OH215921   0.655   6.077   6.484
 5327TIP3    H115922   0.603   5.998   6.496
 5327TIP3    H215923   0.684   6.100   6.573
 5328TIP3   OH215924   0.567   2.450   4.342
 5328TIP3    H115925   0.594   2.379   4.284
 5328TIP3    H215926   0.629   2.446   4.415
 5329TIP3   OH215927   2.665   2.700   1.814
 5329TIP3    H115928   2.649   2.794   1.814
 5329TIP3    H215929   2.753   2.691   1.777
 5330TIP3   OH215930   0.662   1.895   1.257
 5330TIP3    H115931   0.635   1.906   1.348
 5330TIP3    H215932   0.757   1.913   1.258
 5331TIP3   OH215933   7.270   4.447   0.043
 5331TIP3    H115934   7.305   4.492  -0.034
 5331TIP3    H215935   7.325   4.369   0.053
 5332TIP3   OH215936   1.646   6.676   5.808
 5332TIP3    H115937   1.733   6.650   5.838
 5332TIP3    H215938   1.636   6.635   5.723
 5333TIP3   OH215939   1.907   1.091   5.208
 5333TIP3    H115940   1.882   1.183   5.214
 5333TIP3    H215941   1.840   1.051   5.153
 5334TIP3   OH215942   1.421   0.638   0.787
 5334TIP3    H115943   1.454   0.609   0.873
 5334TIP3    H215944   1.469   0.585   0.724
 5335TIP3   OH215945   7.371   2.633   1.243
 5335TIP3    H115946   7.381   2.681   1.161
 5335TIP3    H215947   7.460   2.619   1.274
 5336TIP3   OH215948   6.071   0.227   2.497
 5336TIP3    H115949   6.100   0.231   2.406
 5336TIP3    H215950   5.997   0.166   2.495
 5337TIP3   OH215951   6.045   6.645   4.440
 5337TIP3    H115952   6.076   6.568   4.487
 5337TIP3    H215953   5.987   6.611   4.372
 5338TIP3   OH215954   3.425   1.050   2.992
 5338TIP3    H115955   3.356   1.002   2.947
 5338TIP3    H215956   3.379   1.122   3.036
 5339TIP3   OH215957   1.711   0.950   5.060
 5339TIP3    H115958   1.619   0.977   5.055
 5339TIP3    H215959   1.724   0.894   4.983
 5340TIP3   OH215960   3.893   2.816   3.266
 5340TIP3    H115961   3.983   2.844   3.284
 5340TIP3    H215962   3.901   2.724   3.241
 5341TIP3   OH215963   6.642   3.130   4.991
 5341TIP3    H115964   6.737   3.120   4.983
 5341TIP3    H215965   6.630   3.214   5.035
 5342TIP3   OH215966   7.523   4.803   2.899
 5342TIP3    H115967   7.484   4.889   2.886
 5342TIP3    H215968   7.611   4.821   2.930
 5343TIP3   OH215969   4.510   0.691   4.318
 5343TIP3    H115970   4.415   0.687   4.329
 5343TIP3    H215971   4.539   0.755   4.383
 5344TIP3   OH215972   6.115   5.535   3.111
 5344TIP3    H115973   6.031   5.554   3.069
 5344TIP3    H215974   6.094   5.477   3.184
 5345TIP3   OH215975   0.713   1.780   2.606
 5345TIP3    H115976   0.703   1.712   2.540
 5345TIP3    H215977   0.751   1.735   2.682
 5346TIP3   OH215978   5.517   6.363   1.632
 5346TIP3    H115979   5.483   6.446   1.596
 5346TIP3    H215980   5.607   6.359   1.599
 5347TIP3   OH215981   0.214   5.180   4.853
 5347TIP3    H115982   0.185   5.268   4.879
 5347TIP3    H215983   0.210   5.181   4.758
 5348TIP3   OH215984   3.172   3.474   1.690
 5348TIP3    H115985   3.160   3.385   1.724
 5348TIP3    H215986   3.099   3.487   1.630
 5349TIP3   OH215987   6.366   5.196   1.991
 5349TIP3    H115988   6.345   5.229   1.903
 5349TIP3    H215989   6.281   5.174   2.029
 5350TIP3   OH215990   4.415   3.270   6.395
 5350TIP3    H115991   4.372   3.341   6.443
 5350TIP3    H215992   4.344   3.214   6.365
 5351TIP3   OH215993   4.179   2.588   3.867
 5351TIP3    H115994   4.088   2.560   3.867
 5351TIP3    H215995   4.208   2.577   3.958
 5352TIP3   OH215996   0.215   7.326   1.560
 5352TIP3    H115997   0.253   7.258   1.616
 5352TIP3    H215998   0.240   7.408   1.602
 5353TIP3   OH215999   2.438   1.601   3.250
 5353TIP3    H116000   2.377   1.528   3.254
 5353TIP3    H216001   2.424   1.649   3.331
 5354TIP3   OH216002   6.636   4.056   3.581
 5354TIP3    H116003   6.609   3.989   3.645
 5354TIP3    H216004   6.645   4.009   3.499
 5355TIP3   OH216005   6.368   2.936   4.722
 5355TIP3    H116006   6.340   3.026   4.706
 5355TIP3    H216007   6.415   2.911   4.642
 5356TIP3   OH216008   3.223   4.242   0.688
 5356TIP3    H116009   3.229   4.337   0.677
 5356TIP3    H216010   3.313   4.215   0.705
 5357TIP3   OH216011   7.049   7.651   5.209
 5357TIP3    H116012   7.097   7.690   5.135
 5357TIP3    H216013   7.044   7.558   5.187
 5358TIP3   OH216014   4.601   2.517   2.035
 5358TIP3    H116015   4.587   2.429   2.069
 5358TIP3    H216016   4.691   2.538   2.060
 5359TIP3   OH216017   5.002   7.185   6.608
 5359TIP3    H116018   5.096   7.204   6.613
 5359TIP3    H216019   4.995   7.114   6.544
 5360TIP3   OH216020   3.019   3.845   0.288
 5360TIP3    H116021   2.971   3.771   0.251
 5360TIP3    H216022   3.042   3.899   0.213
 5361TIP3   OH216023   4.654   1.686   2.324
 5361TIP3    H116024   4.674   1.769   2.366
 5361TIP3    H216025   4.560   1.687   2.311
 5362TIP3   OH216026   4.469   5.461   3.749
 5362TIP3    H116027   4.411   5.451   3.673
 5362TIP3    H216028   4.536   5.394   3.737
 5363TIP3   OH216029   6.539   7.536   4.085
 5363TIP3    H116030   6.566   7.570   4.171
 5363TIP3    H216031   6.528   7.442   4.099
 5364TIP3   OH216032   2.124   0.602   3.929
 5364TIP3    H116033   2.075   0.585   3.848
 5364TIP3    H216034   2.157   0.691   3.917
 5365TIP3   OH216035   4.113   4.347   5.200
 5365TIP3    H116036   4.093   4.435   5.169
 5365TIP3    H216037   4.131   4.357   5.293
 5366TIP3   OH216038   3.453   3.554   0.214
 5366TIP3    H116039   3.522   3.571   0.150
 5366TIP3    H216040   3.415   3.640   0.233
 5367TIP3   OH216041   0.270   0.120   3.395
 5367TIP3    H116042   0.269   0.148   3.486
 5367TIP3    H216043   0.182   0.139   3.363
 5368TIP3   OH216044   6.635   4.330   3.231
 5368TIP3    H116045   6.617   4.254   3.177
 5368TIP3    H216046   6.719   4.363   3.199
 5369TIP3   OH216047   1.891   6.288   4.918
 5369TIP3    H116048   1.827   6.332   4.861
 5369TIP3    H216049   1.972   6.287   4.866
 5370TIP3   OH216050   3.170   7.567   3.429
 5370TIP3    H116051   3.191   7.567   3.336
 5370TIP3    H216052   3.250   7.535   3.472
 5371TIP3   OH216053   6.228   4.499   1.424
 5371TIP3    H116054   6.250   4.521   1.515
 5371TIP3    H216055   6.297   4.539   1.372
 5372TIP3   OH216056   5.465   3.878   3.958
 5372TIP3    H116057   5.491   3.791   3.927
 5372TIP3    H216058   5.372   3.885   3.935
 5373TIP3   OH216059   0.870   3.721   2.625
 5373TIP3    H116060   0.847   3.629   2.632
 5373TIP3    H216061   0.804   3.759   2.567
 5374TIP3   OH216062   0.644   3.016   6.151
 5374TIP3    H116063   0.614   3.045   6.065
 5374TIP3    H216064   0.593   3.068   6.213
 5375TIP3   OH216065   3.943   1.840   0.639
 5375TIP3    H116066   3.979   1.790   0.566
 5375TIP3    H216067   4.014   1.898   0.666
 5376TIP3   OH216068   3.217   0.613   6.812
 5376TIP3    H116069   3.242   0.613   6.720
 5376TIP3    H216070   3.213   0.706   6.836
 5377TIP3   OH216071   2.625   2.387   0.050
 5377TIP3    H116072   2.620   2.314   0.111
 5377TIP3    H216073   2.555   2.370  -0.013
 5378TIP3   OH216074   1.780   7.593   5.333
 5378TIP3    H116075   1.825   7.673   5.359
 5378TIP3    H216076   1.794   7.533   5.406
 5379TIP3   OH216077   3.999   2.697   4.251
 5379TIP3    H116078   3.914   2.737   4.272
 5379TIP3    H216079   3.983   2.603   4.256
 5380TIP3   OH216080   5.404   0.579   4.776
 5380TIP3    H116081   5.325   0.625   4.803
 5380TIP3    H216082   5.471   0.608   4.837
 5381TIP3   OH216083   2.844   2.913   0.666
 5381TIP3    H116084   2.849   2.971   0.742
 5381TIP3    H216085   2.835   2.972   0.591
 5382TIP3   OH216086   4.402   1.093   3.268
 5382TIP3    H116087   4.314   1.107   3.303
 5382TIP3    H216088   4.460   1.110   3.342
 5383TIP3   OH216089   6.601   2.674   5.049
 5383TIP3    H116090   6.585   2.744   4.986
 5383TIP3    H216091   6.516   2.631   5.060
 5384TIP3   OH216092   0.233   7.401   6.492
 5384TIP3    H116093   0.296   7.334   6.520
 5384TIP3    H216094   0.174   7.411   6.566
 5385TIP3   OH216095   2.886   6.108   2.985
 5385TIP3    H116096   2.932   6.181   3.026
 5385TIP3    H216097   2.923   6.104   2.896
 5386TIP3   OH216098   4.085   0.346   2.090
 5386TIP3    H116099   4.000   0.388   2.101
 5386TIP3    H216100   4.140   0.413   2.048
 5387TIP3   OH216101   2.274   5.413   1.496
 5387TIP3    H116102   2.277   5.449   1.408
 5387TIP3    H216103   2.208   5.344   1.491
 5388TIP3   OH216104   5.193   7.781   4.953
 5388TIP3    H116105   5.161   7.824   4.874
 5388TIP3    H216106   5.130   7.805   5.021
 5389TIP3   OH216107   0.662   4.791   6.146
 5389TIP3    H116108   0.623   4.874   6.119
 5389TIP3    H216109   0.638   4.782   6.238
 5390TIP3   OH216110   4.907   1.510   0.230
 5390TIP3    H116111   4.927   1.557   0.149
 5390TIP3    H216112   4.974   1.539   0.292
 5391TIP3   OH216113   3.374   5.549   6.455
 5391TIP3    H116114   3.444   5.484   6.450
 5391TIP3    H216115   3.297   5.504   6.420
 5392TIP3   OH216116   5.709   6.506   3.858
 5392TIP3    H116117   5.728   6.448   3.932
 5392TIP3    H216118   5.616   6.524   3.866
 5393TIP3   OH216119   4.831   0.496   6.231
 5393TIP3    H116120   4.816   0.415   6.280
 5393TIP3    H216121   4.809   0.566   6.292
 5394TIP3   OH216122   5.360   2.980   3.860
 5394TIP3    H116123   5.386   2.947   3.946
 5394TIP3    H216124   5.429   3.042   3.835
 5395TIP3   OH216125   1.267   4.365   1.706
 5395TIP3    H116126   1.312   4.393   1.626
 5395TIP3    H216127   1.216   4.289   1.679
 5396TIP3   OH216128   5.184   5.455   6.572
 5396TIP3    H116129   5.131   5.414   6.505
 5396TIP3    H216130   5.267   5.475   6.528
 5397TIP3   OH216131   3.245   1.484   0.014
 5397TIP3    H116132   3.324   1.504  -0.036
 5397TIP3    H216133   3.273   1.420   0.079
 5398TIP3   OH216134   1.285   4.662   1.301
 5398TIP3    H116135   1.204   4.691   1.259
 5398TIP3    H216136   1.354   4.715   1.260
 5399TIP3   OH216137   5.480   4.740   2.689
 5399TIP3    H116138   5.535   4.713   2.615
 5399TIP3    H216139   5.390   4.738   2.655
 5400TIP3   OH216140   1.045   4.405   3.190
 5400TIP3    H116141   1.136   4.394   3.216
 5400TIP3    H216142   1.006   4.318   3.200
 5401TIP3   OH216143   5.932   4.744   6.307
 5401TIP3    H116144   5.998   4.717   6.370
 5401TIP3    H216145   5.914   4.665   6.256
 5402TIP3   OH216146   7.452   3.909   0.590
 5402TIP3    H116147   7.507   3.982   0.617
 5402TIP3    H216148   7.367   3.950   0.571
 5403TIP3   OH216149   4.156   3.155   2.503
 5403TIP3    H116150   4.076   3.104   2.516
 5403TIP3    H216151   4.226   3.098   2.535
 5404TIP3   OH216152   3.640   2.394   2.084
 5404TIP3    H116153   3.600   2.476   2.112
 5404TIP3    H216154   3.586   2.326   2.124
 5405TIP3   OH216155   3.221   5.174   0.092
 5405TIP3    H116156   3.175   5.205   0.169
 5405TIP3    H216157   3.280   5.246   0.068
 5406TIP3   OH216158   8.060   0.291   3.792
 5406TIP3    H116159   8.007   0.237   3.851
 5406TIP3    H216160   8.002   0.311   3.718
 5407TIP3   OH216161   3.655   1.603   4.589
 5407TIP3    H116162   3.713   1.623   4.516
 5407TIP3    H216163   3.602   1.681   4.600
 5408TIP3   OH216164   3.996   0.807   2.471
 5408TIP3    H116165   3.950   0.829   2.552
 5408TIP3    H216166   4.069   0.869   2.468
 5409TIP3   OH216167   6.898   2.510   0.944
 5409TIP3    H116168   6.813   2.467   0.938
 5409TIP3    H216169   6.944   2.462   1.013
 5410TIP3   OH216170   5.077   5.686   3.416
 5410TIP3    H116171   4.982   5.698   3.413
 5410TIP3    H216172   5.113   5.774   3.407
 5411TIP3   OH216173   3.088   3.375   4.020
 5411TIP3    H116174   3.172   3.419   4.034
 5411TIP3    H216175   3.029   3.417   4.082
 5412TIP3   OH216176   4.682   6.943   6.426
 5412TIP3    H116177   4.621   6.890   6.375
 5412TIP3    H216178   4.646   6.942   6.515
 5413TIP3   OH216179   5.406   6.202   5.838
 5413TIP3    H116180   5.458   6.143   5.784
 5413TIP3    H216181   5.328   6.221   5.785
 5414TIP3   OH216182   3.411   2.764   4.939
 5414TIP3    H116183   3.445   2.827   4.875
 5414TIP3    H216184   3.386   2.688   4.888
 5415TIP3   OH216185   1.284   2.582   2.137
 5415TIP3    H116186   1.192   2.563   2.155
 5415TIP3    H216187   1.284   2.672   2.103
 5416TIP3   OH216188   0.131   3.530   4.746
 5416TIP3    H116189   0.202   3.480   4.786
 5416TIP3    H216190   0.152   3.528   4.652
 5417TIP3   OH216191   3.410   1.386   4.754
 5417TIP3    H116192   3.437   1.392   4.663
 5417TIP3    H216193   3.376   1.474   4.774
 5418TIP3   OH216194   1.867   7.058   4.652
 5418TIP3    H116195   1.830   7.126   4.594
 5418TIP3    H216196   1.853   7.093   4.740
 5419TIP3   OH216197   0.892   1.278   1.889
 5419TIP3    H116198   0.842   1.359   1.888
 5419TIP3    H216199   0.979   1.304   1.921
 5420TIP3   OH216200   6.753   4.679   2.617
 5420TIP3    H116201   6.750   4.633   2.533
 5420TIP3    H216202   6.841   4.715   2.622
 5421TIP3   OH216203   0.163   4.340   6.028
 5421TIP3    H116204   0.084   4.313   5.982
 5421TIP3    H216205   0.152   4.307   6.117
 5422TIP3   OH216206   5.069   4.953   6.666
 5422TIP3    H116207   5.149   5.001   6.690
 5422TIP3    H216208   5.100   4.865   6.644
 5423TIP3   OH216209   1.180   1.634   0.232
 5423TIP3    H116210   1.216   1.641   0.320
 5423TIP3    H216211   1.245   1.584   0.183
 5424TIP3   OH216212   8.236   7.833   2.806
 5424TIP3    H116213   8.222   7.765   2.740
 5424TIP3    H216214   8.307   7.800   2.860
 5425TIP3   OH216215   2.076   5.547   3.010
 5425TIP3    H116216   1.993   5.564   2.965
 5425TIP3    H216217   2.142   5.553   2.941
 5426TIP3   OH216218   1.666   3.529   6.173
 5426TIP3    H116219   1.726   3.514   6.246
 5426TIP3    H216220   1.624   3.613   6.194
 5427TIP3   OH216221   3.516   0.635   5.477
 5427TIP3    H116222   3.599   0.683   5.470
 5427TIP3    H216223   3.486   0.625   5.387
 5428TIP3   OH216224   1.220   4.729   4.082
 5428TIP3    H116225   1.299   4.779   4.103
 5428TIP3    H216226   1.220   4.657   4.145
 5429TIP3   OH216227   5.085   6.904   3.237
 5429TIP3    H116228   5.121   6.863   3.158
 5429TIP3    H216229   5.160   6.913   3.296
 5430TIP3   OH216230   7.047   5.185   2.263
 5430TIP3    H116231   6.965   5.192   2.312
 5430TIP3    H216232   7.029   5.122   2.193
 5431TIP3   OH216233   0.421   4.863   6.764
 5431TIP3    H116234   0.375   4.841   6.683
 5431TIP3    H216235   0.416   4.783   6.817
 5432TIP3   OH216236   4.399   3.055   2.677
 5432TIP3    H116237   4.424   3.118   2.745
 5432TIP3    H216238   4.459   3.072   2.604
 5433TIP3   OH216239   7.663   0.082   0.569
 5433TIP3    H116240   7.745   0.042   0.540
 5433TIP3    H216241   7.603   0.070   0.495
 5434TIP3   OH216242   6.840   4.063   6.567
 5434TIP3    H116243   6.843   3.998   6.638
 5434TIP3    H216244   6.747   4.081   6.555
 5435TIP3   OH216245   2.412   4.483   5.426
 5435TIP3    H116246   2.371   4.466   5.510
 5435TIP3    H216247   2.350   4.538   5.379
 5436TIP3   OH216248   0.112   1.266   3.917
 5436TIP3    H116249   0.120   1.225   4.003
 5436TIP3    H216250   0.057   1.205   3.867
 5437TIP3   OH216251   5.218   3.123   0.152
 5437TIP3    H116252   5.174   3.118   0.237
 5437TIP3    H216253   5.189   3.044   0.106
 5438TIP3   OH216254   7.327   6.575   4.195
 5438TIP3    H116255   7.271   6.555   4.270
 5438TIP3    H216256   7.287   6.527   4.122
 5439TIP3   OH216257   4.767   4.142   6.790
 5439TIP3    H116258   4.723   4.226   6.808
 5439TIP3    H216259   4.731   4.082   6.856
 5440TIP3   OH216260   7.965   0.864   6.862
 5440TIP3    H116261   7.956   0.909   6.778
 5440TIP3    H216262   8.058   0.842   6.868
 5441TIP3   OH216263   2.470   5.918   6.375
 5441TIP3    H116264   2.404   5.860   6.337
 5441TIP3    H216265   2.541   5.859   6.401
 5442TIP3   OH216266   0.202   4.323   3.216
 5442TIP3    H116267   0.291   4.303   3.187
 5442TIP3    H216268   0.161   4.238   3.229
 5443TIP3   OH216269   0.036   7.788   6.640
 5443TIP3    H116270   0.107   7.767   6.579
 5443TIP3    H216271   0.077   7.787   6.726
 5444TIP3   OH216272   6.147   7.424   1.937
 5444TIP3    H116273   6.125   7.378   2.018
 5444TIP3    H216274   6.176   7.354   1.877
 5445TIP3   OH216275   7.461   0.111   4.695
 5445TIP3    H116276   7.388   0.137   4.752
 5445TIP3    H216277   7.421   0.055   4.629
 5446TIP3   OH216278   4.597   0.244   4.147
 5446TIP3    H116279   4.668   0.279   4.093
 5446TIP3    H216280   4.596   0.301   4.224
 5447TIP3   OH216281   0.063   5.657   4.215
 5447TIP3    H116282  -0.032   5.666   4.230
 5447TIP3    H216283   0.083   5.721   4.147
 5448TIP3   OH216284   6.848   0.119   0.955
 5448TIP3    H116285   6.928   0.146   0.912
 5448TIP3    H216286   6.851   0.023   0.956
 5449TIP3   OH216287   6.169   4.243   1.374
 5449TIP3    H116288   6.191   4.333   1.397
 5449TIP3    H216289   6.253   4.197   1.374
 5450TIP3   OH216290   2.126   6.955   2.470
 5450TIP3    H116291   2.145   6.865   2.443
 5450TIP3    H216292   2.132   6.954   2.565
 5451TIP3   OH216293   5.586   0.029   1.655
 5451TIP3    H116294   5.613  -0.060   1.679
 5451TIP3    H216295   5.615   0.039   1.564
 5452TIP3   OH216296   3.038   7.220   2.231
 5452TIP3    H116297   3.025   7.158   2.160
 5452TIP3    H216298   3.084   7.170   2.299
 5453TIP3   OH216299   5.412   4.745   3.414
 5453TIP3    H116300   5.438   4.653   3.425
 5453TIP3    H216301   5.329   4.740   3.365
 5454TIP3   OH216302   5.935   4.352   0.270
 5454TIP3    H116303   5.869   4.394   0.324
 5454TIP3    H216304   6.001   4.322   0.332
 5455TIP3   OH216305   3.924   1.930   2.306
 5455TIP3    H116306   3.881   1.966   2.228
 5455TIP3    H216307   3.905   1.836   2.304
 5456TIP3   OH216308   6.189   7.601   1.568
 5456TIP3    H116309   6.121   7.549   1.526
 5456TIP3    H216310   6.204   7.558   1.652
 5457TIP3   OH216311   4.919   5.852   0.892
 5457TIP3    H116312   4.963   5.818   0.814
 5457TIP3    H216313   4.967   5.813   0.965
 5458TIP3   OH216314   5.019   1.118   1.545
 5458TIP3    H116315   4.971   1.074   1.615
 5458TIP3    H216316   5.087   1.056   1.520
 5459TIP3   OH216317   3.472   5.617   2.715
 5459TIP3    H116318   3.558   5.657   2.709
 5459TIP3    H216319   3.442   5.611   2.624
 5460TIP3   OH216320   3.243   1.170   3.671
 5460TIP3    H116321   3.253   1.122   3.589
 5460TIP3    H216322   3.184   1.242   3.649
 5461TIP3   OH216323   6.468   7.500   4.604
 5461TIP3    H116324   6.477   7.446   4.683
 5461TIP3    H216325   6.388   7.551   4.618
 5462TIP3   OH216326   3.586   1.491   5.520
 5462TIP3    H116327   3.680   1.480   5.535
 5462TIP3    H216328   3.560   1.410   5.476
 5463TIP3   OH216329   1.785   5.845   2.227
 5463TIP3    H116330   1.831   5.903   2.288
 5463TIP3    H216331   1.794   5.888   2.142
 5464TIP3   OH216332   0.610   5.616   3.589
 5464TIP3    H116333   0.516   5.634   3.586
 5464TIP3    H216334   0.616   5.521   3.582
 5465TIP3   OH216335   1.960   4.088   4.666
 5465TIP3    H116336   2.028   4.053   4.608
 5465TIP3    H216337   2.001   4.091   4.752
 5466TIP3   OH216338   1.533   0.503   4.340
 5466TIP3    H116339   1.449   0.461   4.321
 5466TIP3    H216340   1.597   0.454   4.287
 5467TIP3   OH216341   2.347   0.862   1.659
 5467TIP3    H116342   2.301   0.849   1.576
 5467TIP3    H216343   2.293   0.925   1.707
 5468TIP3   OH216344   6.567   5.319   3.072
 5468TIP3    H116345   6.496   5.337   3.134
 5468TIP3    H216346   6.646   5.348   3.118
 5469TIP3   OH216347   3.855   1.321   3.293
 5469TIP3    H116348   3.946   1.316   3.320
 5469TIP3    H216349   3.852   1.274   3.209
 5470TIP3   OH216350   6.253   0.340   1.845
 5470TIP3    H116351   6.322   0.280   1.815
 5470TIP3    H216352   6.300   0.408   1.894
 5471TIP3   OH216353   2.483   5.219   5.405
 5471TIP3    H116354   2.484   5.314   5.390
 5471TIP3    H216355   2.433   5.208   5.486
 5472TIP3   OH216356   2.434   2.496   4.491
 5472TIP3    H116357   2.507   2.533   4.441
 5472TIP3    H216358   2.451   2.402   4.493
 5473TIP3   OH216359   4.424   0.643   3.189
 5473TIP3    H116360   4.499   0.589   3.165
 5473TIP3    H216361   4.445   0.678   3.276
 5474TIP3   OH216362   5.666   3.011   1.087
 5474TIP3    H116363   5.676   2.995   1.181
 5474TIP3    H216364   5.669   2.923   1.048
 5475TIP3   OH216365   2.342   6.064   2.841
 5475TIP3    H116366   2.297   6.135   2.887
 5475TIP3    H216367   2.338   5.990   2.902
 5476TIP3   OH216368   6.866   1.974   4.793
 5476TIP3    H116369   6.914   2.023   4.726
 5476TIP3    H216370   6.811   1.913   4.743
 5477TIP3   OH216371   3.851   4.202   0.188
 5477TIP3    H116372   3.891   4.249   0.114
 5477TIP3    H216373   3.924   4.183   0.246
 5478TIP3   OH216374   1.232   4.468   3.514
 5478TIP3    H116375   1.266   4.531   3.577
 5478TIP3    H216376   1.238   4.383   3.559
 5479TIP3   OH216377   1.971   6.391   4.661
 5479TIP3    H116378   1.902   6.403   4.596
 5479TIP3    H216379   2.029   6.325   4.622
 5480TIP3   OH216380   5.033   1.243   2.967
 5480TIP3    H116381   5.060   1.157   2.999
 5480TIP3    H216382   4.965   1.226   2.902
 5481TIP3   OH216383   7.874   1.826   6.390
 5481TIP3    H116384   7.943   1.842   6.325
 5481TIP3    H216385   7.895   1.884   6.463
 5482TIP3   OH216386   1.271   3.905   6.415
 5482TIP3    H116387   1.318   3.985   6.394
 5482TIP3    H216388   1.184   3.935   6.442
 5483TIP3   OH216389   4.267   7.224   6.826
 5483TIP3    H116390   4.181   7.265   6.816
 5483TIP3    H216391   4.320   7.292   6.869
 5484TIP3   OH216392   2.702   6.316   2.436
 5484TIP3    H116393   2.683   6.231   2.476
 5484TIP3    H216394   2.777   6.349   2.485
 5485TIP3   OH216395   5.477   3.434   1.918
 5485TIP3    H116396   5.459   3.523   1.888
 5485TIP3    H216397   5.571   3.423   1.907
 5486TIP3   OH216398   1.724   0.240   0.801
 5486TIP3    H116399   1.766   0.325   0.791
 5486TIP3    H216400   1.737   0.217   0.893
 5487TIP3   OH216401   0.618   7.395   5.070
 5487TIP3    H116402   0.571   7.478   5.066
 5487TIP3    H216403   0.672   7.403   5.149
 5488TIP3   OH216404   7.789   3.216   1.164
 5488TIP3    H116405   7.725   3.154   1.199
 5488TIP3    H216406   7.869   3.166   1.155
 5489TIP3   OH216407   4.348  -0.003   2.334
 5489TIP3    H116408   4.337  -0.009   2.429
 5489TIP3    H216409   4.323   0.086   2.313
 5490TIP3   OH216410   6.410   4.988   0.869
 5490TIP3    H116411   6.500   5.013   0.853
 5490TIP3    H216412   6.360   5.026   0.797
 5491TIP3   OH216413   8.168   1.331   2.926
 5491TIP3    H116414   8.222   1.319   2.847
 5491TIP3    H216415   8.124   1.414   2.912
 5492TIP3   OH216416   7.837   7.148   6.456
 5492TIP3    H116417   7.825   7.053   6.448
 5492TIP3    H216418   7.913   7.157   6.515
 5493TIP3   OH216419   5.525   2.889   1.864
 5493TIP3    H116420   5.534   2.919   1.774
 5493TIP3    H216421   5.442   2.927   1.894
 5494TIP3   OH216422   4.167   0.919   1.279
 5494TIP3    H116423   4.150   0.986   1.212
 5494TIP3    H216424   4.260   0.900   1.271
 5495TIP3   OH216425   0.635   4.499   0.975
 5495TIP3    H116426   0.614   4.435   1.042
 5495TIP3    H216427   0.558   4.557   0.972
 5496TIP3   OH216428   0.758   1.117   4.663
 5496TIP3    H116429   0.736   1.028   4.692
 5496TIP3    H216430   0.674   1.160   4.653
 5497TIP3   OH216431   4.567   3.603   5.144
 5497TIP3    H116432   4.510   3.600   5.221
 5497TIP3    H216433   4.541   3.682   5.097
 5498TIP3   OH216434   5.448   0.811   5.308
 5498TIP3    H116435   5.435   0.886   5.366
 5498TIP3    H216436   5.363   0.767   5.307
 5499TIP3   OH216437   2.902   0.546   6.568
 5499TIP3    H116438   2.896   0.450   6.565
 5499TIP3    H216439   2.929   0.571   6.480
 5500TIP3   OH216440   4.924   3.506   0.023
 5500TIP3    H116441   4.937   3.417  -0.010
 5500TIP3    H216442   5.012   3.536   0.046
 5501TIP3   OH216443   6.614   4.320   3.905
 5501TIP3    H116444   6.528   4.363   3.907
 5501TIP3    H216445   6.670   4.377   3.957
 5502TIP3   OH216446   7.188   1.514   1.501
 5502TIP3    H116447   7.107   1.562   1.518
 5502TIP3    H216448   7.202   1.521   1.407
 5503TIP3   OH216449   8.227   5.062   5.064
 5503TIP3    H116450   8.215   5.154   5.040
 5503TIP3    H216451   8.284   5.027   4.995
 5504TIP3   OH216452   0.270   1.220   2.582
 5504TIP3    H116453   0.184   1.246   2.550
 5504TIP3    H216454   0.313   1.302   2.605
 5505TIP3   OH216455   4.298   4.742   1.743
 5505TIP3    H116456   4.385   4.777   1.725
 5505TIP3    H216457   4.250   4.816   1.782
 5506TIP3   OH216458   5.402   3.751   0.785
 5506TIP3    H116459   5.371   3.661   0.773
 5506TIP3    H216460   5.420   3.758   0.879
 5507TIP3   OH216461   0.338   0.447   1.374
 5507TIP3    H116462   0.294   0.527   1.402
 5507TIP3    H216463   0.430   0.459   1.399
 5508TIP3   OH216464   8.151   1.942   5.578
 5508TIP3    H116465   8.087   1.984   5.521
 5508TIP3    H216466   8.222   1.917   5.519
 5509TIP3   OH216467   8.329   3.764   5.363
 5509TIP3    H116468   8.331   3.746   5.457
 5509TIP3    H216469   8.421   3.763   5.336
 5510TIP3   OH216470   2.629   4.095   1.617
 5510TIP3    H116471   2.587   4.139   1.692
 5510TIP3    H216472   2.648   4.166   1.556
 5511TIP3   OH216473   5.706   5.606   2.507
 5511TIP3    H116474   5.748   5.551   2.441
 5511TIP3    H216475   5.660   5.673   2.458
 5512TIP3   OH216476   3.392   0.304   1.767
 5512TIP3    H116477   3.320   0.319   1.828
 5512TIP3    H216478   3.469   0.295   1.823
 5513TIP3   OH216479   3.969   4.851   6.590
 5513TIP3    H116480   3.933   4.917   6.531
 5513TIP3    H216481   3.906   4.779   6.587
 5514TIP3   OH216482   6.093   6.514   3.740
 5514TIP3    H116483   6.144   6.587   3.704
 5514TIP3    H216484   6.158   6.446   3.756
 5515TIP3   OH216485   4.413   1.385   6.364
 5515TIP3    H116486   4.365   1.468   6.366
 5515TIP3    H216487   4.474   1.391   6.437
 5516TIP3   OH216488   0.853   1.354   0.414
 5516TIP3    H116489   0.815   1.342   0.501
 5516TIP3    H216490   0.944   1.375   0.431
 5517TIP3   OH216491   3.399   2.785   6.393
 5517TIP3    H116492   3.488   2.753   6.410
 5517TIP3    H216493   3.397   2.801   6.298
 5518TIP3   OH216494   0.741   5.788   1.989
 5518TIP3    H116495   0.781   5.856   2.044
 5518TIP3    H216496   0.807   5.719   1.985
 5519TIP3   OH216497   0.031   4.983   5.735
 5519TIP3    H116498   0.086   4.953   5.662
 5519TIP3    H216499  -0.027   4.909   5.753
 5520TIP3   OH216500   5.938   6.673   2.770
 5520TIP3    H116501   5.977   6.684   2.683
 5520TIP3    H216502   6.009   6.696   2.831
 5521TIP3   OH216503   6.577   7.894   0.220
 5521TIP3    H116504   6.505   7.866   0.163
 5521TIP3    H216505   6.621   7.963   0.171
 5522TIP3   OH216506   2.654   0.634   3.811
 5522TIP3    H116507   2.740   0.594   3.826
 5522TIP3    H216508   2.614   0.638   3.898
 5523TIP3   OH216509   1.437   0.497   5.167
 5523TIP3    H116510   1.434   0.591   5.184
 5523TIP3    H216511   1.393   0.486   5.083
 5524TIP3   OH216512   8.108   7.643   3.782
 5524TIP3    H116513   8.016   7.668   3.791
 5524TIP3    H216514   8.132   7.608   3.867
 5525TIP3   OH216515   6.553   1.541   0.701
 5525TIP3    H116516   6.620   1.496   0.650
 5525TIP3    H216517   6.575   1.634   0.695
 5526TIP3   OH216518   3.052   2.004   5.390
 5526TIP3    H116519   3.069   2.089   5.350
 5526TIP3    H216520   2.976   1.970   5.343
 5527TIP3   OH216521   1.160   7.826   6.165
 5527TIP3    H116522   1.167   7.731   6.151
 5527TIP3    H216523   1.161   7.864   6.077
 5528TIP3   OH216524   2.973   3.434   5.418
 5528TIP3    H116525   2.935   3.395   5.496
 5528TIP3    H216526   3.066   3.446   5.439
 5529TIP3   OH216527   5.532   7.373   6.375
 5529TIP3    H116528   5.575   7.289   6.390
 5529TIP3    H216529   5.604   7.434   6.355
 5530TIP3   OH216530   0.596   1.023   4.464
 5530TIP3    H116531   0.666   1.088   4.457
 5530TIP3    H216532   0.576   0.999   4.373
 5531TIP3   OH216533   1.202   0.826   3.540
 5531TIP3    H116534   1.289   0.859   3.515
 5531TIP3    H216535   1.186   0.753   3.479
 5532TIP3   OH216536   6.060   3.116   1.006
 5532TIP3    H116537   6.034   3.199   1.046
 5532TIP3    H216538   6.156   3.117   1.011
 5533TIP3   OH216539   4.092   7.369   6.380
 5533TIP3    H116540   4.157   7.413   6.325
 5533TIP3    H216541   4.143   7.306   6.430
 5534TIP3   OH216542   3.810   2.842   2.065
 5534TIP3    H116543   3.765   2.877   1.988
 5534TIP3    H216544   3.880   2.905   2.083
 5535TIP3   OH216545   7.189   4.393   2.107
 5535TIP3    H116546   7.177   4.464   2.170
 5535TIP3    H216547   7.166   4.314   2.155
 5536TIP3   OH216548   0.813   6.187   2.679
 5536TIP3    H116549   0.755   6.263   2.690
 5536TIP3    H216550   0.894   6.213   2.721
 5537TIP3   OH216551   2.822   0.498   2.851
 5537TIP3    H116552   2.909   0.533   2.869
 5537TIP3    H216553   2.819   0.491   2.756
 5538TIP3   OH216554   7.741   1.087   6.573
 5538TIP3    H116555   7.829   1.086   6.610
 5538TIP3    H216556   7.686   1.123   6.644
 5539TIP3   OH216557   4.736   0.842   1.929
 5539TIP3    H116558   4.712   0.912   1.990
 5539TIP3    H216559   4.789   0.886   1.862
 5540TIP3   OH216560   7.289   7.726   0.831
 5540TIP3    H116561   7.226   7.703   0.900
 5540TIP3    H216562   7.290   7.649   0.774
 5541TIP3   OH216563   4.735   6.084   4.242
 5541TIP3    H116564   4.726   6.064   4.148
 5541TIP3    H216565   4.663   6.145   4.260
 5542TIP3   OH216566   8.055   2.615   1.024
 5542TIP3    H116567   8.147   2.604   1.001
 5542TIP3    H216568   8.053   2.605   1.119
 5543TIP3   OH216569   5.676   2.611   0.281
 5543TIP3    H116570   5.743   2.570   0.336
 5543TIP3    H216571   5.707   2.700   0.266
 5544TIP3   OH216572   7.358   1.152   4.178
 5544TIP3    H116573   7.410   1.141   4.258
 5544TIP3    H216574   7.389   1.235   4.140
 5545TIP3   OH216575   1.070   3.629   5.143
 5545TIP3    H116576   1.062   3.721   5.120
 5545TIP3    H216577   1.000   3.586   5.094
 5546TIP3   OH216578   7.225   4.684   1.234
 5546TIP3    H116579   7.143   4.638   1.214
 5546TIP3    H216580   7.293   4.630   1.193
 5547TIP3   OH216581   3.229   7.205   3.661
 5547TIP3    H116582   3.292   7.264   3.620
 5547TIP3    H216583   3.160   7.263   3.693
 5548TIP3   OH216584   1.974   6.352   1.155
 5548TIP3    H116585   1.889   6.311   1.135
 5548TIP3    H216586   2.016   6.290   1.214
 5549TIP3   OH216587   2.453   1.582   6.584
 5549TIP3    H116588   2.516   1.540   6.525
 5549TIP3    H216589   2.440   1.518   6.654
 5550TIP3   OH216590   4.384   2.624   4.682
 5550TIP3    H116591   4.288   2.622   4.690
 5550TIP3    H216592   4.415   2.630   4.772
 5551TIP3   OH216593   1.151   6.293   0.530
 5551TIP3    H116594   1.079   6.243   0.492
 5551TIP3    H216595   1.219   6.294   0.462
 5552TIP3   OH216596   5.528   4.444   6.517
 5552TIP3    H116597   5.595   4.397   6.566
 5552TIP3    H216598   5.533   4.534   6.549
 5553TIP3   OH216599   3.579   7.311   4.297
 5553TIP3    H116600   3.637   7.382   4.324
 5553TIP3    H216601   3.508   7.354   4.249
 5554TIP3   OH216602   6.324   4.154   0.946
 5554TIP3    H116603   6.262   4.082   0.931
 5554TIP3    H216604   6.410   4.114   0.938
 5555TIP3   OH216605   2.501   2.967   3.704
 5555TIP3    H116606   2.430   2.924   3.656
 5555TIP3    H216607   2.471   2.969   3.795
 5556TIP3   OH216608   3.982   2.750   2.417
 5556TIP3    H116609   4.071   2.773   2.390
 5556TIP3    H216610   3.994   2.675   2.476
 5557TIP3   OH216611   0.218   0.364   4.085
 5557TIP3    H116612   0.165   0.314   4.023
 5557TIP3    H216613   0.271   0.422   4.030
 5558TIP3   OH216614   7.574   3.716   6.170
 5558TIP3    H116615   7.597   3.652   6.103
 5558TIP3    H216616   7.623   3.689   6.248
 5559TIP3   OH216617   2.632   6.875   4.189
 5559TIP3    H116618   2.647   6.963   4.155
 5559TIP3    H216619   2.706   6.824   4.156
 5560TIP3   OH216620   2.186   1.660   1.432
 5560TIP3    H116621   2.232   1.731   1.387
 5560TIP3    H216622   2.144   1.703   1.507
 5561TIP3   OH216623   7.055   5.189   4.331
 5561TIP3    H116624   7.114   5.220   4.263
 5561TIP3    H216625   7.074   5.096   4.339
 5562TIP3   OH216626   5.913   2.809   4.091
 5562TIP3    H116627   5.825   2.771   4.092
 5562TIP3    H216628   5.925   2.843   4.180
 5563TIP3   OH216629   8.035   5.787   0.769
 5563TIP3    H116630   8.050   5.721   0.701
 5563TIP3    H216631   7.998   5.737   0.842
 5564TIP3   OH216632   4.733   2.891   2.860
 5564TIP3    H116633   4.700   2.838   2.933
 5564TIP3    H216634   4.767   2.827   2.798
 5565TIP3   OH216635   0.386   2.147   5.085
 5565TIP3    H116636   0.303   2.194   5.092
 5565TIP3    H216637   0.364   2.056   5.104
 5566TIP3   OH216638   5.979   4.521   5.404
 5566TIP3    H116639   6.031   4.601   5.414
 5566TIP3    H216640   6.029   4.454   5.451
 5567TIP3   OH216641   5.651   5.669   6.282
 5567TIP3    H116642   5.718   5.626   6.228
 5567TIP3    H216643   5.575   5.676   6.224
 5568TIP3   OH216644   7.175   4.854   5.653
 5568TIP3    H116645   7.193   4.765   5.622
 5568TIP3    H216646   7.107   4.843   5.719
 5569TIP3   OH216647   0.373   0.886   3.470
 5569TIP3    H116648   0.342   0.815   3.413
 5569TIP3    H216649   0.298   0.908   3.525
 5570TIP3   OH216650   7.503   0.693   6.341
 5570TIP3    H116651   7.416   0.707   6.305
 5570TIP3    H216652   7.517   0.767   6.399
 5571TIP3   OH216653   0.323   5.840   2.689
 5571TIP3    H116654   0.395   5.823   2.750
 5571TIP3    H216655   0.244   5.838   2.743
 5572TIP3   OH216656   0.456   0.676   6.634
 5572TIP3    H116657   0.434   0.633   6.551
 5572TIP3    H216658   0.551   0.687   6.631
 5573TIP3   OH216659   3.613   4.649   6.557
 5573TIP3    H116660   3.703   4.622   6.575
 5573TIP3    H216661   3.590   4.706   6.630
 5574TIP3   OH216662   1.192   0.505   5.547
 5574TIP3    H116663   1.122   0.478   5.488
 5574TIP3    H216664   1.220   0.425   5.591
 5575TIP3   OH216665   5.620   4.566   4.235
 5575TIP3    H116666   5.535   4.593   4.200
 5575TIP3    H216667   5.608   4.474   4.259
 5576TIP3   OH216668   4.496   0.710   1.806
 5576TIP3    H116669   4.460   0.781   1.752
 5576TIP3    H216670   4.564   0.752   1.859
 5577TIP3   OH216671   3.672   1.305   2.813
 5577TIP3    H116672   3.657   1.395   2.785
 5577TIP3    H216673   3.599   1.256   2.775
 5578TIP3   OH216674   2.840   7.103   0.161
 5578TIP3    H116675   2.885   7.153   0.092
 5578TIP3    H216676   2.763   7.067   0.118
 5579TIP3   OH216677   8.182   7.427   3.069
 5579TIP3    H116678   8.127   7.470   3.135
 5579TIP3    H216679   8.250   7.492   3.048
 5580TIP3   OH216680   0.147   7.494   5.455
 5580TIP3    H116681   0.086   7.484   5.382
 5580TIP3    H216682   0.174   7.405   5.477
 5581TIP3   OH216683   0.259   5.990   5.683
 5581TIP3    H116684   0.319   6.061   5.659
 5581TIP3    H216685   0.307   5.910   5.664
 5582TIP3   OH216686   5.985   1.560   1.825
 5582TIP3    H116687   6.028   1.625   1.770
 5582TIP3    H216688   5.982   1.600   1.912
 5583TIP3   OH216689   5.540   0.434   2.618
 5583TIP3    H116690   5.461   0.381   2.624
 5583TIP3    H216691   5.613   0.371   2.622
 5584TIP3   OH216692   4.089   0.275   0.457
 5584TIP3    H116693   4.161   0.300   0.401
 5584TIP3    H216694   4.040   0.356   0.472
 5585TIP3   OH216695   1.931   1.942   5.051
 5585TIP3    H116696   1.969   1.955   5.138
 5585TIP3    H216697   1.991   1.988   4.992
 5586TIP3   OH216698   2.034   3.644   6.214
 5586TIP3    H116699   2.013   3.722   6.162
 5586TIP3    H216700   2.130   3.637   6.208
 5587TIP3   OH216701   1.937   6.083   2.288
 5587TIP3    H116702   1.871   6.143   2.254
 5587TIP3    H216703   2.019   6.111   2.247
 5588TIP3   OH216704   2.209   5.964   0.678
 5588TIP3    H116705   2.228   5.875   0.707
 5588TIP3    H216706   2.240   6.020   0.750
 5589TIP3   OH216707   2.976   6.129   2.710
 5589TIP3    H116708   3.029   6.060   2.668
 5589TIP3    H216709   2.955   6.189   2.639
 5590TIP3   OH216710   0.150   4.623   2.853
 5590TIP3    H116711   0.090   4.580   2.914
 5590TIP3    H216712   0.232   4.630   2.902
 5591TIP3   OH216713   5.399   0.484   6.548
 5591TIP3    H116714   5.440   0.439   6.621
 5591TIP3    H216715   5.318   0.435   6.532
 5592TIP3   OH216716   2.520   7.207   6.417
 5592TIP3    H116717   2.468   7.134   6.450
 5592TIP3    H216718   2.527   7.267   6.492
 5593TIP3   OH216719   2.241   5.615   3.890
 5593TIP3    H116720   2.173   5.682   3.886
 5593TIP3    H216721   2.251   5.597   3.983
 5594TIP3   OH216722   6.611   1.822   2.505
 5594TIP3    H116723   6.531   1.857   2.466
 5594TIP3    H216724   6.584   1.743   2.551
 5595TIP3   OH216725   4.240   5.073   2.172
 5595TIP3    H116726   4.236   4.990   2.221
 5595TIP3    H216727   4.154   5.113   2.185
 5596TIP3   OH216728   3.453   0.095   5.181
 5596TIP3    H116729   3.419   0.031   5.244
 5596TIP3    H216730   3.394   0.170   5.189
 5597TIP3   OH216731   2.920   7.765   1.950
 5597TIP3    H116732   2.872   7.693   1.992
 5597TIP3    H216733   2.949   7.821   2.022
 5598TIP3   OH216734   2.877   3.567   4.999
 5598TIP3    H116735   2.969   3.586   5.017
 5598TIP3    H216736   2.878   3.487   4.947
 5599TIP3   OH216737   7.355   5.358   5.565
 5599TIP3    H116738   7.339   5.368   5.658
 5599TIP3    H216739   7.327   5.441   5.526
 5600TIP3   OH216740   4.762   6.589   2.214
 5600TIP3    H116741   4.761   6.660   2.150
 5600TIP3    H216742   4.792   6.513   2.164
 5601TIP3   OH216743   7.807   2.750   1.078
 5601TIP3    H116744   7.896   2.715   1.075
 5601TIP3    H216745   7.753   2.681   1.039
 5602TIP3   OH216746   2.387   5.191   5.667
 5602TIP3    H116747   2.461   5.178   5.726
 5602TIP3    H216748   2.356   5.279   5.686
 5603TIP3   OH216749   3.026   7.282   5.109
 5603TIP3    H116750   2.996   7.219   5.175
 5603TIP3    H216751   3.086   7.232   5.054
 5604TIP3   OH216752   6.825   0.337   2.521
 5604TIP3    H116753   6.800   0.255   2.563
 5604TIP3    H216754   6.897   0.313   2.463
 5605TIP3   OH216755   1.327   6.722   5.422
 5605TIP3    H116756   1.318   6.756   5.511
 5605TIP3    H216757   1.344   6.799   5.368
 5606TIP3   OH216758   7.904   3.334   6.325
 5606TIP3    H116759   7.982   3.307   6.375
 5606TIP3    H216760   7.935   3.343   6.235
 5607TIP3   OH216761   5.039   3.799   0.901
 5607TIP3    H116762   4.987   3.803   0.981
 5607TIP3    H216763   5.077   3.886   0.892
 5608TIP3   OH216764   3.204   4.107   1.082
 5608TIP3    H116765   3.290   4.140   1.108
 5608TIP3    H216766   3.222   4.021   1.043
 5609TIP3   OH216767   7.368   0.119   2.284
 5609TIP3    H116768   7.436   0.186   2.288
 5609TIP3    H216769   7.322   0.126   2.367
 5610TIP3   OH216770   7.963   2.999   1.164
 5610TIP3    H116771   8.055   2.973   1.155
 5610TIP3    H216772   7.915   2.917   1.156
 5611TIP3   OH216773   5.801   5.122   0.939
 5611TIP3    H116774   5.860   5.060   0.980
 5611TIP3    H216775   5.732   5.068   0.901
 5612TIP3   OH216776   4.642   1.726   2.840
 5612TIP3    H116777   4.586   1.706   2.765
 5612TIP3    H216778   4.712   1.661   2.837
 5613TIP3   OH216779   1.392   0.999   4.268
 5613TIP3    H116780   1.334   0.994   4.192
 5613TIP3    H216781   1.335   0.981   4.343
 5614TIP3   OH216782   0.632   0.847   5.526
 5614TIP3    H116783   0.537   0.852   5.535
 5614TIP3    H216784   0.666   0.848   5.615
 5615TIP3   OH216785   5.853   4.121   3.476
 5615TIP3    H116786   5.931   4.168   3.447
 5615TIP3    H216787   5.870   4.030   3.452
 5616TIP3   OH216788   8.376   4.175   5.901
 5616TIP3    H116789   8.283   4.151   5.903
 5616TIP3    H216790   8.414   4.118   5.834
 5617TIP3   OH216791   7.500   6.064   6.284
 5617TIP3    H116792   7.442   6.040   6.212
 5617TIP3    H216793   7.531   5.980   6.320
 5618TIP3   OH216794   0.286   7.390   3.022
 5618TIP3    H116795   0.262   7.406   3.113
 5618TIP3    H216796   0.293   7.295   3.015
 5619TIP3   OH216797   7.640   7.903   1.697
 5619TIP3    H116798   7.633   7.874   1.787
 5619TIP3    H216799   7.725   7.871   1.667
 5620TIP3   OH216800   7.241   7.884   0.600
 5620TIP3    H116801   7.172   7.946   0.625
 5620TIP3    H216802   7.261   7.837   0.680
 5621TIP3   OH216803   5.469   1.887   5.911
 5621TIP3    H116804   5.406   1.816   5.905
 5621TIP3    H216805   5.484   1.899   6.004
 5622TIP3   OH216806   6.342   2.329   2.890
 5622TIP3    H116807   6.292   2.307   2.969
 5622TIP3    H216808   6.329   2.423   2.879
 5623TIP3   OH216809   0.622   6.935   1.599
 5623TIP3    H116810   0.548   6.884   1.567
 5623TIP3    H216811   0.672   6.958   1.521
 5624TIP3   OH216812   0.878   2.411   1.363
 5624TIP3    H116813   0.849   2.494   1.400
 5624TIP3    H216814   0.864   2.420   1.269
 5625TIP3   OH216815   1.392   2.468   4.253
 5625TIP3    H116816   1.301   2.467   4.224
 5625TIP3    H216817   1.388   2.450   4.347
 5626TIP3   OH216818   5.518   3.978   1.219
 5626TIP3    H116819   5.459   4.030   1.165
 5626TIP3    H216820   5.486   3.888   1.210
 5627TIP3   OH216821   1.372   3.599   6.405
 5627TIP3    H116822   1.435   3.535   6.374
 5627TIP3    H216823   1.405   3.684   6.375
 5628TIP3   OH216824   0.080   2.315   3.197
 5628TIP3    H116825   0.079   2.265   3.278
 5628TIP3    H216826   0.173   2.329   3.178
 5629TIP3   OH216827   3.250   1.281   6.818
 5629TIP3    H116828   3.344   1.295   6.806
 5629TIP3    H216829   3.228   1.212   6.755
 5630TIP3   OH216830   2.065   3.654   3.345
 5630TIP3    H116831   1.975   3.685   3.334
 5630TIP3    H216832   2.057   3.577   3.401
 5631TIP3   OH216833   1.209   1.454   2.439
 5631TIP3    H116834   1.180   1.363   2.446
 5631TIP3    H216835   1.128   1.504   2.428
 5632TIP3   OH216836   1.329   0.550   4.666
 5632TIP3    H116837   1.424   0.536   4.668
 5632TIP3    H216838   1.318   0.642   4.691
 5633TIP3   OH216839   7.110   6.468   4.835
 5633TIP3    H116840   7.056   6.515   4.898
 5633TIP3    H216841   7.164   6.537   4.795
 5634TIP3   OH216842   4.905   7.793   0.782
 5634TIP3    H116843   4.949   7.817   0.864
 5634TIP3    H216844   4.876   7.877   0.746
 5635TIP3   OH216845   7.025   4.099   4.963
 5635TIP3    H116846   6.965   4.167   4.932
 5635TIP3    H216847   7.097   4.148   5.003
 5636TIP3   OH216848   8.151   7.189   0.265
 5636TIP3    H116849   8.074   7.192   0.209
 5636TIP3    H216850   8.224   7.174   0.205
 5637TIP3   OH216851   0.867   6.930   3.465
 5637TIP3    H116852   0.847   6.932   3.371
 5637TIP3    H216853   0.803   6.868   3.501
 5638TIP3   OH216854   7.168   4.057   3.495
 5638TIP3    H116855   7.094   4.094   3.542
 5638TIP3    H216856   7.161   4.093   3.407
 5639TIP3   OH216857   6.187   6.706   5.307
 5639TIP3    H116858   6.135   6.626   5.312
 5639TIP3    H216859   6.136   6.765   5.252
 5640TIP3   OH216860   5.670   4.787   1.530
 5640TIP3    H116861   5.762   4.795   1.553
 5640TIP3    H216862   5.625   4.849   1.589
 5641TIP3   OH216863   2.596   5.476   6.449
 5641TIP3    H116864   2.557   5.419   6.382
 5641TIP3    H216865   2.527   5.485   6.515
 5642TIP3   OH216866   1.532   5.627   2.926
 5642TIP3    H116867   1.515   5.660   3.014
 5642TIP3    H216868   1.458   5.658   2.874
 5643TIP3   OH216869   1.659   4.741   4.606
 5643TIP3    H116870   1.611   4.707   4.682
 5643TIP3    H216871   1.712   4.667   4.576
 5644TIP3   OH216872   3.132   5.118   2.625
 5644TIP3    H116873   3.141   5.114   2.530
 5644TIP3    H216874   3.039   5.138   2.640
 5645TIP3   OH216875   2.612   2.391   0.988
 5645TIP3    H116876   2.519   2.368   0.994
 5645TIP3    H216877   2.627   2.406   0.895
 5646TIP3   OH216878   7.998   3.564   2.193
 5646TIP3    H116879   8.067   3.497   2.196
 5646TIP3    H216880   8.003   3.607   2.278
 5647TIP3   OH216881   0.481   2.929   2.172
 5647TIP3    H116882   0.409   2.884   2.127
 5647TIP3    H216883   0.517   2.863   2.230
 5648TIP3   OH216884   4.024   1.863   2.004
 5648TIP3    H116885   3.950   1.891   1.950
 5648TIP3    H216886   3.996   1.779   2.041
 5649TIP3   OH216887   5.976   7.762   2.888
 5649TIP3    H116888   5.893   7.808   2.894
 5649TIP3    H216889   6.017   7.796   2.808
 5650TIP3   OH216890   7.479   1.273   5.336
 5650TIP3    H116891   7.565   1.230   5.326
 5650TIP3    H216892   7.454   1.255   5.426
 5651TIP3   OH216893   1.165   4.507   0.564
 5651TIP3    H116894   1.176   4.451   0.486
 5651TIP3    H216895   1.240   4.486   0.620
 5652TIP3   OH216896  -0.009   3.710   1.543
 5652TIP3    H116897   0.075   3.695   1.500
 5652TIP3    H216898  -0.057   3.767   1.482
 5653TIP3   OH216899   4.780   7.502   2.247
 5653TIP3    H116900   4.866   7.471   2.220
 5653TIP3    H216901   4.798   7.579   2.302
 5654TIP3   OH216902   0.449   7.009   1.972
 5654TIP3    H116903   0.470   6.921   1.942
 5654TIP3    H216904   0.469   7.008   2.066
 5655TIP3   OH216905  -0.012   4.483   3.049
 5655TIP3    H116906   0.046   4.477   3.125
 5655TIP3    H216907  -0.020   4.393   3.019
 5656TIP3   OH216908   7.473   7.637   0.147
 5656TIP3    H116909   7.473   7.614   0.054
 5656TIP3    H216910   7.565   7.655   0.167
 5657TIP3   OH216911   1.570   6.789   0.855
 5657TIP3    H116912   1.619   6.710   0.831
 5657TIP3    H216913   1.631   6.839   0.910
 5658TIP3   OH216914   4.118   2.046   0.695
 5658TIP3    H116915   4.116   2.097   0.776
 5658TIP3    H216916   4.090   2.107   0.628
 5659TIP3   OH216917   7.871   2.316   2.011
 5659TIP3    H116918   7.814   2.323   1.935
 5659TIP3    H216919   7.863   2.225   2.039
 5660TIP3   OH216920   3.591   1.132   0.597
 5660TIP3    H116921   3.503   1.133   0.635
 5660TIP3    H216922   3.619   1.223   0.598
 5661TIP3   OH216923   1.795   4.764   3.720
 5661TIP3    H116924   1.711   4.733   3.688
 5661TIP3    H216925   1.773   4.825   3.790
 5662TIP3   OH216926   5.363   1.634   1.393
 5662TIP3    H116927   5.383   1.686   1.315
 5662TIP3    H216928   5.331   1.697   1.457
 5663TIP3   OH216929  -0.028   7.899   0.896
 5663TIP3    H116930   0.047   7.957   0.882
 5663TIP3    H216931  -0.004   7.847   0.972
 5664TIP3   OH216932   1.731   5.740   6.661
 5664TIP3    H116933   1.769   5.656   6.635
 5664TIP3    H216934   1.680   5.720   6.740
 5665TIP3   OH216935   4.137   0.661   5.407
 5665TIP3    H116936   4.114   0.753   5.398
 5665TIP3    H216937   4.063   0.614   5.369
 5666TIP3   OH216938   0.013   6.001   5.791
 5666TIP3    H116939   0.096   6.013   5.743
 5666TIP3    H216940  -0.001   5.906   5.790
 5667TIP3   OH216941   1.285   0.571   4.094
 5667TIP3    H116942   1.310   0.656   4.129
 5667TIP3    H216943   1.262   0.589   4.002
 5668TIP3   OH216944   4.065   3.499   1.801
 5668TIP3    H116945   4.094   3.590   1.803
 5668TIP3    H216946   4.137   3.449   1.838
 5669TIP3   OH216947   3.452   6.174   4.147
 5669TIP3    H116948   3.511   6.101   4.167
 5669TIP3    H216949   3.371   6.133   4.118
 5670TIP3   OH216950   2.805   2.174   2.613
 5670TIP3    H116951   2.734   2.222   2.656
 5670TIP3    H216952   2.793   2.192   2.519
 5671TIP3   OH216953   6.457   0.376   4.532
 5671TIP3    H116954   6.429   0.368   4.441
 5671TIP3    H216955   6.553   0.384   4.527
 5672TIP3   OH216956   3.007   0.901   2.760
 5672TIP3    H116957   3.008   0.891   2.664
 5672TIP3    H216958   2.928   0.951   2.778
 5673TIP3   OH216959   3.377   3.545   5.350
 5673TIP3    H116960   3.450   3.603   5.370
 5673TIP3    H216961   3.299   3.595   5.374
 5674TIP3   OH216962   0.505   1.278   3.666
 5674TIP3    H116963   0.411   1.291   3.678
 5674TIP3    H216964   0.522   1.192   3.703
 5675TIP3   OH216965   2.666   3.429   6.462
 5675TIP3    H116966   2.727   3.438   6.535
 5675TIP3    H216967   2.674   3.338   6.435
 5676TIP3   OH216968   5.202   2.204   4.571
 5676TIP3    H116969   5.230   2.158   4.492
 5676TIP3    H216970   5.109   2.221   4.557
 5677TIP3   OH216971   1.623   0.208   1.553
 5677TIP3    H116972   1.550   0.249   1.506
 5677TIP3    H216973   1.581   0.149   1.615
 5678TIP3   OH216974   6.662   7.477   5.580
 5678TIP3    H116975   6.591   7.413   5.589
 5678TIP3    H216976   6.726   7.433   5.524
 5679TIP3   OH216977   0.239   1.007   3.119
 5679TIP3    H116978   0.331   1.004   3.093
 5679TIP3    H216979   0.193   1.045   3.044
 5680TIP3   OH216980   6.261   3.756   1.257
 5680TIP3    H116981   6.249   3.805   1.176
 5680TIP3    H216982   6.302   3.674   1.230
 5681TIP3   OH216983   2.934   4.551   1.131
 5681TIP3    H116984   2.893   4.637   1.139
 5681TIP3    H216985   2.977   4.553   1.045
 5682TIP3   OH216986   3.972   0.525   5.024
 5682TIP3    H116987   3.930   0.598   4.978
 5682TIP3    H216988   4.065   0.537   5.007
 5683TIP3   OH216989   5.688   0.024   6.245
 5683TIP3    H116990   5.600  -0.001   6.271
 5683TIP3    H216991   5.687   0.120   6.246
 5684TIP3   OH216992   5.768   6.596   4.859
 5684TIP3    H116993   5.851   6.555   4.884
 5684TIP3    H216994   5.724   6.612   4.942
 5685TIP3   OH216995   5.082   7.371   5.206
 5685TIP3    H116996   5.061   7.449   5.256
 5685TIP3    H216997   5.178   7.369   5.203
 5686TIP3   OH216998   6.541   7.760   2.962
 5686TIP3    H116999   6.449   7.763   2.988
 5686TIP3    H217000   6.557   7.669   2.938
 5687TIP3   OH217001   1.693   3.271   6.852
 5687TIP3    H117002   1.632   3.249   6.782
 5687TIP3    H217003   1.738   3.350   6.821
 5688TIP3   OH217004   2.841   6.481   4.947
 5688TIP3    H117005   2.764   6.427   4.969
 5688TIP3    H217006   2.916   6.425   4.967
 5689TIP3   OH217007   0.089   5.151   2.642
 5689TIP3    H117008   0.128   5.150   2.554
 5689TIP3    H217009  -0.005   5.142   2.626
 5690TIP3   OH217010   2.959   5.784   2.997
 5690TIP3    H117011   3.027   5.842   2.963
 5690TIP3    H217012   2.994   5.753   3.080
 5691TIP3   OH217013   3.385   7.174   1.768
 5691TIP3    H117014   3.314   7.198   1.828
 5691TIP3    H217015   3.385   7.078   1.769
 5692TIP3   OH217016   6.121   5.289   0.262
 5692TIP3    H117017   6.163   5.248   0.186
 5692TIP3    H217018   6.046   5.337   0.225
 5693TIP3   OH217019   6.282   7.886   6.648
 5693TIP3    H117020   6.305   7.958   6.705
 5693TIP3    H217021   6.187   7.890   6.640
 5694TIP3   OH217022   1.052   0.821   0.059
 5694TIP3    H117023   1.127   0.780   0.103
 5694TIP3    H217024   1.082   0.910   0.039
 5695TIP3   OH217025   5.698   2.511   3.225
 5695TIP3    H117026   5.786   2.544   3.208
 5695TIP3    H217027   5.640   2.575   3.184
 5696TIP3   OH217028   7.936   6.247   0.846
 5696TIP3    H117029   7.861   6.189   0.853
 5696TIP3    H217030   7.899   6.334   0.830
 5697TIP3   OH217031   5.565   3.799   5.484
 5697TIP3    H117032   5.478   3.833   5.464
 5697TIP3    H217033   5.581   3.826   5.574
 5698TIP3   OH217034   2.815   5.822   1.036
 5698TIP3    H117035   2.816   5.727   1.032
 5698TIP3    H217036   2.905   5.846   1.057
 5699TIP3   OH217037   5.267   7.697   2.750
 5699TIP3    H117038   5.311   7.692   2.665
 5699TIP3    H217039   5.274   7.608   2.786
 5700TIP3   OH217040   3.626   7.856   4.911
 5700TIP3    H117041   3.540   7.899   4.906
 5700TIP3    H217042   3.689   7.926   4.890
 5701TIP3   OH217043   3.487   7.689   5.500
 5701TIP3    H117044   3.404   7.737   5.502
 5701TIP3    H217045   3.491   7.645   5.585
 5702TIP3   OH217046   3.289   5.177   1.059
 5702TIP3    H117047   3.263   5.120   0.987
 5702TIP3    H217048   3.378   5.204   1.037
 5703TIP3   OH217049   6.389   0.896   0.658
 5703TIP3    H117050   6.471   0.851   0.635
 5703TIP3    H217051   6.418   0.980   0.694
 5704TIP3   OH217052   7.226   7.310   5.907
 5704TIP3    H117053   7.294   7.249   5.879
 5704TIP3    H217054   7.150   7.255   5.926
 5705TIP3   OH217055   2.408   5.250   6.258
 5705TIP3    H117056   2.499   5.268   6.236
 5705TIP3    H217057   2.357   5.306   6.199
 5706TIP3   OH217058   3.785   5.340   0.802
 5706TIP3    H117059   3.867   5.331   0.850
 5706TIP3    H217060   3.806   5.314   0.713
 5707TIP3   OH217061   4.795   6.329   3.680
 5707TIP3    H117062   4.726   6.327   3.614
 5707TIP3    H217063   4.863   6.270   3.647
 5708TIP3   OH217064   6.516   6.326   2.340
 5708TIP3    H117065   6.576   6.309   2.268
 5708TIP3    H217066   6.507   6.422   2.341
 5709TIP3   OH217067   1.429   0.328   1.390
 5709TIP3    H117068   1.383   0.412   1.394
 5709TIP3    H217069   1.483   0.334   1.311
 5710TIP3   OH217070   1.158   6.838   3.179
 5710TIP3    H117071   1.252   6.856   3.178
 5710TIP3    H217072   1.121   6.906   3.236
 5711TIP3   OH217073   0.022   2.465   4.385
 5711TIP3    H117074   0.113   2.482   4.412
 5711TIP3    H217075   0.016   2.370   4.379
 5712TIP3   OH217076   1.785   6.784   4.646
 5712TIP3    H117077   1.695   6.788   4.680
 5712TIP3    H217078   1.806   6.874   4.623
 5713TIP3   OH217079   4.296   2.886   2.501
 5713TIP3    H117080   4.317   2.920   2.588
 5713TIP3    H217081   4.239   2.811   2.517
 5714TIP3   OH217082   5.874   1.118   4.547
 5714TIP3    H117083   5.882   1.163   4.463
 5714TIP3    H217084   5.780   1.102   4.556
 5715TIP3   OH217085   7.041   3.489   6.160
 5715TIP3    H117086   7.076   3.430   6.092
 5715TIP3    H217087   7.017   3.568   6.112
 5716TIP3   OH217088   5.986   0.346   5.884
 5716TIP3    H117089   5.985   0.428   5.835
 5716TIP3    H217090   5.904   0.302   5.859
 5717TIP3   OH217091   2.603   4.296   1.233
 5717TIP3    H117092   2.513   4.288   1.203
 5717TIP3    H217093   2.618   4.217   1.285
 5718TIP3   OH217094   2.496   0.964   3.628
 5718TIP3    H117095   2.468   1.029   3.692
 5718TIP3    H217096   2.548   1.013   3.565
 5719TIP3   OH217097   3.683   2.932   1.381
 5719TIP3    H117098   3.773   2.909   1.358
 5719TIP3    H217099   3.644   2.851   1.412
 5720TIP3   OH217100   7.494   3.926   1.932
 5720TIP3    H117101   7.577   3.936   1.977
 5720TIP3    H217102   7.517   3.892   1.845
 5721TIP3   OH217103   2.067   7.045   6.100
 5721TIP3    H117104   2.086   6.993   6.178
 5721TIP3    H217105   2.148   7.041   6.048
 5722TIP3   OH217106   4.157   7.919   2.560
 5722TIP3    H117107   4.175   7.828   2.584
 5722TIP3    H217108   4.087   7.946   2.619
 5723TIP3   OH217109   2.426   4.342   4.303
 5723TIP3    H117110   2.400   4.276   4.239
 5723TIP3    H217111   2.408   4.426   4.260
 5724TIP3   OH217112   4.034   3.040   3.467
 5724TIP3    H117113   4.035   2.971   3.533
 5724TIP3    H217114   3.941   3.063   3.458
 5725TIP3   OH217115   5.721   7.483   6.740
 5725TIP3    H117116   5.781   7.558   6.735
 5725TIP3    H217117   5.761   7.417   6.685
 5726TIP3   OH217118   1.013   6.761   0.069
 5726TIP3    H117119   0.949   6.827   0.041
 5726TIP3    H217120   1.089   6.812   0.098
 5727TIP3   OH217121   2.647   5.601   2.687
 5727TIP3    H117122   2.731   5.642   2.710
 5727TIP3    H217123   2.622   5.553   2.767
 5728TIP3   OH217124   7.828   7.659   3.708
 5728TIP3    H117125   7.853   7.595   3.641
 5728TIP3    H217126   7.789   7.607   3.778
 5729TIP3   OH217127   2.831   6.457   6.524
 5729TIP3    H117128   2.892   6.512   6.573
 5729TIP3    H217129   2.802   6.391   6.586
 5730TIP3   OH217130   8.297   5.412   6.138
 5730TIP3    H117131   8.218   5.408   6.192
 5730TIP3    H217132   8.327   5.321   6.132
 5731TIP3   OH217133   6.067   2.418   5.764
 5731TIP3    H117134   6.098   2.366   5.839
 5731TIP3    H217135   5.972   2.422   5.776
 5732TIP3   OH217136   0.727   0.747   0.639
 5732TIP3    H117137   0.790   0.677   0.628
 5732TIP3    H217138   0.735   0.772   0.731
 5733TIP3   OH217139   1.323   3.957   1.955
 5733TIP3    H117140   1.363   3.872   1.937
 5733TIP3    H217141   1.385   4.021   1.920
 5734TIP3   OH217142   2.528   6.999   2.535
 5734TIP3    H117143   2.491   7.086   2.545
 5734TIP3    H217144   2.508   6.975   2.444
 5735TIP3   OH217145   5.278   5.524   4.438
 5735TIP3    H117146   5.323   5.532   4.523
 5735TIP3    H217147   5.249   5.613   4.419
 5736TIP3   OH217148   3.914   1.153   2.873
 5736TIP3    H117149   3.850   1.224   2.881
 5736TIP3    H217150   3.968   1.178   2.798
 5737TIP3   OH217151   4.353   7.498   1.613
 5737TIP3    H117152   4.330   7.497   1.520
 5737TIP3    H217153   4.313   7.418   1.648
 5738TIP3   OH217154   2.924   2.437   2.781
 5738TIP3    H117155   2.842   2.485   2.795
 5738TIP3    H217156   2.955   2.467   2.695
 5739TIP3   OH217157   3.483   6.917   2.887
 5739TIP3    H117158   3.452   6.900   2.976
 5739TIP3    H217159   3.542   6.992   2.896
 5740TIP3   OH217160   5.925   3.055   2.565
 5740TIP3    H117161   5.918   2.969   2.523
 5740TIP3    H217162   5.982   3.041   2.640
 5741TIP3   OH217163   0.286   1.570   2.987
 5741TIP3    H117164   0.224   1.597   3.055
 5741TIP3    H217165   0.372   1.577   3.030
 5742TIP3   OH217166   5.324   2.942   6.270
 5742TIP3    H117167   5.363   3.009   6.326
 5742TIP3    H217168   5.395   2.878   6.256
 5743TIP3   OH217169   7.782   2.429   4.824
 5743TIP3    H117170   7.748   2.415   4.736
 5743TIP3    H217171   7.720   2.383   4.881
 5744TIP3   OH217172   1.139   2.520   3.200
 5744TIP3    H117173   1.114   2.601   3.157
 5744TIP3    H217174   1.225   2.498   3.164
 5745TIP3   OH217175   2.316   4.756   6.147
 5745TIP3    H117176   2.299   4.833   6.202
 5745TIP3    H217177   2.409   4.763   6.123
 5746TIP3   OH217178   3.437   2.582   0.442
 5746TIP3    H117179   3.365   2.528   0.476
 5746TIP3    H217180   3.419   2.590   0.349
 5747TIP3   OH217181   0.074   4.029   3.564
 5747TIP3    H117182   0.049   4.047   3.473
 5747TIP3    H217183   0.081   4.116   3.604
 5748TIP3   OH217184   7.802   0.983   1.109
 5748TIP3    H117185   7.885   0.936   1.108
 5748TIP3    H217186   7.825   1.073   1.129
 5749TIP3   OH217187   0.091   4.307   3.692
 5749TIP3    H117188   0.008   4.314   3.645
 5749TIP3    H217189   0.082   4.368   3.766
 5750TIP3   OH217190   1.381   4.928   4.318
 5750TIP3    H117191   1.426   4.996   4.368
 5750TIP3    H217192   1.353   4.973   4.238
 5751TIP3   OH217193   0.655   6.415   2.651
 5751TIP3    H117194   0.586   6.439   2.713
 5751TIP3    H217195   0.685   6.498   2.615
 5752TIP3   OH217196   7.814   1.554   3.526
 5752TIP3    H117197   7.880   1.497   3.565
 5752TIP3    H217198   7.787   1.510   3.446
 5753TIP3   OH217199   5.258   2.159   2.830
 5753TIP3    H117200   5.340   2.122   2.862
 5753TIP3    H217201   5.202   2.083   2.813
 5754TIP3   OH217202   1.535   7.626   2.443
 5754TIP3    H117203   1.444   7.632   2.474
 5754TIP3    H217204   1.587   7.626   2.523
 5755TIP3   OH217205   4.452   3.188   0.637
 5755TIP3    H117206   4.361   3.196   0.608
 5755TIP3    H217207   4.459   3.247   0.711
 5756TIP3   OH217208   5.788   7.872   1.829
 5756TIP3    H117209   5.810   7.927   1.754
 5756TIP3    H217210   5.822   7.785   1.806
 5757TIP3   OH217211   6.532   7.078   1.914
 5757TIP3    H117212   6.617   7.121   1.900
 5757TIP3    H217213   6.546   6.988   1.886
 5758TIP3   OH217214   8.126   2.194   5.989
 5758TIP3    H117215   8.063   2.203   6.060
 5758TIP3    H217216   8.104   2.265   5.928
 5759TIP3   OH217217   2.067   1.860   3.767
 5759TIP3    H117218   2.031   1.781   3.727
 5759TIP3    H217219   2.043   1.854   3.859
 5760TIP3   OH217220   2.892   1.680   0.056
 5760TIP3    H117221   2.974   1.724   0.079
 5760TIP3    H217222   2.914   1.624  -0.018
 5761TIP3   OH217223   6.051   0.043   2.980
 5761TIP3    H117224   5.992  -0.022   3.017
 5761TIP3    H217225   6.014   0.127   3.006
 5762TIP3   OH217226   4.495   7.285   4.094
 5762TIP3    H117227   4.409   7.312   4.126
 5762TIP3    H217228   4.514   7.204   4.141
 5763TIP3   OH217229   3.886   0.721   0.506
 5763TIP3    H117230   3.904   0.632   0.535
 5763TIP3    H217231   3.969   0.751   0.469
 5764TIP3   OH217232   1.862   7.289   1.722
 5764TIP3    H117233   1.891   7.285   1.631
 5764TIP3    H217234   1.918   7.228   1.768
 5765TIP3   OH217235   1.145   3.043   4.127
 5765TIP3    H117236   1.197   2.994   4.063
 5765TIP3    H217237   1.067   2.988   4.141
 5766TIP3   OH217238   6.273   4.808   4.611
 5766TIP3    H117239   6.270   4.727   4.560
 5766TIP3    H217240   6.363   4.812   4.645
 5767TIP3   OH217241   0.946   7.330   4.154
 5767TIP3    H117242   0.951   7.372   4.240
 5767TIP3    H217243   0.861   7.356   4.119
 5768TIP3   OH217244   8.228   6.077   3.454
 5768TIP3    H117245   8.303   6.135   3.443
 5768TIP3    H217246   8.152   6.135   3.454
 5769TIP3   OH217247   0.974   3.261   4.268
 5769TIP3    H117248   1.022   3.264   4.351
 5769TIP3    H217249   1.014   3.189   4.220
 5770TIP3   OH217250   5.941   1.011   6.614
 5770TIP3    H117251   5.869   0.949   6.625
 5770TIP3    H217252   6.015   0.968   6.657
 5771TIP3   OH217253   8.189   6.417   1.734
 5771TIP3    H117254   8.108   6.371   1.713
 5771TIP3    H217255   8.208   6.394   1.825
 5772TIP3   OH217256   2.921   0.138   5.038
 5772TIP3    H117257   2.930   0.195   4.961
 5772TIP3    H217258   2.988   0.071   5.026
 5773TIP3   OH217259   5.028   6.876   6.878
 5773TIP3    H117260   5.029   6.862   6.783
 5773TIP3    H217261   4.970   6.808   6.912
 5774TIP3   OH217262   5.747   3.083   5.375
 5774TIP3    H117263   5.676   3.053   5.318
 5774TIP3    H217264   5.799   3.005   5.392
 5775TIP3   OH217265   7.434   7.261   2.480
 5775TIP3    H117266   7.527   7.240   2.479
 5775TIP3    H217267   7.421   7.316   2.402
 5776TIP3   OH217268   4.459   2.227   3.092
 5776TIP3    H117269   4.509   2.295   3.046
 5776TIP3    H217270   4.494   2.228   3.181
 5777TIP3   OH217271   5.397   7.454   1.236
 5777TIP3    H117272   5.359   7.491   1.156
 5777TIP3    H217273   5.437   7.372   1.208
 5778TIP3   OH217274   2.756   1.778   3.276
 5778TIP3    H117275   2.738   1.797   3.368
 5778TIP3    H217276   2.823   1.842   3.251
 5779TIP3   OH217277   1.331   1.078   3.777
 5779TIP3    H117278   1.279   1.083   3.857
 5779TIP3    H217279   1.422   1.085   3.807
 5780TIP3   OH217280   0.167   3.029   6.561
 5780TIP3    H117281   0.101   3.063   6.622
 5780TIP3    H217282   0.123   2.957   6.516
 5781TIP3   OH217283   0.663   3.055   2.023
 5781TIP3    H117284   0.644   3.027   1.933
 5781TIP3    H217285   0.587   3.027   2.073
 5782TIP3   OH217286   3.950   5.067   6.327
 5782TIP3    H117287   4.041   5.043   6.307
 5782TIP3    H217288   3.957   5.143   6.384
 5783TIP3   OH217289   2.527   0.166   0.257
 5783TIP3    H117290   2.594   0.234   0.253
 5783TIP3    H217291   2.462   0.193   0.193
 5784TIP3   OH217292   8.110   0.595   0.996
 5784TIP3    H117293   8.166   0.655   0.947
 5784TIP3    H217294   8.029   0.590   0.945
 5785TIP3   OH217295   0.017   2.610   6.283
 5785TIP3    H117296  -0.005   2.681   6.342
 5785TIP3    H217297   0.027   2.534   6.340
 5786TIP3   OH217298   1.430   5.891   6.298
 5786TIP3    H117299   1.477   5.835   6.237
 5786TIP3    H217300   1.416   5.973   6.250
 5787TIP3   OH217301   6.853   0.568   3.207
 5787TIP3    H117302   6.859   0.663   3.206
 5787TIP3    H217303   6.928   0.540   3.260
 5788TIP3   OH217304   7.318   4.898   1.747
 5788TIP3    H117305   7.324   4.806   1.723
 5788TIP3    H217306   7.229   4.923   1.723
 5789TIP3   OH217307   4.634   2.674   0.050
 5789TIP3    H117308   4.608   2.765   0.034
 5789TIP3    H217309   4.618   2.659   0.143
 5790TIP3   OH217310   1.508   6.885   4.168
 5790TIP3    H117311   1.590   6.856   4.127
 5790TIP3    H217312   1.534   6.961   4.220
 5791TIP3   OH217313   6.801   4.138   4.292
 5791TIP3    H117314   6.706   4.138   4.280
 5791TIP3    H217315   6.825   4.046   4.299
 5792TIP3   OH217316   5.503   0.061   2.390
 5792TIP3    H117317   5.565   0.125   2.424
 5792TIP3    H217318   5.421   0.110   2.379
 5793TIP3   OH217319   5.357   4.983   5.869
 5793TIP3    H117320   5.382   4.908   5.923
 5793TIP3    H217321   5.430   4.994   5.808
 5794TIP3   OH217322   1.590   7.534   3.688
 5794TIP3    H117323   1.573   7.507   3.779
 5794TIP3    H217324   1.678   7.499   3.670
 5795TIP3   OH217325   0.125   1.803   0.905
 5795TIP3    H117326   0.103   1.711   0.920
 5795TIP3    H217327   0.120   1.814   0.810
 5796TIP3   OH217328   1.167   6.978   0.289
 5796TIP3    H117329   1.218   7.020   0.358
 5796TIP3    H217330   1.079   7.013   0.298
 5797TIP3   OH217331   5.847   0.021   2.097
 5797TIP3    H117332   5.922   0.057   2.050
 5797TIP3    H217333   5.794   0.098   2.120
 5798TIP3   OH217334   1.121   1.455   3.048
 5798TIP3    H117335   1.144   1.546   3.030
 5798TIP3    H217336   1.187   1.425   3.110
 5799TIP3   OH217337   5.924   4.608   3.538
 5799TIP3    H117338   5.861   4.591   3.607
 5799TIP3    H217339   6.010   4.594   3.580
 5800TIP3   OH217340   5.632   5.325   6.058
 5800TIP3    H117341   5.704   5.378   6.091
 5800TIP3    H217342   5.674   5.244   6.027
 5801TIP3   OH217343   4.011   5.588   6.537
 5801TIP3    H117344   4.084   5.551   6.586
 5801TIP3    H217345   3.982   5.663   6.590
 5802TIP3   OH217346   1.969   1.275   2.368
 5802TIP3    H117347   1.939   1.326   2.444
 5802TIP3    H217348   2.063   1.294   2.362
 5803TIP3   OH217349   6.964   5.765   4.425
 5803TIP3    H117350   7.035   5.730   4.370
 5803TIP3    H217351   6.995   5.752   4.515
 5804TIP3   OH217352   5.861   7.380   1.564
 5804TIP3    H117353   5.853   7.294   1.521
 5804TIP3    H217354   5.772   7.415   1.562
 5805TIP3   OH217355   1.889   1.691   5.284
 5805TIP3    H117356   1.899   1.781   5.316
 5805TIP3    H217357   1.821   1.653   5.341
 5806TIP3   OH217358   7.347   1.051   6.470
 5806TIP3    H117359   7.336   1.036   6.376
 5806TIP3    H217360   7.394   0.973   6.501
 5807TIP3   OH217361   1.859   7.099   0.375
 5807TIP3    H117362   1.789   7.093   0.310
 5807TIP3    H217363   1.821   7.062   0.455
 5808TIP3   OH217364   1.882   7.261   6.093
 5808TIP3    H117365   1.950   7.328   6.103
 5808TIP3    H217366   1.930   7.183   6.064
 5809TIP3   OH217367   7.703   5.403   2.135
 5809TIP3    H117368   7.670   5.355   2.059
 5809TIP3    H217369   7.731   5.335   2.196
 5810TIP3   OH217370   7.428   5.083   1.928
 5810TIP3    H117371   7.408   5.011   1.868
 5810TIP3    H217372   7.356   5.145   1.916
 5811TIP3   OH217373   2.926   3.562   2.188
 5811TIP3    H117374   2.966   3.510   2.119
 5811TIP3    H217375   2.967   3.648   2.180
 5812TIP3   OH217376   7.345   7.832   3.266
 5812TIP3    H117377   7.258   7.866   3.245
 5812TIP3    H217378   7.354   7.753   3.212
 5813TIP3   OH217379   7.577   5.250   5.197
 5813TIP3    H117380   7.511   5.302   5.150
 5813TIP3    H217381   7.531   5.215   5.273
 5814TIP3   OH217382   2.233   0.754   3.123
 5814TIP3    H117383   2.159   0.718   3.171
 5814TIP3    H217384   2.209   0.745   3.031
 5815TIP3   OH217385   0.246   6.881   2.581
 5815TIP3    H117386   0.176   6.878   2.646
 5815TIP3    H217387   0.321   6.840   2.625
 5816TIP3   OH217388   3.150   2.313   6.593
 5816TIP3    H117389   3.138   2.406   6.611
 5816TIP3    H217390   3.191   2.278   6.672
 5817TIP3   OH217391   4.358   6.846   3.738
 5817TIP3    H117392   4.404   6.775   3.692
 5817TIP3    H217393   4.281   6.864   3.684
 5818TIP3   OH217394   6.795   5.139   3.626
 5818TIP3    H117395   6.738   5.160   3.552
 5818TIP3    H217396   6.770   5.202   3.694
 5819TIP3   OH217397   6.534   3.399   3.196
 5819TIP3    H117398   6.485   3.434   3.122
 5819TIP3    H217399   6.468   3.364   3.255
 5820TIP3   OH217400   3.309   5.972   1.125
 5820TIP3    H117401   3.363   6.007   1.196
 5820TIP3    H217402   3.342   6.015   1.046
 5821TIP3   OH217403   3.161   2.359   3.572
 5821TIP3    H117404   3.090   2.334   3.631
 5821TIP3    H217405   3.125   2.432   3.522
 5822TIP3   OH217406   2.146   0.699   4.259
 5822TIP3    H117407   2.092   0.626   4.229
 5822TIP3    H217408   2.138   0.765   4.189
 5823TIP3   OH217409   5.104   4.817   4.086
 5823TIP3    H117410   5.093   4.806   4.181
 5823TIP3    H217411   5.018   4.845   4.055
 5824TIP3   OH217412   1.720   1.902   0.077
 5824TIP3    H117413   1.793   1.886   0.017
 5824TIP3    H217414   1.740   1.848   0.153
 5825TIP3   OH217415   6.784   3.144   4.359
 5825TIP3    H117416   6.802   3.236   4.341
 5825TIP3    H217417   6.706   3.146   4.415
 5826TIP3   OH217418   0.480   2.722   6.824
 5826TIP3    H117419   0.509   2.710   6.915
 5826TIP3    H217420   0.386   2.739   6.831
 5827TIP3   OH217421   0.659   5.429   6.515
 5827TIP3    H117422   0.710   5.438   6.435
 5827TIP3    H217423   0.685   5.504   6.568
 5828TIP3   OH217424   6.067   3.370   3.403
 5828TIP3    H117425   6.033   3.327   3.324
 5828TIP3    H217426   6.013   3.448   3.413
 5829TIP3   OH217427   0.631   6.034   2.838
 5829TIP3    H117428   0.683   5.957   2.860
 5829TIP3    H217429   0.691   6.090   2.788
 5830TIP3   OH217430   5.052   1.416   4.068
 5830TIP3    H117431   4.971   1.454   4.102
 5830TIP3    H217432   5.030   1.325   4.049
 5831TIP3   OH217433   7.588   3.959   1.258
 5831TIP3    H117434   7.545   3.875   1.238
 5831TIP3    H217435   7.663   3.935   1.312
 5832TIP3   OH217436   2.731   0.458   0.950
 5832TIP3    H117437   2.669   0.531   0.962
 5832TIP3    H217438   2.677   0.380   0.959
 5833TIP3   OH217439   4.567   0.447   2.041
 5833TIP3    H117440   4.559   0.358   2.076
 5833TIP3    H217441   4.518   0.502   2.102
 5834TIP3   OH217442   3.466   0.627   4.058
 5834TIP3    H117443   3.425   0.645   4.143
 5834TIP3    H217444   3.409   0.563   4.017
 5835TIP3   OH217445   5.244   3.687   6.476
 5835TIP3    H117446   5.155   3.659   6.498
 5835TIP3    H217447   5.232   3.766   6.424
 5836TIP3   OH217448   6.281   2.476   2.192
 5836TIP3    H117449   6.276   2.506   2.283
 5836TIP3    H217450   6.209   2.414   2.183
 5837TIP3   OH217451   1.261   3.050   4.508
 5837TIP3    H117452   1.295   3.042   4.597
 5837TIP3    H217453   1.168   3.029   4.515
 5838TIP3   OH217454   7.387   6.887   6.806
 5838TIP3    H117455   7.430   6.910   6.724
 5838TIP3    H217456   7.371   6.972   6.849
 5839TIP3   OH217457   5.046   0.705   6.803
 5839TIP3    H117458   4.985   0.632   6.814
 5839TIP3    H217459   5.094   0.684   6.722
 5840TIP3   OH217460   7.679   3.428   0.419
 5840TIP3    H117461   7.698   3.356   0.479
 5840TIP3    H217462   7.584   3.438   0.423
 5841TIP3   OH217463   5.605   3.995   1.640
 5841TIP3    H117464   5.662   3.953   1.704
 5841TIP3    H217465   5.654   3.991   1.558
 5842TIP3   OH217466   5.010   2.045   5.911
 5842TIP3    H117467   5.089   2.081   5.870
 5842TIP3    H217468   4.975   1.984   5.846
 5843TIP3   OH217469   6.604   5.014   3.104
 5843TIP3    H117470   6.593   5.109   3.102
 5843TIP3    H217471   6.660   4.995   3.029
 5844TIP3   OH217472   0.684   3.852   2.118
 5844TIP3    H117473   0.682   3.862   2.023
 5844TIP3    H217474   0.594   3.867   2.146
 5845TIP3   OH217475   7.938   5.609   2.875
 5845TIP3    H117476   8.029   5.637   2.863
 5845TIP3    H217477   7.894   5.686   2.910
 5846TIP3   OH217478   4.297   2.459   5.343
 5846TIP3    H117479   4.270   2.551   5.344
 5846TIP3    H217480   4.280   2.428   5.432
 5847TIP3   OH217481   4.636   7.607   5.849
 5847TIP3    H117482   4.600   7.685   5.889
 5847TIP3    H217483   4.728   7.629   5.830
 5848TIP3   OH217484   4.276   3.827   4.500
 5848TIP3    H117485   4.343   3.861   4.560
 5848TIP3    H217486   4.249   3.904   4.450
 5849TIP3   OH217487   7.865   5.029   3.978
 5849TIP3    H117488   7.809   4.999   3.906
 5849TIP3    H217489   7.954   5.011   3.948
 5850TIP3   OH217490   5.679   4.284   5.389
 5850TIP3    H117491   5.592   4.292   5.428
 5850TIP3    H217492   5.679   4.345   5.315
 5851TIP3   OH217493   2.012   2.307   6.637
 5851TIP3    H117494   2.005   2.400   6.656
 5851TIP3    H217495   1.922   2.277   6.628
 5852TIP3   OH217496   0.955   0.485   5.376
 5852TIP3    H117497   0.976   0.491   5.283
 5852TIP3    H217498   0.916   0.399   5.386
 5853TIP3   OH217499   2.742   1.509   3.751
 5853TIP3    H117500   2.719   1.505   3.844
 5853TIP3    H217501   2.830   1.546   3.749
 5854TIP3   OH217502   4.104   1.347   5.773
 5854TIP3    H117503   4.170   1.387   5.716
 5854TIP3    H217504   4.152   1.326   5.853
 5855TIP3   OH217505   5.669   7.422   5.282
 5855TIP3    H117506   5.762   7.440   5.300
 5855TIP3    H217507   5.639   7.499   5.233
 5856TIP3   OH217508   6.262   5.878   6.242
 5856TIP3    H117509   6.169   5.897   6.228
 5856TIP3    H217510   6.263   5.791   6.281
 5857TIP3   OH217511   0.892   6.064   6.293
 5857TIP3    H117512   0.830   6.045   6.363
 5857TIP3    H217513   0.867   6.151   6.262
 5858TIP3   OH217514   3.996   5.600   1.529
 5858TIP3    H117515   3.935   5.595   1.602
 5858TIP3    H217516   3.943   5.635   1.456
 5859TIP3   OH217517   8.131   0.345   0.625
 5859TIP3    H117518   8.066   0.414   0.634
 5859TIP3    H217519   8.194   0.379   0.561
 5860TIP3   OH217520   2.437   1.124   3.345
 5860TIP3    H117521   2.473   1.129   3.257
 5860TIP3    H217522   2.406   1.034   3.354
 5861TIP3   OH217523   3.495   5.289   5.860
 5861TIP3    H117524   3.561   5.308   5.926
 5861TIP3    H217525   3.484   5.194   5.862
 5862TIP3   OH217526   1.386   7.850   1.433
 5862TIP3    H117527   1.400   7.909   1.507
 5862TIP3    H217528   1.396   7.762   1.470
 5863TIP3   OH217529   0.372   1.903   5.225
 5863TIP3    H117530   0.373   1.911   5.320
 5863TIP3    H217531   0.281   1.879   5.204
 5864TIP3   OH217532   0.269   5.842   0.497
 5864TIP3    H117533   0.207   5.803   0.436
 5864TIP3    H217534   0.303   5.769   0.548
 5865TIP3   OH217535   2.553   3.943   0.601
 5865TIP3    H117536   2.605   3.870   0.569
 5865TIP3    H217537   2.557   3.936   0.697
 5866TIP3   OH217538   0.989   3.440   4.877
 5866TIP3    H117539   1.012   3.351   4.850
 5866TIP3    H217540   0.894   3.444   4.865
 5867TIP3   OH217541   7.782   6.660   3.514
 5867TIP3    H117542   7.763   6.635   3.424
 5867TIP3    H217543   7.874   6.687   3.512
 5868TIP3   OH217544   0.793   6.110   5.095
 5868TIP3    H117545   0.847   6.034   5.072
 5868TIP3    H217546   0.778   6.154   5.011
 5869TIP3   OH217547   2.745   7.373   2.845
 5869TIP3    H117548   2.706   7.447   2.890
 5869TIP3    H217549   2.702   7.371   2.759
 5870TIP3   OH217550   7.717   0.716   5.120
 5870TIP3    H117551   7.724   0.656   5.046
 5870TIP3    H217552   7.798   0.766   5.117
 5871TIP3   OH217553   3.015   1.716   3.774
 5871TIP3    H117554   3.064   1.718   3.856
 5871TIP3    H217555   2.974   1.803   3.768
 5872TIP3   OH217556   6.822   4.009   1.167
 5872TIP3    H117557   6.885   3.999   1.096
 5872TIP3    H217558   6.865   4.069   1.228
 5873TIP3   OH217559   4.814   1.346   2.006
 5873TIP3    H117560   4.721   1.361   2.018
 5873TIP3    H217561   4.855   1.431   2.023
 5874TIP3   OH217562   3.302   6.515   0.381
 5874TIP3    H117563   3.216   6.506   0.340
 5874TIP3    H217564   3.288   6.578   0.452
 5875TIP3   OH217565   5.582   2.148   0.257
 5875TIP3    H117566   5.536   2.223   0.221
 5875TIP3    H217567   5.513   2.087   0.284
 5876TIP3   OH217568   0.092   6.069   6.695
 5876TIP3    H117569   0.088   6.151   6.645
 5876TIP3    H217570   0.143   6.010   6.639
 5877TIP3   OH217571   0.270   5.231   0.776
 5877TIP3    H117572   0.322   5.166   0.824
 5877TIP3    H217573   0.212   5.270   0.841
 5878TIP3   OH217574   6.069   3.184   6.465
 5878TIP3    H117575   5.980   3.205   6.492
 5878TIP3    H217576   6.124   3.230   6.528
 5879TIP3   OH217577   0.802   6.732   1.673
 5879TIP3    H117578   0.766   6.814   1.639
 5879TIP3    H217579   0.725   6.681   1.698
 5880TIP3   OH217580   5.460   4.805   0.303
 5880TIP3    H117581   5.419   4.755   0.232
 5880TIP3    H217582   5.545   4.832   0.268
 5881TIP3   OH217583   1.777   7.748   1.419
 5881TIP3    H117584   1.822   7.679   1.469
 5881TIP3    H217585   1.791   7.724   1.327
 5882TIP3   OH217586   8.111   2.362   4.765
 5882TIP3    H117587   8.123   2.268   4.751
 5882TIP3    H217588   8.091   2.397   4.678
 5883TIP3   OH217589   8.200   3.929   4.084
 5883TIP3    H117590   8.250   4.001   4.044
 5883TIP3    H217591   8.123   3.919   4.028
 5884TIP3   OH217592   4.611   5.649   3.865
 5884TIP3    H117593   4.681   5.634   3.802
 5884TIP3    H217594   4.537   5.597   3.832
 5885TIP3   OH217595   2.760   1.502   4.870
 5885TIP3    H117596   2.784   1.412   4.848
 5885TIP3    H217597   2.820   1.527   4.941
 5886TIP3   OH217598   6.264   2.521   5.547
 5886TIP3    H117599   6.355   2.537   5.574
 5886TIP3    H217600   6.229   2.464   5.615
 5887TIP3   OH217601   8.403   2.778   2.598
 5887TIP3    H117602   8.471   2.748   2.537
 5887TIP3    H217603   8.328   2.722   2.580
 5888TIP3   OH217604   7.698   5.787   2.484
 5888TIP3    H117605   7.620   5.784   2.428
 5888TIP3    H217606   7.731   5.697   2.484
 5889TIP3   OH217607   0.949   7.054   6.064
 5889TIP3    H117608   0.956   7.041   6.158
 5889TIP3    H217609   0.993   7.138   6.048
 5890TIP3   OH217610   5.642   0.483   1.656
 5890TIP3    H117611   5.674   0.436   1.579
 5890TIP3    H217612   5.701   0.558   1.664
 5891TIP3   OH217613   8.046   6.782   3.356
 5891TIP3    H117614   8.055   6.734   3.273
 5891TIP3    H217615   8.135   6.807   3.379
 5892TIP3   OH217616   3.407   4.927   1.944
 5892TIP3    H117617   3.343   4.861   1.915
 5892TIP3    H217618   3.369   5.011   1.918
 5893TIP3   OH217619   2.184   3.864   1.699
 5893TIP3    H117620   2.096   3.893   1.723
 5893TIP3    H217621   2.169   3.805   1.625
 5894TIP3   OH217622   4.250   5.917   4.855
 5894TIP3    H117623   4.310   5.911   4.780
 5894TIP3    H217624   4.268   5.838   4.906
 5895TIP3   OH217625   7.247   0.637   4.365
 5895TIP3    H117626   7.333   0.650   4.405
 5895TIP3    H217627   7.264   0.587   4.285
 5896TIP3   OH217628   4.384   4.254   3.140
 5896TIP3    H117629   4.425   4.325   3.189
 5896TIP3    H217630   4.321   4.216   3.201
 5897TIP3   OH217631   0.760   6.002   1.756
 5897TIP3    H117632   0.806   6.083   1.779
 5897TIP3    H217633   0.805   5.934   1.805
 5898TIP3   OH217634   0.833   4.264   4.673
 5898TIP3    H117635   0.917   4.301   4.701
 5898TIP3    H217636   0.841   4.256   4.578
 5899TIP3   OH217637   1.323   0.568   0.475
 5899TIP3    H117638   1.408   0.539   0.507
 5899TIP3    H217639   1.263   0.555   0.549
 5900TIP3   OH217640   7.399   2.693   6.550
 5900TIP3    H117641   7.483   2.647   6.547
 5900TIP3    H217642   7.423   2.785   6.552
 5901TIP3   OH217643   0.946   1.842   2.245
 5901TIP3    H117644   0.974   1.933   2.236
 5901TIP3    H217645   1.004   1.793   2.187
 5902TIP3   OH217646   0.076   7.675   3.533
 5902TIP3    H117647   0.102   7.766   3.544
 5902TIP3    H217648   0.061   7.666   3.439
 5903TIP3   OH217649   6.493   5.998   4.599
 5903TIP3    H117650   6.426   5.931   4.611
 5903TIP3    H217651   6.576   5.951   4.606
 5904TIP3   OH217652   4.835   3.518   1.490
 5904TIP3    H117653   4.814   3.605   1.523
 5904TIP3    H217654   4.753   3.469   1.497
 5905TIP3   OH217655   7.853   0.360   2.144
 5905TIP3    H117656   7.892   0.304   2.076
 5905TIP3    H217657   7.919   0.427   2.161
 5906TIP3   OH217658   6.749   2.486   4.924
 5906TIP3    H117659   6.781   2.436   4.999
 5906TIP3    H217660   6.714   2.567   4.961
 5907TIP3   OH217661   5.495   0.811   3.588
 5907TIP3    H117662   5.559   0.843   3.524
 5907TIP3    H217663   5.547   0.784   3.663
 5908TIP3   OH217664   4.020   6.801   0.188
 5908TIP3    H117665   3.987   6.809   0.099
 5908TIP3    H217666   3.941   6.803   0.243
 5909TIP3   OH217667   8.273   7.236   2.832
 5909TIP3    H117668   8.232   7.319   2.856
 5909TIP3    H217669   8.222   7.170   2.879
 5910TIP3   OH217670   5.967   2.923   1.185
 5910TIP3    H117671   5.991   2.968   1.104
 5910TIP3    H217672   5.981   2.988   1.254
 5911TIP3   OH217673   5.841   3.593   4.833
 5911TIP3    H117674   5.810   3.653   4.900
 5911TIP3    H217675   5.860   3.648   4.757
 5912TIP3   OH217676   5.442   4.015   4.375
 5912TIP3    H117677   5.447   4.008   4.470
 5912TIP3    H217678   5.527   4.049   4.349
 5913TIP3   OH217679   3.063   5.995   6.706
 5913TIP3    H117680   3.069   6.068   6.768
 5913TIP3    H217681   3.117   6.022   6.632
 5914TIP3   OH217682   5.205   1.774   1.016
 5914TIP3    H117683   5.290   1.801   1.052
 5914TIP3    H217684   5.213   1.789   0.922
 5915TIP3   OH217685   7.275   0.083   2.516
 5915TIP3    H117686   7.332   0.046   2.583
 5915TIP3    H217687   7.195   0.032   2.521
 5916TIP3   OH217688   1.724   1.181   1.554
 5916TIP3    H117689   1.641   1.136   1.570
 5916TIP3    H217690   1.775   1.119   1.502
 5917TIP3   OH217691   8.157   4.326   0.690
 5917TIP3    H117692   8.251   4.312   0.697
 5917TIP3    H217693   8.131   4.354   0.778
 5918TIP3   OH217694   8.120   1.131   3.530
 5918TIP3    H117695   8.080   1.186   3.597
 5918TIP3    H217696   8.049   1.074   3.500
 5919TIP3   OH217697   0.017   6.292   3.415
 5919TIP3    H117698   0.004   6.299   3.321
 5919TIP3    H217699   0.102   6.333   3.431
 5920TIP3   OH217700   8.241   1.916   4.483
 5920TIP3    H117701   8.288   1.833   4.485
 5920TIP3    H217702   8.307   1.982   4.505
 5921TIP3   OH217703   0.119   2.562   5.895
 5921TIP3    H117704   0.201   2.527   5.859
 5921TIP3    H217705   0.095   2.499   5.964
 5922TIP3   OH217706   0.455   6.820   5.558
 5922TIP3    H117707   0.485   6.729   5.548
 5922TIP3    H217708   0.500   6.851   5.637
 5923TIP3   OH217709   2.356   2.434   0.313
 5923TIP3    H117710   2.266   2.402   0.309
 5923TIP3    H217711   2.393   2.391   0.390
 5924TIP3   OH217712   6.398   4.439   1.018
 5924TIP3    H117713   6.330   4.475   0.961
 5924TIP3    H217714   6.386   4.344   1.013
 5925TIP3   OH217715   1.178   2.491   3.818
 5925TIP3    H117716   1.175   2.396   3.806
 5925TIP3    H217717   1.199   2.525   3.730
 5926TIP3   OH217718   0.835   1.289   4.205
 5926TIP3    H117719   0.900   1.219   4.206
 5926TIP3    H217720   0.797   1.285   4.117
 5927TIP3   OH217721   8.263   0.163   1.231
 5927TIP3    H117722   8.284   0.202   1.316
 5927TIP3    H217723   8.209   0.229   1.187
 5928TIP3   OH217724   5.999   4.245   0.921
 5928TIP3    H117725   6.036   4.171   0.968
 5928TIP3    H217726   5.950   4.294   0.988
 5929TIP3   OH217727   1.323   1.340   5.766
 5929TIP3    H117728   1.403   1.369   5.722
 5929TIP3    H217729   1.252   1.373   5.711
 5930TIP3   OH217730   2.308   2.726   6.791
 5930TIP3    H117731   2.378   2.790   6.775
 5930TIP3    H217732   2.254   2.766   6.859
 5931TIP3   OH217733   7.413   2.805   0.985
 5931TIP3    H117734   7.487   2.865   0.976
 5931TIP3    H217735   7.422   2.745   0.910
 5932TIP3   OH217736   6.531   4.523   1.246
 5932TIP3    H117737   6.521   4.618   1.245
 5932TIP3    H217738   6.521   4.497   1.154
 5933TIP3   OH217739   6.575   6.821   1.798
 5933TIP3    H117740   6.499   6.771   1.765
 5933TIP3    H217741   6.601   6.774   1.877
 5934TIP3   OH217742   6.018   0.519   2.061
 5934TIP3    H117743   6.088   0.571   2.021
 5934TIP3    H217744   5.997   0.452   1.996
 5935TIP3   OH217745   4.092   7.433   0.190
 5935TIP3    H117746   4.096   7.338   0.175
 5935TIP3    H217747   4.138   7.471   0.115
 5936TIP3   OH217748   5.745   2.862   2.890
 5936TIP3    H117749   5.657   2.856   2.854
 5936TIP3    H217750   5.744   2.943   2.941
 5937TIP3   OH217751   4.679   5.437   1.822
 5937TIP3    H117752   4.589   5.469   1.819
 5937TIP3    H217753   4.689   5.403   1.911
 5938TIP3   OH217754   4.575   3.892   5.174
 5938TIP3    H117755   4.566   3.949   5.097
 5938TIP3    H217756   4.511   3.927   5.236
 5939TIP3   OH217757   7.346   3.910   5.053
 5939TIP3    H117758   7.422   3.893   5.109
 5939TIP3    H217759   7.303   3.825   5.045
 5940TIP3   OH217760   3.031   4.072   0.763
 5940TIP3    H117761   3.110   4.126   0.762
 5940TIP3    H217762   2.967   4.123   0.813
 5941TIP3   OH217763   5.114   1.441   1.687
 5941TIP3    H117764   5.055   1.385   1.737
 5941TIP3    H217765   5.199   1.397   1.693
 5942TIP3   OH217766   0.133   6.428   6.081
 5942TIP3    H117767   0.176   6.462   6.160
 5942TIP3    H217768   0.070   6.365   6.114
 5943TIP3   OH217769   2.082   1.956   5.286
 5943TIP3    H117770   2.083   2.014   5.361
 5943TIP3    H217771   2.150   1.891   5.305
 5944TIP3   OH217772   0.988   1.635   2.411
 5944TIP3    H117773   0.979   1.724   2.376
 5944TIP3    H217774   0.902   1.596   2.400
 5945TIP3   OH217775   3.486   0.855   1.429
 5945TIP3    H117776   3.420   0.844   1.497
 5945TIP3    H217777   3.456   0.931   1.379
 5946TIP3   OH217778   4.890   1.858   5.744
 5946TIP3    H117779   4.818   1.796   5.734
 5946TIP3    H217780   4.947   1.841   5.668
 5947TIP3   OH217781   7.762   2.482   5.200
 5947TIP3    H117782   7.676   2.466   5.161
 5947TIP3    H217783   7.743   2.530   5.280
 5948TIP3   OH217784   3.687   3.367   0.814
 5948TIP3    H117785   3.630   3.444   0.809
 5948TIP3    H217786   3.750   3.388   0.883
 5949TIP3   OH217787   5.230   4.547   5.565
 5949TIP3    H117788   5.224   4.481   5.634
 5949TIP3    H217789   5.270   4.500   5.491
 5950TIP3   OH217790   7.317   3.038   0.191
 5950TIP3    H117791   7.271   2.961   0.225
 5950TIP3    H217792   7.356   3.007   0.109
 5951TIP3   OH217793   2.994   7.475   0.826
 5951TIP3    H117794   3.034   7.560   0.848
 5951TIP3    H217795   3.010   7.465   0.732
 5952TIP3   OH217796   5.253   1.757   0.073
 5952TIP3    H117797   5.256   1.704  -0.007
 5952TIP3    H217798   5.220   1.842   0.045
 5953TIP3   OH217799   3.483   2.554   1.632
 5953TIP3    H117800   3.435   2.487   1.680
 5953TIP3    H217801   3.546   2.589   1.696
 5954TIP3   OH217802   3.860   0.492   4.073
 5954TIP3    H117803   3.939   0.462   4.026
 5954TIP3    H217804   3.807   0.413   4.082
 5955TIP3   OH217805   7.611   2.104   4.371
 5955TIP3    H117806   7.606   2.144   4.285
 5955TIP3    H217807   7.686   2.045   4.367
 5956TIP3   OH217808   7.577   3.620   4.990
 5956TIP3    H117809   7.583   3.660   5.077
 5956TIP3    H217810   7.490   3.580   4.987
 5957TIP3   OH217811   0.992   1.004   0.801
 5957TIP3    H117812   0.900   0.995   0.827
 5957TIP3    H217813   1.037   0.935   0.850
 5958TIP3   OH217814   4.904   2.984   1.684
 5958TIP3    H117815   4.964   3.049   1.649
 5958TIP3    H217816   4.824   2.996   1.633
 5959TIP3   OH217817   0.880   0.307   6.276
 5959TIP3    H117818   0.931   0.317   6.196
 5959TIP3    H217819   0.939   0.332   6.346
 5960TIP3   OH217820   5.725   4.699   2.878
 5960TIP3    H117821   5.686   4.614   2.902
 5960TIP3    H217822   5.807   4.702   2.928
 5961TIP3   OH217823   1.006   4.728   2.761
 5961TIP3    H117824   1.060   4.751   2.686
 5961TIP3    H217825   0.927   4.782   2.752
 5962TIP3   OH217826   8.241   3.107   4.219
 5962TIP3    H117827   8.335   3.114   4.233
 5962TIP3    H217828   8.230   3.121   4.125
 5963TIP3   OH217829   0.114   7.501   1.877
 5963TIP3    H117830   0.125   7.584   1.925
 5963TIP3    H217831   0.193   7.493   1.824
 5964TIP3   OH217832   1.323   6.443   1.884
 5964TIP3    H117833   1.382   6.382   1.929
 5964TIP3    H217834   1.237   6.400   1.888
 5965TIP3   OH217835   1.925   2.489   3.726
 5965TIP3    H117836   1.906   2.446   3.809
 5965TIP3    H217837   1.838   2.509   3.690
 5966TIP3   OH217838   8.310   5.871   0.967
 5966TIP3    H117839   8.336   5.937   1.031
 5966TIP3    H217840   8.252   5.918   0.906
 5967TIP3   OH217841   7.596   4.149   2.758
 5967TIP3    H117842   7.598   4.226   2.815
 5967TIP3    H217843   7.680   4.151   2.713
 5968TIP3   OH217844   3.435   6.513   1.953
 5968TIP3    H117845   3.407   6.542   2.039
 5968TIP3    H217846   3.522   6.475   1.968
 5969TIP3   OH217847   6.038   5.985   6.115
 5969TIP3    H117848   6.074   6.048   6.052
 5969TIP3    H217849   5.965   5.945   6.068
 5970TIP3   OH217850   3.128   5.847   0.833
 5970TIP3    H117851   3.144   5.889   0.917
 5970TIP3    H217852   3.064   5.778   0.852
 5971TIP3   OH217853   3.277   0.800   0.959
 5971TIP3    H117854   3.321   0.883   0.942
 5971TIP3    H217855   3.187   0.823   0.980
 5972TIP3   OH217856   3.594   4.807   4.960
 5972TIP3    H117857   3.504   4.842   4.960
 5972TIP3    H217858   3.609   4.779   4.870
 5973TIP3   OH217859   2.232   5.037   4.812
 5973TIP3    H117860   2.199   4.980   4.742
 5973TIP3    H217861   2.327   5.038   4.799
 5974TIP3   OH217862   4.069   6.484   0.746
 5974TIP3    H117863   4.134   6.414   0.742
 5974TIP3    H217864   4.057   6.512   0.655
 5975TIP3   OH217865   5.954   7.422   4.844
 5975TIP3    H117866   5.885   7.377   4.796
 5975TIP3    H217867   5.909   7.489   4.895
 5976TIP3   OH217868   2.648   5.978   1.856
 5976TIP3    H117869   2.709   5.945   1.923
 5976TIP3    H217870   2.561   5.959   1.891
 5977TIP3   OH217871   7.249   7.776   1.490
 5977TIP3    H117872   7.304   7.843   1.450
 5977TIP3    H217873   7.257   7.701   1.432
 5978TIP3   OH217874   6.145   7.538   3.261
 5978TIP3    H117875   6.060   7.495   3.264
 5978TIP3    H217876   6.163   7.550   3.167
 5979TIP3   OH217877   2.199   6.781   3.943
 5979TIP3    H117878   2.263   6.811   4.008
 5979TIP3    H217879   2.226   6.822   3.861
 5980TIP3   OH217880   4.427   5.921   6.153
 5980TIP3    H117881   4.373   6.000   6.153
 5980TIP3    H217882   4.423   5.889   6.063
 5981TIP3   OH217883   7.433   7.082   6.546
 5981TIP3    H117884   7.382   7.083   6.627
 5981TIP3    H217885   7.499   7.151   6.558
 5982TIP3   OH217886   6.335   0.089   6.793
 5982TIP3    H117887   6.270   0.092   6.863
 5982TIP3    H217888   6.367  -0.002   6.794
 5983TIP3   OH217889   4.792   6.336   4.584
 5983TIP3    H117890   4.881   6.359   4.557
 5983TIP3    H217891   4.736   6.400   4.540
 5984TIP3   OH217892   7.559   6.032   5.717
 5984TIP3    H117893   7.595   6.007   5.802
 5984TIP3    H217894   7.596   6.118   5.700
 5985TIP3   OH217895   6.477   4.805   6.093
 5985TIP3    H117896   6.414   4.872   6.119
 5985TIP3    H217897   6.441   4.768   6.013
 5986TIP3   OH217898   2.350   5.962   1.887
 5986TIP3    H117899   2.297   5.911   1.948
 5986TIP3    H217900   2.287   6.001   1.827
 5987TIP3   OH217901   5.898   7.006   2.187
 5987TIP3    H117902   5.802   7.002   2.192
 5987TIP3    H217903   5.927   6.921   2.220
 5988TIP3   OH217904   0.133   2.949   5.644
 5988TIP3    H117905   0.095   3.015   5.586
 5988TIP3    H217906   0.139   2.870   5.590
 5989TIP3   OH217907   1.613   2.785   4.989
 5989TIP3    H117908   1.654   2.832   5.062
 5989TIP3    H217909   1.622   2.845   4.915
 5990TIP3   OH217910   1.002   7.634   3.765
 5990TIP3    H117911   1.090   7.633   3.726
 5990TIP3    H217912   0.958   7.557   3.729
 5991TIP3   OH217913   6.776   0.976   4.036
 5991TIP3    H117914   6.844   0.977   4.103
 5991TIP3    H217915   6.732   1.060   4.044
 5992TIP3   OH217916   0.840   2.836   6.237
 5992TIP3    H117917   0.794   2.918   6.216
 5992TIP3    H217918   0.771   2.770   6.243
 5993TIP3   OH217919   6.622   5.542   0.689
 5993TIP3    H117920   6.565   5.521   0.615
 5993TIP3    H217921   6.629   5.637   0.688
 5994TIP3   OH217922   6.336   0.076   2.984
 5994TIP3    H117923   6.347   0.021   3.062
 5994TIP3    H217924   6.243   0.098   2.984
 5995TIP3   OH217925   7.657   6.584   3.278
 5995TIP3    H117926   7.695   6.560   3.193
 5995TIP3    H217927   7.631   6.675   3.267
 5996TIP3   OH217928   2.484   6.827   4.569
 5996TIP3    H117929   2.466   6.801   4.479
 5996TIP3    H217930   2.496   6.922   4.564
 5997TIP3   OH217931   6.048   4.705   0.285
 5997TIP3    H117932   6.040   4.746   0.199
 5997TIP3    H217933   5.962   4.667   0.303
 5998TIP3   OH217934   2.102   0.514   2.833
 5998TIP3    H117935   2.042   0.475   2.770
 5998TIP3    H217936   2.110   0.449   2.903
 5999TIP3   OH217937   8.141   0.383   2.956
 5999TIP3    H117938   8.184   0.343   2.880
 5999TIP3    H217939   8.211   0.426   3.004
 6000TIP3   OH217940   6.839   3.703   3.066
 6000TIP3    H117941   6.752   3.741   3.075
 6000TIP3    H217942   6.896   3.758   3.120
 6001TIP3   OH217943   3.249   5.108   2.904
 6001TIP3    H117944   3.188   5.134   2.835
 6001TIP3    H217945   3.198   5.113   2.985
 6002TIP3   OH217946   2.270   2.558   4.098
 6002TIP3    H117947   2.225   2.589   4.177
 6002TIP3    H217948   2.342   2.504   4.131
 6003TIP3   OH217949   2.987   6.489   3.565
 6003TIP3    H117950   2.968   6.540   3.644
 6003TIP3    H217951   2.904   6.490   3.516
 6004TIP3   OH217952   0.663   7.041   0.648
 6004TIP3    H117953   0.594   7.060   0.712
 6004TIP3    H217954   0.744   7.049   0.698
 6005TIP3   OH217955   8.334   4.414   1.885
 6005TIP3    H117956   8.400   4.458   1.940
 6005TIP3    H217957   8.374   4.330   1.862
 6006TIP3   OH217958   5.056   4.889   1.889
 6006TIP3    H117959   5.150   4.907   1.888
 6006TIP3    H217960   5.036   4.865   1.979
 6007TIP3   OH217961   2.632   1.223   0.036
 6007TIP3    H117962   2.561   1.277   0.002
 6007TIP3    H217963   2.705   1.240  -0.023
 6008TIP3   OH217964   6.176   2.891   1.845
 6008TIP3    H117965   6.156   2.812   1.896
 6008TIP3    H217966   6.271   2.898   1.848
 6009TIP3   OH217967   2.563   5.190   1.445
 6009TIP3    H117968   2.650   5.182   1.483
 6009TIP3    H217969   2.520   5.107   1.467
 6010TIP3   OH217970   0.059   6.476   1.675
 6010TIP3    H117971   0.095   6.408   1.618
 6010TIP3    H217972  -0.013   6.433   1.721
 6011TIP3   OH217973   4.337   5.528   1.633
 6011TIP3    H117974   4.359   5.608   1.681
 6011TIP3    H217975   4.390   5.533   1.554
 6012TIP3   OH217976   7.379   6.455   5.585
 6012TIP3    H117977   7.378   6.422   5.674
 6012TIP3    H217978   7.294   6.432   5.549
 6013TIP3   OH217979   0.142   0.126   2.025
 6013TIP3    H117980   0.226   0.173   2.026
 6013TIP3    H217981   0.153   0.059   1.957
 6014TIP3   OH217982   3.792   7.142   2.315
 6014TIP3    H117983   3.795   7.094   2.232
 6014TIP3    H217984   3.873   7.118   2.360
 6015TIP3   OH217985   1.769   2.272   1.958
 6015TIP3    H117986   1.821   2.332   1.904
 6015TIP3    H217987   1.679   2.300   1.944
 6016TIP3   OH217988   8.221   0.158   4.858
 6016TIP3    H117989   8.162   0.094   4.818
 6016TIP3    H217990   8.237   0.222   4.789
 6017TIP3   OH217991   5.653   2.105   1.705
 6017TIP3    H117992   5.632   2.012   1.705
 6017TIP3    H217993   5.587   2.145   1.761
 6018TIP3   OH217994   2.610   3.547   1.191
 6018TIP3    H117995   2.616   3.587   1.277
 6018TIP3    H217996   2.531   3.494   1.194
 6019TIP3   OH217997   4.673   3.448   3.189
 6019TIP3    H117998   4.634   3.470   3.105
 6019TIP3    H217999   4.690   3.532   3.231
 6020TIP3   OH218000   1.535   4.754   1.211
 6020TIP3    H118001   1.586   4.778   1.134
 6020TIP3    H218002   1.545   4.659   1.217
 6021TIP3   OH218003   4.086   0.721   6.288
 6021TIP3    H118004   4.002   0.753   6.254
 6021TIP3    H218005   4.106   0.645   6.234
 6022TIP3   OH218006   0.078   4.839   3.125
 6022TIP3    H118007   0.022   4.823   3.049
 6022TIP3    H218008   0.165   4.851   3.089
 6023TIP3   OH218009   0.691   5.598   2.422
 6023TIP3    H118010   0.660   5.681   2.386
 6023TIP3    H218011   0.631   5.533   2.387
 6024TIP3   OH218012   7.171   2.823   6.701
 6024TIP3    H118013   7.153   2.909   6.664
 6024TIP3    H218014   7.255   2.798   6.663
 6025TIP3   OH218015   0.546   6.768   4.869
 6025TIP3    H118016   0.554   6.830   4.940
 6025TIP3    H218017   0.586   6.812   4.793
 6026TIP3   OH218018   2.313   2.715   0.240
 6026TIP3    H118019   2.324   2.621   0.221
 6026TIP3    H218020   2.401   2.751   0.237
 6027TIP3   OH218021   0.979   3.083   0.374
 6027TIP3    H118022   0.936   3.119   0.452
 6027TIP3    H218023   0.998   2.992   0.398
 6028TIP3   OH218024   5.073   0.420   0.167
 6028TIP3    H118025   5.072   0.328   0.140
 6028TIP3    H218026   5.118   0.420   0.252
 6029TIP3   OH218027   6.712   3.092   2.748
 6029TIP3    H118028   6.632   3.143   2.739
 6029TIP3    H218029   6.753   3.125   2.827
 6030TIP3   OH218030   1.333   0.663   1.297
 6030TIP3    H118031   1.311   0.618   1.216
 6030TIP3    H218032   1.267   0.634   1.360
 6031TIP3   OH218033   5.858   5.197   3.936
 6031TIP3    H118034   5.771   5.230   3.915
 6031TIP3    H218035   5.844   5.131   4.004
 6032TIP3   OH218036   5.814   1.152   3.200
 6032TIP3    H118037   5.886   1.155   3.136
 6032TIP3    H218038   5.854   1.113   3.278
 6033TIP3   OH218039   1.465   7.174   3.185
 6033TIP3    H118040   1.449   7.105   3.249
 6033TIP3    H218041   1.391   7.167   3.123
 6034TIP3   OH218042   1.368   3.468   1.961
 6034TIP3    H118043   1.431   3.529   1.998
 6034TIP3    H218044   1.396   3.456   1.870
 6035TIP3   OH218045   5.992   4.825   1.338
 6035TIP3    H118046   6.057   4.784   1.280
 6035TIP3    H218047   6.000   4.918   1.320
 6036TIP3   OH218048   6.593   3.439   3.544
 6036TIP3    H118049   6.614   3.530   3.524
 6036TIP3    H218050   6.510   3.423   3.498
 6037TIP3   OH218051   1.467   4.116   3.625
 6037TIP3    H118052   1.472   4.023   3.603
 6037TIP3    H218053   1.544   4.155   3.583
 6038TIP3   OH218054   5.985   4.974   2.617
 6038TIP3    H118055   5.964   4.997   2.707
 6038TIP3    H218056   6.000   5.058   2.573
 6039TIP3   OH218057   7.840   4.156   6.853
 6039TIP3    H118058   7.931   4.145   6.824
 6039TIP3    H218059   7.798   4.073   6.833
 6040TIP3   OH218060   2.610   3.913   6.679
 6040TIP3    H118061   2.635   3.857   6.752
 6040TIP3    H218062   2.569   3.854   6.616
 6041TIP3   OH218063   6.556   2.185   2.976
 6041TIP3    H118064   6.486   2.241   2.942
 6041TIP3    H218065   6.601   2.153   2.898
 6042TIP3   OH218066   1.846   6.740   1.126
 6042TIP3    H118067   1.911   6.801   1.161
 6042TIP3    H218068   1.762   6.785   1.140
 6043TIP3   OH218069   0.781   1.220   6.172
 6043TIP3    H118070   0.695   1.223   6.130
 6043TIP3    H218071   0.763   1.229   6.266
 6044TIP3   OH218072   7.141   1.702   6.573
 6044TIP3    H118073   7.091   1.706   6.491
 6044TIP3    H218074   7.213   1.642   6.554
 6045TIP3   OH218075   3.951   0.462   2.504
 6045TIP3    H118076   3.881   0.526   2.517
 6045TIP3    H218077   4.025   0.514   2.472
 6046TIP3   OH218078   3.171   1.353   5.493
 6046TIP3    H118079   3.168   1.260   5.518
 6046TIP3    H218080   3.159   1.353   5.398
 6047TIP3   OH218081   5.731   0.205   2.593
 6047TIP3    H118082   5.786   0.127   2.586
 6047TIP3    H218083   5.774   0.260   2.658
 6048TIP3   OH218084   5.637   7.908   6.737
 6048TIP3    H118085   5.578   7.954   6.677
 6048TIP3    H218086   5.695   7.859   6.679
 6049TIP3   OH218087   7.483   7.288   5.720
 6049TIP3    H118088   7.552   7.236   5.762
 6049TIP3    H218089   7.523   7.373   5.706
 6050TIP3   OH218090   1.473   7.447   1.896
 6050TIP3    H118091   1.483   7.458   1.991
 6050TIP3    H218092   1.417   7.520   1.870
 6051TIP3   OH218093   6.825   5.326   3.213
 6051TIP3    H118094   6.875   5.245   3.203
 6051TIP3    H218095   6.859   5.365   3.294
 6052TIP3   OH218096   1.797   4.707   4.944
 6052TIP3    H118097   1.875   4.739   4.899
 6052TIP3    H218098   1.745   4.666   4.876
 6053TIP3   OH218099   1.176   3.462   5.390
 6053TIP3    H118100   1.205   3.444   5.301
 6053TIP3    H218101   1.224   3.399   5.444
 6054TIP3   OH218102   6.279   6.954   3.599
 6054TIP3    H118103   6.273   7.027   3.538
 6054TIP3    H218104   6.215   6.973   3.667
 6055TIP3   OH218105   4.952   4.354   1.170
 6055TIP3    H118106   4.949   4.441   1.129
 6055TIP3    H218107   4.890   4.361   1.243
 6056TIP3   OH218108   4.037   7.553   1.939
 6056TIP3    H118109   3.984   7.630   1.959
 6056TIP3    H218110   3.976   7.492   1.897
 6057TIP3   OH218111   4.271   6.914   0.256
 6057TIP3    H118112   4.186   6.871   0.245
 6057TIP3    H218113   4.315   6.902   0.172
 6058TIP3   OH218114   4.425   5.208   0.880
 6058TIP3    H118115   4.370   5.139   0.918
 6058TIP3    H218116   4.391   5.219   0.790
 6059TIP3   OH218117   2.884   0.705   3.366
 6059TIP3    H118118   2.803   0.744   3.334
 6059TIP3    H218119   2.857   0.653   3.442
 6060TIP3   OH218120   5.251   2.209   0.129
 6060TIP3    H118121   5.178   2.262   0.097
 6060TIP3    H218122   5.326   2.269   0.128
 6061TIP3   OH218123   8.095   4.601   2.385
 6061TIP3    H118124   8.127   4.559   2.305
 6061TIP3    H218125   8.050   4.532   2.433
 6062TIP3   OH218126   7.516   4.691   1.684
 6062TIP3    H118127   7.481   4.629   1.619
 6062TIP3    H218128   7.458   4.682   1.759
 6063TIP3   OH218129   7.281   4.133   1.550
 6063TIP3    H118130   7.318   4.057   1.505
 6063TIP3    H218131   7.200   4.101   1.590
 6064TIP3   OH218132   1.906   6.321   2.603
 6064TIP3    H118133   1.817   6.355   2.611
 6064TIP3    H218134   1.945   6.370   2.531
 6065TIP3   OH218135   7.802   6.063   4.314
 6065TIP3    H118136   7.881   6.114   4.298
 6065TIP3    H218137   7.833   5.975   4.333
 6066TIP3   OH218138   2.364   4.036   6.819
 6066TIP3    H118139   2.317   3.971   6.871
 6066TIP3    H218140   2.436   3.987   6.779
 6067TIP3   OH218141   4.379   1.329   2.591
 6067TIP3    H118142   4.407   1.260   2.532
 6067TIP3    H218143   4.299   1.364   2.552
 6068TIP3   OH218144   8.011   3.708   4.473
 6068TIP3    H118145   8.095   3.679   4.436
 6068TIP3    H218146   7.972   3.629   4.508
 6069TIP3   OH218147   2.898   3.952   4.120
 6069TIP3    H118148   2.834   4.023   4.132
 6069TIP3    H218149   2.982   3.990   4.147
 6070TIP3   OH218150   5.460   4.329   6.277
 6070TIP3    H118151   5.393   4.386   6.238
 6070TIP3    H218152   5.485   4.374   6.358
 6071TIP3   OH218153   5.219   7.780   1.338
 6071TIP3    H118154   5.187   7.869   1.322
 6071TIP3    H218155   5.143   7.732   1.371
 6072TIP3   OH218156   6.014   4.785   4.742
 6072TIP3    H118157   6.099   4.741   4.745
 6072TIP3    H218158   5.950   4.715   4.749
 6073TIP3   OH218159   3.466   1.349   3.444
 6073TIP3    H118160   3.437   1.258   3.443
 6073TIP3    H218161   3.386   1.400   3.452
 6074TIP3   OH218162   7.371   3.194   2.175
 6074TIP3    H118163   7.448   3.188   2.120
 6074TIP3    H218164   7.361   3.107   2.213
 6075TIP3   OH218165   6.753   5.206   0.536
 6075TIP3    H118166   6.713   5.124   0.508
 6075TIP3    H218167   6.692   5.242   0.600
 6076TIP3   OH218168   7.733   1.396   4.144
 6076TIP3    H118169   7.782   1.345   4.079
 6076TIP3    H218170   7.764   1.486   4.132
 6077TIP3   OH218171   1.078   5.907   1.184
 6077TIP3    H118172   1.091   5.942   1.096
 6077TIP3    H218173   1.026   5.828   1.170
 6078TIP3   OH218174   2.821   4.465   5.954
 6078TIP3    H118175   2.819   4.510   5.870
 6078TIP3    H218176   2.899   4.498   5.998
 6079TIP3   OH218177   6.371   1.975   1.156
 6079TIP3    H118178   6.463   1.992   1.134
 6079TIP3    H218179   6.346   2.048   1.213
 6080TIP3   OH218180   7.356   6.026   5.497
 6080TIP3    H118181   7.263   6.046   5.502
 6080TIP3    H218182   7.377   5.988   5.583
 6081TIP3   OH218183   6.720   6.982   4.709
 6081TIP3    H118184   6.751   6.938   4.630
 6081TIP3    H218185   6.626   6.966   4.710
 6082TIP3   OH218186   0.601   3.254   0.712
 6082TIP3    H118187   0.567   3.344   0.707
 6082TIP3    H218188   0.547   3.204   0.652
 6083TIP3   OH218189   3.786   4.758   1.715
 6083TIP3    H118190   3.746   4.845   1.726
 6083TIP3    H218191   3.880   4.775   1.715
 6084TIP3   OH218192   0.267   6.252   3.670
 6084TIP3    H118193   0.292   6.187   3.605
 6084TIP3    H218194   0.251   6.202   3.750
 6085TIP3   OH218195   1.820   2.812   1.892
 6085TIP3    H118196   1.835   2.764   1.974
 6085TIP3    H218197   1.757   2.880   1.915
 6086TIP3   OH218198   0.718   3.655   6.308
 6086TIP3    H118199   0.650   3.665   6.240
 6086TIP3    H218200   0.669   3.649   6.390
 6087TIP3   OH218201   3.894   2.904   1.651
 6087TIP3    H118202   3.841   2.844   1.703
 6087TIP3    H218203   3.961   2.935   1.711
 6088TIP3   OH218204   5.251   5.860   4.053
 6088TIP3    H118205   5.182   5.801   4.084
 6088TIP3    H218206   5.294   5.812   3.982
 6089TIP3   OH218207   0.767   3.445   1.409
 6089TIP3    H118208   0.790   3.477   1.322
 6089TIP3    H218209   0.849   3.449   1.459
 6090TIP3   OH218210   7.789   2.376   1.511
 6090TIP3    H118211   7.879   2.348   1.530
 6090TIP3    H218212   7.769   2.334   1.428
 6091TIP3   OH218213   5.326   0.668   3.903
 6091TIP3    H118214   5.405   0.718   3.883
 6091TIP3    H218215   5.260   0.734   3.926
 6092TIP3   OH218216   7.148   4.193   6.699
 6092TIP3    H118217   7.123   4.266   6.756
 6092TIP3    H218218   7.241   4.179   6.716
 6093TIP3   OH218219   4.218   2.241   0.199
 6093TIP3    H118220   4.277   2.306   0.161
 6093TIP3    H218221   4.276   2.173   0.233
 6094TIP3   OH218222   3.084   0.651   2.519
 6094TIP3    H118223   3.062   0.587   2.451
 6094TIP3    H218224   3.001   0.669   2.563
 6095TIP3   OH218225   0.796   1.028   1.172
 6095TIP3    H118226   0.795   0.986   1.259
 6095TIP3    H218227   0.885   1.062   1.163
 6096TIP3   OH218228   7.305   4.316   3.370
 6096TIP3    H118229   7.241   4.284   3.307
 6096TIP3    H218230   7.254   4.334   3.449
 6097TIP3   OH218231   2.641   0.971   4.884
 6097TIP3    H118232   2.552   0.972   4.849
 6097TIP3    H218233   2.639   1.034   4.956
 6098TIP3   OH218234   0.999   7.911   4.271
 6098TIP3    H118235   1.013   7.994   4.226
 6098TIP3    H218236   0.986   7.848   4.200
 6099TIP3   OH218237   5.850   7.839   4.717
 6099TIP3    H118238   5.784   7.792   4.767
 6099TIP3    H218239   5.801   7.903   4.665
 6100TIP3   OH218240   2.740   7.858   2.145
 6100TIP3    H118241   2.752   7.951   2.123
 6100TIP3    H218242   2.766   7.852   2.237
 6101TIP3   OH218243   5.387   4.888   5.055
 6101TIP3    H118244   5.310   4.841   5.088
 6101TIP3    H218245   5.387   4.869   4.961
 6102TIP3   OH218246   6.577   4.560   3.671
 6102TIP3    H118247   6.625   4.485   3.635
 6102TIP3    H218248   6.575   4.624   3.599
 6103TIP3   OH218249   4.675   2.805   3.759
 6103TIP3    H118250   4.646   2.789   3.849
 6103TIP3    H218251   4.722   2.888   3.763
 6104TIP3   OH218252   1.312   7.149   2.220
 6104TIP3    H118253   1.396   7.172   2.179
 6104TIP3    H218254   1.269   7.094   2.155
 6105TIP3   OH218255   4.376   5.247   4.424
 6105TIP3    H118256   4.324   5.287   4.355
 6105TIP3    H218257   4.346   5.289   4.505
 6106TIP3   OH218258   4.757   1.584   6.506
 6106TIP3    H118259   4.685   1.621   6.556
 6106TIP3    H218260   4.715   1.520   6.448
 6107TIP3   OH218261   0.730   1.529   1.843
 6107TIP3    H118262   0.642   1.494   1.858
 6107TIP3    H218263   0.723   1.579   1.762
 6108TIP3   OH218264   4.523   2.030   5.845
 6108TIP3    H118265   4.577   2.096   5.800
 6108TIP3    H218266   4.476   2.079   5.912
 6109TIP3   OH218267   1.113   1.864   6.456
 6109TIP3    H118268   1.104   1.921   6.380
 6109TIP3    H218269   1.148   1.783   6.420
 6110TIP3   OH218270   3.995   4.034   5.421
 6110TIP3    H118271   4.042   4.111   5.452
 6110TIP3    H218272   3.904   4.063   5.415
 6111TIP3   OH218273   1.642   6.395   2.435
 6111TIP3    H118274   1.695   6.380   2.357
 6111TIP3    H218275   1.633   6.490   2.440
 6112TIP3   OH218276   5.252   2.481   4.255
 6112TIP3    H118277   5.289   2.500   4.168
 6112TIP3    H218278   5.180   2.420   4.237
 6113TIP3   OH218279   5.116   1.551   5.568
 6113TIP3    H118280   5.037   1.518   5.526
 6113TIP3    H218281   5.187   1.524   5.510
 6114TIP3   OH218282   5.382   5.598   0.187
 6114TIP3    H118283   5.306   5.578   0.132
 6114TIP3    H218284   5.454   5.612   0.125
 6115TIP3   OH218285   2.497   4.876   6.462
 6115TIP3    H118286   2.590   4.895   6.466
 6115TIP3    H218287   2.481   4.816   6.535
 6116TIP3   OH218288   4.804   2.562   3.683
 6116TIP3    H118289   4.874   2.615   3.645
 6116TIP3    H218290   4.734   2.624   3.702
 6117TIP3   OH218291   2.479   2.061   0.901
 6117TIP3    H118292   2.510   2.088   0.988
 6117TIP3    H218293   2.541   2.100   0.840
 6118TIP3   OH218294   1.083   4.252   2.487
 6118TIP3    H118295   1.110   4.260   2.395
 6118TIP3    H218296   0.988   4.240   2.483
 6119TIP3   OH218297   2.543   3.150   6.343
 6119TIP3    H118298   2.460   3.180   6.383
 6119TIP3    H218299   2.548   3.198   6.260
 6120TIP3   OH218300   3.951   7.108   1.641
 6120TIP3    H118301   3.965   7.111   1.547
 6120TIP3    H218302   3.861   7.077   1.651
 6121TIP3   OH218303   2.432   4.166   5.764
 6121TIP3    H118304   2.520   4.199   5.780
 6121TIP3    H218305   2.443   4.072   5.751
 6122TIP3   OH218306   0.929   2.889   4.169
 6122TIP3    H118307   0.989   2.889   4.243
 6122TIP3    H218308   0.851   2.842   4.200
 6123TIP3   OH218309   0.008   4.563   3.406
 6123TIP3    H118310  -0.034   4.626   3.347
 6123TIP3    H218311   0.054   4.618   3.470
 6124TIP3   OH218312   5.457   6.983   2.685
 6124TIP3    H118313   5.539   6.936   2.674
 6124TIP3    H218314   5.405   6.928   2.742
 6125TIP3   OH218315   5.644   4.126   6.215
 6125TIP3    H118316   5.577   4.195   6.220
 6125TIP3    H218317   5.701   4.142   6.290
 6126TIP3   OH218318   1.846   4.797   1.938
 6126TIP3    H118319   1.803   4.831   2.016
 6126TIP3    H218320   1.847   4.702   1.949
 6127TIP3   OH218321   1.573   1.552   1.884
 6127TIP3    H118322   1.589   1.526   1.793
 6127TIP3    H218323   1.523   1.479   1.921
 6128TIP3   OH218324   7.930   4.754   2.080
 6128TIP3    H118325   7.847   4.800   2.073
 6128TIP3    H218326   7.907   4.661   2.071
 6129TIP3   OH218327   1.045   7.257   1.312
 6129TIP3    H118328   1.025   7.168   1.284
 6129TIP3    H218329   1.140   7.264   1.304
 6130TIP3   OH218330   1.133   5.374   0.583
 6130TIP3    H118331   1.174   5.288   0.576
 6130TIP3    H218332   1.204   5.433   0.608
 6131TIP3   OH218333   7.526   5.802   3.060
 6131TIP3    H118334   7.527   5.876   2.999
 6131TIP3    H218335   7.530   5.842   3.147
 6132TIP3   OH218336   6.323   1.917   5.696
 6132TIP3    H118337   6.258   1.954   5.637
 6132TIP3    H218338   6.399   1.975   5.687
 6133TIP3   OH218339   1.238   5.884   2.541
 6133TIP3    H118340   1.179   5.955   2.519
 6133TIP3    H218341   1.192   5.804   2.514
 6134TIP3   OH218342   1.251   5.890   6.729
 6134TIP3    H118343   1.345   5.889   6.710
 6134TIP3    H218344   1.211   5.923   6.648
 6135TIP3   OH218345   4.955   7.465   2.930
 6135TIP3    H118346   5.020   7.406   2.967
 6135TIP3    H218347   4.920   7.512   3.006
 6136TIP3   OH218348   4.107   4.191   6.784
 6136TIP3    H118349   4.045   4.261   6.803
 6136TIP3    H218350   4.130   4.155   6.870
 6137TIP3   OH218351   4.167   6.651   1.267
 6137TIP3    H118352   4.189   6.590   1.196
 6137TIP3    H218353   4.120   6.597   1.331
 6138TIP3   OH218354   2.881   4.777   1.721
 6138TIP3    H118355   2.808   4.771   1.782
 6138TIP3    H218356   2.902   4.871   1.718
 6139TIP3   OH218357   4.660   6.545   4.420
 6139TIP3    H118358   4.582   6.598   4.405
 6139TIP3    H218359   4.687   6.518   4.332
 6140TIP3   OH218360   6.573   3.353   6.562
 6140TIP3    H118361   6.660   3.331   6.531
 6140TIP3    H218362   6.514   3.298   6.512
 6141TIP3   OH218363   4.880   0.218   2.848
 6141TIP3    H118364   4.964   0.209   2.893
 6141TIP3    H218365   4.879   0.145   2.785
 6142TIP3   OH218366   1.406   0.908   1.876
 6142TIP3    H118367   1.318   0.871   1.880
 6142TIP3    H218368   1.398   0.994   1.918
 6143TIP3   OH218369   5.002   6.359   0.640
 6143TIP3    H118370   5.007   6.288   0.704
 6143TIP3    H218371   4.955   6.321   0.566
 6144TIP3   OH218372   0.802   6.095   0.567
 6144TIP3    H118373   0.833   6.039   0.495
 6144TIP3    H218374   0.706   6.089   0.562
 6145TIP3   OH218375   7.076   5.349   3.004
 6145TIP3    H118376   7.138   5.398   3.058
 6145TIP3    H218377   7.117   5.347   2.917
 6146TIP3   OH218378   6.783   3.782   1.494
 6146TIP3    H118379   6.808   3.702   1.447
 6146TIP3    H218380   6.715   3.755   1.555
 6147TIP3   OH218381   0.895   2.281   5.741
 6147TIP3    H118382   0.959   2.231   5.693
 6147TIP3    H218383   0.827   2.218   5.764
 6148TIP3   OH218384   8.004   1.097   6.620
 6148TIP3    H118385   8.000   1.179   6.572
 6148TIP3    H218386   8.039   1.121   6.706
 6149TIP3   OH218387   0.213   5.213   1.219
 6149TIP3    H118388   0.164   5.166   1.287
 6149TIP3    H218389   0.175   5.181   1.136
 6150TIP3   OH218390   4.149   5.425   5.666
 6150TIP3    H118391   4.112   5.494   5.721
 6150TIP3    H218392   4.107   5.345   5.697
 6151TIP3   OH218393   4.025   1.809   3.837
 6151TIP3    H118394   4.119   1.791   3.837
 6151TIP3    H218395   4.002   1.817   3.745
 6152TIP3   OH218396   4.487   2.816   4.195
 6152TIP3    H118397   4.477   2.790   4.287
 6152TIP3    H218398   4.397   2.830   4.164
 6153TIP3   OH218399   3.556   7.074   4.014
 6153TIP3    H118400   3.582   7.010   3.947
 6153TIP3    H218401   3.639   7.112   4.044
 6154TIP3   OH218402   1.255   0.466   4.952
 6154TIP3    H118403   1.214   0.533   4.897
 6154TIP3    H218404   1.302   0.410   4.890
 6155TIP3   OH218405   0.910   5.915   5.919
 6155TIP3    H118406   0.913   5.826   5.883
 6155TIP3    H218407   0.966   5.912   5.996
 6156TIP3   OH218408   2.618   2.157   0.222
 6156TIP3    H118409   2.613   2.202   0.306
 6156TIP3    H218410   2.690   2.095   0.234
 6157TIP3   OH218411   7.832   2.692   4.751
 6157TIP3    H118412   7.907   2.734   4.791
 6157TIP3    H218413   7.846   2.598   4.765
 6158TIP3   OH218414   3.963   2.208   2.975
 6158TIP3    H118415   4.042   2.248   2.938
 6158TIP3    H218416   3.990   2.180   3.062
 6159TIP3   OH218417   3.449   5.605   1.609
 6159TIP3    H118418   3.440   5.688   1.655
 6159TIP3    H218419   3.417   5.623   1.521
 6160TIP3   OH218420   6.543   2.020   0.495
 6160TIP3    H118421   6.520   2.001   0.404
 6160TIP3    H218422   6.634   1.990   0.504
 6161TIP3   OH218423   4.915   0.339   5.304
 6161TIP3    H118424   4.967   0.379   5.374
 6161TIP3    H218425   4.825   0.343   5.336
 6162TIP3   OH218426   4.277   7.425   3.243
 6162TIP3    H118427   4.256   7.457   3.331
 6162TIP3    H218428   4.371   7.443   3.233
 6163TIP3   OH218429   6.644  -0.002   0.750
 6163TIP3    H118430   6.723   0.049   0.766
 6163TIP3    H218431   6.621  -0.039   0.835
 6164TIP3   OH218432   1.037   4.772   1.203
 6164TIP3    H118433   0.984   4.755   1.125
 6164TIP3    H218434   0.976   4.817   1.263
 6165TIP3   OH218435   3.565   1.564   1.527
 6165TIP3    H118436   3.471   1.566   1.512
 6165TIP3    H218437   3.595   1.487   1.477
 6166TIP3   OH218438   7.238   1.794   3.747
 6166TIP3    H118439   7.333   1.785   3.744
 6166TIP3    H218440   7.223   1.888   3.736
 6167TIP3   OH218441   0.037   4.444   4.980
 6167TIP3    H118442   0.121   4.468   5.021
 6167TIP3    H218443   0.021   4.513   4.916
 6168TIP3   OH218444   7.487   4.660   6.249
 6168TIP3    H118445   7.404   4.677   6.293
 6168TIP3    H218446   7.490   4.565   6.239
 6169TIP3   OH218447   4.945   4.240   5.364
 6169TIP3    H118448   4.906   4.154   5.346
 6169TIP3    H218449   4.870   4.298   5.378
 6170TIP3   OH218450   8.242   2.550   2.287
 6170TIP3    H118451   8.325   2.557   2.241
 6170TIP3    H218452   8.206   2.639   2.287
 6171TIP3   OH218453   5.556   3.194   3.317
 6171TIP3    H118454   5.478   3.215   3.265
 6171TIP3    H218455   5.533   3.113   3.362
 6172TIP3   OH218456   0.023   4.056   1.616
 6172TIP3    H118457   0.069   3.981   1.652
 6172TIP3    H218458   0.006   4.113   1.692
 6173TIP3   OH218459   5.646   0.141   4.277
 6173TIP3    H118460   5.631   0.168   4.367
 6173TIP3    H218461   5.654   0.046   4.281
 6174TIP3   OH218462   5.609   7.119   2.929
 6174TIP3    H118463   5.529   7.139   2.979
 6174TIP3    H218464   5.671   7.187   2.956
 6175TIP3   OH218465   3.015   0.151   1.172
 6175TIP3    H118466   2.965   0.100   1.235
 6175TIP3    H218467   3.104   0.118   1.178
 6176TIP3   OH218468   2.698   5.945   1.582
 6176TIP3    H118469   2.782   5.990   1.584
 6176TIP3    H218470   2.662   5.957   1.670
 6177TIP3   OH218471   5.866   1.501   5.062
 6177TIP3    H118472   5.870   1.466   4.973
 6177TIP3    H218473   5.940   1.562   5.068
 6178TIP3   OH218474   3.003   1.903   4.077
 6178TIP3    H118475   3.050   1.907   4.161
 6178TIP3    H218476   3.071   1.911   4.011
 6179TIP3   OH218477   2.460   3.572   5.532
 6179TIP3    H118478   2.449   3.576   5.437
 6179TIP3    H218479   2.410   3.496   5.559
 6180TIP3   OH218480   7.977   6.316   2.479
 6180TIP3    H118481   8.036   6.340   2.550
 6180TIP3    H218482   8.034   6.271   2.416
 6181TIP3   OH218483   0.174   4.141   4.569
 6181TIP3    H118484   0.124   4.091   4.634
 6181TIP3    H218485   0.215   4.212   4.619
 6182TIP3   OH218486   5.454   6.574   3.795
 6182TIP3    H118487   5.414   6.657   3.772
 6182TIP3    H218488   5.388   6.529   3.849
 6183TIP3   OH218489   6.830   7.049   0.304
 6183TIP3    H118490   6.909   7.000   0.281
 6183TIP3    H218491   6.807   7.096   0.224
 6184TIP3   OH218492   1.122   5.175   1.742
 6184TIP3    H118493   1.210   5.140   1.747
 6184TIP3    H218494   1.068   5.112   1.789
 6185TIP3   OH218495   6.454   0.418   5.686
 6185TIP3    H118496   6.503   0.364   5.624
 6185TIP3    H218497   6.401   0.354   5.736
 6186TIP3   OH218498   3.861   4.160   3.146
 6186TIP3    H118499   3.913   4.117   3.078
 6186TIP3    H218500   3.792   4.096   3.167
 6187TIP3   OH218501   7.624   7.256   6.600
 6187TIP3    H118502   7.644   7.198   6.673
 6187TIP3    H218503   7.705   7.259   6.549
 6188TIP3   OH218504   6.490   0.947   0.107
 6188TIP3    H118505   6.452   1.020   0.155
 6188TIP3    H218506   6.470   0.965   0.015
 6189TIP3   OH218507   0.406   5.165   5.317
 6189TIP3    H118508   0.426   5.078   5.281
 6189TIP3    H218509   0.472   5.222   5.279
 6190TIP3   OH218510   7.513   2.786   5.639
 6190TIP3    H118511   7.517   2.877   5.668
 6190TIP3    H218512   7.467   2.790   5.555
 6191TIP3   OH218513   2.265   5.719   0.417
 6191TIP3    H118514   2.188   5.688   0.464
 6191TIP3    H218515   2.326   5.745   0.486
 6192TIP3   OH218516   7.577   6.876   0.800
 6192TIP3    H118517   7.615   6.871   0.888
 6192TIP3    H218518   7.509   6.809   0.798
 6193TIP3   OH218519   8.063   1.652   0.904
 6193TIP3    H118520   8.090   1.623   0.817
 6193TIP3    H218521   8.065   1.748   0.899
 6194TIP3   OH218522   0.974   0.264   4.865
 6194TIP3    H118523   0.898   0.322   4.873
 6194TIP3    H218524   1.019   0.294   4.787
 6195TIP3   OH218525   4.539   2.201   3.691
 6195TIP3    H118526   4.507   2.279   3.736
 6195TIP3    H218527   4.466   2.172   3.637
 6196TIP3   OH218528   2.491   1.004   5.151
 6196TIP3    H118529   2.421   1.009   5.216
 6196TIP3    H218530   2.448   0.970   5.072
 6197TIP3   OH218531   1.254   5.943   6.042
 6197TIP3    H118532   1.275   6.009   5.976
 6197TIP3    H218533   1.321   5.876   6.031
 6198TIP3   OH218534   2.504   4.703   4.749
 6198TIP3    H118535   2.504   4.794   4.719
 6198TIP3    H218536   2.536   4.708   4.839
 6199TIP3   OH218537   7.083   6.184   5.410
 6199TIP3    H118538   7.079   6.110   5.349
 6199TIP3    H218539   7.004   6.175   5.463
 6200TIP3   OH218540   1.577   3.815   5.565
 6200TIP3    H118541   1.495   3.861   5.586
 6200TIP3    H218542   1.583   3.746   5.630
 6201TIP3   OH218543   1.470   3.944   6.074
 6201TIP3    H118544   1.424   3.930   5.991
 6201TIP3    H218545   1.404   3.983   6.131
 6202TIP3   OH218546   7.931   7.368   5.876
 6202TIP3    H118547   8.002   7.422   5.843
 6202TIP3    H218548   7.899   7.416   5.953
 6203TIP3   OH218549   7.722   1.983   1.124
 6203TIP3    H118550   7.648   1.975   1.185
 6203TIP3    H218551   7.682   1.982   1.038
 6204TIP3   OH218552   5.484   3.988   2.074
 6204TIP3    H118553   5.400   3.962   2.038
 6204TIP3    H218554   5.472   4.079   2.102
 6205TIP3   OH218555   8.015   2.908   2.702
 6205TIP3    H118556   8.081   2.879   2.765
 6205TIP3    H218557   8.021   3.003   2.703
 6206TIP3   OH218558   4.090   5.997   2.576
 6206TIP3    H118559   4.056   6.043   2.499
 6206TIP3    H218560   4.184   5.988   2.559
 6207TIP3   OH218561   7.149   6.959   2.840
 6207TIP3    H118562   7.073   7.009   2.810
 6207TIP3    H218563   7.128   6.868   2.817
 6208TIP3   OH218564   1.386   1.134   3.441
 6208TIP3    H118565   1.335   1.202   3.397
 6208TIP3    H218566   1.349   1.130   3.529
 6209TIP3   OH218567   0.261   4.031   1.306
 6209TIP3    H118568   0.169   4.045   1.327
 6209TIP3    H218569   0.278   4.090   1.233
 6210TIP3   OH218570   2.939   1.682   5.982
 6210TIP3    H118571   3.007   1.744   5.957
 6210TIP3    H218572   2.867   1.701   5.923
 6211TIP3   OH218573   8.290   5.327   2.167
 6211TIP3    H118574   8.298   5.359   2.257
 6211TIP3    H218575   8.256   5.238   2.176
 6212TIP3   OH218576   5.587   1.993   1.107
 6212TIP3    H118577   5.604   2.050   1.182
 6212TIP3    H218578   5.638   2.031   1.036
 6213TIP3   OH218579   1.709   0.703   5.946
 6213TIP3    H118580   1.765   0.635   5.908
 6213TIP3    H218581   1.765   0.781   5.947
 6214TIP3   OH218582   5.835   3.851   0.008
 6214TIP3    H118583   5.919   3.898   0.003
 6214TIP3    H218584   5.835   3.813   0.096
 6215TIP3   OH218585   3.679   0.968   2.912
 6215TIP3    H118586   3.731   1.044   2.887
 6215TIP3    H218587   3.591   1.003   2.929
 6216TIP3   OH218588   2.531   4.092   0.080
 6216TIP3    H118589   2.609   4.037   0.080
 6216TIP3    H218590   2.484   4.067   0.001
 6217TIP3   OH218591   1.441   1.641   1.493
 6217TIP3    H118592   1.386   1.592   1.431
 6217TIP3    H218593   1.492   1.574   1.538
 6218TIP3   OH218594   4.691   6.363   1.721
 6218TIP3    H118595   4.681   6.268   1.720
 6218TIP3    H218596   4.779   6.378   1.685
 6219TIP3   OH218597   4.263   4.561   5.475
 6219TIP3    H118598   4.346   4.538   5.515
 6219TIP3    H218599   4.220   4.618   5.538
 6220TIP3   OH218600   2.200   5.510   2.755
 6220TIP3    H118601   2.144   5.525   2.679
 6220TIP3    H218602   2.271   5.454   2.721
 6221TIP3   OH218603   2.826   2.181   3.514
 6221TIP3    H118604   2.735   2.176   3.541
 6221TIP3    H218605   2.823   2.217   3.425
 6222TIP3   OH218606   0.939   1.805   4.981
 6222TIP3    H118607   0.887   1.810   5.061
 6222TIP3    H218608   0.938   1.712   4.958
 6223TIP3   OH218609   4.587   0.255   5.497
 6223TIP3    H118610   4.526   0.182   5.507
 6223TIP3    H218611   4.559   0.319   5.563
 6224TIP3   OH218612   3.531   4.888   3.341
 6224TIP3    H118613   3.578   4.809   3.366
 6224TIP3    H218614   3.502   4.871   3.252
 6225TIP3   OH218615   3.973   1.295   1.531
 6225TIP3    H118616   3.968   1.244   1.611
 6225TIP3    H218617   3.990   1.385   1.560
 6226TIP3   OH218618   6.028   6.760   2.532
 6226TIP3    H118619   5.980   6.729   2.455
 6226TIP3    H218620   6.119   6.768   2.503
 6227TIP3   OH218621   6.556   7.417   2.895
 6227TIP3    H118622   6.618   7.404   2.966
 6227TIP3    H218623   6.561   7.337   2.843
 6228TIP3   OH218624   8.224   2.122   2.760
 6228TIP3    H118625   8.295   2.058   2.766
 6228TIP3    H218626   8.256   2.199   2.807
 6229TIP3   OH218627   5.219   4.546   4.433
 6229TIP3    H118628   5.234   4.468   4.379
 6229TIP3    H218629   5.248   4.521   4.521
 6230TIP3   OH218630   6.658   0.814   2.606
 6230TIP3    H118631   6.670   0.721   2.590
 6230TIP3    H218632   6.569   0.833   2.576
 6231TIP3   OH218633   7.955   3.478   6.590
 6231TIP3    H118634   8.027   3.539   6.607
 6231TIP3    H218635   7.923   3.501   6.503
 6232TIP3   OH218636   5.895   7.738   3.471
 6232TIP3    H118637   5.844   7.762   3.394
 6232TIP3    H218638   5.968   7.801   3.471
 6233TIP3   OH218639   0.329   5.127   6.830
 6233TIP3    H118640   0.358   5.036   6.821
 6233TIP3    H218641   0.314   5.138   6.924
 6234TIP3   OH218642   0.988   1.111   1.516
 6234TIP3    H118643   1.028   1.058   1.585
 6234TIP3    H218644   0.905   1.141   1.553
 6235TIP3   OH218645   4.454   6.588   3.187
 6235TIP3    H118646   4.492   6.530   3.121
 6235TIP3    H218647   4.389   6.534   3.233
 6236TIP3   OH218648   6.709   4.935   2.366
 6236TIP3    H118649   6.747   4.904   2.284
 6236TIP3    H218650   6.782   4.934   2.428
 6237TIP3   OH218651   2.755   1.637   0.666
 6237TIP3    H118652   2.820   1.686   0.716
 6237TIP3    H218653   2.734   1.693   0.592
 6238TIP3   OH218654   3.315   5.770   2.169
 6238TIP3    H118655   3.377   5.705   2.137
 6238TIP3    H218656   3.246   5.718   2.210
 6239TIP3   OH218657   6.189   1.863   6.311
 6239TIP3    H118658   6.097   1.853   6.338
 6239TIP3    H218659   6.239   1.832   6.386
 6240TIP3   OH218660   7.877   2.018   2.029
 6240TIP3    H118661   7.920   1.942   1.992
 6240TIP3    H218662   7.892   2.011   2.123
 6241TIP3   OH218663   6.018   3.895   6.551
 6241TIP3    H118664   6.012   3.804   6.522
 6241TIP3    H218665   6.033   3.945   6.470
 6242TIP3   OH218666   1.021   0.491   0.119
 6242TIP3    H118667   1.051   0.529   0.201
 6242TIP3    H218668   1.084   0.522   0.053
 6243TIP3   OH218669   7.421   7.899   1.304
 6243TIP3    H118670   7.416   7.847   1.223
 6243TIP3    H218671   7.510   7.884   1.336
 6244TIP3   OH218672   6.851   3.735   5.517
 6244TIP3    H118673   6.867   3.766   5.606
 6244TIP3    H218674   6.850   3.815   5.464
 6245TIP3   OH218675   2.115   4.508   2.876
 6245TIP3    H118676   2.179   4.507   2.805
 6245TIP3    H218677   2.103   4.416   2.899
 6246TIP3   OH218678   4.786   3.678   1.916
 6246TIP3    H118679   4.694   3.660   1.895
 6246TIP3    H218680   4.833   3.598   1.892
 6247TIP3   OH218681   0.804   5.289   5.837
 6247TIP3    H118682   0.729   5.231   5.847
 6247TIP3    H218683   0.775   5.371   5.878
 6248TIP3   OH218684   4.741   7.352   2.561
 6248TIP3    H118685   4.751   7.446   2.544
 6248TIP3    H218686   4.819   7.312   2.522
 6249TIP3   OH218687   3.966   3.892   5.635
 6249TIP3    H118688   3.966   3.934   5.549
 6249TIP3    H218689   3.988   3.962   5.696
 6250TIP3   OH218690   6.251   3.748   0.051
 6250TIP3    H118691   6.333   3.759   0.005
 6250TIP3    H218692   6.276   3.725   0.140
 6251TIP3   OH218693   6.508   6.191   6.045
 6251TIP3    H118694   6.473   6.275   6.013
 6251TIP3    H218695   6.583   6.174   5.988
 6252TIP3   OH218696   1.103   7.462   3.071
 6252TIP3    H118697   1.023   7.474   3.122
 6252TIP3    H218698   1.165   7.523   3.110
 6253TIP3   OH218699   3.265   2.886   0.169
 6253TIP3    H118700   3.278   2.887   0.264
 6253TIP3    H218701   3.217   2.967   0.151
 6254TIP3   OH218702   0.508   5.000   3.797
 6254TIP3    H118703   0.603   4.993   3.787
 6254TIP3    H218704   0.476   4.912   3.779
 6255TIP3   OH218705   2.435   5.110   0.470
 6255TIP3    H118706   2.504   5.113   0.536
 6255TIP3    H218707   2.471   5.055   0.400
 6256TIP3   OH218708   2.530   6.753   3.210
 6256TIP3    H118709   2.529   6.668   3.255
 6256TIP3    H218710   2.615   6.756   3.167
 6257TIP3   OH218711   2.761   5.360   1.870
 6257TIP3    H118712   2.722   5.402   1.947
 6257TIP3    H218713   2.766   5.430   1.805
 6258TIP3   OH218714   8.342   0.141   3.096
 6258TIP3    H118715   8.255   0.160   3.062
 6258TIP3    H218716   8.336   0.052   3.129
 6259TIP3   OH218717   8.002   3.192   3.294
 6259TIP3    H118718   7.921   3.242   3.286
 6259TIP3    H218719   7.980   3.106   3.258
 6260TIP3   OH218720   3.783   2.338   1.862
 6260TIP3    H118721   3.831   2.421   1.866
 6260TIP3    H218722   3.716   2.345   1.930
 6261TIP3   OH218723   4.481   5.940   4.440
 6261TIP3    H118724   4.554   5.883   4.415
 6261TIP3    H218725   4.454   5.907   4.526
 6262TIP3   OH218726   3.254   5.971   6.278
 6262TIP3    H118727   3.307   5.902   6.318
 6262TIP3    H218728   3.224   5.933   6.195
 6263TIP3   OH218729   4.401   2.569   4.976
 6263TIP3    H118730   4.429   2.649   5.020
 6263TIP3    H218731   4.479   2.513   4.976
 6264TIP3   OH218732   4.921   5.914   5.201
 6264TIP3    H118733   4.835   5.954   5.189
 6264TIP3    H218734   4.907   5.822   5.178
 6265TIP3   OH218735   6.783   2.123   5.525
 6265TIP3    H118736   6.732   2.179   5.468
 6265TIP3    H218737   6.874   2.139   5.500
 6266TIP3   OH218738   3.266   0.836   3.573
 6266TIP3    H118739   3.276   0.786   3.492
 6266TIP3    H218740   3.177   0.872   3.568
 6267TIP3   OH218741   3.578   5.158   6.118
 6267TIP3    H118742   3.671   5.139   6.108
 6267TIP3    H218743   3.538   5.073   6.139
 6268TIP3   OH218744   5.187   4.278   5.222
 6268TIP3    H118745   5.226   4.238   5.145
 6268TIP3    H218746   5.095   4.251   5.219
 6269TIP3   OH218747   3.704   3.872   0.046
 6269TIP3    H118748   3.776   3.892  -0.014
 6269TIP3    H218749   3.736   3.899   0.132
 6270TIP3   OH218750   0.140   7.736   2.060
 6270TIP3    H118751   0.139   7.832   2.061
 6270TIP3    H218752   0.050   7.711   2.082
 6271TIP3   OH218753   5.578   5.890   3.396
 6271TIP3    H118754   5.572   5.977   3.435
 6271TIP3    H218755   5.595   5.907   3.303
 6272TIP3   OH218756   5.932   1.725   1.134
 6272TIP3    H118757   5.866   1.760   1.193
 6272TIP3    H218758   6.008   1.781   1.147
 6273TIP3   OH218759   5.635   6.833   3.784
 6273TIP3    H118760   5.655   6.741   3.772
 6273TIP3    H218761   5.541   6.840   3.769
 6274TIP3   OH218762   0.022   1.487   4.902
 6274TIP3    H118763   0.097   1.511   4.848
 6274TIP3    H218764  -0.038   1.442   4.841
 6275TIP3   OH218765   4.892   6.345   1.342
 6275TIP3    H118766   4.983   6.318   1.329
 6275TIP3    H218767   4.898   6.416   1.406
 6276TIP3   OH218768   5.145   7.434   5.683
 6276TIP3    H118769   5.076   7.400   5.625
 6276TIP3    H218770   5.224   7.387   5.656
 6277TIP3   OH218771   6.232   5.292   6.347
 6277TIP3    H118772   6.317   5.247   6.347
 6277TIP3    H218773   6.174   5.234   6.397
 6278TIP3   OH218774   8.209   6.184   2.868
 6278TIP3    H118775   8.162   6.140   2.797
 6278TIP3    H218776   8.159   6.163   2.946
 6279TIP3   OH218777   7.920   2.305   5.499
 6279TIP3    H118778   7.977   2.291   5.423
 6279TIP3    H218779   7.883   2.392   5.485
 6280TIP3   OH218780   2.025   3.245   4.393
 6280TIP3    H118781   2.063   3.203   4.470
 6280TIP3    H218782   1.938   3.273   4.421
 6281TIP3   OH218783   7.751   6.321   1.678
 6281TIP3    H118784   7.757   6.273   1.760
 6281TIP3    H218785   7.838   6.316   1.640
 6282TIP3   OH218786   6.589   0.799   6.777
 6282TIP3    H118787   6.638   0.743   6.837
 6282TIP3    H218788   6.619   0.774   6.690
 6283TIP3   OH218789   1.724   3.797   0.509
 6283TIP3    H118790   1.709   3.713   0.552
 6283TIP3    H218791   1.817   3.816   0.525
 6284TIP3   OH218792   6.892   5.988   2.211
 6284TIP3    H118793   6.983   6.009   2.232
 6284TIP3    H218794   6.895   5.957   2.120
 6285TIP3   OH218795   0.327   7.319   5.879
 6285TIP3    H118796   0.287   7.265   5.947
 6285TIP3    H218797   0.309   7.409   5.907
 6286TIP3   OH218798   6.277   3.234   2.976
 6286TIP3    H118799   6.192   3.274   2.957
 6286TIP3    H218800   6.259   3.171   3.046
 6287TIP3   OH218801   5.769   6.091   1.466
 6287TIP3    H118802   5.743   6.072   1.556
 6287TIP3    H218803   5.852   6.045   1.455
 6288TIP3   OH218804   5.534   3.679   5.108
 6288TIP3    H118805   5.615   3.710   5.067
 6288TIP3    H218806   5.467   3.741   5.080
 6289TIP3   OH218807   2.987   4.178   4.415
 6289TIP3    H118808   3.055   4.209   4.474
 6289TIP3    H218809   3.008   4.086   4.401
 6290TIP3   OH218810   3.525   6.077   1.251
 6290TIP3    H118811   3.464   6.055   1.322
 6290TIP3    H218812   3.599   6.018   1.264
 6291TIP3   OH218813   7.113   1.377   6.799
 6291TIP3    H118814   7.160   1.360   6.717
 6291TIP3    H218815   7.177   1.361   6.868
 6292TIP3   OH218816   4.912   5.586   2.709
 6292TIP3    H118817   4.932   5.537   2.629
 6292TIP3    H218818   4.829   5.628   2.691
 6293TIP3   OH218819   6.462   3.989   4.621
 6293TIP3    H118820   6.389   4.011   4.679
 6293TIP3    H218821   6.443   3.900   4.593
 6294TIP3   OH218822   4.572   5.938   2.328
 6294TIP3    H118823   4.505   5.992   2.370
 6294TIP3    H218824   4.628   6.000   2.282
 6295TIP3   OH218825   1.692   7.212   5.849
 6295TIP3    H118826   1.725   7.260   5.924
 6295TIP3    H218827   1.738   7.128   5.852
 6296TIP3   OH218828   7.458   5.615   1.742
 6296TIP3    H118829   7.396   5.615   1.669
 6296TIP3    H218830   7.404   5.623   1.820
 6297TIP3   OH218831   5.977   4.743   1.610
 6297TIP3    H118832   5.915   4.672   1.625
 6297TIP3    H218833   5.989   4.744   1.515
 6298TIP3   OH218834   6.545   3.662   5.877
 6298TIP3    H118835   6.584   3.621   5.800
 6298TIP3    H218836   6.563   3.602   5.949
 6299TIP3   OH218837   7.855   0.815   3.860
 6299TIP3    H118838   7.839   0.769   3.777
 6299TIP3    H218839   7.944   0.790   3.884
 6300TIP3   OH218840   2.080   7.547   6.557
 6300TIP3    H118841   2.045   7.627   6.596
 6300TIP3    H218842   2.036   7.476   6.605
 6301TIP3   OH218843   2.405   4.845   3.391
 6301TIP3    H118844   2.485   4.829   3.440
 6301TIP3    H218845   2.352   4.901   3.448
 6302TIP3   OH218846   1.023   3.937   4.099
 6302TIP3    H118847   1.081   3.891   4.039
 6302TIP3    H218848   0.939   3.939   4.053
 6303TIP3   OH218849   6.090   5.053   1.213
 6303TIP3    H118850   6.073   5.145   1.233
 6303TIP3    H218851   6.173   5.034   1.256
 6304TIP3   OH218852   7.232   2.484   3.339
 6304TIP3    H118853   7.151   2.503   3.290
 6304TIP3    H218854   7.264   2.402   3.302
 6305TIP3   OH218855   8.334   1.780   6.054
 6305TIP3    H118856   8.325   1.855   5.995
 6305TIP3    H218857   8.245   1.764   6.085
 6306TIP3   OH218858   3.141   5.111   3.148
 6306TIP3    H118859   3.172   5.078   3.233
 6306TIP3    H218860   3.152   5.206   3.154
 6307TIP3   OH218861   7.587   7.857   3.428
 6307TIP3    H118862   7.516   7.848   3.365
 6307TIP3    H218863   7.639   7.777   3.418
 6308TIP3   OH218864   5.972   0.803   5.233
 6308TIP3    H118865   5.899   0.815   5.172
 6308TIP3    H218866   5.975   0.708   5.248
 6309TIP3   OH218867   0.050   4.734   4.087
 6309TIP3    H118868   0.142   4.751   4.105
 6309TIP3    H218869   0.007   4.820   4.097
 6310TIP3   OH218870   1.478   2.660   3.878
 6310TIP3    H118871   1.462   2.640   3.786
 6310TIP3    H218872   1.480   2.575   3.922
 6311TIP3   OH218873   5.635   0.434   6.738
 6311TIP3    H118874   5.642   0.384   6.820
 6311TIP3    H218875   5.631   0.525   6.766
 6312TIP3   OH218876   4.159   5.662   4.263
 6312TIP3    H118877   4.126   5.752   4.267
 6312TIP3    H218878   4.242   5.669   4.216
 6313TIP3   OH218879   0.896   7.640   2.848
 6313TIP3    H118880   0.978   7.625   2.801
 6313TIP3    H218881   0.916   7.711   2.909
 6314TIP3   OH218882   1.379   1.444   3.185
 6314TIP3    H118883   1.443   1.483   3.245
 6314TIP3    H218884   1.362   1.357   3.222
 6315TIP3   OH218885   3.798   5.262   0.525
 6315TIP3    H118886   3.779   5.172   0.553
 6315TIP3    H218887   3.860   5.252   0.453
 6316TIP3   OH218888   0.797   7.101   1.782
 6316TIP3    H118889   0.777   7.017   1.823
 6316TIP3    H218890   0.711   7.135   1.755
 6317TIP3   OH218891   4.856   3.219   1.340
 6317TIP3    H118892   4.860   3.303   1.294
 6317TIP3    H218893   4.942   3.210   1.381
 6318TIP3   OH218894   7.336   2.252   3.222
 6318TIP3    H118895   7.301   2.180   3.273
 6318TIP3    H218896   7.424   2.267   3.258
 6319TIP3   OH218897   8.251   0.205   0.860
 6319TIP3    H118898   8.331   0.184   0.812
 6319TIP3    H218899   8.197   0.253   0.797
 6320TIP3   OH218900   1.788   4.979   5.496
 6320TIP3    H118901   1.775   5.053   5.437
 6320TIP3    H218902   1.703   4.936   5.501
 6321TIP3   OH218903   7.515   3.155   6.044
 6321TIP3    H118904   7.491   3.206   5.967
 6321TIP3    H218905   7.565   3.216   6.099
 6322TIP3   OH218906   6.656   5.583   3.687
 6322TIP3    H118907   6.593   5.645   3.651
 6322TIP3    H218908   6.603   5.525   3.742
 6323TIP3   OH218909   5.693   5.936   2.715
 6323TIP3    H118910   5.715   5.957   2.805
 6323TIP3    H218911   5.711   6.016   2.666
 6324TIP3   OH218912   3.207   0.124   2.742
 6324TIP3    H118913   3.230   0.032   2.727
 6324TIP3    H218914   3.116   0.131   2.714
 6325TIP3   OH218915   6.499   1.878   5.235
 6325TIP3    H118916   6.588   1.906   5.212
 6325TIP3    H218917   6.459   1.956   5.275
 6326TIP3   OH218918   8.345   7.848   2.443
 6326TIP3    H118919   8.344   7.806   2.357
 6326TIP3    H218920   8.387   7.784   2.500
 6327TIP3   OH218921   6.168   0.783   2.807
 6327TIP3    H118922   6.260   0.779   2.783
 6327TIP3    H218923   6.154   0.705   2.860
 6328TIP3   OH218924   4.924   0.979   1.773
 6328TIP3    H118925   4.967   1.062   1.796
 6328TIP3    H218926   4.992   0.913   1.788
 6329TIP3   OH218927   0.308   7.559   2.812
 6329TIP3    H118928   0.355   7.638   2.838
 6329TIP3    H218929   0.290   7.513   2.894
 6330TIP3   OH218930   1.395   4.143   2.437
 6330TIP3    H118931   1.412   4.071   2.376
 6330TIP3    H218932   1.299   4.148   2.441
 6331TIP3   OH218933   5.700   3.159   1.706
 6331TIP3    H118934   5.625   3.104   1.684
 6331TIP3    H218935   5.760   3.100   1.753
 6332TIP3   OH218936   8.282   0.120   2.359
 6332TIP3    H118937   8.282   0.206   2.401
 6332TIP3    H218938   8.231   0.064   2.417
 6333TIP3   OH218939   6.727   1.394   0.242
 6333TIP3    H118940   6.804   1.359   0.197
 6333TIP3    H218941   6.653   1.348   0.201
 6334TIP3   OH218942   7.031   1.181   3.469
 6334TIP3    H118943   6.959   1.143   3.520
 6334TIP3    H218944   6.997   1.184   3.379
 6335TIP3   OH218945   7.044   2.089   3.985
 6335TIP3    H118946   6.995   2.006   3.982
 6335TIP3    H218947   7.004   2.138   4.056
 6336TIP3   OH218948   0.564   0.165   3.761
 6336TIP3    H118949   0.624   0.234   3.791
 6336TIP3    H218950   0.538   0.120   3.841
 6337TIP3   OH218951   0.808   0.312   5.886
 6337TIP3    H118952   0.872   0.378   5.912
 6337TIP3    H218953   0.823   0.239   5.946
 6338TIP3   OH218954   7.119   5.593   4.640
 6338TIP3    H118955   7.056   5.522   4.628
 6338TIP3    H218956   7.191   5.571   4.581
 6339TIP3   OH218957   7.567   1.850   4.663
 6339TIP3    H118958   7.634   1.838   4.730
 6339TIP3    H218959   7.544   1.943   4.669
 6340TIP3   OH218960   4.986   5.208   6.852
 6340TIP3    H118961   4.902   5.253   6.839
 6340TIP3    H218962   4.962   5.118   6.873
 6341TIP3   OH218963   2.358   6.548   4.144
 6341TIP3    H118964   2.443   6.583   4.119
 6341TIP3    H218965   2.303   6.562   4.066
 6342TIP3   OH218966  -0.001   5.552   2.005
 6342TIP3    H118967  -0.041   5.484   2.060
 6342TIP3    H218968   0.091   5.551   2.030
 6343TIP3   OH218969   7.569   2.882   5.980
 6343TIP3    H118970   7.575   2.956   6.040
 6343TIP3    H218971   7.565   2.922   5.893
 6344TIP3   OH218972   0.594   0.719   1.179
 6344TIP3    H118973   0.680   0.754   1.157
 6344TIP3    H218974   0.608   0.671   1.261
 6345TIP3   OH218975   2.132   2.531   2.389
 6345TIP3    H118976   2.078   2.552   2.465
 6345TIP3    H218977   2.214   2.578   2.404
 6346TIP3   OH218978   6.100   7.620   2.238
 6346TIP3    H118979   6.011   7.650   2.216
 6346TIP3    H218980   6.155   7.697   2.224
 6347TIP3   OH218981   7.160   5.881   1.545
 6347TIP3    H118982   7.177   5.919   1.631
 6347TIP3    H218983   7.098   5.942   1.504
 6348TIP3   OH218984   5.470   1.558   3.123
 6348TIP3    H118985   5.565   1.553   3.124
 6348TIP3    H218986   5.451   1.647   3.091
 6349TIP3   OH218987   8.322   2.197   5.663
 6349TIP3    H118988   8.413   2.216   5.689
 6349TIP3    H218989   8.330   2.132   5.594
 6350TIP3   OH218990   4.260   0.580   0.901
 6350TIP3    H118991   4.309   0.638   0.843
 6350TIP3    H218992   4.276   0.492   0.867
 6351TIP3   OH218993   3.659   5.685   5.692
 6351TIP3    H118994   3.709   5.732   5.625
 6351TIP3    H218995   3.640   5.752   5.758
 6352TIP3   OH218996   0.415   3.899   5.356
 6352TIP3    H118997   0.462   3.837   5.301
 6352TIP3    H218998   0.475   3.917   5.429
 6353TIP3   OH218999   5.297   1.808   6.866
 6353TIP3    H119000   5.206   1.816   6.835
 6353TIP3    H219001   5.349   1.852   6.798
 6354TIP3   OH219002   7.384   5.444   0.053
 6354TIP3    H119003   7.383   5.349   0.065
 6354TIP3    H219004   7.468   5.471   0.089
 6355TIP3   OH219005   0.236   7.115   1.081
 6355TIP3    H119006   0.327   7.124   1.107
 6355TIP3    H219007   0.186   7.129   1.162
 6356TIP3   OH219008   0.679   7.516   3.166
 6356TIP3    H119009   0.658   7.609   3.173
 6356TIP3    H219010   0.649   7.478   3.248
 6357TIP3   OH219011   5.763   4.337   6.083
 6357TIP3    H119012   5.786   4.245   6.067
 6357TIP3    H219013   5.690   4.333   6.145
 6358TIP3   OH219014   3.895   3.410   1.044
 6358TIP3    H119015   3.905   3.414   1.139
 6358TIP3    H219016   3.974   3.451   1.009
 6359TIP3   OH219017   7.134   1.735   5.982
 6359TIP3    H119018   7.213   1.681   5.970
 6359TIP3    H219019   7.062   1.674   5.966
 6360TIP3   OH219020   5.875   0.252   1.705
 6360TIP3    H119021   5.878   0.156   1.708
 6360TIP3    H219022   5.782   0.273   1.716
 6361TIP3   OH219023   6.939   7.619   0.175
 6361TIP3    H119024   6.859   7.618   0.227
 6361TIP3    H219025   6.929   7.694   0.116
 6362TIP3   OH219026   3.442   3.287   2.395
 6362TIP3    H119027   3.502   3.300   2.322
 6362TIP3    H219028   3.467   3.202   2.432
 6363TIP3   OH219029   5.799   2.564   1.091
 6363TIP3    H119030   5.845   2.499   1.145
 6363TIP3    H219031   5.734   2.602   1.150
 6364TIP3   OH219032   6.446   7.385   5.226
 6364TIP3    H119033   6.536   7.404   5.200
 6364TIP3    H219034   6.452   7.304   5.278
 6365TIP3   OH219035   4.218   6.956   4.282
 6365TIP3    H119036   4.310   6.981   4.294
 6365TIP3    H219037   4.182   7.025   4.226
 6366TIP3   OH219038   8.127   3.141   5.211
 6366TIP3    H119039   8.077   3.070   5.250
 6366TIP3    H219040   8.079   3.221   5.235
 6367TIP3   OH219041   3.151   4.755   0.557
 6367TIP3    H119042   3.188   4.831   0.512
 6367TIP3    H219043   3.058   4.777   0.570
 6368TIP3   OH219044   0.442   7.811   4.505
 6368TIP3    H119045   0.427   7.728   4.549
 6368TIP3    H219046   0.504   7.789   4.434
 6369TIP3   OH219047   0.148   6.816   4.211
 6369TIP3    H119048   0.121   6.754   4.143
 6369TIP3    H219049   0.106   6.784   4.291
 6370TIP3   OH219050   2.322   7.750   2.837
 6370TIP3    H119051   2.263   7.785   2.903
 6370TIP3    H219052   2.266   7.701   2.777
 6371TIP3   OH219053   6.555   5.015   0.459
 6371TIP3    H119054   6.470   4.971   0.464
 6371TIP3    H219055   6.538   5.096   0.412
 6372TIP3   OH219056   4.119   2.787   5.256
 6372TIP3    H119057   4.134   2.868   5.306
 6372TIP3    H219058   4.199   2.775   5.206
 6373TIP3   OH219059   4.667   7.750   0.983
 6373TIP3    H119060   4.694   7.769   0.894
 6373TIP3    H219061   4.599   7.815   1.002
 6374TIP3   OH219062   2.964   7.029   3.618
 6374TIP3    H119063   3.027   6.956   3.612
 6374TIP3    H219064   2.922   7.017   3.703
 6375TIP3   OH219065   0.543   1.890   4.946
 6375TIP3    H119066   0.510   1.947   4.877
 6375TIP3    H219067   0.505   1.923   5.027
 6376TIP3   OH219068   1.658   2.202   3.644
 6376TIP3    H119069   1.642   2.187   3.737
 6376TIP3    H219070   1.745   2.167   3.628
 6377TIP3   OH219071   0.978   2.278   3.160
 6377TIP3    H119072   1.006   2.200   3.207
 6377TIP3    H219073   1.046   2.342   3.178
 6378TIP3   OH219074   7.700   5.741   1.689
 6378TIP3    H119075   7.671   5.746   1.598
 6378TIP3    H219076   7.624   5.706   1.736
 6379TIP3   OH219077   7.124   0.565   0.457
 6379TIP3    H119078   7.173   0.622   0.398
 6379TIP3    H219079   7.189   0.531   0.518
 6380TIP3   OH219080   0.807   1.431   2.705
 6380TIP3    H119081   0.883   1.488   2.698
 6380TIP3    H219082   0.773   1.446   2.793
 6381TIP3   OH219083   5.946   1.357   0.538
 6381TIP3    H119084   5.984   1.277   0.573
 6381TIP3    H219085   6.001   1.427   0.572
 6382TIP3   OH219086   6.815   0.344   5.874
 6382TIP3    H119087   6.730   0.374   5.908
 6382TIP3    H219088   6.800   0.332   5.781
 6383TIP3   OH219089   1.733   2.912   5.196
 6383TIP3    H119090   1.769   2.996   5.168
 6383TIP3    H219091   1.704   2.927   5.286
 6384TIP3   OH219092   1.774   5.869   1.333
 6384TIP3    H119093   1.719   5.930   1.284
 6384TIP3    H219094   1.727   5.785   1.327
 6385TIP3   OH219095   3.656   2.209   3.512
 6385TIP3    H119096   3.630   2.260   3.435
 6385TIP3    H219097   3.746   2.237   3.530
 6386TIP3   OH219098   1.171   0.875   4.103
 6386TIP3    H119099   1.147   0.868   4.011
 6386TIP3    H219100   1.090   0.858   4.151
 6387TIP3   OH219101   5.932   0.582   1.025
 6387TIP3    H119102   6.025   0.603   1.015
 6387TIP3    H219103   5.911   0.607   1.115
 6388TIP3   OH219104   1.196   7.475   4.315
 6388TIP3    H119105   1.214   7.549   4.372
 6388TIP3    H219106   1.102   7.460   4.323
 6389TIP3   OH219107   5.013   7.386   0.845
 6389TIP3    H119108   5.010   7.327   0.921
 6389TIP3    H219109   4.938   7.360   0.792
 6390TIP3   OH219110   5.364   3.966   6.797
 6390TIP3    H119111   5.391   3.893   6.852
 6390TIP3    H219112   5.393   3.941   6.709
 6391TIP3   OH219113   6.567   3.906   1.134
 6391TIP3    H119114   6.554   3.818   1.167
 6391TIP3    H219115   6.655   3.930   1.160
 6392TIP3   OH219116   4.568   1.678   1.235
 6392TIP3    H119117   4.586   1.615   1.166
 6392TIP3    H219118   4.574   1.627   1.316
 6393TIP3   OH219119   5.552  -0.002   3.501
 6393TIP3    H119120   5.505   0.068   3.456
 6393TIP3    H219121   5.590  -0.055   3.431
 6394TIP3   OH219122   6.485   4.902   3.559
 6394TIP3    H119123   6.445   4.869   3.640
 6394TIP3    H219124   6.412   4.941   3.511
 6395TIP3   OH219125   1.103   3.093   5.021
 6395TIP3    H119126   1.071   3.005   5.039
 6395TIP3    H219127   1.111   3.134   5.107
 6396TIP3   OH219128   7.729   2.287   4.099
 6396TIP3    H119129   7.798   2.249   4.045
 6396TIP3    H219130   7.658   2.305   4.038
 6397TIP3   OH219131   7.260   4.269   6.063
 6397TIP3    H119132   7.263   4.175   6.046
 6397TIP3    H219133   7.259   4.309   5.976
 6398TIP3   OH219134   4.121   4.766   4.942
 6398TIP3    H119135   4.184   4.837   4.947
 6398TIP3    H219136   4.102   4.745   5.034
 6399TIP3   OH219137   8.367   1.133   4.462
 6399TIP3    H119138   8.322   1.097   4.538
 6399TIP3    H219139   8.435   1.190   4.499
 6400TIP3   OH219140   0.169   2.039   6.016
 6400TIP3    H119141   0.168   2.132   6.039
 6400TIP3    H219142   0.103   2.000   6.074
 6401TIP3   OH219143   3.382   5.810   6.513
 6401TIP3    H119144   3.384   5.715   6.502
 6401TIP3    H219145   3.417   5.826   6.601
 6402TIP3   OH219146   2.066   6.120   0.314
 6402TIP3    H119147   2.023   6.077   0.387
 6402TIP3    H219148   2.016   6.200   0.301
 6403TIP3   OH219149   4.461   4.155   5.392
 6403TIP3    H119150   4.480   4.191   5.305
 6403TIP3    H219151   4.530   4.189   5.448
 6404TIP3   OH219152   0.150   4.777   5.237
 6404TIP3    H119153   0.205   4.720   5.291
 6404TIP3    H219154   0.204   4.794   5.159
 6405TIP3   OH219155   2.242   2.316   6.293
 6405TIP3    H119156   2.255   2.409   6.310
 6405TIP3    H219157   2.296   2.298   6.216
 6406TIP3   OH219158   7.926   0.869   5.207
 6406TIP3    H119159   7.937   0.882   5.301
 6406TIP3    H219160   7.950   0.953   5.169
 6407TIP3   OH219161   5.107   6.257   6.467
 6407TIP3    H119162   5.068   6.296   6.388
 6407TIP3    H219163   5.125   6.166   6.442
 6408TIP3   OH219164   7.445   7.005   1.341
 6408TIP3    H119165   7.386   7.043   1.405
 6408TIP3    H219166   7.429   6.911   1.345
 6409TIP3   OH219167   1.054   4.046   4.615
 6409TIP3    H119168   1.140   4.079   4.640
 6409TIP3    H219169   1.018   4.113   4.558
 6410TIP3   OH219170   2.228   7.832   6.494
 6410TIP3    H119171   2.318   7.861   6.479
 6410TIP3    H219172   2.224   7.811   6.587
 6411TIP3   OH219173   0.200   4.662   1.792
 6411TIP3    H119174   0.287   4.699   1.776
 6411TIP3    H219175   0.203   4.576   1.748
 6412TIP3   OH219176   4.689   0.106   4.394
 6412TIP3    H119177   4.689   0.176   4.459
 6412TIP3    H219178   4.653   0.147   4.315
 6413TIP3   OH219179   1.062   2.418   2.199
 6413TIP3    H119180   0.969   2.404   2.216
 6413TIP3    H219181   1.078   2.372   2.116
 6414TIP3   OH219182   1.063   3.231   1.255
 6414TIP3    H119183   1.070   3.319   1.218
 6414TIP3    H219184   0.976   3.201   1.230
 6415TIP3   OH219185   2.569   1.406   5.851
 6415TIP3    H119186   2.540   1.337   5.911
 6415TIP3    H219187   2.488   1.440   5.813
 6416TIP3   OH219188   3.455   0.754   2.239
 6416TIP3    H119189   3.531   0.741   2.296
 6416TIP3    H219190   3.408   0.670   2.243
 6417TIP3   OH219191   4.674   3.093   3.508
 6417TIP3    H119192   4.697   3.100   3.416
 6417TIP3    H219193   4.589   3.049   3.508
 6418TIP3   OH219194   4.295   5.078   2.970
 6418TIP3    H119195   4.324   5.151   3.024
 6418TIP3    H219196   4.298   5.111   2.880
 6419TIP3   OH219197   5.231   3.094   6.054
 6419TIP3    H119198   5.265   3.064   6.138
 6419TIP3    H219199   5.291   3.163   6.027
 6420TIP3   OH219200   6.321   5.934   1.026
 6420TIP3    H119201   6.295   6.026   1.032
 6420TIP3    H219202   6.413   5.937   1.001
 6421TIP3   OH219203   4.535   3.708   1.788
 6421TIP3    H119204   4.529   3.794   1.746
 6421TIP3    H219205   4.445   3.689   1.815
 6422TIP3   OH219206   7.525   3.947   3.602
 6422TIP3    H119207   7.620   3.939   3.612
 6422TIP3    H219208   7.512   4.040   3.582
 6423TIP3   OH219209   8.199   5.509   0.050
 6423TIP3    H119210   8.164   5.584   0.003
 6423TIP3    H219211   8.294   5.525   0.053
 6424TIP3   OH219212   6.134   6.821   6.428
 6424TIP3    H119213   6.198   6.888   6.452
 6424TIP3    H219214   6.053   6.870   6.414
 6425TIP3   OH219215   6.706   4.655   3.905
 6425TIP3    H119216   6.681   4.596   3.834
 6425TIP3    H219217   6.697   4.743   3.868
 6426TIP3   OH219218   7.923   4.264   6.417
 6426TIP3    H119219   7.844   4.304   6.380
 6426TIP3    H219220   7.896   4.234   6.504
 6427TIP3   OH219221   5.168   4.682   6.619
 6427TIP3    H119222   5.114   4.609   6.650
 6427TIP3    H219223   5.191   4.659   6.529
 6428TIP3   OH219224   7.931   6.790   6.173
 6428TIP3    H119225   8.018   6.822   6.199
 6428TIP3    H219226   7.945   6.697   6.153
 6429TIP3   OH219227   1.662   6.932   1.181
 6429TIP3    H119228   1.677   7.014   1.229
 6429TIP3    H219229   1.603   6.882   1.236
 6430TIP3   OH219230   6.430   2.714   1.534
 6430TIP3    H119231   6.471   2.738   1.617
 6430TIP3    H219232   6.344   2.755   1.537
 6431TIP3   OH219233   2.870   3.335   1.860
 6431TIP3    H119234   2.798   3.288   1.818
 6431TIP3    H219235   2.946   3.278   1.849
 6432TIP3   OH219236   5.397   7.839   2.100
 6432TIP3    H119237   5.402   7.837   2.196
 6432TIP3    H219238   5.374   7.929   2.079
 6433TIP3   OH219239   5.291   6.752   2.788
 6433TIP3    H119240   5.233   6.792   2.722
 6433TIP3    H219241   5.299   6.661   2.761
 6434TIP3   OH219242   2.013   5.549   6.126
 6434TIP3    H119243   2.054   5.521   6.207
 6434TIP3    H219244   2.073   5.520   6.057
 6435TIP3   OH219245   1.880   0.119   4.851
 6435TIP3    H119246   1.932   0.197   4.835
 6435TIP3    H219247   1.891   0.101   4.945
 6436TIP3   OH219248   0.111   0.068   4.468
 6436TIP3    H119249   0.046   0.119   4.419
 6436TIP3    H219250   0.086  -0.023   4.453
 6437TIP3   OH219251   1.067   1.287   1.330
 6437TIP3    H119252   1.058   1.244   1.246
 6437TIP3    H219253   1.080   1.216   1.393
 6438TIP3   OH219254   4.407   1.739   6.563
 6438TIP3    H119255   4.402   1.775   6.475
 6438TIP3    H219256   4.379   1.810   6.620
 6439TIP3   OH219257   6.339   4.241   1.673
 6439TIP3    H119258   6.273   4.309   1.661
 6439TIP3    H219259   6.289   4.162   1.695
 6440TIP3   OH219260   8.310   6.910   5.419
 6440TIP3    H119261   8.368   6.834   5.408
 6440TIP3    H219262   8.292   6.939   5.330
 6441TIP3   OH219263   6.597   3.500   4.591
 6441TIP3    H119264   6.679   3.519   4.636
 6441TIP3    H219265   6.541   3.461   4.659
 6442TIP3   OH219266   5.484   2.187   2.152
 6442TIP3    H119267   5.545   2.117   2.127
 6442TIP3    H219268   5.437   2.207   2.071
 6443TIP3   OH219269   1.617   1.353   5.779
 6443TIP3    H119270   1.677   1.376   5.709
 6443TIP3    H219271   1.644   1.408   5.853
 6444TIP3   OH219272   2.436   6.066   4.034
 6444TIP3    H119273   2.504   6.129   4.010
 6444TIP3    H219274   2.457   5.988   3.983
 6445TIP3   OH219275   8.018   2.244   3.702
 6445TIP3    H119276   7.957   2.299   3.653
 6445TIP3    H219277   8.104   2.267   3.668
 6446TIP3   OH219278   2.563   6.816   1.489
 6446TIP3    H119279   2.645   6.865   1.488
 6446TIP3    H219280   2.552   6.789   1.580
 6447TIP3   OH219281   6.242   3.951   0.410
 6447TIP3    H119282   6.332   3.968   0.437
 6447TIP3    H219283   6.247   3.869   0.361
 6448TIP3   OH219284   2.382   3.083   0.755
 6448TIP3    H119285   2.298   3.101   0.712
 6448TIP3    H219286   2.361   3.022   0.825
 6449TIP3   OH219287   1.747   1.739   0.302
 6449TIP3    H119288   1.829   1.715   0.345
 6449TIP3    H219289   1.697   1.658   0.298
 6450TIP3   OH219290   3.516   3.501   3.087
 6450TIP3    H119291   3.483   3.505   3.176
 6450TIP3    H219292   3.438   3.482   3.033
 6451TIP3   OH219293   0.468   0.670   4.460
 6451TIP3    H119294   0.438   0.608   4.393
 6451TIP3    H219295   0.529   0.620   4.514
 6452TIP3   OH219296   0.170   6.275   2.211
 6452TIP3    H119297   0.223   6.334   2.158
 6452TIP3    H219298   0.111   6.333   2.259
 6453TIP3   OH219299   5.836   2.226   5.767
 6453TIP3    H119300   5.788   2.143   5.762
 6453TIP3    H219301   5.839   2.245   5.861
 6454TIP3   OH219302   0.196   2.968   0.989
 6454TIP3    H119303   0.277   3.008   0.957
 6454TIP3    H219304   0.131   3.038   0.983
 6455TIP3   OH219305   4.772   5.714   3.431
 6455TIP3    H119306   4.764   5.740   3.523
 6455TIP3    H219307   4.732   5.786   3.382
 6456TIP3   OH219308   7.369   2.862   2.679
 6456TIP3    H119309   7.409   2.883   2.594
 6456TIP3    H219310   7.275   2.868   2.664
 6457TIP3   OH219311   2.548   5.602   3.952
 6457TIP3    H119312   2.495   5.609   4.031
 6457TIP3    H219313   2.523   5.518   3.914
 6458TIP3   OH219314   1.526   3.240   1.301
 6458TIP3    H119315   1.530   3.257   1.396
 6458TIP3    H219316   1.617   3.227   1.275
 6459TIP3   OH219317   4.841   5.432   5.709
 6459TIP3    H119318   4.801   5.346   5.722
 6459TIP3    H219319   4.792   5.491   5.767
 6460TIP3   OH219320   2.996   7.512   2.061
 6460TIP3    H119321   3.075   7.522   2.115
 6460TIP3    H219322   3.028   7.481   1.977
 6461TIP3   OH219323   5.874   1.318   1.586
 6461TIP3    H119324   5.858   1.224   1.579
 6461TIP3    H219325   5.903   1.330   1.677
 6462TIP3   OH219326   3.807   6.852   2.925
 6462TIP3    H119327   3.872   6.879   2.861
 6462TIP3    H219328   3.745   6.799   2.875
 6463TIP3   OH219329   1.936   6.014   5.723
 6463TIP3    H119330   1.919   5.926   5.755
 6463TIP3    H219331   1.870   6.029   5.656
 6464TIP3   OH219332   6.846   4.676   5.059
 6464TIP3    H119333   6.801   4.600   5.097
 6464TIP3    H219334   6.917   4.639   5.007
 6465TIP3   OH219335   3.165   4.643   2.440
 6465TIP3    H119336   3.212   4.678   2.363
 6465TIP3    H219337   3.114   4.570   2.406
 6466TIP3   OH219338   4.836   7.890   5.978
 6466TIP3    H119339   4.747   7.874   6.010
 6466TIP3    H219340   4.889   7.899   6.057
 6467TIP3   OH219341   6.065   1.780   1.653
 6467TIP3    H119342   6.019   1.846   1.705
 6467TIP3    H219343   6.078   1.821   1.568
 6468TIP3   OH219344   5.243   4.192   3.325
 6468TIP3    H119345   5.262   4.275   3.367
 6468TIP3    H219346   5.158   4.205   3.283
 6469TIP3   OH219347   0.505   6.402   2.056
 6469TIP3    H119348   0.534   6.416   1.966
 6469TIP3    H219349   0.585   6.402   2.108
 6470TIP3   OH219350   0.606   2.666   3.455
 6470TIP3    H119351   0.630   2.757   3.473
 6470TIP3    H219352   0.597   2.662   3.360
 6471TIP3   OH219353   0.203   6.302   2.927
 6471TIP3    H119354   0.146   6.358   2.875
 6471TIP3    H219355   0.177   6.213   2.903
 6472TIP3   OH219356   2.992   4.866   6.187
 6472TIP3    H119357   2.981   4.839   6.096
 6472TIP3    H219358   3.086   4.868   6.201
 6473TIP3   OH219359   6.110   3.129   4.927
 6473TIP3    H119360   6.074   3.148   5.013
 6473TIP3    H219361   6.049   3.171   4.865
 6474TIP3   OH219362   6.410   3.878   3.319
 6474TIP3    H119363   6.395   3.821   3.394
 6474TIP3    H219364   6.368   3.834   3.246
 6475TIP3   OH219365   2.003   1.897   2.808
 6475TIP3    H119366   2.069   1.967   2.802
 6475TIP3    H219367   1.975   1.882   2.718
 6476TIP3   OH219368   4.827   4.161   4.731
 6476TIP3    H119369   4.815   4.138   4.639
 6476TIP3    H219370   4.779   4.093   4.779
 6477TIP3   OH219371   4.716   7.222   2.128
 6477TIP3    H119372   4.682   7.138   2.098
 6477TIP3    H219373   4.701   7.221   2.223
 6478TIP3   OH219374   8.380   4.216   2.969
 6478TIP3    H119375   8.466   4.193   2.934
 6478TIP3    H219376   8.349   4.137   3.013
 6479TIP3   OH219377   7.208   7.534   1.700
 6479TIP3    H119378   7.250   7.455   1.667
 6479TIP3    H219379   7.241   7.604   1.645
 6480TIP3   OH219380   2.517   2.449   0.698
 6480TIP3    H119381   2.590   2.511   0.696
 6480TIP3    H219382   2.439   2.503   0.688
 6481TIP3   OH219383   7.423   2.272   1.317
 6481TIP3    H119384   7.337   2.315   1.313
 6481TIP3    H219385   7.409   2.187   1.275
 6482TIP3   OH219386   4.618   5.965   6.330
 6482TIP3    H119387   4.693   5.985   6.273
 6482TIP3    H219388   4.542   5.982   6.275
 6483TIP3   OH219389   7.292   4.665   2.793
 6483TIP3    H119390   7.353   4.717   2.845
 6483TIP3    H219391   7.206   4.703   2.811
 6484TIP3   OH219392   2.571   7.365   4.671
 6484TIP3    H119393   2.558   7.417   4.592
 6484TIP3    H219394   2.664   7.375   4.692
 6485TIP3   OH219395   4.893   6.605   0.945
 6485TIP3    H119396   4.824   6.557   0.991
 6485TIP3    H219397   4.939   6.653   1.014
 6486TIP3   OH219398   4.726   3.500   6.515
 6486TIP3    H119399   4.698   3.549   6.438
 6486TIP3    H219400   4.772   3.424   6.480
 6487TIP3   OH219401   3.501   6.500   0.106
 6487TIP3    H119402   3.427   6.479   0.049
 6487TIP3    H219403   3.462   6.538   0.184
 6488TIP3   OH219404   0.351   4.467   0.023
 6488TIP3    H119405   0.441   4.438   0.011
 6488TIP3    H219406   0.344   4.546  -0.031
 6489TIP3   OH219407   4.362   2.048   1.938
 6489TIP3    H119408   4.330   2.057   1.848
 6489TIP3    H219409   4.396   1.959   1.943
 6490TIP3   OH219410   5.949   0.042   4.527
 6490TIP3    H119411   6.040   0.013   4.530
 6490TIP3    H219412   5.898  -0.039   4.540
 6491TIP3   OH219413   5.646   0.483   1.017
 6491TIP3    H119414   5.739   0.490   0.994
 6491TIP3    H219415   5.643   0.501   1.111
 6492TIP3   OH219416   1.395   3.520   0.970
 6492TIP3    H119417   1.396   3.435   0.926
 6492TIP3    H219418   1.477   3.522   1.019
 6493TIP3   OH219419   8.268   4.810   1.629
 6493TIP3    H119420   8.336   4.836   1.567
 6493TIP3    H219421   8.254   4.717   1.611
 6494TIP3   OH219422   6.328   6.658   6.540
 6494TIP3    H119423   6.242   6.689   6.512
 6494TIP3    H219424   6.355   6.597   6.471
 6495TIP3   OH219425   0.104   0.770   0.777
 6495TIP3    H119426   0.186   0.812   0.750
 6495TIP3    H219427   0.121   0.677   0.768
 6496TIP3   OH219428   4.522   5.742   3.087
 6496TIP3    H119429   4.581   5.784   3.024
 6496TIP3    H219430   4.464   5.688   3.032
 6497TIP3   OH219431   0.906   7.714   6.801
 6497TIP3    H119432   0.912   7.793   6.854
 6497TIP3    H219433   0.949   7.737   6.718
 6498TIP3   OH219434   4.151   4.705   5.684
 6498TIP3    H119435   4.209   4.745   5.749
 6498TIP3    H219436   4.078   4.766   5.676
 6499TIP3   OH219437   1.849   6.606   0.511
 6499TIP3    H119438   1.858   6.666   0.437
 6499TIP3    H219439   1.755   6.601   0.527
 6500TIP3   OH219440   1.266   4.685   5.900
 6500TIP3    H119441   1.357   4.678   5.930
 6500TIP3    H219442   1.239   4.773   5.925
 6501TIP3   OH219443   6.170   5.976   2.225
 6501TIP3    H119444   6.209   6.033   2.291
 6501TIP3    H219445   6.231   5.903   2.216
 6502TIP3   OH219446   2.434   7.251   5.602
 6502TIP3    H119447   2.452   7.318   5.536
 6502TIP3    H219448   2.516   7.240   5.649
 6503TIP3   OH219449   0.465   2.680   4.216
 6503TIP3    H119450   0.405   2.626   4.165
 6503TIP3    H219451   0.479   2.632   4.297
 6504TIP3   OH219452   6.296   5.402   2.744
 6504TIP3    H119453   6.316   5.496   2.754
 6504TIP3    H219454   6.381   5.359   2.752
 6505TIP3   OH219455   0.340   6.328   4.543
 6505TIP3    H119456   0.301   6.247   4.509
 6505TIP3    H219457   0.419   6.299   4.588
 6506TIP3   OH219458   3.764   3.267   5.579
 6506TIP3    H119459   3.723   3.230   5.501
 6506TIP3    H219460   3.707   3.340   5.605
 6507TIP3   OH219461   4.977   3.478   4.524
 6507TIP3    H119462   4.978   3.473   4.619
 6507TIP3    H219463   5.000   3.568   4.504
 6508TIP3   OH219464   6.637   0.757   2.170
 6508TIP3    H119465   6.545   0.742   2.189
 6508TIP3    H219466   6.676   0.669   2.169
 6509TIP3   OH219467   8.162   0.089   6.312
 6509TIP3    H119468   8.226   0.117   6.378
 6509TIP3    H219469   8.215   0.056   6.240
 6510TIP3   OH219470   5.809   5.599   3.145
 6510TIP3    H119471   5.836   5.663   3.211
 6510TIP3    H219472   5.847   5.517   3.175
 6511TIP3   OH219473   4.208   4.311   0.455
 6511TIP3    H119474   4.292   4.300   0.411
 6511TIP3    H219475   4.222   4.275   0.543
 6512TIP3   OH219476   0.282   3.173   2.807
 6512TIP3    H119477   0.372   3.145   2.820
 6512TIP3    H219478   0.276   3.257   2.853
 6513TIP3   OH219479   3.533   2.987   4.804
 6513TIP3    H119480   3.555   3.065   4.854
 6513TIP3    H219481   3.614   2.937   4.799
 6514TIP3   OH219482   6.619   1.139   3.584
 6514TIP3    H119483   6.698   1.085   3.579
 6514TIP3    H219484   6.650   1.229   3.569
 6515TIP3   OH219485   8.326   0.363   4.584
 6515TIP3    H119486   8.267   0.315   4.526
 6515TIP3    H219487   8.350   0.441   4.533
 6516TIP3   OH219488   7.983   3.194   2.061
 6516TIP3    H119489   8.015   3.262   2.002
 6516TIP3    H219490   7.938   3.243   2.130
 6517TIP3   OH219491   2.069   6.349   0.060
 6517TIP3    H119492   2.049   6.258   0.084
 6517TIP3    H219493   2.001   6.372  -0.003
 6518TIP3   OH219494   6.505   2.573   2.643
 6518TIP3    H119495   6.492   2.587   2.549
 6518TIP3    H219496   6.552   2.651   2.673
 6519TIP3   OH219497   2.242   4.002   5.582
 6519TIP3    H119498   2.332   4.033   5.576
 6519TIP3    H219499   2.191   4.067   5.533
 6520TIP3   OH219500   4.207   5.475   1.887
 6520TIP3    H119501   4.242   5.496   1.801
 6520TIP3    H219502   4.116   5.505   1.883
 6521TIP3   OH219503   6.459   4.756   6.606
 6521TIP3    H119504   6.533   4.815   6.588
 6521TIP3    H219505   6.403   4.806   6.665
 6522TIP3   OH219506   6.790   0.773   4.937
 6522TIP3    H119507   6.782   0.682   4.966
 6522TIP3    H219508   6.883   0.792   4.942
 6523TIP3   OH219509   8.095   5.808   2.273
 6523TIP3    H119510   8.183   5.833   2.303
 6523TIP3    H219511   8.103   5.803   2.178
 6524TIP3   OH219512   0.627   6.488   0.673
 6524TIP3    H119513   0.650   6.575   0.703
 6524TIP3    H219514   0.631   6.493   0.578
 6525TIP3   OH219515   3.786   1.371   6.726
 6525TIP3    H119516   3.750   1.327   6.649
 6525TIP3    H219517   3.825   1.301   6.778
 6526TIP3   OH219518   2.092   4.069   2.396
 6526TIP3    H119519   2.002   4.056   2.364
 6526TIP3    H219520   2.147   4.039   2.323
 6527TIP3   OH219521   3.691   3.995   1.391
 6527TIP3    H119522   3.613   4.004   1.445
 6527TIP3    H219523   3.679   3.913   1.344
 6528TIP3   OH219524   4.950   2.700   6.222
 6528TIP3    H119525   4.967   2.696   6.316
 6528TIP3    H219526   5.037   2.704   6.182
 6529TIP3   OH219527   5.182   4.021   6.503
 6529TIP3    H119528   5.195   4.111   6.533
 6529TIP3    H219529   5.089   4.015   6.484
 6530TIP3   OH219530   6.761   6.689   4.992
 6530TIP3    H119531   6.696   6.714   4.927
 6530TIP3    H219532   6.789   6.772   5.031
 6531TIP3   OH219533   0.241   7.030   2.327
 6531TIP3    H119534   0.269   7.104   2.382
 6531TIP3    H219535   0.175   7.067   2.269
 6532TIP3   OH219536   3.790   7.734   2.900
 6532TIP3    H119537   3.770   7.651   2.944
 6532TIP3    H219538   3.748   7.800   2.954
 6533TIP3   OH219539   7.060   0.355   2.126
 6533TIP3    H119540   7.126   0.345   2.057
 6533TIP3    H219541   7.081   0.286   2.189
 6534TIP3   OH219542   5.504   0.746   6.487
 6534TIP3    H119543   5.501   0.734   6.392
 6534TIP3    H219544   5.484   0.659   6.523
 6535TIP3   OH219545   5.050   0.662   3.106
 6535TIP3    H119546   4.965   0.701   3.126
 6535TIP3    H219547   5.091   0.723   3.045
 6536TIP3   OH219548   3.395   0.254   2.159
 6536TIP3    H119549   3.393   0.166   2.197
 6536TIP3    H219550   3.488   0.272   2.144
 6537TIP3   OH219551   0.623   5.498   6.836
 6537TIP3    H119552   0.659   5.420   6.794
 6537TIP3    H219553   0.529   5.481   6.845
 6538TIP3   OH219554   7.586   0.560   4.610
 6538TIP3    H119555   7.522   0.620   4.573
 6538TIP3    H219556   7.655   0.554   4.545
 6539TIP3   OH219557   4.527   7.448   2.309
 6539TIP3    H119558   4.523   7.363   2.265
 6539TIP3    H219559   4.617   7.478   2.293
 6540TIP3   OH219560   4.371   5.308   5.979
 6540TIP3    H119561   4.311   5.382   5.994
 6540TIP3    H219562   4.313   5.233   5.968
 6541TIP3   OH219563   3.664   1.709   6.502
 6541TIP3    H119564   3.733   1.653   6.466
 6541TIP3    H219565   3.588   1.651   6.512
 6542TIP3   OH219566   6.713   7.718   2.202
 6542TIP3    H119567   6.719   7.657   2.276
 6542TIP3    H219568   6.726   7.664   2.125
 6543TIP3   OH219569   1.629   7.165   1.853
 6543TIP3    H119570   1.690   7.226   1.810
 6543TIP3    H219571   1.604   7.104   1.785
 6544TIP3   OH219572   6.490   3.416   4.832
 6544TIP3    H119573   6.572   3.409   4.881
 6544TIP3    H219574   6.436   3.477   4.884
 6545TIP3   OH219575   3.970   1.741   6.755
 6545TIP3    H119576   4.033   1.706   6.818
 6545TIP3    H219577   3.997   1.832   6.742
 6546TIP3   OH219578   0.488   4.513   5.615
 6546TIP3    H119579   0.402   4.545   5.641
 6546TIP3    H219580   0.548   4.584   5.637
 6547TIP3   OH219581   2.316   1.319   1.368
 6547TIP3    H119582   2.339   1.382   1.436
 6547TIP3    H219583   2.225   1.296   1.386
 6548TIP3   OH219584   0.472   7.743   3.427
 6548TIP3    H119585   0.441   7.833   3.437
 6548TIP3    H219586   0.558   7.742   3.469
 6549TIP3   OH219587   4.820   3.725   2.681
 6549TIP3    H119588   4.834   3.794   2.746
 6549TIP3    H219589   4.908   3.697   2.657
 6550TIP3   OH219590   5.585   4.074   2.987
 6550TIP3    H119591   5.517   4.066   3.054
 6550TIP3    H219592   5.589   3.988   2.946
 6551TIP3   OH219593   3.072   6.044   3.216
 6551TIP3    H119594   3.141   5.982   3.192
 6551TIP3    H219595   3.000   6.023   3.158
 6552TIP3   OH219596   4.991   5.411   2.498
 6552TIP3    H119597   4.938   5.331   2.504
 6552TIP3    H219598   5.081   5.379   2.495
 6553TIP3   OH219599   1.001   7.556   6.226
 6553TIP3    H119600   0.993   7.539   6.320
 6553TIP3    H219601   1.090   7.528   6.205
 6554TIP3   OH219602   2.557   7.695   0.659
 6554TIP3    H119603   2.597   7.766   0.711
 6554TIP3    H219604   2.631   7.653   0.615
 6555TIP3   OH219605   5.496   5.993   5.685
 6555TIP3    H119606   5.488   5.908   5.727
 6555TIP3    H219607   5.533   5.974   5.599
 6556TIP3   OH219608   7.048   7.205   1.702
 6556TIP3    H119609   6.978   7.268   1.721
 6556TIP3    H219610   7.006   7.120   1.709
 6557TIP3   OH219611   5.671   6.582   5.122
 6557TIP3    H119612   5.659   6.658   5.178
 6557TIP3    H219613   5.582   6.550   5.105
 6558TIP3   OH219614   7.477   0.175   4.226
 6558TIP3    H119615   7.435   0.228   4.293
 6558TIP3    H219616   7.405   0.148   4.169
 6559TIP3   OH219617   0.746   0.345   2.245
 6559TIP3    H119618   0.742   0.393   2.162
 6559TIP3    H219619   0.836   0.315   2.252
 6560TIP3   OH219620   5.987   7.158   4.945
 6560TIP3    H119621   5.967   7.252   4.942
 6560TIP3    H219622   6.072   7.150   4.902
 6561TIP3   OH219623   1.417   6.885   1.333
 6561TIP3    H119624   1.463   6.819   1.386
 6561TIP3    H219625   1.352   6.835   1.284
 6562TIP3   OH219626   6.786   7.812   1.062
 6562TIP3    H119627   6.854   7.878   1.079
 6562TIP3    H219628   6.705   7.854   1.089
 6563TIP3   OH219629   1.160   5.268   2.409
 6563TIP3    H119630   1.160   5.315   2.493
 6563TIP3    H219631   1.226   5.200   2.419
 6564TIP3   OH219632   3.475   0.247   3.900
 6564TIP3    H119633   3.387   0.210   3.911
 6564TIP3    H219634   3.470   0.297   3.819
 6565TIP3   OH219635   2.884   0.496   6.300
 6565TIP3    H119636   2.843   0.582   6.307
 6565TIP3    H219637   2.891   0.481   6.205
 6566TIP3   OH219638   2.127   5.464   2.240
 6566TIP3    H119639   2.096   5.546   2.278
 6566TIP3    H219640   2.215   5.453   2.276
 6567TIP3   OH219641   3.243   3.552   3.062
 6567TIP3    H119642   3.259   3.569   3.155
 6567TIP3    H219643   3.147   3.547   3.054
 6568TIP3   OH219644   1.275   5.649   1.735
 6568TIP3    H119645   1.283   5.590   1.810
 6568TIP3    H219646   1.184   5.642   1.708
 6569TIP3   OH219647   0.856   6.836   4.566
 6569TIP3    H119648   0.800   6.874   4.634
 6569TIP3    H219649   0.845   6.895   4.491
 6570TIP3   OH219650   7.309   7.718   5.662
 6570TIP3    H119651   7.237   7.657   5.676
 6570TIP3    H219652   7.387   7.671   5.692
 6571TIP3   OH219653   2.077   4.259   2.977
 6571TIP3    H119654   2.011   4.190   2.965
 6571TIP3    H219655   2.160   4.213   2.987
 6572TIP3   OH219656   5.682   1.541   0.515
 6572TIP3    H119657   5.664   1.535   0.609
 6572TIP3    H219658   5.720   1.456   0.493
 6573TIP3   OH219659   3.646   3.711   1.539
 6573TIP3    H119660   3.733   3.712   1.499
 6573TIP3    H219661   3.586   3.727   1.466
 6574TIP3   OH219662   3.399   3.695   1.392
 6574TIP3    H119663   3.347   3.620   1.364
 6574TIP3    H219664   3.382   3.702   1.486
 6575TIP3   OH219665   6.288   0.645   1.593
 6575TIP3    H119666   6.288   0.645   1.689
 6575TIP3    H219667   6.367   0.598   1.569
 6576TIP3   OH219668   3.644   3.999   2.194
 6576TIP3    H119669   3.610   3.992   2.283
 6576TIP3    H219670   3.640   3.910   2.159
 6577TIP3   OH219671   7.965   7.053   0.434
 6577TIP3    H119672   8.046   7.087   0.396
 6577TIP3    H219673   7.914   7.023   0.359
 6578TIP3   OH219674   4.899   4.046   6.543
 6578TIP3    H119675   4.886   4.089   6.627
 6578TIP3    H219676   4.847   4.099   6.481
 6579TIP3   OH219677   5.929   2.858   5.394
 6579TIP3    H119678   6.010   2.843   5.345
 6579TIP3    H219679   5.954   2.846   5.485
 6580TIP3   OH219680   0.723   6.857   1.959
 6580TIP3    H119681   0.654   6.802   1.921
 6580TIP3    H219682   0.680   6.900   2.034
 6581TIP3   OH219683   4.281   1.356   2.859
 6581TIP3    H119684   4.306   1.326   2.771
 6581TIP3    H219685   4.242   1.278   2.900
 6582TIP3   OH219686   2.503   5.316   3.864
 6582TIP3    H119687   2.471   5.371   3.792
 6582TIP3    H219688   2.426   5.265   3.890
 6583TIP3   OH219689   2.086   7.467   4.389
 6583TIP3    H119690   2.146   7.540   4.377
 6583TIP3    H219691   2.107   7.432   4.476
 6584TIP3   OH219692   5.224   3.895   2.005
 6584TIP3    H119693   5.207   3.959   1.937
 6584TIP3    H219694   5.160   3.914   2.073
 6585TIP3   OH219695   4.424   6.199   3.276
 6585TIP3    H119696   4.353   6.234   3.223
 6585TIP3    H219697   4.483   6.158   3.213
 6586TIP3   OH219698   7.653   6.668   5.208
 6586TIP3    H119699   7.589   6.664   5.279
 6586TIP3    H219700   7.689   6.757   5.213
 6587TIP3   OH219701   6.750   2.772   4.022
 6587TIP3    H119702   6.836   2.739   4.047
 6587TIP3    H219703   6.759   2.867   4.027
 6588TIP3   OH219704   5.192   1.258   4.264
 6588TIP3    H119705   5.280   1.285   4.289
 6588TIP3    H219706   5.156   1.335   4.220
 6589TIP3   OH219707   2.789   2.626   3.139
 6589TIP3    H119708   2.757   2.543   3.104
 6589TIP3    H219709   2.731   2.692   3.101
 6590TIP3   OH219710   6.482   4.940   1.577
 6590TIP3    H119711   6.391   4.909   1.573
 6590TIP3    H219712   6.506   4.929   1.669
 6591TIP3   OH219713   5.069   5.019   1.288
 6591TIP3    H119714   5.091   5.004   1.196
 6591TIP3    H219715   4.991   4.966   1.303
 6592TIP3   OH219716   5.979   4.290   5.834
 6592TIP3    H119717   5.899   4.276   5.785
 6592TIP3    H219718   5.980   4.220   5.900
 6593TIP3   OH219719   5.284   3.392   0.187
 6593TIP3    H119720   5.268   3.299   0.176
 6593TIP3    H219721   5.209   3.424   0.238
 6594TIP3   OH219722   4.860   7.432   6.615
 6594TIP3    H119723   4.939   7.484   6.596
 6594TIP3    H219724   4.894   7.345   6.638
 6595TIP3   OH219725   6.535   2.773   6.155
 6595TIP3    H119726   6.617   2.766   6.203
 6595TIP3    H219727   6.533   2.863   6.123
 6596TIP3   OH219728   0.755   6.146   3.093
 6596TIP3    H119729   0.689   6.128   3.026
 6596TIP3    H219730   0.719   6.218   3.145
 6597TIP3   OH219731   5.165   2.814   4.145
 6597TIP3    H119732   5.137   2.832   4.235
 6597TIP3    H219733   5.084   2.797   4.098
 6598TIP3   OH219734   0.486   6.850   6.487
 6598TIP3    H119735   0.425   6.879   6.555
 6598TIP3    H219736   0.437   6.859   6.406
 6599TIP3   OH219737   4.868   5.990   1.531
 6599TIP3    H119738   4.862   6.016   1.439
 6599TIP3    H219739   4.960   6.002   1.553
 6600TIP3   OH219740   3.011   7.063   4.296
 6600TIP3    H119741   3.067   7.133   4.260
 6600TIP3    H219742   2.923   7.100   4.295
 6601TIP3   OH219743   4.267   5.116   0.544
 6601TIP3    H119744   4.182   5.130   0.503
 6601TIP3    H219745   4.279   5.191   0.602
 6602TIP3   OH219746   0.881   0.333   0.422
 6602TIP3    H119747   0.936   0.258   0.442
 6602TIP3    H219748   0.858   0.322   0.329
 6603TIP3   OH219749   1.583   0.381   4.584
 6603TIP3    H119750   1.676   0.369   4.599
 6603TIP3    H219751   1.578   0.430   4.502
 6604TIP3   OH219752   2.819   5.593   6.080
 6604TIP3    H119753   2.757   5.644   6.133
 6604TIP3    H219754   2.771   5.573   6.000
 6605TIP3   OH219755   4.919   2.701   0.746
 6605TIP3    H119756   5.002   2.701   0.792
 6605TIP3    H219757   4.854   2.721   0.814
 6606TIP3   OH219758   7.609   0.963   0.073
 6606TIP3    H119759   7.553   0.888   0.095
 6606TIP3    H219760   7.645   0.991   0.157
 6607TIP3   OH219761   4.358   3.791   6.831
 6607TIP3    H119762   4.266   3.786   6.807
 6607TIP3    H219763   4.375   3.710   6.880
 6608TIP3   OH219764   8.359   1.687   4.482
 6608TIP3    H119765   8.454   1.679   4.489
 6608TIP3    H219766   8.326   1.643   4.561
 6609TIP3   OH219767   2.345   4.318   4.021
 6609TIP3    H119768   2.396   4.337   3.942
 6609TIP3    H219769   2.315   4.227   4.009
 6610TIP3   OH219770   5.866   1.659   0.876
 6610TIP3    H119771   5.805   1.585   0.877
 6610TIP3    H219772   5.885   1.676   0.968
 6611TIP3   OH219773   3.852   0.982   3.517
 6611TIP3    H119774   3.933   1.019   3.483
 6611TIP3    H219775   3.861   0.887   3.504
 6612TIP3   OH219776   4.686   5.395   2.121
 6612TIP3    H119777   4.780   5.412   2.119
 6612TIP3    H219778   4.677   5.305   2.091
 6613TIP3   OH219779   6.025   1.968   4.774
 6613TIP3    H119780   5.938   1.931   4.757
 6613TIP3    H219781   6.086   1.899   4.747
 6614TIP3   OH219782   3.939   3.881   2.565
 6614TIP3    H119783   3.912   3.840   2.646
 6614TIP3    H219784   4.022   3.838   2.542
 6615TIP3   OH219785   5.031   0.788   0.479
 6615TIP3    H119786   5.084   0.862   0.448
 6615TIP3    H219787   5.092   0.734   0.529
 6616TIP3   OH219788   2.344   0.970   4.877
 6616TIP3    H119789   2.258   1.012   4.870
 6616TIP3    H219790   2.325   0.878   4.897
 6617TIP3   OH219791   5.299   6.718   4.544
 6617TIP3    H119792   5.383   6.764   4.541
 6617TIP3    H219793   5.315   6.636   4.497
 6618TIP3   OH219794   0.452   6.167   5.622
 6618TIP3    H119795   0.530   6.127   5.662
 6618TIP3    H219796   0.459   6.145   5.529
 6619TIP3   OH219797   7.386   4.246   0.762
 6619TIP3    H119798   7.439   4.272   0.687
 6619TIP3    H219799   7.445   4.255   0.837
 6620TIP3   OH219800   6.950   0.785   2.119
 6620TIP3    H119801   6.863   0.807   2.154
 6620TIP3    H219802   6.964   0.694   2.145
 6621TIP3   OH219803   5.270   6.910   6.021
 6621TIP3    H119804   5.215   6.836   5.998
 6621TIP3    H219805   5.358   6.885   5.994
 6622TIP3   OH219806   2.915   3.437   0.134
 6622TIP3    H119807   2.999   3.444   0.180
 6622TIP3    H219808   2.934   3.469   0.045
 6623TIP3   OH219809   0.117   2.150   6.296
 6623TIP3    H119810   0.197   2.100   6.316
 6623TIP3    H219811   0.105   2.207   6.372
 6624TIP3   OH219812   1.534   0.441   5.419
 6624TIP3    H119813   1.515   0.524   5.464
 6624TIP3    H219814   1.500   0.453   5.331
 6625TIP3   OH219815   1.783   1.654   5.004
 6625TIP3    H119816   1.763   1.735   5.051
 6625TIP3    H219817   1.870   1.628   5.036
 6626TIP3   OH219818   7.634   7.428   0.414
 6626TIP3    H119819   7.721   7.419   0.453
 6626TIP3    H219820   7.650   7.463   0.326
 6627TIP3   OH219821   2.427   4.948   5.338
 6627TIP3    H119822   2.372   4.950   5.416
 6627TIP3    H219823   2.451   5.039   5.322
 6628TIP3   OH219824   0.711   0.425   2.695
 6628TIP3    H119825   0.801   0.406   2.668
 6628TIP3    H219826   0.657   0.378   2.632
 6629TIP3   OH219827   6.083   2.104   5.651
 6629TIP3    H119828   6.043   2.164   5.714
 6629TIP3    H219829   6.086   2.153   5.569
 6630TIP3   OH219830   3.607   2.148   6.556
 6630TIP3    H119831   3.650   2.168   6.473
 6630TIP3    H219832   3.653   2.071   6.589
 6631TIP3   OH219833   0.301   5.542   2.002
 6631TIP3    H119834   0.393   5.553   2.026
 6631TIP3    H219835   0.277   5.458   2.041
 6632TIP3   OH219836   6.284   5.095   5.441
 6632TIP3    H119837   6.305   5.007   5.471
 6632TIP3    H219838   6.369   5.138   5.431
 6633TIP3   OH219839   7.859   3.355   5.554
 6633TIP3    H119840   7.923   3.346   5.623
 6633TIP3    H219841   7.816   3.439   5.572
 6634TIP3   OH219842   5.208   1.690   1.614
 6634TIP3    H119843   5.177   1.600   1.628
 6634TIP3    H219844   5.128   1.742   1.610
 6635TIP3   OH219845   1.196   5.611   4.575
 6635TIP3    H119846   1.156   5.698   4.571
 6635TIP3    H219847   1.140   5.562   4.634
 6636TIP3   OH219848   8.401   7.026   6.643
 6636TIP3    H119849   8.412   7.064   6.730
 6636TIP3    H219850   8.323   6.970   6.652
 6637TIP3   OH219851   0.792   2.712   5.461
 6637TIP3    H119852   0.745   2.645   5.412
 6637TIP3    H219853   0.834   2.665   5.533
 6638TIP3   OH219854   1.121   2.161   3.362
 6638TIP3    H119855   1.092   2.149   3.453
 6638TIP3    H219856   1.099   2.080   3.318
 6639TIP3   OH219857   5.363   1.997   0.311
 6639TIP3    H119858   5.329   2.014   0.398
 6639TIP3    H219859   5.302   2.041   0.251
 6640TIP3   OH219860   7.119   0.872   4.440
 6640TIP3    H119861   7.173   0.795   4.424
 6640TIP3    H219862   7.109   0.877   4.535
 6641TIP3   OH219863   1.834   2.289   0.260
 6641TIP3    H119864   1.811   2.221   0.324
 6641TIP3    H219865   1.755   2.301   0.207
 6642TIP3   OH219866   0.641   4.597   5.306
 6642TIP3    H119867   0.616   4.598   5.213
 6642TIP3    H219868   0.680   4.511   5.319
 6643TIP3   OH219869   7.064   7.298   6.734
 6643TIP3    H119870   7.022   7.226   6.782
 6643TIP3    H219871   6.991   7.348   6.697
 6644TIP3   OH219872   7.390   6.808   2.983
 6644TIP3    H119873   7.430   6.749   2.919
 6644TIP3    H219874   7.344   6.873   2.930
 6645TIP3   OH219875   1.641   5.351   3.949
 6645TIP3    H119876   1.567   5.403   3.917
 6645TIP3    H219877   1.714   5.413   3.952
 6646TIP3   OH219878   4.633   1.741   4.747
 6646TIP3    H119879   4.672   1.758   4.833
 6646TIP3    H219880   4.638   1.824   4.701
 6647TIP3   OH219881   6.187   3.703   6.429
 6647TIP3    H119882   6.275   3.695   6.391
 6647TIP3    H219883   6.131   3.725   6.355
 6648TIP3   OH219884   2.769   5.821   1.322
 6648TIP3    H119885   2.848   5.768   1.329
 6648TIP3    H219886   2.766   5.847   1.230
 6649TIP3   OH219887   6.259   7.145   5.178
 6649TIP3    H119888   6.352   7.146   5.202
 6649TIP3    H219889   6.245   7.227   5.131
 6650TIP3   OH219890   2.305   3.574   0.611
 6650TIP3    H119891   2.384   3.544   0.566
 6650TIP3    H219892   2.250   3.610   0.543
 6651TIP3   OH219893   6.109   6.081   2.690
 6651TIP3    H119894   6.109   6.067   2.785
 6651TIP3    H219895   6.159   6.161   2.678
 6652TIP3   OH219896   1.903   3.767   1.425
 6652TIP3    H119897   1.848   3.692   1.450
 6652TIP3    H219898   1.983   3.754   1.476
 6653TIP3   OH219899   4.173   5.000   0.822
 6653TIP3    H119900   4.253   4.956   0.795
 6653TIP3    H219901   4.192   5.032   0.910
 6654TIP3   OH219902   0.247   6.469   3.320
 6654TIP3    H119903   0.298   6.425   3.252
 6654TIP3    H219904   0.297   6.548   3.341
 6655TIP3   OH219905   1.797   3.870   0.139
 6655TIP3    H119906   1.880   3.888   0.182
 6655TIP3    H219907   1.758   3.956   0.124
 6656TIP3   OH219908   6.361   0.725   5.134
 6656TIP3    H119909   6.387   0.725   5.042
 6656TIP3    H219910   6.434   0.765   5.180
 6657TIP3   OH219911   4.152   1.395   2.477
 6657TIP3    H119912   4.083   1.459   2.489
 6657TIP3    H219913   4.141   1.365   2.387
 6658TIP3   OH219914   8.350   1.125   1.256
 6658TIP3    H119915   8.363   1.220   1.266
 6658TIP3    H219916   8.287   1.117   1.185
 6659TIP3   OH219917   6.276   0.993   0.363
 6659TIP3    H119918   6.224   0.924   0.321
 6659TIP3    H219919   6.278   0.969   0.455
 6660TIP3   OH219920   2.904   6.980   2.621
 6660TIP3    H119921   2.860   7.046   2.566
 6660TIP3    H219922   2.969   7.030   2.671
 6661TIP3   OH219923   4.554   5.599   6.160
 6661TIP3    H119924   4.604   5.678   6.182
 6661TIP3    H219925   4.529   5.563   6.245
 6662TIP3   OH219926   5.452   1.366   6.029
 6662TIP3    H119927   5.506   1.324   5.962
 6662TIP3    H219928   5.452   1.305   6.103
 6663TIP3   OH219929   8.180   3.551   1.680
 6663TIP3    H119930   8.236   3.606   1.625
 6663TIP3    H219931   8.238   3.481   1.711
 6664TIP3   OH219932   5.812   2.266   3.176
 6664TIP3    H119933   5.766   2.349   3.185
 6664TIP3    H219934   5.773   2.210   3.243
 6665TIP3   OH219935   2.255   2.941   4.365
 6665TIP3    H119936   2.284   3.032   4.371
 6665TIP3    H219937   2.217   2.934   4.277
 6666TIP3   OH219938   5.305   7.521   4.916
 6666TIP3    H119939   5.372   7.575   4.959
 6666TIP3    H219940   5.222   7.565   4.938
 6667TIP3   OH219941   1.015   6.607   4.056
 6667TIP3    H119942   0.948   6.570   3.998
 6667TIP3    H219943   0.992   6.573   4.143
 6668TIP3   OH219944   8.194   5.913   4.870
 6668TIP3    H119945   8.117   5.861   4.894
 6668TIP3    H219946   8.208   5.892   4.777
 6669TIP3   OH219947   1.729   4.975   2.160
 6669TIP3    H119948   1.779   5.001   2.237
 6669TIP3    H219949   1.739   5.049   2.099
 6670TIP3   OH219950   5.406   6.143   1.127
 6670TIP3    H119951   5.462   6.093   1.068
 6670TIP3    H219952   5.459   6.155   1.206
 6671TIP3   OH219953   2.114   6.101   5.920
 6671TIP3    H119954   2.072   6.174   5.965
 6671TIP3    H219955   2.062   6.088   5.841
 6672TIP3   OH219956   0.067   4.606   0.068
 6672TIP3    H119957   0.050   4.700   0.066
 6672TIP3    H219958   0.140   4.593   0.007
 6673TIP3   OH219959   5.472   6.892   5.385
 6673TIP3    H119960   5.462   6.970   5.331
 6673TIP3    H219961   5.403   6.833   5.355
 6674TIP3   OH219962   1.135   1.807   4.290
 6674TIP3    H119963   1.106   1.842   4.374
 6674TIP3    H219964   1.115   1.714   4.295
 6675TIP3   OH219965   7.556   0.573   2.733
 6675TIP3    H119966   7.603   0.623   2.800
 6675TIP3    H219967   7.467   0.565   2.768
 6676TIP3   OH219968   1.866   0.016   2.699
 6676TIP3    H119969   1.830  -0.007   2.613
 6676TIP3    H219970   1.960  -0.003   2.692
 6677TIP3   OH219971   5.053   5.453   0.472
 6677TIP3    H119972   4.976   5.435   0.525
 6677TIP3    H219973   5.122   5.473   0.535
 6678TIP3   OH219974   1.540   5.502   1.509
 6678TIP3    H119975   1.548   5.423   1.562
 6678TIP3    H219976   1.595   5.566   1.554
 6679TIP3   OH219977   6.822   7.174   4.288
 6679TIP3    H119978   6.762   7.242   4.256
 6679TIP3    H219979   6.765   7.109   4.329
 6680TIP3   OH219980   0.489   2.470   2.416
 6680TIP3    H119981   0.422   2.411   2.380
 6680TIP3    H219982   0.538   2.415   2.478
 6681TIP3   OH219983   2.624   2.523   3.761
 6681TIP3    H119984   2.698   2.573   3.727
 6681TIP3    H219985   2.597   2.570   3.839
 6682TIP3   OH219986   4.998   5.189   0.972
 6682TIP3    H119987   4.903   5.207   0.974
 6682TIP3    H219988   5.037   5.271   1.003
 6683TIP3   OH219989   0.229   6.995   0.033
 6683TIP3    H119990   0.317   6.969   0.058
 6683TIP3    H219991   0.172   6.954   0.098
 6684TIP3   OH219992   7.603   4.912   6.245
 6684TIP3    H119993   7.578   4.820   6.235
 6684TIP3    H219994   7.520   4.958   6.259
 6685TIP3   OH219995   7.180   3.730   3.905
 6685TIP3    H119996   7.153   3.777   3.983
 6685TIP3    H219997   7.252   3.673   3.934
 6686TIP3   OH219998   2.413   1.438   1.133
 6686TIP3    H119999   2.352   1.468   1.066
 6686TIP3    H220000   2.357   1.408   1.204
 6687TIP3   OH220001   0.879   1.475   1.283
 6687TIP3    H120002   0.940   1.414   1.325
 6687TIP3    H220003   0.920   1.496   1.199
 6688TIP3   OH220004   5.737   1.440   1.871
 6688TIP3    H120005   5.825   1.472   1.853
 6688TIP3    H220006   5.730   1.437   1.966
 6689TIP3   OH220007   7.555   7.828   2.981
 6689TIP3    H120008   7.628   7.873   3.024
 6689TIP3    H220009   7.584   7.818   2.890
 6690TIP3   OH220010   3.460   7.502   2.006
 6690TIP3    H120011   3.387   7.563   1.993
 6690TIP3    H220012   3.428   7.441   2.072
 6691TIP3   OH220013   5.944   6.388   6.196
 6691TIP3    H120014   5.916   6.478   6.214
 6691TIP3    H220015   5.877   6.334   6.238
 6692TIP3   OH220016   3.226   6.080   4.017
 6692TIP3    H120017   3.139   6.107   3.990
 6692TIP3    H220018   3.259   6.028   3.944
 6693TIP3   OH220019   3.203   7.875   6.207
 6693TIP3    H120020   3.204   7.970   6.196
 6693TIP3    H220021   3.296   7.852   6.217
 6694TIP3   OH220022   3.394   0.473   0.642
 6694TIP3    H120023   3.309   0.438   0.668
 6694TIP3    H220024   3.428   0.514   0.722
 6695TIP3   OH220025   3.880   2.420   4.228
 6695TIP3    H120026   3.792   2.390   4.253
 6695TIP3    H220027   3.939   2.354   4.264
 6696TIP3   OH220028   4.202   0.653   3.944
 6696TIP3    H120029   4.225   0.746   3.951
 6696TIP3    H220030   4.165   0.631   4.029
 6697TIP3   OH220031   5.040   6.217   2.469
 6697TIP3    H120032   5.128   6.255   2.464
 6697TIP3    H220033   5.042   6.144   2.407
 6698TIP3   OH220034   2.145   0.220   0.421
 6698TIP3    H120035   2.143   0.265   0.336
 6698TIP3    H220036   2.205   0.147   0.407
 6699TIP3   OH220037   8.099   1.511   2.503
 6699TIP3    H120038   8.067   1.535   2.590
 6699TIP3    H220039   8.075   1.419   2.493
 6700TIP3   OH220040   1.765   1.241   4.269
 6700TIP3    H120041   1.670   1.247   4.280
 6700TIP3    H220042   1.799   1.231   4.358
 6701TIP3   OH220043   2.308   5.731   4.811
 6701TIP3    H120044   2.215   5.716   4.829
 6701TIP3    H220045   2.340   5.646   4.779
 6702TIP3   OH220046   4.680   1.363   2.367
 6702TIP3    H120047   4.730   1.440   2.391
 6702TIP3    H220048   4.623   1.393   2.296
 6703TIP3   OH220049   3.244   4.490   6.758
 6703TIP3    H120050   3.315   4.454   6.812
 6703TIP3    H220051   3.279   4.487   6.669
 6704TIP3   OH220052   6.939   6.189   4.069
 6704TIP3    H120053   7.008   6.165   4.130
 6704TIP3    H220054   6.946   6.126   3.998
 6705TIP3   OH220055   7.708   2.994   0.396
 6705TIP3    H120056   7.686   3.019   0.306
 6705TIP3    H220057   7.627   3.008   0.445
 6706TIP3   OH220058   7.147   1.891   5.247
 6706TIP3    H120059   7.221   1.948   5.228
 6706TIP3    H220060   7.105   1.877   5.162
 6707TIP3   OH220061   7.567   1.248   6.418
 6707TIP3    H120062   7.493   1.206   6.463
 6707TIP3    H220063   7.644   1.202   6.451
 6708TIP3   OH220064   3.026   0.585   5.230
 6708TIP3    H120065   3.032   0.495   5.264
 6708TIP3    H220066   2.987   0.574   5.143
 6709TIP3   OH220067   3.417   4.786   4.256
 6709TIP3    H120068   3.397   4.878   4.269
 6709TIP3    H220069   3.372   4.762   4.175
 6710TIP3   OH220070   6.329   4.742   1.980
 6710TIP3    H120071   6.237   4.763   1.963
 6710TIP3    H220072   6.356   4.806   2.046
 6711TIP3   OH220073   3.993   4.434   0.953
 6711TIP3    H120074   3.912   4.467   0.916
 6711TIP3    H220075   3.968   4.356   1.003
 6712TIP3   OH220076   5.094   5.629   4.082
 6712TIP3    H120077   5.013   5.594   4.120
 6712TIP3    H220078   5.164   5.579   4.124
 6713TIP3   OH220079   0.153   2.321   5.752
 6713TIP3    H120080   0.170   2.312   5.846
 6713TIP3    H220081   0.225   2.274   5.710
 6714TIP3   OH220082   3.650   5.621   3.834
 6714TIP3    H120083   3.601   5.692   3.876
 6714TIP3    H220084   3.632   5.544   3.888
 6715TIP3   OH220085   0.722   6.702   4.305
 6715TIP3    H120086   0.722   6.673   4.396
 6715TIP3    H220087   0.728   6.797   4.310
 6716TIP3   OH220088   4.133   4.309   4.629
 6716TIP3    H120089   4.142   4.384   4.688
 6716TIP3    H220090   4.152   4.233   4.684
 6717TIP3   OH220091   4.252   2.980   4.154
 6717TIP3    H120092   4.289   3.029   4.228
 6717TIP3    H220093   4.198   3.044   4.108
 6718TIP3   OH220094   6.523   6.902   2.813
 6718TIP3    H120095   6.533   6.937   2.901
 6718TIP3    H220096   6.436   6.931   2.785
 6719TIP3   OH220097   3.223   1.741   3.579
 6719TIP3    H120098   3.165   1.718   3.651
 6719TIP3    H220099   3.255   1.829   3.601
 6720TIP3   OH220100   4.876   3.032   3.045
 6720TIP3    H120101   4.808   2.992   2.991
 6720TIP3    H220102   4.947   3.051   2.984
 6721TIP3   OH220103   3.412   4.998   2.697
 6721TIP3    H120104   3.392   5.053   2.773
 6721TIP3    H220105   3.334   5.003   2.642
 6722TIP3   OH220106   1.763   5.432   2.323
 6722TIP3    H120107   1.674   5.435   2.358
 6722TIP3    H220108   1.803   5.356   2.364
 6723TIP3   OH220109   6.367   1.521   5.945
 6723TIP3    H120110   6.347   1.542   5.853
 6723TIP3    H220111   6.299   1.458   5.970
 6724TIP3   OH220112   0.541   2.384   0.840
 6724TIP3    H120113   0.598   2.460   0.845
 6724TIP3    H220114   0.552   2.340   0.924
 6725TIP3   OH220115   1.622   6.399   1.335
 6725TIP3    H120116   1.603   6.455   1.260
 6725TIP3    H220117   1.692   6.445   1.382
 6726TIP3   OH220118   0.300   6.608   2.894
 6726TIP3    H120119   0.251   6.530   2.868
 6726TIP3    H220120   0.342   6.638   2.814
 6727TIP3   OH220121   5.574   2.314   5.679
 6727TIP3    H120122   5.651   2.271   5.716
 6727TIP3    H220123   5.542   2.252   5.613
 6728TIP3   OH220124   6.703   7.706   3.307
 6728TIP3    H120125   6.721   7.678   3.397
 6728TIP3    H220126   6.617   7.669   3.287
 6729TIP3   OH220127   7.028   5.566   1.671
 6729TIP3    H120128   7.114   5.587   1.634
 6729TIP3    H220129   7.019   5.472   1.658
 6730TIP3   OH220130   1.709   5.897   0.618
 6730TIP3    H120131   1.637   5.837   0.603
 6730TIP3    H220132   1.689   5.937   0.703
 6731TIP3   OH220133   5.394   1.113   4.847
 6731TIP3    H120134   5.446   1.087   4.771
 6731TIP3    H220135   5.442   1.079   4.922
 6732TIP3   OH220136   1.108   0.375   5.829
 6732TIP3    H120137   1.041   0.389   5.762
 6732TIP3    H220138   1.181   0.335   5.783
 6733TIP3   OH220139   7.366   4.702   3.188
 6733TIP3    H120140   7.383   4.786   3.146
 6733TIP3    H220141   7.408   4.638   3.130
 6734TIP3   OH220142   4.827   1.485   4.714
 6734TIP3    H120143   4.799   1.447   4.631
 6734TIP3    H220144   4.794   1.574   4.713
 6735TIP3   OH220145   7.482   7.218   1.152
 6735TIP3    H120146   7.571   7.204   1.182
 6735TIP3    H220147   7.436   7.136   1.173
 6736TIP3   OH220148   2.145   0.041   3.158
 6736TIP3    H120149   2.183   0.124   3.129
 6736TIP3    H220150   2.077   0.065   3.221
 6737TIP3   OH220151   3.862   6.806   4.656
 6737TIP3    H120152   3.919   6.881   4.665
 6737TIP3    H220153   3.777   6.836   4.688
 6738TIP3   OH220154   6.897   2.638   5.178
 6738TIP3    H120155   6.899   2.700   5.105
 6738TIP3    H220156   6.804   2.615   5.187
 6739TIP3   OH220157   3.234   1.091   0.392
 6739TIP3    H120158   3.181   1.012   0.400
 6739TIP3    H220159   3.324   1.059   0.397
 6740TIP3   OH220160   5.854   7.629   1.408
 6740TIP3    H120161   5.843   7.722   1.424
 6740TIP3    H220162   5.773   7.589   1.440
 6741TIP3   OH220163   1.947   5.778   3.413
 6741TIP3    H120164   1.884   5.847   3.389
 6741TIP3    H220165   1.894   5.699   3.419
 6742TIP3   OH220166   1.336   3.250   4.217
 6742TIP3    H120167   1.302   3.184   4.158
 6742TIP3    H220168   1.267   3.261   4.283
 6743TIP3   OH220169   3.515   2.399   0.696
 6743TIP3    H120170   3.525   2.354   0.780
 6743TIP3    H220171   3.516   2.328   0.631
 6744TIP3   OH220172   4.465   2.944   1.279
 6744TIP3    H120173   4.385   2.996   1.288
 6744TIP3    H220174   4.520   2.995   1.219
 6745TIP3   OH220175   7.544   0.934   3.554
 6745TIP3    H120176   7.541   0.893   3.467
 6745TIP3    H220177   7.454   0.964   3.568
 6746TIP3   OH220178   2.730   5.030   6.477
 6746TIP3    H120179   2.728   5.047   6.383
 6746TIP3    H220180   2.680   5.102   6.516
 6747TIP3   OH220181   4.514   0.388   3.047
 6747TIP3    H120182   4.439   0.386   2.987
 6747TIP3    H220183   4.590   0.406   2.991
 6748TIP3   OH220184   5.654   3.414   1.254
 6748TIP3    H120185   5.598   3.388   1.181
 6748TIP3    H220186   5.596   3.465   1.311
 6749TIP3   OH220187   5.510   3.902   2.340
 6749TIP3    H120188   5.471   3.825   2.379
 6749TIP3    H220189   5.465   3.913   2.256
 6750TIP3   OH220190   5.400   1.650   3.613
 6750TIP3    H120191   5.443   1.597   3.680
 6750TIP3    H220192   5.448   1.733   3.614
 6751TIP3   OH220193   0.768   3.003   4.872
 6751TIP3    H120194   0.687   3.032   4.916
 6751TIP3    H220195   0.796   3.079   4.821
 6752TIP3   OH220196   2.792   6.659   6.296
 6752TIP3    H120197   2.724   6.723   6.319
 6752TIP3    H220198   2.774   6.584   6.353
 6753TIP3   OH220199   4.531   7.794   3.248
 6753TIP3    H120200   4.463   7.862   3.243
 6753TIP3    H220201   4.495   7.727   3.306
 6754TIP3   OH220202   4.604   6.047   3.739
 6754TIP3    H120203   4.619   6.070   3.831
 6754TIP3    H220204   4.519   6.004   3.739
 6755TIP3   OH220205   6.831   2.009   3.532
 6755TIP3    H120206   6.858   1.920   3.553
 6755TIP3    H220207   6.744   2.000   3.494
 6756TIP3   OH220208   4.437   0.942   1.689
 6756TIP3    H120209   4.362   0.960   1.632
 6756TIP3    H220210   4.417   0.988   1.771
 6757TIP3   OH220211   7.987   6.347   4.739
 6757TIP3    H120212   8.006   6.378   4.828
 6757TIP3    H220213   8.004   6.253   4.742
 6758TIP3   OH220214   3.775   7.761   1.684
 6758TIP3    H120215   3.724   7.681   1.697
 6758TIP3    H220216   3.866   7.731   1.683
 6759TIP3   OH220217   5.834   7.405   0.683
 6759TIP3    H120218   5.781   7.422   0.761
 6759TIP3    H220219   5.808   7.317   0.655
 6760TIP3   OH220220   4.619   2.807   5.574
 6760TIP3    H120221   4.654   2.721   5.596
 6760TIP3    H220222   4.672   2.868   5.626
 6761TIP3   OH220223   2.825   4.992   4.720
 6761TIP3    H120224   2.821   4.901   4.689
 6761TIP3    H220225   2.771   4.992   4.799
 6762TIP3   OH220226   6.892   6.259   4.832
 6762TIP3    H120227   6.920   6.329   4.891
 6762TIP3    H220228   6.806   6.288   4.801
 6763TIP3   OH220229   7.040   6.858   4.343
 6763TIP3    H120230   7.072   6.774   4.374
 6763TIP3    H220231   7.096   6.923   4.387
 6764TIP3   OH220232   5.303   5.523   2.737
 6764TIP3    H120233   5.261   5.458   2.794
 6764TIP3    H220234   5.391   5.489   2.724
 6765TIP3   OH220235   8.117   5.727   1.217
 6765TIP3    H120236   8.145   5.795   1.156
 6765TIP3    H220237   8.161   5.648   1.187
 6766TIP3   OH220238   7.918   2.097   0.784
 6766TIP3    H120239   7.843   2.154   0.769
 6766TIP3    H220240   7.963   2.135   0.859
 6767TIP3   OH220241   4.979   1.030   6.497
 6767TIP3    H120242   4.951   1.093   6.564
 6767TIP3    H220243   5.075   1.030   6.504
 6768TIP3   OH220244   5.585   0.134   1.127
 6768TIP3    H120245   5.532   0.193   1.179
 6768TIP3    H220246   5.578   0.167   1.037
 6769TIP3   OH220247   4.758   4.239   3.658
 6769TIP3    H120248   4.839   4.228   3.609
 6769TIP3    H220249   4.691   4.198   3.603
 6770TIP3   OH220250   1.209   4.217   1.035
 6770TIP3    H120251   1.273   4.156   1.072
 6770TIP3    H220252   1.260   4.297   1.017
 6771TIP3   OH220253   4.691   7.148   0.853
 6771TIP3    H120254   4.785   7.146   0.868
 6771TIP3    H220255   4.680   7.109   0.766
 6772TIP3   OH220256   4.261   1.797   3.432
 6772TIP3    H120257   4.352   1.776   3.456
 6772TIP3    H220258   4.268   1.848   3.352
 6773TIP3   OH220259   1.743   2.534   3.969
 6773TIP3    H120260   1.806   2.476   4.013
 6773TIP3    H220261   1.659   2.490   3.981
 6774TIP3   OH220262   2.673   1.176   0.815
 6774TIP3    H120263   2.661   1.185   0.720
 6774TIP3    H220264   2.623   1.249   0.853
 6775TIP3   OH220265   1.089   3.999   3.349
 6775TIP3    H120266   0.998   3.990   3.319
 6775TIP3    H220267   1.136   4.034   3.273
 6776TIP3   OH220268   0.119   2.279   5.346
 6776TIP3    H120269   0.145   2.204   5.293
 6776TIP3    H220270   0.056   2.326   5.291
 6777TIP3   OH220271   0.861   4.909   1.045
 6777TIP3    H120272   0.947   4.951   1.045
 6777TIP3    H220273   0.879   4.818   1.025
 6778TIP3   OH220274   7.082   4.997   5.451
 6778TIP3    H120275   7.125   4.953   5.524
 6778TIP3    H220276   7.043   4.927   5.399
 6779TIP3   OH220277   6.898   4.338   5.464
 6779TIP3    H120278   6.857   4.424   5.453
 6779TIP3    H220279   6.962   4.351   5.535
 6780TIP3   OH220280   2.626   0.436   2.032
 6780TIP3    H120281   2.608   0.351   1.992
 6780TIP3    H220282   2.573   0.438   2.111
 6781TIP3   OH220283   5.469   5.935   4.157
 6781TIP3    H120284   5.475   6.020   4.113
 6781TIP3    H220285   5.389   5.896   4.122
 6782TIP3   OH220286   7.925   1.168   0.827
 6782TIP3    H120287   7.832   1.148   0.832
 6782TIP3    H220288   7.938   1.241   0.888
 6783TIP3   OH220289   2.429   3.710   5.200
 6783TIP3    H120290   2.377   3.783   5.167
 6783TIP3    H220291   2.511   3.715   5.151
 6784TIP3   OH220292   3.670   5.175   6.450
 6784TIP3    H120293   3.612   5.119   6.502
 6784TIP3    H220294   3.701   5.241   6.510
 6785TIP3   OH220295   1.859   1.441   1.881
 6785TIP3    H120296   1.852   1.520   1.934
 6785TIP3    H220297   1.817   1.373   1.934
 6786TIP3   OH220298   5.664   4.723   3.768
 6786TIP3    H120299   5.750   4.753   3.741
 6786TIP3    H220300   5.677   4.690   3.858
 6787TIP3   OH220301   7.708   0.322   3.003
 6787TIP3    H120302   7.735   0.358   2.918
 6787TIP3    H220303   7.778   0.348   3.063
 6788TIP3   OH220304   2.891   2.457   0.949
 6788TIP3    H120305   2.835   2.385   0.980
 6788TIP3    H220306   2.980   2.427   0.966
 6789TIP3   OH220307   4.439   6.603   6.533
 6789TIP3    H120308   4.344   6.607   6.526
 6789TIP3    H220309   4.457   6.517   6.569
 6790TIP3   OH220310   4.144   6.230   6.820
 6790TIP3    H120311   4.196   6.299   6.862
 6790TIP3    H220312   4.203   6.155   6.815
 6791TIP3   OH220313   6.608   6.491   1.890
 6791TIP3    H120314   6.633   6.529   1.806
 6791TIP3    H220315   6.566   6.408   1.867
 6792TIP3   OH220316   0.199   4.046   5.509
 6792TIP3    H120317   0.184   3.972   5.568
 6792TIP3    H220318   0.252   4.010   5.437
 6793TIP3   OH220319   7.549   7.173   0.768
 6793TIP3    H120320   7.608   7.170   0.693
 6793TIP3    H220321   7.559   7.087   0.809
 6794TIP3   OH220322   1.190   2.330   2.438
 6794TIP3    H120323   1.117   2.339   2.376
 6794TIP3    H220324   1.250   2.269   2.396
 6795TIP3   OH220325   6.670   1.473   6.503
 6795TIP3    H120326   6.608   1.418   6.456
 6795TIP3    H220327   6.739   1.413   6.531
 6796TIP3   OH220328   4.945   7.898   4.696
 6796TIP3    H120329   4.920   7.854   4.777
 6796TIP3    H220330   4.870   7.954   4.674
 6797TIP3   OH220331   4.852   5.921   2.703
 6797TIP3    H120332   4.817   5.976   2.632
 6797TIP3    H220333   4.901   5.981   2.758
 6798TIP3   OH220334   6.092   0.481   3.857
 6798TIP3    H120335   6.035   0.412   3.825
 6798TIP3    H220336   6.039   0.529   3.920
 6799TIP3   OH220337   2.122   0.569   1.695
 6799TIP3    H120338   2.166   0.497   1.740
 6799TIP3    H220339   2.163   0.648   1.730
 6800TIP3   OH220340   2.126   2.779   3.787
 6800TIP3    H120341   2.062   2.791   3.857
 6800TIP3    H220342   2.076   2.797   3.707
 6801TIP3   OH220343   3.712   1.680   0.660
 6801TIP3    H120344   3.718   1.623   0.583
 6801TIP3    H220345   3.784   1.742   0.650
 6802TIP3   OH220346   2.609   4.836   6.809
 6802TIP3    H120347   2.592   4.749   6.844
 6802TIP3    H220348   2.525   4.882   6.817
 6803TIP3   OH220349   8.060   6.843   1.404
 6803TIP3    H120350   8.000   6.773   1.427
 6803TIP3    H220351   8.101   6.814   1.322
 6804TIP3   OH220352   2.835   6.412   0.155
 6804TIP3    H120353   2.844   6.362   0.236
 6804TIP3    H220354   2.741   6.432   0.149
 6805TIP3   OH220355   7.228   7.602   1.284
 6805TIP3    H120356   7.189   7.516   1.293
 6805TIP3    H220357   7.307   7.587   1.231
 6806TIP3   OH220358   6.252   1.448   5.272
 6806TIP3    H120359   6.332   1.498   5.285
 6806TIP3    H220360   6.206   1.455   5.356
 6807TIP3   OH220361   3.733   6.260   5.464
 6807TIP3    H120362   3.761   6.217   5.545
 6807TIP3    H220363   3.789   6.222   5.396
 6808TIP3   OH220364   5.901   3.513   5.144
 6808TIP3    H120365   5.849   3.436   5.120
 6808TIP3    H220366   5.857   3.548   5.222
 6809TIP3   OH220367   1.789   1.241   3.981
 6809TIP3    H120368   1.781   1.231   4.076
 6809TIP3    H220369   1.881   1.218   3.963
 6810TIP3   OH220370   6.246   5.082   4.052
 6810TIP3    H120371   6.227   5.162   4.100
 6810TIP3    H220372   6.336   5.061   4.074
 6811TIP3   OH220373   6.721   2.306   4.639
 6811TIP3    H120374   6.632   2.311   4.605
 6811TIP3    H220375   6.767   2.248   4.578
 6812TIP3   OH220376   2.289   4.672   6.588
 6812TIP3    H120377   2.271   4.730   6.662
 6812TIP3    H220378   2.236   4.707   6.517
 6813TIP3   OH220379   5.905   5.307   4.396
 6813TIP3    H120380   5.829   5.275   4.347
 6813TIP3    H220381   5.979   5.258   4.361
 6814TIP3   OH220382   7.731   3.923   6.767
 6814TIP3    H120383   7.653   3.895   6.721
 6814TIP3    H220384   7.760   3.846   6.816
 6815TIP3   OH220385   5.968   3.817   4.340
 6815TIP3    H120386   5.972   3.740   4.283
 6815TIP3    H220387   6.034   3.876   4.304
 6816TIP3   OH220388   7.144   3.864   4.775
 6816TIP3    H120389   7.171   3.953   4.796
 6816TIP3    H220390   7.163   3.814   4.855
 6817TIP3   OH220391   5.381   0.186   3.417
 6817TIP3    H120392   5.423   0.222   3.339
 6817TIP3    H220393   5.287   0.198   3.401
 6818TIP3   OH220394   0.051   1.047   0.596
 6818TIP3    H120395   0.141   1.037   0.564
 6818TIP3    H220396   0.013   0.959   0.587
 6819TIP3   OH220397   4.708   0.269   4.628
 6819TIP3    H120398   4.701   0.199   4.693
 6819TIP3    H220399   4.795   0.306   4.644
 6820TIP3   OH220400   4.983   3.633   6.536
 6820TIP3    H120401   4.902   3.591   6.566
 6820TIP3    H220402   4.954   3.717   6.500
 6821TIP3   OH220403   0.452   1.299   5.343
 6821TIP3    H120404   0.432   1.355   5.417
 6821TIP3    H220405   0.543   1.273   5.356
 6822TIP3   OH220406   6.617   2.016   2.750
 6822TIP3    H120407   6.585   2.104   2.732
 6822TIP3    H220408   6.601   1.968   2.668
 6823TIP3   OH220409   4.082   1.101   4.816
 6823TIP3    H120410   4.103   1.184   4.774
 6823TIP3    H220411   4.102   1.034   4.750
 6824TIP3   OH220412   0.327   2.871   0.727
 6824TIP3    H120413   0.313   2.825   0.810
 6824TIP3    H220414   0.364   2.805   0.668
 6825TIP3   OH220415   2.617   0.192   1.869
 6825TIP3    H120416   2.528   0.220   1.847
 6825TIP3    H220417   2.670   0.218   1.793
 6826TIP3   OH220418   5.640   3.485   5.805
 6826TIP3    H120419   5.591   3.468   5.725
 6826TIP3    H220420   5.574   3.517   5.867
 6827TIP3   OH220421   6.649   3.499   6.783
 6827TIP3    H120422   6.733   3.534   6.755
 6827TIP3    H220423   6.645   3.411   6.747
 6828TIP3   OH220424   0.559   5.793   5.343
 6828TIP3    H120425   0.544   5.707   5.304
 6828TIP3    H220426   0.650   5.790   5.373
 6829TIP3   OH220427   2.216   5.808   2.056
 6829TIP3    H120428   2.186   5.778   2.142
 6829TIP3    H220429   2.157   5.765   1.994
 6830TIP3   OH220430   7.026   7.357   2.693
 6830TIP3    H120431   6.932   7.372   2.697
 6830TIP3    H220432   7.049   7.370   2.601
 6831TIP3   OH220433   6.820   5.935   5.483
 6831TIP3    H120434   6.806   5.849   5.523
 6831TIP3    H220435   6.765   5.994   5.536
 6832TIP3   OH220436   3.339   4.993   5.788
 6832TIP3    H120437   3.393   5.029   5.717
 6832TIP3    H220438   3.257   4.968   5.746
 6833TIP3   OH220439   5.028   1.665   6.614
 6833TIP3    H120440   4.964   1.658   6.685
 6833TIP3    H220441   5.054   1.574   6.597
 6834TIP3   OH220442   7.474   3.437   2.593
 6834TIP3    H120443   7.459   3.423   2.499
 6834TIP3    H220444   7.423   3.368   2.635
 6835TIP3   OH220445   3.932   7.621   5.192
 6835TIP3    H120446   3.836   7.624   5.186
 6835TIP3    H220447   3.956   7.538   5.150
 6836TIP3   OH220448   4.940   7.417   0.389
 6836TIP3    H120449   4.935   7.478   0.463
 6836TIP3    H220450   4.873   7.448   0.328
 6837TIP3   OH220451   1.033   1.942   3.203
 6837TIP3    H120452   0.944   1.909   3.211
 6837TIP3    H220453   1.056   1.928   3.111
 6838TIP3   OH220454   5.424   1.033   0.220
 6838TIP3    H120455   5.391   1.120   0.199
 6838TIP3    H220456   5.519   1.040   0.210
 6839TIP3   OH220457   2.579   6.811   6.358
 6839TIP3    H120458   2.517   6.741   6.380
 6839TIP3    H220459   2.525   6.879   6.319
 6840TIP3   OH220460   8.084   5.573   3.590
 6840TIP3    H120461   8.127   5.659   3.588
 6840TIP3    H220462   8.133   5.521   3.527
 6841TIP3   OH220463   7.862   3.527   1.971
 6841TIP3    H120464   7.919   3.547   2.044
 6841TIP3    H220465   7.919   3.487   1.905
 6842TIP3   OH220466   1.234   7.396   3.453
 6842TIP3    H120467   1.287   7.443   3.389
 6842TIP3    H220468   1.233   7.454   3.529
 6843TIP3   OH220469   0.376   6.191   4.871
 6843TIP3    H120470   0.329   6.205   4.953
 6843TIP3    H220471   0.343   6.108   4.838
 6844TIP3   OH220472   0.349   4.936   1.517
 6844TIP3    H120473   0.402   4.866   1.478
 6844TIP3    H220474   0.411   5.008   1.530
 6845TIP3   OH220475   3.619   1.185   1.636
 6845TIP3    H120476   3.695   1.133   1.611
 6845TIP3    H220477   3.553   1.164   1.570
 6846TIP3   OH220478   3.510   4.444   0.499
 6846TIP3    H120479   3.496   4.480   0.586
 6846TIP3    H220480   3.601   4.412   0.501
 6847TIP3   OH220481   6.719   2.987   3.064
 6847TIP3    H120482   6.742   3.078   3.042
 6847TIP3    H220483   6.804   2.944   3.078
 6848TIP3   OH220484   3.498   5.976   3.663
 6848TIP3    H120485   3.553   5.966   3.741
 6848TIP3    H220486   3.436   6.045   3.688
 6849TIP3   OH220487   3.005   6.661   3.247
 6849TIP3    H120488   3.047   6.597   3.304
 6849TIP3    H220489   3.065   6.672   3.174
 6850TIP3   OH220490   2.190   0.617   0.387
 6850TIP3    H120491   2.178   0.654   0.300
 6850TIP3    H220492   2.164   0.687   0.447
 6851TIP3   OH220493   6.770   2.472   0.552
 6851TIP3    H120494   6.745   2.442   0.639
 6851TIP3    H220495   6.866   2.472   0.554
 6852TIP3   OH220496   5.580   2.285   0.515
 6852TIP3    H120497   5.664   2.280   0.560
 6852TIP3    H220498   5.594   2.238   0.433
 6853TIP3   OH220499   5.507   6.122   4.992
 6853TIP3    H120500   5.516   6.101   5.085
 6853TIP3    H220501   5.587   6.170   4.971
 6854TIP3   OH220502   7.576   4.178   4.438
 6854TIP3    H120503   7.556   4.114   4.507
 6854TIP3    H220504   7.572   4.263   4.482
 6855TIP3   OH220505   3.120   1.485   2.282
 6855TIP3    H120506   3.188   1.434   2.326
 6855TIP3    H220507   3.039   1.460   2.327
 6856TIP3   OH220508   3.680   5.128   6.795
 6856TIP3    H120509   3.688   5.209   6.745
 6856TIP3    H220510   3.764   5.119   6.839
 6857TIP3   OH220511   7.535   1.633   1.954
 6857TIP3    H120512   7.517   1.706   2.013
 6857TIP3    H220513   7.624   1.649   1.923
 6858TIP3   OH220514   6.776   0.510   1.271
 6858TIP3    H120515   6.693   0.554   1.290
 6858TIP3    H220516   6.843   0.571   1.303
 6859TIP3   OH220517   4.535   6.147   3.029
 6859TIP3    H120518   4.583   6.069   2.999
 6859TIP3    H220519   4.470   6.163   2.960
 6860TIP3   OH220520   5.444   3.017   0.719
 6860TIP3    H120521   5.352   2.998   0.736
 6860TIP3    H220522   5.491   2.938   0.745
 6861TIP3   OH220523   3.717   0.058   2.677
 6861TIP3    H120524   3.795   0.023   2.721
 6861TIP3    H220525   3.644   0.013   2.719
 6862TIP3   OH220526   1.823   5.338   1.320
 6862TIP3    H120527   1.747   5.383   1.285
 6862TIP3    H220528   1.822   5.253   1.277
 6863TIP3   OH220529   5.752   4.345   1.211
 6863TIP3    H120530   5.688   4.403   1.251
 6863TIP3    H220531   5.827   4.401   1.192
 6864TIP3   OH220532   8.114   2.083   4.704
 6864TIP3    H120533   8.103   2.053   4.614
 6864TIP3    H220534   8.087   2.009   4.758
 6865TIP3   OH220535   7.970   5.512   3.130
 6865TIP3    H120536   7.927   5.577   3.185
 6865TIP3    H220537   7.923   5.516   3.046
 6866TIP3   OH220538   3.875   6.244   0.409
 6866TIP3    H120539   3.836   6.264   0.494
 6866TIP3    H220540   3.835   6.161   0.383
 6867TIP3   OH220541   5.292   6.259   1.918
 6867TIP3    H120542   5.275   6.203   1.994
 6867TIP3    H220543   5.365   6.314   1.945
 6868TIP3   OH220544   7.606   6.141   5.016
 6868TIP3    H120545   7.701   6.142   5.031
 6868TIP3    H220546   7.586   6.049   4.997
 6869TIP3   OH220547   6.497   4.205   5.346
 6869TIP3    H120548   6.572   4.155   5.380
 6869TIP3    H220549   6.460   4.248   5.423
 6870TIP3   OH220550   6.894   2.927   1.118
 6870TIP3    H120551   6.896   2.863   1.189
 6870TIP3    H220552   6.956   2.893   1.054
 6871TIP3   OH220553   8.323   1.941   2.033
 6871TIP3    H120554   8.389   1.955   2.101
 6871TIP3    H220555   8.359   1.984   1.955
 6872TIP3   OH220556   3.430   7.697   5.200
 6872TIP3    H120557   3.335   7.713   5.202
 6872TIP3    H220558   3.454   7.689   5.292
 6873TIP3   OH220559   6.736   5.509   6.084
 6873TIP3    H120560   6.756   5.529   5.992
 6873TIP3    H220561   6.808   5.453   6.113
 6874TIP3   OH220562   8.082   4.373   1.217
 6874TIP3    H120563   8.005   4.384   1.273
 6874TIP3    H220564   8.121   4.291   1.247
 6875TIP3   OH220565   7.297   4.458   4.487
 6875TIP3    H120566   7.239   4.422   4.420
 6875TIP3    H220567   7.242   4.519   4.536
 6876TIP3   OH220568   1.368   0.483   6.677
 6876TIP3    H120569   1.352   0.518   6.589
 6876TIP3    H220570   1.450   0.523   6.704
 6877TIP3   OH220571   4.201   3.914   6.314
 6877TIP3    H120572   4.212   3.831   6.360
 6877TIP3    H220573   4.141   3.964   6.368
 6878TIP3   OH220574   4.907   7.607   5.714
 6878TIP3    H120575   4.912   7.702   5.723
 6878TIP3    H220576   4.972   7.574   5.776
 6879TIP3   OH220577   6.356   7.740   3.585
 6879TIP3    H120578   6.276   7.701   3.621
 6879TIP3    H220579   6.426   7.680   3.613
 6880TIP3   OH220580   5.113   7.858   5.224
 6880TIP3    H120581   5.074   7.852   5.311
 6880TIP3    H220582   5.153   7.945   5.222
 6881TIP3   OH220583   3.345   3.948   2.998
 6881TIP3    H120584   3.412   4.016   3.003
 6881TIP3    H220585   3.300   3.965   2.915
 6882TIP3   OH220586   6.313   5.833   4.531
 6882TIP3    H120587   6.265   5.886   4.468
 6882TIP3    H220588   6.358   5.767   4.478
 6883TIP3   OH220589   6.315   5.748   2.221
 6883TIP3    H120590   6.359   5.663   2.230
 6883TIP3    H220591   6.379   5.803   2.176
 6884TIP3   OH220592   1.545   4.325   6.402
 6884TIP3    H120593   1.619   4.315   6.342
 6884TIP3    H220594   1.507   4.410   6.380
 6885TIP3   OH220595   7.646   0.248   1.716
 6885TIP3    H120596   7.585   0.288   1.778
 6885TIP3    H220597   7.732   0.283   1.740
 6886TIP3   OH220598   0.213   1.200   1.397
 6886TIP3    H120599   0.150   1.144   1.353
 6886TIP3    H220600   0.168   1.229   1.476
 6887TIP3   OH220601   8.114   4.130   1.475
 6887TIP3    H120602   8.071   4.089   1.400
 6887TIP3    H220603   8.045   4.146   1.538
 6888TIP3   OH220604   2.683   3.756   0.467
 6888TIP3    H120605   2.690   3.773   0.373
 6888TIP3    H220606   2.635   3.674   0.473
 6889TIP3   OH220607   2.757   4.167   6.114
 6889TIP3    H120608   2.754   4.091   6.171
 6889TIP3    H220609   2.666   4.195   6.105
 6890TIP3   OH220610   1.012   4.620   1.506
 6890TIP3    H120611   0.935   4.663   1.471
 6890TIP3    H220612   1.078   4.690   1.510
 6891TIP3   OH220613   1.428   6.220   1.339
 6891TIP3    H120614   1.434   6.166   1.417
 6891TIP3    H220615   1.499   6.284   1.348
 6892TIP3   OH220616   3.834   0.516   2.095
 6892TIP3    H120617   3.847   0.608   2.119
 6892TIP3    H220618   3.831   0.516   1.999
 6893TIP3   OH220619   4.465   0.063   1.527
 6893TIP3    H120620   4.513  -0.011   1.489
 6893TIP3    H220621   4.380   0.026   1.552
 6894TIP3   OH220622   1.353   7.065   4.813
 6894TIP3    H120623   1.290   7.135   4.824
 6894TIP3    H220624   1.315   6.990   4.859
 6895TIP3   OH220625   7.835   4.273   4.773
 6895TIP3    H120626   7.744   4.279   4.742
 6895TIP3    H220627   7.835   4.319   4.856
 6896TIP3   OH220628   4.846   1.757   3.946
 6896TIP3    H120629   4.761   1.741   3.905
 6896TIP3    H220630   4.909   1.709   3.892
 6897TIP3   OH220631   7.304   2.076   3.528
 6897TIP3    H120632   7.264   2.071   3.614
 6897TIP3    H220633   7.254   2.015   3.474
 6898TIP3   OH220634   3.417   2.361   5.602
 6898TIP3    H120635   3.411   2.362   5.507
 6898TIP3    H220636   3.393   2.450   5.629
 6899TIP3   OH220637   0.068   3.811   6.005
 6899TIP3    H120638   0.012   3.740   6.034
 6899TIP3    H220639   0.088   3.861   6.084
 6900TIP3   OH220640   4.264   7.438   4.174
 6900TIP3    H120641   4.170   7.440   4.189
 6900TIP3    H220642   4.279   7.503   4.106
 6901TIP3   OH220643   5.852   4.152   3.015
 6901TIP3    H120644   5.877   4.122   2.927
 6901TIP3    H220645   5.761   4.126   3.024
 6902TIP3   OH220646   6.066   3.597   1.572
 6902TIP3    H120647   6.017   3.616   1.492
 6902TIP3    H220648   6.087   3.504   1.566
 6903TIP3   OH220649   5.494   3.264   0.659
 6903TIP3    H120650   5.495   3.177   0.700
 6903TIP3    H220651   5.584   3.296   0.669
 6904TIP3   OH220652   5.122   2.356   2.906
 6904TIP3    H120653   5.057   2.324   2.968
 6904TIP3    H220654   5.164   2.277   2.872
 6905TIP3   OH220655   0.719   1.685   0.448
 6905TIP3    H120656   0.797   1.701   0.395
 6905TIP3    H220657   0.753   1.670   0.536
 6906TIP3   OH220658   6.225   1.013   1.280
 6906TIP3    H120659   6.134   1.042   1.289
 6906TIP3    H220660   6.243   0.966   1.362
 6907TIP3   OH220661   5.277   6.506   6.197
 6907TIP3    H120662   5.341   6.493   6.128
 6907TIP3    H220663   5.242   6.418   6.215
 6908TIP3   OH220664   0.560   7.176   5.880
 6908TIP3    H120665   0.620   7.232   5.832
 6908TIP3    H220666   0.489   7.234   5.907
 6909TIP3   OH220667   0.658   1.046   6.727
 6909TIP3    H120668   0.716   1.007   6.793
 6909TIP3    H220669   0.572   1.050   6.770
 6910TIP3   OH220670   7.847   4.088   2.645
 6910TIP3    H120671   7.832   4.027   2.718
 6910TIP3    H220672   7.936   4.119   2.658
 6911TIP3   OH220673   3.275   7.139   2.396
 6911TIP3    H120674   3.332   7.205   2.437
 6911TIP3    H220675   3.258   7.076   2.466
 6912TIP3   OH220676   6.211   5.807   2.587
 6912TIP3    H120677   6.195   5.902   2.594
 6912TIP3    H220678   6.304   5.800   2.567
 6913TIP3   OH220679   2.320   6.967   3.467
 6913TIP3    H120680   2.380   6.894   3.458
 6913TIP3    H220681   2.235   6.926   3.486
 6914TIP3   OH220682   2.535   1.381   4.555
 6914TIP3    H120683   2.481   1.443   4.603
 6914TIP3    H220684   2.523   1.298   4.601
 6915TIP3   OH220685   6.833   2.987   3.482
 6915TIP3    H120686   6.907   3.007   3.540
 6915TIP3    H220687   6.797   3.073   3.459
 6916TIP3   OH220688   4.820   6.029   1.263
 6916TIP3    H120689   4.732   6.047   1.296
 6916TIP3    H220690   4.835   6.097   1.197
 6917TIP3   OH220691   3.470   4.040   0.038
 6917TIP3    H120692   3.555   3.996   0.036
 6917TIP3    H220693   3.490   4.130   0.063
 6918TIP3   OH220694   4.259   3.418   3.627
 6918TIP3    H120695   4.170   3.384   3.637
 6918TIP3    H220696   4.313   3.340   3.611
 6919TIP3   OH220697   5.073   5.190   0.154
 6919TIP3    H120698   5.108   5.190   0.243
 6919TIP3    H220699   5.072   5.097   0.128
 6920TIP3   OH220700   7.023   2.136   0.875
 6920TIP3    H120701   7.036   2.227   0.900
 6920TIP3    H220702   7.043   2.086   0.954
 6921TIP3   OH220703   6.381   3.599   1.555
 6921TIP3    H120704   6.288   3.618   1.545
 6921TIP3    H220705   6.384   3.525   1.614
 6922TIP3   OH220706   6.333   1.642   1.574
 6922TIP3    H120707   6.336   1.680   1.487
 6922TIP3    H220708   6.267   1.573   1.568
 6923TIP3   OH220709   0.790   7.124   3.657
 6923TIP3    H120710   0.830   7.050   3.612
 6923TIP3    H220711   0.839   7.133   3.739
 6924TIP3   OH220712   7.920   0.100   1.220
 6924TIP3    H120713   7.980   0.171   1.201
 6924TIP3    H220714   7.842   0.143   1.255
 6925TIP3   OH220715   1.213   1.709   1.820
 6925TIP3    H120716   1.265   1.767   1.764
 6925TIP3    H220717   1.169   1.650   1.758
 6926TIP3   OH220718   4.132   6.188   4.378
 6926TIP3    H120719   4.044   6.180   4.341
 6926TIP3    H220720   4.155   6.280   4.366
 6927TIP3   OH220721   1.167   4.367   6.510
 6927TIP3    H120722   1.181   4.357   6.416
 6927TIP3    H220723   1.240   4.420   6.540
 6928TIP3   OH220724   4.958   4.614   1.774
 6928TIP3    H120725   5.024   4.548   1.796
 6928TIP3    H220726   5.006   4.697   1.777
 6929TIP3   OH220727   8.062   0.731   5.011
 6929TIP3    H120728   8.081   0.656   5.067
 6929TIP3    H220729   8.020   0.795   5.068
 6930TIP3   OH220730   1.557   7.768   0.396
 6930TIP3    H120731   1.615   7.731   0.330
 6930TIP3    H220732   1.487   7.810   0.346
 6931TIP3   OH220733   0.502   0.364   5.875
 6931TIP3    H120734   0.484   0.442   5.928
 6931TIP3    H220735   0.592   0.375   5.845
 6932TIP3   OH220736   8.276   2.334   3.924
 6932TIP3    H120737   8.336   2.343   3.850
 6932TIP3    H220738   8.285   2.416   3.972
 6933TIP3   OH220739   5.972   6.066   1.202
 6933TIP3    H120740   5.986   5.975   1.175
 6933TIP3    H220741   6.042   6.083   1.266
 6934TIP3   OH220742   3.735   5.634   1.635
 6934TIP3    H120743   3.646   5.628   1.670
 6934TIP3    H220744   3.791   5.641   1.712
 6935TIP3   OH220745   2.065   3.783   6.657
 6935TIP3    H120746   2.017   3.766   6.576
 6935TIP3    H220747   2.035   3.715   6.717
 6936TIP3   OH220748   1.455   0.934   2.836
 6936TIP3    H120749   1.507   0.917   2.915
 6936TIP3    H220750   1.512   0.987   2.781
 6937TIP3   OH220751   8.121   2.953   1.984
 6937TIP3    H120752   8.053   2.897   1.948
 6937TIP3    H220753   8.075   3.035   2.006
 6938TIP3   OH220754   0.459   0.447   3.307
 6938TIP3    H120755   0.468   0.354   3.329
 6938TIP3    H220756   0.545   0.484   3.327
 6939TIP3   OH220757   2.841   2.300   6.466
 6939TIP3    H120758   2.829   2.206   6.477
 6939TIP3    H220759   2.911   2.323   6.527
 6940TIP3   OH220760   1.026   4.834   4.294
 6940TIP3    H120761   0.974   4.825   4.374
 6940TIP3    H220762   1.079   4.755   4.291
 6941TIP3   OH220763   2.174   1.387   4.431
 6941TIP3    H120764   2.191   1.407   4.523
 6941TIP3    H220765   2.235   1.315   4.411
 6942TIP3   OH220766   4.140   4.509   6.552
 6942TIP3    H120767   4.214   4.568   6.565
 6942TIP3    H220768   4.165   4.455   6.477
 6943TIP3   OH220769   0.908   4.642   1.018
 6943TIP3    H120770   0.947   4.624   0.933
 6943TIP3    H220771   0.819   4.607   1.012
 6944TIP3   OH220772   7.230   5.326   2.712
 6944TIP3    H120773   7.283   5.406   2.716
 6944TIP3    H220774   7.212   5.315   2.618
 6945TIP3   OH220775   4.499   6.623   0.568
 6945TIP3    H120776   4.445   6.664   0.636
 6945TIP3    H220777   4.589   6.632   0.600
 6946TIP3   OH220778   0.423   0.923   6.740
 6946TIP3    H120779   0.349   0.942   6.682
 6946TIP3    H220780   0.443   0.830   6.724
 6947TIP3   OH220781   1.539   1.508   3.384
 6947TIP3    H120782   1.632   1.533   3.382
 6947TIP3    H220783   1.506   1.547   3.465
 6948TIP3   OH220784   7.028   5.322   1.583
 6948TIP3    H120785   6.997   5.234   1.602
 6948TIP3    H220786   7.096   5.310   1.516
 6949TIP3   OH220787   4.339   7.409   6.060
 6949TIP3    H120788   4.422   7.369   6.088
 6949TIP3    H220789   4.318   7.471   6.129
 6950TIP3   OH220790   5.083   2.924   5.911
 6950TIP3    H120791   5.138   2.985   5.961
 6950TIP3    H220792   5.139   2.893   5.841
 6951TIP3   OH220793   0.090   0.775   6.109
 6951TIP3    H120794   0.076   0.793   6.202
 6951TIP3    H220795   0.062   0.856   6.066
 6952TIP3   OH220796   0.138   2.976   1.455
 6952TIP3    H120797   0.055   2.928   1.460
 6952TIP3    H220798   0.193   2.936   1.522
 6953TIP3   OH220799   1.689   3.104   3.011
 6953TIP3    H120800   1.760   3.044   3.031
 6953TIP3    H220801   1.669   3.147   3.094
 6954TIP3   OH220802   5.992   6.979   3.401
 6954TIP3    H120803   5.931   7.043   3.365
 6954TIP3    H220804   6.073   7.029   3.415
 6955TIP3   OH220805   3.277   6.235   1.580
 6955TIP3    H120806   3.294   6.297   1.509
 6955TIP3    H220807   3.233   6.286   1.647
 6956TIP3   OH220808   2.883   1.165   0.997
 6956TIP3    H120809   2.822   1.139   1.065
 6956TIP3    H220810   2.830   1.171   0.918
 6957TIP3   OH220811   1.373   5.065   1.858
 6957TIP3    H120812   1.458   5.022   1.842
 6957TIP3    H220813   1.337   5.020   1.934
 6958TIP3   OH220814   5.278   5.939   2.581
 6958TIP3    H120815   5.220   5.898   2.645
 6958TIP3    H220816   5.305   5.868   2.523
 6959TIP3   OH220817   6.974   2.047   0.436
 6959TIP3    H120818   6.908   1.990   0.396
 6959TIP3    H220819   7.045   1.988   0.461
 6960TIP3   OH220820   7.490   3.944   3.957
 6960TIP3    H120821   7.524   3.949   4.047
 6960TIP3    H220822   7.561   3.976   3.902
 6961TIP3   OH220823   3.733   1.597   6.872
 6961TIP3    H120824   3.801   1.655   6.837
 6961TIP3    H220825   3.743   1.516   6.820
 6962TIP3   OH220826   1.287   1.865   1.558
 6962TIP3    H120827   1.333   1.932   1.508
 6962TIP3    H220828   1.334   1.784   1.537
 6963TIP3   OH220829   5.408   3.517   5.659
 6963TIP3    H120830   5.360   3.461   5.721
 6963TIP3    H220831   5.343   3.581   5.629
 6964TIP3   OH220832   8.099   6.398   3.100
 6964TIP3    H120833   8.089   6.492   3.087
 6964TIP3    H220834   8.021   6.360   3.059
 6965TIP3   OH220835   7.242   1.190   0.765
 6965TIP3    H120836   7.163   1.142   0.788
 6965TIP3    H220837   7.295   1.127   0.716
 6966TIP3   OH220838   1.233   3.519   1.577
 6966TIP3    H120839   1.263   3.472   1.499
 6966TIP3    H220840   1.166   3.462   1.615
 6967TIP3   OH220841   0.233   3.347   3.263
 6967TIP3    H120842   0.141   3.336   3.239
 6967TIP3    H220843   0.232   3.366   3.357
 6968TIP3   OH220844   4.779   6.144   2.500
 6968TIP3    H120845   4.765   6.120   2.408
 6968TIP3    H220846   4.873   6.158   2.507
 6969TIP3   OH220847   6.856   5.464   5.011
 6969TIP3    H120848   6.856   5.557   4.988
 6969TIP3    H220849   6.774   5.430   4.975
 6970TIP3   OH220850   7.230   7.231   1.480
 6970TIP3    H120851   7.175   7.213   1.404
 6970TIP3    H220852   7.173   7.217   1.555
 6971TIP3   OH220853   3.869   6.715   6.071
 6971TIP3    H120854   3.955   6.752   6.090
 6971TIP3    H220855   3.819   6.787   6.034
 6972TIP3   OH220856   4.571   5.124   6.043
 6972TIP3    H120857   4.480   5.152   6.032
 6972TIP3    H220858   4.622   5.191   5.999
 6973TIP3   OH220859   0.200   5.659   0.737
 6973TIP3    H120860   0.106   5.665   0.748
 6973TIP3    H220861   0.234   5.648   0.826
 6974TIP3   OH220862   6.156   3.761   0.796
 6974TIP3    H120863   6.103   3.715   0.732
 6974TIP3    H220864   6.245   3.755   0.763
 6975TIP3   OH220865   2.449   4.142   6.378
 6975TIP3    H120866   2.539   4.143   6.412
 6975TIP3    H220867   2.401   4.087   6.440
 6976TIP3   OH220868   6.796   7.801   1.665
 6976TIP3    H120869   6.863   7.856   1.624
 6976TIP3    H220870   6.839   7.716   1.678
 6977TIP3   OH220871   7.780   7.855   4.789
 6977TIP3    H120872   7.689   7.827   4.783
 6977TIP3    H220873   7.797   7.861   4.883
 6978TIP3   OH220874   7.702   7.540   4.587
 6978TIP3    H120875   7.749   7.458   4.606
 6978TIP3    H220876   7.771   7.605   4.574
 6979TIP3   OH220877   5.408   7.737   4.757
 6979TIP3    H120878   5.339   7.803   4.750
 6979TIP3    H220879   5.361   7.654   4.762
 6980TIP3   OH220880   6.571   7.425   1.957
 6980TIP3    H120881   6.536   7.466   2.036
 6980TIP3    H220882   6.665   7.439   1.962
 6981TIP3   OH220883   0.635   0.713   2.810
 6981TIP3    H120884   0.640   0.621   2.783
 6981TIP3    H220885   0.662   0.713   2.901
 6982TIP3   OH220886   3.737   1.885   0.350
 6982TIP3    H120887   3.810   1.838   0.390
 6982TIP3    H220888   3.768   1.905   0.261
 6983TIP3   OH220889   4.837   3.663   3.285
 6983TIP3    H120890   4.917   3.682   3.334
 6983TIP3    H220891   4.865   3.662   3.193
 6984TIP3   OH220892   2.081   0.463   4.712
 6984TIP3    H120893   2.122   0.544   4.684
 6984TIP3    H220894   2.123   0.395   4.659
 6985TIP3   OH220895   2.156   5.186   3.370
 6985TIP3    H120896   2.066   5.162   3.350
 6985TIP3    H220897   2.178   5.139   3.450
 6986TIP3   OH220898   2.074   2.916   2.486
 6986TIP3    H120899   2.044   2.999   2.447
 6986TIP3    H220900   2.156   2.897   2.440
 6987TIP3   OH220901   7.035   3.231   6.712
 6987TIP3    H120902   7.019   3.176   6.635
 6987TIP3    H220903   7.095   3.179   6.767
 6988TIP3   OH220904   3.912   1.633   2.120
 6988TIP3    H120905   3.858   1.593   2.051
 6988TIP3    H220906   3.992   1.581   2.121
 6989TIP3   OH220907   4.621   6.464   0.201
 6989TIP3    H120908   4.614   6.447   0.295
 6989TIP3    H220909   4.579   6.550   0.189
 6990TIP3   OH220910   3.160   1.331   5.249
 6990TIP3    H120911   3.229   1.294   5.194
 6990TIP3    H220912   3.082   1.279   5.227
 6991TIP3   OH220913   3.831   4.559   2.312
 6991TIP3    H120914   3.770   4.628   2.338
 6991TIP3    H220915   3.779   4.478   2.318
 6992TIP3   OH220916   0.558   5.857   1.324
 6992TIP3    H120917   0.476   5.858   1.374
 6992TIP3    H220918   0.609   5.785   1.361
 6993TIP3   OH220919   5.523   5.792   3.113
 6993TIP3    H120920   5.504   5.852   3.041
 6993TIP3    H220921   5.595   5.738   3.082
 6994TIP3   OH220922   8.411   4.254   1.112
 6994TIP3    H120923   8.355   4.325   1.144
 6994TIP3    H220924   8.436   4.206   1.191
 6995TIP3   OH220925   7.559   3.393   1.450
 6995TIP3    H120926   7.530   3.392   1.358
 6995TIP3    H220927   7.602   3.309   1.462
 6996TIP3   OH220928   8.355   2.499   5.641
 6996TIP3    H120929   8.440   2.504   5.685
 6996TIP3    H220930   8.332   2.406   5.642
 6997TIP3   OH220931   0.537   3.452   1.832
 6997TIP3    H120932   0.498   3.441   1.746
 6997TIP3    H220933   0.549   3.547   1.841
 6998TIP3   OH220934   0.063   2.635   4.887
 6998TIP3    H120935   0.039   2.695   4.957
 6998TIP3    H220936   0.153   2.659   4.864
 6999TIP3   OH220937   1.204   5.154   6.524
 6999TIP3    H120938   1.224   5.159   6.430
 6999TIP3    H220939   1.199   5.246   6.552
 7000TIP3   OH220940   6.149   5.444   5.542
 7000TIP3    H120941   6.195   5.526   5.522
 7000TIP3    H220942   6.080   5.439   5.476
 7001TIP3   OH220943   1.997   7.453   2.155
 7001TIP3    H120944   1.952   7.531   2.124
 7001TIP3    H220945   1.938   7.416   2.222
 7002TIP3   OH220946   5.136   2.046   4.135
 7002TIP3    H120947   5.166   1.989   4.206
 7002TIP3    H220948   5.042   2.030   4.129
 7003TIP3   OH220949   0.819   3.470   1.133
 7003TIP3    H120950   0.886   3.429   1.078
 7003TIP3    H220951   0.759   3.511   1.070
 7004TIP3   OH220952   0.962   1.775   6.687
 7004TIP3    H120953   1.011   1.831   6.627
 7004TIP3    H220954   1.027   1.743   6.749
 7005TIP3   OH220955   3.677   6.370   1.961
 7005TIP3    H120956   3.739   6.443   1.965
 7005TIP3    H220957   3.678   6.333   2.049
 7006TIP3   OH220958   5.720   1.982   4.132
 7006TIP3    H120959   5.737   2.011   4.221
 7006TIP3    H220960   5.638   2.025   4.107
 7007TIP3   OH220961   6.841   1.512   6.224
 7007TIP3    H120962   6.768   1.538   6.168
 7007TIP3    H220963   6.802   1.498   6.310
 7008TIP3   OH220964   7.028   4.914   5.923
 7008TIP3    H120965   7.013   5.007   5.904
 7008TIP3    H220966   7.089   4.914   5.997
 7009TIP3   OH220967   6.535   6.610   2.291
 7009TIP3    H120968   6.603   6.669   2.324
 7009TIP3    H220969   6.477   6.667   2.241
 7010TIP3   OH220970   2.559   0.749   6.116
 7010TIP3    H120971   2.578   0.660   6.085
 7010TIP3    H220972   2.629   0.769   6.178
 7011TIP3   OH220973   5.521   1.347   0.117
 7011TIP3    H120974   5.471   1.399   0.180
 7011TIP3    H220975   5.594   1.312   0.168
 7012TIP3   OH220976   3.379   5.475   0.945
 7012TIP3    H120977   3.420   5.395   0.913
 7012TIP3    H220978   3.450   5.524   0.987
 7013TIP3   OH220979   2.576   1.100   4.614
 7013TIP3    H120980   2.653   1.058   4.653
 7013TIP3    H220981   2.583   1.082   4.521
 7014TIP3   OH220982   0.184   1.578   6.798
 7014TIP3    H120983   0.215   1.588   6.708
 7014TIP3    H220984   0.097   1.540   6.790
 7015TIP3   OH220985   0.682   0.597   4.802
 7015TIP3    H120986   0.703   0.591   4.708
 7015TIP3    H220987   0.685   0.507   4.833
 7016TIP3   OH220988   8.306   5.380   1.765
 7016TIP3    H120989   8.397   5.398   1.742
 7016TIP3    H220990   8.282   5.451   1.825
 7017TIP3   OH220991   5.483   5.301   1.229
 7017TIP3    H120992   5.561   5.282   1.177
 7017TIP3    H220993   5.426   5.225   1.218
 7018TIP3   OH220994   1.875   4.981   2.946
 7018TIP3    H120995   1.883   5.051   3.011
 7018TIP3    H220996   1.929   4.910   2.981
 7019TIP3   OH220997   3.376   6.942   3.647
 7019TIP3    H120998   3.464   6.932   3.684
 7019TIP3    H220999   3.355   7.035   3.660
 7020TIP3   OH221000   2.523   3.553   3.010
 7020TIP3    H121001   2.545   3.608   2.935
 7020TIP3    H221002   2.499   3.469   2.972
 7021TIP3   OH221003   2.569   2.474   1.666
 7021TIP3    H121004   2.635   2.405   1.668
 7021TIP3    H221005   2.606   2.543   1.721
 7022TIP3   OH221006   3.714   2.151   4.233
 7022TIP3    H121007   3.802   2.118   4.250
 7022TIP3    H221008   3.671   2.149   4.318
 7023TIP3   OH221009   5.583   1.589   0.975
 7023TIP3    H121010   5.572   1.504   0.932
 7023TIP3    H221011   5.555   1.652   0.909
 7024TIP3   OH221012   4.540   3.940   1.661
 7024TIP3    H121013   4.614   3.984   1.704
 7024TIP3    H221014   4.469   4.005   1.663
 7025TIP3   OH221015   7.433   3.044   0.482
 7025TIP3    H121016   7.408   3.067   0.393
 7025TIP3    H221017   7.353   3.009   0.522
 7026TIP3   OH221018   5.303   7.556   6.359
 7026TIP3    H121019   5.380   7.499   6.363
 7026TIP3    H221020   5.229   7.495   6.364
 7027TIP3   OH221021   6.860   5.280   6.196
 7027TIP3    H121022   6.870   5.185   6.193
 7027TIP3    H221023   6.937   5.311   6.243
 7028TIP3   OH221024   6.868   5.056   0.927
 7028TIP3    H121025   6.855   4.983   0.866
 7028TIP3    H221026   6.956   5.040   0.964
 7029TIP3   OH221027   5.551   6.960   4.095
 7029TIP3    H121028   5.551   6.867   4.069
 7029TIP3    H221029   5.559   7.008   4.013
 7030TIP3   OH221030   3.970   5.402   2.125
 7030TIP3    H121031   3.968   5.319   2.078
 7030TIP3    H221032   3.991   5.467   2.057
 7031TIP3   OH221033   7.105   2.701   2.346
 7031TIP3    H121034   7.130   2.736   2.431
 7031TIP3    H221035   7.135   2.610   2.348
 7032TIP3   OH221036   2.912   0.840   5.042
 7032TIP3    H121037   2.893   0.896   5.117
 7032TIP3    H221038   2.993   0.876   5.006
 7033TIP3   OH221039   5.619   0.303   0.612
 7033TIP3    H121040   5.554   0.369   0.585
 7033TIP3    H221041   5.611   0.234   0.546
 7034TIP3   OH221042   7.454   5.518   2.678
 7034TIP3    H121043   7.534   5.571   2.673
 7034TIP3    H221044   7.383   5.581   2.662
 7035TIP3   OH221045   5.000   0.435   3.265
 7035TIP3    H121046   5.043   0.452   3.349
 7035TIP3    H221047   5.044   0.495   3.204
 7036TIP3   OH221048   2.692   3.315   0.257
 7036TIP3    H121049   2.775   3.351   0.229
 7036TIP3    H221050   2.628   3.351   0.196
 7037TIP3   OH221051   7.647   1.623   5.077
 7037TIP3    H121052   7.552   1.610   5.071
 7037TIP3    H221053   7.668   1.607   5.169
 7038TIP3   OH221054   7.462   4.735   0.348
 7038TIP3    H121055   7.520   4.668   0.311
 7038TIP3    H221056   7.374   4.701   0.335
 7039TIP3   OH221057   3.421   0.629   3.712
 7039TIP3    H121058   3.388   0.718   3.728
 7039TIP3    H221059   3.409   0.616   3.618
 7040TIP3   OH221060   2.798   5.233   0.180
 7040TIP3    H121061   2.873   5.248   0.238
 7040TIP3    H221062   2.828   5.165   0.120
 7041TIP3   OH221063   2.380   3.343   1.827
 7041TIP3    H121064   2.337   3.327   1.912
 7041TIP3    H221065   2.363   3.436   1.810
 7042TIP3   OH221066   1.135   2.659   4.966
 7042TIP3    H121067   1.113   2.701   5.049
 7042TIP3    H221068   1.227   2.634   4.975
 7043TIP3   OH221069   1.205   2.564   1.141
 7043TIP3    H121070   1.166   2.518   1.066
 7043TIP3    H221071   1.190   2.657   1.122
 7044TIP3   OH221072   6.060   4.035   2.151
 7044TIP3    H121073   6.087   4.112   2.101
 7044TIP3    H221074   5.966   4.044   2.162
 7045TIP3   OH221075   4.548   7.076   3.827
 7045TIP3    H121076   4.537   7.163   3.788
 7045TIP3    H221077   4.469   7.028   3.800
 7046TIP3   OH221078   0.813   7.386   1.487
 7046TIP3    H121079   0.848   7.419   1.569
 7046TIP3    H221080   0.884   7.398   1.424
 7047TIP3   OH221081   4.454   1.064   6.097
 7047TIP3    H121082   4.525   1.010   6.063
 7047TIP3    H221083   4.399   1.003   6.146
 7048TIP3   OH221084   6.875   2.782   4.952
 7048TIP3    H121085   6.941   2.762   4.885
 7048TIP3    H221086   6.850   2.873   4.935
 7049TIP3   OH221087   1.143   3.225   2.997
 7049TIP3    H121088   1.112   3.139   2.970
 7049TIP3    H221089   1.130   3.281   2.920
 7050TIP3   OH221090   0.318   7.001   3.409
 7050TIP3    H121091   0.326   7.051   3.490
 7050TIP3    H221092   0.401   7.014   3.364
 7051TIP3   OH221093   1.607   4.543   3.020
 7051TIP3    H121094   1.580   4.612   2.961
 7051TIP3    H221095   1.650   4.588   3.092
 7052TIP3   OH221096   7.715   7.795   2.770
 7052TIP3    H121097   7.794   7.840   2.802
 7052TIP3    H221098   7.743   7.752   2.690
 7053TIP3   OH221099   6.508   7.276   5.674
 7053TIP3    H121100   6.534   7.275   5.766
 7053TIP3    H221101   6.420   7.238   5.674
 7054TIP3   OH221102   4.058   5.771   6.082
 7054TIP3    H121103   4.078   5.864   6.095
 7054TIP3    H221104   3.986   5.753   6.143
 7055TIP3   OH221105   0.839   6.289   1.583
 7055TIP3    H121106   0.789   6.249   1.512
 7055TIP3    H221107   0.775   6.339   1.633
 7056TIP3   OH221108   3.181   6.572   4.208
 7056TIP3    H121109   3.148   6.647   4.257
 7056TIP3    H221110   3.134   6.576   4.124
 7057TIP3   OH221111   2.529   5.738   6.799
 7057TIP3    H121112   2.455   5.797   6.783
 7057TIP3    H221113   2.514   5.665   6.738
 7058TIP3   OH221114   1.445   5.332   6.085
 7058TIP3    H121115   1.535   5.352   6.059
 7058TIP3    H221116   1.416   5.409   6.133
 7059TIP3   OH221117   4.235   2.652   4.157
 7059TIP3    H121118   4.155   2.698   4.183
 7059TIP3    H221119   4.257   2.599   4.234
 7060TIP3   OH221120   4.994   4.624   1.045
 7060TIP3    H121121   4.988   4.609   0.951
 7060TIP3    H221122   4.983   4.719   1.054
 7061TIP3   OH221123   3.156   4.002   4.758
 7061TIP3    H121124   3.245   3.994   4.792
 7061TIP3    H221125   3.115   3.917   4.776
 7062TIP3   OH221126   3.214   1.991   5.840
 7062TIP3    H121127   3.237   2.049   5.768
 7062TIP3    H221128   3.230   1.903   5.807
 7063TIP3   OH221129   1.356   3.821   3.019
 7063TIP3    H121130   1.368   3.857   2.931
 7063TIP3    H221131   1.325   3.732   3.005
 7064TIP3   OH221132   1.226   1.596   4.719
 7064TIP3    H121133   1.214   1.505   4.748
 7064TIP3    H221134   1.148   1.616   4.668
 7065TIP3   OH221135   3.745   4.419   4.963
 7065TIP3    H121136   3.657   4.434   4.999
 7065TIP3    H221137   3.737   4.440   4.870
 7066TIP3   OH221138   0.267   7.090   4.242
 7066TIP3    H121139   0.212   7.109   4.166
 7066TIP3    H221140   0.249   6.998   4.261
 7067TIP3   OH221141   1.917   1.744   3.986
 7067TIP3    H121142   1.895   1.656   3.957
 7067TIP3    H221143   2.009   1.739   4.013
 7068TIP3   OH221144   3.879   0.519   1.084
 7068TIP3    H121145   3.835   0.481   1.009
 7068TIP3    H221146   3.894   0.610   1.059
 7069TIP3   OH221147   3.086   1.068   2.399
 7069TIP3    H121148   3.146   1.011   2.449
 7069TIP3    H221149   3.041   1.009   2.339
 7070TIP3   OH221150   0.115   3.797   0.567
 7070TIP3    H121151   0.039   3.787   0.624
 7070TIP3    H221152   0.082   3.774   0.480
 7071TIP3   OH221153   1.518   0.250   0.427
 7071TIP3    H121154   1.610   0.229   0.442
 7071TIP3    H221155   1.520   0.317   0.359
 7072TIP3   OH221156   8.389   2.588   5.385
 7072TIP3    H121157   8.389   2.542   5.470
 7072TIP3    H221158   8.373   2.519   5.321
 7073TIP3   OH221159   0.338   6.429   5.683
 7073TIP3    H121160   0.381   6.482   5.616
 7073TIP3    H221161   0.361   6.339   5.660
 7074TIP3   OH221162   3.159   1.714   0.177
 7074TIP3    H121163   3.194   1.631   0.146
 7074TIP3    H221164   3.174   1.776   0.106
 7075TIP3   OH221165   2.644   3.264   2.470
 7075TIP3    H121166   2.732   3.301   2.461
 7075TIP3    H221167   2.610   3.303   2.550
 7076TIP3   OH221168   3.371   0.514   3.146
 7076TIP3    H121169   3.346   0.448   3.081
 7076TIP3    H221170   3.384   0.594   3.094
 7077TIP3   OH221171   5.551   5.599   1.722
 7077TIP3    H121172   5.546   5.504   1.733
 7077TIP3    H221173   5.612   5.628   1.790
 7078TIP3   OH221174   5.719   3.162   4.216
 7078TIP3    H121175   5.634   3.139   4.252
 7078TIP3    H221176   5.772   3.186   4.293
 7079TIP3   OH221177   7.642   2.376   1.140
 7079TIP3    H121178   7.566   2.355   1.195
 7079TIP3    H221179   7.709   2.312   1.167
 7080TIP3   OH221180   1.768   1.576   5.841
 7080TIP3    H121181   1.792   1.596   5.750
 7080TIP3    H221182   1.851   1.584   5.889
 7081TIP3   OH221183   4.651   6.390   0.935
 7081TIP3    H121184   4.620   6.480   0.925
 7081TIP3    H221185   4.581   6.345   0.981
 7082TIP3   OH221186   2.859   1.305   0.389
 7082TIP3    H121187   2.936   1.293   0.334
 7082TIP3    H221188   2.825   1.391   0.365
 7083TIP3   OH221189   6.727   6.151   3.909
 7083TIP3    H121190   6.791   6.185   3.972
 7083TIP3    H221191   6.772   6.078   3.867
 7084TIP3   OH221192   4.158   7.475   0.520
 7084TIP3    H121193   4.159   7.428   0.436
 7084TIP3    H221194   4.217   7.424   0.576
 7085TIP3   OH221195   6.249   2.064   0.463
 7085TIP3    H121196   6.343   2.052   0.468
 7085TIP3    H221197   6.217   1.987   0.414
 7086TIP3   OH221198   0.862   5.529   6.188
 7086TIP3    H121199   0.795   5.517   6.120
 7086TIP3    H221200   0.865   5.624   6.201
 7087TIP3   OH221201   6.726   5.306   3.864
 7087TIP3    H121202   6.721   5.220   3.906
 7087TIP3    H221203   6.779   5.359   3.925
 7088TIP3   OH221204   1.457   7.354   2.407
 7088TIP3    H121205   1.402   7.277   2.414
 7088TIP3    H221206   1.462   7.389   2.496
 7089TIP3   OH221207   7.257   4.238   2.338
 7089TIP3    H121208   7.162   4.229   2.345
 7089TIP3    H221209   7.289   4.228   2.427
 7090TIP3   OH221210   6.412   1.728   0.486
 7090TIP3    H121211   6.449   1.781   0.557
 7090TIP3    H221212   6.317   1.733   0.500
 7091TIP3   OH221213   2.844   4.036   0.123
 7091TIP3    H121214   2.848   4.006   0.032
 7091TIP3    H221215   2.917   4.097   0.131
 7092TIP3   OH221216   5.789   4.115   2.160
 7092TIP3    H121217   5.762   4.128   2.251
 7092TIP3    H221218   5.708   4.094   2.113
 7093TIP3   OH221219   3.448   5.236   5.127
 7093TIP3    H121220   3.408   5.318   5.157
 7093TIP3    H221221   3.539   5.242   5.156
 7094TIP3   OH221222   7.158   6.630   2.715
 7094TIP3    H121223   7.119   6.547   2.742
 7094TIP3    H221224   7.234   6.605   2.662
 7095TIP3   OH221225   0.521   4.336   6.577
 7095TIP3    H121226   0.515   4.405   6.510
 7095TIP3    H221227   0.598   4.359   6.628
 7096TIP3   OH221228   2.034   7.822   4.339
 7096TIP3    H121229   1.968   7.757   4.316
 7096TIP3    H221230   1.984   7.897   4.371
 7097TIP3   OH221231   4.037   7.124   4.913
 7097TIP3    H121232   3.970   7.061   4.940
 7097TIP3    H221233   4.086   7.143   4.993
 7098TIP3   OH221234   1.515   6.535   6.647
 7098TIP3    H121235   1.427   6.510   6.675
 7098TIP3    H221236   1.573   6.485   6.705
 7099TIP3   OH221237   4.439   0.521   0.327
 7099TIP3    H121238   4.515   0.500   0.382
 7099TIP3    H221239   4.409   0.606   0.359
 7100TIP3   OH221240   1.048   4.924   5.162
 7100TIP3    H121241   1.016   4.834   5.152
 7100TIP3    H221242   1.064   4.954   5.073
 7101TIP3   OH221243   4.862   6.944   2.623
 7101TIP3    H121244   4.901   6.942   2.535
 7101TIP3    H221245   4.777   6.902   2.612
 7102TIP3   OH221246   6.323   7.619   1.278
 7102TIP3    H121247   6.350   7.603   1.369
 7102TIP3    H221248   6.236   7.580   1.272
 7103TIP3   OH221249   0.486   5.484   0.645
 7103TIP3    H121250   0.525   5.550   0.588
 7103TIP3    H221251   0.392   5.490   0.627
 7104TIP3   OH221252   6.150   5.003   4.459
 7104TIP3    H121253   6.054   5.001   4.450
 7104TIP3    H221254   6.169   4.936   4.525
 7105TIP3   OH221255   7.870   4.750   5.898
 7105TIP3    H121256   7.942   4.809   5.879
 7105TIP3    H221257   7.803   4.772   5.833
 7106TIP3   OH221258   2.698   3.809   5.850
 7106TIP3    H121259   2.774   3.830   5.904
 7106TIP3    H221260   2.734   3.763   5.774
 7107TIP3   OH221261   6.506   1.898   3.747
 7107TIP3    H121262   6.430   1.884   3.805
 7107TIP3    H221263   6.470   1.945   3.672
 7108TIP3   OH221264   1.855   1.501   3.824
 7108TIP3    H121265   1.857   1.463   3.735
 7108TIP3    H221266   1.843   1.425   3.881
 7109TIP3   OH221267   6.405   6.135   3.124
 7109TIP3    H121268   6.359   6.207   3.082
 7109TIP3    H221269   6.334   6.078   3.157
 7110TIP3   OH221270   2.005   5.413   4.083
 7110TIP3    H121271   1.989   5.330   4.128
 7110TIP3    H221272   2.033   5.388   3.995
 7111TIP3   OH221273   3.562   7.452   6.825
 7111TIP3    H121274   3.590   7.449   6.734
 7111TIP3    H221275   3.478   7.407   6.825
 7112TIP3   OH221276   6.049   0.300   0.962
 7112TIP3    H121277   6.061   0.279   0.869
 7112TIP3    H221278   5.962   0.339   0.967
 7113TIP3   OH221279   4.019   1.833   3.576
 7113TIP3    H121280   4.109   1.809   3.551
 7113TIP3    H221281   3.977   1.858   3.494
 7114TIP3   OH221282   4.852   7.210   1.492
 7114TIP3    H121283   4.772   7.195   1.441
 7114TIP3    H221284   4.906   7.265   1.435
 7115TIP3   OH221285   5.263   0.060   2.731
 7115TIP3    H121286   5.185   0.038   2.781
 7115TIP3    H221287   5.259   0.002   2.654
 7116TIP3   OH221288   0.513   5.061   0.332
 7116TIP3    H121289   0.590   5.008   0.353
 7116TIP3    H221290   0.458   5.002   0.279
 7117TIP3   OH221291   0.391   7.238   5.579
 7117TIP3    H121292   0.316   7.180   5.566
 7117TIP3    H221293   0.372   7.284   5.661
 7118TIP3   OH221294   3.659   2.675   4.159
 7118TIP3    H121295   3.579   2.724   4.176
 7118TIP3    H221296   3.648   2.594   4.209
 7119TIP3   OH221297   3.107   3.374   2.093
 7119TIP3    H121298   3.132   3.331   2.175
 7119TIP3    H221299   3.110   3.305   2.028
 7120TIP3   OH221300   7.625   6.991   0.305
 7120TIP3    H121301   7.661   7.000   0.393
 7120TIP3    H221302   7.554   7.055   0.301
 7121TIP3   OH221303   8.303   5.297   4.817
 7121TIP3    H121304   8.331   5.234   4.751
 7121TIP3    H221305   8.322   5.382   4.779
 7122TIP3   OH221306   3.149   6.797   3.058
 7122TIP3    H121307   3.231   6.817   3.103
 7122TIP3    H221308   3.093   6.873   3.074
 7123TIP3   OH221309   4.002   2.865   0.341
 7123TIP3    H121310   3.953   2.808   0.399
 7123TIP3    H221311   4.069   2.808   0.302
 7124TIP3   OH221312   5.517   6.459   6.574
 7124TIP3    H121313   5.593   6.485   6.626
 7124TIP3    H221314   5.550   6.454   6.484
 7125TIP3   OH221315   1.208   0.271   0.626
 7125TIP3    H121316   1.167   0.196   0.581
 7125TIP3    H221317   1.157   0.347   0.598
 7126TIP3   OH221318   0.619   0.430   0.463
 7126TIP3    H121319   0.627   0.439   0.368
 7126TIP3    H221320   0.702   0.390   0.490
 7127TIP3   OH221321   0.682   4.363   0.048
 7127TIP3    H121322   0.777   4.358   0.056
 7127TIP3    H221323   0.663   4.312  -0.031
 7128TIP3   OH221324   1.357   4.795   2.582
 7128TIP3    H121325   1.285   4.834   2.533
 7128TIP3    H221326   1.384   4.719   2.529
 7129TIP3   OH221327   2.453   5.544   0.789
 7129TIP3    H121328   2.372   5.587   0.818
 7129TIP3    H221329   2.447   5.455   0.825
 7130TIP3   OH221330   7.523   7.724   4.799
 7130TIP3    H121331   7.488   7.805   4.837
 7130TIP3    H221332   7.445   7.674   4.775
 7131TIP3   OH221333   1.371   0.930   4.586
 7131TIP3    H121334   1.454   0.956   4.627
 7131TIP3    H221335   1.323   0.887   4.657
 7132TIP3   OH221336   1.562   7.762   3.501
 7132TIP3    H121337   1.586   7.683   3.550
 7132TIP3    H221338   1.563   7.832   3.566
 7133TIP3   OH221339   1.232   5.073   1.475
 7133TIP3    H121340   1.200   5.120   1.398
 7133TIP3    H221341   1.288   5.136   1.520
 7134TIP3   OH221342   1.238   3.755   0.535
 7134TIP3    H121343   1.252   3.779   0.627
 7134TIP3    H221344   1.276   3.668   0.527
 7135TIP3   OH221345   2.621   4.789   0.701
 7135TIP3    H121346   2.643   4.796   0.794
 7135TIP3    H221347   2.679   4.720   0.668
 7136TIP3   OH221348   4.402   5.074   4.040
 7136TIP3    H121349   4.370   5.142   3.980
 7136TIP3    H221350   4.326   5.051   4.093
 7137TIP3   OH221351   1.104   4.372   1.410
 7137TIP3    H121352   1.071   4.434   1.475
 7137TIP3    H221353   1.199   4.383   1.411
 7138TIP3   OH221354   3.953   6.967   2.736
 7138TIP3    H121355   4.034   6.926   2.706
 7138TIP3    H221356   3.968   7.061   2.726
 7139TIP3   OH221357   4.053   3.051   4.656
 7139TIP3    H121358   4.020   2.970   4.694
 7139TIP3    H221359   4.131   3.026   4.606
 7140TIP3   OH221360   0.907   2.533   3.374
 7140TIP3    H121361   0.988   2.528   3.323
 7140TIP3    H221362   0.918   2.467   3.443
 7141TIP3   OH221363   0.532   2.085   0.035
 7141TIP3    H121364   0.449   2.130   0.014
 7141TIP3    H221365   0.595   2.156   0.046
 7142TIP3   OH221366   8.043   7.923   4.105
 7142TIP3    H121367   8.002   7.837   4.099
 7142TIP3    H221368   7.971   7.982   4.128
 7143TIP3   OH221369   7.374   4.644   1.931
 7143TIP3    H121370   7.417   4.681   2.009
 7143TIP3    H221371   7.407   4.555   1.925
 7144TIP3   OH221372   7.601   4.572   0.185
 7144TIP3    H121373   7.567   4.617   0.108
 7144TIP3    H221374   7.548   4.493   0.192
 7145TIP3   OH221375   7.105   1.287   0.028
 7145TIP3    H121376   7.131   1.283   0.120
 7145TIP3    H221377   7.023   1.238   0.024
 7146TIP3   OH221378   5.106   7.461   1.729
 7146TIP3    H121379   5.150   7.408   1.796
 7146TIP3    H221380   5.162   7.537   1.717
 7147TIP3   OH221381   7.297   1.309   2.132
 7147TIP3    H121382   7.225   1.260   2.092
 7147TIP3    H221383   7.343   1.349   2.058
 7148TIP3   OH221384   1.364   0.228   4.019
 7148TIP3    H121385   1.443   0.177   4.034
 7148TIP3    H221386   1.395   0.309   3.979
 7149TIP3   OH221387   4.200   6.983   5.472
 7149TIP3    H121388   4.159   7.067   5.450
 7149TIP3    H221389   4.176   6.925   5.400
 7150TIP3   OH221390   7.227   1.022   4.719
 7150TIP3    H121391   7.257   1.107   4.751
 7150TIP3    H221392   7.133   1.031   4.710
 7151TIP3   OH221393   6.337   5.507   1.543
 7151TIP3    H121394   6.408   5.566   1.571
 7151TIP3    H221395   6.321   5.451   1.620
 7152TIP3   OH221396   0.376   5.372   3.348
 7152TIP3    H121397   0.322   5.301   3.384
 7152TIP3    H221398   0.326   5.452   3.367
 7153TIP3   OH221399   2.449   2.352   4.164
 7153TIP3    H121400   2.527   2.365   4.110
 7153TIP3    H221401   2.451   2.259   4.187
 7154TIP3   OH221402   1.302   2.247   4.977
 7154TIP3    H121403   1.259   2.163   4.958
 7154TIP3    H221404   1.391   2.223   5.002
 7155TIP3   OH221405   2.641   1.725   4.325
 7155TIP3    H121406   2.550   1.704   4.304
 7155TIP3    H221407   2.681   1.744   4.241
 7156TIP3   OH221408   7.637   3.075   3.817
 7156TIP3    H121409   7.675   3.027   3.891
 7156TIP3    H221410   7.593   3.008   3.765
 7157TIP3   OH221411   0.303   6.261   1.946
 7157TIP3    H121412   0.360   6.321   1.995
 7157TIP3    H221413   0.362   6.215   1.886
 7158TIP3   OH221414   4.320   4.199   3.471
 7158TIP3    H121415   4.410   4.167   3.465
 7158TIP3    H221416   4.275   4.156   3.398
 7159TIP3   OH221417   0.398   5.024   3.253
 7159TIP3    H121418   0.364   4.971   3.181
 7159TIP3    H221419   0.421   5.108   3.212
 7160TIP3   OH221420   0.939   4.563   5.643
 7160TIP3    H121421   1.001   4.547   5.714
 7160TIP3    H221422   0.895   4.478   5.632
 7161TIP3   OH221423   1.025   5.560   2.986
 7161TIP3    H121424   0.952   5.602   3.032
 7161TIP3    H221425   1.013   5.466   3.001
 7162TIP3   OH221426   2.400   1.431   6.276
 7162TIP3    H121427   2.486   1.470   6.286
 7162TIP3    H221428   2.396   1.364   6.345
 7163TIP3   OH221429   4.507   4.644   3.949
 7163TIP3    H121430   4.447   4.571   3.931
 7163TIP3    H221431   4.553   4.618   4.029
 7164TIP3   OH221432   4.521   1.504   6.653
 7164TIP3    H121433   4.479   1.583   6.620
 7164TIP3    H221434   4.524   1.516   6.748
 7165TIP3   OH221435   1.359   7.361   0.801
 7165TIP3    H121436   1.351   7.452   0.773
 7165TIP3    H221437   1.440   7.359   0.853
 7166TIP3   OH221438   2.692   2.676   0.649
 7166TIP3    H121439   2.760   2.743   0.652
 7166TIP3    H221440   2.618   2.720   0.608
 7167TIP3   OH221441   4.949   5.767   2.466
 7167TIP3    H121442   5.000   5.800   2.540
 7167TIP3    H221443   4.968   5.827   2.395
 7168TIP3   OH221444   3.419   0.329   6.249
 7168TIP3    H121445   3.455   0.321   6.337
 7168TIP3    H221446   3.356   0.401   6.255
 7169TIP3   OH221447   4.343   6.759   1.586
 7169TIP3    H121448   4.319   6.693   1.522
 7169TIP3    H221449   4.415   6.808   1.545
 7170TIP3   OH221450   1.913   7.811   3.108
 7170TIP3    H121451   1.843   7.788   3.169
 7170TIP3    H221452   1.895   7.901   3.082
 7171TIP3   OH221453   1.847   6.357   4.261
 7171TIP3    H121454   1.853   6.404   4.344
 7171TIP3    H221455   1.925   6.384   4.212
 7172TIP3   OH221456   3.050   6.466   5.209
 7172TIP3    H121457   3.042   6.545   5.262
 7172TIP3    H221458   2.980   6.408   5.241
 7173TIP3   OH221459   5.609   2.688   3.522
 7173TIP3    H121460   5.614   2.599   3.557
 7173TIP3    H221461   5.582   2.677   3.431
 7174TIP3   OH221462   6.056   4.553   4.437
 7174TIP3    H121463   6.142   4.512   4.441
 7174TIP3    H221464   6.009   4.519   4.513
 7175TIP3   OH221465   7.575   2.130   4.663
 7175TIP3    H121466   7.653   2.161   4.710
 7175TIP3    H221467   7.599   2.135   4.571
 7176TIP3   OH221468   3.227   4.847   1.668
 7176TIP3    H121469   3.245   4.772   1.612
 7176TIP3    H221470   3.238   4.923   1.610
 7177TIP3   OH221471   0.057   6.230   1.503
 7177TIP3    H121472   0.107   6.167   1.555
 7177TIP3    H221473  -0.030   6.191   1.496
 7178TIP3   OH221474   0.589   6.982   2.791
 7178TIP3    H121475   0.552   6.895   2.781
 7178TIP3    H221476   0.684   6.969   2.783
 7179TIP3   OH221477   0.664   7.204   2.381
 7179TIP3    H121478   0.597   7.272   2.388
 7179TIP3    H221479   0.640   7.140   2.448
 7180TIP3   OH221480   2.336   2.628   0.553
 7180TIP3    H121481   2.307   2.632   0.462
 7180TIP3    H221482   2.330   2.718   0.584
 7181TIP3   OH221483   4.224   7.054   5.848
 7181TIP3    H121484   4.226   6.964   5.815
 7181TIP3    H221485   4.254   7.047   5.939
 7182TIP3   OH221486   1.946   1.438   6.713
 7182TIP3    H121487   1.867   1.449   6.660
 7182TIP3    H221488   2.011   1.403   6.653
 7183TIP3   OH221489   4.576   3.681   6.350
 7183TIP3    H121490   4.498   3.697   6.297
 7183TIP3    H221491   4.648   3.680   6.286
 7184TIP3   OH221492   3.727   3.464   5.017
 7184TIP3    H121493   3.769   3.528   4.958
 7184TIP3    H221494   3.645   3.441   4.973
 7185TIP3   OH221495   0.460   2.750   3.222
 7185TIP3    H121496   0.400   2.681   3.249
 7185TIP3    H221497   0.467   2.740   3.127
 7186TIP3   OH221498   8.321   2.612   0.981
 7186TIP3    H121499   8.348   2.649   0.898
 7186TIP3    H221500   8.389   2.640   1.043
 7187TIP3   OH221501   2.256   6.777   0.171
 7187TIP3    H121502   2.268   6.683   0.186
 7187TIP3    H221503   2.328   6.818   0.220
 7188TIP3   OH221504   7.337   1.880   2.653
 7188TIP3    H121505   7.375   1.965   2.675
 7188TIP3    H221506   7.244   1.899   2.638
 7189TIP3   OH221507   6.873   4.497   0.649
 7189TIP3    H121508   6.924   4.575   0.668
 7189TIP3    H221509   6.783   4.522   0.670
 7190TIP3   OH221510   4.509   5.291   6.258
 7190TIP3    H121511   4.464   5.293   6.173
 7190TIP3    H221512   4.521   5.198   6.276
 7191TIP3   OH221513   0.196   1.254   4.605
 7191TIP3    H121514   0.202   1.329   4.665
 7191TIP3    H221515   0.179   1.179   4.663
 7192TIP3   OH221516   1.261   6.769   3.471
 7192TIP3    H121517   1.224   6.697   3.419
 7192TIP3    H221518   1.193   6.790   3.535
 7193TIP3   OH221519   6.544   3.239   4.470
 7193TIP3    H121520   6.504   3.305   4.527
 7193TIP3    H221521   6.469   3.198   4.425
 7194TIP3   OH221522   8.161   5.232   5.743
 7194TIP3    H121523   8.148   5.161   5.680
 7194TIP3    H221524   8.217   5.295   5.696
 7195TIP3   OH221525   0.790   1.112   1.676
 7195TIP3    H121526   0.839   1.178   1.724
 7195TIP3    H221527   0.719   1.087   1.735
 7196TIP3   OH221528   1.266   2.190   1.264
 7196TIP3    H121529   1.309   2.162   1.345
 7196TIP3    H221530   1.296   2.127   1.198
 7197TIP3   OH221531   6.668   2.217   1.468
 7197TIP3    H121532   6.688   2.277   1.396
 7197TIP3    H221533   6.613   2.150   1.428
 7198TIP3   OH221534   5.848   2.123   3.911
 7198TIP3    H121535   5.820   2.060   3.977
 7198TIP3    H221536   5.856   2.206   3.959
 7199TIP3   OH221537   2.930   5.216   0.560
 7199TIP3    H121538   2.873   5.293   0.556
 7199TIP3    H221539   2.991   5.234   0.631
 7200TIP3   OH221540   7.062   4.961   1.623
 7200TIP3    H121541   7.104   4.973   1.538
 7200TIP3    H221542   6.975   5.000   1.612
 7201TIP3   OH221543   8.308   6.403   3.664
 7201TIP3    H121544   8.297   6.372   3.574
 7201TIP3    H221545   8.401   6.428   3.669
 7202TIP3   OH221546   7.445   3.676   1.224
 7202TIP3    H121547   7.388   3.673   1.147
 7202TIP3    H221548   7.500   3.598   1.217
 7203TIP3   OH221549   5.817   3.095   0.872
 7203TIP3    H121550   5.751   3.108   0.940
 7203TIP3    H221551   5.901   3.102   0.918
 7204TIP3   OH221552   2.318   6.841   0.983
 7204TIP3    H121553   2.326   6.891   1.064
 7204TIP3    H221554   2.253   6.774   1.003
 7205TIP3   OH221555   2.244   7.178   6.559
 7205TIP3    H121556   2.230   7.258   6.609
 7205TIP3    H221557   2.157   7.154   6.527
 7206TIP3   OH221558   4.828   4.456   2.253
 7206TIP3    H121559   4.748   4.480   2.300
 7206TIP3    H221560   4.800   4.448   2.161
 7207TIP3   OH221561   0.328   1.971   4.112
 7207TIP3    H121562   0.263   1.903   4.096
 7207TIP3    H221563   0.354   2.001   4.025
 7208TIP3   OH221564   0.839   1.128   5.112
 7208TIP3    H121565   0.765   1.069   5.101
 7208TIP3    H221566   0.827   1.165   5.200
 7209TIP3   OH221567   2.921   3.517   4.192
 7209TIP3    H121568   2.840   3.556   4.161
 7209TIP3    H221569   2.927   3.544   4.284
 7210TIP3   OH221570   3.210   5.181   6.208
 7210TIP3    H121571   3.148   5.245   6.174
 7210TIP3    H221572   3.244   5.222   6.288
 7211TIP3   OH221573   2.937   0.420   1.163
 7211TIP3    H121574   2.867   0.410   1.099
 7211TIP3    H221575   2.974   0.333   1.172
 7212TIP3   OH221576   1.507   1.326   2.814
 7212TIP3    H121577   1.558   1.336   2.895
 7212TIP3    H221578   1.422   1.294   2.843
 7213TIP3   OH221579   5.315   0.112   1.537
 7213TIP3    H121580   5.394   0.081   1.582
 7213TIP3    H221581   5.243   0.070   1.585
 7214TIP3   OH221582   0.762   3.656   3.969
 7214TIP3    H121583   0.741   3.606   4.047
 7214TIP3    H221584   0.808   3.593   3.912
 7215TIP3   OH221585   2.245   2.159   2.740
 7215TIP3    H121586   2.287   2.075   2.724
 7215TIP3    H221587   2.248   2.204   2.656
 7216TIP3   OH221588   2.567   2.013   4.673
 7216TIP3    H121589   2.549   2.107   4.663
 7216TIP3    H221590   2.566   1.979   4.584
 7217TIP3   OH221591   4.871   2.921   4.389
 7217TIP3    H121592   4.798   2.912   4.328
 7217TIP3    H221593   4.877   2.836   4.432
 7218TIP3   OH221594   3.229   5.783   6.054
 7218TIP3    H121595   3.257   5.692   6.048
 7218TIP3    H221596   3.281   5.829   5.988
 7219TIP3   OH221597   3.343   5.742   0.639
 7219TIP3    H121598   3.289   5.743   0.718
 7219TIP3    H221599   3.427   5.779   0.667
 7220TIP3   OH221600   3.861   2.228   1.261
 7220TIP3    H121601   3.782   2.262   1.218
 7220TIP3    H221602   3.836   2.217   1.353
 7221TIP3   OH221603   1.339   1.394   3.818
 7221TIP3    H121604   1.412   1.365   3.873
 7221TIP3    H221605   1.372   1.390   3.729
 7222TIP3   OH221606   1.609   7.872   3.247
 7222TIP3    H121607   1.607   7.968   3.251
 7222TIP3    H221608   1.597   7.844   3.337
 7223TIP3   OH221609   8.146   0.370   6.294
 7223TIP3    H121610   8.220   0.341   6.240
 7223TIP3    H221611   8.100   0.289   6.316
 7224TIP3   OH221612   3.471   0.583   5.756
 7224TIP3    H121613   3.547   0.531   5.781
 7224TIP3    H221614   3.478   0.591   5.661
 7225TIP3   OH221615   7.704   4.874   4.886
 7225TIP3    H121616   7.689   4.920   4.969
 7225TIP3    H221617   7.623   4.825   4.871
 7226TIP3   OH221618   6.809   6.489   3.223
 7226TIP3    H121619   6.743   6.489   3.293
 7226TIP3    H221620   6.892   6.501   3.268
 7227TIP3   OH221621   4.872   2.164   0.905
 7227TIP3    H121622   4.925   2.108   0.961
 7227TIP3    H221623   4.929   2.237   0.883
 7228TIP3   OH221624   4.764   1.722   3.566
 7228TIP3    H121625   4.720   1.641   3.539
 7228TIP3    H221626   4.854   1.695   3.587
 7229TIP3   OH221627   0.453   0.443   0.918
 7229TIP3    H121628   0.456   0.411   1.008
 7229TIP3    H221629   0.382   0.394   0.877
 7230TIP3   OH221630   0.473   6.750   1.871
 7230TIP3    H121631   0.379   6.733   1.872
 7230TIP3    H221632   0.513   6.668   1.843
 7231TIP3   OH221633   1.895   7.837   3.423
 7231TIP3    H121634   1.959   7.885   3.371
 7231TIP3    H221635   1.862   7.901   3.487
 7232TIP3   OH221636   0.746   2.048   4.476
 7232TIP3    H121637   0.795   1.972   4.507
 7232TIP3    H221638   0.659   2.014   4.455
 7233TIP3   OH221639   1.879   5.073   2.374
 7233TIP3    H121640   1.956   5.072   2.317
 7233TIP3    H221641   1.903   5.130   2.447
 7234TIP3   OH221642   8.299   3.758  -0.039
 7234TIP3    H121643   8.366   3.780   0.026
 7234TIP3    H221644   8.226   3.724   0.014
 7235TIP3   OH221645   5.226   3.820   3.216
 7235TIP3    H121646   5.226   3.735   3.258
 7235TIP3    H221647   5.302   3.865   3.253
 7236TIP3   OH221648   0.893   3.781   3.617
 7236TIP3    H121649   0.801   3.761   3.639
 7236TIP3    H221650   0.915   3.718   3.549
 7237TIP3   OH221651   5.461   3.011   1.615
 7237TIP3    H121652   5.403   2.997   1.540
 7237TIP3    H221653   5.403   3.015   1.691
 7238TIP3   OH221654   6.691   5.542   1.921
 7238TIP3    H121655   6.689   5.516   2.013
 7238TIP3    H221656   6.774   5.588   1.910
 7239TIP3   OH221657   2.878   4.029   1.922
 7239TIP3    H121658   2.885   4.106   1.978
 7239TIP3    H221659   2.954   4.035   1.863
 7240TIP3   OH221660   7.880   6.213   5.132
 7240TIP3    H121661   7.840   6.242   5.214
 7240TIP3    H221662   7.891   6.119   5.142
 7241TIP3   OH221663   2.587   5.506   5.444
 7241TIP3    H121664   2.657   5.465   5.392
 7241TIP3    H221665   2.631   5.577   5.490
 7242TIP3   OH221666   3.612   7.509   6.202
 7242TIP3    H121667   3.660   7.519   6.120
 7242TIP3    H221668   3.557   7.431   6.188
 7243TIP3   OH221669   4.624   6.716   4.998
 7243TIP3    H121670   4.604   6.699   5.090
 7243TIP3    H221671   4.679   6.794   4.998
 7244TIP3   OH221672   4.631   6.963   0.050
 7244TIP3    H121673   4.646   6.969   0.144
 7244TIP3    H221674   4.563   7.028   0.032
 7245TIP3   OH221675   0.149   1.005   0.200
 7245TIP3    H121676   0.212   0.985   0.270
 7245TIP3    H221677   0.074   0.948   0.218
 7246TIP3   OH221678   8.005   0.127   2.997
 7246TIP3    H121679   8.018   0.088   2.911
 7246TIP3    H221680   8.047   0.213   2.991
 7247TIP3   OH221681   6.028   1.698   2.053
 7247TIP3    H121682   6.044   1.662   2.141
 7247TIP3    H221683   6.114   1.729   2.024
 7248TIP3   OH221684   5.115   0.301   6.774
 7248TIP3    H121685   5.191   0.320   6.828
 7248TIP3    H221686   5.126   0.356   6.697
 7249TIP3   OH221687   8.354   3.628   6.154
 7249TIP3    H121688   8.353   3.694   6.223
 7249TIP3    H221689   8.310   3.553   6.192
 7250TIP3   OH221690   4.991   3.373   0.937
 7250TIP3    H121691   4.953   3.288   0.913
 7250TIP3    H221692   4.991   3.373   1.032
 7251TIP3   OH221693   7.842   3.636   0.490
 7251TIP3    H121694   7.915   3.647   0.430
 7251TIP3    H221695   7.785   3.571   0.448
 7252TIP3   OH221696   3.284   4.635   2.179
 7252TIP3    H121697   3.264   4.676   2.095
 7252TIP3    H221698   3.363   4.583   2.162
 7253TIP3   OH221699   5.402   3.078   4.347
 7253TIP3    H121700   5.307   3.091   4.336
 7253TIP3    H221701   5.437   3.167   4.353
 7254TIP3   OH221702   4.827   2.130   2.177
 7254TIP3    H121703   4.864   2.207   2.219
 7254TIP3    H221704   4.876   2.056   2.213
 7255TIP3   OH221705   5.292   1.833   6.560
 7255TIP3    H121706   5.210   1.789   6.581
 7255TIP3    H221707   5.283   1.860   6.469
 7256TIP3   OH221708   5.222   6.290   2.844
 7256TIP3    H121709   5.229   6.341   2.763
 7256TIP3    H221710   5.312   6.261   2.862
 7257TIP3   OH221711   5.590   1.892   2.397
 7257TIP3    H121712   5.641   1.837   2.338
 7257TIP3    H221713   5.542   1.951   2.338
 7258TIP3   OH221714   8.257   1.421   1.988
 7258TIP3    H121715   8.193   1.381   1.929
 7258TIP3    H221716   8.241   1.515   1.980
 7259TIP3   OH221717   2.517   1.113   3.065
 7259TIP3    H121718   2.504   1.033   3.014
 7259TIP3    H221719   2.447   1.172   3.037
 7260TIP3   OH221720   7.120   1.921   0.037
 7260TIP3    H121721   7.035   1.882   0.060
 7260TIP3    H221722   7.099   2.011   0.013
 7261TIP3   OH221723   7.355   6.626   5.174
 7261TIP3    H121724   7.265   6.596   5.160
 7261TIP3    H221725   7.365   6.629   5.269
 7262TIP3   OH221726   0.555   5.110   1.703
 7262TIP3    H121727   0.511   5.058   1.770
 7262TIP3    H221728   0.626   5.154   1.749
 7263TIP3   OH221729   1.093   2.070   2.175
 7263TIP3    H121730   1.111   2.086   2.082
 7263TIP3    H221731   1.045   2.148   2.204
 7264TIP3   OH221732   1.955   6.367   6.489
 7264TIP3    H121733   2.024   6.352   6.424
 7264TIP3    H221734   1.882   6.402   6.438
 7265TIP3   OH221735   4.254   3.703   1.779
 7265TIP3    H121736   4.216   3.768   1.838
 7265TIP3    H221737   4.207   3.714   1.697
 7266TIP3   OH221738   3.799   1.540   3.078
 7266TIP3    H121739   3.844   1.547   3.162
 7266TIP3    H221740   3.726   1.480   3.094
 7267TIP3   OH221741   8.337   7.271   3.402
 7267TIP3    H121742   8.292   7.342   3.449
 7267TIP3    H221743   8.275   7.243   3.335
 7268TIP3   OH221744   5.102   7.942   3.881
 7268TIP3    H121745   5.025   7.957   3.936
 7268TIP3    H221746   5.119   7.848   3.889
 7269TIP3   OH221747   5.078   7.333   0.156
 7269TIP3    H121748   5.038   7.350   0.241
 7269TIP3    H221749   5.005   7.306   0.100
 7270TIP3   OH221750   3.690   2.627   4.561
 7270TIP3    H121751   3.619   2.690   4.554
 7270TIP3    H221752   3.676   2.584   4.646
 7271TIP3   OH221753   5.025   1.510   5.827
 7271TIP3    H121754   4.951   1.452   5.811
 7271TIP3    H221755   5.071   1.514   5.743
 7272TIP3   OH221756   5.384   6.926   2.391
 7272TIP3    H121757   5.294   6.956   2.397
 7272TIP3    H221758   5.429   6.970   2.464
 7273TIP3   OH221759   1.802   7.620   3.303
 7273TIP3    H121760   1.845   7.688   3.357
 7273TIP3    H221761   1.721   7.600   3.350
 7274TIP3   OH221762   2.519   3.719   6.499
 7274TIP3    H121763   2.576   3.644   6.486
 7274TIP3    H221764   2.433   3.682   6.519
 7275TIP3   OH221765   1.711   0.357   4.174
 7275TIP3    H121766   1.687   0.268   4.150
 7275TIP3    H221767   1.763   0.389   4.100
 7276TIP3   OH221768   2.208   7.498   1.119
 7276TIP3    H121769   2.182   7.491   1.027
 7276TIP3    H221770   2.270   7.427   1.132
 7277TIP3   OH221771   7.935   6.840   4.713
 7277TIP3    H121772   7.925   6.820   4.806
 7277TIP3    H221773   7.917   6.758   4.668
 7278TIP3   OH221774   2.280   7.478   5.764
 7278TIP3    H121775   2.237   7.537   5.702
 7278TIP3    H221776   2.370   7.509   5.768
 7279TIP3   OH221777   3.379   5.427   3.947
 7279TIP3    H121778   3.456   5.421   4.004
 7279TIP3    H221779   3.307   5.445   4.007
 7280TIP3   OH221780   5.370   0.784   1.321
 7280TIP3    H121781   5.392   0.845   1.251
 7280TIP3    H221782   5.454   0.747   1.348
 7281TIP3   OH221783   0.563   1.898   4.276
 7281TIP3    H121784   0.490   1.877   4.218
 7281TIP3    H221785   0.619   1.956   4.224
 7282TIP3   OH221786   4.848   1.793   0.314
 7282TIP3    H121787   4.924   1.748   0.277
 7282TIP3    H221788   4.863   1.792   0.408
 7283TIP3   OH221789   2.000   7.131   5.833
 7283TIP3    H121790   1.999   7.094   5.921
 7283TIP3    H221791   2.093   7.148   5.816
 7284TIP3   OH221792   4.998   4.394   0.402
 7284TIP3    H121793   4.924   4.348   0.362
 7284TIP3    H221794   5.023   4.340   0.477
 7285TIP3   OH221795   1.067   3.095   3.838
 7285TIP3    H121796   1.088   3.002   3.851
 7285TIP3    H221797   1.151   3.139   3.838
 7286TIP3   OH221798   7.899   3.239   3.692
 7286TIP3    H121799   7.816   3.195   3.677
 7286TIP3    H221800   7.938   3.193   3.767
 7287TIP3   OH221801   3.262   3.876   3.985
 7287TIP3    H121802   3.264   3.796   3.932
 7287TIP3    H221803   3.354   3.901   3.995
 7288TIP3   OH221804   0.405   0.252   1.999
 7288TIP3    H121805   0.418   0.282   1.909
 7288TIP3    H221806   0.448   0.166   2.002
 7289TIP3   OH221807   4.405   5.363   3.490
 7289TIP3    H121808   4.417   5.431   3.424
 7289TIP3    H221809   4.445   5.285   3.450
 7290TIP3   OH221810   3.216   0.072   3.898
 7290TIP3    H121811   3.183   0.149   3.853
 7290TIP3    H221812   3.173   0.073   3.984
 7291TIP3   OH221813   3.624   2.185   5.728
 7291TIP3    H121814   3.543   2.228   5.701
 7291TIP3    H221815   3.648   2.227   5.811
 7292TIP3   OH221816   3.791   6.117   6.027
 7292TIP3    H121817   3.748   6.033   6.040
 7292TIP3    H221818   3.884   6.096   6.021
 7293TIP3   OH221819   5.265   3.305   1.733
 7293TIP3    H121820   5.351   3.318   1.773
 7293TIP3    H221821   5.246   3.388   1.688
 7294TIP3   OH221822   8.249   3.640   0.611
 7294TIP3    H121823   8.171   3.676   0.651
 7294TIP3    H221824   8.237   3.545   0.615
 7295TIP3   OH221825   7.004   5.741   6.753
 7295TIP3    H121826   6.966   5.714   6.669
 7295TIP3    H221827   7.059   5.816   6.731
 7296TIP3   OH221828   6.427   3.913   3.735
 7296TIP3    H121829   6.364   3.983   3.752
 7296TIP3    H221830   6.458   3.887   3.822
 7297TIP3   OH221831   1.530   1.736   4.117
 7297TIP3    H121832   1.561   1.766   4.032
 7297TIP3    H221833   1.443   1.700   4.101
 7298TIP3   OH221834   7.215   3.328   6.020
 7298TIP3    H121835   7.265   3.361   5.946
 7298TIP3    H221836   7.213   3.233   6.008
 7299TIP3   OH221837   3.787   7.830   6.033
 7299TIP3    H121838   3.837   7.877   6.100
 7299TIP3    H221839   3.820   7.865   5.950
 7300TIP3   OH221840   1.705   2.745   1.313
 7300TIP3    H121841   1.703   2.829   1.266
 7300TIP3    H221842   1.629   2.698   1.281
 7301TIP3   OH221843   5.689   0.913   6.608
 7301TIP3    H121844   5.733   0.909   6.523
 7301TIP3    H221845   5.601   0.878   6.592
 7302TIP3   OH221846   3.431   4.084   5.044
 7302TIP3    H121847   3.356   4.120   5.092
 7302TIP3    H221848   3.499   4.073   5.110
 7303TIP3   OH221849   4.455   6.776   2.988
 7303TIP3    H121850   4.448   6.717   3.063
 7303TIP3    H221851   4.378   6.757   2.935
 7304TIP3   OH221852   1.124   6.973   4.502
 7304TIP3    H121853   1.074   7.040   4.548
 7304TIP3    H221854   1.068   6.896   4.503
 7305TIP3   OH221855   5.146   2.516   4.592
 7305TIP3    H121856   5.175   2.436   4.547
 7305TIP3    H221857   5.210   2.582   4.567
 7306TIP3   OH221858   4.092   5.848   1.790
 7306TIP3    H121859   4.027   5.914   1.767
 7306TIP3    H221860   4.041   5.774   1.822
 7307TIP3   OH221861   6.875   4.750   3.188
 7307TIP3    H121862   6.787   4.785   3.201
 7307TIP3    H221863   6.875   4.717   3.098
 7308TIP3   OH221864   4.557   0.586   0.044
 7308TIP3    H121865   4.520   0.530   0.112
 7308TIP3    H221866   4.643   0.611   0.078
 7309TIP3   OH221867   1.220   5.719   0.608
 7309TIP3    H121868   1.181   5.806   0.606
 7309TIP3    H221869   1.205   5.688   0.697
 7310TIP3   OH221870   6.970   2.875   4.313
 7310TIP3    H121871   6.971   2.942   4.244
 7310TIP3    H221872   6.925   2.918   4.386
 7311TIP3   OH221873   1.431   3.247   0.340
 7311TIP3    H121874   1.371   3.321   0.341
 7311TIP3    H221875   1.517   3.285   0.320
 7312TIP3   OH221876   1.244   2.499   1.651
 7312TIP3    H121877   1.171   2.502   1.588
 7312TIP3    H221878   1.218   2.560   1.720
 7313TIP3   OH221879   2.768   0.639   4.499
 7313TIP3    H121880   2.797   0.549   4.511
 7313TIP3    H221881   2.839   0.692   4.536
 7314TIP3   OH221882   6.397   0.150   0.350
 7314TIP3    H121883   6.469   0.174   0.292
 7314TIP3    H221884   6.440   0.111   0.426
 7315TIP3   OH221885   7.766   6.994   3.513
 7315TIP3    H121886   7.738   6.955   3.430
 7315TIP3    H221887   7.685   7.000   3.564
 7316TIP3   OH221888   2.174   1.783   0.509
 7316TIP3    H121889   2.126   1.852   0.464
 7316TIP3    H221890   2.258   1.777   0.464
 7317TIP3   OH221891   0.482   5.279   4.516
 7317TIP3    H121892   0.452   5.361   4.478
 7317TIP3    H221893   0.513   5.227   4.441
 7318TIP3   OH221894   0.545   4.523   4.744
 7318TIP3    H121895   0.584   4.608   4.723
 7318TIP3    H221896   0.473   4.544   4.803
 7319TIP3   OH221897   0.120   5.423   5.021
 7319TIP3    H121898   0.193   5.470   4.980
 7319TIP3    H221899   0.090   5.482   5.090
 7320TIP3   OH221900   4.798   4.063   0.973
 7320TIP3    H121901   4.747   4.117   0.913
 7320TIP3    H221902   4.885   4.102   0.974
 7321TIP3   OH221903   6.274   6.935   2.715
 7321TIP3    H121904   6.211   6.993   2.671
 7321TIP3    H221905   6.221   6.885   2.777
 7322TIP3   OH221906   1.503   4.073   4.195
 7322TIP3    H121907   1.505   4.152   4.250
 7322TIP3    H221908   1.580   4.081   4.138
 7323TIP3   OH221909   3.365   6.343   6.072
 7323TIP3    H121910   3.389   6.288   6.146
 7323TIP3    H221911   3.412   6.425   6.087
 7324TIP3   OH221912   7.957   4.257   3.448
 7324TIP3    H121913   7.865   4.246   3.425
 7324TIP3    H221914   7.971   4.351   3.447
 7325TIP3   OH221915   6.558   2.466   1.042
 7325TIP3    H121916   6.599   2.505   0.965
 7325TIP3    H221917   6.473   2.509   1.049
 7326TIP3   OH221918   5.591   6.413   6.333
 7326TIP3    H121919   5.657   6.344   6.325
 7326TIP3    H221920   5.634   6.491   6.298
 7327TIP3   OH221921   1.920   3.720   6.448
 7327TIP3    H121922   1.874   3.648   6.490
 7327TIP3    H221923   1.948   3.685   6.364
 7328TIP3   OH221924   3.098   2.183   1.831
 7328TIP3    H121925   3.171   2.127   1.858
 7328TIP3    H221926   3.131   2.230   1.754
 7329TIP3   OH221927   0.588   3.756   6.750
 7329TIP3    H121928   0.501   3.750   6.788
 7329TIP3    H221929   0.620   3.842   6.777
 7330TIP3   OH221930   5.997   0.223   6.170
 7330TIP3    H121931   5.954   0.273   6.101
 7330TIP3    H221932   6.084   0.262   6.178
 7331TIP3   OH221933   4.437   2.368   6.580
 7331TIP3    H121934   4.453   2.301   6.514
 7331TIP3    H221935   4.460   2.450   6.537
 7332TIP3   OH221936   6.730   3.445   1.036
 7332TIP3    H121937   6.659   3.391   1.002
 7332TIP3    H221938   6.804   3.425   0.979
 7333TIP3   OH221939   0.856   4.855   2.112
 7333TIP3    H121940   0.888   4.908   2.185
 7333TIP3    H221941   0.925   4.791   2.096
 7334TIP3   OH221942   0.517   3.401   5.901
 7334TIP3    H121943   0.593   3.441   5.859
 7334TIP3    H221944   0.461   3.372   5.829
 7335TIP3   OH221945   1.471   6.406   5.775
 7335TIP3    H121946   1.381   6.414   5.744
 7335TIP3    H221947   1.524   6.407   5.695
 7336TIP3   OH221948   3.649   4.842   2.636
 7336TIP3    H121949   3.641   4.831   2.541
 7336TIP3    H221950   3.612   4.928   2.654
 7337TIP3   OH221951   0.175   4.947   3.824
 7337TIP3    H121952   0.182   5.027   3.876
 7337TIP3    H221953   0.082   4.941   3.802
 7338TIP3   OH221954   1.546   7.710   4.059
 7338TIP3    H121955   1.598   7.631   4.048
 7338TIP3    H221956   1.609   7.782   4.048
 7339TIP3   OH221957   1.386   3.785   0.102
 7339TIP3    H121958   1.307   3.780   0.156
 7339TIP3    H221959   1.456   3.754   0.160
 7340TIP3   OH221960   4.691   7.157   1.109
 7340TIP3    H121961   4.642   7.103   1.171
 7340TIP3    H221962   4.680   7.113   1.025
 7341TIP3   OH221963   8.116   7.887   4.408
 7341TIP3    H121964   8.123   7.837   4.326
 7341TIP3    H221965   8.200   7.873   4.452
 7342TIP3   OH221966   4.735   7.774   5.472
 7342TIP3    H121967   4.693   7.856   5.496
 7342TIP3    H221968   4.784   7.747   5.550
 7343TIP3   OH221969   0.635   2.382   2.083
 7343TIP3    H121970   0.648   2.320   2.011
 7343TIP3    H221971   0.679   2.462   2.054
 7344TIP3   OH221972   5.006   7.809   3.386
 7344TIP3    H121973   5.096   7.797   3.355
 7344TIP3    H221974   5.013   7.874   3.456
 7345TIP3   OH221975   0.511   2.941   3.597
 7345TIP3    H121976   0.576   2.956   3.665
 7345TIP3    H221977   0.437   2.901   3.642
 7346TIP3   OH221978   3.872   4.760   4.112
 7346TIP3    H121979   3.822   4.775   4.191
 7346TIP3    H221980   3.964   4.766   4.139
 7347TIP3   OH221981   3.388   2.393   6.161
 7347TIP3    H121982   3.449   2.454   6.119
 7347TIP3    H221983   3.378   2.427   6.250
 7348TIP3   OH221984   5.717   6.357   0.249
 7348TIP3    H121985   5.700   6.405   0.331
 7348TIP3    H221986   5.710   6.265   0.273
 7349TIP3   OH221987   8.063   0.050   2.742
 7349TIP3    H121988   8.068  -0.042   2.768
 7349TIP3    H221989   8.029   0.047   2.652
 7350TIP3   OH221990   0.572   2.349   5.941
 7350TIP3    H121991   0.587   2.390   6.026
 7350TIP3    H221992   0.523   2.269   5.962
 7351TIP3   OH221993   5.762   2.324   2.904
 7351TIP3    H121994   5.765   2.418   2.925
 7351TIP3    H221995   5.799   2.282   2.981
 7352TIP3   OH221996   1.080   0.449   1.806
 7352TIP3    H121997   1.035   0.419   1.885
 7352TIP3    H221998   1.119   0.369   1.769
 7353TIP3   OH221999   7.014   2.098   3.301
 7353TIP3    H122000   6.965   2.107   3.219
 7353TIP3    H222001   6.964   2.148   3.365
 7354TIP3   OH222002   3.430   5.254   0.719
 7354TIP3    H122003   3.439   5.160   0.738
 7354TIP3    H222004   3.518   5.290   0.730
 7355TIP3   OH222005   5.995   5.925   3.998
 7355TIP3    H122006   6.007   5.997   3.936
 7355TIP3    H222007   5.904   5.932   4.025
 7356TIP3   OH222008   5.423   0.615   3.239
 7356TIP3    H122009   5.510   0.634   3.205
 7356TIP3    H222010   5.372   0.589   3.162
 7357TIP3   OH222011   4.167   3.397   0.357
 7357TIP3    H122012   4.260   3.403   0.333
 7357TIP3    H222013   4.152   3.304   0.373
 7358TIP3   OH222014   5.702   3.848   0.296
 7358TIP3    H122015   5.791   3.884   0.294
 7358TIP3    H222016   5.669   3.873   0.382
 7359TIP3   OH222017   8.001   1.675   1.303
 7359TIP3    H122018   8.088   1.683   1.341
 7359TIP3    H222019   8.011   1.708   1.213
 7360TIP3   OH222020   4.180   3.201   5.909
 7360TIP3    H122021   4.264   3.159   5.929
 7360TIP3    H222022   4.164   3.181   5.817
 7361TIP3   OH222023   2.208   2.621   4.819
 7361TIP3    H122024   2.263   2.687   4.861
 7361TIP3    H222025   2.246   2.537   4.845
 7362TIP3   OH222026   0.802   5.782   6.296
 7362TIP3    H122027   0.872   5.847   6.287
 7362TIP3    H222028   0.730   5.817   6.243
 7363TIP3   OH222029   6.644   5.365   3.468
 7363TIP3    H122030   6.667   5.433   3.404
 7363TIP3    H222031   6.640   5.412   3.552
 7364TIP3   OH222032   4.830   6.346   2.023
 7364TIP3    H122033   4.918   6.360   1.989
 7364TIP3    H222034   4.778   6.323   1.947
 7365TIP3   OH222035   1.972   0.785   0.751
 7365TIP3    H122036   1.994   0.834   0.830
 7365TIP3    H222037   2.056   0.773   0.706
 7366TIP3   OH222038   2.361   4.582   5.936
 7366TIP3    H122039   2.450   4.565   5.967
 7366TIP3    H222040   2.316   4.619   6.012
 7367TIP3   OH222041   0.418   2.065   0.696
 7367TIP3    H122042   0.476   2.089   0.768
 7367TIP3    H222043   0.474   2.018   0.634
 7368TIP3   OH222044   3.164   3.509   3.732
 7368TIP3    H122045   3.083   3.550   3.763
 7368TIP3    H222046   3.233   3.570   3.757
 7369TIP3   OH222047   3.184   7.291   1.932
 7369TIP3    H122048   3.199   7.336   2.015
 7369TIP3    H222049   3.100   7.246   1.944
 7370TIP3   OH222050   8.411   1.078   4.971
 7370TIP3    H122051   8.352   1.152   4.987
 7370TIP3    H222052   8.400   1.022   5.048
 7371TIP3   OH222053   0.919   2.682   2.715
 7371TIP3    H122054   0.927   2.606   2.773
 7371TIP3    H222055   0.985   2.667   2.647
 7372TIP3   OH222056   1.070   4.735   2.025
 7372TIP3    H122057   1.076   4.697   1.937
 7372TIP3    H222058   1.107   4.668   2.082
 7373TIP3   OH222059   1.024   2.962   0.031
 7373TIP3    H122060   0.989   2.987   0.117
 7373TIP3    H222061   0.965   2.892   0.002
 7374TIP3   OH222062   6.262   1.045   2.670
 7374TIP3    H122063   6.281   1.088   2.753
 7374TIP3    H222064   6.172   1.012   2.680
 7375TIP3   OH222065   0.641   4.255   2.358
 7375TIP3    H122066   0.561   4.258   2.410
 7375TIP3    H222067   0.705   4.211   2.414
 7376TIP3   OH222068   4.215   7.180   6.538
 7376TIP3    H122069   4.246   7.200   6.626
 7376TIP3    H222070   4.259   7.098   6.514
 7377TIP3   OH222071   0.240   6.505   1.294
 7377TIP3    H122072   0.148   6.529   1.296
 7377TIP3    H222073   0.263   6.491   1.386
 7378TIP3   OH222074   7.309   0.226   0.876
 7378TIP3    H122075   7.388   0.216   0.822
 7378TIP3    H222076   7.288   0.319   0.872
 7379TIP3   OH222077   6.646   2.553   2.384
 7379TIP3    H122078   6.593   2.585   2.311
 7379TIP3    H222079   6.730   2.598   2.374
 7380TIP3   OH222080   0.290   3.672   2.090
 7380TIP3    H122081   0.259   3.709   2.007
 7380TIP3    H222082   0.213   3.629   2.127
 7381TIP3   OH222083   8.307   3.161   2.920
 7381TIP3    H122084   8.292   3.253   2.896
 7381TIP3    H222085   8.325   3.163   3.014
 7382TIP3   OH222086   1.593   0.322   2.768
 7382TIP3    H122087   1.573   0.228   2.770
 7382TIP3    H222088   1.614   0.340   2.676
 7383TIP3   OH222089   8.067   3.421   5.248
 7383TIP3    H122090   8.152   3.464   5.258
 7383TIP3    H222091   8.020   3.442   5.329
 7384TIP3   OH222092   4.176   6.229   3.120
 7384TIP3    H122093   4.081   6.233   3.133
 7384TIP3    H222094   4.189   6.149   3.068
 7385TIP3   OH222095   6.575   7.008   4.260
 7385TIP3    H122096   6.522   6.930   4.243
 7385TIP3    H222097   6.517   7.067   4.308
 7386TIP3   OH222098   5.782   4.499   0.441
 7386TIP3    H122099   5.697   4.457   0.454
 7386TIP3    H222100   5.761   4.584   0.403
 7387TIP3   OH222101   1.418   0.158   1.899
 7387TIP3    H122102   1.394   0.092   1.964
 7387TIP3    H222103   1.399   0.116   1.814
 7388TIP3   OH222104   1.088   7.403   6.500
 7388TIP3    H122105   1.131   7.372   6.421
 7388TIP3    H222106   1.003   7.360   6.500
 7389TIP3   OH222107   1.617   0.383   2.484
 7389TIP3    H122108   1.581   0.324   2.418
 7389TIP3    H222109   1.709   0.394   2.458
 7390TIP3   OH222110   1.596   6.656   2.474
 7390TIP3    H122111   1.670   6.707   2.508
 7390TIP3    H222112   1.522   6.682   2.529
 7391TIP3   OH222113   7.282   0.777   1.965
 7391TIP3    H122114   7.208   0.778   1.903
 7391TIP3    H222115   7.251   0.829   2.039
 7392TIP3   OH222116   7.964   6.075   4.669
 7392TIP3    H122117   7.903   6.135   4.626
 7392TIP3    H222118   7.914   6.038   4.742
 7393TIP3   OH222119   4.571   1.847   0.334
 7393TIP3    H122120   4.665   1.832   0.336
 7393TIP3    H222121   4.537   1.782   0.272
 7394TIP3   OH222122   2.660   1.367   2.750
 7394TIP3    H122123   2.682   1.404   2.836
 7394TIP3    H222124   2.739   1.320   2.723
 7395TIP3   OH222125   1.493   4.940   5.457
 7395TIP3    H122126   1.499   4.884   5.535
 7395TIP3    H222127   1.409   4.917   5.418
 7396TIP3   OH222128   4.171   4.744   4.261
 7396TIP3    H122129   4.159   4.691   4.182
 7396TIP3    H222130   4.266   4.753   4.270
 7397TIP3   OH222131   1.147   0.218   2.063
 7397TIP3    H122132   1.159   0.123   2.073
 7397TIP3    H222133   1.221   0.245   2.009
 7398TIP3   OH222134   1.840   2.805   6.228
 7398TIP3    H122135   1.873   2.894   6.220
 7398TIP3    H222136   1.918   2.751   6.239
 7399TIP3   OH222137   1.156   2.141   5.978
 7399TIP3    H122138   1.211   2.095   5.915
 7399TIP3    H222139   1.215   2.162   6.050
 7400TIP3   OH222140   7.545   4.946   2.597
 7400TIP3    H122141   7.640   4.940   2.609
 7400TIP3    H222142   7.518   4.858   2.573
 7401TIP3   OH222143   0.963   3.865   2.214
 7401TIP3    H122144   0.882   3.824   2.244
 7401TIP3    H222145   0.934   3.933   2.153
 7402TIP3   OH222146   2.201   7.783   4.068
 7402TIP3    H122147   2.238   7.695   4.077
 7402TIP3    H222148   2.106   7.769   4.067
 7403TIP3   OH222149   4.737   2.654   4.766
 7403TIP3    H122150   4.714   2.695   4.850
 7403TIP3    H222151   4.825   2.619   4.781
 7404TIP3   OH222152   7.953   3.674   5.456
 7404TIP3    H122153   7.982   3.751   5.506
 7404TIP3    H222154   8.027   3.614   5.460
 7405TIP3   OH222155   2.006   0.675   5.894
 7405TIP3    H122156   2.020   0.755   5.843
 7405TIP3    H222157   2.055   0.688   5.974
 7406TIP3   OH222158   4.109   7.925   6.532
 7406TIP3    H122159   4.191   7.966   6.504
 7406TIP3    H222160   4.136   7.839   6.566
 7407TIP3   OH222161   4.666   7.880   2.666
 7407TIP3    H122162   4.729   7.819   2.703
 7407TIP3    H222163   4.702   7.966   2.686
 7408TIP3   OH222164   4.560   4.979   2.292
 7408TIP3    H122165   4.646   5.006   2.258
 7408TIP3    H222166   4.507   4.963   2.214
 7409TIP3   OH222167   2.093   2.862   3.456
 7409TIP3    H122168   2.125   2.950   3.435
 7409TIP3    H222169   2.015   2.877   3.508
 7410TIP3   OH222170   2.085   4.608   1.554
 7410TIP3    H122171   2.116   4.694   1.582
 7410TIP3    H222172   2.165   4.556   1.544
 7411TIP3   OH222173   1.272   3.480   0.044
 7411TIP3    H122174   1.342   3.545   0.036
 7411TIP3    H222175   1.207   3.506  -0.022
 7412TIP3   OH222176   3.088   7.490   6.836
 7412TIP3    H122177   3.035   7.532   6.768
 7412TIP3    H222178   3.169   7.467   6.792
 7413TIP3   OH222179   3.594   0.247   5.750
 7413TIP3    H122180   3.652   0.194   5.696
 7413TIP3    H222181   3.644   0.327   5.768
 7414TIP3   OH222182   3.254   4.874   1.344
 7414TIP3    H122183   3.347   4.853   1.349
 7414TIP3    H222184   3.251   4.959   1.300
 7415TIP3   OH222185   1.010   7.275   1.842
 7415TIP3    H122186   1.033   7.280   1.750
 7415TIP3    H222187   0.934   7.216   1.846
 7416TIP3   OH222188   2.046   7.574   1.758
 7416TIP3    H122189   1.971   7.560   1.815
 7416TIP3    H222190   2.052   7.669   1.749
 7417TIP3   OH222191   8.194   4.237   0.306
 7417TIP3    H122192   8.204   4.144   0.282
 7417TIP3    H222193   8.277   4.277   0.280
 7418TIP3   OH222194   0.622   0.965   0.500
 7418TIP3    H122195   0.675   0.892   0.531
 7418TIP3    H222196   0.558   0.980   0.569
 7419TIP3   OH222197   1.477   3.457   1.694
 7419TIP3    H122198   1.406   3.460   1.630
 7419TIP3    H222199   1.554   3.429   1.644
 7420TIP3   OH222200   5.936   5.808   4.911
 7420TIP3    H122201   5.893   5.881   4.866
 7420TIP3    H222202   6.015   5.790   4.860
 7421TIP3   OH222203   4.835   3.533   3.824
 7421TIP3    H122204   4.748   3.510   3.858
 7421TIP3    H222205   4.825   3.530   3.729
 7422TIP3   OH222206   5.380   1.217   2.994
 7422TIP3    H122207   5.429   1.265   2.927
 7422TIP3    H222208   5.304   1.183   2.948
 7423TIP3   OH222209   7.713   7.250   4.642
 7423TIP3    H122210   7.705   7.208   4.727
 7423TIP3    H222211   7.794   7.216   4.605
 7424TIP3   OH222212   8.074   4.411   0.942
 7424TIP3    H122213   8.087   4.400   1.036
 7424TIP3    H222214   7.980   4.426   0.933
 7425TIP3   OH222215   4.234   2.796   5.894
 7425TIP3    H122216   4.171   2.748   5.841
 7425TIP3    H222217   4.191   2.807   5.979
 7426TIP3   OH222218   3.364   7.710   1.056
 7426TIP3    H122219   3.367   7.686   1.148
 7426TIP3    H222220   3.374   7.805   1.055
 7427TIP3   OH222221   4.370   0.612   4.692
 7427TIP3    H122222   4.413   0.529   4.672
 7427TIP3    H222223   4.303   0.590   4.756
 7428TIP3   OH222224   8.270   6.967   2.606
 7428TIP3    H122225   8.262   7.058   2.577
 7428TIP3    H222226   8.180   6.935   2.610
 7429TIP3   OH222227   4.101   5.986   0.990
 7429TIP3    H122228   4.145   6.041   0.926
 7429TIP3    H222229   4.026   6.038   1.020
 7430TIP3   OH222230   5.781   0.916   1.169
 7430TIP3    H122231   5.845   0.923   1.239
 7430TIP3    H222232   5.796   0.993   1.115
 7431TIP3   OH222233   2.576   1.381   3.583
 7431TIP3    H122234   2.540   1.334   3.658
 7431TIP3    H222235   2.651   1.430   3.618
 7432TIP3   OH222236   1.392   2.163   2.039
 7432TIP3    H122237   1.405   2.252   2.005
 7432TIP3    H222238   1.350   2.116   1.967
 7433TIP3   OH222239   2.167   5.311   2.508
 7433TIP3    H122240   2.149   5.405   2.515
 7433TIP3    H222241   2.081   5.269   2.514
 7434TIP3   OH222242   5.838   6.919   1.647
 7434TIP3    H122243   5.762   6.861   1.651
 7434TIP3    H222244   5.833   6.961   1.561
 7435TIP3   OH222245   0.887   0.095   3.946
 7435TIP3    H122246   0.901   0.085   4.040
 7435TIP3    H222247   0.849   0.011   3.918
 7436TIP3   OH222248   2.124   2.912   4.120
 7436TIP3    H122249   2.087   2.999   4.132
 7436TIP3    H222250   2.056   2.863   4.074
 7437TIP3   OH222251   1.716   6.065   0.160
 7437TIP3    H122252   1.728   6.050   0.253
 7437TIP3    H222253   1.652   6.136   0.155
 7438TIP3   OH222254   2.416   3.621   2.549
 7438TIP3    H122255   2.378   3.543   2.590
 7438TIP3    H222256   2.501   3.591   2.515
 7439TIP3   OH222257   5.894   4.221   4.269
 7439TIP3    H122258   5.910   4.155   4.202
 7439TIP3    H222259   5.922   4.303   4.228
 7440TIP3   OH222260   3.498   3.563   0.787
 7440TIP3    H122261   3.499   3.637   0.848
 7440TIP3    H222262   3.472   3.602   0.703
 7441TIP3   OH222263   1.089   0.535   6.166
 7441TIP3    H122264   1.108   0.441   6.163
 7441TIP3    H222265   1.141   0.571   6.094
 7442TIP3   OH222266   2.086   5.471   0.204
 7442TIP3    H122267   2.117   5.403   0.144
 7442TIP3    H222268   2.116   5.553   0.164
 7443TIP3   OH222269   3.314   0.700   3.349
 7443TIP3    H122270   3.325   0.629   3.286
 7443TIP3    H222271   3.328   0.780   3.298
 7444TIP3   OH222272   0.248   5.516   2.394
 7444TIP3    H122273   0.275   5.593   2.343
 7444TIP3    H222274   0.153   5.524   2.401
 7445TIP3   OH222275   1.286   7.713   4.156
 7445TIP3    H122276   1.285   7.617   4.149
 7445TIP3    H222277   1.374   7.738   4.129
 7446TIP3   OH222278   7.802   4.716   0.324
 7446TIP3    H122279   7.868   4.651   0.349
 7446TIP3    H222280   7.729   4.665   0.290
 7447TIP3   OH222281   1.426   3.600   4.522
 7447TIP3    H122282   1.485   3.602   4.597
 7447TIP3    H222283   1.350   3.651   4.550
 7448TIP3   OH222284   3.653   0.264   0.814
 7448TIP3    H122285   3.635   0.276   0.721
 7448TIP3    H222286   3.652   0.169   0.827
 7449TIP3   OH222287   6.116   5.784   0.762
 7449TIP3    H122288   6.085   5.738   0.840
 7449TIP3    H222289   6.137   5.872   0.793
 7450TIP3   OH222290   0.194   3.314   2.040
 7450TIP3    H122291   0.109   3.287   2.004
 7450TIP3    H222292   0.259   3.267   1.987
 7451TIP3   OH222293   0.689   3.293   5.046
 7451TIP3    H122294   0.712   3.386   5.049
 7451TIP3    H222295   0.648   3.281   4.960
 7452TIP3   OH222296   0.525   2.186   2.484
 7452TIP3    H122297   0.441   2.185   2.530
 7452TIP3    H222298   0.578   2.120   2.528
 7453TIP3   OH222299   4.260   0.623   5.665
 7453TIP3    H122300   4.233   0.618   5.573
 7453TIP3    H222301   4.192   0.676   5.707
 7454TIP3   OH222302   8.389   3.742   6.870
 7454TIP3    H122303   8.358   3.829   6.895
 7454TIP3    H222304   8.334   3.717   6.796
 7455TIP3   OH222305   2.406   5.619   1.261
 7455TIP3    H122306   2.379   5.694   1.313
 7455TIP3    H222307   2.434   5.656   1.178
 7456TIP3   OH222308   3.550   7.735   4.161
 7456TIP3    H122309   3.478   7.672   4.164
 7456TIP3    H222310   3.508   7.820   4.151
 7457TIP3   OH222311   6.108   5.093   1.954
 7457TIP3    H122312   6.115   5.003   1.922
 7457TIP3    H222313   6.023   5.096   1.999
 7458TIP3   OH222314   0.704   7.824   2.813
 7458TIP3    H122315   0.759   7.749   2.834
 7458TIP3    H222316   0.680   7.861   2.897
 7459TIP3   OH222317   3.480   3.555   2.722
 7459TIP3    H122318   3.485   3.542   2.627
 7459TIP3    H222319   3.571   3.551   2.751
 7460TIP3   OH222320   0.673   7.300   4.189
 7460TIP3    H122321   0.617   7.282   4.265
 7460TIP3    H222322   0.698   7.214   4.156
 7461TIP3   OH222323   1.361   5.835   1.309
 7461TIP3    H122324   1.269   5.861   1.299
 7461TIP3    H222325   1.358   5.760   1.370
 7462TIP3   OH222326   3.219   6.587   3.460
 7462TIP3    H122327   3.139   6.541   3.486
 7462TIP3    H222328   3.251   6.539   3.384
 7463TIP3   OH222329   1.455   5.252   2.187
 7463TIP3    H122330   1.405   5.184   2.232
 7463TIP3    H222331   1.472   5.318   2.254
 7464TIP3   OH222332   2.459   0.379   2.992
 7464TIP3    H122333   2.371   0.388   3.028
 7464TIP3    H222334   2.451   0.311   2.925
 7465TIP3   OH222335   0.332   1.186   4.987
 7465TIP3    H122336   0.336   1.092   5.001
 7465TIP3    H222337   0.251   1.214   5.030
 7466TIP3   OH222338   4.531   3.720   2.208
 7466TIP3    H122339   4.562   3.794   2.260
 7466TIP3    H222340   4.447   3.749   2.172
 7467TIP3   OH222341   4.673   3.901   6.628
 7467TIP3    H122342   4.713   3.967   6.684
 7467TIP3    H222343   4.738   3.883   6.560
 7468TIP3   OH222344   8.205   1.370   3.722
 7468TIP3    H122345   8.248   1.319   3.790
 7468TIP3    H222346   8.116   1.335   3.719
 7469TIP3   OH222347   5.735   1.245   4.092
 7469TIP3    H122348   5.790   1.261   4.014
 7469TIP3    H222349   5.656   1.205   4.058
 7470TIP3   OH222350   5.075   5.291   1.330
 7470TIP3    H122351   5.059   5.308   1.423
 7470TIP3    H222352   5.095   5.198   1.326
 7471TIP3   OH222353   6.151   2.665   2.006
 7471TIP3    H122354   6.147   2.615   2.088
 7471TIP3    H222355   6.201   2.609   1.947
 7472TIP3   OH222356   6.978   2.899   3.132
 7472TIP3    H122357   7.062   2.854   3.121
 7472TIP3    H222358   7.002   2.990   3.150
 7473TIP3   OH222359   6.152   7.826   4.446
 7473TIP3    H122360   6.087   7.759   4.469
 7473TIP3    H222361   6.159   7.880   4.525
 7474TIP3   OH222362   0.314   7.833   4.996
 7474TIP3    H122363   0.347   7.749   5.029
 7474TIP3    H222364   0.378   7.860   4.931
 7475TIP3   OH222365   2.323   5.411   6.052
 7475TIP3    H122366   2.306   5.490   6.001
 7475TIP3    H222367   2.259   5.348   6.020
 7476TIP3   OH222368   0.839   5.575   0.340
 7476TIP3    H122369   0.827   5.622   0.257
 7476TIP3    H222370   0.916   5.520   0.325
 7477TIP3   OH222371   4.154   5.178   3.337
 7477TIP3    H122372   4.089   5.249   3.337
 7477TIP3    H222373   4.229   5.214   3.291
 7478TIP3   OH222374   2.354   2.858   4.997
 7478TIP3    H122375   2.306   2.936   5.023
 7478TIP3    H222376   2.445   2.877   5.019
 7479TIP3   OH222377   8.211   1.498   4.112
 7479TIP3    H122378   8.216   1.436   4.185
 7479TIP3    H222379   8.117   1.509   4.097
 7480TIP3   OH222380   8.022   6.083   0.081
 7480TIP3    H122381   7.961   6.021   0.042
 7480TIP3    H222382   8.014   6.069   0.176
 7481TIP3   OH222383   2.545   0.062   5.804
 7481TIP3    H122384   2.569   0.149   5.837
 7481TIP3    H222385   2.450   0.066   5.795
 7482TIP3   OH222386   0.062   4.385   1.459
 7482TIP3    H122387   0.027   4.307   1.417
 7482TIP3    H222388   0.112   4.429   1.391
 7483TIP3   OH222389   6.526   6.590   3.758
 7483TIP3    H122390   6.469   6.567   3.832
 7483TIP3    H222391   6.465   6.618   3.689
 7484TIP3   OH222392   6.947   6.046   4.404
 7484TIP3    H122393   6.981   6.085   4.484
 7484TIP3    H222394   6.952   5.951   4.420
 7485TIP3   OH222395   5.083   7.001   0.365
 7485TIP3    H122396   5.026   7.052   0.423
 7485TIP3    H222397   5.104   6.922   0.414
 7486TIP3   OH222398   1.325   0.483   6.391
 7486TIP3    H122399   1.353   0.439   6.311
 7486TIP3    H222400   1.319   0.576   6.367
 7487TIP3   OH222401   5.710   3.882   4.288
 7487TIP3    H122402   5.799   3.859   4.314
 7487TIP3    H222403   5.659   3.874   4.368
 7488TIP3   OH222404   1.405   1.448   6.426
 7488TIP3    H122405   1.417   1.394   6.505
 7488TIP3    H222406   1.395   1.384   6.355
 7489TIP3   OH222407   6.596   1.071   4.521
 7489TIP3    H122408   6.626   1.028   4.601
 7489TIP3    H222409   6.504   1.089   4.536
 7490TIP3   OH222410   0.220   3.297   3.557
 7490TIP3    H122411   0.163   3.247   3.498
 7490TIP3    H222412   0.268   3.231   3.606
 7491TIP3   OH222413   8.222   1.450   0.755
 7491TIP3    H122414   8.183   1.506   0.688
 7491TIP3    H222415   8.200   1.361   0.727
 7492TIP3   OH222416   3.778   4.255   6.148
 7492TIP3    H122417   3.717   4.184   6.131
 7492TIP3    H222418   3.840   4.251   6.075
 7493TIP3   OH222419   1.509   4.573   1.902
 7493TIP3    H122420   1.498   4.611   1.815
 7493TIP3    H222421   1.506   4.648   1.961
 7494TIP3   OH222422   0.382   5.215   3.689
 7494TIP3    H122423   0.427   5.138   3.724
 7494TIP3    H222424   0.338   5.183   3.610
 7495TIP3   OH222425   7.070   6.330   5.645
 7495TIP3    H122426   6.983   6.326   5.607
 7495TIP3    H222427   7.107   6.244   5.629
 7496TIP3   OH222428   2.807   6.680   4.419
 7496TIP3    H122429   2.820   6.674   4.514
 7496TIP3    H222430   2.731   6.739   4.409
 7497TIP3   OH222431   4.526   1.007   3.626
 7497TIP3    H122432   4.563   1.025   3.713
 7497TIP3    H222433   4.489   0.920   3.633
 7498TIP3   OH222434   6.617   5.906   0.062
 7498TIP3    H122435   6.554   5.978   0.066
 7498TIP3    H222436   6.599   5.863  -0.022
 7499TIP3   OH222437   7.796   3.427   0.735
 7499TIP3    H122438   7.723   3.395   0.682
 7499TIP3    H222439   7.874   3.410   0.682
 7500TIP3   OH222440   1.288   3.819   4.670
 7500TIP3    H122441   1.263   3.767   4.746
 7500TIP3    H222442   1.206   3.838   4.625
 7501TIP3   OH222443   3.487   1.290   5.351
 7501TIP3    H122444   3.489   1.199   5.381
 7501TIP3    H222445   3.439   1.288   5.269
 7502TIP3   OH222446   7.018   5.253   4.879
 7502TIP3    H122447   6.961   5.310   4.930
 7502TIP3    H222448   6.974   5.167   4.882
 7503TIP3   OH222449   2.159   7.609   5.555
 7503TIP3    H122450   2.084   7.645   5.508
 7503TIP3    H222451   2.224   7.593   5.487
 7504TIP3   OH222452   5.928   2.619   2.219
 7504TIP3    H122453   5.846   2.585   2.253
 7504TIP3    H222454   5.931   2.710   2.250
 7505TIP3   OH222455   4.175   0.889   5.988
 7505TIP3    H122456   4.098   0.934   6.023
 7505TIP3    H222457   4.239   0.890   6.059
 7506TIP3   OH222458   1.251   4.859   5.367
 7506TIP3    H122459   1.226   4.917   5.295
 7506TIP3    H222460   1.220   4.903   5.445
 7507TIP3   OH222461   5.902   2.383   4.028
 7507TIP3    H122462   5.973   2.447   4.027
 7507TIP3    H222463   5.846   2.412   4.100
 7508TIP3   OH222464   0.250   5.971   5.188
 7508TIP3    H122465   0.249   5.875   5.181
 7508TIP3    H222466   0.343   5.993   5.201
 7509TIP3   OH222467   7.117   4.359   0.787
 7509TIP3    H122468   7.087   4.433   0.734
 7509TIP3    H222469   7.212   4.364   0.784
 7510TIP3   OH222470   3.490   5.014   0.800
 7510TIP3    H122471   3.542   4.937   0.776
 7510TIP3    H222472   3.401   4.980   0.807
 7511TIP3   OH222473   0.005   6.446   4.613
 7511TIP3    H122474   0.054   6.425   4.693
 7511TIP3    H222475   0.048   6.393   4.545
 7512TIP3   OH222476   2.488   3.819   4.158
 7512TIP3    H122477   2.526   3.733   4.140
 7512TIP3    H222478   2.548   3.882   4.118
 7513TIP3   OH222479   2.064   2.907   5.006
 7513TIP3    H122480   2.144   2.959   5.007
 7513TIP3    H222481   1.993   2.970   4.999
 7514TIP3   OH222482   3.124   3.085   4.727
 7514TIP3    H122483   3.031   3.088   4.749
 7514TIP3    H222484   3.169   3.081   4.811
 7515TIP3   OH222485   6.793  -0.009   6.217
 7515TIP3    H122486   6.810  -0.036   6.307
 7515TIP3    H222487   6.780   0.086   6.222
 7516TIP3   OH222488   7.954   3.948   5.566
 7516TIP3    H122489   7.938   3.978   5.476
 7516TIP3    H222490   7.880   3.982   5.616
 7517TIP3   OH222491   2.802   4.263   5.360
 7517TIP3    H122492   2.778   4.308   5.442
 7517TIP3    H222493   2.896   4.246   5.369
 7518TIP3   OH222494   4.869   7.623   2.493
 7518TIP3    H122495   4.865   7.701   2.439
 7518TIP3    H222496   4.877   7.655   2.583
 7519TIP3   OH222497   7.657   4.458   2.366
 7519TIP3    H122498   7.677   4.398   2.438
 7519TIP3    H222499   7.561   4.460   2.363
 7520TIP3   OH222500   6.714   3.074   5.673
 7520TIP3    H122501   6.767   3.082   5.753
 7520TIP3    H222502   6.771   3.027   5.611
 7521TIP3   OH222503   2.806   6.860   5.563
 7521TIP3    H122504   2.721   6.895   5.538
 7521TIP3    H222505   2.786   6.796   5.632
 7522TIP3   OH222506   4.256   5.344   0.694
 7522TIP3    H122507   4.271   5.396   0.615
 7522TIP3    H222508   4.274   5.404   0.766
 7523TIP3   OH222509   6.845   4.084   5.698
 7523TIP3    H122510   6.826   3.993   5.716
 7523TIP3    H222511   6.903   4.082   5.621
 7524TIP3   OH222512   3.854   5.773   5.502
 7524TIP3    H122513   3.878   5.681   5.496
 7524TIP3    H222514   3.881   5.810   5.418
 7525TIP3   OH222515   5.919   2.568   2.607
 7525TIP3    H122516   5.968   2.545   2.686
 7525TIP3    H222517   5.905   2.484   2.563
 7526TIP3   OH222518   2.287   3.715   2.974
 7526TIP3    H122519   2.381   3.702   2.988
 7526TIP3    H222520   2.248   3.631   3.001
 7527TIP3   OH222521   2.875   4.678   4.055
 7527TIP3    H122522   2.892   4.598   4.105
 7527TIP3    H222523   2.929   4.745   4.097
 7528TIP3   OH222524   8.177   2.230   2.305
 7528TIP3    H122525   8.183   2.325   2.306
 7528TIP3    H222526   8.162   2.208   2.213
 7529TIP3   OH222527   0.651   4.368   5.005
 7529TIP3    H122528   0.626   4.374   4.913
 7529TIP3    H222529   0.719   4.302   5.007
 7530TIP3   OH222530   5.322   5.776   6.293
 7530TIP3    H122531   5.320   5.803   6.385
 7530TIP3    H222532   5.229   5.773   6.268
 7531TIP3   OH222533   1.399   3.428   3.823
 7531TIP3    H122534   1.475   3.486   3.818
 7531TIP3    H222535   1.342   3.457   3.752
 7532TIP3   OH222536   7.279   7.768   5.952
 7532TIP3    H122537   7.197   7.726   5.977
 7532TIP3    H222538   7.324   7.704   5.898
 7533TIP3   OH222539   7.276   4.400   5.803
 7533TIP3    H122540   7.231   4.483   5.789
 7533TIP3    H222541   7.251   4.345   5.729
 7534TIP3   OH222542   1.137   1.127   3.976
 7534TIP3    H122543   1.149   1.209   4.024
 7534TIP3    H222544   1.170   1.059   4.035
 7535TIP3   OH222545   2.607   1.969   2.439
 7535TIP3    H122546   2.575   2.058   2.457
 7535TIP3    H222547   2.615   1.966   2.344
 7536TIP3   OH222548   2.813   4.831   5.133
 7536TIP3    H122549   2.791   4.845   5.225
 7536TIP3    H222550   2.844   4.917   5.102
 7537TIP3   OH222551   0.643   7.181   1.394
 7537TIP3    H122552   0.688   7.097   1.387
 7537TIP3    H222553   0.711   7.242   1.424
 7538TIP3   OH222554   6.304   5.086   0.656
 7538TIP3    H122555   6.248   5.162   0.638
 7538TIP3    H222556   6.262   5.014   0.611
 7539TIP3   OH222557   2.598   2.483   2.332
 7539TIP3    H122558   2.666   2.419   2.354
 7539TIP3    H222559   2.639   2.568   2.346
 7540TIP3   OH222560   8.272   4.708   6.778
 7540TIP3    H122561   8.270   4.679   6.687
 7540TIP3    H222562   8.191   4.757   6.790
 7541TIP3   OH222563   3.787   5.020   0.623
 7541TIP3    H122564   3.860   4.981   0.575
 7541TIP3    H222565   3.726   4.947   0.637
 7542TIP3   OH222566   5.140   6.284   3.298
 7542TIP3    H122567   5.197   6.212   3.327
 7542TIP3    H222568   5.080   6.298   3.371
 7543TIP3   OH222569   3.409   4.481   0.088
 7543TIP3    H122570   3.448   4.412   0.143
 7543TIP3    H222571   3.403   4.441   0.001
 7544TIP3   OH222572   5.627   0.307   4.520
 7544TIP3    H122573   5.595   0.283   4.607
 7544TIP3    H222574   5.722   0.315   4.531
 7545TIP3   OH222575   3.785   6.240   0.084
 7545TIP3    H122576   3.784   6.158   0.133
 7545TIP3    H222577   3.778   6.309   0.151
 7546TIP3   OH222578   5.632   7.536   1.511
 7546TIP3    H122579   5.559   7.571   1.460
 7546TIP3    H222580   5.597   7.529   1.600
 7547TIP3   OH222581   4.464   3.403   5.400
 7547TIP3    H122582   4.423   3.361   5.325
 7547TIP3    H222583   4.402   3.471   5.426
 7548TIP3   OH222584   1.604   2.402   1.354
 7548TIP3    H122585   1.667   2.331   1.366
 7548TIP3    H222586   1.589   2.436   1.442
 7549TIP3   OH222587   1.923   4.285   6.601
 7549TIP3    H122588   1.942   4.192   6.591
 7549TIP3    H222589   2.009   4.327   6.594
 7550TIP3   OH222590   3.618   2.277   4.002
 7550TIP3    H122591   3.708   2.286   3.968
 7550TIP3    H222592   3.628   2.227   4.083
 7551TIP3   OH222593   2.453   5.712   1.856
 7551TIP3    H122594   2.432   5.805   1.866
 7551TIP3    H222595   2.448   5.677   1.945
 7552TIP3   OH222596   1.622   7.197   3.452
 7552TIP3    H122597   1.686   7.236   3.392
 7552TIP3    H222598   1.542   7.247   3.437
 7553TIP3   OH222599   0.766   4.174   1.297
 7553TIP3    H122600   0.691   4.119   1.272
 7553TIP3    H222601   0.774   4.238   1.227
 7554TIP3   OH222602   8.350   3.451   2.867
 7554TIP3    H122603   8.269   3.465   2.818
 7554TIP3    H222604   8.408   3.520   2.837
 7555TIP3   OH222605   2.741   7.495   4.397
 7555TIP3    H122606   2.759   7.518   4.488
 7555TIP3    H222607   2.721   7.578   4.355
 7556TIP3   OH222608   6.998   4.237   5.893
 7556TIP3    H122609   7.079   4.187   5.887
 7556TIP3    H222610   6.938   4.192   5.833
 7557TIP3   OH222611   4.245   1.441   1.053
 7557TIP3    H122612   4.248   1.385   1.131
 7557TIP3    H222613   4.295   1.519   1.077
 7558TIP3   OH222614   0.950   4.188   1.796
 7558TIP3    H122615   0.880   4.180   1.731
 7558TIP3    H222616   1.029   4.158   1.750
 7559TIP3   OH222617   1.804   6.364   2.188
 7559TIP3    H122618   1.776   6.421   2.116
 7559TIP3    H222619   1.892   6.394   2.209
 7560TIP3   OH222620   0.325   5.657   4.599
 7560TIP3    H122621   0.379   5.662   4.520
 7560TIP3    H222622   0.249   5.712   4.579
 7561TIP3   OH222623   3.068   1.696   5.253
 7561TIP3    H122624   3.126   1.740   5.316
 7561TIP3    H222625   3.127   1.643   5.200
 7562TIP3   OH222626   5.777   1.145   6.862
 7562TIP3    H122627   5.712   1.089   6.821
 7562TIP3    H222628   5.812   1.198   6.791
 7563TIP3   OH222629   6.570   3.841   4.276
 7563TIP3    H122630   6.562   3.929   4.314
 7563TIP3    H222631   6.552   3.854   4.183
 7564TIP3   OH222632   5.447   2.286   1.851
 7564TIP3    H122633   5.417   2.304   1.762
 7564TIP3    H222634   5.441   2.371   1.896
 7565TIP3   OH222635   2.754   3.995   3.755
 7565TIP3    H122636   2.782   3.911   3.717
 7565TIP3    H222637   2.755   4.056   3.682
 7566TIP3   OH222638   0.824   1.765   3.253
 7566TIP3    H122639   0.757   1.763   3.184
 7566TIP3    H222640   0.863   1.678   3.251
 7567TIP3   OH222641   7.469   2.002   6.784
 7567TIP3    H122642   7.447   2.052   6.863
 7567TIP3    H222643   7.507   1.921   6.818
 7568TIP3   OH222644   7.958   6.730   5.001
 7568TIP3    H122645   8.036   6.676   4.987
 7568TIP3    H222646   7.885   6.673   4.977
 7569TIP3   OH222647   1.592   6.545   1.097
 7569TIP3    H122648   1.676   6.561   1.056
 7569TIP3    H222649   1.552   6.476   1.044
 7570TIP3   OH222650   6.035   4.110   4.476
 7570TIP3    H122651   5.995   4.159   4.403
 7570TIP3    H222652   6.079   4.037   4.434
 7571TIP3   OH222653   5.137   3.641   3.493
 7571TIP3    H122654   5.110   3.604   3.409
 7571TIP3    H222655   5.085   3.721   3.500
 7572TIP3   OH222656   5.656   0.959   5.855
 7572TIP3    H122657   5.734   0.973   5.803
 7572TIP3    H222658   5.661   0.866   5.881
 7573TIP3   OH222659   5.816   6.097   0.959
 7573TIP3    H122660   5.868   6.102   1.039
 7573TIP3    H222661   5.743   6.156   0.974
 7574TIP3   OH222662   7.907   3.076   0.030
 7574TIP3    H122663   7.979   3.034   0.078
 7574TIP3    H222664   7.839   3.009   0.027
 7575TIP3   OH222665   5.358   6.824   3.717
 7575TIP3    H122666   5.337   6.885   3.646
 7575TIP3    H222667   5.276   6.812   3.764
 7576TIP3   OH222668   2.451   7.581   6.097
 7576TIP3    H122669   2.430   7.572   6.189
 7576TIP3    H222670   2.369   7.608   6.055
 7577TIP3   OH222671   4.737   5.885   0.586
 7577TIP3    H122672   4.703   5.795   0.588
 7577TIP3    H222673   4.802   5.885   0.516
 7578TIP3   OH222674   6.933   4.866   6.449
 7578TIP3    H122675   6.846   4.878   6.485
 7578TIP3    H222676   6.928   4.783   6.402
 7579TIP3   OH222677   2.757   5.925   5.816
 7579TIP3    H122678   2.749   5.898   5.725
 7579TIP3    H222679   2.799   6.011   5.813
 7580TIP3   OH222680   1.882   5.482   0.954
 7580TIP3    H122681   1.957   5.474   1.013
 7580TIP3    H222682   1.921   5.489   0.867
 7581TIP3   OH222683   6.089   5.615   0.997
 7581TIP3    H122684   6.184   5.607   0.983
 7581TIP3    H222685   6.055   5.527   0.978
 7582TIP3   OH222686   3.619   2.535   2.440
 7582TIP3    H122687   3.692   2.573   2.489
 7582TIP3    H222688   3.627   2.574   2.353
 7583TIP3   OH222689   4.968   4.027   0.165
 7583TIP3    H122690   5.036   3.988   0.218
 7583TIP3    H222691   4.998   4.016   0.075
 7584TIP3   OH222692   2.793   4.847   1.441
 7584TIP3    H122693   2.868   4.796   1.472
 7584TIP3    H222694   2.778   4.911   1.511
 7585TIP3   OH222695   8.191   4.064   2.215
 7585TIP3    H122696   8.201   3.969   2.225
 7585TIP3    H222697   8.277   4.095   2.188
 7586TIP3   OH222698   1.367   1.417   5.284
 7586TIP3    H122699   1.335   1.346   5.229
 7586TIP3    H222700   1.420   1.471   5.225
 7587TIP3   OH222701   1.490   2.042   3.336
 7587TIP3    H122702   1.498   2.131   3.302
 7587TIP3    H222703   1.396   2.025   3.337
 7588TIP3   OH222704   5.248   4.717   2.530
 7588TIP3    H122705   5.189   4.668   2.587
 7588TIP3    H222706   5.260   4.661   2.453
 7589TIP3   OH222707   6.004   1.853   3.881
 7589TIP3    H122708   5.917   1.832   3.847
 7589TIP3    H222709   6.022   1.941   3.849
 7590TIP3   OH222710   1.401   2.039   1.021
 7590TIP3    H122711   1.394   1.945   1.037
 7590TIP3    H222712   1.489   2.049   0.984
 7591TIP3   OH222713   5.663   5.651   2.797
 7591TIP3    H122714   5.689   5.740   2.772
 7591TIP3    H222715   5.678   5.599   2.718
 7592TIP3   OH222716   1.195   2.682   1.877
 7592TIP3    H122717   1.109   2.723   1.878
 7592TIP3    H222718   1.254   2.750   1.844
 7593TIP3   OH222719   7.554   2.311   6.360
 7593TIP3    H122720   7.610   2.367   6.306
 7593TIP3    H222721   7.466   2.344   6.346
 7594TIP3   OH222722   4.710   7.437   0.225
 7594TIP3    H122723   4.617   7.459   0.227
 7594TIP3    H222724   4.751   7.511   0.181
 7595TIP3   OH222725   6.958   6.015   3.848
 7595TIP3    H122726   6.919   5.945   3.796
 7595TIP3    H222727   7.016   5.970   3.910
 7596TIP3   OH222728   2.988   1.422   4.695
 7596TIP3    H122729   3.006   1.328   4.693
 7596TIP3    H222730   3.013   1.449   4.783
 7597TIP3   OH222731   4.652   4.528   0.113
 7597TIP3    H122732   4.597   4.606   0.100
 7597TIP3    H222733   4.655   4.487   0.026
 7598TIP3   OH222734   6.184   4.708   3.429
 7598TIP3    H122735   6.178   4.793   3.473
 7598TIP3    H222736   6.179   4.644   3.501
 7599TIP3   OH222737   2.724   3.263   5.342
 7599TIP3    H122738   2.705   3.205   5.416
 7599TIP3    H222739   2.739   3.203   5.269
 7600TIP3   OH222740   0.820   7.297   6.518
 7600TIP3    H122741   0.838   7.268   6.608
 7600TIP3    H222742   0.747   7.242   6.490
 7601TIP3   OH222743   0.103   6.037   4.785
 7601TIP3    H122744   0.114   6.039   4.689
 7601TIP3    H222745   0.179   5.987   4.816
 7602TIP3   OH222746   8.353   7.022   5.669
 7602TIP3    H122747   8.342   6.974   5.587
 7602TIP3    H222748   8.303   7.103   5.657
 7603TIP3   OH222749   3.687   2.213   6.299
 7603TIP3    H122750   3.746   2.286   6.319
 7603TIP3    H222751   3.599   2.252   6.302
 7604TIP3   OH222752   0.913   1.382   5.550
 7604TIP3    H122753   0.924   1.464   5.598
 7604TIP3    H222754   0.999   1.365   5.511
 7605TIP3   OH222755   2.910   2.098   1.132
 7605TIP3    H122756   2.974   2.039   1.091
 7605TIP3    H222757   2.947   2.116   1.219
 7606TIP3   OH222758   3.385   0.862   6.392
 7606TIP3    H122759   3.378   0.955   6.410
 7606TIP3    H222760   3.465   0.853   6.339
 7607TIP3   OH222761   5.618   4.616   5.749
 7607TIP3    H122762   5.698   4.587   5.704
 7607TIP3    H222763   5.650   4.675   5.818
 7608TIP3   OH222764   7.307   4.959   3.089
 7608TIP3    H122765   7.213   4.962   3.073
 7608TIP3    H222766   7.346   5.008   3.017
 7609TIP3   OH222767   3.979   5.125   2.210
 7609TIP3    H122768   3.936   5.056   2.160
 7609TIP3    H222769   3.909   5.161   2.265
 7610TIP3   OH222770   7.684   6.888   1.062
 7610TIP3    H122771   7.674   6.808   1.113
 7610TIP3    H222772   7.716   6.953   1.124
 7611TIP3   OH222773   5.748   2.016   0.082
 7611TIP3    H122774   5.732   2.068   0.004
 7611TIP3    H222775   5.685   2.049   0.146
 7612TIP3   OH222776   8.147   4.333   0.041
 7612TIP3    H122777   8.119   4.311   0.130
 7612TIP3    H222778   8.242   4.332   0.045
 7613TIP3   OH222779   6.687   2.415   1.284
 7613TIP3    H122780   6.644   2.442   1.202
 7613TIP3    H222781   6.711   2.497   1.327
 7614TIP3   OH222782   5.150   1.933   2.066
 7614TIP3    H122783   5.205   1.901   2.137
 7614TIP3    H222784   5.140   1.858   2.007
 7615TIP3   OH222785   2.369   6.534   1.163
 7615TIP3    H122786   2.360   6.620   1.205
 7615TIP3    H222787   2.394   6.476   1.235
 7616TIP3   OH222788   6.671   0.103   0.073
 7616TIP3    H122789   6.749   0.154   0.052
 7616TIP3    H222790   6.600   0.151   0.032
 7617TIP3   OH222791   3.891   6.236   3.186
 7617TIP3    H122792   3.808   6.241   3.139
 7617TIP3    H222793   3.883   6.158   3.240
 7618TIP3   OH222794   3.095   6.532   0.192
 7618TIP3    H122795   3.004   6.502   0.188
 7618TIP3    H222796   3.144   6.465   0.145
 7619TIP3   OH222797   1.624   1.023   2.222
 7619TIP3    H122798   1.720   1.032   2.222
 7619TIP3    H222799   1.608   0.940   2.178
 7620TIP3   OH222800   6.608   3.707   0.867
 7620TIP3    H122801   6.680   3.763   0.895
 7620TIP3    H222802   6.650   3.634   0.821
 7621TIP3   OH222803   5.867   1.749   5.307
 7621TIP3    H122804   5.802   1.680   5.290
 7621TIP3    H222805   5.882   1.788   5.221
 7622TIP3   OH222806   2.084   6.273   6.250
 7622TIP3    H122807   2.018   6.204   6.252
 7622TIP3    H222808   2.079   6.308   6.161
 7623TIP3   OH222809   7.991   7.369   3.260
 7623TIP3    H122810   7.920   7.335   3.205
 7623TIP3    H222811   7.987   7.315   3.340
 7624TIP3   OH222812   1.298   6.819   4.924
 7624TIP3    H122813   1.231   6.838   4.989
 7624TIP3    H222814   1.379   6.811   4.975
 7625TIP3   OH222815   7.511   6.019   4.591
 7625TIP3    H122816   7.588   6.054   4.546
 7625TIP3    H222817   7.452   6.093   4.600
 7626TIP3   OH222818   7.879   1.501   4.979
 7626TIP3    H122819   7.833   1.502   4.895
 7626TIP3    H222820   7.822   1.550   5.038
 7627TIP3   OH222821   4.839   1.080   0.992
 7627TIP3    H122822   4.813   1.025   1.066
 7627TIP3    H222823   4.911   1.033   0.951
 7628TIP3   OH222824   6.289   6.934   5.004
 7628TIP3    H122825   6.233   6.997   5.051
 7628TIP3    H222826   6.333   6.885   5.073
 7629TIP3   OH222827   1.198   1.169   6.406
 7629TIP3    H122828   1.122   1.110   6.408
 7629TIP3    H222829   1.169   1.246   6.454
 7630TIP3   OH222830   6.851   7.569   0.538
 7630TIP3    H122831   6.839   7.626   0.462
 7630TIP3    H222832   6.887   7.488   0.502
 7631TIP3   OH222833   5.365   0.071   4.969
 7631TIP3    H122834   5.439   0.032   4.923
 7631TIP3    H222835   5.290   0.019   4.940
 7632TIP3   OH222836   3.477   3.131   0.774
 7632TIP3    H122837   3.455   3.109   0.865
 7632TIP3    H222838   3.556   3.185   0.781
 7633TIP3   OH222839   7.720   5.262   6.733
 7633TIP3    H122840   7.679   5.305   6.658
 7633TIP3    H222841   7.810   5.295   6.733
 7634TIP3   OH222842   1.440   2.218   2.662
 7634TIP3    H122843   1.482   2.281   2.604
 7634TIP3    H222844   1.347   2.223   2.640
 7635TIP3   OH222845   7.278   7.272   1.799
 7635TIP3    H122846   7.189   7.248   1.775
 7635TIP3    H222847   7.331   7.198   1.771
 7636TIP3   OH222848   2.204   5.527   6.361
 7636TIP3    H122849   2.220   5.449   6.414
 7636TIP3    H222850   2.182   5.596   6.424
 7637TIP3   OH222851   4.925   6.910   6.086
 7637TIP3    H122852   4.906   6.882   5.996
 7637TIP3    H222853   4.951   6.830   6.131
 7638TIP3   OH222854   5.514   1.983   6.661
 7638TIP3    H122855   5.446   2.047   6.683
 7638TIP3    H222856   5.466   1.910   6.622
 7639TIP3   OH222857   3.879   5.824   0.688
 7639TIP3    H122858   3.934   5.901   0.675
 7639TIP3    H222859   3.940   5.756   0.718
 7640TIP3   OH222860   0.744   7.675   3.512
 7640TIP3    H122861   0.723   7.725   3.590
 7640TIP3    H222862   0.832   7.640   3.529
 7641TIP3   OH222863   6.465   5.723   6.773
 7641TIP3    H122864   6.520   5.667   6.828
 7641TIP3    H222865   6.497   5.709   6.684
 7642TIP3   OH222866   2.882   4.650   3.108
 7642TIP3    H122867   2.858   4.629   3.198
 7642TIP3    H222868   2.961   4.703   3.116
 7643TIP3   OH222869   7.999   2.267   5.233
 7643TIP3    H122870   7.934   2.332   5.204
 7643TIP3    H222871   7.971   2.186   5.192
 7644TIP3   OH222872   6.545   2.173   4.286
 7644TIP3    H122873   6.502   2.240   4.339
 7644TIP3    H222874   6.563   2.102   4.348
 7645TIP3   OH222875   2.102   5.805   3.660
 7645TIP3    H122876   2.032   5.816   3.595
 7645TIP3    H222877   2.059   5.821   3.744
 7646TIP3   OH222878   2.273   7.354   1.574
 7646TIP3    H122879   2.315   7.411   1.509
 7646TIP3    H222880   2.246   7.414   1.644
 7647TIP3   OH222881   7.797   3.142   5.874
 7647TIP3    H122882   7.854   3.199   5.925
 7647TIP3    H222883   7.826   3.053   5.896
 7648TIP3   OH222884   2.861   1.876   5.216
 7648TIP3    H122885   2.845   1.901   5.125
 7648TIP3    H222886   2.927   1.806   5.210
 7649TIP3   OH222887   7.533   5.206   6.294
 7649TIP3    H122888   7.536   5.277   6.358
 7649TIP3    H222889   7.623   5.199   6.262
 7650TIP3   OH222890   7.460   6.150   0.648
 7650TIP3    H122891   7.436   6.188   0.732
 7650TIP3    H222892   7.376   6.124   0.609
 7651TIP3   OH222893   1.078   0.058   4.453
 7651TIP3    H122894   1.171   0.064   4.433
 7651TIP3    H222895   1.066  -0.031   4.485
 7652TIP3   OH222896   7.459   3.050   5.756
 7652TIP3    H122897   7.400   3.083   5.689
 7652TIP3    H222898   7.417   3.073   5.839
 7653TIP3   OH222899   0.418   3.862   2.257
 7653TIP3    H122900   0.432   3.832   2.347
 7653TIP3    H222901   0.401   3.782   2.207
 7654TIP3   OH222902   3.915   1.707   4.055
 7654TIP3    H122903   3.896   1.614   4.037
 7654TIP3    H222904   3.956   1.739   3.975
 7655TIP3   OH222905   1.114   1.677   2.083
 7655TIP3    H122906   1.150   1.707   2.000
 7655TIP3    H222907   1.189   1.676   2.143
 7656TIP3   OH222908   5.130   3.595   2.088
 7656TIP3    H122909   5.051   3.553   2.122
 7656TIP3    H222910   5.111   3.688   2.090
 7657TIP3   OH222911   5.856   4.497   1.790
 7657TIP3    H122912   5.826   4.407   1.777
 7657TIP3    H222913   5.800   4.550   1.734
 7658TIP3   OH222914   6.543   4.579   5.107
 7658TIP3    H122915   6.546   4.623   5.022
 7658TIP3    H222916   6.577   4.644   5.168
 7659TIP3   OH222917   2.074   5.530   3.575
 7659TIP3    H122918   2.082   5.531   3.480
 7659TIP3    H222919   2.090   5.620   3.602
 7660TIP3   OH222920   3.589   6.967   0.440
 7660TIP3    H122921   3.672   6.999   0.404
 7660TIP3    H222922   3.586   7.004   0.529
 7661TIP3   OH222923   0.187   3.818   5.152
 7661TIP3    H122924   0.125   3.889   5.134
 7661TIP3    H222925   0.266   3.862   5.183
 7662TIP3   OH222926   4.600   4.799   5.806
 7662TIP3    H122927   4.624   4.778   5.897
 7662TIP3    H222928   4.681   4.831   5.767
 7663TIP3   OH222929   5.064   4.879   3.495
 7663TIP3    H122930   4.991   4.901   3.436
 7663TIP3    H222931   5.042   4.792   3.528
 7664TIP3   OH222932   1.874   3.931   2.685
 7664TIP3    H122933   1.830   4.001   2.733
 7664TIP3    H222934   1.901   3.869   2.752
 7665TIP3   OH222935   3.995   3.780   0.695
 7665TIP3    H122936   3.915   3.743   0.732
 7665TIP3    H222937   4.063   3.717   0.718
 7666TIP3   OH222938   2.675   3.261   6.100
 7666TIP3    H122939   2.636   3.181   6.065
 7666TIP3    H222940   2.697   3.313   6.022
 7667TIP3   OH222941   0.790   3.927   3.966
 7667TIP3    H122942   0.742   3.967   3.894
 7667TIP3    H222943   0.762   3.835   3.965
 7668TIP3   OH222944   1.432   4.696   5.034
 7668TIP3    H122945   1.390   4.727   5.114
 7668TIP3    H222946   1.524   4.685   5.059
 7669TIP3   OH222947   3.618   2.110   4.488
 7669TIP3    H122948   3.639   2.167   4.562
 7669TIP3    H222949   3.590   2.027   4.528
 7670TIP3   OH222950   0.179   3.088   3.415
 7670TIP3    H122951   0.178   3.027   3.489
 7670TIP3    H222952   0.265   3.077   3.375
 7671TIP3   OH222953   4.499   7.414   2.723
 7671TIP3    H122954   4.539   7.372   2.647
 7671TIP3    H222955   4.489   7.506   2.697
 7672TIP3   OH222956   1.939   1.098   0.245
 7672TIP3    H122957   1.928   1.193   0.240
 7672TIP3    H222958   1.964   1.072   0.156
 7673TIP3   OH222959   3.170   7.797   4.221
 7673TIP3    H122960   3.231   7.731   4.253
 7673TIP3    H222961   3.106   7.807   4.292
 7674TIP3   OH222962   3.124   3.337   0.868
 7674TIP3    H122963   3.159   3.259   0.824
 7674TIP3    H222964   3.194   3.365   0.926
 7675TIP3   OH222965   7.785   3.892   2.825
 7675TIP3    H122966   7.695   3.901   2.856
 7675TIP3    H222967   7.832   3.849   2.897
 7676TIP3   OH222968   8.183   4.710   4.921
 7676TIP3    H122969   8.206   4.702   5.014
 7676TIP3    H222970   8.090   4.691   4.917
 7677TIP3   OH222971   3.111   0.262   0.484
 7677TIP3    H122972   3.061   0.220   0.554
 7677TIP3    H222973   3.095   0.355   0.496
 7678TIP3   OH222974   6.329   2.579   1.132
 7678TIP3    H122975   6.257   2.628   1.172
 7678TIP3    H222976   6.368   2.531   1.204
 7679TIP3   OH222977   6.366   0.558   6.235
 7679TIP3    H122978   6.335   0.469   6.254
 7679TIP3    H222979   6.445   0.545   6.182
 7680TIP3   OH222980   1.736   3.965   1.440
 7680TIP3    H122981   1.663   3.933   1.493
 7680TIP3    H222982   1.798   3.892   1.437
 7681TIP3   OH222983   2.925   3.261   6.780
 7681TIP3    H122984   3.013   3.280   6.814
 7681TIP3    H222985   2.922   3.304   6.695
 7682TIP3   OH222986   5.324   4.650   1.769
 7682TIP3    H122987   5.353   4.730   1.814
 7682TIP3    H222988   5.272   4.682   1.695
 7683TIP3   OH222989   5.281   4.472   0.376
 7683TIP3    H122990   5.191   4.445   0.358
 7683TIP3    H222991   5.306   4.524   0.300
 7684TIP3   OH222992   6.033   6.655   0.714
 7684TIP3    H122993   6.013   6.566   0.742
 7684TIP3    H222994   5.957   6.707   0.739
 7685TIP3   OH222995   3.632   1.317   4.194
 7685TIP3    H122996   3.649   1.265   4.272
 7685TIP3    H222997   3.595   1.255   4.131
 7686TIP3   OH222998   3.116   7.834   4.864
 7686TIP3    H122999   3.130   7.897   4.935
 7686TIP3    H223000   3.046   7.777   4.896
 7687TIP3   OH223001   6.274   1.958   2.832
 7687TIP3    H123002   6.186   1.939   2.866
 7687TIP3    H223003   6.329   1.966   2.910
 7688TIP3   OH223004   6.072   2.061   6.180
 7688TIP3    H123005   6.138   1.998   6.208
 7688TIP3    H223006   6.078   2.132   6.244
 7689TIP3   OH223007   3.982   3.006   5.573
 7689TIP3    H123008   4.055   3.056   5.536
 7689TIP3    H223009   3.917   3.073   5.597
 7690TIP3   OH223010   0.839   3.646   1.878
 7690TIP3    H123011   0.822   3.552   1.879
 7690TIP3    H223012   0.933   3.654   1.894
 7691TIP3   OH223013   5.076   1.986   6.731
 7691TIP3    H123014   5.036   1.918   6.676
 7691TIP3    H223015   5.043   2.068   6.695
 7692TIP3   OH223016   3.960   5.477   5.000
 7692TIP3    H123017   3.999   5.557   4.965
 7692TIP3    H223018   4.027   5.410   4.986
 7693TIP3   OH223019   0.044   3.655   4.968
 7693TIP3    H123020   0.093   3.646   4.886
 7693TIP3    H223021   0.112   3.674   5.033
 7694TIP3   OH223022   6.163   2.886   6.651
 7694TIP3    H123023   6.080   2.920   6.618
 7694TIP3    H223024   6.223   2.961   6.646
 7695TIP3   OH223025   2.868   7.167   1.219
 7695TIP3    H123026   2.882   7.087   1.270
 7695TIP3    H223027   2.900   7.146   1.132
 7696TIP3   OH223028   6.827   4.722   2.908
 7696TIP3    H123029   6.791   4.661   2.844
 7696TIP3    H223030   6.761   4.791   2.916
 7697TIP3   OH223031   2.933   2.798   0.316
 7697TIP3    H123032   3.024   2.826   0.318
 7697TIP3    H223033   2.936   2.705   0.339
 7698TIP3   OH223034   4.062   4.438   5.803
 7698TIP3    H123035   4.068   4.514   5.744
 7698TIP3    H223036   4.130   4.453   5.868
 7699TIP3   OH223037   1.975   0.064   6.604
 7699TIP3    H123038   1.954   0.095   6.692
 7699TIP3    H223039   1.894   0.073   6.555
 7700TIP3   OH223040   4.621   2.389   4.992
 7700TIP3    H123041   4.671   2.465   5.024
 7700TIP3    H223042   4.680   2.347   4.930
 7701TIP3   OH223043   4.214   6.215   4.939
 7701TIP3    H123044   4.226   6.210   4.844
 7701TIP3    H223045   4.232   6.126   4.970
 7702TIP3   OH223046   0.294   6.452   1.042
 7702TIP3    H123047   0.283   6.485   1.131
 7702TIP3    H223048   0.361   6.385   1.049
 7703TIP3   OH223049   6.443   3.590   5.057
 7703TIP3    H123050   6.511   3.653   5.082
 7703TIP3    H223051   6.457   3.515   5.114
 7704TIP3   OH223052   3.887   7.889   5.514
 7704TIP3    H123053   3.954   7.840   5.562
 7704TIP3    H223054   3.867   7.833   5.439
 7705TIP3   OH223055   7.925   0.550   2.979
 7705TIP3    H123056   7.895   0.534   2.889
 7705TIP3    H223057   8.016   0.519   2.979
 7706TIP3   OH223058   6.869   1.112   3.186
 7706TIP3    H123059   6.956   1.117   3.146
 7706TIP3    H223060   6.844   1.204   3.200
 7707TIP3   OH223061   5.982   4.773   2.139
 7707TIP3    H123062   5.994   4.781   2.234
 7707TIP3    H223063   6.007   4.682   2.119
 7708TIP3   OH223064   4.874   1.759   1.391
 7708TIP3    H123065   4.839   1.730   1.476
 7708TIP3    H223066   4.955   1.806   1.413
 7709TIP3   OH223067   1.457   4.341   6.034
 7709TIP3    H123068   1.432   4.433   6.046
 7709TIP3    H223069   1.465   4.306   6.123
 7710TIP3   OH223070   2.130   7.578   3.854
 7710TIP3    H123071   2.071   7.542   3.787
 7710TIP3    H223072   2.074   7.633   3.908
 7711TIP3   OH223073   7.218   5.092   4.559
 7711TIP3    H123074   7.175   5.166   4.516
 7711TIP3    H223075   7.276   5.056   4.492
 7712TIP3   OH223076   0.829   3.075   3.984
 7712TIP3    H123077   0.915   3.103   3.954
 7712TIP3    H223078   0.846   3.005   4.047
 7713TIP3   OH223079   7.909   4.110   2.179
 7713TIP3    H123080   7.890   4.151   2.263
 7713TIP3    H223081   8.005   4.106   2.176
 7714TIP3   OH223082   6.745   4.260   1.354
 7714TIP3    H123083   6.702   4.179   1.327
 7714TIP3    H223084   6.838   4.239   1.355
 7715TIP3   OH223085   4.372   7.178   4.428
 7715TIP3    H123086   4.427   7.101   4.414
 7715TIP3    H223087   4.359   7.215   4.341
 7716TIP3   OH223088   1.310   4.395   1.955
 7716TIP3    H123089   1.295   4.364   1.866
 7716TIP3    H223090   1.343   4.484   1.944
 7717TIP3   OH223091   0.738   5.388   5.557
 7717TIP3    H123092   0.803   5.391   5.487
 7717TIP3    H223093   0.769   5.320   5.616
 7718TIP3   OH223094   1.781   0.830   4.827
 7718TIP3    H123095   1.746   0.815   4.739
 7718TIP3    H223096   1.844   0.759   4.840
 7719TIP3   OH223097   5.060   7.597   0.644
 7719TIP3    H123098   5.014   7.659   0.700
 7719TIP3    H223099   5.065   7.517   0.696
 7720TIP3   OH223100   2.666   1.130   1.175
 7720TIP3    H123101   2.623   1.114   1.259
 7720TIP3    H223102   2.598   1.168   1.120
 7721TIP3   OH223103   7.403   3.933   4.526
 7721TIP3    H123104   7.312   3.952   4.552
 7721TIP3    H223105   7.414   3.979   4.443
 7722TIP3   OH223106   4.581   1.652   3.936
 7722TIP3    H123107   4.565   1.578   3.877
 7722TIP3    H223108   4.498   1.666   3.981
 7723TIP3   OH223109   7.764   4.917   4.572
 7723TIP3    H123110   7.850   4.878   4.588
 7723TIP3    H223111   7.748   4.972   4.648
 7724TIP3   OH223112   3.608   0.476   4.998
 7724TIP3    H123113   3.545   0.513   4.936
 7724TIP3    H223114   3.680   0.540   4.999
 7725TIP3   OH223115   6.714   0.906   4.733
 7725TIP3    H123116   6.759   0.855   4.801
 7725TIP3    H223117   6.710   0.847   4.658
 7726TIP3   OH223118   0.899   4.252   5.875
 7726TIP3    H123119   0.960   4.325   5.866
 7726TIP3    H223120   0.814   4.287   5.847
 7727TIP3   OH223121   6.511   1.973   1.404
 7727TIP3    H123122   6.456   1.909   1.449
 7727TIP3    H223123   6.538   1.928   1.323
 7728TIP3   OH223124   6.662   6.464   5.686
 7728TIP3    H123125   6.696   6.380   5.716
 7728TIP3    H223126   6.739   6.512   5.657
 7729TIP3   OH223127   7.148   7.777   6.612
 7729TIP3    H123128   7.235   7.769   6.652
 7729TIP3    H223129   7.164   7.764   6.519
 7730TIP3   OH223130   7.719   3.523   6.006
 7730TIP3    H123131   7.667   3.458   5.958
 7730TIP3    H223132   7.794   3.474   6.038
 7731TIP3   OH223133   6.332   7.809   2.499
 7731TIP3    H123134   6.307   7.803   2.407
 7731TIP3    H223135   6.423   7.838   2.498
 7732TIP3   OH223136   6.404   7.641   6.715
 7732TIP3    H123137   6.350   7.702   6.665
 7732TIP3    H223138   6.443   7.694   6.784
 7733TIP3   OH223139   6.593   2.671   3.843
 7733TIP3    H123140   6.649   2.701   3.772
 7733TIP3    H223141   6.644   2.687   3.922
 7734TIP3   OH223142   6.530   5.903   2.160
 7734TIP3    H123143   6.583   5.975   2.194
 7734TIP3    H223144   6.556   5.828   2.214
 7735TIP3   OH223145   1.678   5.503   5.261
 7735TIP3    H123146   1.706   5.534   5.174
 7735TIP3    H223147   1.655   5.583   5.308
 7736TIP3   OH223148   1.403   2.396   1.874
 7736TIP3    H123149   1.359   2.472   1.911
 7736TIP3    H223150   1.350   2.371   1.798
 7737TIP3   OH223151   1.641   4.094   4.787
 7737TIP3    H123152   1.570   4.037   4.818
 7737TIP3    H223153   1.684   4.123   4.867
 7738TIP3   OH223154   0.205   3.894   0.864
 7738TIP3    H123155   0.261   3.823   0.835
 7738TIP3    H223156   0.131   3.894   0.803
 7739TIP3   OH223157   3.632   2.997   6.718
 7739TIP3    H123158   3.578   3.075   6.730
 7739TIP3    H223159   3.597   2.933   6.779
 7740TIP3   OH223160   7.375   6.499   6.680
 7740TIP3    H123161   7.351   6.562   6.748
 7740TIP3    H223162   7.393   6.553   6.603
 7741TIP3   OH223163   4.000   5.078   5.282
 7741TIP3    H123164   3.938   5.055   5.212
 7741TIP3    H223165   3.959   5.044   5.362
 7742TIP3   OH223166   5.923   6.112   6.741
 7742TIP3    H123167   5.923   6.149   6.829
 7742TIP3    H223168   5.923   6.017   6.756
 7743TIP3   OH223169   0.639   4.775   4.688
 7743TIP3    H123170   0.692   4.790   4.766
 7743TIP3    H223171   0.552   4.808   4.712
 7744TIP3   OH223172   0.572   7.485   1.956
 7744TIP3    H123173   0.638   7.508   2.022
 7744TIP3    H223174   0.521   7.565   1.945
 7745TIP3   OH223175   2.290   3.377   5.636
 7745TIP3    H123176   2.290   3.404   5.727
 7745TIP3    H223177   2.200   3.393   5.606
 7746TIP3   OH223178   6.876   7.506   5.774
 7746TIP3    H123179   6.794   7.525   5.730
 7746TIP3    H223180   6.873   7.412   5.793
 7747TIP3   OH223181   0.436   6.583   1.508
 7747TIP3    H123182   0.509   6.591   1.446
 7747TIP3    H223183   0.478   6.562   1.592
 7748TIP3   OH223184   2.948   7.268   5.406
 7748TIP3    H123185   2.930   7.287   5.498
 7748TIP3    H223186   2.935   7.352   5.362
 7749TIP3   OH223187   2.858   2.249   3.243
 7749TIP3    H123188   2.767   2.266   3.217
 7749TIP3    H223189   2.878   2.163   3.207
 7750TIP3   OH223190   6.662   3.385   5.108
 7750TIP3    H123191   6.715   3.464   5.112
 7750TIP3    H223192   6.681   3.339   5.190
 7751TIP3   OH223193   5.852   5.310   0.136
 7751TIP3    H123194   5.769   5.311   0.089
 7751TIP3    H223195   5.915   5.273   0.074
 7752TIP3   OH223196   8.222   5.151   2.588
 7752TIP3    H123197   8.145   5.109   2.549
 7752TIP3    H223198   8.193   5.240   2.607
 7753TIP3   OH223199   3.165   7.897   6.784
 7753TIP3    H123200   3.162   7.804   6.807
 7753TIP3    H223201   3.227   7.902   6.711
 7754TIP3   OH223202   0.665   5.271   6.134
 7754TIP3    H123203   0.574   5.242   6.143
 7754TIP3    H223204   0.706   5.250   6.218
 7755TIP3   OH223205   3.429   1.312   3.829
 7755TIP3    H123206   3.474   1.236   3.865
 7755TIP3    H223207   3.368   1.276   3.765
 7756TIP3   OH223208   3.674   2.601   0.587
 7756TIP3    H123209   3.666   2.515   0.628
 7756TIP3    H223210   3.596   2.609   0.533
 7757TIP3   OH223211   2.060   4.224   1.624
 7757TIP3    H123212   1.989   4.279   1.591
 7757TIP3    H223213   2.121   4.219   1.550
 7758TIP3   OH223214   7.147   1.207   4.920
 7758TIP3    H123215   7.178   1.129   4.967
 7758TIP3    H223216   7.213   1.274   4.939
 7759TIP3   OH223217   0.115   7.009   5.914
 7759TIP3    H123218   0.047   7.001   5.847
 7759TIP3    H223219   0.108   7.100   5.944
 7760TIP3   OH223220   2.062   2.428   0.837
 7760TIP3    H123221   2.054   2.441   0.743
 7760TIP3    H223222   2.021   2.343   0.854
 7761TIP3   OH223223   7.129   6.599   0.382
 7761TIP3    H123224   7.107   6.525   0.439
 7761TIP3    H223225   7.111   6.676   0.436
 7762TIP3   OH223226   6.616   2.248   2.383
 7762TIP3    H123227   6.701   2.238   2.425
 7762TIP3    H223228   6.603   2.342   2.377
 7763TIP3   OH223229   3.947   3.194   6.089
 7763TIP3    H123230   3.973   3.147   6.168
 7763TIP3    H223231   4.017   3.176   6.027
 7764TIP3   OH223232   4.014   0.631   2.952
 7764TIP3    H123233   4.035   0.719   2.921
 7764TIP3    H223234   4.065   0.622   3.033
 7765TIP3   OH223235   6.960   0.522   1.768
 7765TIP3    H123236   6.877   0.547   1.729
 7765TIP3    H223237   6.936   0.476   1.849
 7766TIP3   OH223238   6.959   3.358   0.911
 7766TIP3    H123239   6.998   3.282   0.954
 7766TIP3    H223240   7.030   3.397   0.862
 7767TIP3   OH223241   2.993   5.849   0.347
 7767TIP3    H123242   3.035   5.832   0.263
 7767TIP3    H223243   3.006   5.943   0.362
 7768TIP3   OH223244   6.325   1.590   2.222
 7768TIP3    H123245   6.349   1.547   2.140
 7768TIP3    H223246   6.308   1.681   2.197
 7769TIP3   OH223247   6.356   1.765   4.558
 7769TIP3    H123248   6.380   1.675   4.579
 7769TIP3    H223249   6.267   1.758   4.523
 7770TIP3   OH223250   6.336   2.629   4.782
 7770TIP3    H123251   6.420   2.641   4.737
 7770TIP3    H223252   6.301   2.718   4.791
 7771TIP3   OH223253   1.751   3.407   2.761
 7771TIP3    H123254   1.768   3.479   2.700
 7771TIP3    H223255   1.668   3.370   2.732
 7772TIP3   OH223256   0.988   3.329   2.136
 7772TIP3    H123257   1.003   3.395   2.204
 7772TIP3    H223258   0.893   3.331   2.121
 7773TIP3   OH223259   8.202   0.509   3.629
 7773TIP3    H123260   8.147   0.546   3.560
 7773TIP3    H223261   8.141   0.469   3.691
 7774TIP3   OH223262   7.233   2.331   4.135
 7774TIP3    H123263   7.141   2.307   4.148
 7774TIP3    H223264   7.230   2.420   4.100
 7775TIP3   OH223265   3.375   7.744   0.188
 7775TIP3    H123266   3.467   7.720   0.200
 7775TIP3    H223267   3.378   7.825   0.137
 7776TIP3   OH223268   6.225   2.847   2.829
 7776TIP3    H123269   6.152   2.909   2.829
 7776TIP3    H223270   6.297   2.895   2.871
 7777TIP3   OH223271   4.327   5.811   2.085
 7777TIP3    H123272   4.245   5.767   2.106
 7777TIP3    H223273   4.340   5.875   2.155
 7778TIP3   OH223274   0.766   7.556   0.537
 7778TIP3    H123275   0.772   7.494   0.610
 7778TIP3    H223276   0.848   7.545   0.489
 7779TIP3   OH223277   1.324  -0.013   3.818
 7779TIP3    H123278   1.355   0.022   3.901
 7779TIP3    H223279   1.293   0.063   3.769
 7780TIP3   OH223280   7.212   2.832   1.680
 7780TIP3    H123281   7.238   2.763   1.618
 7780TIP3    H223282   7.131   2.800   1.719
 7781TIP3   OH223283   4.460   2.199   6.365
 7781TIP3    H123284   4.380   2.154   6.338
 7781TIP3    H223285   4.491   2.242   6.285
 7782TIP3   OH223286   0.797   4.416   3.711
 7782TIP3    H123287   0.816   4.444   3.801
 7782TIP3    H223288   0.843   4.479   3.656
 7783TIP3   OH223289   3.588   5.254   1.006
 7783TIP3    H123290   3.620   5.182   1.060
 7783TIP3    H223291   3.659   5.271   0.944
 7784TIP3   OH223292   0.178   1.221   5.563
 7784TIP3    H123293   0.187   1.160   5.636
 7784TIP3    H223294   0.118   1.177   5.503
 7785TIP3   OH223295   0.260   2.536   3.394
 7785TIP3    H123296   0.321   2.554   3.466
 7785TIP3    H223297   0.305   2.472   3.339
 7786TIP3   OH223298   3.488   3.533   2.002
 7786TIP3    H123299   3.395   3.547   2.020
 7786TIP3    H223300   3.492   3.521   1.907
 7787TIP3   OH223301   4.608   4.918   4.018
 7787TIP3    H123302   4.535   4.977   4.038
 7787TIP3    H223303   4.574   4.860   3.949
 7788TIP3   OH223304   4.850   1.938   3.369
 7788TIP3    H123305   4.780   1.966   3.428
 7788TIP3    H223306   4.832   1.983   3.287
 7789TIP3   OH223307   7.528   0.363   0.034
 7789TIP3    H123308   7.607   0.417   0.041
 7789TIP3    H223309   7.524   0.338  -0.058
 7790TIP3   OH223310   5.343   3.472   0.760
 7790TIP3    H123311   5.302   3.418   0.828
 7790TIP3    H223312   5.371   3.409   0.693
 7791TIP3   OH223313   0.568   5.330   5.113
 7791TIP3    H123314   0.513   5.350   5.037
 7791TIP3    H223315   0.650   5.299   5.076
 7792TIP3   OH223316   1.661   5.526   4.431
 7792TIP3    H123317   1.618   5.515   4.516
 7792TIP3    H223318   1.754   5.526   4.450
 7793TIP3   OH223319   6.127   2.530   3.096
 7793TIP3    H123320   6.215   2.568   3.097
 7793TIP3    H223321   6.069   2.604   3.112
 7794TIP3   OH223322   2.312   2.366   6.036
 7794TIP3    H123323   2.279   2.295   5.981
 7794TIP3    H223324   2.236   2.421   6.053
 7795TIP3   OH223325   5.200   6.759   6.336
 7795TIP3    H123326   5.248   6.838   6.312
 7795TIP3    H223327   5.256   6.686   6.308
 7796TIP3   OH223328   3.200   0.357   1.973
 7796TIP3    H123329   3.188   0.437   2.023
 7796TIP3    H223330   3.255   0.302   2.028
 7797TIP3   OH223331   7.350   2.342   3.653
 7797TIP3    H123332   7.321   2.412   3.595
 7797TIP3    H223333   7.297   2.267   3.628
 7798TIP3   OH223334   5.952   4.074   5.295
 7798TIP3    H123335   5.952   3.989   5.251
 7798TIP3    H223336   5.896   4.129   5.241
 7799TIP3   OH223337   1.516   1.701   6.699
 7799TIP3    H123338   1.561   1.724   6.781
 7799TIP3    H223339   1.447   1.640   6.726
 7800TIP3   OH223340   8.339   7.922   6.396
 7800TIP3    H123341   8.368   7.876   6.474
 7800TIP3    H223342   8.255   7.961   6.421
 7801TIP3   OH223343   5.261   5.045   6.314
 7801TIP3    H123344   5.269   5.056   6.408
 7801TIP3    H223345   5.324   5.107   6.277
 7802TIP3   OH223346   2.682   5.429   4.619
 7802TIP3    H123347   2.670   5.372   4.544
 7802TIP3    H223348   2.777   5.438   4.628
 7803TIP3   OH223349   7.282   3.539   2.912
 7803TIP3    H123350   7.340   3.612   2.892
 7803TIP3    H223351   7.304   3.472   2.847
 7804TIP3   OH223352   1.896   6.073   6.234
 7804TIP3    H123353   1.837   6.039   6.168
 7804TIP3    H223354   1.869   6.030   6.315
 7805TIP3   OH223355   5.912   4.799   5.085
 7805TIP3    H123356   5.866   4.845   5.015
 7805TIP3    H223357   5.905   4.707   5.062
 7806TIP3   OH223358   0.945   5.421   6.430
 7806TIP3    H123359   0.906   5.449   6.348
 7806TIP3    H223360   1.038   5.441   6.420
 7807TIP3   OH223361   7.988   1.775   4.457
 7807TIP3    H123362   7.981   1.679   4.455
 7807TIP3    H223363   8.081   1.792   4.471
 7808TIP3   OH223364   3.740   3.691   2.386
 7808TIP3    H123365   3.703   3.775   2.414
 7808TIP3    H223366   3.668   3.629   2.394
 7809TIP3   OH223367   5.854   6.805   3.212
 7809TIP3    H123368   5.778   6.849   3.251
 7809TIP3    H223369   5.918   6.801   3.283
 7810TIP3   OH223370   5.037   0.098   5.098
 7810TIP3    H123371   5.098   0.157   5.054
 7810TIP3    H223372   5.080   0.012   5.094
 7811TIP3   OH223373   2.218   7.090   2.943
 7811TIP3    H123374   2.123   7.098   2.935
 7811TIP3    H223375   2.238   7.125   3.030
 7812TIP3   OH223376   2.481   2.939   6.773
 7812TIP3    H123377   2.425   3.009   6.807
 7812TIP3    H223378   2.540   2.982   6.712
 7813TIP3   OH223379   4.064   7.323   3.018
 7813TIP3    H123380   4.143   7.305   2.967
 7813TIP3    H223381   4.094   7.332   3.108
 7814TIP3   OH223382   3.722   7.613   4.856
 7814TIP3    H123383   3.693   7.704   4.863
 7814TIP3    H223384   3.645   7.566   4.825
 7815TIP3   OH223385   7.380   6.585   4.710
 7815TIP3    H123386   7.311   6.643   4.741
 7815TIP3    H223387   7.460   6.637   4.719
 7816TIP3   OH223388   0.912   7.624   5.092
 7816TIP3    H123389   0.837   7.643   5.035
 7816TIP3    H223390   0.982   7.679   5.058
 7817TIP3   OH223391   0.482   1.077   0.011
 7817TIP3    H123392   0.556   1.137   0.026
 7817TIP3    H223393   0.407   1.135  -0.002
 7818TIP3   OH223394   7.932   0.837   5.736
 7818TIP3    H123395   7.938   0.880   5.651
 7818TIP3    H223396   7.945   0.744   5.716
 7819TIP3   OH223397   6.067   6.424   2.179
 7819TIP3    H123398   6.028   6.475   2.108
 7819TIP3    H223399   6.121   6.359   2.135
 7820TIP3   OH223400   1.762   4.010   6.681
 7820TIP3    H123401   1.850   4.049   6.690
 7820TIP3    H223402   1.753   3.955   6.759
 7821TIP3   OH223403   4.908   0.682   1.446
 7821TIP3    H123404   4.979   0.632   1.486
 7821TIP3    H223405   4.830   0.629   1.461
 7822TIP3   OH223406   4.584   1.119   1.463
 7822TIP3    H123407   4.592   1.155   1.552
 7822TIP3    H223408   4.491   1.122   1.444
 7823TIP3   OH223409   1.891   4.204   5.772
 7823TIP3    H123410   1.877   4.115   5.741
 7823TIP3    H223411   1.852   4.206   5.859
 7824TIP3   OH223412   5.406   7.486   2.205
 7824TIP3    H123413   5.501   7.490   2.213
 7824TIP3    H223414   5.380   7.573   2.177
 7825TIP3   OH223415   4.801   4.703   6.806
 7825TIP3    H123416   4.769   4.660   6.727
 7825TIP3    H223417   4.860   4.639   6.846
 7826TIP3   OH223418   6.242   2.992   1.269
 7826TIP3    H123419   6.251   2.987   1.364
 7826TIP3    H223420   6.174   2.928   1.248
 7827TIP3   OH223421   1.444   4.716   1.644
 7827TIP3    H123422   1.494   4.729   1.563
 7827TIP3    H223423   1.353   4.727   1.617
 7828TIP3   OH223424   6.440   0.319   4.240
 7828TIP3    H123425   6.456   0.411   4.221
 7828TIP3    H223426   6.365   0.296   4.186
 7829TIP3   OH223427   3.379   3.723   0.613
 7829TIP3    H123428   3.426   3.777   0.550
 7829TIP3    H223429   3.332   3.658   0.560
 7830TIP3   OH223430   1.505   5.455   0.582
 7830TIP3    H123431   1.579   5.424   0.634
 7830TIP3    H223432   1.465   5.376   0.546
 7831TIP3   OH223433   8.243   0.256   2.715
 7831TIP3    H123434   8.180   0.194   2.751
 7831TIP3    H223435   8.326   0.233   2.756
 7832TIP3   OH223436   6.708   0.360   0.293
 7832TIP3    H123437   6.708   0.336   0.201
 7832TIP3    H223438   6.765   0.296   0.335
 7833TIP3   OH223439   3.065   0.461   2.290
 7833TIP3    H123440   3.054   0.541   2.239
 7833TIP3    H223441   3.008   0.397   2.248
 7834TIP3   OH223442   2.308   1.472   4.694
 7834TIP3    H123443   2.358   1.497   4.772
 7834TIP3    H223444   2.230   1.429   4.729
 7835TIP3   OH223445   2.345   1.203   1.724
 7835TIP3    H123446   2.363   1.165   1.638
 7835TIP3    H223447   2.419   1.175   1.778
 7836TIP3   OH223448   5.367   6.109   1.653
 7836TIP3    H123449   5.397   6.200   1.664
 7836TIP3    H223450   5.387   6.067   1.737
 7837TIP3   OH223451   2.569   6.876   5.172
 7837TIP3    H123452   2.633   6.806   5.158
 7837TIP3    H223453   2.484   6.835   5.156
 7838TIP3   OH223454   2.563   2.456   5.905
 7838TIP3    H123455   2.562   2.551   5.894
 7838TIP3    H223456   2.481   2.436   5.949
 7839TIP3   OH223457   3.628   7.751   3.604
 7839TIP3    H123458   3.608   7.836   3.564
 7839TIP3    H223459   3.563   7.742   3.675
 7840TIP3   OH223460   5.419   0.648   5.564
 7840TIP3    H123461   5.495   0.698   5.591
 7840TIP3    H223462   5.433   0.561   5.601
 7841TIP3   OH223463   7.295   1.472   3.313
 7841TIP3    H123464   7.358   1.511   3.253
 7841TIP3    H223465   7.339   1.394   3.347
 7842TIP3   OH223466   1.702   6.133   3.949
 7842TIP3    H123467   1.673   6.127   4.040
 7842TIP3    H223468   1.621   6.147   3.899
 7843TIP3   OH223469   0.715   4.984   2.451
 7843TIP3    H123470   0.622   4.962   2.443
 7843TIP3    H223471   0.739   4.956   2.539
 7844TIP3   OH223472   2.957   5.297   4.241
 7844TIP3    H123473   2.927   5.215   4.201
 7844TIP3    H223474   2.885   5.324   4.297
 7845TIP3   OH223475   4.312   7.545   6.293
 7845TIP3    H123476   4.269   7.625   6.261
 7845TIP3    H223477   4.390   7.577   6.340
 7846TIP3   OH223478   2.418   3.279   3.796
 7846TIP3    H123479   2.505   3.318   3.794
 7846TIP3    H223480   2.376   3.309   3.716
 7847TIP3   OH223481   1.898   5.373   4.894
 7847TIP3    H123482   1.941   5.323   4.964
 7847TIP3    H223483   1.904   5.316   4.817
 7848TIP3   OH223484   4.044   1.187   5.475
 7848TIP3    H123485   4.040   1.279   5.502
 7848TIP3    H223486   4.022   1.189   5.382
 7849TIP3   OH223487   4.926   0.152   5.913
 7849TIP3    H123488   4.861   0.082   5.916
 7849TIP3    H223489   4.874   0.232   5.924
 7850TIP3   OH223490   6.422   6.222   1.939
 7850TIP3    H123491   6.413   6.274   1.860
 7850TIP3    H223492   6.338   6.230   1.984
 7851TIP3   OH223493   4.409   7.441   4.747
 7851TIP3    H123494   4.350   7.515   4.757
 7851TIP3    H223495   4.391   7.386   4.823
 7852TIP3   OH223496   7.811   7.498   3.907
 7852TIP3    H123497   7.870   7.427   3.883
 7852TIP3    H223498   7.729   7.455   3.931
 7853TIP3   OH223499   2.506   3.378   0.058
 7853TIP3    H123500   2.426   3.367   0.007
 7853TIP3    H223501   2.534   3.468   0.038
 7854TIP3   OH223502   4.204   0.000   0.238
 7854TIP3    H123503   4.110   0.012   0.226
 7854TIP3    H223504   4.240   0.088   0.241
 7855TIP3   OH223505   4.523   4.955   2.016
 7855TIP3    H123506   4.518   4.990   1.927
 7855TIP3    H223507   4.460   4.882   2.017
 7856TIP3   OH223508   1.252   6.812   2.391
 7856TIP3    H123509   1.290   6.773   2.470
 7856TIP3    H223510   1.319   6.803   2.324
 7857TIP3   OH223511   2.732   2.925   4.146
 7857TIP3    H123512   2.797   2.994   4.132
 7857TIP3    H223513   2.648   2.965   4.124
 7858TIP3   OH223514   7.880   7.655   0.448
 7858TIP3    H123515   7.874   7.632   0.541
 7858TIP3    H223516   7.972   7.676   0.434
 7859TIP3   OH223517   3.306   0.333   3.692
 7859TIP3    H123518   3.217   0.296   3.686
 7859TIP3    H223519   3.311   0.396   3.620
 7860TIP3   OH223520   3.234   5.614   5.526
 7860TIP3    H123521   3.265   5.562   5.601
 7860TIP3    H223522   3.313   5.633   5.475
 7861TIP3   OH223523   3.759   1.622   2.355
 7861TIP3    H123524   3.701   1.548   2.338
 7861TIP3    H223525   3.810   1.631   2.274
 7862TIP3   OH223526   3.983   7.400   5.064
 7862TIP3    H123527   4.076   7.406   5.088
 7862TIP3    H223528   3.980   7.434   4.974
 7863TIP3   OH223529   1.080   2.728   2.422
 7863TIP3    H123530   1.165   2.683   2.419
 7863TIP3    H223531   1.102   2.817   2.452
 7864TIP3   OH223532   4.447   1.244   6.712
 7864TIP3    H123533   4.469   1.337   6.714
 7864TIP3    H223534   4.357   1.240   6.742
 7865TIP3   OH223535   2.121   5.537   4.840
 7865TIP3    H123536   2.054   5.479   4.805
 7865TIP3    H223537   2.129   5.513   4.932
 7866TIP3   OH223538   2.389   0.281   0.976
 7866TIP3    H123539   2.413   0.279   1.068
 7866TIP3    H223540   2.296   0.306   0.976
 7867TIP3   OH223541   5.422   5.538   6.467
 7867TIP3    H123542   5.466   5.461   6.505
 7867TIP3    H223543   5.472   5.556   6.387
 7868TIP3   OH223544   2.966   6.388   0.872
 7868TIP3    H123545   2.913   6.453   0.826
 7868TIP3    H223546   3.054   6.398   0.834
 7869TIP3   OH223547   2.349   2.572   5.146
 7869TIP3    H123548   2.347   2.655   5.098
 7869TIP3    H223549   2.441   2.547   5.145
 7870TIP3   OH223550   2.679   6.909   2.753
 7870TIP3    H123551   2.638   6.951   2.678
 7870TIP3    H223552   2.771   6.937   2.749
 7871TIP3   OH223553   6.181   7.859   5.755
 7871TIP3    H123554   6.167   7.917   5.830
 7871TIP3    H223555   6.275   7.842   5.754
 7872TIP3   OH223556   4.252   4.921   0.068
 7872TIP3    H123557   4.176   4.894   0.119
 7872TIP3    H223558   4.252   4.862  -0.007
 7873TIP3   OH223559   5.924   4.490   1.426
 7873TIP3    H123560   5.920   4.534   1.341
 7873TIP3    H223561   6.016   4.465   1.436
 7874TIP3   OH223562   4.485   1.598   2.616
 7874TIP3    H123563   4.452   1.514   2.646
 7874TIP3    H223564   4.470   1.599   2.522
 7875TIP3   OH223565   6.999   2.606   6.627
 7875TIP3    H123566   6.917   2.607   6.676
 7875TIP3    H223567   7.050   2.678   6.663
 7876TIP3   OH223568   1.207   4.413   3.852
 7876TIP3    H123569   1.126   4.463   3.867
 7876TIP3    H223570   1.177   4.323   3.841
 7877TIP3   OH223571   3.937   5.789   2.384
 7877TIP3    H123572   3.945   5.712   2.441
 7877TIP3    H223573   3.959   5.863   2.440
 7878TIP3   OH223574   0.679   5.783   4.630
 7878TIP3    H123575   0.698   5.866   4.587
 7878TIP3    H223576   0.641   5.729   4.561
 7879TIP3   OH223577   2.114   6.006   5.115
 7879TIP3    H123578   2.167   5.966   5.046
 7879TIP3    H223579   2.127   6.100   5.105
 7880TIP3   OH223580   6.956   3.789   6.489
 7880TIP3    H123581   6.997   3.874   6.476
 7880TIP3    H223582   7.014   3.727   6.444
 7881TIP3   OH223583   6.117   1.360   6.040
 7881TIP3    H123584   6.037   1.317   6.071
 7881TIP3    H223585   6.085   1.425   5.976
 7882TIP3   OH223586   8.011   1.157   5.823
 7882TIP3    H123587   8.064   1.122   5.896
 7882TIP3    H223588   8.068   1.149   5.747
 7883TIP3   OH223589   4.784   7.810   6.489
 7883TIP3    H123590   4.852   7.746   6.508
 7883TIP3    H223591   4.731   7.813   6.568
 7884TIP3   OH223592   4.402   3.997   6.642
 7884TIP3    H123593   4.489   3.959   6.624
 7884TIP3    H223594   4.374   3.954   6.723
 7885TIP3   OH223595   6.648   0.395   3.346
 7885TIP3    H123596   6.676   0.417   3.435
 7885TIP3    H223597   6.674   0.471   3.294
 7886TIP3   OH223598   1.503   6.242   0.067
 7886TIP3    H123599   1.542   6.282  -0.011
 7886TIP3    H223600   1.440   6.308   0.098
 7887TIP3   OH223601   6.337   3.777   4.892
 7887TIP3    H123602   6.292   3.701   4.929
 7887TIP3    H223603   6.430   3.756   4.900
 7888TIP3   OH223604   6.450   6.105   3.843
 7888TIP3    H123605   6.546   6.110   3.841
 7888TIP3    H223606   6.431   6.011   3.838
 7889TIP3   OH223607   6.441   6.889   1.057
 7889TIP3    H123608   6.486   6.957   1.107
 7889TIP3    H223609   6.495   6.877   0.979
 7890TIP3   OH223610   6.412   6.549   5.196
 7890TIP3    H123611   6.339   6.533   5.255
 7890TIP3    H223612   6.461   6.466   5.196
 7891TIP3   OH223613   3.097   1.631   4.517
 7891TIP3    H123614   3.150   1.641   4.595
 7891TIP3    H223615   3.128   1.698   4.457
 7892TIP3   OH223616   2.143   6.901   6.336
 7892TIP3    H123617   2.086   6.900   6.413
 7892TIP3    H223618   2.198   6.824   6.345
 7893TIP3   OH223619   0.019   0.812   4.032
 7893TIP3    H123620   0.033   0.723   4.064
 7893TIP3    H223621   0.051   0.868   4.102
 7894TIP3   OH223622   6.484   5.937   2.929
 7894TIP3    H123623   6.506   5.862   2.985
 7894TIP3    H223624   6.471   6.009   2.990
 7895TIP3   OH223625   1.896   0.424   3.376
 7895TIP3    H123626   1.991   0.413   3.370
 7895TIP3    H223627   1.877   0.501   3.324
 7896TIP3   OH223628   0.321   3.480   5.375
 7896TIP3    H123629   0.364   3.540   5.435
 7896TIP3    H223630   0.230   3.477   5.404
 7897TIP3   OH223631   3.639   7.362   6.578
 7897TIP3    H123632   3.688   7.310   6.641
 7897TIP3    H223633   3.706   7.415   6.534
 7898TIP3   OH223634   6.864   5.461   0.753
 7898TIP3    H123635   6.776   5.483   0.721
 7898TIP3    H223636   6.850   5.430   0.842
 7899TIP3   OH223637   5.606   4.479   6.831
 7899TIP3    H123638   5.573   4.558   6.788
 7899TIP3    H223639   5.649   4.429   6.761
 7900TIP3   OH223640   6.941   4.856   4.619
 7900TIP3    H123641   6.873   4.922   4.607
 7900TIP3    H223642   7.005   4.898   4.677
 7901TIP3   OH223643   3.219   5.209   3.532
 7901TIP3    H123644   3.178   5.147   3.473
 7901TIP3    H223645   3.297   5.240   3.486
 7902TIP3   OH223646   0.298   1.810   0.221
 7902TIP3    H123647   0.376   1.865   0.229
 7902TIP3    H223648   0.258   1.811   0.308
 7903TIP3   OH223649   4.638   3.104   0.353
 7903TIP3    H123650   4.654   3.034   0.417
 7903TIP3    H223651   4.543   3.103   0.339
 7904TIP3   OH223652   0.632   0.088   4.622
 7904TIP3    H123653   0.685   0.096   4.544
 7904TIP3    H223654   0.687   0.040   4.684
 7905TIP3   OH223655   0.157   7.006   3.200
 7905TIP3    H123656   0.090   7.071   3.217
 7905TIP3    H223657   0.219   7.015   3.272
 7906TIP3   OH223658   7.504   6.205   4.124
 7906TIP3    H123659   7.578   6.251   4.084
 7906TIP3    H223660   7.538   6.118   4.144
 7907TIP3   OH223661   3.523   5.959   2.215
 7907TIP3    H123662   3.462   5.887   2.201
 7907TIP3    H223663   3.598   5.919   2.259
 7908TIP3   OH223664   1.125   6.101   5.833
 7908TIP3    H123665   1.047   6.063   5.874
 7908TIP3    H223666   1.109   6.195   5.833
 7909TIP3   OH223667   1.494   7.494   2.170
 7909TIP3    H123668   1.488   7.588   2.187
 7909TIP3    H223669   1.474   7.452   2.254
 7910TIP3   OH223670   1.254   7.322   4.622
 7910TIP3    H123671   1.226   7.256   4.685
 7910TIP3    H223672   1.242   7.405   4.667
 7911TIP3   OH223673   0.974   4.978   1.855
 7911TIP3    H123674   0.979   4.949   1.946
 7911TIP3    H223675   0.904   4.925   1.817
 7912TIP3   OH223676   4.726   7.633   4.602
 7912TIP3    H123677   4.662   7.577   4.558
 7912TIP3    H223678   4.749   7.699   4.536
 7913TIP3   OH223679   4.984   4.188   2.238
 7913TIP3    H123680   5.076   4.163   2.228
 7913TIP3    H223681   4.984   4.283   2.226
 7914TIP3   OH223682   7.212   4.571   0.303
 7914TIP3    H123683   7.117   4.568   0.312
 7914TIP3    H223684   7.230   4.518   0.225
 7915TIP3   OH223685   0.741   1.281   4.906
 7915TIP3    H123686   0.784   1.234   4.978
 7915TIP3    H223687   0.671   1.222   4.878
 7916TIP3   OH223688   7.156   6.830   0.579
 7916TIP3    H123689   7.206   6.803   0.656
 7916TIP3    H223690   7.217   6.884   0.528
 7917TIP3   OH223691   7.755   1.674   0.189
 7917TIP3    H123692   7.708   1.685   0.106
 7917TIP3    H223693   7.741   1.757   0.235
 7918TIP3   OH223694   2.038   1.560   1.205
 7918TIP3    H123695   1.984   1.636   1.185
 7918TIP3    H223696   2.060   1.570   1.297
 7919TIP3   OH223697   6.327   2.735   0.345
 7919TIP3    H123698   6.291   2.813   0.303
 7919TIP3    H223699   6.250   2.685   0.372
 7920TIP3   OH223700   4.460   1.045   4.202
 7920TIP3    H123701   4.453   1.013   4.292
 7920TIP3    H223702   4.554   1.046   4.184
 7921TIP3   OH223703   0.735   6.039   4.496
 7921TIP3    H123704   0.769   6.101   4.559
 7921TIP3    H223705   0.708   6.092   4.421
 7922TIP3   OH223706   6.374   2.617   6.773
 7922TIP3    H123707   6.371   2.684   6.841
 7922TIP3    H223708   6.396   2.536   6.820
 7923TIP3   OH223709   0.087   1.920   5.194
 7923TIP3    H123710   0.008   1.967   5.220
 7923TIP3    H223711   0.057   1.831   5.174
 7924TIP3   OH223712   5.495   7.097   1.697
 7924TIP3    H123713   5.548   7.020   1.678
 7924TIP3    H223714   5.407   7.074   1.667
 7925TIP3   OH223715   0.321   4.414   4.324
 7925TIP3    H123716   0.306   4.395   4.417
 7925TIP3    H223717   0.234   4.435   4.289
 7926TIP3   OH223718   2.191   0.479   5.474
 7926TIP3    H123719   2.152   0.537   5.409
 7926TIP3    H223720   2.116   0.448   5.526
 7927TIP3   OH223721   3.723   6.636   6.878
 7927TIP3    H123722   3.810   6.598   6.862
 7927TIP3    H223723   3.663   6.578   6.831
 7928TIP3   OH223724   5.759   7.755   6.465
 7928TIP3    H123725   5.800   7.805   6.395
 7928TIP3    H223726   5.755   7.666   6.432
 7929TIP3   OH223727   1.576   2.654   2.559
 7929TIP3    H123728   1.480   2.649   2.563
 7929TIP3    H223729   1.595   2.748   2.563
 7930TIP3   OH223730   1.287   7.306   2.705
 7930TIP3    H123731   1.204   7.275   2.743
 7930TIP3    H223732   1.290   7.265   2.619
 7931TIP3   OH223733   4.761   2.460   2.374
 7931TIP3    H123734   4.697   2.402   2.331
 7931TIP3    H223735   4.707   2.531   2.410
 7932TIP3   OH223736   6.955   4.668   1.769
 7932TIP3    H123737   6.940   4.762   1.758
 7932TIP3    H223738   6.867   4.632   1.783
 7933TIP3   OH223739   3.172   3.830   0.786
 7933TIP3    H123740   3.243   3.867   0.839
 7933TIP3    H223741   3.216   3.770   0.726
 7934TIP3   OH223742   3.138   2.488   4.773
 7934TIP3    H123743   3.087   2.555   4.727
 7934TIP3    H223744   3.228   2.502   4.743
 7935TIP3   OH223745   6.605   2.585   1.847
 7935TIP3    H123746   6.623   2.495   1.821
 7935TIP3    H223747   6.632   2.638   1.772
 7936TIP3   OH223748   6.035   3.943   0.600
 7936TIP3    H123749   6.107   3.960   0.540
 7936TIP3    H223750   6.071   3.881   0.663
 7937TIP3   OH223751   5.681   2.713   6.622
 7937TIP3    H123752   5.751   2.651   6.603
 7937TIP3    H223753   5.725   2.797   6.633
 7938TIP3   OH223754   5.664   5.438   1.449
 7938TIP3    H123755   5.733   5.452   1.385
 7938TIP3    H223756   5.710   5.436   1.533
 7939TIP3   OH223757   6.945   2.651   2.881
 7939TIP3    H123758   6.886   2.645   2.955
 7939TIP3    H223759   6.889   2.638   2.804
 7940TIP3   OH223760   1.802   1.511   1.473
 7940TIP3    H123761   1.781   1.602   1.495
 7940TIP3    H223762   1.749   1.491   1.396
 7941TIP3   OH223763   0.254   4.690   5.614
 7941TIP3    H123764   0.209   4.633   5.552
 7941TIP3    H223765   0.232   4.779   5.585
 7942TIP3   OH223766   0.297   3.396   6.295
 7942TIP3    H123767   0.266   3.476   6.338
 7942TIP3    H223768   0.219   3.361   6.251
 7943TIP3   OH223769   0.189   6.116   4.217
 7943TIP3    H123770   0.252   6.168   4.166
 7943TIP3    H223771   0.108   6.166   4.214
 7944TIP3   OH223772   7.024   7.159   2.442
 7944TIP3    H123773   7.065   7.243   2.423
 7944TIP3    H223774   7.090   7.094   2.417
 7945TIP3   OH223775   5.061   6.348   6.205
 7945TIP3    H123776   5.076   6.304   6.121
 7945TIP3    H223777   5.004   6.422   6.184
 7946TIP3   OH223778   6.869   2.971   4.574
 7946TIP3    H123779   6.800   2.992   4.638
 7946TIP3    H223780   6.862   3.041   4.509
 7947TIP3   OH223781   8.307   7.671   2.232
 7947TIP3    H123782   8.285   7.587   2.273
 7947TIP3    H223783   8.230   7.693   2.180
 7948TIP3   OH223784   5.048   6.558   3.517
 7948TIP3    H123785   5.040   6.646   3.481
 7948TIP3    H223786   4.963   6.518   3.501
 7949TIP3   OH223787   4.250   2.444   4.337
 7949TIP3    H123788   4.283   2.372   4.284
 7949TIP3    H223789   4.233   2.404   4.423
 7950TIP3   OH223790   6.323   2.158   2.654
 7950TIP3    H123791   6.302   2.087   2.715
 7950TIP3    H223792   6.359   2.227   2.710
 7951TIP3   OH223793   2.103   0.212   2.505
 7951TIP3    H123794   2.090   0.217   2.411
 7951TIP3    H223795   2.172   0.276   2.523
 7952TIP3   OH223796   5.422   3.063   1.003
 7952TIP3    H123797   5.398   2.986   0.953
 7952TIP3    H223798   5.502   3.038   1.050
 7953TIP3   OH223799   0.390   1.968   6.260
 7953TIP3    H123800   0.376   1.888   6.210
 7953TIP3    H223801   0.350   1.951   6.345
 7954TIP3   OH223802   3.046   5.956   1.070
 7954TIP3    H123803   3.122   5.972   1.125
 7954TIP3    H223804   3.026   6.042   1.031
 7955TIP3   OH223805   5.402   5.170   5.055
 7955TIP3    H123806   5.309   5.191   5.056
 7955TIP3    H223807   5.406   5.076   5.071
 7956TIP3   OH223808   2.819   0.157   0.520
 7956TIP3    H123809   2.845   0.130   0.432
 7956TIP3    H223810   2.784   0.077   0.560
 7957TIP3   OH223811   5.353   6.990   6.266
 7957TIP3    H123812   5.447   6.974   6.260
 7957TIP3    H223813   5.319   6.965   6.180
 7958TIP3   OH223814   0.256   0.941   2.098
 7958TIP3    H123815   0.236   0.978   2.184
 7958TIP3    H223816   0.290   0.853   2.117
 7959TIP3   OH223817   5.798   1.736   2.252
 7959TIP3    H123818   5.766   1.649   2.227
 7959TIP3    H223819   5.827   1.776   2.170
 7960TIP3   OH223820   3.132   6.820   3.600
 7960TIP3    H123821   3.211   6.860   3.636
 7960TIP3    H223822   3.159   6.733   3.571
 7961TIP3   OH223823   5.042   2.415   6.425
 7961TIP3    H123824   5.137   2.420   6.413
 7961TIP3    H223825   5.020   2.490   6.481
 7962TIP3   OH223826   3.804   7.161   4.087
 7962TIP3    H123827   3.852   7.183   4.166
 7962TIP3    H223828   3.812   7.065   4.080
 7963TIP3   OH223829   5.378   5.464   3.183
 7963TIP3    H123830   5.453   5.472   3.124
 7963TIP3    H223831   5.304   5.446   3.125
 7964TIP3   OH223832   0.770   3.241   5.890
 7964TIP3    H123833   0.771   3.320   5.836
 7964TIP3    H223834   0.685   3.201   5.874
 7965TIP3   OH223835   6.702   1.853   6.256
 7965TIP3    H123836   6.625   1.812   6.216
 7965TIP3    H223837   6.751   1.889   6.183
 7966TIP3   OH223838   5.244   0.510   2.999
 7966TIP3    H123839   5.264   0.570   2.927
 7966TIP3    H223840   5.170   0.552   3.044
 7967TIP3   OH223841   6.209   0.091   4.869
 7967TIP3    H123842   6.183   0.062   4.782
 7967TIP3    H223843   6.223   0.185   4.860
 7968TIP3   OH223844   2.827   1.841   2.695
 7968TIP3    H123845   2.745   1.822   2.650
 7968TIP3    H223846   2.887   1.773   2.664
 7969TIP3   OH223847   7.218   5.608   1.236
 7969TIP3    H123848   7.256   5.601   1.148
 7969TIP3    H223849   7.231   5.699   1.260
 7970TIP3   OH223850   2.147   7.595   6.296
 7970TIP3    H123851   2.229   7.643   6.283
 7970TIP3    H223852   2.133   7.598   6.391
 7971TIP3   OH223853   3.733   4.786   0.938
 7971TIP3    H123854   3.694   4.699   0.942
 7971TIP3    H223855   3.823   4.771   0.912
 7972TIP3   OH223856   0.489   5.738   5.871
 7972TIP3    H123857   0.460   5.659   5.916
 7972TIP3    H223858   0.422   5.755   5.804
 7973TIP3   OH223859   4.819   4.192   0.595
 7973TIP3    H123860   4.809   4.205   0.501
 7973TIP3    H223861   4.818   4.097   0.606
 7974TIP3   OH223862   5.065   6.758   6.585
 7974TIP3    H123863   5.136   6.739   6.524
 7974TIP3    H223864   5.053   6.677   6.635
 7975TIP3   OH223865   2.153   3.714   4.521
 7975TIP3    H123866   2.234   3.707   4.572
 7975TIP3    H223867   2.115   3.798   4.547
 7976TIP3   OH223868   4.574   7.661   2.072
 7976TIP3    H123869   4.621   7.578   2.063
 7976TIP3    H223870   4.485   7.643   2.043
 7977TIP3   OH223871   5.633   7.856   5.396
 7977TIP3    H123872   5.697   7.786   5.383
 7977TIP3    H223873   5.550   7.816   5.369
 7978TIP3   OH223874   1.365   4.138   6.283
 7978TIP3    H123875   1.449   4.164   6.320
 7978TIP3    H223876   1.317   4.220   6.272
 7979TIP3   OH223877   4.062   6.549   6.837
 7979TIP3    H123878   4.113   6.469   6.854
 7979TIP3    H223879   4.009   6.527   6.760
 7980TIP3   OH223880   3.701   1.004   4.175
 7980TIP3    H123881   3.728   0.913   4.161
 7980TIP3    H223882   3.638   1.022   4.105
 7981TIP3   OH223883   6.349   2.498   1.399
 7981TIP3    H123884   6.381   2.580   1.437
 7981TIP3    H223885   6.300   2.456   1.470
 7982TIP3   OH223886   5.661   0.218   2.082
 7982TIP3    H123887   5.641   0.238   1.990
 7982TIP3    H223888   5.663   0.304   2.125
 7983TIP3   OH223889   3.973   4.834   0.102
 7983TIP3    H123890   3.925   4.901   0.054
 7983TIP3    H223891   3.973   4.758   0.043
 7984TIP3   OH223892   0.951   7.129   4.652
 7984TIP3    H123893   0.858   7.128   4.677
 7984TIP3    H223894   0.995   7.170   4.727
 7985TIP3   OH223895   3.757   2.925   3.062
 7985TIP3    H123896   3.800   2.869   3.127
 7985TIP3    H223897   3.671   2.886   3.050
 7986TIP3   OH223898   7.686   4.063   1.028
 7986TIP3    H123899   7.659   4.034   1.116
 7986TIP3    H223900   7.664   4.156   1.026
 7987TIP3   OH223901   7.938   2.830   0.441
 7987TIP3    H123902   7.895   2.750   0.410
 7987TIP3    H223903   7.866   2.883   0.477
 7988TIP3   OH223904   3.671   3.737   3.908
 7988TIP3    H123905   3.728   3.685   3.966
 7988TIP3    H223906   3.731   3.788   3.854
 7989TIP3   OH223907   2.056   4.978   0.435
 7989TIP3    H123908   2.100   5.060   0.413
 7989TIP3    H223909   1.978   5.005   0.484
 7990TIP3   OH223910   3.612   1.346   3.146
 7990TIP3    H123911   3.545   1.415   3.144
 7990TIP3    H223912   3.563   1.264   3.136
 7991TIP3   OH223913   6.128   1.745   5.388
 7991TIP3    H123914   6.146   1.833   5.356
 7991TIP3    H223915   6.039   1.725   5.357
 7992TIP3   OH223916   4.013   3.288   3.322
 7992TIP3    H123917   3.928   3.284   3.279
 7992TIP3    H223918   4.015   3.211   3.379
 7993TIP3   OH223919   6.306   4.563   2.687
 7993TIP3    H123920   6.227   4.617   2.676
 7993TIP3    H223921   6.313   4.514   2.605
 7994TIP3   OH223922   7.565   0.977   0.987
 7994TIP3    H123923   7.574   1.059   0.937
 7994TIP3    H223924   7.648   0.968   1.033
 7995TIP3   OH223925   8.040   5.373   2.607
 7995TIP3    H123926   7.945   5.383   2.602
 7995TIP3    H223927   8.074   5.450   2.561
 7996TIP3   OH223928   4.416   4.770   5.075
 7996TIP3    H123929   4.394   4.854   5.114
 7996TIP3    H223930   4.437   4.713   5.149
 7997TIP3   OH223931   3.265   0.502   3.926
 7997TIP3    H123932   3.278   0.434   3.861
 7997TIP3    H223933   3.256   0.583   3.875
 7998TIP3   OH223934   1.207   1.894   2.887
 7998TIP3    H123935   1.224   1.913   2.794
 7998TIP3    H223936   1.252   1.964   2.934
 7999TIP3   OH223937   2.851   0.170   5.594
 7999TIP3    H123938   2.842   0.100   5.658
 7999TIP3    H223939   2.854   0.125   5.510
 8000TIP3   OH223940   6.354   2.901   0.633
 8000TIP3    H123941   6.273   2.923   0.588
 8000TIP3    H223942   6.327   2.844   0.705
 8001TIP3   OH223943   1.900   1.047   1.335
 8001TIP3    H123944   1.939   0.960   1.348
 8001TIP3    H223945   1.850   1.038   1.254
 8002TIP3   OH223946   2.392   4.745   1.957
 8002TIP3    H123947   2.304   4.781   1.968
 8002TIP3    H223948   2.389   4.662   2.005
 8003TIP3   OH223949   0.137   2.265   5.028
 8003TIP3    H123950   0.111   2.342   4.978
 8003TIP3    H223951   0.093   2.192   4.985
 8004TIP3   OH223952   7.078   1.303   4.127
 8004TIP3    H123953   7.086   1.262   4.040
 8004TIP3    H223954   7.075   1.229   4.188
 8005TIP3   OH223955   3.345   6.805   4.903
 8005TIP3    H123956   3.430   6.826   4.864
 8005TIP3    H223957   3.363   6.792   4.996
 8006TIP3   OH223958   7.664   3.434   6.702
 8006TIP3    H123959   7.752   3.472   6.695
 8006TIP3    H223960   7.624   3.451   6.617
 8007TIP3   OH223961   4.849   4.016   1.721
 8007TIP3    H123962   4.849   4.082   1.791
 8007TIP3    H223963   4.940   4.014   1.690
 8008TIP3   OH223964   5.892   0.627   6.421
 8008TIP3    H123965   5.975   0.584   6.441
 8008TIP3    H223966   5.917   0.712   6.384
 8009TIP3   OH223967   2.322   1.713   2.876
 8009TIP3    H123968   2.416   1.703   2.858
 8009TIP3    H223969   2.280   1.654   2.813
 8010TIP3   OH223970   7.671   6.082   0.312
 8010TIP3    H123971   7.711   6.123   0.236
 8010TIP3    H223972   7.629   6.154   0.359
 8011TIP3   OH223973   2.505   0.107   6.494
 8011TIP3    H123974   2.428   0.142   6.450
 8011TIP3    H223975   2.551   0.184   6.527
 8012TIP3   OH223976   3.814   1.282   1.171
 8012TIP3    H123977   3.878   1.229   1.123
 8012TIP3    H223978   3.847   1.371   1.166
 8013TIP3   OH223979   3.371   3.700   6.174
 8013TIP3    H123980   3.458   3.663   6.185
 8013TIP3    H223981   3.326   3.681   6.257
 8014TIP3   OH223982   1.273   3.481   5.815
 8014TIP3    H123983   1.249   3.573   5.822
 8014TIP3    H223984   1.258   3.445   5.902
 8015TIP3   OH223985   0.695   2.129   1.968
 8015TIP3    H123986   0.775   2.082   1.943
 8015TIP3    H223987   0.624   2.072   1.939
 8016TIP3   OH223988   5.429   1.577   2.023
 8016TIP3    H123989   5.518   1.608   2.005
 8016TIP3    H223990   5.441   1.499   2.076
 8017TIP3   OH223991   6.851   2.702   2.302
 8017TIP3    H123992   6.943   2.702   2.329
 8017TIP3    H223993   6.819   2.790   2.326
 8018TIP3   OH223994   5.343   3.763   3.695
 8018TIP3    H123995   5.321   3.696   3.759
 8018TIP3    H223996   5.258   3.799   3.668
 8019TIP3   OH223997   1.739   3.521   0.930
 8019TIP3    H123998   1.698   3.552   1.011
 8019TIP3    H223999   1.701   3.434   0.916
 8020TIP3   OH224000   2.725   7.126   4.093
 8020TIP3    H124001   2.775   7.206   4.080
 8020TIP3    H224002   2.653   7.132   4.030
 8021TIP3   OH224003   2.429   1.270   4.919
 8021TIP3    H124004   2.393   1.214   4.850
 8021TIP3    H224005   2.361   1.271   4.986
 8022TIP3   OH224006   3.164   2.901   1.044
 8022TIP3    H124007   3.159   2.976   0.985
 8022TIP3    H224008   3.093   2.843   1.015
 8023TIP3   OH224009   7.289   0.070   1.751
 8023TIP3    H124010   7.352   0.072   1.823
 8023TIP3    H224011   7.301  -0.017   1.711
 8024TIP3   OH224012   7.606   5.437   3.251
 8024TIP3    H124013   7.612   5.341   3.252
 8024TIP3    H224014   7.653   5.462   3.172
 8025TIP3   OH224015   2.136   6.356   0.521
 8025TIP3    H124016   2.098   6.441   0.541
 8025TIP3    H224017   2.098   6.331   0.437
 8026TIP3   OH224018   7.348   6.966   0.063
 8026TIP3    H124019   7.287   7.040   0.056
 8026TIP3    H224020   7.373   6.947  -0.027
 8027TIP3   OH224021   2.063   0.291   0.892
 8027TIP3    H124022   2.046   0.369   0.839
 8027TIP3    H224023   2.010   0.304   0.971
 8028TIP3   OH224024   4.034   3.312   3.723
 8028TIP3    H124025   3.990   3.384   3.768
 8028TIP3    H224026   3.974   3.238   3.733
 8029TIP3   OH224027   0.534   5.990   0.516
 8029TIP3    H124028   0.483   6.066   0.544
 8029TIP3    H224029   0.469   5.930   0.478
 8030TIP3   OH224030   2.783   7.183   1.807
 8030TIP3    H124031   2.700   7.145   1.836
 8030TIP3    H224032   2.775   7.277   1.827
 8031TIP3   OH224033   0.093   1.247   1.671
 8031TIP3    H124034   0.103   1.287   1.757
 8031TIP3    H224035  -0.001   1.232   1.662
 8032TIP3   OH224036   4.442   6.973   1.198
 8032TIP3    H124037   4.453   7.028   1.121
 8032TIP3    H224038   4.354   6.994   1.230
 8033TIP3   OH224039   5.219   1.221   5.970
 8033TIP3    H124040   5.161   1.245   5.898
 8033TIP3    H224041   5.302   1.198   5.928
 8034TIP3   OH224042   6.418   3.188   6.376
 8034TIP3    H124043   6.408   3.228   6.290
 8034TIP3    H224044   6.456   3.102   6.358
 8035TIP3   OH224045   1.824   5.134   6.798
 8035TIP3    H124046   1.891   5.067   6.789
 8035TIP3    H224047   1.840   5.173   6.884
 8036TIP3   OH224048   4.296   1.303   0.291
 8036TIP3    H124049   4.283   1.396   0.309
 8036TIP3    H224050   4.386   1.296   0.260
 8037TIP3   OH224051   0.087   3.998   6.225
 8037TIP3    H124052   0.119   4.087   6.241
 8037TIP3    H224053  -0.007   4.003   6.241
 8038TIP3   OH224054   4.055   3.715   4.605
 8038TIP3    H124055   4.014   3.651   4.547
 8038TIP3    H224056   4.132   3.745   4.557
 8039TIP3   OH224057   0.972   3.554   5.533
 8039TIP3    H124058   1.036   3.529   5.467
 8039TIP3    H224059   0.899   3.591   5.484
 8040TIP3   OH224060   5.784   5.117   5.963
 8040TIP3    H124061   5.760   5.024   5.959
 8040TIP3    H224062   5.816   5.137   5.875
 8041TIP3   OH224063   6.066   5.413   6.118
 8041TIP3    H124064   6.130   5.348   6.149
 8041TIP3    H224065   6.120   5.486   6.087
 8042TIP3   OH224066   4.586   6.317   3.489
 8042TIP3    H124067   4.617   6.255   3.423
 8042TIP3    H224068   4.491   6.319   3.476
 8043TIP3   OH224069   7.965   0.580   5.661
 8043TIP3    H124070   7.898   0.540   5.717
 8043TIP3    H224071   7.942   0.550   5.572
 8044TIP3   OH224072   7.616   5.706   3.413
 8044TIP3    H124073   7.693   5.654   3.387
 8044TIP3    H224074   7.547   5.641   3.428
 8045TIP3   OH224075   6.922   2.664   1.389
 8045TIP3    H124076   6.828   2.677   1.376
 8045TIP3    H224077   6.929   2.618   1.473
 8046TIP3   OH224078   0.817   5.245   3.541
 8046TIP3    H124079   0.839   5.270   3.631
 8046TIP3    H224080   0.728   5.278   3.528
 8047TIP3   OH224081   6.698   4.985   0.218
 8047TIP3    H124082   6.786   4.956   0.242
 8047TIP3    H224083   6.651   4.992   0.302
 8048TIP3   OH224084   7.102   3.470   0.296
 8048TIP3    H124085   7.108   3.403   0.364
 8048TIP3    H224086   7.138   3.428   0.218
 8049TIP3   OH224087   3.008   2.778   3.645
 8049TIP3    H124088   2.969   2.694   3.622
 8049TIP3    H224089   2.951   2.813   3.714
 8050TIP3   OH224090   4.414   5.735   0.092
 8050TIP3    H124091   4.487   5.789   0.066
 8050TIP3    H224092   4.447   5.683   0.165
 8051TIP3   OH224093   4.701   0.056   4.806
 8051TIP3    H124094   4.686   0.081   4.897
 8051TIP3    H224095   4.657  -0.028   4.796
 8052TIP3   OH224096   3.300   3.380   6.305
 8052TIP3    H124097   3.361   3.307   6.291
 8052TIP3    H224098   3.329   3.447   6.243
 8053TIP3   OH224099   3.748   6.298   0.633
 8053TIP3    H124100   3.739   6.388   0.602
 8053TIP3    H224101   3.660   6.275   0.665
 8054TIP3   OH224102   6.821   6.368   5.940
 8054TIP3    H124103   6.836   6.452   5.897
 8054TIP3    H224104   6.789   6.391   6.028
 8055TIP3   OH224105   6.676   4.608   1.766
 8055TIP3    H124106   6.600   4.667   1.767
 8055TIP3    H224107   6.653   4.538   1.828
 8056TIP3   OH224108   4.458   4.438   1.292
 8056TIP3    H124109   4.459   4.362   1.234
 8056TIP3    H224110   4.547   4.441   1.328
 8057TIP3   OH224111   4.557   1.155   0.546
 8057TIP3    H124112   4.511   1.235   0.572
 8057TIP3    H224113   4.526   1.138   0.457
 8058TIP3   OH224114   5.229   5.035   1.648
 8058TIP3    H124115   5.287   5.002   1.716
 8058TIP3    H224116   5.202   4.957   1.599
 8059TIP3   OH224117   8.337   1.487   6.767
 8059TIP3    H124118   8.280   1.531   6.705
 8059TIP3    H224119   8.310   1.519   6.853
 8060TIP3   OH224120   0.399   5.422   2.796
 8060TIP3    H124121   0.431   5.511   2.814
 8060TIP3    H224122   0.304   5.432   2.788
 8061TIP3   OH224123   4.718   7.820   4.375
 8061TIP3    H124124   4.683   7.890   4.319
 8061TIP3    H224125   4.664   7.744   4.354
 8062TIP3   OH224126   2.736   4.314   1.483
 8062TIP3    H124127   2.723   4.408   1.482
 8062TIP3    H224128   2.824   4.301   1.447
 8063TIP3   OH224129   4.011   4.957   1.168
 8063TIP3    H124130   4.036   4.865   1.156
 8063TIP3    H224131   3.925   4.964   1.127
 8064TIP3   OH224132   2.159   7.275   5.536
 8064TIP3    H124133   2.110   7.348   5.577
 8064TIP3    H224134   2.237   7.266   5.591
 8065TIP3   OH224135   3.830   7.758   2.479
 8065TIP3    H124136   3.764   7.745   2.547
 8065TIP3    H224137   3.827   7.851   2.459
 8066TIP3   OH224138   5.292   2.651   3.893
 8066TIP3    H124139   5.234   2.691   3.957
 8066TIP3    H224140   5.233   2.625   3.821
 8067TIP3   OH224141   5.661   6.856   2.933
 8067TIP3    H124142   5.750   6.880   2.959
 8067TIP3    H224143   5.618   6.940   2.913
 8068TIP3   OH224144   0.623   0.965   5.065
 8068TIP3    H124145   0.554   0.925   5.120
 8068TIP3    H224146   0.575   1.005   4.993
 8069TIP3   OH224147   4.613   3.470   4.158
 8069TIP3    H124148   4.703   3.441   4.171
 8069TIP3    H224149   4.604   3.480   4.063
 8070TIP3   OH224150   5.674   6.723   0.232
 8070TIP3    H124151   5.606   6.657   0.217
 8070TIP3    H224152   5.714   6.735   0.146
 8071TIP3   OH224153   2.763   5.330   3.649
 8071TIP3    H124154   2.755   5.340   3.744
 8071TIP3    H224155   2.706   5.398   3.613
 8072TIP3   OH224156   1.438   1.192   0.806
 8072TIP3    H124157   1.463   1.109   0.845
 8072TIP3    H224158   1.394   1.240   0.876
 8073TIP3   OH224159   6.896   1.297   5.008
 8073TIP3    H124160   6.875   1.380   4.964
 8073TIP3    H224161   6.976   1.267   4.964
 8074TIP3   OH224162   7.997   7.217   0.887
 8074TIP3    H124163   7.922   7.273   0.870
 8074TIP3    H224164   8.013   7.225   0.981
 8075TIP3   OH224165   8.409   1.480   3.576
 8075TIP3    H124166   8.360   1.542   3.522
 8075TIP3    H224167   8.342   1.434   3.626
 8076TIP3   OH224168   7.281   3.725   6.667
 8076TIP3    H124169   7.222   3.793   6.699
 8076TIP3    H224170   7.241   3.643   6.696
 8077TIP3   OH224171   0.918   3.247   3.602
 8077TIP3    H124172   0.893   3.197   3.680
 8077TIP3    H224173   0.838   3.294   3.578
 8078TIP3   OH224174   7.293   1.364   6.589
 8078TIP3    H124175   7.283   1.271   6.567
 8078TIP3    H224176   7.340   1.401   6.515
 8079TIP3   OH224177   1.311   4.484   2.724
 8079TIP3    H124178   1.386   4.437   2.759
 8079TIP3    H224179   1.255   4.500   2.800
 8080TIP3   OH224180   1.867   1.380   6.077
 8080TIP3    H124181   1.810   1.408   6.149
 8080TIP3    H224182   1.952   1.365   6.118
 8081TIP3   OH224183   4.587   5.637   0.579
 8081TIP3    H124184   4.601   5.562   0.637
 8081TIP3    H224185   4.595   5.600   0.491
 8082TIP3   OH224186   0.748   6.929   1.340
 8082TIP3    H124187   0.840   6.908   1.324
 8082TIP3    H224188   0.699   6.862   1.294
 8083TIP3   OH224189   6.191   4.478   5.851
 8083TIP3    H124190   6.165   4.559   5.808
 8083TIP3    H224191   6.110   4.428   5.859
 8084TIP3   OH224192   6.190   5.180   2.640
 8084TIP3    H124193   6.250   5.125   2.690
 8084TIP3    H224194   6.207   5.269   2.671
 8085TIP3   OH224195   4.285   2.988   6.206
 8085TIP3    H124196   4.242   2.907   6.180
 8085TIP3    H224197   4.340   2.964   6.280
 8086TIP3   OH224198   5.026   3.180   5.710
 8086TIP3    H124199   5.070   3.184   5.625
 8086TIP3    H224200   5.094   3.201   5.774
 8087TIP3   OH224201   7.879   7.183   2.339
 8087TIP3    H124202   7.943   7.217   2.402
 8087TIP3    H224203   7.836   7.111   2.386
 8088TIP3   OH224204   5.473   1.137   3.463
 8088TIP3    H124205   5.556   1.159   3.504
 8088TIP3    H224206   5.496   1.117   3.372
 8089TIP3   OH224207   1.192   1.296   5.531
 8089TIP3    H124208   1.260   1.305   5.463
 8089TIP3    H224209   1.213   1.214   5.575
 8090TIP3   OH224210   5.859   2.840   4.953
 8090TIP3    H124211   5.845   2.763   5.008
 8090TIP3    H224212   5.884   2.804   4.868
 8091TIP3   OH224213   7.351   5.418   3.085
 8091TIP3    H124214   7.416   5.407   3.016
 8091TIP3    H224215   7.372   5.349   3.149
 8092TIP3   OH224216   6.746   4.797   6.805
 8092TIP3    H124217   6.811   4.864   6.827
 8092TIP3    H224218   6.739   4.800   6.710
 8093TIP3   OH224219   8.137   0.387   3.330
 8093TIP3    H124220   8.117   0.296   3.307
 8093TIP3    H224221   8.223   0.382   3.372
 8094TIP3   OH224222   5.018   5.025   5.841
 8094TIP3    H124223   5.082   5.084   5.803
 8094TIP3    H224224   4.981   5.073   5.915
 8095TIP3   OH224225   3.625   6.026   4.609
 8095TIP3    H124226   3.612   5.956   4.546
 8095TIP3    H224227   3.537   6.046   4.642
 8096TIP3   OH224228   8.122   2.544   1.950
 8096TIP3    H124229   8.111   2.535   2.044
 8096TIP3    H224230   8.178   2.471   1.925
 8097TIP3   OH224231   5.222   3.685   6.759
 8097TIP3    H124232   5.253   3.673   6.670
 8097TIP3    H224233   5.302   3.691   6.812
 8098TIP3   OH224234   4.460   5.045   1.772
 8098TIP3    H124235   4.525   5.112   1.753
 8098TIP3    H224236   4.376   5.089   1.763
 8099TIP3   OH224237   1.765   1.803   4.278
 8099TIP3    H124238   1.713   1.781   4.202
 8099TIP3    H224239   1.744   1.735   4.343
 8100TIP3   OH224240   1.599   6.740   0.515
 8100TIP3    H124241   1.524   6.731   0.574
 8100TIP3    H224242   1.575   6.691   0.437
 8101TIP3   OH224243   5.602   0.598   0.784
 8101TIP3    H124244   5.598   0.565   0.874
 8101TIP3    H224245   5.567   0.528   0.730
 8102TIP3   OH224246   6.092   6.433   4.592
 8102TIP3    H124247   6.073   6.435   4.685
 8102TIP3    H224248   6.083   6.341   4.568
 8103TIP3   OH224249   1.645   3.195   3.867
 8103TIP3    H124250   1.676   3.134   3.800
 8103TIP3    H224251   1.689   3.277   3.847
 8104TIP3   OH224252   1.363   1.598   0.437
 8104TIP3    H124253   1.400   1.564   0.519
 8104TIP3    H224254   1.437   1.641   0.394
 8105TIP3   OH224255   1.458   0.518   5.781
 8105TIP3    H124256   1.472   0.558   5.695
 8105TIP3    H224257   1.535   0.545   5.832
 8106TIP3   OH224258   3.433   7.559   4.954
 8106TIP3    H124259   3.344   7.533   4.932
 8106TIP3    H224260   3.423   7.623   5.024
 8107TIP3   OH224261   7.755   1.013   5.855
 8107TIP3    H124262   7.822   0.944   5.854
 8107TIP3    H224263   7.680   0.972   5.898
 8108TIP3   OH224264   2.300   3.678   1.136
 8108TIP3    H124265   2.301   3.689   1.041
 8108TIP3    H224266   2.220   3.629   1.154
 8109TIP3   OH224267   3.612   5.363   1.528
 8109TIP3    H124268   3.577   5.435   1.580
 8109TIP3    H224269   3.634   5.403   1.444
 8110TIP3   OH224270   2.821   7.583   4.665
 8110TIP3    H124271   2.751   7.648   4.660
 8110TIP3    H224272   2.825   7.557   4.757
 8111TIP3   OH224273   4.915   1.542   4.966
 8111TIP3    H124274   4.992   1.557   4.912
 8111TIP3    H224275   4.855   1.494   4.909
 8112TIP3   OH224276   7.330   6.995   5.297
 8112TIP3    H124277   7.384   6.961   5.226
 8112TIP3    H224278   7.392   7.009   5.369
 8113TIP3   OH224279   1.069   4.892   0.791
 8113TIP3    H124280   1.041   4.983   0.785
 8113TIP3    H224281   1.036   4.851   0.711
 8114TIP3   OH224282   5.506   2.716   4.511
 8114TIP3    H124283   5.571   2.678   4.570
 8114TIP3    H224284   5.542   2.801   4.488
 8115TIP3   OH224285   5.030   5.173   3.709
 8115TIP3    H124286   5.118   5.135   3.697
 8115TIP3    H224287   4.984   5.108   3.762
 8116TIP3   OH224288   6.230   0.872   6.732
 8116TIP3    H124289   6.254   0.811   6.802
 8116TIP3    H224290   6.274   0.954   6.756
 8117TIP3   OH224291   1.093   7.230   1.602
 8117TIP3    H124292   1.102   7.140   1.633
 8117TIP3    H224293   1.034   7.224   1.526
 8118TIP3   OH224294   5.191   3.173   1.090
 8118TIP3    H124295   5.153   3.098   1.136
 8118TIP3    H224296   5.270   3.137   1.049
 8119TIP3   OH224297   7.702   3.210   1.630
 8119TIP3    H124298   7.791   3.183   1.651
 8119TIP3    H224299   7.682   3.279   1.693
 8120TIP3   OH224300   8.206   4.308   4.634
 8120TIP3    H124301   8.225   4.243   4.566
 8120TIP3    H224302   8.120   4.343   4.610
 8121TIP3   OH224303   2.329   7.191   2.432
 8121TIP3    H124304   2.280   7.109   2.431
 8121TIP3    H224305   2.318   7.225   2.521
 8122TIP3   OH224306   5.372   3.427   6.375
 8122TIP3    H124307   5.449   3.471   6.339
 8122TIP3    H224308   5.318   3.498   6.409
 8123TIP3   OH224309   5.183   2.283   2.522
 8123TIP3    H124310   5.187   2.223   2.447
 8123TIP3    H224311   5.139   2.231   2.591
 8124TIP3   OH224312   1.569   6.243   4.796
 8124TIP3    H124313   1.602   6.215   4.711
 8124TIP3    H224314   1.592   6.336   4.801
 8125TIP3   OH224315   2.688   7.137   6.217
 8125TIP3    H124316   2.730   7.217   6.186
 8125TIP3    H224317   2.638   7.165   6.294
 8126TIP3   OH224318   8.280   3.974   0.215
 8126TIP3    H124319   8.247   3.962   0.126
 8126TIP3    H224320   8.337   3.899   0.231
 8127TIP3   OH224321   2.625   6.151   6.385
 8127TIP3    H124322   2.573   6.220   6.425
 8127TIP3    H224323   2.563   6.080   6.369
 8128TIP3   OH224324   4.653   6.155   0.632
 8128TIP3    H124325   4.702   6.151   0.715
 8128TIP3    H224326   4.662   6.068   0.595
 8129TIP3   OH224327   7.982   2.284   0.963
 8129TIP3    H124328   8.070   2.290   0.999
 8129TIP3    H224329   7.925   2.310   1.035
 8130TIP3   OH224330   1.391   4.625   5.333
 8130TIP3    H124331   1.406   4.620   5.428
 8130TIP3    H224332   1.349   4.711   5.321
 8131TIP3   OH224333   6.741   4.837   0.833
 8131TIP3    H124334   6.702   4.857   0.918
 8131TIP3    H224335   6.815   4.780   0.853
 8132TIP3   OH224336   6.900   6.714   4.687
 8132TIP3    H124337   6.810   6.706   4.717
 8132TIP3    H224338   6.895   6.772   4.610
 8133TIP3   OH224339   4.158   6.263   1.082
 8133TIP3    H124340   4.161   6.221   1.167
 8133TIP3    H224341   4.235   6.320   1.081
 8134TIP3   OH224342   5.964   6.589   1.517
 8134TIP3    H124343   6.009   6.507   1.493
 8134TIP3    H224344   5.897   6.599   1.449
 8135TIP3   OH224345   3.707   5.364   4.947
 8135TIP3    H124346   3.788   5.408   4.973
 8135TIP3    H224347   3.643   5.434   4.938
 8136TIP3   OH224348   4.816   7.713   0.151
 8136TIP3    H124349   4.813   7.801   0.189
 8136TIP3    H224350   4.749   7.714   0.083
 8137TIP3   OH224351   5.081   2.129   0.693
 8137TIP3    H124352   4.987   2.129   0.678
 8137TIP3    H224353   5.093   2.185   0.770
 8138TIP3   OH224354   4.227   3.333   1.219
 8138TIP3    H124355   4.281   3.316   1.142
 8138TIP3    H224356   4.277   3.396   1.270
 8139TIP3   OH224357   5.329   1.394   5.722
 8139TIP3    H124358   5.372   1.467   5.767
 8139TIP3    H224359   5.367   1.393   5.635
 8140TIP3   OH224360   8.087   4.008   3.418
 8140TIP3    H124361   8.024   4.080   3.420
 8140TIP3    H224362   8.120   4.002   3.508
 8141TIP3   OH224363   4.513   0.435   1.736
 8141TIP3    H124364   4.509   0.507   1.799
 8141TIP3    H224365   4.593   0.451   1.686
 8142TIP3   OH224366   3.059   3.266   5.645
 8142TIP3    H124367   3.046   3.225   5.731
 8142TIP3    H224368   3.144   3.310   5.652
 8143TIP3   OH224369   2.041   2.881   4.515
 8143TIP3    H124370   2.028   2.806   4.456
 8143TIP3    H224371   2.094   2.942   4.464
 8144TIP3   OH224372   0.482   2.474   1.720
 8144TIP3    H124373   0.426   2.460   1.797
 8144TIP3    H224374   0.524   2.390   1.706
 8145TIP3   OH224375   7.703   1.992   2.777
 8145TIP3    H124376   7.782   2.010   2.726
 8145TIP3    H224377   7.687   2.073   2.825
 8146TIP3   OH224378   4.504   2.863   3.250
 8146TIP3    H124379   4.591   2.835   3.221
 8146TIP3    H224380   4.475   2.794   3.310
 8147TIP3   OH224381   1.913   1.376   0.229
 8147TIP3    H124382   1.825   1.346   0.252
 8147TIP3    H224383   1.901   1.425   0.148
 8148TIP3   OH224384   4.898   7.883   5.699
 8148TIP3    H124385   4.895   7.902   5.793
 8148TIP3    H224386   4.888   7.968   5.657
 8149TIP3   OH224387   7.508   0.200   3.162
 8149TIP3    H124388   7.585   0.210   3.107
 8149TIP3    H224389   7.525   0.120   3.212
 8150TIP3   OH224390   0.396   5.791   6.758
 8150TIP3    H124391   0.416   5.800   6.665
 8150TIP3    H224392   0.468   5.834   6.803
 8151TIP3   OH224393   7.441   7.223   0.269
 8151TIP3    H124394   7.405   7.236   0.182
 8151TIP3    H224395   7.463   7.311   0.300
 8152TIP3   OH224396   2.524   6.361   4.332
 8152TIP3    H124397   2.460   6.421   4.295
 8152TIP3    H224398   2.553   6.404   4.413
 8153TIP3   OH224399   0.603   3.954   6.309
 8153TIP3    H124400   0.557   3.886   6.259
 8153TIP3    H224401   0.645   4.008   6.242
 8154TIP3   OH224402   8.013   3.795   0.663
 8154TIP3    H124403   8.002   3.890   0.659
 8154TIP3    H224404   7.965   3.762   0.587
 8155TIP3   OH224405   1.134   2.674   4.679
 8155TIP3    H124406   1.164   2.734   4.747
 8155TIP3    H224407   1.039   2.672   4.690
 8156TIP3   OH224408   7.123   6.106   2.259
 8156TIP3    H124409   7.197   6.058   2.222
 8156TIP3    H224410   7.104   6.174   2.194
 8157TIP3   OH224411   1.897   5.991   6.811
 8157TIP3    H124412   1.862   5.902   6.811
 8157TIP3    H224413   1.992   5.979   6.814
 8158TIP3   OH224414   6.305   2.245   3.767
 8158TIP3    H124415   6.352   2.205   3.840
 8158TIP3    H224416   6.328   2.338   3.772
 8159TIP3   OH224417   6.980   6.448   6.748
 8159TIP3    H124418   6.979   6.411   6.660
 8159TIP3    H224419   7.063   6.419   6.786
 8160TIP3   OH224420   5.957   1.030   3.812
 8160TIP3    H124421   6.051   1.033   3.796
 8160TIP3    H224422   5.918   1.021   3.724
 8161TIP3   OH224423   3.757   1.271   5.063
 8161TIP3    H124424   3.671   1.229   5.063
 8161TIP3    H224425   3.743   1.355   5.017
 8162TIP3   OH224426   6.688   1.488   2.934
 8162TIP3    H124427   6.772   1.446   2.914
 8162TIP3    H224428   6.704   1.581   2.917
 8163TIP3   OH224429   0.717   1.593   6.642
 8163TIP3    H124430   0.655   1.645   6.591
 8163TIP3    H224431   0.788   1.653   6.662
 8164TIP3   OH224432   5.415   6.355   4.702
 8164TIP3    H124433   5.476   6.408   4.651
 8164TIP3    H224434   5.358   6.420   4.744
 8165TIP3   OH224435   6.853   1.383   3.237
 8165TIP3    H124436   6.793   1.438   3.288
 8165TIP3    H224437   6.845   1.415   3.148
 8166TIP3   OH224438   1.986   5.471   4.573
 8166TIP3    H124439   2.040   5.429   4.640
 8166TIP3    H224440   1.974   5.403   4.507
 8167TIP3   OH224441   0.906   0.856   1.678
 8167TIP3    H124442   0.882   0.836   1.769
 8167TIP3    H224443   0.870   0.943   1.663
 8168TIP3   OH224444   0.712   6.670   6.422
 8168TIP3    H124445   0.662   6.611   6.366
 8168TIP3    H224446   0.647   6.731   6.458
 8169TIP3   OH224447   6.913   6.183   0.981
 8169TIP3    H124448   6.861   6.263   0.975
 8169TIP3    H224449   6.850   6.112   0.972
 8170TIP3   OH224450   0.249   0.037   5.877
 8170TIP3    H124451   0.226   0.113   5.825
 8170TIP3    H224452   0.341   0.050   5.899
 8171TIP3   OH224453   6.090   6.608   5.615
 8171TIP3    H124454   6.155   6.678   5.608
 8171TIP3    H224455   6.041   6.612   5.533
 8172TIP3   OH224456   6.949   4.426   6.612
 8172TIP3    H124457   6.861   4.446   6.581
 8172TIP3    H224458   6.980   4.357   6.553
 8173TIP3   OH224459   1.209   3.602   4.864
 8173TIP3    H124460   1.270   3.528   4.858
 8173TIP3    H224461   1.125   3.562   4.887
 8174TIP3   OH224462   3.813   4.585   1.255
 8174TIP3    H124463   3.768   4.664   1.285
 8174TIP3    H224464   3.856   4.551   1.333
 8175TIP3   OH224465   0.247   4.434   1.663
 8175TIP3    H124466   0.178   4.379   1.624
 8175TIP3    H224467   0.328   4.386   1.645
 8176TIP3   OH224468   3.563   3.487   1.729
 8176TIP3    H124469   3.534   3.435   1.655
 8176TIP3    H224470   3.598   3.567   1.690
 8177TIP3   OH224471   5.408   7.313   4.061
 8177TIP3    H124472   5.361   7.264   3.993
 8177TIP3    H224473   5.412   7.252   4.135
 8178TIP3   OH224474   5.608   0.086   6.553
 8178TIP3    H124475   5.639   0.115   6.467
 8178TIP3    H224476   5.522   0.048   6.536
 8179TIP3   OH224477   3.243   4.807   6.681
 8179TIP3    H124478   3.270   4.892   6.716
 8179TIP3    H224479   3.211   4.759   6.757
 8180TIP3   OH224480   5.962   3.834   5.203
 8180TIP3    H124481   5.893   3.788   5.250
 8180TIP3    H224482   6.032   3.770   5.191
 8181TIP3   OH224483   6.313   1.348   3.728
 8181TIP3    H124484   6.390   1.391   3.766
 8181TIP3    H224485   6.270   1.418   3.678
 8182TIP3   OH224486   0.103   4.191   0.642
 8182TIP3    H124487   0.046   4.128   0.685
 8182TIP3    H224488   0.114   4.261   0.706
 8183TIP3   OH224489   6.695   5.836   4.666
 8183TIP3    H124490   6.789   5.820   4.671
 8183TIP3    H224491   6.666   5.781   4.593
 8184TIP3   OH224492   3.102   5.400   4.003
 8184TIP3    H124493   3.041   5.368   4.070
 8184TIP3    H224494   3.053   5.396   3.921
 8185TIP3   OH224495   4.427   5.225   2.311
 8185TIP3    H124496   4.480   5.149   2.336
 8185TIP3    H224497   4.350   5.187   2.268
 8186TIP3   OH224498   3.471   1.478   4.384
 8186TIP3    H124499   3.531   1.510   4.452
 8186TIP3    H224500   3.526   1.421   4.330
 8187TIP3   OH224501   3.418   2.416   1.410
 8187TIP3    H124502   3.358   2.480   1.373
 8187TIP3    H224503   3.471   2.466   1.472
 8188TIP3   OH224504   4.142   4.593   2.752
 8188TIP3    H124505   4.114   4.631   2.835
 8188TIP3    H224506   4.082   4.519   2.738
 8189TIP3   OH224507   5.168   3.149   5.212
 8189TIP3    H124508   5.146   3.231   5.168
 8189TIP3    H224509   5.236   3.173   5.276
 8190TIP3   OH224510   4.526   3.329   4.749
 8190TIP3    H124511   4.459   3.266   4.722
 8190TIP3    H224512   4.577   3.344   4.669
 8191TIP3   OH224513   5.350   0.483   0.918
 8191TIP3    H124514   5.311   0.405   0.956
 8191TIP3    H224515   5.353   0.465   0.824
 8192TIP3   OH224516   8.301   6.515   0.534
 8192TIP3    H124517   8.300   6.595   0.587
 8192TIP3    H224518   8.309   6.444   0.598
 8193TIP3   OH224519   5.300   6.606   4.788
 8193TIP3    H124520   5.206   6.593   4.803
 8193TIP3    H224521   5.305   6.664   4.713
 8194TIP3   OH224522   0.037   1.257   0.400
 8194TIP3    H124523   0.056   1.264   0.493
 8194TIP3    H224524   0.116   1.288   0.356
 8195TIP3   OH224525   8.278   4.026   3.136
 8195TIP3    H124526   8.285   3.934   3.111
 8195TIP3    H224527   8.185   4.037   3.158
 8196TIP3   OH224528   2.825   5.515   3.959
 8196TIP3    H124529   2.744   5.565   3.966
 8196TIP3    H224530   2.865   5.545   3.877
 8197TIP3   OH224531   3.760   4.074   0.644
 8197TIP3    H124532   3.726   3.986   0.628
 8197TIP3    H224533   3.716   4.130   0.580
 8198TIP3   OH224534   1.362   3.392   5.204
 8198TIP3    H124535   1.339   3.381   5.111
 8198TIP3    H224536   1.402   3.309   5.229
 8199TIP3   OH224537   4.667   5.903   4.001
 8199TIP3    H124538   4.757   5.907   3.969
 8199TIP3    H224539   4.628   5.829   3.954
 8200TIP3   OH224540   3.433   6.998   0.232
 8200TIP3    H124541   3.488   6.974   0.307
 8200TIP3    H224542   3.347   6.962   0.254
 8201TIP3   OH224543   6.814   3.085   6.231
 8201TIP3    H124544   6.842   3.059   6.318
 8201TIP3    H224545   6.819   3.181   6.231
 8202TIP3   OH224546   0.808   7.624   5.329
 8202TIP3    H124547   0.834   7.629   5.237
 8202TIP3    H224548   0.891   7.625   5.377
 8203TIP3   OH224549   1.872   5.815   2.644
 8203TIP3    H124550   1.778   5.817   2.627
 8203TIP3    H224551   1.896   5.906   2.657
 8204TIP3   OH224552   2.314   6.104   1.142
 8204TIP3    H124553   2.380   6.131   1.078
 8204TIP3    H224554   2.259   6.042   1.095
 8205TIP3   OH224555   1.729   3.355   2.162
 8205TIP3    H124556   1.788   3.284   2.190
 8205TIP3    H224557   1.673   3.370   2.238
 8206TIP3   OH224558   6.078   6.066   5.137
 8206TIP3    H124559   6.027   6.092   5.060
 8206TIP3    H224560   6.169   6.079   5.110
 8207TIP3   OH224561   8.177   4.357   6.413
 8207TIP3    H124562   8.089   4.320   6.413
 8207TIP3    H224563   8.215   4.328   6.330
 8208TIP3   OH224564   3.981   7.603   1.340
 8208TIP3    H124565   3.958   7.693   1.364
 8208TIP3    H224566   4.074   7.607   1.318
 8209TIP3   OH224567   2.892   7.776   3.880
 8209TIP3    H124568   2.847   7.721   3.816
 8209TIP3    H224569   2.871   7.866   3.853
 8210TIP3   OH224570   3.536   5.481   4.772
 8210TIP3    H124571   3.516   5.543   4.841
 8210TIP3    H224572   3.451   5.457   4.736
 8211TIP3   OH224573   7.571   1.132   6.794
 8211TIP3    H124574   7.509   1.060   6.806
 8211TIP3    H224575   7.627   1.129   6.871
 8212TIP3   OH224576   7.005   2.139   6.195
 8212TIP3    H124577   6.965   2.067   6.146
 8212TIP3    H224578   7.099   2.121   6.193
 8213TIP3   OH224579   1.663   5.485   1.855
 8213TIP3    H124580   1.644   5.391   1.860
 8213TIP3    H224581   1.708   5.505   1.937
 8214TIP3   OH224582   6.615   1.567   4.800
 8214TIP3    H124583   6.538   1.544   4.853
 8214TIP3    H224584   6.624   1.494   4.739
 8215TIP3   OH224585   3.640   7.049   4.344
 8215TIP3    H124586   3.720   7.046   4.398
 8215TIP3    H224587   3.635   7.140   4.315
 8216TIP3   OH224588   2.189   3.518   3.155
 8216TIP3    H124589   2.142   3.556   3.229
 8216TIP3    H224590   2.129   3.452   3.120
 8217TIP3   OH224591   8.349   7.824   4.551
 8217TIP3    H124592   8.295   7.834   4.629
 8217TIP3    H224593   8.354   7.729   4.538
 8218TIP3   OH224594   3.892   6.975   0.601
 8218TIP3    H124595   3.960   6.985   0.533
 8218TIP3    H224596   3.889   6.881   0.618
 8219TIP3   OH224597   3.172   1.271   0.688
 8219TIP3    H124598   3.146   1.265   0.596
 8219TIP3    H224599   3.099   1.317   0.730
 8220TIP3   OH224600   2.041   5.253   2.882
 8220TIP3    H124601   2.102   5.325   2.897
 8220TIP3    H224602   2.049   5.198   2.959
 8221TIP3   OH224603   4.540   6.943   1.498
 8221TIP3    H124604   4.505   7.023   1.458
 8221TIP3    H224605   4.609   6.914   1.439
 8222TIP3   OH224606   0.476   4.535   6.400
 8222TIP3    H124607   0.468   4.508   6.309
 8222TIP3    H224608   0.549   4.596   6.400
 8223TIP3   OH224609   2.465   0.508   5.505
 8223TIP3    H124610   2.515   0.518   5.424
 8223TIP3    H224611   2.373   0.508   5.477
 8224TIP3   OH224612   3.434   3.372   1.471
 8224TIP3    H124613   3.412   3.298   1.529
 8224TIP3    H224614   3.383   3.356   1.392
 8225TIP3   OH224615   4.688   6.068   5.205
 8225TIP3    H124616   4.685   6.112   5.290
 8225TIP3    H224617   4.629   6.119   5.149
 8226TIP3   OH224618   2.194   3.104   0.563
 8226TIP3    H124619   2.150   3.189   0.568
 8226TIP3    H224620   2.124   3.040   0.575
 8227TIP3   OH224621   5.598   5.050   2.203
 8227TIP3    H124622   5.583   5.000   2.283
 8227TIP3    H224623   5.545   5.006   2.137
 8228TIP3   OH224624   5.927   7.115   3.709
 8228TIP3    H124625   5.898   7.032   3.671
 8228TIP3    H224626   5.953   7.168   3.634
 8229TIP3   OH224627   4.282   5.003   4.938
 8229TIP3    H124628   4.330   5.061   4.997
 8229TIP3    H224629   4.347   4.977   4.872
 8230TIP3   OH224630   2.485   0.526   0.019
 8230TIP3    H124631   2.505   0.436  -0.006
 8230TIP3    H224632   2.561   0.555   0.069
 8231TIP3   OH224633   1.925   7.124   5.572
 8231TIP3    H124634   1.919   7.109   5.666
 8231TIP3    H224635   2.019   7.126   5.554
 8232TIP3   OH224636   6.510   1.128   4.076
 8232TIP3    H124637   6.492   1.109   3.984
 8232TIP3    H224638   6.436   1.182   4.104
 8233TIP3   OH224639   1.204   7.769   4.686
 8233TIP3    H124640   1.152   7.744   4.610
 8233TIP3    H224641   1.264   7.837   4.653
 8234TIP3   OH224642   7.009   0.844   2.493
 8234TIP3    H124643   6.934   0.901   2.508
 8234TIP3    H224644   6.978   0.778   2.431
 8235TIP3   OH224645   7.300   0.749   5.499
 8235TIP3    H124646   7.381   0.794   5.522
 8235TIP3    H224647   7.255   0.809   5.440
 8236TIP3   OH224648   6.643   6.386   0.974
 8236TIP3    H124649   6.571   6.427   0.926
 8236TIP3    H224650   6.616   6.389   1.065
 8237TIP3   OH224651   3.945   7.482   2.478
 8237TIP3    H124652   3.939   7.577   2.487
 8237TIP3    H224653   3.986   7.469   2.392
 8238TIP3   OH224654   0.353   1.713   4.724
 8238TIP3    H124655   0.444   1.700   4.751
 8238TIP3    H224656   0.359   1.749   4.636
 8239TIP3   OH224657   7.957   5.493   2.050
 8239TIP3    H124658   8.038   5.485   2.101
 8239TIP3    H224659   7.887   5.476   2.114
 8240TIP3   OH224660   1.236   4.942   2.058
 8240TIP3    H124661   1.205   4.855   2.035
 8240TIP3    H224662   1.181   4.969   2.132
 8241TIP3   OH224663   6.187   6.773   1.101
 8241TIP3    H124664   6.278   6.763   1.073
 8241TIP3    H224665   6.184   6.860   1.141
 8242TIP3   OH224666   6.574   1.527   4.134
 8242TIP3    H124667   6.655   1.484   4.107
 8242TIP3    H224668   6.590   1.553   4.224
 8243TIP3   OH224669   6.783   2.570   3.537
 8243TIP3    H124670   6.830   2.500   3.583
 8243TIP3    H224671   6.813   2.651   3.579
 8244TIP3   OH224672   2.064   3.097   4.652
 8244TIP3    H124673   2.032   3.016   4.613
 8244TIP3    H224674   2.141   3.070   4.703
 8245TIP3   OH224675   1.161   6.295   6.495
 8245TIP3    H124676   1.204   6.381   6.494
 8245TIP3    H224677   1.194   6.251   6.417
 8246TIP3   OH224678   5.633   1.489   3.560
 8246TIP3    H124679   5.701   1.501   3.493
 8246TIP3    H224680   5.557   1.536   3.525
 8247TIP3   OH224681   2.002   1.405   4.754
 8247TIP3    H124682   1.970   1.460   4.683
 8247TIP3    H224683   1.925   1.389   4.809
 8248TIP3   OH224684   1.336   6.746   0.650
 8248TIP3    H124685   1.257   6.695   0.671
 8248TIP3    H224686   1.375   6.765   0.735
 8249TIP3   OH224687   2.952   3.832   2.124
 8249TIP3    H124688   3.027   3.847   2.067
 8249TIP3    H224689   2.876   3.849   2.069
 8250TIP3   OH224690   1.940   0.482   2.451
 8250TIP3    H124691   1.920   0.564   2.495
 8250TIP3    H224692   1.971   0.424   2.520
 8251TIP3   OH224693   7.327   6.752   6.014
 8251TIP3    H124694   7.240   6.714   6.011
 8251TIP3    H224695   7.374   6.712   5.941
 8252TIP3   OH224696   7.523   2.038   2.116
 8252TIP3    H124697   7.586   2.090   2.165
 8252TIP3    H224698   7.445   2.036   2.172
 8253TIP3   OH224699   2.931   5.038   5.494
 8253TIP3    H124700   2.873   5.110   5.520
 8253TIP3    H224701   2.872   4.971   5.459
 8254TIP3   OH224702   1.680   3.149   5.852
 8254TIP3    H124703   1.687   3.132   5.946
 8254TIP3    H224704   1.590   3.178   5.839
 8255TIP3   OH224705   3.929   1.027   2.228
 8255TIP3    H124706   4.021   1.054   2.230
 8255TIP3    H224707   3.929   0.940   2.188
 8256TIP3   OH224708   7.199   2.583   4.015
 8256TIP3    H124709   7.128   2.637   4.050
 8256TIP3    H224710   7.155   2.521   3.957
 8257TIP3   OH224711   3.972   5.497   1.111
 8257TIP3    H124712   3.994   5.439   1.039
 8257TIP3    H224713   3.966   5.440   1.188
 8258TIP3   OH224714   5.322   1.001   3.667
 8258TIP3    H124715   5.370   0.920   3.682
 8258TIP3    H224716   5.356   1.034   3.584
 8259TIP3   OH224717   7.251   5.534   5.822
 8259TIP3    H124718   7.162   5.516   5.852
 8259TIP3    H224719   7.299   5.454   5.842
 8260TIP3   OH224720   6.286   1.544   3.156
 8260TIP3    H124721   6.303   1.473   3.095
 8260TIP3    H224722   6.193   1.564   3.145
 8261TIP3   OH224723   6.658   6.860   5.580
 8261TIP3    H124724   6.640   6.832   5.670
 8261TIP3    H224725   6.573   6.860   5.537
 8262TIP3   OH224726   6.624   1.745   5.718
 8262TIP3    H124727   6.689   1.807   5.749
 8262TIP3    H224728   6.567   1.796   5.661
 8263TIP3   OH224729   1.737   5.291   6.384
 8263TIP3    H124730   1.751   5.233   6.309
 8263TIP3    H224731   1.666   5.250   6.433
 8264TIP3   OH224732   7.641   5.508   5.613
 8264TIP3    H124733   7.561   5.555   5.590
 8264TIP3    H224734   7.704   5.534   5.546
 8265TIP3   OH224735   1.165   4.529   4.307
 8265TIP3    H124736   1.211   4.520   4.390
 8265TIP3    H224737   1.149   4.440   4.278
 8266TIP3   OH224738   7.376   4.154   1.264
 8266TIP3    H124739   7.407   4.179   1.351
 8266TIP3    H224740   7.425   4.075   1.243
 8267TIP3   OH224741   1.064   3.772   3.838
 8267TIP3    H124742   1.030   3.821   3.764
 8267TIP3    H224743   1.045   3.680   3.817
 8268TIP3   OH224744   4.880   5.660   5.190
 8268TIP3    H124745   4.808   5.673   5.129
 8268TIP3    H224746   4.847   5.595   5.253
 8269TIP3   OH224747   0.049   1.670   0.527
 8269TIP3    H124748   0.123   1.712   0.571
 8269TIP3    H224749  -0.029   1.713   0.565
 8270TIP3   OH224750   4.168   7.768   2.302
 8270TIP3    H124751   4.263   7.769   2.316
 8270TIP3    H224752   4.132   7.810   2.380
 8271TIP3   OH224753   3.021   6.368   2.984
 8271TIP3    H124754   2.958   6.408   2.924
 8271TIP3    H224755   3.090   6.434   2.994
 8272TIP3   OH224756   2.877   4.377   0.450
 8272TIP3    H124757   2.828   4.303   0.487
 8272TIP3    H224758   2.873   4.364   0.356
 8273TIP3   OH224759   2.086   0.946   4.737
 8273TIP3    H124760   2.092   0.883   4.666
 8273TIP3    H224761   2.090   0.893   4.817
 8274TIP3   OH224762   2.990   1.547   5.628
 8274TIP3    H124763   2.945   1.626   5.600
 8274TIP3    H224764   2.923   1.478   5.624
 8275TIP3   OH224765   7.535   5.592   0.410
 8275TIP3    H124766   7.614   5.631   0.447
 8275TIP3    H224767   7.563   5.556   0.326
 8276TIP3   OH224768   1.624   6.075   5.715
 8276TIP3    H124769   1.600   6.134   5.644
 8276TIP3    H224770   1.543   6.062   5.765
 8277TIP3   OH224771   3.727   4.313   2.357
 8277TIP3    H124772   3.651   4.285   2.305
 8277TIP3    H224773   3.780   4.234   2.366
 8278TIP3   OH224774   7.819   2.152   4.771
 8278TIP3    H124775   7.886   2.220   4.778
 8278TIP3    H224776   7.859   2.085   4.716
 8279TIP3   OH224777   2.988   2.894   3.315
 8279TIP3    H124778   2.934   2.972   3.326
 8279TIP3    H224779   2.937   2.824   3.357
 8280TIP3   OH224780   6.692   6.000   4.295
 8280TIP3    H124781   6.680   5.906   4.311
 8280TIP3    H224782   6.782   6.018   4.324
 8281TIP3   OH224783   4.012   3.882   4.179
 8281TIP3    H124784   4.029   3.975   4.165
 8281TIP3    H224785   4.100   3.844   4.191
 8282TIP3   OH224786   1.325   0.276   2.265
 8282TIP3    H124787   1.367   0.361   2.281
 8282TIP3    H224788   1.245   0.297   2.218
 8283TIP3   OH224789   0.992   3.554   6.332
 8283TIP3    H124790   0.901   3.570   6.353
 8283TIP3    H224791   0.991   3.522   6.242
 8284TIP3   OH224792   6.039   1.371   5.700
 8284TIP3    H124793   6.047   1.287   5.654
 8284TIP3    H224794   5.950   1.400   5.682
 8285TIP3   OH224795   0.220   0.014   2.671
 8285TIP3    H124796   0.196   0.098   2.632
 8285TIP3    H224797   0.309  -0.003   2.637
 8286TIP3   OH224798   8.341   6.411   2.054
 8286TIP3    H124799   8.433   6.436   2.041
 8286TIP3    H224800   8.299   6.489   2.090
 8287TIP3   OH224801   2.402   6.892   3.768
 8287TIP3    H124802   2.433   6.890   3.677
 8287TIP3    H224803   2.463   6.837   3.816
 8288TIP3   OH224804   0.946   1.926   1.306
 8288TIP3    H124805   0.964   1.910   1.213
 8288TIP3    H224806   0.963   2.020   1.317
 8289TIP3   OH224807   3.017   0.188   4.220
 8289TIP3    H124808   3.053   0.101   4.234
 8289TIP3    H224809   3.046   0.238   4.297
 8290TIP3   OH224810   2.832   4.574   3.370
 8290TIP3    H124811   2.828   4.594   3.463
 8290TIP3    H224812   2.887   4.496   3.365
 8291TIP3   OH224813   3.760   4.055   2.732
 8291TIP3    H124814   3.730   3.967   2.711
 8291TIP3    H224815   3.708   4.113   2.676
 8292TIP3   OH224816   2.574   7.507   3.446
 8292TIP3    H124817   2.629   7.432   3.424
 8292TIP3    H224818   2.530   7.482   3.527
 8293TIP3   OH224819   6.459   2.933   1.841
 8293TIP3    H124820   6.439   2.994   1.770
 8293TIP3    H224821   6.548   2.904   1.824
 8294TIP3   OH224822   3.044   7.599  -0.020
 8294TIP3    H124823   2.949   7.615  -0.014
 8294TIP3    H224824   3.069   7.572   0.069
 8295TIP3   OH224825   0.956   1.069   6.308
 8295TIP3    H124826   1.024   1.016   6.267
 8295TIP3    H224827   0.910   1.111   6.236
 8296TIP3   OH224828   4.450   3.363   3.362
 8296TIP3    H124829   4.485   3.307   3.293
 8296TIP3    H224830   4.403   3.303   3.421
 8297TIP3   OH224831   2.784   7.853   5.623
 8297TIP3    H124832   2.765   7.771   5.577
 8297TIP3    H224833   2.857   7.891   5.575
 8298TIP3   OH224834   1.026   2.087   3.619
 8298TIP3    H124835   0.959   2.020   3.632
 8298TIP3    H224836   1.096   2.062   3.679
 8299TIP3   OH224837   3.881   1.965   4.808
 8299TIP3    H124838   3.788   1.985   4.799
 8299TIP3    H224839   3.885   1.870   4.812
 8300TIP3   OH224840   2.077   3.337   1.332
 8300TIP3    H124841   2.121   3.421   1.325
 8300TIP3    H224842   2.147   3.273   1.335
 8301TIP3   OH224843   3.613   6.864   3.773
 8301TIP3    H124844   3.607   6.768   3.781
 8301TIP3    H224845   3.702   6.880   3.743
 8302TIP3   OH224846   0.949   1.604   3.506
 8302TIP3    H124847   0.880   1.600   3.573
 8302TIP3    H224848   0.907   1.571   3.427
 8303TIP3   OH224849   2.588   2.834   3.119
 8303TIP3    H124850   2.615   2.873   3.202
 8303TIP3    H224851   2.501   2.797   3.138
 8304TIP3   OH224852   4.280   0.955   5.736
 8304TIP3    H124853   4.223   0.902   5.680
 8304TIP3    H224854   4.244   0.945   5.824
 8305TIP3   OH224855   7.720   2.356   1.758
 8305TIP3    H124856   7.711   2.262   1.743
 8305TIP3    H224857   7.718   2.395   1.671
 8306TIP3   OH224858   0.536   7.085   5.127
 8306TIP3    H124859   0.500   7.159   5.176
 8306TIP3    H224860   0.475   7.072   5.055
 8307TIP3   OH224861   4.832   1.948   4.591
 8307TIP3    H124862   4.925   1.936   4.613
 8307TIP3    H224863   4.824   1.915   4.501
 8308TIP3   OH224864   3.410   5.412   0.020
 8308TIP3    H124865   3.449   5.464  -0.050
 8308TIP3    H224866   3.407   5.472   0.095
 8309TIP3   OH224867   6.766   0.890   0.134
 8309TIP3    H124868   6.671   0.895   0.143
 8309TIP3    H224869   6.794   0.832   0.205
 8310TIP3   OH224870   1.781   6.794   2.594
 8310TIP3    H124871   1.746   6.883   2.597
 8310TIP3    H224872   1.795   6.771   2.685
 8311TIP3   OH224873   7.674   7.164   3.825
 8311TIP3    H124874   7.632   7.210   3.898
 8311TIP3    H224875   7.643   7.074   3.833
 8312TIP3   OH224876  -0.034   7.601   1.647
 8312TIP3    H124877   0.019   7.661   1.594
 8312TIP3    H224878   0.022   7.579   1.722
 8313TIP3   OH224879   1.949   1.273   1.699
 8313TIP3    H124880   1.907   1.309   1.777
 8313TIP3    H224881   1.876   1.239   1.647
 8314TIP3   OH224882   0.132   0.703   0.419
 8314TIP3    H124883   0.183   0.781   0.442
 8314TIP3    H224884   0.087   0.727   0.338
 8315TIP3   OH224885   5.090   1.410   4.664
 8315TIP3    H124886   5.002   1.445   4.674
 8315TIP3    H224887   5.125   1.408   4.753
 8316TIP3   OH224888   2.946   1.986   3.177
 8316TIP3    H124889   2.954   1.987   3.082
 8316TIP3    H224890   3.035   1.969   3.208
 8317TIP3   OH224891   2.494   6.239   1.752
 8317TIP3    H124892   2.553   6.314   1.757
 8317TIP3    H224893   2.549   6.163   1.771
 8318TIP3   OH224894   3.860   5.427   4.357
 8318TIP3    H124895   3.850   5.446   4.264
 8318TIP3    H224896   3.881   5.512   4.397
 8319TIP3   OH224897   1.523   2.409   4.009
 8319TIP3    H124898   1.524   2.314   4.010
 8319TIP3    H224899   1.494   2.434   4.097
 8320TIP3   OH224900   3.616   2.482   3.752
 8320TIP3    H124901   3.614   2.398   3.799
 8320TIP3    H224902   3.678   2.536   3.802
 8321TIP3   OH224903   2.617   2.611   4.337
 8321TIP3    H124904   2.648   2.564   4.260
 8321TIP3    H224905   2.687   2.674   4.356
 8322TIP3   OH224906   7.730   7.899   3.764
 8322TIP3    H124907   7.756   7.822   3.713
 8322TIP3    H224908   7.651   7.872   3.810
 8323TIP3   OH224909   6.611   2.830   2.625
 8323TIP3    H124910   6.531   2.829   2.572
 8323TIP3    H224911   6.631   2.923   2.637
 8324TIP3   OH224912   7.647   2.067   5.216
 8324TIP3    H124913   7.689   2.096   5.297
 8324TIP3    H224914   7.719   2.062   5.153
 8325TIP3   OH224915   3.891   1.734   1.383
 8325TIP3    H124916   3.941   1.813   1.362
 8325TIP3    H224917   3.800   1.759   1.368
 8326TIP3   OH224918   6.654   1.650   0.355
 8326TIP3    H124919   6.563   1.651   0.382
 8326TIP3    H224920   6.682   1.559   0.365
 8327TIP3   OH224921   1.594   7.193   2.110
 8327TIP3    H124922   1.600   7.285   2.138
 8327TIP3    H224923   1.598   7.197   2.014
 8328TIP3   OH224924   1.184   6.865   6.843
 8328TIP3    H124925   1.103   6.903   6.809
 8328TIP3    H224926   1.156   6.806   6.912
 8329TIP3   OH224927   7.381   6.104   2.415
 8329TIP3    H124928   7.312   6.062   2.467
 8329TIP3    H224929   7.363   6.197   2.422
 8330TIP3   OH224930   7.084   5.119   3.545
 8330TIP3    H124931   7.121   5.100   3.631
 8330TIP3    H224932   6.991   5.138   3.563
 8331TIP3   OH224933   8.221   2.748   5.592
 8331TIP3    H124934   8.227   2.782   5.682
 8331TIP3    H224935   8.288   2.680   5.588
 8332TIP3   OH224936   5.331   6.192   2.441
 8332TIP3    H124937   5.322   6.104   2.478
 8332TIP3    H224938   5.410   6.227   2.482
 8333TIP3   OH224939   3.992   0.110   4.781
 8333TIP3    H124940   3.972   0.168   4.854
 8333TIP3    H224941   4.087   0.098   4.785
 8334TIP3   OH224942   7.285   7.888   2.459
 8334TIP3    H124943   7.196   7.922   2.473
 8334TIP3    H224944   7.311   7.924   2.374
 8335TIP3   OH224945   7.555   3.040   4.911
 8335TIP3    H124946   7.645   3.065   4.928
 8335TIP3    H224947   7.558   2.990   4.830
 8336TIP3   OH224948   8.229   7.790   6.016
 8336TIP3    H124949   8.212   7.857   5.949
 8336TIP3    H224950   8.288   7.728   5.972
 8337TIP3   OH224951   1.109   7.615   2.161
 8337TIP3    H124952   1.087   7.582   2.249
 8337TIP3    H224953   1.204   7.624   2.162
 8338TIP3   OH224954   3.709   3.277   3.986
 8338TIP3    H124955   3.714   3.183   4.001
 8338TIP3    H224956   3.638   3.287   3.922
 8339TIP3   OH224957   8.059   2.919   4.711
 8339TIP3    H124958   8.092   2.977   4.643
 8339TIP3    H224959   8.114   2.936   4.787
 8340TIP3   OH224960   5.061   5.959   1.796
 8340TIP3    H124961   5.063   5.865   1.778
 8340TIP3    H224962   4.976   5.974   1.837
 8341TIP3   OH224963   4.973   7.887   2.962
 8341TIP3    H124964   4.913   7.907   3.033
 8341TIP3    H224965   5.046   7.948   2.975
 8342TIP3   OH224966   4.977   0.472   4.534
 8342TIP3    H124967   4.933   0.488   4.451
 8342TIP3    H224968   4.974   0.556   4.580
 8343TIP3   OH224969   2.489   1.524   4.879
 8343TIP3    H124970   2.584   1.537   4.874
 8343TIP3    H224971   2.479   1.429   4.891
 8344TIP3   OH224972   1.989   3.401   6.131
 8344TIP3    H124973   1.968   3.488   6.164
 8344TIP3    H224974   1.952   3.398   6.043
 8345TIP3   OH224975   3.350   2.541   3.707
 8345TIP3    H124976   3.439   2.508   3.718
 8345TIP3    H224977   3.300   2.464   3.679
 8346TIP3   OH224978   6.814   1.978   2.413
 8346TIP3    H124979   6.771   2.002   2.331
 8346TIP3    H224980   6.758   1.911   2.452
 8347TIP3   OH224981   1.396   5.342   1.765
 8347TIP3    H124982   1.375   5.410   1.829
 8347TIP3    H224983   1.367   5.261   1.806
 8348TIP3   OH224984   6.438   5.886   2.467
 8348TIP3    H124985   6.522   5.901   2.509
 8348TIP3    H224986   6.415   5.971   2.429
 8349TIP3   OH224987   6.305   6.164   6.248
 8349TIP3    H124988   6.362   6.171   6.171
 8349TIP3    H224989   6.311   6.072   6.273
 8350TIP3   OH224990   1.472   6.057   1.585
 8350TIP3    H124991   1.472   5.969   1.624
 8350TIP3    H224992   1.392   6.098   1.618
 8351TIP3   OH224993   5.924   6.601   2.000
 8351TIP3    H124994   5.944   6.586   1.908
 8351TIP3    H224995   5.833   6.573   2.010
 8352TIP3   OH224996   7.558   0.433   5.985
 8352TIP3    H124997   7.549   0.522   5.951
 8352TIP3    H224998   7.590   0.445   6.075
 8353TIP3   OH224999   3.260   3.458   5.676
 8353TIP3    H125000   3.249   3.496   5.763
 8353TIP3    H225001   3.267   3.533   5.617
 8354TIP3   OH225002   8.220   0.738   3.261
 8354TIP3    H125003   8.139   0.777   3.228
 8354TIP3    H225004   8.273   0.813   3.289
 8355TIP3   OH225005   4.759   4.757   4.996
 8355TIP3    H125006   4.788   4.776   4.907
 8355TIP3    H225007   4.663   4.760   4.991
 8356TIP3   OH225008   6.718   0.579   1.661
 8356TIP3    H125009   6.696   0.523   1.586
 8356TIP3    H225010   6.659   0.549   1.731
 8357TIP3   OH225011   4.923   1.954   3.649
 8357TIP3    H125012   4.914   1.874   3.596
 8357TIP3    H225013   4.914   2.025   3.586
 8358TIP3   OH225014   7.043   4.619   5.795
 8358TIP3    H125015   7.078   4.617   5.884
 8358TIP3    H225016   6.948   4.610   5.807
 8359TIP3   OH225017   0.345   7.476   6.800
 8359TIP3    H125018   0.251   7.493   6.788
 8359TIP3    H225019   0.361   7.492   6.893
 8360TIP3   OH225020   8.207   7.597   4.292
 8360TIP3    H125021   8.120   7.560   4.275
 8360TIP3    H225022   8.242   7.542   4.363
 8361TIP3   OH225023   5.279   4.210   6.830
 8361TIP3    H125024   5.321   4.124   6.834
 8361TIP3    H225025   5.217   4.204   6.757
 8362TIP3   OH225026   4.431   7.277   6.286
 8362TIP3    H125027   4.381   7.358   6.289
 8362TIP3    H225028   4.506   7.293   6.343
 8363TIP3   OH225029   5.210   5.439   3.443
 8363TIP3    H125030   5.140   5.386   3.480
 8363TIP3    H225031   5.169   5.523   3.422
 8364TIP3   OH225032   5.938   1.023   1.355
 8364TIP3    H125033   5.896   1.108   1.345
 8364TIP3    H225034   5.903   0.988   1.437
 8365TIP3   OH225035   5.215   2.769   6.739
 8365TIP3    H125036   5.265   2.834   6.689
 8365TIP3    H225037   5.272   2.747   6.813
 8366TIP3   OH225038   4.217   3.221   3.948
 8366TIP3    H125039   4.149   3.236   3.882
 8366TIP3    H225040   4.279   3.162   3.905
 8367TIP3   OH225041   8.245   3.771   5.095
 8367TIP3    H125042   8.318   3.733   5.047
 8367TIP3    H225043   8.267   3.757   5.187
 8368TIP3   OH225044   6.995   6.279   1.654
 8368TIP3    H125045   6.909   6.251   1.686
 8368TIP3    H225046   7.008   6.229   1.574
 8369TIP3   OH225047   3.387   6.217   6.308
 8369TIP3    H125048   3.356   6.131   6.277
 8369TIP3    H225049   3.448   6.196   6.378
 8370TIP3   OH225050   2.496   3.310   2.244
 8370TIP3    H125051   2.544   3.292   2.325
 8370TIP3    H225052   2.554   3.367   2.194
 8371TIP3   OH225053   1.597   2.858   2.226
 8371TIP3    H125054   1.517   2.899   2.194
 8371TIP3    H225055   1.570   2.769   2.250
 8372TIP3   OH225056   5.443   5.864   6.547
 8372TIP3    H125057   5.462   5.880   6.640
 8372TIP3    H225058   5.468   5.773   6.533
 8373TIP3   OH225059   7.343   3.120   6.739
 8373TIP3    H125060   7.276   3.128   6.807
 8373TIP3    H225061   7.350   3.208   6.702
 8374TIP3   OH225062   2.245   4.850   1.543
 8374TIP3    H125063   2.333   4.868   1.510
 8374TIP3    H225064   2.187   4.897   1.483
 8375TIP3   OH225065   7.802   2.128   3.876
 8375TIP3    H125066   7.869   2.135   3.808
 8375TIP3    H225067   7.734   2.189   3.849
 8376TIP3   OH225068   1.169   5.818   5.747
 8376TIP3    H125069   1.193   5.906   5.778
 8376TIP3    H225070   1.251   5.769   5.747
 8377TIP3   OH225071   1.205   2.379   3.537
 8377TIP3    H125072   1.144   2.335   3.476
 8377TIP3    H225073   1.248   2.307   3.584
 8378TIP3   OH225074   0.847   2.802   4.711
 8378TIP3    H125075   0.812   2.870   4.769
 8378TIP3    H225076   0.785   2.730   4.718
 8379TIP3   OH225077   7.924   7.928   0.360
 8379TIP3    H125078   7.930   7.853   0.419
 8379TIP3    H225079   8.013   7.962   0.354
 8380TIP3   OH225080   6.437   2.247   6.413
 8380TIP3    H125081   6.501   2.176   6.406
 8380TIP3    H225082   6.434   2.268   6.506
 8381TIP3   OH225083   6.823   7.669   6.016
 8381TIP3    H125084   6.844   7.609   5.944
 8381TIP3    H225085   6.906   7.681   6.062
 8382TIP3   OH225086   3.564   7.322   5.699
 8382TIP3    H125087   3.496   7.301   5.635
 8382TIP3    H225088   3.530   7.398   5.746
 8383TIP3   OH225089   3.316   5.469   1.816
 8383TIP3    H125090   3.235   5.520   1.816
 8383TIP3    H225091   3.355   5.485   1.730
 8384TIP3   OH225092   7.705   6.380   4.062
 8384TIP3    H125093   7.752   6.399   4.144
 8384TIP3    H225094   7.769   6.334   4.008
 8385TIP3   OH225095   3.378   6.494   2.257
 8385TIP3    H125096   3.343   6.569   2.306
 8385TIP3    H225097   3.304   6.435   2.248
 8386TIP3   OH225098   2.899   2.616   3.930
 8386TIP3    H125099   2.896   2.530   3.887
 8386TIP3    H225100   2.990   2.625   3.958
 8387TIP3   OH225101   7.402   7.509   1.094
 8387TIP3    H125102   7.496   7.528   1.093
 8387TIP3    H225103   7.393   7.428   1.044
 8388TIP3   OH225104   3.017   7.320   3.804
 8388TIP3    H125105   3.002   7.334   3.898
 8388TIP3    H225106   2.929   7.307   3.768
 8389TIP3   OH225107   2.295   1.142   4.305
 8389TIP3    H125108   2.378   1.120   4.348
 8389TIP3    H225109   2.273   1.063   4.256
 8390TIP3   OH225110   3.676   5.803   1.924
 8390TIP3    H125111   3.628   5.754   1.990
 8390TIP3    H225112   3.766   5.774   1.933
 8391TIP3   OH225113   0.310   1.315   2.149
 8391TIP3    H125114   0.396   1.295   2.112
 8391TIP3    H225115   0.300   1.252   2.220
 8392TIP3   OH225116   0.268   0.244   0.844
 8392TIP3    H125117   0.323   0.166   0.848
 8392TIP3    H225118   0.222   0.237   0.760
 8393TIP3   OH225119   2.055   3.087   1.777
 8393TIP3    H125120   2.039   3.166   1.725
 8393TIP3    H225121   2.054   3.016   1.712
 8394TIP3   OH225122   3.953   4.560   5.088
 8394TIP3    H125123   3.907   4.522   5.013
 8394TIP3    H225124   3.893   4.625   5.122
 8395TIP3   OH225125   5.392   0.724   2.401
 8395TIP3    H125126   5.418   0.656   2.339
 8395TIP3    H225127   5.330   0.778   2.353
 8396TIP3   OH225128   7.328   7.160   4.872
 8396TIP3    H125129   7.385   7.222   4.918
 8396TIP3    H225130   7.360   7.074   4.901
 8397TIP3   OH225131   0.874   2.664   3.628
 8397TIP3    H125132   0.792   2.648   3.676
 8397TIP3    H225133   0.858   2.626   3.541
 8398TIP3   OH225134   3.425   3.147   3.054
 8398TIP3    H125135   3.452   3.178   3.140
 8398TIP3    H225136   3.421   3.226   3.000
 8399TIP3   OH225137   4.798   4.044   4.483
 8399TIP3    H125138   4.766   4.093   4.408
 8399TIP3    H225139   4.890   4.027   4.463
 8400TIP3   OH225140   6.668   4.051   4.803
 8400TIP3    H125141   6.683   3.969   4.850
 8400TIP3    H225142   6.619   4.025   4.724
 8401TIP3   OH225143   6.859   6.596   0.989
 8401TIP3    H125144   6.820   6.674   1.027
 8401TIP3    H225145   6.784   6.546   0.955
 8402TIP3   OH225146   0.772   3.757   1.133
 8402TIP3    H125147   0.811   3.703   1.202
 8402TIP3    H225148   0.839   3.761   1.065
 8403TIP3   OH225149   3.440   6.802   2.331
 8403TIP3    H125150   3.434   6.873   2.394
 8403TIP3    H225151   3.349   6.781   2.309
 8404TIP3   OH225152   2.563   4.881   3.041
 8404TIP3    H125153   2.618   4.946   3.084
 8404TIP3    H225154   2.560   4.807   3.102
 8405TIP3   OH225155   1.777   0.986   0.792
 8405TIP3    H125156   1.806   0.901   0.824
 8405TIP3    H225157   1.692   0.968   0.753
 8406TIP3   OH225158   7.283   6.280   4.962
 8406TIP3    H125159   7.224   6.233   5.021
 8406TIP3    H225160   7.225   6.341   4.915
 8407TIP3   OH225161   8.250   5.339   5.093
 8407TIP3    H125162   8.196   5.415   5.073
 8407TIP3    H225163   8.321   5.342   5.028
 8408TIP3   OH225164   7.826   0.013   0.979
 8408TIP3    H125165   7.888   0.051   1.042
 8408TIP3    H225166   7.746   0.000   1.030
 8409TIP3   OH225167   0.532   4.051   4.899
 8409TIP3    H125168   0.448   4.010   4.880
 8409TIP3    H225169   0.552   4.101   4.819
 8410TIP3   OH225170   1.447   3.346   3.408
 8410TIP3    H125171   1.468   3.439   3.408
 8410TIP3    H225172   1.362   3.340   3.452
 8411TIP3   OH225173   6.819   0.993   2.940
 8411TIP3    H125174   6.825   1.030   3.028
 8411TIP3    H225175   6.811   0.899   2.954
 8412TIP3   OH225176   5.475   0.379   5.423
 8412TIP3    H125177   5.434   0.352   5.341
 8412TIP3    H225178   5.457   0.307   5.484
 8413TIP3   OH225179   4.965   5.879   0.358
 8413TIP3    H125180   5.038   5.838   0.310
 8413TIP3    H225181   5.008   5.928   0.428
 8414TIP3   OH225182   2.208   2.302   5.400
 8414TIP3    H125183   2.265   2.257   5.338
 8414TIP3    H225184   2.141   2.343   5.346
 8415TIP3   OH225185   2.063   5.225   4.723
 8415TIP3    H125186   2.109   5.156   4.770
 8415TIP3    H225187   2.049   5.189   4.635
 8416TIP3   OH225188   1.873   0.823   6.227
 8416TIP3    H125189   1.925   0.850   6.303
 8416TIP3    H225190   1.932   0.768   6.176
 8417TIP3   OH225191   3.335   1.248   1.809
 8417TIP3    H125192   3.422   1.209   1.795
 8417TIP3    H225193   3.305   1.210   1.892
 8418TIP3   OH225194   6.077   1.913   1.317
 8418TIP3    H125195   6.000   1.968   1.335
 8418TIP3    H225196   6.152   1.967   1.341
 8419TIP3   OH225197   0.087   2.512   2.154
 8419TIP3    H125198   0.174   2.530   2.119
 8419TIP3    H225199   0.067   2.424   2.124
 8420TIP3   OH225200   1.598   6.172   4.201
 8420TIP3    H125201   1.560   6.248   4.156
 8420TIP3    H225202   1.633   6.207   4.283
 8421TIP3   OH225203   5.947   6.441   0.125
 8421TIP3    H125204   5.861   6.415   0.157
 8421TIP3    H225205   5.997   6.359   0.124
 8422TIP3   OH225206   7.266   5.623   1.537
 8422TIP3    H125207   7.247   5.716   1.527
 8422TIP3    H225208   7.322   5.602   1.462
 8423TIP3   OH225209   3.079   1.334   3.233
 8423TIP3    H125210   3.043   1.246   3.229
 8423TIP3    H225211   3.004   1.392   3.218
 8424TIP3   OH225212   0.523   4.816   3.411
 8424TIP3    H125213   0.457   4.754   3.380
 8424TIP3    H225214   0.499   4.899   3.370
 8425TIP3   OH225215   4.684   5.050   3.537
 8425TIP3    H125216   4.759   5.047   3.596
 8425TIP3    H225217   4.689   4.969   3.486
 8426TIP3   OH225218   8.165   1.031   2.249
 8426TIP3    H125219   8.193   1.029   2.341
 8426TIP3    H225220   8.204   0.952   2.211
 8427TIP3   OH225221   2.657   6.515   1.439
 8427TIP3    H125222   2.589   6.459   1.401
 8427TIP3    H225223   2.619   6.603   1.438
 8428TIP3   OH225224   0.030   2.352   1.028
 8428TIP3    H125225  -0.029   2.427   1.023
 8428TIP3    H225226   0.109   2.380   0.983
 8429TIP3   OH225227   5.608   0.101   3.810
 8429TIP3    H125228   5.600   0.100   3.715
 8429TIP3    H225229   5.518   0.111   3.841
 8430TIP3   OH225230   8.254   7.179   2.409
 8430TIP3    H125231   8.346   7.190   2.434
 8430TIP3    H225232   8.218   7.268   2.413
 8431TIP3   OH225233   6.595   4.382   2.787
 8431TIP3    H125234   6.538   4.355   2.860
 8431TIP3    H225235   6.591   4.478   2.789
 8432TIP3   OH225236   0.386   7.891   5.931
 8432TIP3    H125237   0.456   7.866   5.870
 8432TIP3    H225238   0.431   7.912   6.012
 8433TIP3   OH225239   0.385   2.629   0.100
 8433TIP3    H125240   0.348   2.585   0.024
 8433TIP3    H225241   0.463   2.578   0.121
 8434TIP3   OH225242   6.578   3.806   3.061
 8434TIP3    H125243   6.501   3.768   3.105
 8434TIP3    H225244   6.563   3.789   2.968
 8435TIP3   OH225245   2.137   3.034   5.766
 8435TIP3    H125246   2.097   2.975   5.702
 8435TIP3    H225247   2.209   3.076   5.718
 8436TIP3   OH225248   3.465   5.308   6.329
 8436TIP3    H125249   3.455   5.285   6.237
 8436TIP3    H225250   3.547   5.266   6.356
 8437TIP3   OH225251   6.501   2.841   1.185
 8437TIP3    H125252   6.546   2.772   1.234
 8437TIP3    H225253   6.418   2.853   1.231
 8438TIP3   OH225254   2.759   4.352   5.659
 8438TIP3    H125255   2.843   4.306   5.649
 8438TIP3    H225256   2.731   4.331   5.748
 8439TIP3   OH225257   6.491   7.306   6.177
 8439TIP3    H125258   6.514   7.396   6.155
 8439TIP3    H225259   6.450   7.272   6.098
 8440TIP3   OH225260   4.789   5.165   1.398
 8440TIP3    H125261   4.773   5.077   1.431
 8440TIP3    H225262   4.840   5.152   1.318
 8441TIP3   OH225263   4.269   5.109   3.655
 8441TIP3    H125264   4.273   5.182   3.717
 8441TIP3    H225265   4.266   5.152   3.569
 8442TIP3   OH225266   6.243   6.792   4.553
 8442TIP3    H125267   6.337   6.778   4.541
 8442TIP3    H225268   6.202   6.740   4.485
 8443TIP3   OH225269   7.082   3.307   5.478
 8443TIP3    H125270   7.152   3.372   5.491
 8443TIP3    H225271   7.002   3.360   5.473
 8444TIP3   OH225272   0.698   4.643   1.850
 8444TIP3    H125273   0.728   4.706   1.784
 8444TIP3    H225274   0.662   4.697   1.920
 8445TIP3   OH225275   7.763   3.643   6.355
 8445TIP3    H125276   7.777   3.718   6.413
 8445TIP3    H225277   7.850   3.624   6.320
 8446TIP3   OH225278   3.050   0.871   3.050
 8446TIP3    H125279   2.998   0.865   2.970
 8446TIP3    H225280   3.053   0.782   3.085
 8447TIP3   OH225281   4.273   2.950   6.608
 8447TIP3    H125282   4.338   2.942   6.538
 8447TIP3    H225283   4.281   2.869   6.657
 8448TIP3   OH225284   2.213   0.034   5.054
 8448TIP3    H125285   2.287   0.025   5.114
 8448TIP3    H225286   2.136   0.034   5.111
 8449TIP3   OH225287   7.921   3.585   2.763
 8449TIP3    H125288   7.901   3.643   2.837
 8449TIP3    H225289   7.854   3.607   2.698
 8450TIP3   OH225290   5.817   2.342   0.084
 8450TIP3    H125291   5.725   2.356   0.064
 8450TIP3    H225292   5.816   2.284   0.160
 8451TIP3   OH225293   7.432   6.744   1.362
 8451TIP3    H125294   7.389   6.667   1.398
 8451TIP3    H225295   7.523   6.717   1.350
 8452TIP3   OH225296   6.625   4.317   5.118
 8452TIP3    H125297   6.584   4.399   5.091
 8452TIP3    H225298   6.573   4.287   5.192
 8453TIP3   OH225299   6.705   5.361   1.502
 8453TIP3    H125300   6.714   5.452   1.529
 8453TIP3    H225301   6.640   5.325   1.562
 8454TIP3   OH225302   5.087   6.098   0.470
 8454TIP3    H125303   5.147   6.148   0.525
 8454TIP3    H225304   5.054   6.162   0.406
 8455TIP3   OH225305   3.683   3.003   5.449
 8455TIP3    H125306   3.590   3.022   5.434
 8455TIP3    H225307   3.688   2.908   5.451
 8456TIP3   OH225308   3.860   7.468   6.461
 8456TIP3    H125309   3.944   7.443   6.421
 8456TIP3    H225310   3.818   7.522   6.394
 8457TIP3   OH225311   0.407   2.636   3.647
 8457TIP3    H125312   0.414   2.549   3.687
 8457TIP3    H225313   0.487   2.645   3.595
 8458TIP3   OH225314   8.409   4.221   4.806
 8458TIP3    H125315   8.327   4.231   4.757
 8458TIP3    H225316   8.423   4.306   4.847
 8459TIP3   OH225317   0.365   3.759   2.516
 8459TIP3    H125318   0.282   3.800   2.492
 8459TIP3    H225319   0.346   3.665   2.517
 8460TIP3   OH225320   5.925   0.385   0.334
 8460TIP3    H125321   5.915   0.306   0.387
 8460TIP3    H225322   6.018   0.388   0.313
 8461TIP3   OH225323   1.830   0.296   0.480
 8461TIP3    H125324   1.796   0.256   0.560
 8461TIP3    H225325   1.911   0.247   0.462
 8462TIP3   OH225326   7.427   1.777   0.712
 8462TIP3    H125327   7.413   1.760   0.619
 8462TIP3    H225328   7.383   1.705   0.757
 8463TIP3   OH225329   2.678   3.217   0.597
 8463TIP3    H125330   2.731   3.205   0.518
 8463TIP3    H225331   2.607   3.275   0.569
 8464TIP3   OH225332   4.144   5.533   3.208
 8464TIP3    H125333   4.063   5.482   3.208
 8464TIP3    H225334   4.155   5.561   3.299
 8465TIP3   OH225335   3.245   6.318   4.566
 8465TIP3    H125336   3.187   6.374   4.617
 8465TIP3    H225337   3.244   6.355   4.478
 8466TIP3   OH225338   2.607   2.167   3.182
 8466TIP3    H125339   2.533   2.119   3.220
 8466TIP3    H225340   2.633   2.114   3.107
 8467TIP3   OH225341   2.854   7.806   3.260
 8467TIP3    H125342   2.864   7.862   3.183
 8467TIP3    H225343   2.858   7.717   3.226
 8468TIP3   OH225344   1.108   7.283   2.095
 8468TIP3    H125345   1.193   7.252   2.127
 8468TIP3    H225346   1.113   7.273   2.000
 8469TIP3   OH225347   4.530   6.553   1.808
 8469TIP3    H125348   4.601   6.495   1.779
 8469TIP3    H225349   4.498   6.594   1.727
 8470TIP3   OH225350   8.159   6.882   6.692
 8470TIP3    H125351   8.070   6.897   6.723
 8470TIP3    H225352   8.161   6.791   6.665
 8471TIP3   OH225353   4.853   3.722   6.303
 8471TIP3    H125354   4.867   3.809   6.266
 8471TIP3    H225355   4.865   3.662   6.229
 8472TIP3   OH225356   5.795   1.951   4.540
 8472TIP3    H125357   5.714   1.985   4.501
 8472TIP3    H225358   5.860   2.019   4.524
 8473TIP3   OH225359   7.787   5.931   5.154
 8473TIP3    H125360   7.842   5.873   5.205
 8473TIP3    H225361   7.699   5.920   5.191
 8474TIP3   OH225362   6.396   1.975   3.069
 8474TIP3    H125363   6.461   2.045   3.064
 8474TIP3    H225364   6.353   1.988   3.153
 8475TIP3   OH225365   6.231   5.411   5.058
 8475TIP3    H125366   6.186   5.342   5.107
 8475TIP3    H225367   6.161   5.462   5.019
 8476TIP3   OH225368   1.548   4.625   0.686
 8476TIP3    H125369   1.480   4.686   0.656
 8476TIP3    H225370   1.513   4.538   0.666
 8477TIP3   OH225371   2.858   0.381   6.040
 8477TIP3    H125372   2.853   0.300   6.091
 8477TIP3    H225373   2.936   0.372   5.986
 8478TIP3   OH225374   4.437   6.696   1.286
 8478TIP3    H125375   4.421   6.785   1.255
 8478TIP3    H225376   4.371   6.642   1.242
 8479TIP3   OH225377   0.073   0.365   5.182
 8479TIP3    H125378   0.086   0.312   5.104
 8479TIP3    H225379   0.000   0.323   5.228
 8480TIP3   OH225380   6.816   3.359   6.315
 8480TIP3    H125381   6.887   3.403   6.268
 8480TIP3    H225382   6.830   3.383   6.407
 8481TIP3   OH225383   0.235   7.326   3.335
 8481TIP3    H125384   0.266   7.375   3.411
 8481TIP3    H225385   0.141   7.318   3.348
 8482TIP3   OH225386   7.579   6.353   4.368
 8482TIP3    H125387   7.581   6.299   4.288
 8482TIP3    H225388   7.486   6.363   4.387
 8483TIP3   OH225389   2.656   0.556   5.291
 8483TIP3    H125390   2.658   0.600   5.206
 8483TIP3    H225391   2.730   0.594   5.339
 8484TIP3   OH225392   7.904   2.642   2.847
 8484TIP3    H125393   7.992   2.662   2.813
 8484TIP3    H225394   7.851   2.718   2.822
 8485TIP3   OH225395   2.984   0.284   5.288
 8485TIP3    H125396   2.892   0.309   5.279
 8485TIP3    H225397   3.004   0.238   5.206
 8486TIP3   OH225398   8.289   4.530   1.593
 8486TIP3    H125399   8.297   4.470   1.667
 8486TIP3    H225400   8.335   4.486   1.521
 8487TIP3   OH225401   6.216   2.962   3.463
 8487TIP3    H125402   6.279   2.895   3.436
 8487TIP3    H225403   6.271   3.035   3.492
 8488TIP3   OH225404   6.352   1.569   0.917
 8488TIP3    H125405   6.345   1.575   0.821
 8488TIP3    H225406   6.320   1.654   0.948
 8489TIP3   OH225407   2.682   6.539   6.087
 8489TIP3    H125408   2.737   6.583   6.152
 8489TIP3    H225409   2.720   6.452   6.078
 8490TIP3   OH225410   1.787   0.909   3.720
 8490TIP3    H125411   1.876   0.939   3.702
 8490TIP3    H225412   1.795   0.814   3.733
 8491TIP3   OH225413   7.982   0.359   0.187
 8491TIP3    H125414   8.060   0.344   0.134
 8491TIP3    H225415   8.011   0.421   0.254
 8492TIP3   OH225416   4.996   2.661   5.871
 8492TIP3    H125417   5.054   2.626   5.938
 8492TIP3    H225418   5.002   2.756   5.882
 8493TIP3   OH225419   8.303   1.657   6.390
 8493TIP3    H125420   8.227   1.634   6.443
 8493TIP3    H225421   8.295   1.602   6.311
 8494TIP3   OH225422   4.843   6.240   1.085
 8494TIP3    H125423   4.788   6.298   1.033
 8494TIP3    H225424   4.838   6.275   1.174
 8495TIP3   OH225425   0.026   6.850   0.185
 8495TIP3    H125426   0.038   6.758   0.162
 8495TIP3    H225427   0.013   6.850   0.279
 8496TIP3   OH225428   2.252   3.775   2.296
 8496TIP3    H125429   2.317   3.805   2.232
 8496TIP3    H225430   2.262   3.680   2.297
 8497TIP3   OH225431   5.875   7.149   1.030
 8497TIP3    H125432   5.813   7.082   1.001
 8497TIP3    H225433   5.835   7.186   1.109
 8498TIP3   OH225434   5.568   5.243   0.093
 8498TIP3    H125435   5.533   5.163   0.055
 8498TIP3    H225436   5.592   5.219   0.182
 8499TIP3   OH225437   7.476   4.392   4.215
 8499TIP3    H125438   7.513   4.362   4.298
 8499TIP3    H225439   7.384   4.367   4.219
 8500TIP3   OH225440   0.073   6.218   3.973
 8500TIP3    H125441   0.123   6.296   3.949
 8500TIP3    H225442   0.131   6.145   3.950
 8501TIP3   OH225443   5.139   7.197   3.369
 8501TIP3    H125444   5.160   7.282   3.331
 8501TIP3    H225445   5.068   7.163   3.313
 8502TIP3   OH225446   2.145   3.343   6.328
 8502TIP3    H125447   2.078   3.357   6.261
 8502TIP3    H225448   2.225   3.377   6.289
 8503TIP3   OH225449   7.296   0.395   1.312
 8503TIP3    H125450   7.303   0.465   1.247
 8503TIP3    H225451   7.375   0.342   1.298
 8504TIP3   OH225452   2.052   6.806   0.364
 8504TIP3    H125453   2.119   6.786   0.298
 8504TIP3    H225454   1.971   6.769   0.329
 8505TIP3   OH225455   4.348   4.765   2.140
 8505TIP3    H125456   4.331   4.724   2.224
 8505TIP3    H225457   4.305   4.709   2.076
 8506TIP3   OH225458   6.556   7.272   2.390
 8506TIP3    H125459   6.522   7.360   2.403
 8506TIP3    H225460   6.520   7.243   2.306
 8507TIP3   OH225461   7.230   1.308   5.998
 8507TIP3    H125462   7.135   1.315   5.985
 8507TIP3    H225463   7.245   1.340   6.087
 8508TIP3   OH225464   8.227   1.974   5.863
 8508TIP3    H125465   8.230   1.985   5.768
 8508TIP3    H225466   8.192   2.057   5.895
 8509TIP3   OH225467   1.937   2.842   2.236
 8509TIP3    H125468   1.930   2.818   2.329
 8509TIP3    H225469   1.918   2.761   2.189
 8510TIP3   OH225470   0.057   0.320   3.332
 8510TIP3    H125471   0.044   0.413   3.350
 8510TIP3    H225472   0.116   0.318   3.257
 8511TIP3   OH225473   3.269   3.489   1.245
 8511TIP3    H125474   3.178   3.488   1.217
 8511TIP3    H225475   3.317   3.448   1.173
 8512TIP3   OH225476   2.198   0.146   0.688
 8512TIP3    H125477   2.145   0.182   0.759
 8512TIP3    H225478   2.138   0.142   0.613
 8513TIP3   OH225479   0.395   0.926   1.876
 8513TIP3    H125480   0.345   0.896   1.952
 8513TIP3    H225481   0.337   0.988   1.832
 8514TIP3   OH225482   5.357   4.562   6.158
 8514TIP3    H125483   5.270   4.585   6.124
 8514TIP3    H225484   5.406   4.534   6.081
 8515TIP3   OH225485   5.866   4.976   4.413
 8515TIP3    H125486   5.813   5.010   4.341
 8515TIP3    H225487   5.823   4.895   4.439
 8516TIP3   OH225488   3.885   5.581   4.076
 8516TIP3    H125489   3.917   5.653   4.130
 8516TIP3    H225490   3.959   5.561   4.018
 8517TIP3   OH225491   7.079   6.995   5.361
 8517TIP3    H125492   7.056   6.914   5.408
 8517TIP3    H225493   7.174   6.990   5.352
 8518TIP3   OH225494   0.348   4.577   4.943
 8518TIP3    H125495   0.427   4.631   4.940
 8518TIP3    H225496   0.339   4.551   5.034
 8519TIP3   OH225497   2.150   6.023   1.592
 8519TIP3    H125498   2.093   5.983   1.658
 8519TIP3    H225499   2.188   5.949   1.545
 8520TIP3   OH225500   6.341   7.598   2.694
 8520TIP3    H125501   6.327   7.686   2.659
 8520TIP3    H225502   6.390   7.611   2.775
 8521TIP3   OH225503   0.258   3.132   0.737
 8521TIP3    H125504   0.272   3.039   0.723
 8521TIP3    H225505   0.292   3.148   0.825
 8522TIP3   OH225506   1.973   5.979   0.528
 8522TIP3    H125507   1.902   5.944   0.581
 8522TIP3    H225508   2.049   5.977   0.586
 8523TIP3   OH225509   7.298   0.156   0.531
 8523TIP3    H125510   7.247   0.223   0.484
 8523TIP3    H225511   7.342   0.205   0.601
 8524TIP3   OH225512   0.656   3.165   4.533
 8524TIP3    H125513   0.646   3.232   4.465
 8524TIP3    H225514   0.679   3.085   4.485
 8525TIP3   OH225515   6.457   7.372   4.866
 8525TIP3    H125516   6.475   7.439   4.932
 8525TIP3    H225517   6.507   7.296   4.893
 8526TIP3   OH225518   1.979   0.201   1.471
 8526TIP3    H125519   2.010   0.144   1.401
 8526TIP3    H225520   2.056   0.218   1.525
 8527TIP3   OH225521   7.846   4.185   4.399
 8527TIP3    H125522   7.751   4.171   4.399
 8527TIP3    H225523   7.881   4.111   4.350
 8528TIP3   OH225524   8.188   6.549   2.256
 8528TIP3    H125525   8.150   6.582   2.337
 8528TIP3    H225526   8.262   6.494   2.284
 8529TIP3   OH225527   2.098   2.629   5.458
 8529TIP3    H125528   2.122   2.590   5.374
 8529TIP3    H225529   2.113   2.723   5.446
 8530TIP3   OH225530   4.667   3.868   4.733
 8530TIP3    H125531   4.591   3.922   4.712
 8530TIP3    H225532   4.631   3.784   4.760
 8531TIP3   OH225533   6.607   6.244   6.343
 8531TIP3    H125534   6.538   6.285   6.395
 8531TIP3    H225535   6.560   6.186   6.283
 8532TIP3   OH225536   6.026   2.732   0.627
 8532TIP3    H125537   6.034   2.782   0.708
 8532TIP3    H225538   6.067   2.648   0.645
 8533TIP3   OH225539   6.552   3.111   2.489
 8533TIP3    H125540   6.504   3.040   2.447
 8533TIP3    H225541   6.483   3.171   2.521
 8534TIP3   OH225542   3.915   4.620   3.880
 8534TIP3    H125543   3.886   4.666   3.960
 8534TIP3    H225544   3.840   4.566   3.855
 8535TIP3   OH225545   2.338   1.178   0.775
 8535TIP3    H125546   2.372   1.195   0.863
 8535TIP3    H225547   2.263   1.121   0.790
 8536TIP3   OH225548   1.931   7.402   5.713
 8536TIP3    H125549   1.980   7.468   5.761
 8536TIP3    H225550   1.926   7.327   5.773
 8537TIP3   OH225551   6.136   0.778   5.941
 8537TIP3    H125552   6.081   0.700   5.952
 8537TIP3    H225553   6.146   0.787   5.846
 8538TIP3   OH225554   6.950   2.507   1.617
 8538TIP3    H125555   7.008   2.527   1.691
 8538TIP3    H225556   6.881   2.453   1.656
 8539TIP3   OH225557   4.308   4.911   3.365
 8539TIP3    H125558   4.375   4.980   3.368
 8539TIP3    H225559   4.326   4.858   3.443
 8540TIP3   OH225560   2.247   6.760   4.330
 8540TIP3    H125561   2.301   6.685   4.306
 8540TIP3    H225562   2.279   6.831   4.275
 8541TIP3   OH225563   4.406   2.563   2.389
 8541TIP3    H125564   4.386   2.626   2.319
 8541TIP3    H225565   4.344   2.491   2.374
 8542TIP3   OH225566   5.419   1.384   1.365
 8542TIP3    H125567   5.480   1.345   1.428
 8542TIP3    H225568   5.408   1.474   1.395
 8543TIP3   OH225569   0.767   1.295   2.254
 8543TIP3    H125570   0.802   1.379   2.223
 8543TIP3    H225571   0.767   1.303   2.349
 8544TIP3   OH225572   3.256   2.126   5.617
 8544TIP3    H125573   3.294   2.211   5.595
 8544TIP3    H225574   3.183   2.115   5.556
 8545TIP3   OH225575   4.910   1.916   2.350
 8545TIP3    H125576   4.934   1.823   2.353
 8545TIP3    H225577   4.821   1.919   2.386
 8546TIP3   OH225578   3.284   7.396   3.891
 8546TIP3    H125579   3.196   7.387   3.856
 8546TIP3    H225580   3.342   7.388   3.815
 8547TIP3   OH225581   0.870   0.264   3.109
 8547TIP3    H125582   0.916   0.179   3.110
 8547TIP3    H225583   0.780   0.242   3.133
 8548TIP3   OH225584   3.094   2.263   2.496
 8548TIP3    H125585   3.079   2.172   2.468
 8548TIP3    H225586   3.189   2.271   2.497
 8549TIP3   OH225587   1.343   4.800   0.627
 8549TIP3    H125588   1.272   4.817   0.689
 8549TIP3    H225589   1.403   4.875   0.637
 8550TIP3   OH225590   2.611   4.436   1.784
 8550TIP3    H125591   2.680   4.473   1.729
 8550TIP3    H225592   2.547   4.507   1.793
 8551TIP3   OH225593   6.493   6.560   6.148
 8551TIP3    H125594   6.426   6.534   6.211
 8551TIP3    H225595   6.471   6.513   6.068
 8552TIP3   OH225596   2.527   6.482   3.257
 8552TIP3    H125597   2.538   6.430   3.178
 8552TIP3    H225598   2.436   6.467   3.284
 8553TIP3   OH225599   0.087   0.429   2.298
 8553TIP3    H125600   0.179   0.426   2.274
 8553TIP3    H225601   0.040   0.415   2.216
 8554TIP3   OH225602   1.510   0.773   0.258
 8554TIP3    H125603   1.565   0.773   0.337
 8554TIP3    H225604   1.553   0.836   0.200
 8555TIP3   OH225605   7.528   0.247   1.261
 8555TIP3    H125606   7.592   0.241   1.332
 8555TIP3    H225607   7.579   0.274   1.185
 8556TIP3   OH225608   2.565   2.105   1.713
 8556TIP3    H125609   2.471   2.116   1.699
 8556TIP3    H225610   2.605   2.153   1.641
 8557TIP3   OH225611   7.272   4.179   5.107
 8557TIP3    H125612   7.301   4.092   5.076
 8557TIP3    H225613   7.298   4.181   5.199
 8558TIP3   OH225614   7.215   0.590   5.241
 8558TIP3    H125615   7.267   0.664   5.271
 8558TIP3    H225616   7.125   0.613   5.264
 8559TIP3   OH225617   4.857   4.954   4.123
 8559TIP3    H125618   4.866   4.866   4.160
 8559TIP3    H225619   4.770   4.954   4.082
 8560TIP3   OH225620   0.888   3.422   0.214
 8560TIP3    H125621   0.834   3.371   0.275
 8560TIP3    H225622   0.832   3.433   0.137
 8561TIP3   OH225623   4.164   0.233   5.883
 8561TIP3    H125624   4.200   0.155   5.927
 8561TIP3    H225625   4.217   0.305   5.915
 8562TIP3   OH225626   1.903   2.367   4.289
 8562TIP3    H125627   1.817   2.407   4.277
 8562TIP3    H225628   1.953   2.432   4.339
 8563TIP3   OH225629   4.705   6.761   2.853
 8563TIP3    H125630   4.672   6.783   2.766
 8563TIP3    H225631   4.630   6.778   2.911
 8564TIP3   OH225632   6.291   5.805   5.151
 8564TIP3    H125633   6.277   5.856   5.072
 8564TIP3    H225634   6.374   5.759   5.136
 8565TIP3   OH225635   8.089   1.666   4.911
 8565TIP3    H125636   8.075   1.758   4.931
 8565TIP3    H225637   8.021   1.620   4.960
 8566TIP3   OH225638   6.591   6.806   3.373
 8566TIP3    H125639   6.552   6.719   3.368
 8566TIP3    H225640   6.603   6.833   3.282
 8567TIP3   OH225641   1.921   1.019   2.729
 8567TIP3    H125642   1.859   1.048   2.797
 8567TIP3    H225643   1.904   1.077   2.655
 8568TIP3   OH225644   0.535   4.000   1.340
 8568TIP3    H125645   0.442   4.016   1.355
 8568TIP3    H225646   0.538   3.941   1.265
 8569TIP3   OH225647   0.988   4.577   3.574
 8569TIP3    H125648   0.958   4.649   3.518
 8569TIP3    H225649   1.064   4.542   3.528
 8570TIP3   OH225650   4.345   4.923   2.495
 8570TIP3    H125651   4.371   4.852   2.554
 8570TIP3    H225652   4.403   4.915   2.420
 8571TIP3   OH225653   7.683   6.604   4.464
 8571TIP3    H125654   7.595   6.642   4.469
 8571TIP3    H225655   7.672   6.525   4.412
 8572TIP3   OH225656   1.052   6.615   1.674
 8572TIP3    H125657   1.043   6.527   1.639
 8572TIP3    H225658   0.963   6.650   1.674
 8573TIP3   OH225659   1.156   2.213   0.258
 8573TIP3    H125660   1.241   2.256   0.260
 8573TIP3    H225661   1.092   2.284   0.269
 8574TIP3   OH225662   6.418   2.586   5.995
 8574TIP3    H125663   6.442   2.666   6.042
 8574TIP3    H225664   6.458   2.516   6.046
 8575TIP3   OH225665   2.735   4.685   5.781
 8575TIP3    H125666   2.640   4.689   5.784
 8575TIP3    H225667   2.761   4.767   5.738
 8576TIP3   OH225668   4.318   3.852   1.372
 8576TIP3    H125669   4.334   3.897   1.289
 8576TIP3    H225670   4.371   3.772   1.367
 8577TIP3   OH225671   2.346   2.180   1.903
 8577TIP3    H125672   2.259   2.213   1.881
 8577TIP3    H225673   2.342   2.086   1.884
 8578TIP3   OH225674   5.143   5.584   2.347
 8578TIP3    H125675   5.093   5.652   2.392
 8578TIP3    H225676   5.080   5.512   2.337
 8579TIP3   OH225677   6.109   3.933   4.918
 8579TIP3    H125678   6.136   3.996   4.984
 8579TIP3    H225679   6.179   3.868   4.917
 8580TIP3   OH225680   2.515   3.691   3.549
 8580TIP3    H125681   2.452   3.698   3.477
 8580TIP3    H225682   2.470   3.729   3.624
 8581TIP3   OH225683   4.621   6.330   1.374
 8581TIP3    H125684   4.713   6.343   1.354
 8581TIP3    H225685   4.594   6.258   1.317
 8582TIP3   OH225686   6.645   6.020   1.219
 8582TIP3    H125687   6.663   6.013   1.125
 8582TIP3    H225688   6.717   6.073   1.252
 8583TIP3   OH225689   3.958   2.542   0.761
 8583TIP3    H125690   3.908   2.475   0.715
 8583TIP3    H225691   4.050   2.520   0.744
 8584TIP3   OH225692   6.689   0.072   0.349
 8584TIP3    H125693   6.717   0.073   0.258
 8584TIP3    H225694   6.741   0.002   0.389
 8585TIP3   OH225695   1.241   0.801   4.783
 8585TIP3    H125696   1.309   0.787   4.848
 8585TIP3    H225697   1.159   0.793   4.832
 8586TIP3   OH225698   8.093   7.582   5.810
 8586TIP3    H125699   8.049   7.666   5.800
 8586TIP3    H225700   8.113   7.577   5.904
 8587TIP3   OH225701   4.497   4.671   5.321
 8587TIP3    H125702   4.538   4.625   5.394
 8587TIP3    H225703   4.512   4.764   5.340
 8588TIP3   OH225704   7.889   6.918   6.806
 8588TIP3    H125705   7.840   7.001   6.803
 8588TIP3    H225706   7.824   6.853   6.831
 8589TIP3   OH225707   0.721   3.337   2.009
 8589TIP3    H125708   0.649   3.396   1.988
 8589TIP3    H225709   0.683   3.249   1.996
 8590TIP3   OH225710   0.298   7.063   0.432
 8590TIP3    H125711   0.288   7.148   0.477
 8590TIP3    H225712   0.368   7.078   0.369
 8591TIP3   OH225713   1.424   0.515   2.325
 8591TIP3    H125714   1.404   0.600   2.287
 8591TIP3    H225715   1.513   0.495   2.295
 8592TIP3   OH225716   7.161   6.933   1.326
 8592TIP3    H125717   7.202   6.883   1.255
 8592TIP3    H225718   7.078   6.963   1.289
 8593TIP3   OH225719   2.168   0.674   5.270
 8593TIP3    H125720   2.090   0.721   5.241
 8593TIP3    H225721   2.230   0.743   5.292
 8594TIP3   OH225722   4.791   1.120   4.429
 8594TIP3    H125723   4.696   1.116   4.444
 8594TIP3    H225724   4.828   1.131   4.517
 8595TIP3   OH225725   7.769   4.328   6.641
 8595TIP3    H125726   7.797   4.268   6.710
 8595TIP3    H225727   7.679   4.303   6.621
 8596TIP3   OH225728   0.325   2.705   4.494
 8596TIP3    H125729   0.237   2.743   4.500
 8596TIP3    H225730   0.311   2.619   4.453
 8597TIP3   OH225731   0.877   5.540   3.830
 8597TIP3    H125732   0.785   5.553   3.808
 8597TIP3    H225733   0.892   5.446   3.817
 8598TIP3   OH225734   3.917   2.568   3.562
 8598TIP3    H125735   3.871   2.651   3.557
 8598TIP3    H225736   3.916   2.545   3.655
 8599TIP3   OH225737   4.615   3.363   1.518
 8599TIP3    H125738   4.602   3.341   1.425
 8599TIP3    H225739   4.526   3.365   1.554
 8600TIP3   OH225740   0.325   2.465   1.928
 8600TIP3    H125741   0.322   2.384   1.979
 8600TIP3    H225742   0.363   2.530   1.988
 8601TIP3   OH225743   0.341   2.101   3.075
 8601TIP3    H125744   0.368   2.169   3.137
 8601TIP3    H225745   0.423   2.060   3.048
 8602TIP3   OH225746  -0.012   0.472   1.439
 8602TIP3    H125747   0.054   0.540   1.450
 8602TIP3    H225748   0.037   0.395   1.409
 8603TIP3   OH225749   3.100   1.759   1.490
 8603TIP3    H125750   3.128   1.809   1.413
 8603TIP3    H225751   3.034   1.699   1.457
 8604TIP3   OH225752   3.977   6.007   5.040
 8604TIP3    H125753   3.898   6.027   4.990
 8604TIP3    H225754   4.034   5.961   4.978
 8605TIP3   OH225755   7.658   3.918   5.672
 8605TIP3    H125756   7.611   3.852   5.621
 8605TIP3    H225757   7.693   3.870   5.747
 8606TIP3   OH225758   7.416   6.022   6.845
 8606TIP3    H125759   7.424   6.103   6.795
 8606TIP3    H225760   7.491   6.023   6.905
 8607TIP3   OH225761   2.916   3.515   3.581
 8607TIP3    H125762   2.930   3.489   3.490
 8607TIP3    H225763   2.986   3.469   3.629
 8608TIP3   OH225764   6.035   1.943   0.286
 8608TIP3    H125765   5.999   1.858   0.260
 8608TIP3    H225766   6.071   1.979   0.206
 8609TIP3   OH225767   4.119   4.002   0.970
 8609TIP3    H125768   4.077   3.934   0.918
 8609TIP3    H225769   4.093   4.084   0.928
 8610TIP3   OH225770   2.840   6.533   1.931
 8610TIP3    H125771   2.769   6.505   1.872
 8610TIP3    H225772   2.878   6.609   1.888
 8611TIP3   OH225773   6.246   3.874   1.025
 8611TIP3    H125774   6.202   3.872   0.940
 8611TIP3    H225775   6.333   3.839   1.007
 8612TIP3   OH225776   0.459   4.421   6.168
 8612TIP3    H125777   0.533   4.364   6.147
 8612TIP3    H225778   0.388   4.391   6.111
 8613TIP3   OH225779   6.602   0.096   1.739
 8613TIP3    H125780   6.606   0.093   1.834
 8613TIP3    H225781   6.598   0.004   1.712
 8614TIP3   OH225782   2.691   6.248   5.581
 8614TIP3    H125783   2.759   6.183   5.562
 8614TIP3    H225784   2.674   6.237   5.674
 8615TIP3   OH225785   4.228  -0.013   5.672
 8615TIP3    H125786   4.285   0.012   5.744
 8615TIP3    H225787   4.211   0.069   5.625
 8616TIP3   OH225788   3.818   5.548   2.973
 8616TIP3    H125789   3.910   5.527   2.959
 8616TIP3    H225790   3.810   5.561   3.068
 8617TIP3   OH225791   7.866   5.678   0.216
 8617TIP3    H125792   7.891   5.593   0.179
 8617TIP3    H225793   7.939   5.703   0.271
 8618TIP3   OH225794   2.181   1.754   3.167
 8618TIP3    H125795   2.232   1.743   3.247
 8618TIP3    H225796   2.191   1.670   3.121
 8619TIP3   OH225797   7.490   7.164   4.298
 8619TIP3    H125798   7.546   7.086   4.294
 8619TIP3    H225799   7.408   7.137   4.256
 8620TIP3   OH225800   2.365   4.614   3.078
 8620TIP3    H125801   2.332   4.564   3.004
 8620TIP3    H225802   2.454   4.582   3.092
 8621TIP3   OH225803   2.606   5.929   0.402
 8621TIP3    H125804   2.619   5.923   0.307
 8621TIP3    H225805   2.512   5.947   0.412
 8622TIP3   OH225806   4.590   6.360   5.238
 8622TIP3    H125807   4.609   6.447   5.273
 8622TIP3    H225808   4.622   6.300   5.305
 8623TIP3   OH225809   1.012   5.040   5.395
 8623TIP3    H125810   1.040   4.987   5.321
 8623TIP3    H225811   0.923   5.067   5.374
 8624TIP3   OH225812   1.527   3.178   5.249
 8624TIP3    H125813   1.595   3.191   5.315
 8624TIP3    H225814   1.499   3.087   5.261
 8625TIP3   OH225815   8.216   7.895   3.740
 8625TIP3    H125816   8.161   7.817   3.735
 8625TIP3    H225817   8.233   7.906   3.834
 8626TIP3   OH225818   0.159   1.793   3.989
 8626TIP3    H125819   0.175   1.806   3.896
 8626TIP3    H225820   0.127   1.703   3.996
 8627TIP3   OH225821   7.521   3.701   4.704
 8627TIP3    H125822   7.500   3.782   4.656
 8627TIP3    H225823   7.563   3.732   4.784
 8628TIP3   OH225824   5.118   0.301   2.245
 8628TIP3    H125825   5.182   0.239   2.210
 8628TIP3    H225826   5.115   0.371   2.179
 8629TIP3   OH225827   2.317   6.631   4.692
 8629TIP3    H125828   2.231   6.619   4.652
 8629TIP3    H225829   2.361   6.695   4.636
 8630TIP3   OH225830   2.439   3.903   1.519
 8630TIP3    H125831   2.349   3.932   1.537
 8630TIP3    H225832   2.493   3.980   1.534
 8631TIP3   OH225833   4.713   0.320   6.791
 8631TIP3    H125834   4.773   0.268   6.738
 8631TIP3    H225835   4.628   0.311   6.748
 8632TIP3   OH225836   5.326   5.144   6.560
 8632TIP3    H125837   5.290   5.204   6.626
 8632TIP3    H225838   5.398   5.100   6.604
 8633TIP3   OH225839   4.843   4.979   2.875
 8633TIP3    H125840   4.834   4.908   2.939
 8633TIP3    H225841   4.823   5.058   2.924
 8634TIP3   OH225842   3.086   4.108   6.421
 8634TIP3    H125843   3.064   4.185   6.368
 8634TIP3    H225844   3.085   4.140   6.511
 8635TIP3   OH225845   0.118   7.707   4.853
 8635TIP3    H125846   0.060   7.764   4.803
 8635TIP3    H225847   0.156   7.765   4.920
 8636TIP3   OH225848   7.927   3.858   4.035
 8636TIP3    H125849   7.855   3.917   4.013
 8636TIP3    H225850   7.942   3.808   3.955
 8637TIP3   OH225851   8.334   6.959   1.698
 8637TIP3    H125852   8.423   6.953   1.734
 8637TIP3    H225853   8.327   7.049   1.668
 8638TIP3   OH225854   6.515   1.503   3.837
 8638TIP3    H125855   6.521   1.526   3.929
 8638TIP3    H225856   6.606   1.500   3.807
 8639TIP3   OH225857   6.028   6.481   4.867
 8639TIP3    H125858   6.098   6.547   4.868
 8639TIP3    H225859   6.062   6.409   4.920
 8640TIP3   OH225860   6.369   6.797   3.061
 8640TIP3    H125861   6.460   6.822   3.077
 8640TIP3    H225862   6.366   6.704   3.084
 8641TIP3   OH225863   2.000   3.405   2.449
 8641TIP3    H125864   2.019   3.416   2.356
 8641TIP3    H225865   2.043   3.480   2.491
 8642TIP3   OH225866   1.442   0.034   1.035
 8642TIP3    H125867   1.438   0.051   0.940
 8642TIP3    H225868   1.480  -0.053   1.042
 8643TIP3   OH225869   1.132   1.492   1.660
 8643TIP3    H125870   1.078   1.496   1.580
 8643TIP3    H225871   1.154   1.400   1.670
 8644TIP3   OH225872   3.395   2.411   2.602
 8644TIP3    H125873   3.454   2.484   2.581
 8644TIP3    H225874   3.444   2.333   2.576
 8645TIP3   OH225875   2.310   1.988   3.669
 8645TIP3    H125876   2.233   1.956   3.717
 8645TIP3    H225877   2.324   2.076   3.704
 8646TIP3   OH225878   6.871   1.668   2.326
 8646TIP3    H125879   6.915   1.610   2.264
 8646TIP3    H225880   6.778   1.658   2.305
 8647TIP3   OH225881   5.699   4.529   3.141
 8647TIP3    H125882   5.761   4.580   3.193
 8647TIP3    H225883   5.753   4.462   3.099
 8648TIP3   OH225884   4.241   6.229   4.651
 8648TIP3    H125885   4.337   6.224   4.656
 8648TIP3    H225886   4.221   6.203   4.561
 8649TIP3   OH225887   2.453   1.014   5.645
 8649TIP3    H125888   2.481   0.967   5.724
 8649TIP3    H225889   2.534   1.027   5.595
 8650TIP3   OH225890   0.618   0.084   4.229
 8650TIP3    H125891   0.583   0.032   4.302
 8650TIP3    H225892   0.713   0.072   4.235
 8651TIP3   OH225893   1.517   1.243   1.814
 8651TIP3    H125894   1.484   1.244   1.904
 8651TIP3    H225895   1.598   1.192   1.819
 8652TIP3   OH225896   7.293   3.815   3.439
 8652TIP3    H125897   7.260   3.894   3.483
 8652TIP3    H225898   7.368   3.788   3.492
 8653TIP3   OH225899   0.833   4.232   6.268
 8653TIP3    H125900   0.744   4.243   6.235
 8653TIP3    H225901   0.873   4.319   6.261
 8654TIP3   OH225902   3.782   3.261   2.910
 8654TIP3    H125903   3.777   3.253   3.005
 8654TIP3    H225904   3.715   3.199   2.878
 8655TIP3   OH225905   0.442   5.545   6.250
 8655TIP3    H125906   0.483   5.476   6.302
 8655TIP3    H225907   0.490   5.625   6.273
 8656TIP3   OH225908   1.966   0.126   5.715
 8656TIP3    H125909   1.985   0.041   5.676
 8656TIP3    H225910   1.871   0.137   5.707
 8657TIP3   OH225911   4.616   3.444   2.076
 8657TIP3    H125912   4.575   3.530   2.088
 8657TIP3    H225913   4.618   3.431   1.982
 8658TIP3   OH225914   7.533   3.919   6.354
 8658TIP3    H125915   7.578   4.003   6.347
 8658TIP3    H225916   7.571   3.865   6.285
 8659TIP3   OH225917   4.292   0.918   6.264
 8659TIP3    H125918   4.269   0.971   6.341
 8659TIP3    H225919   4.260   0.831   6.284
 8660TIP3   OH225920   1.047   2.362   6.687
 8660TIP3    H125921   1.021   2.350   6.778
 8660TIP3    H225922   1.135   2.326   6.682
 8661TIP3   OH225923   0.896   3.007   2.372
 8661TIP3    H125924   0.807   3.003   2.337
 8661TIP3    H225925   0.913   2.919   2.406
 8662TIP3   OH225926   5.809   1.576   5.757
 8662TIP3    H125927   5.868   1.635   5.804
 8662TIP3    H225928   5.780   1.626   5.681
 8663TIP3   OH225929   4.233   7.516   3.834
 8663TIP3    H125930   4.153   7.565   3.854
 8663TIP3    H225931   4.281   7.573   3.774
 8664TIP3   OH225932   2.756   1.428   5.646
 8664TIP3    H125933   2.720   1.491   5.583
 8664TIP3    H225934   2.694   1.428   5.718
 8665TIP3   OH225935   4.721   4.407   1.334
 8665TIP3    H125936   4.722   4.319   1.371
 8665TIP3    H225937   4.753   4.464   1.405
 8666TIP3   OH225938   0.671   6.859   3.153
 8666TIP3    H125939   0.587   6.849   3.108
 8666TIP3    H225940   0.730   6.799   3.109
 8667TIP3   OH225941   2.203   2.798   0.751
 8667TIP3    H125942   2.138   2.844   0.805
 8667TIP3    H225943   2.159   2.718   0.724
 8668TIP3   OH225944   0.189   1.796   3.670
 8668TIP3    H125945   0.215   1.714   3.712
 8668TIP3    H225946   0.249   1.805   3.596
 8669TIP3   OH225947   5.142   3.805   1.363
 8669TIP3    H125948   5.067   3.840   1.410
 8669TIP3    H225949   5.218   3.832   1.415
 8670TIP3   OH225950   0.595   1.314   6.597
 8670TIP3    H125951   0.665   1.262   6.637
 8670TIP3    H225952   0.626   1.405   6.604
 8671TIP3   OH225953   7.190   1.482   5.546
 8671TIP3    H125954   7.120   1.459   5.607
 8671TIP3    H225955   7.169   1.571   5.517
 8672TIP3   OH225956   1.180   3.194   6.557
 8672TIP3    H125957   1.085   3.201   6.562
 8672TIP3    H225958   1.198   3.101   6.569
 8673TIP3   OH225959   1.014   5.062   3.511
 8673TIP3    H125960   0.975   4.975   3.524
 8673TIP3    H225961   0.941   5.123   3.522
 8674TIP3   OH225962   5.508   0.962   1.143
 8674TIP3    H125963   5.519   0.948   1.049
 8674TIP3    H225964   5.591   0.933   1.181
 8675TIP3   OH225965   5.888   6.486   4.251
 8675TIP3    H125966   5.903   6.536   4.171
 8675TIP3    H225967   5.917   6.397   4.231
 8676TIP3   OH225968   7.628   0.538   0.759
 8676TIP3    H125969   7.627   0.624   0.716
 8676TIP3    H225970   7.721   0.522   0.777
 8677TIP3   OH225971   0.906   3.821   5.437
 8677TIP3    H125972   0.945   3.871   5.366
 8677TIP3    H225973   0.934   3.866   5.517
 8678TIP3   OH225974   0.974   7.575   2.438
 8678TIP3    H125975   0.921   7.505   2.400
 8678TIP3    H225976   0.941   7.655   2.396
 8679TIP3   OH225977   1.057   0.786   0.543
 8679TIP3    H125978   1.131   0.841   0.568
 8679TIP3    H225979   0.993   0.848   0.508
 8680TIP3   OH225980   6.789   0.622   0.231
 8680TIP3    H125981   6.874   0.613   0.187
 8680TIP3    H225982   6.759   0.532   0.242
 8681TIP3   OH225983   7.818   1.469   4.626
 8681TIP3    H125984   7.739   1.515   4.597
 8681TIP3    H225985   7.881   1.484   4.556
 8682TIP3   OH225986   8.002   6.206   2.224
 8682TIP3    H125987   7.974   6.117   2.245
 8682TIP3    H225988   8.092   6.196   2.191
 8683TIP3   OH225989   6.078   7.510   1.330
 8683TIP3    H125990   6.001   7.563   1.351
 8683TIP3    H225991   6.063   7.479   1.241
 8684TIP3   OH225992   6.943   1.402   2.943
 8684TIP3    H125993   6.960   1.309   2.957
 8684TIP3    H225994   7.027   1.438   2.916
 8685TIP3   OH225995   7.615   3.292   4.000
 8685TIP3    H125996   7.698   3.248   3.986
 8685TIP3    H225997   7.550   3.234   3.960
 8686TIP3   OH225998   8.395   4.148   1.351
 8686TIP3    H125999   8.391   4.104   1.436
 8686TIP3    H226000   8.327   4.105   1.299
 8687TIP3   OH226001   2.314   4.755   2.717
 8687TIP3    H126002   2.253   4.695   2.675
 8687TIP3    H226003   2.400   4.716   2.703
 8688TIP3   OH226004   6.311   0.819   5.393
 8688TIP3    H126005   6.245   0.800   5.327
 8688TIP3    H226006   6.379   0.867   5.345
 8689TIP3   OH226007   6.041   6.846   5.145
 8689TIP3    H126008   5.987   6.782   5.099
 8689TIP3    H226009   6.020   6.930   5.104
 8690TIP3   OH226010   5.023   7.406   1.360
 8690TIP3    H126011   5.014   7.344   1.287
 8690TIP3    H226012   5.097   7.373   1.410
 8691TIP3   OH226013   4.421   4.222   1.080
 8691TIP3    H126014   4.488   4.195   1.017
 8691TIP3    H226015   4.386   4.140   1.115
 8692TIP3   OH226016   2.045   3.743   3.832
 8692TIP3    H126017   2.079   3.654   3.842
 8692TIP3    H226018   2.038   3.776   3.922
 8693TIP3   OH226019   5.572   5.010   0.799
 8693TIP3    H126020   5.509   4.979   0.864
 8693TIP3    H226021   5.579   4.938   0.737
 8694TIP3   OH226022   6.157   6.687   6.168
 8694TIP3    H126023   6.072   6.652   6.141
 8694TIP3    H226024   6.141   6.726   6.254
 8695TIP3   OH226025   5.001   7.581   3.725
 8695TIP3    H126026   5.036   7.532   3.651
 8695TIP3    H226027   5.001   7.672   3.696
 8696TIP3   OH226028   6.207   5.300   0.864
 8696TIP3    H126029   6.115   5.324   0.880
 8696TIP3    H226030   6.247   5.381   0.832
 8697TIP3   OH226031   2.834   1.177   2.531
 8697TIP3    H126032   2.911   1.130   2.498
 8697TIP3    H226033   2.763   1.112   2.526
 8698TIP3   OH226034   2.446   3.713   4.667
 8698TIP3    H126035   2.513   3.752   4.723
 8698TIP3    H226036   2.451   3.764   4.586
 8699TIP3   OH226037   3.697   0.704   2.384
 8699TIP3    H126038   3.778   0.725   2.337
 8699TIP3    H226039   3.676   0.785   2.431
 8700TIP3   OH226040   2.272   2.574   1.105
 8700TIP3    H126041   2.308   2.504   1.050
 8700TIP3    H226042   2.177   2.564   1.098
 8701TIP3   OH226043   7.383   4.579   1.003
 8701TIP3    H126044   7.287   4.570   1.008
 8701TIP3    H226045   7.399   4.603   0.912
 8702TIP3   OH226046   5.244   1.782   3.983
 8702TIP3    H126047   5.183   1.800   4.054
 8702TIP3    H226048   5.220   1.695   3.951
 8703TIP3   OH226049   6.238   1.327   4.404
 8703TIP3    H126050   6.171   1.306   4.468
 8703TIP3    H226051   6.294   1.392   4.447
 8704TIP3   OH226052   5.886   4.188   0.686
 8704TIP3    H126053   5.907   4.229   0.771
 8704TIP3    H226054   5.941   4.110   0.683
 8705TIP3   OH226055   8.230   5.354   0.287
 8705TIP3    H126056   8.201   5.388   0.202
 8705TIP3    H226057   8.239   5.432   0.342
 8706TIP3   OH226058   6.749   1.684   0.905
 8706TIP3    H126059   6.728   1.618   0.970
 8706TIP3    H226060   6.669   1.693   0.853
 8707TIP3   OH226061   7.704   7.140   4.892
 8707TIP3    H126062   7.635   7.079   4.866
 8707TIP3    H226063   7.676   7.173   4.977
 8708TIP3   OH226064   8.390   3.373   3.134
 8708TIP3    H126065   8.390   3.387   3.040
 8708TIP3    H226066   8.303   3.398   3.163
 8709TIP3   OH226067   2.512   2.367   6.624
 8709TIP3    H126068   2.571   2.300   6.658
 8709TIP3    H226069   2.427   2.324   6.617
 8710TIP3   OH226070   2.379   2.417   2.145
 8710TIP3    H126071   2.416   2.344   2.097
 8710TIP3    H226072   2.444   2.436   2.214
 8711TIP3   OH226073   2.020   3.157   4.128
 8711TIP3    H126074   2.058   3.202   4.203
 8711TIP3    H226075   1.931   3.191   4.122
 8712TIP3   OH226076   0.945   0.467   2.932
 8712TIP3    H126077   1.014   0.440   2.871
 8712TIP3    H226078   0.896   0.387   2.950
 8713TIP3   OH226079   7.845   3.627   5.214
 8713TIP3    H126080   7.876   3.651   5.301
 8713TIP3    H226081   7.922   3.592   5.169
 8714TIP3   OH226082   7.786   3.654   1.129
 8714TIP3    H126083   7.738   3.730   1.097
 8714TIP3    H226084   7.810   3.605   1.050
 8715TIP3   OH226085   5.674   2.252   4.683
 8715TIP3    H126086   5.685   2.310   4.608
 8715TIP3    H226087   5.582   2.260   4.706
 8716TIP3   OH226088   3.308   2.455   2.263
 8716TIP3    H126089   3.359   2.376   2.278
 8716TIP3    H226090   3.327   2.511   2.338
 8717TIP3   OH226091   3.933   0.070   0.314
 8717TIP3    H126092   3.976   0.141   0.363
 8717TIP3    H226093   3.870   0.116   0.257
 8718TIP3   OH226094   6.480   2.274   0.638
 8718TIP3    H126095   6.503   2.206   0.574
 8718TIP3    H226096   6.440   2.343   0.585
 8719TIP3   OH226097   3.461   7.250   0.175
 8719TIP3    H126098   3.431   7.159   0.180
 8719TIP3    H226099   3.380   7.301   0.178
 8720TIP3   OH226100   3.598   0.980   6.833
 8720TIP3    H126101   3.546   0.899   6.840
 8720TIP3    H226102   3.630   0.979   6.743
 8721TIP3   OH226103   7.956   2.544   6.131
 8721TIP3    H126104   7.996   2.578   6.211
 8721TIP3    H226105   8.018   2.568   6.062
 8722TIP3   OH226106   2.651   4.197   2.143
 8722TIP3    H126107   2.659   4.104   2.126
 8722TIP3    H226108   2.738   4.233   2.124
 8723TIP3   OH226109   5.396   1.489   0.356
 8723TIP3    H126110   5.445   1.568   0.335
 8723TIP3    H226111   5.432   1.459   0.439
 8724TIP3   OH226112   2.315   4.924   5.597
 8724TIP3    H126113   2.310   5.017   5.617
 8724TIP3    H226114   2.227   4.891   5.617
 8725TIP3   OH226115   2.058   1.580   5.636
 8725TIP3    H126116   2.106   1.602   5.556
 8725TIP3    H226117   1.989   1.521   5.607
 8726TIP3   OH226118   3.306   2.180   4.454
 8726TIP3    H126119   3.385   2.126   4.448
 8726TIP3    H226120   3.260   2.148   4.531
 8727TIP3   OH226121   3.375   4.763   3.951
 8727TIP3    H126122   3.349   4.839   3.899
 8727TIP3    H226123   3.461   4.740   3.916
 8728TIP3   OH226124   2.573   0.588   0.670
 8728TIP3    H126125   2.504   0.583   0.736
 8728TIP3    H226126   2.604   0.678   0.674
 8729TIP3   OH226127   8.036   4.371   5.392
 8729TIP3    H126128   8.009   4.458   5.419
 8729TIP3    H226129   8.058   4.380   5.299
 8730TIP3   OH226130   3.929   7.591   0.661
 8730TIP3    H126131   3.971   7.627   0.740
 8730TIP3    H226132   4.002   7.559   0.608
 8731TIP3   OH226133   5.186   3.633   6.105
 8731TIP3    H126134   5.092   3.617   6.098
 8731TIP3    H226135   5.193   3.714   6.155
 8732TIP3   OH226136   7.047   1.886   1.848
 8732TIP3    H126137   7.067   1.929   1.931
 8732TIP3    H226138   7.102   1.933   1.784
 8733TIP3   OH226139   3.582   4.586   1.700
 8733TIP3    H126140   3.520   4.655   1.722
 8733TIP3    H226141   3.667   4.630   1.694
 8734TIP3   OH226142   0.003   1.580   0.290
 8734TIP3    H126143   0.014   1.618   0.378
 8734TIP3    H226144  -0.002   1.655   0.232
 8735TIP3   OH226145   2.231   1.944   0.792
 8735TIP3    H126146   2.314   1.954   0.839
 8735TIP3    H226147   2.247   1.871   0.733
 8736TIP3   OH226148   4.792   2.485   3.358
 8736TIP3    H126149   4.765   2.534   3.280
 8736TIP3    H226150   4.885   2.503   3.366
 8737TIP3   OH226151   2.137   6.399   5.552
 8737TIP3    H126152   2.063   6.441   5.507
 8737TIP3    H226153   2.114   6.306   5.554
 8738TIP3   OH226154   5.035   3.837   5.501
 8738TIP3    H126155   4.984   3.887   5.437
 8738TIP3    H226156   4.973   3.819   5.572
 8739TIP3   OH226157   0.574   7.137   0.150
 8739TIP3    H126158   0.541   7.054   0.117
 8739TIP3    H226159   0.590   7.122   0.243
 8740TIP3   OH226160   1.270   0.170   2.788
 8740TIP3    H126161   1.183   0.130   2.787
 8740TIP3    H226162   1.259   0.251   2.838
 8741TIP3   OH226163   3.627   1.885   1.421
 8741TIP3    H126164   3.607   1.856   1.510
 8741TIP3    H226165   3.559   1.950   1.401
 8742TIP3   OH226166   4.383   3.971   4.779
 8742TIP3    H126167   4.306   4.024   4.796
 8742TIP3    H226168   4.390   3.912   4.854
 8743TIP3   OH226169   4.948   2.787   3.571
 8743TIP3    H126170   4.893   2.850   3.618
 8743TIP3    H226171   4.948   2.818   3.481
 8744TIP3   OH226172   8.111   7.628   1.728
 8744TIP3    H126173   8.090   7.556   1.788
 8744TIP3    H226174   8.201   7.612   1.701
 8745TIP3   OH226175   3.473   1.567   6.280
 8745TIP3    H126176   3.441   1.540   6.194
 8745TIP3    H226177   3.398   1.610   6.321
 8746TIP3   OH226178   6.873   2.375   1.860
 8746TIP3    H126179   6.846   2.380   1.952
 8746TIP3    H226180   6.841   2.289   1.830
 8747TIP3   OH226181   3.364   6.191   3.705
 8747TIP3    H126182   3.404   6.258   3.760
 8747TIP3    H226183   3.270   6.208   3.710
 8748TIP3   OH226184   0.990   0.774   4.266
 8748TIP3    H126185   0.950   0.713   4.204
 8748TIP3    H226186   0.993   0.727   4.349
 8749TIP3   OH226187   6.987   6.088   6.776
 8749TIP3    H126188   7.060   6.129   6.729
 8749TIP3    H226189   7.014   6.091   6.868
 8750TIP3   OH226190   8.037   0.510   6.646
 8750TIP3    H126191   8.087   0.590   6.660
 8750TIP3    H226192   8.078   0.469   6.570
 8751TIP3   OH226193   7.055   1.186   2.645
 8751TIP3    H126194   6.965   1.153   2.641
 8751TIP3    H226195   7.047   1.279   2.623
 8752TIP3   OH226196   4.090   6.730   1.717
 8752TIP3    H126197   4.169   6.746   1.666
 8752TIP3    H226198   4.018   6.736   1.654
 8753TIP3   OH226199   1.194   1.609   6.392
 8753TIP3    H126200   1.178   1.627   6.300
 8753TIP3    H226201   1.275   1.558   6.394
 8754TIP3   OH226202   5.125   5.049   5.096
 8754TIP3    H126203   5.133   4.957   5.120
 8754TIP3    H226204   5.102   5.094   5.178
 8755TIP3   OH226205   2.376   3.974   6.167
 8755TIP3    H126206   2.400   4.018   6.249
 8755TIP3    H226207   2.368   4.046   6.104
 8756TIP3   OH226208   1.086   2.603   1.454
 8756TIP3    H126209   1.091   2.563   1.367
 8756TIP3    H226210   1.097   2.697   1.438
 8757TIP3   OH226211   1.882   5.770   0.319
 8757TIP3    H126212   1.917   5.849   0.360
 8757TIP3    H226213   1.821   5.734   0.383
 8758TIP3   OH226214   0.150   1.951   2.485
 8758TIP3    H126215   0.219   1.965   2.549
 8758TIP3    H226216   0.191   1.899   2.416
 8759TIP3   OH226217   7.511   2.826   2.905
 8759TIP3    H126218   7.595   2.858   2.873
 8759TIP3    H226219   7.458   2.816   2.825
 8760TIP3   OH226220   6.719   5.664   2.690
 8760TIP3    H126221   6.706   5.759   2.702
 8760TIP3    H226222   6.813   5.654   2.677
 8761TIP3   OH226223   2.876   5.088   5.044
 8761TIP3    H126224   2.952   5.133   5.009
 8761TIP3    H226225   2.826   5.156   5.090
 8762TIP3   OH226226   5.349   5.781   1.802
 8762TIP3    H126227   5.403   5.708   1.772
 8762TIP3    H226228   5.260   5.756   1.779
 8763TIP3   OH226229   8.136   2.013   6.600
 8763TIP3    H126230   8.090   2.082   6.552
 8763TIP3    H226231   8.067   1.969   6.650
 8764TIP3   OH226232   2.485   5.598   5.839
 8764TIP3    H126233   2.410   5.553   5.799
 8764TIP3    H226234   2.461   5.608   5.931
 8765TIP3   OH226235   0.648   0.576   5.670
 8765TIP3    H126236   0.577   0.511   5.671
 8765TIP3    H226237   0.608   0.655   5.635
 8766TIP3   OH226238   5.317   1.042   2.802
 8766TIP3    H126239   5.371   1.077   2.732
 8766TIP3    H226240   5.235   1.017   2.759
 8767TIP3   OH226241   8.102   1.760   2.666
 8767TIP3    H126242   8.074   1.774   2.757
 8767TIP3    H226243   8.191   1.726   2.673
 8768TIP3   OH226244   6.157   6.448   2.449
 8768TIP3    H126245   6.072   6.432   2.489
 8768TIP3    H226246   6.141   6.441   2.355
 8769TIP3   OH226247   6.049   4.854   0.012
 8769TIP3    H126248   6.063   4.919  -0.056
 8769TIP3    H226249   6.077   4.898   0.093
 8770TIP3   OH226250   3.198   0.415   4.246
 8770TIP3    H126251   3.272   0.361   4.217
 8770TIP3    H226252   3.199   0.408   4.341
 8771TIP3   OH226253   1.733   1.128   1.955
 8771TIP3    H126254   1.759   1.125   2.048
 8771TIP3    H226255   1.781   1.056   1.915
 8772TIP3   OH226256   2.321   1.604   0.365
 8772TIP3    H126257   2.331   1.565   0.453
 8772TIP3    H226258   2.295   1.530   0.310
 8773TIP3   OH226259   1.550   6.964   0.295
 8773TIP3    H126260   1.604   6.885   0.304
 8773TIP3    H226261   1.507   6.973   0.380
 8774TIP3   OH226262   6.172   5.049   3.138
 8774TIP3    H126263   6.175   5.114   3.068
 8774TIP3    H226264   6.220   4.974   3.103
 8775TIP3   OH226265   2.309   5.765   6.236
 8775TIP3    H126266   2.286   5.674   6.255
 8775TIP3    H226267   2.226   5.806   6.211
 8776TIP3   OH226268   5.233   1.898   4.340
 8776TIP3    H126269   5.277   1.880   4.423
 8776TIP3    H226270   5.173   1.824   4.329
 8777TIP3   OH226271   2.214   1.520   0.977
 8777TIP3    H126272   2.255   1.604   0.958
 8777TIP3    H226273   2.149   1.540   1.045
 8778TIP3   OH226274   0.570   5.674   2.818
 8778TIP3    H126275   0.640   5.642   2.761
 8778TIP3    H226276   0.601   5.656   2.906
 8779TIP3   OH226277   1.620   2.079   2.815
 8779TIP3    H126278   1.548   2.127   2.774
 8779TIP3    H226279   1.698   2.132   2.797
 8780TIP3   OH226280   2.006   5.123   2.628
 8780TIP3    H126281   2.033   5.032   2.633
 8780TIP3    H226282   2.055   5.167   2.699
 8781TIP3   OH226283   5.728   5.183   2.612
 8781TIP3    H126284   5.807   5.198   2.561
 8781TIP3    H226285   5.760   5.153   2.697
 8782TIP3   OH226286   0.355   7.764   0.286
 8782TIP3    H126287   0.399   7.844   0.313
 8782TIP3    H226288   0.321   7.726   0.367
 8783TIP3   OH226289   3.056   1.932   6.065
 8783TIP3    H126290   3.147   1.903   6.073
 8783TIP3    H226291   3.052   1.976   5.981
 8784TIP3   OH226292   5.779   1.784   5.568
 8784TIP3    H126293   5.794   1.873   5.599
 8784TIP3    H226294   5.824   1.781   5.483
 8785TIP3   OH226295   3.559   5.635   0.491
 8785TIP3    H126296   3.471   5.622   0.526
 8785TIP3    H226297   3.561   5.726   0.462
 8786TIP3   OH226298   2.806   2.703   3.405
 8786TIP3    H126299   2.778   2.662   3.323
 8786TIP3    H226300   2.730   2.755   3.433
 8787TIP3   OH226301   8.358   2.756   4.653
 8787TIP3    H126302   8.370   2.697   4.728
 8787TIP3    H226303   8.353   2.843   4.692
 8788TIP3   OH226304   3.164   7.394   5.558
 8788TIP3    H126305   3.183   7.305   5.585
 8788TIP3    H226306   3.166   7.391   5.463
 8789TIP3   OH226307   2.429   6.331   0.389
 8789TIP3    H126308   2.347   6.380   0.381
 8789TIP3    H226309   2.401   6.239   0.387
 8790TIP3   OH226310   5.569   0.058   5.885
 8790TIP3    H126311   5.587   0.011   5.804
 8790TIP3    H226312   5.549  -0.010   5.949
 8791TIP3   OH226313   5.875   0.073   0.795
 8791TIP3    H126314   5.866   0.031   0.881
 8791TIP3    H226315   5.867   0.167   0.814
 8792TIP3   OH226316   1.616   5.119   5.087
 8792TIP3    H126317   1.617   5.169   5.169
 8792TIP3    H226318   1.542   5.059   5.098
 8793TIP3   OH226319   2.615   5.073   0.659
 8793TIP3    H126320   2.602   4.979   0.648
 8793TIP3    H226321   2.659   5.081   0.744
 8794TIP3   OH226322   8.251   1.568   1.105
 8794TIP3    H126323   8.320   1.624   1.070
 8794TIP3    H226324   8.178   1.577   1.043
 8795TIP3   OH226325   2.466   5.572   2.110
 8795TIP3    H126326   2.557   5.545   2.101
 8795TIP3    H226327   2.453   5.582   2.204
 8796TIP3   OH226328   1.320   6.384   5.040
 8796TIP3    H126329   1.373   6.446   5.091
 8796TIP3    H226330   1.240   6.373   5.091
 8797TIP3   OH226331   7.912   2.573   0.780
 8797TIP3    H126332   7.820   2.551   0.792
 8797TIP3    H226333   7.953   2.555   0.864
 8798TIP3   OH226334   1.658   5.630   0.422
 8798TIP3    H126335   1.598   5.684   0.473
 8798TIP3    H226336   1.600   5.573   0.370
 8799TIP3   OH226337   3.497   5.224   4.621
 8799TIP3    H126338   3.486   5.141   4.668
 8799TIP3    H226339   3.541   5.281   4.684
 8800TIP3   OH226340   2.547   7.036   1.869
 8800TIP3    H126341   2.513   7.057   1.956
 8800TIP3    H226342   2.473   7.048   1.811
 8801TIP3   OH226343   6.470   7.338   3.703
 8801TIP3    H126344   6.501   7.317   3.791
 8801TIP3    H226345   6.385   7.379   3.716
 8802TIP3   OH226346   7.844   0.437   1.672
 8802TIP3    H126347   7.911   0.438   1.603
 8802TIP3    H226348   7.815   0.528   1.678
 8803TIP3   OH226349   6.854   6.923   5.093
 8803TIP3    H126350   6.948   6.921   5.107
 8803TIP3    H226351   6.834   7.014   5.074
 8804TIP3   OH226352   1.905   1.444   2.565
 8804TIP3    H126353   1.859   1.528   2.563
 8804TIP3    H226354   1.925   1.430   2.657
 8805TIP3   OH226355   7.612   3.977   4.214
 8805TIP3    H126356   7.598   3.891   4.254
 8805TIP3    H226357   7.623   4.036   4.288
 8806TIP3   OH226358   5.289   5.708   4.845
 8806TIP3    H126359   5.222   5.703   4.913
 8806TIP3    H226360   5.343   5.783   4.869
 8807TIP3   OH226361   0.298   3.504   2.522
 8807TIP3    H126362   0.299   3.448   2.444
 8807TIP3    H226363   0.361   3.462   2.582
 8808TIP3   OH226364   1.606   0.614   1.657
 8808TIP3    H126365   1.515   0.613   1.686
 8808TIP3    H226366   1.653   0.565   1.724
 8809TIP3   OH226367   4.104   2.304   1.960
 8809TIP3    H126368   4.018   2.261   1.960
 8809TIP3    H226369   4.140   2.287   1.873
 8810TIP3   OH226370   6.392   3.146   5.122
 8810TIP3    H126371   6.477   3.117   5.089
 8810TIP3    H226372   6.346   3.065   5.143
 8811TIP3   OH226373   5.029   5.437   6.093
 8811TIP3    H126374   4.953   5.379   6.088
 8811TIP3    H226375   5.095   5.395   6.038
 8812TIP3   OH226376   2.097   2.133   1.479
 8812TIP3    H126377   2.014   2.171   1.508
 8812TIP3    H226378   2.072   2.050   1.439
 8813TIP3   OH226379   6.635   4.688   2.056
 8813TIP3    H126380   6.628   4.598   2.024
 8813TIP3    H226381   6.576   4.692   2.131
 8814TIP3   OH226382   1.676   3.012   1.620
 8814TIP3    H126383   1.696   2.923   1.588
 8814TIP3    H226384   1.712   3.014   1.708
 8815TIP3   OH226385   0.182   7.379   5.113
 8815TIP3    H126386   0.094   7.373   5.150
 8815TIP3    H226387   0.238   7.336   5.177
 8816TIP3   OH226388   3.223   2.256   5.996
 8816TIP3    H126389   3.240   2.176   5.946
 8816TIP3    H226390   3.306   2.277   6.038
 8817TIP3   OH226391   2.053   5.432   1.751
 8817TIP3    H126392   1.974   5.390   1.783
 8817TIP3    H226393   2.111   5.435   1.828
 8818TIP3   OH226394   0.557   6.529   5.013
 8818TIP3    H126395   0.612   6.530   5.091
 8818TIP3    H226396   0.547   6.621   4.989
 8819TIP3   OH226397   1.233   3.760   6.173
 8819TIP3    H126398   1.222   3.812   6.253
 8819TIP3    H226399   1.275   3.680   6.202
 8820TIP3   OH226400   1.960   5.201   4.454
 8820TIP3    H126401   1.969   5.186   4.360
 8820TIP3    H226402   1.911   5.125   4.487
 8821TIP3   OH226403   3.113   6.725   6.298
 8821TIP3    H126404   3.034   6.732   6.352
 8821TIP3    H226405   3.178   6.777   6.346
 8822TIP3   OH226406   4.923   4.837   2.419
 8822TIP3    H126407   4.873   4.870   2.493
 8822TIP3    H226408   5.000   4.796   2.458
 8823TIP3   OH226409   7.842   0.711   0.937
 8823TIP3    H126410   7.896   0.678   0.865
 8823TIP3    H226411   7.784   0.775   0.896
 8824TIP3   OH226412   2.780   7.594   0.273
 8824TIP3    H126413   2.791   7.624   0.183
 8824TIP3    H226414   2.841   7.520   0.281
 8825TIP3   OH226415   1.239   7.730   1.052
 8825TIP3    H126416   1.247   7.744   0.957
 8825TIP3    H226417   1.328   7.740   1.085
 8826TIP3   OH226418   2.097   2.538   6.055
 8826TIP3    H126419   2.076   2.601   5.986
 8826TIP3    H226420   2.125   2.592   6.129
 8827TIP3   OH226421   5.482   6.743   5.991
 8827TIP3    H126422   5.464   6.651   5.972
 8827TIP3    H226423   5.511   6.743   6.082
 8828TIP3   OH226424   6.243   6.191   1.051
 8828TIP3    H126425   6.180   6.229   1.113
 8828TIP3    H226426   6.290   6.266   1.016
 8829TIP3   OH226427   6.023   2.184   2.823
 8829TIP3    H126428   6.068   2.166   2.905
 8829TIP3    H226429   6.018   2.280   2.818
 8830TIP3   OH226430   7.334   0.107   3.505
 8830TIP3    H126431   7.409   0.065   3.548
 8830TIP3    H226432   7.271   0.036   3.492
 8831TIP3   OH226433   1.139   3.732   1.198
 8831TIP3    H126434   1.098   3.721   1.284
 8831TIP3    H226435   1.121   3.824   1.175
 8832TIP3   OH226436   5.314   4.038   5.991
 8832TIP3    H126437   5.379   4.095   5.950
 8832TIP3    H226438   5.334   3.950   5.959
 8833TIP3   OH226439   0.515   5.686   4.365
 8833TIP3    H126440   0.468   5.623   4.310
 8833TIP3    H226441   0.599   5.699   4.321
 8834TIP3   OH226442   4.288   3.761   5.689
 8834TIP3    H126443   4.260   3.743   5.599
 8834TIP3    H226444   4.308   3.675   5.726
 8835TIP3   OH226445   4.447   5.311   1.993
 8835TIP3    H126446   4.426   5.223   2.025
 8835TIP3    H226447   4.363   5.345   1.960
 8836TIP3   OH226448   0.237   6.904   6.607
 8836TIP3    H126449   0.159   6.959   6.616
 8836TIP3    H226450   0.228   6.839   6.677
 8837TIP3   OH226451   4.784   7.270   3.639
 8837TIP3    H126452   4.835   7.258   3.719
 8837TIP3    H226453   4.715   7.331   3.663
 8838TIP3   OH226454   5.476   1.218   4.359
 8838TIP3    H126455   5.452   1.141   4.412
 8838TIP3    H226456   5.550   1.188   4.307
 8839TIP3   OH226457   5.143   1.585   4.426
 8839TIP3    H126458   5.227   1.559   4.387
 8839TIP3    H226459   5.115   1.508   4.475
 8840TIP3   OH226460   1.061   2.936   0.717
 8840TIP3    H126461   1.084   2.865   0.657
 8840TIP3    H226462   0.994   2.899   0.774
 8841TIP3   OH226463   0.337   3.231   6.675
 8841TIP3    H126464   0.420   3.254   6.635
 8841TIP3    H226465   0.312   3.148   6.635
 8842TIP3   OH226466   3.868   7.193   5.241
 8842TIP3    H126467   3.898   7.244   5.165
 8842TIP3    H226468   3.948   7.175   5.291
 8843TIP3   OH226469   7.653   3.212   0.647
 8843TIP3    H126470   7.590   3.165   0.593
 8843TIP3    H226471   7.694   3.144   0.701
 8844TIP3   OH226472   7.819   6.912   5.940
 8844TIP3    H126473   7.849   6.873   6.022
 8844TIP3    H226474   7.771   6.842   5.896
 8845TIP3   OH226475   0.192   3.494   0.885
 8845TIP3    H126476   0.146   3.459   0.962
 8845TIP3    H226477   0.123   3.529   0.829
 8846TIP3   OH226478   5.961   4.589   0.712
 8846TIP3    H126479   6.035   4.625   0.664
 8846TIP3    H226480   5.902   4.555   0.644
 8847TIP3   OH226481   6.153   0.499   2.982
 8847TIP3    H126482   6.173   0.447   3.060
 8847TIP3    H226483   6.203   0.457   2.912
 8848TIP3   OH226484   5.166   7.192   2.289
 8848TIP3    H126485   5.147   7.196   2.195
 8848TIP3    H226486   5.262   7.194   2.293
 8849TIP3   OH226487   3.892   1.831   5.092
 8849TIP3    H126488   3.936   1.908   5.128
 8849TIP3    H226489   3.928   1.821   5.004
 8850TIP3   OH226490   2.475   6.879   5.915
 8850TIP3    H126491   2.561   6.903   5.949
 8850TIP3    H226492   2.413   6.922   5.974
 8851TIP3   OH226493   3.362   1.027   4.745
 8851TIP3    H126494   3.291   1.027   4.809
 8851TIP3    H226495   3.409   0.945   4.760
 8852TIP3   OH226496   2.191   0.396   1.334
 8852TIP3    H126497   2.274   0.376   1.291
 8852TIP3    H226498   2.200   0.361   1.422
 8853TIP3   OH226499   8.020   0.938   5.474
 8853TIP3    H126500   8.035   1.008   5.411
 8853TIP3    H226501   8.103   0.891   5.480
 8854TIP3   OH226502   8.224   0.746   6.521
 8854TIP3    H126503   8.292   0.801   6.483
 8854TIP3    H226504   8.259   0.657   6.513
 8855TIP3   OH226505   6.047   4.660   2.698
 8855TIP3    H126506   5.969   4.609   2.674
 8855TIP3    H226507   6.053   4.651   2.793
 8856TIP3   OH226508   7.219   2.237   6.485
 8856TIP3    H126509   7.144   2.182   6.505
 8856TIP3    H226510   7.290   2.176   6.466
 8857TIP3   OH226511   0.547   4.099   2.760
 8857TIP3    H126512   0.554   4.004   2.750
 8857TIP3    H226513   0.631   4.126   2.797
 8858TIP3   OH226514   1.490   2.783   4.637
 8858TIP3    H126515   1.492   2.876   4.614
 8858TIP3    H226516   1.581   2.755   4.632
 8859TIP3   OH226517   1.089   1.468   0.552
 8859TIP3    H126518   1.076   1.561   0.571
 8859TIP3    H226519   1.178   1.463   0.518
 8860TIP3   OH226520   3.796   3.073   0.607
 8860TIP3    H126521   3.812   3.163   0.576
 8860TIP3    H226522   3.797   3.020   0.527
 8861TIP3   OH226523   3.378   2.628   5.749
 8861TIP3    H126524   3.337   2.706   5.710
 8861TIP3    H226525   3.419   2.661   5.830
 8862TIP3   OH226526   8.243   5.460   5.601
 8862TIP3    H126527   8.201   5.538   5.637
 8862TIP3    H226528   8.208   5.453   5.512
 8863TIP3   OH226529   2.166   4.805   4.999
 8863TIP3    H126530   2.252   4.846   4.987
 8863TIP3    H226531   2.145   4.819   5.091
 8864TIP3   OH226532   4.325   1.580   5.623
 8864TIP3    H126533   4.382   1.507   5.647
 8864TIP3    H226534   4.361   1.655   5.670
 8865TIP3   OH226535   6.259   0.643   0.013
 8865TIP3    H126536   6.281   0.648   0.106
 8865TIP3    H226537   6.186   0.580   0.009
 8866TIP3   OH226538   0.012   1.683   5.812
 8866TIP3    H126539   0.072   1.756   5.825
 8866TIP3    H226540  -0.022   1.664   5.899
 8867TIP3   OH226541   6.720   7.094   0.749
 8867TIP3    H126542   6.656   7.024   0.759
 8867TIP3    H226543   6.787   7.058   0.691
 8868TIP3   OH226544   8.186   1.594   4.659
 8868TIP3    H126545   8.105   1.552   4.631
 8868TIP3    H226546   8.172   1.612   4.752
 8869TIP3   OH226547   8.191   4.990   1.943
 8869TIP3    H126548   8.147   5.040   2.012
 8869TIP3    H226549   8.274   4.965   1.981
 8870TIP3   OH226550   3.026   0.838   1.059
 8870TIP3    H126551   2.970   0.865   1.132
 8870TIP3    H226552   2.994   0.888   0.984
 8871TIP3   OH226553   0.366   3.696   3.295
 8871TIP3    H126554   0.289   3.640   3.296
 8871TIP3    H226555   0.355   3.752   3.219
 8872TIP3   OH226556   2.597   5.691   4.595
 8872TIP3    H126557   2.609   5.596   4.604
 8872TIP3    H226558   2.657   5.729   4.659
 8873TIP3   OH226559   2.495   1.731   1.983
 8873TIP3    H126560   2.414   1.710   1.936
 8873TIP3    H226561   2.539   1.647   1.992
 8874TIP3   OH226562   2.646   1.288   5.152
 8874TIP3    H126563   2.596   1.265   5.074
 8874TIP3    H226564   2.590   1.262   5.225
 8875TIP3   OH226565   0.405   6.736   2.344
 8875TIP3    H126566   0.418   6.641   2.351
 8875TIP3    H226567   0.477   6.773   2.396
 8876TIP3   OH226568   6.232   0.837   2.411
 8876TIP3    H126569   6.170   0.903   2.380
 8876TIP3    H226570   6.304   0.888   2.449
 8877TIP3   OH226571   7.917   3.753   3.748
 8877TIP3    H126572   7.876   3.666   3.744
 8877TIP3    H226573   8.008   3.738   3.724
 8878TIP3   OH226574   7.279   6.737   2.155
 8878TIP3    H126575   7.282   6.830   2.177
 8878TIP3    H226576   7.366   6.716   2.123
 8879TIP3   OH226577   6.346   1.520   1.967
 8879TIP3    H126578   6.332   1.579   1.893
 8879TIP3    H226579   6.354   1.433   1.927
 8880TIP3   OH226580   0.396   1.628   5.241
 8880TIP3    H126581   0.374   1.720   5.225
 8880TIP3    H226582   0.473   1.632   5.298
 8881TIP3   OH226583   1.352   7.753   2.206
 8881TIP3    H126584   1.302   7.833   2.189
 8881TIP3    H226585   1.419   7.780   2.269
 8882TIP3   OH226586   7.410   1.829   5.776
 8882TIP3    H126587   7.318   1.854   5.788
 8882TIP3    H226588   7.427   1.764   5.844
 8883TIP3   OH226589   1.878   7.712   0.452
 8883TIP3    H126590   1.940   7.641   0.439
 8883TIP3    H226591   1.868   7.752   0.366
 8884TIP3   OH226592   4.958   5.441   4.246
 8884TIP3    H126593   4.985   5.360   4.204
 8884TIP3    H226594   4.866   5.450   4.223
 8885TIP3   OH226595   5.883   4.422   2.947
 8885TIP3    H126596   5.914   4.338   2.982
 8885TIP3    H226597   5.807   4.398   2.893
 8886TIP3   OH226598   0.679   3.397   3.083
 8886TIP3    H126599   0.748   3.401   3.150
 8886TIP3    H226600   0.620   3.469   3.106
 8887TIP3   OH226601   1.955   5.761   5.518
 8887TIP3    H126602   1.972   5.798   5.431
 8887TIP3    H226603   2.039   5.768   5.564
 8888TIP3   OH226604   2.552   5.504   0.427
 8888TIP3    H126605   2.554   5.576   0.490
 8888TIP3    H226606   2.630   5.452   0.448
 8889TIP3   OH226607   0.657   2.374   2.850
 8889TIP3    H126608   0.703   2.436   2.907
 8889TIP3    H226609   0.579   2.420   2.821
 8890TIP3   OH226610   6.296   0.666   1.215
 8890TIP3    H126611   6.260   0.668   1.304
 8890TIP3    H226612   6.222   0.686   1.158
 8891TIP3   OH226613   0.344   7.760   1.049
 8891TIP3    H126614   0.249   7.756   1.057
 8891TIP3    H226615   0.360   7.761   0.954
 8892TIP3   OH226616   4.833   0.408   5.973
 8892TIP3    H126617   4.813   0.450   6.057
 8892TIP3    H226618   4.922   0.436   5.953
 8893TIP3   OH226619   4.451   0.930   3.053
 8893TIP3    H126620   4.475   0.848   3.097
 8893TIP3    H226621   4.449   0.995   3.123
 8894TIP3   OH226622   0.717   7.755   0.238
 8894TIP3    H126623   0.791   7.767   0.178
 8894TIP3    H226624   0.694   7.663   0.230
 8895TIP3   OH226625   4.482   6.987   2.832
 8895TIP3    H126626   4.563   7.037   2.844
 8895TIP3    H226627   4.482   6.923   2.903
 8896TIP3   OH226628   4.400   5.743   3.598
 8896TIP3    H126629   4.416   5.835   3.574
 8896TIP3    H226630   4.358   5.706   3.521
 8897TIP3   OH226631   5.250   7.540   2.455
 8897TIP3    H126632   5.296   7.476   2.400
 8897TIP3    H226633   5.181   7.489   2.497
 8898TIP3   OH226634   7.441   4.791   4.829
 8898TIP3    H126635   7.389   4.756   4.902
 8898TIP3    H226636   7.380   4.846   4.780
 8899TIP3   OH226637   8.285   3.452   3.759
 8899TIP3    H126638   8.370   3.415   3.782
 8899TIP3    H226639   8.225   3.378   3.761
 8900TIP3   OH226640   7.351   3.451   4.772
 8900TIP3    H126641   7.443   3.477   4.780
 8900TIP3    H226642   7.347   3.365   4.814
 8901TIP3   OH226643   3.693   2.653   1.360
 8901TIP3    H126644   3.636   2.611   1.296
 8901TIP3    H226645   3.781   2.642   1.325
 8902TIP3   OH226646   6.682   6.846   2.249
 8902TIP3    H126647   6.676   6.829   2.155
 8902TIP3    H226648   6.728   6.929   2.256
 8903TIP3   OH226649   5.044   7.126   6.263
 8903TIP3    H126650   5.039   7.066   6.338
 8903TIP3    H226651   5.129   7.107   6.223
 8904TIP3   OH226652   3.256   2.644   1.039
 8904TIP3    H126653   3.320   2.616   0.973
 8904TIP3    H226654   3.256   2.740   1.032
 8905TIP3   OH226655   4.473   3.299   5.057
 8905TIP3    H126656   4.528   3.361   5.103
 8905TIP3    H226657   4.513   3.289   4.970
 8906TIP3   OH226658   8.173   3.000   3.639
 8906TIP3    H126659   8.158   3.038   3.726
 8906TIP3    H226660   8.185   3.075   3.582
 8907TIP3   OH226661   2.723   1.838   4.072
 8907TIP3    H126662   2.813   1.867   4.082
 8907TIP3    H226663   2.676   1.915   4.040
 8908TIP3   OH226664   4.636   7.769   3.675
 8908TIP3    H126665   4.682   7.734   3.598
 8908TIP3    H226666   4.646   7.701   3.741
 8909TIP3   OH226667   4.221   3.926   3.733
 8909TIP3    H126668   4.177   3.852   3.776
 8909TIP3    H226669   4.152   3.992   3.723
 8910TIP3   OH226670   6.579   7.524   5.968
 8910TIP3    H126671   6.629   7.589   6.018
 8910TIP3    H226672   6.556   7.569   5.887
 8911TIP3   OH226673   1.750   1.415   2.198
 8911TIP3    H126674   1.669   1.383   2.237
 8911TIP3    H226675   1.819   1.363   2.240
 8912TIP3   OH226676   8.010   0.030   6.719
 8912TIP3    H126677   8.028  -0.020   6.639
 8912TIP3    H226678   7.917   0.014   6.736
 8913TIP3   OH226679   1.715   7.117   6.574
 8913TIP3    H126680   1.716   7.076   6.488
 8913TIP3    H226681   1.625   7.147   6.586
 8914TIP3   OH226682   1.338   2.119   6.434
 8914TIP3    H126683   1.274   2.090   6.499
 8914TIP3    H226684   1.423   2.106   6.475
 8915TIP3   OH226685   6.829   7.778   6.467
 8915TIP3    H126686   6.878   7.830   6.403
 8915TIP3    H226687   6.818   7.693   6.425
 8916TIP3   OH226688   1.616   1.371   3.047
 8916TIP3    H126689   1.668   1.431   2.993
 8916TIP3    H226690   1.542   1.424   3.077
 8917TIP3   OH226691   3.339   2.274   2.841
 8917TIP3    H126692   3.329   2.367   2.822
 8917TIP3    H226693   3.250   2.243   2.858
 8918TIP3   OH226694   5.998   3.606   1.310
 8918TIP3    H126695   5.978   3.605   1.216
 8918TIP3    H226696   6.056   3.681   1.321
 8919TIP3   OH226697   3.019   7.843   5.983
 8919TIP3    H126698   2.988   7.765   5.938
 8919TIP3    H226699   3.114   7.844   5.970
 8920TIP3   OH226700   7.313   2.394   4.395
 8920TIP3    H126701   7.308   2.373   4.302
 8920TIP3    H226702   7.341   2.312   4.436
 8921TIP3   OH226703   2.016   2.763   0.292
 8921TIP3    H126704   2.107   2.782   0.314
 8921TIP3    H226705   2.014   2.762   0.197
 8922TIP3   OH226706   3.994   7.799   4.328
 8922TIP3    H126707   3.980   7.815   4.421
 8922TIP3    H226708   3.942   7.866   4.284
 8923TIP3   OH226709   7.609   5.163   4.745
 8923TIP3    H126710   7.550   5.141   4.817
 8923TIP3    H226711   7.675   5.219   4.785
 8924TIP3   OH226712   5.202   2.952   3.620
 8924TIP3    H126713   5.250   2.972   3.700
 8924TIP3    H226714   5.152   2.873   3.641
 8925TIP3   OH226715   5.476   7.042   1.336
 8925TIP3    H126716   5.382   7.042   1.315
 8925TIP3    H226717   5.482   6.998   1.421
 8926TIP3   OH226718   8.095   4.072   2.877
 8926TIP3    H126719   8.025   4.087   2.941
 8926TIP3    H226720   8.158   4.016   2.923
 8927TIP3   OH226721   0.190   4.071   5.040
 8927TIP3    H126722   0.135   4.101   4.967
 8927TIP3    H226723   0.129   4.063   5.114
 8928TIP3   OH226724   5.877   3.444   6.130
 8928TIP3    H126725   5.961   3.434   6.173
 8928TIP3    H226726   5.839   3.356   6.132
 8929TIP3   OH226727   0.405   0.863   0.739
 8929TIP3    H126728   0.440   0.950   0.758
 8929TIP3    H226729   0.422   0.812   0.818
 8930TIP3   OH226730   3.066   4.349   3.864
 8930TIP3    H126731   3.094   4.338   3.955
 8930TIP3    H226732   2.977   4.314   3.862
 8931TIP3   OH226733   4.010   4.112   2.907
 8931TIP3    H126734   4.065   4.034   2.901
 8931TIP3    H226735   3.943   4.100   2.840
 8932TIP3   OH226736   6.794   6.300   4.435
 8932TIP3    H126737   6.824   6.229   4.379
 8932TIP3    H226738   6.705   6.275   4.461
 8933TIP3   OH226739   4.089   6.077   5.521
 8933TIP3    H126740   4.151   6.144   5.492
 8933TIP3    H226741   4.003   6.114   5.501
 8934TIP3   OH226742   1.910   2.554   1.415
 8934TIP3    H126743   1.846   2.611   1.373
 8934TIP3    H226744   1.941   2.605   1.490
 8935TIP3   OH226745   0.682   3.103   0.928
 8935TIP3    H126746   0.642   3.166   0.868
 8935TIP3    H226747   0.668   3.140   1.015
 8936TIP3   OH226748   2.023   5.267   1.507
 8936TIP3    H126749   1.951   5.297   1.452
 8936TIP3    H226750   2.037   5.340   1.568
 8937TIP3   OH226751   6.112   1.900   3.524
 8937TIP3    H126752   6.088   1.957   3.597
 8937TIP3    H226753   6.034   1.848   3.507
 8938TIP3   OH226754   6.766   6.569   4.403
 8938TIP3    H126755   6.855   6.600   4.389
 8938TIP3    H226756   6.774   6.474   4.411
 8939TIP3   OH226757   0.722   3.218   1.277
 8939TIP3    H126758   0.751   3.145   1.332
 8939TIP3    H226759   0.751   3.296   1.324
 8940TIP3   OH226760   5.523   7.479   3.762
 8940TIP3    H126761   5.614   7.458   3.782
 8940TIP3    H226762   5.528   7.554   3.704
 8941TIP3   OH226763   5.081   2.021   1.021
 8941TIP3    H126764   5.048   1.931   1.025
 8941TIP3    H226765   5.159   2.015   0.965
 8942TIP3   OH226766   4.887   4.150   3.331
 8942TIP3    H126767   4.914   4.192   3.413
 8942TIP3    H226768   4.894   4.220   3.266
 8943TIP3   OH226769   3.307   5.866   2.444
 8943TIP3    H126770   3.329   5.811   2.368
 8943TIP3    H226771   3.367   5.941   2.437
 8944TIP3   OH226772   3.291   0.563   2.676
 8944TIP3    H126773   3.371   0.542   2.627
 8944TIP3    H226774   3.228   0.591   2.610
 8945TIP3   OH226775   8.330   6.146   6.059
 8945TIP3    H126776   8.310   6.229   6.100
 8945TIP3    H226777   8.341   6.084   6.131
 8946TIP3   OH226778   2.184   7.252   2.073
 8946TIP3    H126779   2.167   7.176   2.128
 8946TIP3    H226780   2.118   7.316   2.099
 8947TIP3   OH226781   1.254   4.031   0.438
 8947TIP3    H126782   1.238   4.101   0.501
 8947TIP3    H226783   1.242   3.951   0.488
 8948TIP3   OH226784   6.962   5.683   5.280
 8948TIP3    H126785   6.988   5.600   5.320
 8948TIP3    H226786   6.905   5.724   5.345
 8949TIP3   OH226787   2.669   3.376   0.848
 8949TIP3    H126788   2.651   3.321   0.925
 8949TIP3    H226789   2.695   3.314   0.780
 8950TIP3   OH226790   1.361   2.930   6.194
 8950TIP3    H126791   1.271   2.959   6.209
 8950TIP3    H226792   1.414   3.008   6.212
 8951TIP3   OH226793   3.646   7.563   1.805
 8951TIP3    H126794   3.599   7.565   1.889
 8951TIP3    H226795   3.690   7.478   1.805
 8952TIP3   OH226796   1.596   0.896   1.096
 8952TIP3    H126797   1.570   0.930   1.182
 8952TIP3    H226798   1.515   0.896   1.045
 8953TIP3   OH226799   0.918   6.962   2.558
 8953TIP3    H126800   0.945   7.054   2.563
 8953TIP3    H226801   0.977   6.924   2.494
 8954TIP3   OH226802   5.321   4.756   3.932
 8954TIP3    H126803   5.235   4.776   3.970
 8954TIP3    H226804   5.327   4.815   3.856
 8955TIP3   OH226805   6.967   7.543   4.265
 8955TIP3    H126806   7.000   7.508   4.182
 8955TIP3    H226807   6.996   7.480   4.331
 8956TIP3   OH226808   4.925   0.875   2.471
 8956TIP3    H126809   4.857   0.808   2.476
 8956TIP3    H226810   4.877   0.957   2.459
 8957TIP3   OH226811   3.309   5.763   5.755
 8957TIP3    H126812   3.224   5.791   5.722
 8957TIP3    H226813   3.317   5.672   5.728
 8958TIP3   OH226814   1.221   4.062   3.114
 8958TIP3    H126815   1.145   4.075   3.057
 8958TIP3    H226816   1.274   3.998   3.067
 8959TIP3   OH226817   0.971   4.867   4.873
 8959TIP3    H126818   0.989   4.773   4.881
 8959TIP3    H226819   0.880   4.876   4.902
 8960TIP3   OH226820   3.128   6.819   5.174
 8960TIP3    H126821   3.090   6.826   5.086
 8960TIP3    H226822   3.073   6.875   5.228
 8961TIP3   OH226823   8.057   3.814   2.079
 8961TIP3    H126824   8.017   3.736   2.119
 8961TIP3    H226825   8.149   3.809   2.107
 8962TIP3   OH226826   6.752   0.121   2.714
 8962TIP3    H126827   6.658   0.133   2.731
 8962TIP3    H226828   6.790   0.103   2.799
 8963TIP3   OH226829   8.119   6.768   0.370
 8963TIP3    H126830   8.029   6.741   0.386
 8963TIP3    H226831   8.156   6.780   0.457
 8964TIP3   OH226832   7.898   4.543   6.273
 8964TIP3    H126833   7.845   4.585   6.340
 8964TIP3    H226834   7.958   4.486   6.321
 8965TIP3   OH226835   7.237   4.107   0.600
 8965TIP3    H126836   7.215   4.158   0.523
 8965TIP3    H226837   7.283   4.168   0.658
 8966TIP3   OH226838   1.658   4.789   5.184
 8966TIP3    H126839   1.738   4.811   5.137
 8966TIP3    H226840   1.644   4.863   5.243
 8967TIP3   OH226841   1.114   2.870   6.787
 8967TIP3    H126842   1.063   2.790   6.790
 8967TIP3    H226843   1.150   2.874   6.698
 8968TIP3   OH226844   6.949   4.465   2.905
 8968TIP3    H126845   6.997   4.538   2.945
 8968TIP3    H226846   7.007   4.435   2.835
 8969TIP3   OH226847   6.355   7.820   1.649
 8969TIP3    H126848   6.331   7.730   1.626
 8969TIP3    H226849   6.272   7.865   1.661
 8970TIP3   OH226850   5.259   1.335   6.798
 8970TIP3    H126851   5.306   1.402   6.848
 8970TIP3    H226852   5.272   1.254   6.849
 8971TIP3   OH226853   5.271   6.509   2.208
 8971TIP3    H126854   5.233   6.597   2.201
 8971TIP3    H226855   5.227   6.459   2.140
 8972TIP3   OH226856   3.970   1.692   4.857
 8972TIP3    H126857   3.991   1.687   4.764
 8972TIP3    H226858   4.039   1.641   4.900
 8973TIP3   OH226859   3.340   1.071   0.792
 8973TIP3    H126860   3.372   1.115   0.871
 8973TIP3    H226861   3.282   1.135   0.751
 8974TIP3   OH226862   2.429   0.006   0.707
 8974TIP3    H126863   2.341   0.041   0.695
 8974TIP3    H226864   2.432  -0.022   0.798
 8975TIP3   OH226865   3.697   4.910   5.366
 8975TIP3    H126866   3.614   4.947   5.398
 8975TIP3    H226867   3.756   4.914   5.441
 8976TIP3   OH226868   0.304   1.943   1.603
 8976TIP3    H126869   0.291   1.859   1.560
 8976TIP3    H226870   0.318   2.005   1.531
 8977TIP3   OH226871   3.393   0.848   3.919
 8977TIP3    H126872   3.299   0.849   3.932
 8977TIP3    H226873   3.425   0.781   3.979
 8978TIP3   OH226874   2.568   3.121   0.069
 8978TIP3    H126875   2.593   3.212   0.053
 8978TIP3    H226876   2.590   3.106   0.161
 8979TIP3   OH226877   5.134   5.755   2.704
 8979TIP3    H126878   5.182   5.688   2.753
 8979TIP3    H226879   5.048   5.717   2.690
 8980TIP3   OH226880   5.863   1.392   6.380
 8980TIP3    H126881   5.940   1.341   6.406
 8980TIP3    H226882   5.898   1.479   6.359
 8981TIP3   OH226883   0.081   1.529   4.001
 8981TIP3    H126884   0.092   1.438   3.976
 8981TIP3    H226885   0.001   1.530   4.054
 8982TIP3   OH226886   4.889   6.501   3.876
 8982TIP3    H126887   4.880   6.424   3.819
 8982TIP3    H226888   4.976   6.493   3.914
 8983TIP3   OH226889   1.565   0.874   5.767
 8983TIP3    H126890   1.657   0.854   5.749
 8983TIP3    H226891   1.567   0.947   5.829
 8984TIP3   OH226892   6.687   1.799   4.657
 8984TIP3    H126893   6.656   1.735   4.722
 8984TIP3    H226894   6.702   1.747   4.578
 8985TIP3   OH226895   5.882   7.384   6.449
 8985TIP3    H126896   5.839   7.415   6.369
 8985TIP3    H226897   5.935   7.457   6.478
 8986TIP3   OH226898   0.217   6.938   1.730
 8986TIP3    H126899   0.257   6.933   1.817
 8986TIP3    H226900   0.255   7.017   1.691
 8987TIP3   OH226901   6.276   1.879   2.246
 8987TIP3    H126902   6.324   1.903   2.325
 8987TIP3    H226903   6.220   1.954   2.228
 8988TIP3   OH226904   7.313   3.266   2.749
 8988TIP3    H126905   7.355   3.203   2.690
 8988TIP3    H226906   7.221   3.239   2.751
 8989TIP3   OH226907   1.928   1.608   4.598
 8989TIP3    H126908   1.956   1.646   4.681
 8989TIP3    H226909   1.985   1.649   4.532
 8990TIP3   OH226910   5.541   2.976   6.619
 8990TIP3    H126911   5.528   2.908   6.552
 8990TIP3    H226912   5.488   3.050   6.588
 8991TIP3   OH226913   1.568   1.435   1.624
 8991TIP3    H126914   1.647   1.395   1.588
 8991TIP3    H226915   1.538   1.373   1.691
 8992TIP3   OH226916   2.593   7.802   2.931
 8992TIP3    H126917   2.647   7.840   2.862
 8992TIP3    H226918   2.505   7.797   2.894
 8993TIP3   OH226919   4.054   0.285   1.394
 8993TIP3    H126920   4.104   0.277   1.312
 8993TIP3    H226921   4.115   0.322   1.457
 8994TIP3   OH226922   5.375   3.895   4.994
 8994TIP3    H126923   5.284   3.867   4.994
 8994TIP3    H226924   5.379   3.966   5.057
 8995TIP3   OH226925   5.941   5.389   0.930
 8995TIP3    H126926   5.907   5.300   0.923
 8995TIP3    H226927   5.880   5.443   0.878
 8996TIP3   OH226928   3.074   2.220   2.816
 8996TIP3    H126929   3.015   2.295   2.822
 8996TIP3    H226930   3.100   2.216   2.724
 8997TIP3   OH226931   2.824   5.980   5.533
 8997TIP3    H126932   2.906   5.933   5.544
 8997TIP3    H226933   2.806   5.977   5.439
 8998TIP3   OH226934   0.112   6.700   5.360
 8998TIP3    H126935   0.188   6.710   5.303
 8998TIP3    H226936   0.073   6.616   5.335
 8999TIP3   OH226937   4.766   5.458   1.409
 8999TIP3    H126938   4.775   5.365   1.429
 8999TIP3    H226939   4.836   5.476   1.346
 9000TIP3   OH226940   1.802   0.654   5.599
 9000TIP3    H126941   1.880   0.604   5.620
 9000TIP3    H226942   1.834   0.742   5.581
 9001TIP3   OH226943   7.046   6.586   3.840
 9001TIP3    H126944   7.043   6.542   3.755
 9001TIP3    H226945   7.136   6.619   3.846
 9002TIP3   OH226946   0.016   0.450   0.866
 9002TIP3    H126947  -0.053   0.388   0.890
 9002TIP3    H226948   0.072   0.402   0.805
 9003TIP3   OH226949   0.674   3.340   4.772
 9003TIP3    H126950   0.579   3.353   4.781
 9003TIP3    H226951   0.684   3.291   4.690
 9004TIP3   OH226952   4.294   6.064   0.803
 9004TIP3    H126953   4.350   6.014   0.744
 9004TIP3    H226954   4.289   6.151   0.764
 9005TIP3   OH226955   6.322   1.071   3.422
 9005TIP3    H126956   6.401   1.107   3.383
 9005TIP3    H226957   6.312   0.984   3.382
 9006TIP3   OH226958   6.482   7.243   2.697
 9006TIP3    H126959   6.434   7.161   2.712
 9006TIP3    H226960   6.517   7.234   2.609
 9007TIP3   OH226961   1.390   0.200   6.634
 9007TIP3    H126962   1.356   0.286   6.658
 9007TIP3    H226963   1.402   0.205   6.539
 9008TIP3   OH226964   4.866   4.686   4.010
 9008TIP3    H126965   4.785   4.640   4.033
 9008TIP3    H226966   4.893   4.648   3.927
 9009TIP3   OH226967   1.639   3.210   6.483
 9009TIP3    H126968   1.634   3.262   6.564
 9009TIP3    H226969   1.724   3.165   6.489
 9010TIP3   OH226970   1.976   2.873   5.570
 9010TIP3    H126971   1.960   2.907   5.482
 9010TIP3    H226972   1.899   2.900   5.620
 9011TIP3   OH226973   7.106   7.800   4.201
 9011TIP3    H126974   7.040   7.847   4.252
 9011TIP3    H226975   7.130   7.725   4.255
 9012TIP3   OH226976   6.960   3.653   0.576
 9012TIP3    H126977   6.950   3.748   0.574
 9012TIP3    H226978   6.903   3.621   0.506
 9013TIP3   OH226979   1.191   7.684   1.323
 9013TIP3    H126980   1.222   7.697   1.233
 9013TIP3    H226981   1.252   7.733   1.377
 9014TIP3   OH226982   7.905   5.523   4.239
 9014TIP3    H126983   7.897   5.532   4.144
 9014TIP3    H226984   7.816   5.507   4.269
 9015TIP3   OH226985   4.178   3.460   4.067
 9015TIP3    H126986   4.088   3.438   4.094
 9015TIP3    H226987   4.205   3.386   4.012
 9016TIP3   OH226988   1.611   5.808   0.078
 9016TIP3    H126989   1.668   5.758   0.020
 9016TIP3    H226990   1.649   5.896   0.078
 9017TIP3   OH226991   5.411   0.869   1.891
 9017TIP3    H126992   5.389   0.842   1.802
 9017TIP3    H226993   5.341   0.833   1.945
 9018TIP3   OH226994   7.339   6.797   5.669
 9018TIP3    H126995   7.369   6.880   5.704
 9018TIP3    H226996   7.247   6.811   5.649
 9019TIP3   OH226997   0.394   5.330   6.520
 9019TIP3    H126998   0.352   5.381   6.589
 9019TIP3    H226999   0.485   5.322   6.547
 9020TIP3   OH227000   5.783   1.826   4.786
 9020TIP3    H127001   5.770   1.849   4.694
 9020TIP3    H227002   5.711   1.870   4.832
 9021TIP3   OH227003   4.713   6.810   1.695
 9021TIP3    H127004   4.698   6.725   1.652
 9021TIP3    H227005   4.673   6.874   1.636
 9022TIP3   OH227006   2.022   2.447   0.552
 9022TIP3    H127007   2.088   2.471   0.486
 9022TIP3    H227008   1.976   2.528   0.570
 9023TIP3   OH227009   2.765   2.116   4.957
 9023TIP3    H127010   2.705   2.132   4.884
 9023TIP3    H227011   2.834   2.060   4.920
 9024TIP3   OH227012   4.401   2.322   1.036
 9024TIP3    H127013   4.455   2.243   1.031
 9024TIP3    H227014   4.449   2.381   1.093
 9025TIP3   OH227015   3.729   6.098   1.960
 9025TIP3    H127016   3.657   6.160   1.952
 9025TIP3    H227017   3.688   6.012   1.958
 9026TIP3   OH227018   6.725   6.397   3.733
 9026TIP3    H127019   6.725   6.348   3.816
 9026TIP3    H227020   6.675   6.476   3.752
 9027TIP3   OH227021   3.263   1.561   3.361
 9027TIP3    H127022   3.253   1.626   3.430
 9027TIP3    H227023   3.175   1.524   3.349
 9028TIP3   OH227024   7.571   0.027   0.326
 9028TIP3    H127025   7.656   0.067   0.306
 9028TIP3    H227026   7.507   0.096   0.308
 9029TIP3   OH227027   5.253   1.038   6.628
 9029TIP3    H127028   5.342   1.067   6.649
 9029TIP3    H227029   5.209   1.035   6.713
 9030TIP3   OH227030   6.115   5.016   4.882
 9030TIP3    H127031   6.152   5.091   4.835
 9030TIP3    H227032   6.064   4.969   4.817
 9031TIP3   OH227033   4.505   4.372   5.170
 9031TIP3    H127034   4.427   4.422   5.196
 9031TIP3    H227035   4.564   4.438   5.134
 9032TIP3   OH227036   7.801   4.484   0.976
 9032TIP3    H127037   7.825   4.566   1.019
 9032TIP3    H227038   7.762   4.511   0.892
 9033TIP3   OH227039   6.821   7.496   1.425
 9033TIP3    H127040   6.885   7.564   1.446
 9033TIP3    H227041   6.833   7.480   1.332
 9034TIP3   OH227042   8.232   3.807   1.350
 9034TIP3    H127043   8.249   3.885   1.298
 9034TIP3    H227044   8.173   3.754   1.296
 9035TIP3   OH227045   6.041   3.932   2.791
 9035TIP3    H127046   5.966   3.980   2.754
 9035TIP3    H227047   6.022   3.927   2.885
 9036TIP3   OH227048   4.941   4.649   3.308
 9036TIP3    H127049   4.948   4.641   3.403
 9036TIP3    H227050   4.975   4.567   3.274
 9037TIP3   OH227051   0.357   4.559   3.038
 9037TIP3    H127052   0.357   4.471   3.074
 9037TIP3    H227053   0.373   4.616   3.114
 9038TIP3   OH227054   0.953   4.634   2.384
 9038TIP3    H127055   1.034   4.603   2.344
 9038TIP3    H227056   0.886   4.574   2.350
 9039TIP3   OH227057   3.722   6.372   5.994
 9039TIP3    H127058   3.734   6.284   6.028
 9039TIP3    H227059   3.666   6.415   6.059
 9040TIP3   OH227060   0.625   5.326   0.121
 9040TIP3    H127061   0.645   5.377   0.043
 9040TIP3    H227062   0.590   5.243   0.088
 9041TIP3   OH227063   3.753   2.079   0.640
 9041TIP3    H127064   3.667   2.046   0.667
 9041TIP3    H227065   3.816   2.018   0.679
 9042TIP3   OH227066   2.969   2.492   2.492
 9042TIP3    H127067   2.889   2.469   2.446
 9042TIP3    H227068   3.020   2.411   2.493
 9043TIP3   OH227069   7.822   7.750   0.927
 9043TIP3    H127070   7.819   7.707   0.842
 9043TIP3    H227071   7.762   7.699   0.982
 9044TIP3   OH227072   8.161   5.339   5.366
 9044TIP3    H127073   8.135   5.431   5.356
 9044TIP3    H227074   8.206   5.318   5.284
 9045TIP3   OH227075   6.881   6.799   3.829
 9045TIP3    H127076   6.905   6.814   3.920
 9045TIP3    H227077   6.930   6.721   3.804
 9046TIP3   OH227078   4.548   5.874   0.883
 9046TIP3    H127079   4.605   5.831   0.819
 9046TIP3    H227080   4.601   5.945   0.918
 9047TIP3   OH227081   4.033   3.790   5.953
 9047TIP3    H127082   3.959   3.849   5.938
 9047TIP3    H227083   4.091   3.806   5.878
 9048TIP3   OH227084   0.834   0.180   4.465
 9048TIP3    H127085   0.918   0.137   4.454
 9048TIP3    H227086   0.854   0.274   4.460
 9049TIP3   OH227087   5.615   1.335   1.548
 9049TIP3    H127088   5.593   1.242   1.536
 9049TIP3    H227089   5.710   1.337   1.548
 9050TIP3   OH227090   5.984   6.345   0.819
 9050TIP3    H127091   5.961   6.261   0.860
 9050TIP3    H227092   5.900   6.388   0.803
 9051TIP3   OH227093   2.080   1.935   6.430
 9051TIP3    H127094   2.062   1.843   6.408
 9051TIP3    H227095   2.001   1.965   6.473
 9052TIP3   OH227096   2.984   4.346   1.338
 9052TIP3    H127097   3.063   4.358   1.390
 9052TIP3    H227098   2.971   4.430   1.294
 9053TIP3   OH227099   0.898   7.488   5.710
 9053TIP3    H127100   0.889   7.516   5.801
 9053TIP3    H227101   0.818   7.520   5.667
 9054TIP3   OH227102   2.158   3.196   5.987
 9054TIP3    H127103   2.172   3.287   5.959
 9054TIP3    H227104   2.108   3.156   5.916
 9055TIP3   OH227105   3.679   0.641   0.319
 9055TIP3    H127106   3.760   0.677   0.356
 9055TIP3    H227107   3.615   0.649   0.390
 9056TIP3   OH227108   6.556   3.788   3.963
 9056TIP3    H127109   6.643   3.810   3.930
 9056TIP3    H227110   6.566   3.701   4.001
 9057TIP3   OH227111   6.305   4.237   0.677
 9057TIP3    H127112   6.369   4.309   0.678
 9057TIP3    H227113   6.305   4.205   0.767
 9058TIP3   OH227114   3.742   6.837   1.756
 9058TIP3    H127115   3.769   6.903   1.819
 9058TIP3    H227116   3.711   6.887   1.680
 9059TIP3   OH227117   1.842   6.456   3.486
 9059TIP3    H127118   1.853   6.387   3.551
 9059TIP3    H227119   1.755   6.440   3.448
 9060TIP3   OH227120   2.572   2.789   0.327
 9060TIP3    H127121   2.620   2.859   0.283
 9060TIP3    H227122   2.549   2.826   0.412
 9061TIP3   OH227123   7.478   2.959   4.505
 9061TIP3    H127124   7.506   3.050   4.498
 9061TIP3    H227125   7.559   2.908   4.501
 9062TIP3   OH227126   6.816   4.228   1.966
 9062TIP3    H127127   6.868   4.266   1.895
 9062TIP3    H227128   6.871   4.160   2.003
 9063TIP3   OH227129   5.428   3.677   3.423
 9063TIP3    H127130   5.356   3.692   3.484
 9063TIP3    H227131   5.474   3.601   3.459
 9064TIP3   OH227132   5.867   3.829   6.109
 9064TIP3    H127133   5.845   3.777   6.032
 9064TIP3    H227134   5.952   3.795   6.136
 9065TIP3   OH227135   7.584   3.792   0.362
 9065TIP3    H127136   7.654   3.856   0.357
 9065TIP3    H227137   7.522   3.828   0.425
 9066TIP3   OH227138   7.402   1.426   0.262
 9066TIP3    H127139   7.375   1.347   0.309
 9066TIP3    H227140   7.321   1.464   0.229
 9067TIP3   OH227141   2.599   0.198   3.532
 9067TIP3    H127142   2.535   0.232   3.595
 9067TIP3    H227143   2.617   0.109   3.563
 9068TIP3   OH227144   4.236   5.387   4.182
 9068TIP3    H127145   4.282   5.406   4.100
 9068TIP3    H227146   4.186   5.466   4.201
 9069TIP3   OH227147   0.237   5.814   1.951
 9069TIP3    H127148   0.276   5.736   1.991
 9069TIP3    H227149   0.278   5.888   1.996
 9070TIP3   OH227150   7.609   5.735   1.417
 9070TIP3    H127151   7.538   5.676   1.392
 9070TIP3    H227152   7.687   5.697   1.375
 9071TIP3   OH227153   3.782   0.684   3.239
 9071TIP3    H127154   3.863   0.689   3.289
 9071TIP3    H227155   3.729   0.619   3.286
 9072TIP3   OH227156   4.584   1.887   1.970
 9072TIP3    H127157   4.676   1.860   1.967
 9072TIP3    H227158   4.582   1.972   1.925
 9073TIP3   OH227159   0.961   3.770   4.591
 9073TIP3    H127160   0.944   3.756   4.498
 9073TIP3    H227161   0.954   3.864   4.604
 9074TIP3   OH227162   7.521   7.438   0.659
 9074TIP3    H127163   7.551   7.426   0.569
 9074TIP3    H227164   7.489   7.352   0.686
 9075TIP3   OH227165   0.450   6.161   2.584
 9075TIP3    H127166   0.449   6.257   2.593
 9075TIP3    H227167   0.439   6.129   2.673
 9076TIP3   OH227168   5.512   1.764   4.005
 9076TIP3    H127169   5.425   1.803   3.995
 9076TIP3    H227170   5.495   1.672   4.028
 9077TIP3   OH227171   2.250   6.560   0.363
 9077TIP3    H127172   2.336   6.583   0.399
 9077TIP3    H227173   2.201   6.528   0.438
 9078TIP3   OH227174   0.702   2.696   3.847
 9078TIP3    H127175   0.673   2.787   3.833
 9078TIP3    H227176   0.727   2.693   3.939
 9079TIP3   OH227177   6.628   1.229   6.097
 9079TIP3    H127178   6.705   1.177   6.120
 9079TIP3    H227179   6.580   1.176   6.034
 9080TIP3   OH227180   7.253   7.477   6.636
 9080TIP3    H127181   7.233   7.391   6.599
 9080TIP3    H227182   7.168   7.517   6.651
 9081TIP3   OH227183   4.796   2.638   4.504
 9081TIP3    H127184   4.778   2.655   4.597
 9081TIP3    H227185   4.864   2.571   4.505
 9082TIP3   OH227186   6.211   0.076   1.019
 9082TIP3    H127187   6.261   0.098   0.940
 9082TIP3    H227188   6.140   0.140   1.022
 9083TIP3   OH227189   7.936   3.750   2.999
 9083TIP3    H127190   8.028   3.722   3.003
 9083TIP3    H227191   7.918   3.785   3.086
 9084TIP3   OH227192   7.444   7.822   1.040
 9084TIP3    H127193   7.499   7.745   1.053
 9084TIP3    H227194   7.392   7.802   0.962
 9085TIP3   OH227195   3.605   0.436   4.366
 9085TIP3    H127196   3.557   0.406   4.289
 9085TIP3    H227197   3.638   0.356   4.407
 9086TIP3   OH227198   2.962   1.721   6.469
 9086TIP3    H127199   3.005   1.791   6.420
 9086TIP3    H227200   2.886   1.698   6.417
 9087TIP3   OH227201   4.964   4.913   0.552
 9087TIP3    H127202   4.941   4.892   0.462
 9087TIP3    H227203   4.992   5.005   0.549
 9088TIP3   OH227204   5.165   0.763   1.121
 9088TIP3    H127205   5.085   0.711   1.120
 9088TIP3    H227206   5.197   0.757   1.211
 9089TIP3   OH227207   3.500   6.084   5.180
 9089TIP3    H127208   3.430   6.056   5.121
 9089TIP3    H227209   3.468   6.061   5.267
 9090TIP3   OH227210   3.794   4.352   6.467
 9090TIP3    H127211   3.752   4.346   6.553
 9090TIP3    H227212   3.774   4.268   6.425
 9091TIP3   OH227213   2.094   4.582   4.900
 9091TIP3    H127214   2.111   4.674   4.918
 9091TIP3    H227215   2.065   4.547   4.984
 9092TIP3   OH227216   3.240   0.743   5.522
 9092TIP3    H127217   3.335   0.728   5.524
 9092TIP3    H227218   3.216   0.733   5.430
 9093TIP3   OH227219   3.906   0.541   5.274
 9093TIP3    H127220   3.828   0.488   5.290
 9093TIP3    H227221   3.935   0.515   5.186
 9094TIP3   OH227222   7.948   5.056   4.234
 9094TIP3    H127223   7.885   5.035   4.166
 9094TIP3    H227224   8.033   5.043   4.193
 9095TIP3   OH227225   2.900   7.649   2.604
 9095TIP3    H127226   2.961   7.586   2.644
 9095TIP3    H227227   2.915   7.640   2.510
 9096TIP3   OH227228   3.460   4.114   1.171
 9096TIP3    H127229   3.438   4.066   1.251
 9096TIP3    H227230   3.555   4.112   1.167
 9097TIP3   OH227231   6.012   7.497   4.294
 9097TIP3    H127232   6.032   7.531   4.381
 9097TIP3    H227233   5.918   7.511   4.283
 9098TIP3   OH227234   3.989   1.439   5.361
 9098TIP3    H127235   3.929   1.460   5.289
 9098TIP3    H227236   4.073   1.424   5.318
 9099TIP3   OH227237   4.197   6.349   2.674
 9099TIP3    H127238   4.126   6.405   2.705
 9099TIP3    H227239   4.197   6.360   2.579
 9100TIP3   OH227240   7.689   7.299   2.164
 9100TIP3    H127241   7.654   7.254   2.087
 9100TIP3    H227242   7.725   7.228   2.219
 9101TIP3   OH227243   2.112   5.921   6.153
 9101TIP3    H127244   2.118   5.943   6.060
 9101TIP3    H227245   2.038   5.972   6.185
 9102TIP3   OH227246   0.745   3.776   0.048
 9102TIP3    H127247   0.822   3.804   0.098
 9102TIP3    H227248   0.764   3.686   0.023
 9103TIP3   OH227249   3.499   0.691   0.108
 9103TIP3    H127250   3.533   0.688   0.197
 9103TIP3    H227251   3.543   0.766   0.068
 9104TIP3   OH227252   4.169   3.612   6.679
 9104TIP3    H127253   4.090   3.663   6.658
 9104TIP3    H227254   4.241   3.663   6.641
 9105TIP3   OH227255   5.166   0.901   3.934
 9105TIP3    H127256   5.224   0.923   4.007
 9105TIP3    H227257   5.185   0.967   3.867
 9106TIP3   OH227258   2.580   3.167   3.496
 9106TIP3    H127259   2.534   3.135   3.573
 9106TIP3    H227260   2.573   3.263   3.501
 9107TIP3   OH227261   1.340   5.497   1.991
 9107TIP3    H127262   1.264   5.485   2.048
 9107TIP3    H227263   1.415   5.482   2.049
 9108TIP3   OH227264   3.302   1.277   2.363
 9108TIP3    H127265   3.255   1.310   2.439
 9108TIP3    H227266   3.265   1.190   2.348
 9109TIP3   OH227267   1.066   0.710   4.959
 9109TIP3    H127268   1.009   0.784   4.978
 9109TIP3    H227269   1.017   0.634   4.990
 9110TIP3   OH227270   0.369   7.328   2.659
 9110TIP3    H127271   0.376   7.390   2.587
 9110TIP3    H227272   0.359   7.382   2.737
 9111TIP3   OH227273   1.723   2.078   1.213
 9111TIP3    H127274   1.688   2.129   1.139
 9111TIP3    H227275   1.747   2.144   1.278
 9112TIP3   OH227276   0.242   5.445   4.759
 9112TIP3    H127277   0.297   5.511   4.717
 9112TIP3    H227278   0.152   5.472   4.739
 9113TIP3   OH227279   0.378   4.346   5.852
 9113TIP3    H127280   0.319   4.349   5.927
 9113TIP3    H227281   0.322   4.364   5.776
 9114TIP3   OH227282   3.316   4.362   4.914
 9114TIP3    H127283   3.376   4.324   4.850
 9114TIP3    H227284   3.277   4.437   4.869
 9115TIP3   OH227285   0.363   3.927   0.562
 9115TIP3    H127286   0.404   3.885   0.638
 9115TIP3    H227287   0.273   3.895   0.563
 9116TIP3   OH227288   3.819   0.281   3.183
 9116TIP3    H127289   3.902   0.294   3.136
 9116TIP3    H227290   3.832   0.325   3.267
 9117TIP3   OH227291   2.172   0.377   3.338
 9117TIP3    H127292   2.267   0.392   3.342
 9117TIP3    H227293   2.159   0.299   3.392
 9118TIP3   OH227294   7.624   6.467   1.375
 9118TIP3    H127295   7.602   6.398   1.437
 9118TIP3    H227296   7.685   6.523   1.423
 9119TIP3   OH227297   6.381   4.294   5.987
 9119TIP3    H127298   6.315   4.332   5.929
 9119TIP3    H227299   6.360   4.330   6.073
 9120TIP3   OH227300   3.988   4.437   6.748
 9120TIP3    H127301   4.054   4.464   6.683
 9120TIP3    H227302   3.904   4.451   6.704
 9121TIP3   OH227303   0.018   2.991   3.993
 9121TIP3    H127304  -0.041   2.926   3.954
 9121TIP3    H227305   0.086   2.940   4.035
 9122TIP3   OH227306   5.738   6.516   5.727
 9122TIP3    H127307   5.682   6.580   5.683
 9122TIP3    H227308   5.821   6.561   5.738
 9123TIP3   OH227309   6.285   2.377   0.303
 9123TIP3    H127310   6.223   2.424   0.248
 9123TIP3    H227311   6.340   2.329   0.241
 9124TIP3   OH227312   1.459   5.713   5.978
 9124TIP3    H127313   1.552   5.720   6.000
 9124TIP3    H227314   1.456   5.716   5.883
 9125TIP3   OH227315   4.983   5.090   3.306
 9125TIP3    H127316   4.936   5.129   3.233
 9125TIP3    H227317   5.060   5.049   3.266
 9126TIP3   OH227318   7.940   6.309   5.902
 9126TIP3    H127319   7.893   6.314   5.986
 9126TIP3    H227320   7.934   6.216   5.878
 9127TIP3   OH227321   5.898   2.125   4.296
 9127TIP3    H127322   5.968   2.071   4.332
 9127TIP3    H227323   5.943   2.187   4.239
 9128TIP3   OH227324   3.354   0.505   2.308
 9128TIP3    H127325   3.263   0.527   2.287
 9128TIP3    H227326   3.359   0.410   2.295
 9129TIP3   OH227327   4.871   3.984   5.296
 9129TIP3    H127328   4.870   3.912   5.233
 9129TIP3    H227329   4.814   3.954   5.367
 9130TIP3   OH227330   3.973   2.538   4.927
 9130TIP3    H127331   4.019   2.563   4.847
 9130TIP3    H227332   3.969   2.443   4.924
 9131TIP3   OH227333   0.373   4.227   0.263
 9131TIP3    H127334   0.356   4.304   0.209
 9131TIP3    H227335   0.287   4.203   0.298
 9132TIP3   OH227336   1.115   3.624   1.852
 9132TIP3    H127337   1.143   3.543   1.810
 9132TIP3    H227338   1.162   3.624   1.936
 9133TIP3   OH227339   7.607   1.767   6.461
 9133TIP3    H127340   7.609   1.760   6.557
 9133TIP3    H227341   7.699   1.770   6.436
 9134TIP3   OH227342   7.579   6.081   6.587
 9134TIP3    H127343   7.507   6.140   6.567
 9134TIP3    H227344   7.612   6.110   6.672
 9135TIP3   OH227345   3.842   6.243   1.405
 9135TIP3    H127346   3.896   6.165   1.421
 9135TIP3    H227347   3.785   6.248   1.482
 9136TIP3   OH227348   7.297   0.830   1.306
 9136TIP3    H127349   7.289   0.789   1.220
 9136TIP3    H227350   7.370   0.892   1.296
 9137TIP3   OH227351   7.459   6.279   5.368
 9137TIP3    H127352   7.398   6.206   5.377
 9137TIP3    H227353   7.451   6.327   5.450
 9138TIP3   OH227354   0.000   6.217   1.808
 9138TIP3    H127355   0.079   6.163   1.800
 9138TIP3    H227356   0.025   6.286   1.869
 9139TIP3   OH227357   2.778   2.523   5.701
 9139TIP3    H127358   2.727   2.476   5.767
 9139TIP3    H227359   2.777   2.614   5.730
 9140TIP3   OH227360   5.925   2.320   6.677
 9140TIP3    H127361   5.830   2.310   6.670
 9140TIP3    H227362   5.961   2.240   6.639
 9141TIP3   OH227363   7.501   6.382   5.130
 9141TIP3    H127364   7.494   6.347   5.220
 9141TIP3    H227365   7.482   6.475   5.139
 9142TIP3   OH227366   1.120   3.200   5.256
 9142TIP3    H127367   1.172   3.181   5.335
 9142TIP3    H227368   1.055   3.263   5.285
 9143TIP3   OH227369   4.539   4.494   1.925
 9143TIP3    H127370   4.594   4.564   1.890
 9143TIP3    H227371   4.496   4.456   1.849
 9144TIP3   OH227372   4.018   2.131   4.625
 9144TIP3    H127373   3.989   2.068   4.692
 9144TIP3    H227374   4.113   2.139   4.641
 9145TIP3   OH227375   0.698   3.328   5.373
 9145TIP3    H127376   0.663   3.339   5.285
 9145TIP3    H227377   0.701   3.417   5.409
 9146TIP3   OH227378   7.706   0.672   0.381
 9146TIP3    H127379   7.612   0.656   0.383
 9146TIP3    H227380   7.725   0.716   0.464
 9147TIP3   OH227381   1.000   6.206   0.319
 9147TIP3    H127382   0.965   6.258   0.247
 9147TIP3    H227383   0.938   6.134   0.330
 9148TIP3   OH227384   0.773   5.386   2.065
 9148TIP3    H127385   0.724   5.385   2.147
 9148TIP3    H227386   0.854   5.339   2.085
 9149TIP3   OH227387   0.739   5.793   3.279
 9149TIP3    H127388   0.760   5.878   3.241
 9149TIP3    H227389   0.820   5.763   3.319
 9150TIP3   OH227390   0.715   2.681   4.129
 9150TIP3    H127391   0.754   2.597   4.156
 9150TIP3    H227392   0.621   2.665   4.133
 9151TIP3   OH227393   2.498   2.857   1.576
 9151TIP3    H127394   2.532   2.878   1.663
 9151TIP3    H227395   2.407   2.831   1.592
 9152TIP3   OH227396   0.172   2.582   1.346
 9152TIP3    H127397   0.154   2.672   1.320
 9152TIP3    H227398   0.257   2.585   1.390
 9153TIP3   OH227399   6.401   4.639   4.114
 9153TIP3    H127400   6.495   4.649   4.126
 9153TIP3    H227401   6.362   4.699   4.177
 9154TIP3   OH227402   4.840   0.773   4.374
 9154TIP3    H127403   4.864   0.857   4.335
 9154TIP3    H227404   4.783   0.732   4.309
 9155TIP3   OH227405   4.625   0.750   4.055
 9155TIP3    H127406   4.631   0.658   4.030
 9155TIP3    H227407   4.575   0.750   4.136
 9156TIP3   OH227408   6.136   0.739   1.914
 9156TIP3    H127409   6.231   0.728   1.911
 9156TIP3    H227410   6.117   0.802   1.845
 9157TIP3   OH227411   7.313   4.116   2.002
 9157TIP3    H127412   7.369   4.177   2.050
 9157TIP3    H227413   7.368   4.039   1.988
 9158TIP3   OH227414   0.052   2.681   3.220
 9158TIP3    H127415   0.114   2.624   3.265
 9158TIP3    H227416  -0.033   2.661   3.260
 9159TIP3   OH227417   4.553   6.243   4.362
 9159TIP3    H127418   4.568   6.322   4.414
 9159TIP3    H227419   4.504   6.274   4.285
 9160TIP3   OH227420   7.416   2.365   1.886
 9160TIP3    H127421   7.474   2.385   1.959
 9160TIP3    H227422   7.459   2.404   1.810
 9161TIP3   OH227423   0.868   0.527   4.121
 9161TIP3    H127424   0.946   0.476   4.100
 9161TIP3    H227425   0.821   0.535   4.038
 9162TIP3   OH227426   2.264   4.900   6.755
 9162TIP3    H127427   2.233   4.913   6.845
 9162TIP3    H227428   2.242   4.981   6.710
 9163TIP3   OH227429   4.615   3.174   4.050
 9163TIP3    H127430   4.604   3.244   3.987
 9163TIP3    H227431   4.660   3.214   4.124
 9164TIP3   OH227432   7.010   4.393   0.018
 9164TIP3    H127433   6.949   4.463   0.041
 9164TIP3    H227434   7.093   4.419   0.059
 9165TIP3   OH227435   1.729   6.462   5.102
 9165TIP3    H127436   1.788   6.413   5.158
 9165TIP3    H227437   1.756   6.554   5.114
 9166TIP3   OH227438   1.321   1.114   5.935
 9166TIP3    H127439   1.309   1.189   5.877
 9166TIP3    H227440   1.414   1.093   5.928
 9167TIP3   OH227441   7.665   6.283   5.731
 9167TIP3    H127442   7.733   6.347   5.709
 9167TIP3    H227443   7.622   6.321   5.808
 9168TIP3   OH227444   3.860   5.036   0.891
 9168TIP3    H127445   3.824   5.040   0.802
 9168TIP3    H227446   3.851   4.944   0.916
 9169TIP3   OH227447   3.036   2.627   5.929
 9169TIP3    H127448   3.039   2.575   5.849
 9169TIP3    H227449   3.070   2.568   5.996
 9170TIP3   OH227450   1.836   0.262   3.635
 9170TIP3    H127451   1.922   0.262   3.594
 9170TIP3    H227452   1.779   0.309   3.573
 9171TIP3   OH227453   0.911   5.231   5.101
 9171TIP3    H127454   0.946   5.232   5.012
 9171TIP3    H227455   0.867   5.147   5.109
 9172TIP3   OH227456   3.931   2.485   5.741
 9172TIP3    H127457   3.950   2.487   5.647
 9172TIP3    H227458   3.967   2.401   5.770
 9173TIP3   OH227459   0.941   7.145   0.305
 9173TIP3    H127460   0.894   7.143   0.388
 9173TIP3    H227461   0.897   7.213   0.254
 9174TIP3   OH227462   0.195   6.664   1.864
 9174TIP3    H127463   0.161   6.601   1.800
 9174TIP3    H227464   0.117   6.709   1.897
 9175TIP3   OH227465   0.585   3.923   1.035
 9175TIP3    H127466   0.509   3.867   1.054
 9175TIP3    H227467   0.660   3.864   1.039
 9176TIP3   OH227468   2.288   4.983   2.554
 9176TIP3    H127469   2.216   4.958   2.496
 9176TIP3    H227470   2.281   4.924   2.628
 9177TIP3   OH227471   0.482   3.832   3.514
 9177TIP3    H127472   0.426   3.790   3.448
 9177TIP3    H227473   0.494   3.922   3.482
 9178TIP3   OH227474   6.530   5.189   5.385
 9178TIP3    H127475   6.602   5.137   5.351
 9178TIP3    H227476   6.521   5.261   5.323
 9179TIP3   OH227477   2.813   6.364   5.314
 9179TIP3    H127478   2.775   6.308   5.382
 9179TIP3    H227479   2.775   6.331   5.232
 9180TIP3   OH227480   3.004   0.709   1.724
 9180TIP3    H127481   3.085   0.758   1.735
 9180TIP3    H227482   3.032   0.622   1.698
 9181TIP3   OH227483   6.682   3.348   4.192
 9181TIP3    H127484   6.652   3.394   4.114
 9181TIP3    H227485   6.637   3.391   4.265
 9182TIP3   OH227486   7.490   4.322   6.594
 9182TIP3    H127487   7.449   4.322   6.508
 9182TIP3    H227488   7.438   4.260   6.646
 9183TIP3   OH227489   6.915   1.900   6.069
 9183TIP3    H127490   6.891   1.916   5.977
 9183TIP3    H227491   6.997   1.852   6.064
 9184TIP3   OH227492   7.419   2.102   2.804
 9184TIP3    H127493   7.447   2.113   2.895
 9184TIP3    H227494   7.376   2.185   2.782
 9185TIP3   OH227495   6.700   5.811   3.480
 9185TIP3    H127496   6.755   5.813   3.558
 9185TIP3    H227497   6.616   5.847   3.509
 9186TIP3   OH227498   7.369   1.651   4.000
 9186TIP3    H127499   7.400   1.729   4.047
 9186TIP3    H227500   7.324   1.686   3.923
 9187TIP3   OH227501   7.999   1.133   2.054
 9187TIP3    H127502   7.963   1.045   2.061
 9187TIP3    H227503   8.078   1.132   2.108
 9188TIP3   OH227504   5.916   2.810   2.476
 9188TIP3    H127505   5.901   2.731   2.527
 9188TIP3    H227506   5.833   2.825   2.430
 9189TIP3   OH227507   3.700   6.345   2.519
 9189TIP3    H127508   3.649   6.393   2.584
 9189TIP3    H227509   3.761   6.410   2.482
 9190TIP3   OH227510   1.909   2.461   1.822
 9190TIP3    H127511   1.828   2.511   1.830
 9190TIP3    H227512   1.977   2.520   1.856
 9191TIP3   OH227513   6.129   0.493   6.431
 9191TIP3    H127514   6.160   0.460   6.515
 9191TIP3    H227515   6.159   0.584   6.427
 9192TIP3   OH227516   8.165   3.039   5.565
 9192TIP3    H127517   8.188   2.950   5.540
 9192TIP3    H227518   8.244   3.090   5.547
 9193TIP3   OH227519   4.426   1.140   2.382
 9193TIP3    H127520   4.517   1.111   2.389
 9193TIP3    H227521   4.427   1.211   2.319
 9194TIP3   OH227522   6.597   2.309   3.610
 9194TIP3    H127523   6.533   2.277   3.673
 9194TIP3    H227524   6.614   2.235   3.552
 9195TIP3   OH227525   1.352   4.122   6.838
 9195TIP3    H127526   1.403   4.142   6.760
 9195TIP3    H227527   1.412   4.072   6.894
 9196TIP3   OH227528   3.659   7.078   2.649
 9196TIP3    H127529   3.713   7.139   2.598
 9196TIP3    H227530   3.633   7.128   2.727
 9197TIP3   OH227531   3.986   7.723   0.946
 9197TIP3    H127532   4.026   7.643   0.981
 9197TIP3    H227533   3.924   7.749   1.014
 9198TIP3   OH227534   4.998   4.701   5.496
 9198TIP3    H127535   5.009   4.700   5.401
 9198TIP3    H227536   5.083   4.672   5.530
 9199TIP3   OH227537   0.574   7.151   3.003
 9199TIP3    H127538   0.482   7.178   2.992
 9199TIP3    H227539   0.586   7.081   2.939
 9200TIP3   OH227540   3.269   3.442   4.385
 9200TIP3    H127541   3.173   3.443   4.384
 9200TIP3    H227542   3.292   3.363   4.433
 9201TIP3   OH227543   1.395   0.043   2.539
 9201TIP3    H127544   1.352   0.074   2.619
 9201TIP3    H227545   1.327   0.047   2.472
 9202TIP3   OH227546   3.582   3.072   2.830
 9202TIP3    H127547   3.510   3.083   2.892
 9202TIP3    H227548   3.539   3.050   2.747
 9203TIP3   OH227549   8.153   7.868   5.562
 9203TIP3    H127550   8.151   7.922   5.641
 9203TIP3    H227551   8.072   7.817   5.565
 9204TIP3   OH227552   0.503   1.203   2.801
 9204TIP3    H127553   0.564   1.217   2.873
 9204TIP3    H227554   0.443   1.277   2.806
 9205TIP3   OH227555   4.302   2.279   6.810
 9205TIP3    H127556   4.360   2.307   6.740
 9205TIP3    H227557   4.325   2.334   6.884
 9206TIP3   OH227558   6.069   3.461   4.894
 9206TIP3    H127559   6.006   3.531   4.914
 9206TIP3    H227560   6.106   3.438   4.980
 9207TIP3   OH227561   1.864   4.192   0.320
 9207TIP3    H127562   1.917   4.256   0.271
 9207TIP3    H227563   1.919   4.114   0.325
 9208TIP3   OH227564   6.091   0.446   5.423
 9208TIP3    H127565   6.177   0.481   5.400
 9208TIP3    H227566   6.085   0.362   5.377
 9209TIP3   OH227567   0.948   4.214   4.421
 9209TIP3    H127568   0.977   4.255   4.339
 9209TIP3    H227569   0.868   4.168   4.398
 9210TIP3   OH227570   7.783   2.197   5.947
 9210TIP3    H127571   7.829   2.228   5.869
 9210TIP3    H227572   7.691   2.217   5.931
 9211TIP3   OH227573   0.727   6.209   3.485
 9211TIP3    H127574   0.785   6.152   3.434
 9211TIP3    H227575   0.672   6.252   3.420
 9212TIP3   OH227576   7.138   7.051   4.516
 9212TIP3    H127577   7.228   7.017   4.511
 9212TIP3    H227578   7.118   7.053   4.609
 9213TIP3   OH227579   3.745   5.654   5.161
 9213TIP3    H127580   3.826   5.615   5.127
 9213TIP3    H227581   3.737   5.736   5.113
 9214TIP3   OH227582   2.353   0.090   6.745
 9214TIP3    H127583   2.445   0.097   6.771
 9214TIP3    H227584   2.356   0.087   6.649
 9215TIP3   OH227585   7.138   7.378   4.810
 9215TIP3    H127586   7.210   7.316   4.820
 9215TIP3    H227587   7.120   7.378   4.716
 9216TIP3   OH227588   1.261   3.950   0.836
 9216TIP3    H127589   1.206   3.874   0.852
 9216TIP3    H227590   1.341   3.934   0.887
 9217TIP3   OH227591   7.123   1.803   4.646
 9217TIP3    H127592   7.059   1.737   4.621
 9217TIP3    H227593   7.206   1.755   4.650
 9218TIP3   OH227594   6.124   2.219   3.075
 9218TIP3    H127595   6.185   2.162   3.121
 9218TIP3    H227596   6.092   2.279   3.143
 9219TIP3   OH227597   6.255   3.173   4.452
 9219TIP3    H127598   6.231   3.173   4.544
 9219TIP3    H227599   6.218   3.092   4.417
 9220TIP3   OH227600   1.118   7.649   2.664
 9220TIP3    H127601   1.187   7.583   2.651
 9220TIP3    H227602   1.056   7.632   2.593
 9221TIP3   OH227603   7.004   4.895   1.141
 9221TIP3    H127604   7.002   4.934   1.228
 9221TIP3    H227605   6.938   4.825   1.144
 9222TIP3   OH227606   7.024   3.471   2.950
 9222TIP3    H127607   7.115   3.501   2.944
 9222TIP3    H227608   6.974   3.551   2.968
 9223TIP3   OH227609   1.519   1.847   0.389
 9223TIP3    H127610   1.485   1.840   0.478
 9223TIP3    H227611   1.604   1.802   0.392
 9224TIP3   OH227612   5.407   1.549   4.985
 9224TIP3    H127613   5.385   1.604   5.061
 9224TIP3    H227614   5.463   1.480   5.022
 9225TIP3   OH227615   2.748   6.732   2.266
 9225TIP3    H127616   2.792   6.711   2.184
 9225TIP3    H227617   2.712   6.820   2.253
 9226TIP3   OH227618   6.816   1.057   2.680
 9226TIP3    H127619   6.770   0.978   2.652
 9226TIP3    H227620   6.823   1.048   2.775
 9227TIP3   OH227621   3.890   2.152   3.247
 9227TIP3    H127622   3.802   2.188   3.232
 9227TIP3    H227623   3.920   2.197   3.326
 9228TIP3   OH227624   4.250   4.305   0.156
 9228TIP3    H127625   4.238   4.399   0.164
 9228TIP3    H227626   4.174   4.267   0.201
 9229TIP3   OH227627   6.783   0.416   5.101
 9229TIP3    H127628   6.782   0.320   5.092
 9229TIP3    H227629   6.792   0.448   5.011
 9230TIP3   OH227630   5.975   7.650   4.569
 9230TIP3    H127631   5.917   7.579   4.599
 9230TIP3    H227632   5.942   7.728   4.615
 9231TIP3   OH227633   0.183   3.577   3.666
 9231TIP3    H127634   0.205   3.484   3.661
 9231TIP3    H227635   0.261   3.617   3.705
 9232TIP3   OH227636   5.648   2.773   5.518
 9232TIP3    H127637   5.618   2.853   5.561
 9232TIP3    H227638   5.683   2.802   5.434
 9233TIP3   OH227639   3.044   6.779   4.364
 9233TIP3    H127640   3.028   6.873   4.354
 9233TIP3    H227641   2.970   6.748   4.416
 9234TIP3   OH227642   8.270   6.829   4.805
 9234TIP3    H127643   8.217   6.767   4.756
 9234TIP3    H227644   8.361   6.800   4.793
 9235TIP3   OH227645   0.694   5.659   1.454
 9235TIP3    H127646   0.703   5.567   1.477
 9235TIP3    H227647   0.777   5.698   1.480
 9236TIP3   OH227648   3.144  -0.015   5.543
 9236TIP3    H127649   3.059   0.026   5.559
 9236TIP3    H227650   3.207   0.057   5.549
 9237TIP3   OH227651   8.343   3.486   0.298
 9237TIP3    H127652   8.403   3.419   0.329
 9237TIP3    H227653   8.285   3.440   0.237
 9238TIP3   OH227654   8.205   6.309   5.843
 9238TIP3    H127655   8.229   6.374   5.777
 9238TIP3    H227656   8.119   6.336   5.874
 9239TIP3   OH227657   8.377   5.950   2.651
 9239TIP3    H127658   8.437   6.021   2.671
 9239TIP3    H227659   8.293   5.993   2.634
 9240TIP3   OH227660   5.898   3.340   5.821
 9240TIP3    H127661   5.809   3.374   5.825
 9240TIP3    H227662   5.921   3.342   5.728
 9241TIP3   OH227663   4.332   4.613   0.586
 9241TIP3    H127664   4.368   4.650   0.506
 9241TIP3    H227665   4.332   4.686   0.648
 9242TIP3   OH227666   2.003   3.969   0.327
 9242TIP3    H127667   2.087   3.987   0.285
 9242TIP3    H227668   2.015   3.885   0.370
 9243TIP3   OH227669   0.923   5.675   2.271
 9243TIP3    H127670   0.872   5.730   2.211
 9243TIP3    H227671   0.857   5.620   2.315
 9244TIP3   OH227672   2.668   1.693   2.481
 9244TIP3    H127673   2.631   1.626   2.424
 9244TIP3    H227674   2.661   1.774   2.431
 9245TIP3   OH227675   1.627   0.087   4.053
 9245TIP3    H127676   1.722   0.088   4.039
 9245TIP3    H227677   1.610   0.004   4.097
 9246TIP3   OH227678   4.026   0.455   6.436
 9246TIP3    H127679   4.033   0.359   6.432
 9246TIP3    H227680   4.101   0.483   6.488
 9247TIP3   OH227681   7.841   7.565   6.339
 9247TIP3    H127682   7.862   7.539   6.249
 9247TIP3    H227683   7.927   7.578   6.380
 9248TIP3   OH227684   3.333   7.634   1.318
 9248TIP3    H127685   3.387   7.652   1.395
 9248TIP3    H227686   3.258   7.694   1.328
 9249TIP3   OH227687   8.227   7.145   0.708
 9249TIP3    H127688   8.177   7.222   0.736
 9249TIP3    H227689   8.298   7.137   0.772
 9250TIP3   OH227690   6.252   7.538   0.122
 9250TIP3    H127691   6.311   7.542   0.047
 9250TIP3    H227692   6.253   7.446   0.148
 9251TIP3   OH227693   2.275   2.466   1.655
 9251TIP3    H127694   2.364   2.440   1.677
 9251TIP3    H227695   2.220   2.418   1.717
 9252TIP3   OH227696   6.076   4.771   2.422
 9252TIP3    H127697   6.068   4.701   2.488
 9252TIP3    H227698   6.063   4.852   2.472
 9253TIP3   OH227699   7.172   5.763   4.256
 9253TIP3    H127700   7.258   5.721   4.245
 9253TIP3    H227701   7.183   5.819   4.332
 9254TIP3   OH227702   6.111   0.227   2.237
 9254TIP3    H127703   6.150   0.149   2.199
 9254TIP3    H227704   6.047   0.257   2.173
 9255TIP3   OH227705   1.335   2.438   3.007
 9255TIP3    H127706   1.412   2.462   2.955
 9255TIP3    H227707   1.370   2.382   3.076
 9256TIP3   OH227708   0.129   2.182   3.426
 9256TIP3    H127709   0.108   2.125   3.500
 9256TIP3    H227710   0.210   2.145   3.390
 9257TIP3   OH227711   4.934   6.951   1.812
 9257TIP3    H127712   4.841   6.965   1.795
 9257TIP3    H227713   4.979   7.016   1.758
 9258TIP3   OH227714   6.895   4.200   5.232
 9258TIP3    H127715   6.917   4.254   5.156
 9258TIP3    H227716   6.891   4.263   5.305
 9259TIP3   OH227717   7.116   0.357   5.044
 9259TIP3    H127718   7.208   0.340   5.024
 9259TIP3    H227719   7.110   0.452   5.049
 9260TIP3   OH227720   3.595   1.352   6.400
 9260TIP3    H127721   3.568   1.436   6.364
 9260TIP3    H227722   3.628   1.303   6.325
 9261TIP3   OH227723   2.935   1.963   3.634
 9261TIP3    H127724   3.030   1.975   3.633
 9261TIP3    H227725   2.900   2.039   3.587
 9262TIP3   OH227726   2.729   1.416   1.810
 9262TIP3    H127727   2.661   1.435   1.874
 9262TIP3    H227728   2.755   1.502   1.776
 9263TIP3   OH227729   6.529   0.637   5.475
 9263TIP3    H127730   6.445   0.681   5.459
 9263TIP3    H227731   6.505   0.560   5.528
 9264TIP3   OH227732   7.331   7.499   0.348
 9264TIP3    H127733   7.262   7.560   0.374
 9264TIP3    H227734   7.382   7.547   0.283
 9265TIP3   OH227735   1.796   5.580   3.694
 9265TIP3    H127736   1.782   5.673   3.675
 9265TIP3    H227737   1.809   5.577   3.789
 9266TIP3   OH227738   5.577   4.659   2.423
 9266TIP3    H127739   5.665   4.692   2.441
 9266TIP3    H227740   5.552   4.700   2.340
 9267TIP3   OH227741   6.252   4.291   5.243
 9267TIP3    H127742   6.267   4.381   5.214
 9267TIP3    H227743   6.335   4.265   5.285
 9268TIP3   OH227744   8.181   5.745   2.003
 9268TIP3    H127745   8.220   5.808   1.943
 9268TIP3    H227746   8.254   5.689   2.030
 9269TIP3   OH227747   3.482   7.767   3.176
 9269TIP3    H127748   3.565   7.725   3.195
 9269TIP3    H227749   3.419   7.694   3.172
 9270TIP3   OH227750   0.206   4.980   5.057
 9270TIP3    H127751   0.112   4.960   5.049
 9270TIP3    H227752   0.221   5.049   4.992
 9271TIP3   OH227753   6.163   6.738   2.063
 9271TIP3    H127754   6.158   6.809   1.999
 9271TIP3    H227755   6.098   6.674   2.032
 9272TIP3   OH227756   2.450   6.975   2.278
 9272TIP3    H127757   2.422   7.065   2.264
 9272TIP3    H227758   2.385   6.922   2.232
 9273TIP3   OH227759   1.294   1.482   6.754
 9273TIP3    H127760   1.360   1.415   6.772
 9273TIP3    H227761   1.252   1.498   6.839
 9274TIP3   OH227762   7.782   3.983   0.338
 9274TIP3    H127763   7.870   3.979   0.376
 9274TIP3    H227764   7.735   4.046   0.392
 9275TIP3   OH227765   3.861   6.280   6.852
 9275TIP3    H127766   3.956   6.269   6.864
 9275TIP3    H227767   3.848   6.268   6.758
 9276TIP3   OH227768   3.936   2.558   1.891
 9276TIP3    H127769   4.031   2.569   1.898
 9276TIP3    H227770   3.900   2.630   1.942
 9277TIP3   OH227771   8.219   5.321   1.356
 9277TIP3    H127772   8.293   5.372   1.390
 9277TIP3    H227773   8.220   5.339   1.262
 9278TIP3   OH227774   3.724   0.630   2.955
 9278TIP3    H127775   3.816   0.605   2.945
 9278TIP3    H227776   3.721   0.672   3.041
 9279TIP3   OH227777   3.419   4.215   4.509
 9279TIP3    H127778   3.386   4.288   4.456
 9279TIP3    H227779   3.491   4.253   4.560
 9280TIP3   OH227780   6.061   0.481   3.562
 9280TIP3    H127781   6.077   0.550   3.627
 9280TIP3    H227782   6.067   0.399   3.612
 9281TIP3   OH227783   2.488   1.864   6.600
 9281TIP3    H127784   2.400   1.899   6.613
 9281TIP3    H227785   2.479   1.769   6.614
 9282TIP3   OH227786   1.111   7.003   1.125
 9282TIP3    H127787   1.055   7.012   1.048
 9282TIP3    H227788   1.200   6.993   1.090
 9283TIP3   OH227789   5.843   4.609   5.964
 9283TIP3    H127790   5.816   4.550   6.034
 9283TIP3    H227791   5.884   4.552   5.898
 9284TIP3   OH227792   3.523   7.563   4.609
 9284TIP3    H127793   3.607   7.607   4.618
 9284TIP3    H227794   3.545   7.476   4.574
 9285TIP3   OH227795   2.368   2.131   5.823
 9285TIP3    H127796   2.328   2.044   5.831
 9285TIP3    H227797   2.439   2.119   5.760
 9286TIP3   OH227798   7.565   0.407   2.514
 9286TIP3    H127799   7.500   0.456   2.463
 9286TIP3    H227800   7.584   0.464   2.588
 9287TIP3   OH227801   3.751   5.715   2.788
 9287TIP3    H127802   3.823   5.778   2.780
 9287TIP3    H227803   3.781   5.653   2.854
 9288TIP3   OH227804   4.913   7.473   4.738
 9288TIP3    H127805   4.924   7.484   4.833
 9288TIP3    H227806   4.848   7.539   4.714
 9289TIP3   OH227807   0.623   3.441   2.362
 9289TIP3    H127808   0.586   3.470   2.278
 9289TIP3    H227809   0.597   3.349   2.369
 9290TIP3   OH227810   6.618   1.736   3.559
 9290TIP3    H127811   6.574   1.663   3.603
 9290TIP3    H227812   6.604   1.811   3.617
 9291TIP3   OH227813   0.899   1.777   3.898
 9291TIP3    H127814   0.884   1.685   3.878
 9291TIP3    H227815   0.825   1.802   3.952
 9292TIP3   OH227816   1.209   3.190   5.549
 9292TIP3    H127817   1.275   3.258   5.563
 9292TIP3    H227818   1.251   3.109   5.578
 9293TIP3   OH227819   7.960   6.972   5.159
 9293TIP3    H127820   7.962   6.907   5.089
 9293TIP3    H227821   8.026   7.037   5.134
 9294TIP3   OH227822   6.915   5.997   2.621
 9294TIP3    H127823   6.947   6.064   2.560
 9294TIP3    H227824   6.846   5.952   2.572
 9295TIP3   OH227825   4.369   2.652   1.288
 9295TIP3    H127826   4.397   2.743   1.290
 9295TIP3    H227827   4.450   2.602   1.283
 9296TIP3   OH227828   5.380   5.524   1.377
 9296TIP3    H127829   5.295   5.558   1.406
 9296TIP3    H227830   5.436   5.601   1.374
 9297TIP3   OH227831   4.667   1.202   4.646
 9297TIP3    H127832   4.695   1.157   4.726
 9297TIP3    H227833   4.602   1.266   4.676
 9298TIP3   OH227834   6.682   7.926   3.136
 9298TIP3    H127835   6.643   7.868   3.072
 9298TIP3    H227836   6.706   7.869   3.209
 9299TIP3   OH227837   5.825   7.197   0.327
 9299TIP3    H127838   5.744   7.246   0.313
 9299TIP3    H227839   5.824   7.174   0.420
 9300TIP3   OH227840   1.795   0.192   4.404
 9300TIP3    H127841   1.809   0.110   4.356
 9300TIP3    H227842   1.738   0.243   4.347
 9301TIP3   OH227843   3.186   5.771   1.645
 9301TIP3    H127844   3.273   5.803   1.671
 9301TIP3    H227845   3.179   5.793   1.552
 9302TIP3   OH227846   7.346   3.923   3.192
 9302TIP3    H127847   7.435   3.899   3.165
 9302TIP3    H227848   7.326   3.864   3.264
 9303TIP3   OH227849   3.800   6.736   0.725
 9303TIP3    H127850   3.837   6.668   0.780
 9303TIP3    H227851   3.764   6.800   0.786
 9304TIP3   OH227852   8.149   7.227   6.563
 9304TIP3    H127853   8.194   7.150   6.598
 9304TIP3    H227854   8.219   7.287   6.537
 9305TIP3   OH227855   0.013   6.670   6.394
 9305TIP3    H127856  -0.039   6.648   6.317
 9305TIP3    H227857   0.029   6.764   6.386
 9306TIP3   OH227858   8.208   6.849   6.170
 9306TIP3    H127859   8.257   6.779   6.127
 9306TIP3    H227860   8.269   6.883   6.237
 9307TIP3   OH227861   4.099   6.717   0.871
 9307TIP3    H127862   4.191   6.725   0.895
 9307TIP3    H227863   4.094   6.635   0.822
 9308TIP3   OH227864   2.067   3.801   4.788
 9308TIP3    H127865   2.094   3.887   4.821
 9308TIP3    H227866   2.148   3.750   4.785
 9309TIP3   OH227867   5.277   4.437   2.943
 9309TIP3    H127868   5.206   4.396   2.993
 9309TIP3    H227869   5.288   4.380   2.867
 9310TIP3   OH227870   3.524   5.732   3.253
 9310TIP3    H127871   3.526   5.637   3.238
 9310TIP3    H227872   3.597   5.766   3.200
 9311TIP3   OH227873   7.720   2.465   2.949
 9311TIP3    H127874   7.637   2.508   2.968
 9311TIP3    H227875   7.777   2.534   2.914
 9312TIP3   OH227876   5.489   3.138   1.290
 9312TIP3    H127877   5.486   3.208   1.224
 9312TIP3    H227878   5.583   3.125   1.306
 9313TIP3   OH227879   2.286   7.426   6.667
 9313TIP3    H127880   2.245   7.480   6.599
 9313TIP3    H227881   2.355   7.480   6.703
 9314TIP3   OH227882   7.937   3.632   0.881
 9314TIP3    H127883   7.976   3.690   0.816
 9314TIP3    H227884   7.854   3.603   0.841
 9315TIP3   OH227885   1.051   0.495   0.556
 9315TIP3    H127886   1.035   0.589   0.561
 9315TIP3    H227887   0.977   0.460   0.506
 9316TIP3   OH227888   1.129   5.137   3.907
 9316TIP3    H127889   1.161   5.074   3.842
 9316TIP3    H227890   1.162   5.222   3.876
 9317TIP3   OH227891   3.627   0.832   1.781
 9317TIP3    H127892   3.548   0.789   1.813
 9317TIP3    H227893   3.695   0.765   1.788
 9318TIP3   OH227894   8.159   2.961   6.293
 9318TIP3    H127895   8.130   3.049   6.267
 9318TIP3    H227896   8.089   2.903   6.265
 9319TIP3   OH227897   0.229   6.035   0.688
 9319TIP3    H127898   0.256   5.976   0.617
 9319TIP3    H227899   0.134   6.034   0.684
 9320TIP3   OH227900   7.523   2.260   5.856
 9320TIP3    H127901   7.437   2.230   5.886
 9320TIP3    H227902   7.504   2.337   5.802
 9321TIP3   OH227903   7.701   7.007   0.565
 9321TIP3    H127904   7.792   6.993   0.590
 9321TIP3    H227905   7.651   6.951   0.625
 9322TIP3   OH227906   0.254   1.312   6.282
 9322TIP3    H127907   0.287   1.399   6.259
 9322TIP3    H227908   0.285   1.297   6.371
 9323TIP3   OH227909   6.740   0.501   6.750
 9323TIP3    H127910   6.817   0.525   6.801
 9323TIP3    H227911   6.759   0.412   6.718
 9324TIP3   OH227912   5.527   4.952   6.613
 9324TIP3    H127913   5.609   4.994   6.639
 9324TIP3    H227914   5.545   4.917   6.526
 9325TIP3   OH227915   5.189   4.908  -0.004
 9325TIP3    H127916   5.100   4.919  -0.036
 9325TIP3    H227917   5.178   4.881   0.088
 9326TIP3   OH227918   1.253   7.758   0.776
 9326TIP3    H127919   1.283   7.837   0.730
 9326TIP3    H227920   1.227   7.698   0.706
 9327TIP3   OH227921   6.100   1.633   5.084
 9327TIP3    H127922   6.151   1.713   5.099
 9327TIP3    H227923   6.159   1.562   5.109
 9328TIP3   OH227924   0.198   4.839   0.396
 9328TIP3    H127925   0.191   4.891   0.476
 9328TIP3    H227926   0.179   4.750   0.424
 9329TIP3   OH227927   0.197   6.420   4.800
 9329TIP3    H127928   0.263   6.376   4.745
 9329TIP3    H227929   0.237   6.504   4.822
 9330TIP3   OH227930   7.180   7.783   4.465
 9330TIP3    H127931   7.209   7.868   4.498
 9330TIP3    H227932   7.256   7.726   4.474
 9331TIP3   OH227933   5.370   1.256   5.246
 9331TIP3    H127934   5.306   1.198   5.207
 9331TIP3    H227935   5.439   1.264   5.179
 9332TIP3   OH227936   1.380   1.426   6.030
 9332TIP3    H127937   1.366   1.406   5.937
 9332TIP3    H227938   1.298   1.469   6.057
 9333TIP3   OH227939   1.595   6.214   5.072
 9333TIP3    H127940   1.597   6.222   4.977
 9333TIP3    H227941   1.648   6.288   5.103
 9334TIP3   OH227942   7.319   4.850   2.248
 9334TIP3    H127943   7.396   4.794   2.255
 9334TIP3    H227944   7.266   4.810   2.179
 9335TIP3   OH227945   0.510   5.757   1.623
 9335TIP3    H127946   0.585   5.722   1.574
 9335TIP3    H227947   0.517   5.717   1.709
 9336TIP3   OH227948   6.599   7.585   3.599
 9336TIP3    H127949   6.569   7.499   3.627
 9336TIP3    H227950   6.657   7.614   3.669
 9337TIP3   OH227951   0.658   0.411   1.983
 9337TIP3    H127952   0.583   0.421   1.925
 9337TIP3    H227953   0.686   0.320   1.971
 9338TIP3   OH227954   2.237   0.664   2.661
 9338TIP3    H127955   2.220   0.610   2.738
 9338TIP3    H227956   2.209   0.752   2.686
 9339TIP3   OH227957   0.522   2.704   5.994
 9339TIP3    H127958   0.484   2.773   6.049
 9339TIP3    H227959   0.597   2.672   6.043
 9340TIP3   OH227960   1.267   5.392   3.139
 9340TIP3    H127961   1.173   5.410   3.147
 9340TIP3    H227962   1.297   5.383   3.229
 9341TIP3   OH227963   1.885   4.940   1.690
 9341TIP3    H127964   1.886   4.890   1.772
 9341TIP3    H227965   1.964   4.994   1.694
 9342TIP3   OH227966   7.247   0.141   5.694
 9342TIP3    H127967   7.272   0.091   5.772
 9342TIP3    H227968   7.330   0.177   5.661
 9343TIP3   OH227969   4.583   0.105   2.883
 9343TIP3    H127970   4.667   0.060   2.887
 9343TIP3    H227971   4.595   0.174   2.818
 9344TIP3   OH227972   4.862   4.607   5.896
 9344TIP3    H127973   4.783   4.630   5.944
 9344TIP3    H227974   4.885   4.686   5.847
 9345TIP3   OH227975   6.963   7.683   4.907
 9345TIP3    H127976   6.943   7.683   4.813
 9345TIP3    H227977   7.026   7.612   4.918
 9346TIP3   OH227978   2.551   1.460   0.713
 9346TIP3    H127979   2.620   1.523   0.691
 9346TIP3    H227980   2.518   1.489   0.798
 9347TIP3   OH227981   0.150   0.055   2.288
 9347TIP3    H127982   0.067   0.060   2.335
 9347TIP3    H227983   0.129   0.084   2.199
 9348TIP3   OH227984   5.045   6.769   4.453
 9348TIP3    H127985   5.118   6.750   4.511
 9348TIP3    H227986   5.046   6.697   4.389
 9349TIP3   OH227987   2.658   1.951   2.142
 9349TIP3    H127988   2.618   2.035   2.120
 9349TIP3    H227989   2.639   1.895   2.067
 9350TIP3   OH227990   0.031   2.780   0.767
 9350TIP3    H127991   0.114   2.742   0.736
 9350TIP3    H227992   0.010   2.847   0.702
 9351TIP3   OH227993   6.683   2.784   4.354
 9351TIP3    H127994   6.692   2.777   4.259
 9351TIP3    H227995   6.767   2.754   4.388
 9352TIP3   OH227996   7.419   1.771   3.397
 9352TIP3    H127997   7.331   1.778   3.361
 9352TIP3    H227998   7.441   1.860   3.424
 9353TIP3   OH227999   6.095   6.823   3.811
 9353TIP3    H128000   6.040   6.816   3.733
 9353TIP3    H228001   6.035   6.847   3.881
 9354TIP3   OH228002   7.526   0.118   5.329
 9354TIP3    H128003   7.431   0.109   5.334
 9354TIP3    H228004   7.551   0.152   5.415
 9355TIP3   OH228005   0.032   7.340   0.818
 9355TIP3    H128006   0.059   7.248   0.821
 9355TIP3    H228007   0.043   7.371   0.907
 9356TIP3   OH228008   8.306   2.878   5.342
 9356TIP3    H128009   8.214   2.876   5.315
 9356TIP3    H228010   8.311   2.819   5.417
 9357TIP3   OH228011   2.084   5.055   3.100
 9357TIP3    H128012   2.157   5.008   3.059
 9357TIP3    H228013   2.084   5.025   3.191
 9358TIP3   OH228014   7.188   1.025   6.021
 9358TIP3    H128015   7.170   1.119   6.022
 9358TIP3    H228016   7.162   0.997   5.933
 9359TIP3   OH228017   4.946   7.161   3.860
 9359TIP3    H128018   4.880   7.195   3.920
 9359TIP3    H228019   5.013   7.123   3.917
 9360TIP3   OH228020   6.317   5.930   1.879
 9360TIP3    H128021   6.376   5.981   1.933
 9360TIP3    H228022   6.236   5.981   1.877
 9361TIP3   OH228023   2.487   7.392   2.295
 9361TIP3    H128024   2.426   7.330   2.335
 9361TIP3    H228025   2.432   7.466   2.269
 9362TIP3   OH228026   3.844   1.627   2.804
 9362TIP3    H128027   3.781   1.699   2.800
 9362TIP3    H228028   3.833   1.590   2.892
 9363TIP3   OH228029   0.107   0.609   6.380
 9363TIP3    H128030   0.188   0.574   6.343
 9363TIP3    H228031   0.134   0.684   6.432
 9364TIP3   OH228032   8.340   7.426   6.399
 9364TIP3    H128033   8.325   7.404   6.307
 9364TIP3    H228034   8.435   7.420   6.409
 9365TIP3   OH228035   3.827   0.799   2.098
 9365TIP3    H128036   3.879   0.812   2.019
 9365TIP3    H228037   3.736   0.801   2.068
 9366TIP3   OH228038   8.380   6.696   2.654
 9366TIP3    H128039   8.444   6.636   2.616
 9366TIP3    H228040   8.368   6.764   2.587
 9367TIP3   OH228041   4.795   4.658   2.740
 9367TIP3    H128042   4.760   4.701   2.818
 9367TIP3    H228043   4.733   4.587   2.721
 9368TIP3   OH228044   0.363   6.315   4.158
 9368TIP3    H128045   0.332   6.341   4.071
 9368TIP3    H228046   0.419   6.387   4.186
 9369TIP3   OH228047   5.034   0.930   0.842
 9369TIP3    H128048   5.116   0.947   0.888
 9369TIP3    H228049   5.036   0.837   0.822
 9370TIP3   OH228050   3.404   2.691   3.906
 9370TIP3    H128051   3.408   2.646   3.821
 9370TIP3    H228052   3.429   2.624   3.969
 9371TIP3   OH228053   5.290   5.778   4.416
 9371TIP3    H128054   5.273   5.855   4.363
 9371TIP3    H228055   5.328   5.812   4.497
 9372TIP3   OH228056   2.332   0.913   4.584
 9372TIP3    H128057   2.395   0.963   4.636
 9372TIP3    H228058   2.371   0.825   4.578
 9373TIP3   OH228059   0.257   6.434   3.899
 9373TIP3    H128060   0.225   6.457   3.812
 9373TIP3    H228061   0.335   6.487   3.911
 9374TIP3   OH228062   4.412   4.321   1.736
 9374TIP3    H128063   4.364   4.391   1.691
 9374TIP3    H228064   4.361   4.242   1.716
 9375TIP3   OH228065   6.723   4.923   1.385
 9375TIP3    H128066   6.721   5.008   1.341
 9375TIP3    H228067   6.650   4.925   1.447
 9376TIP3   OH228068   8.384   0.580   5.340
 9376TIP3    H128069   8.397   0.528   5.419
 9376TIP3    H228070   8.422   0.527   5.270
 9377TIP3   OH228071   1.880   0.439   0.066
 9377TIP3    H128072   1.787   0.436   0.043
 9377TIP3    H228073   1.882   0.480   0.152
 9378TIP3   OH228074   6.296   1.104   4.948
 9378TIP3    H128075   6.214   1.063   4.978
 9378TIP3    H228076   6.361   1.034   4.953
 9379TIP3   OH228077   5.901   7.156   1.862
 9379TIP3    H128078   5.968   7.160   1.794
 9379TIP3    H228079   5.823   7.123   1.816
 9380TIP3   OH228080   3.268   5.858   3.866
 9380TIP3    H128081   3.172   5.866   3.860
 9380TIP3    H228082   3.295   5.832   3.778
 9381TIP3   OH228083   3.040   2.913   5.636
 9381TIP3    H128084   2.978   2.872   5.575
 9381TIP3    H228085   3.007   3.002   5.648
 9382TIP3   OH228086   1.286   7.882   6.546
 9382TIP3    H128087   1.203   7.840   6.566
 9382TIP3    H228088   1.318   7.836   6.468
 9383TIP3   OH228089   0.174   1.113   3.375
 9383TIP3    H128090   0.234   1.084   3.307
 9383TIP3    H228091   0.216   1.086   3.457
 9384TIP3   OH228092   0.687   6.626   5.287
 9384TIP3    H128093   0.746   6.700   5.301
 9384TIP3    H228094   0.741   6.560   5.245
 9385TIP3   OH228095   6.697   7.870   6.706
 9385TIP3    H128096   6.718   7.811   6.633
 9385TIP3    H228097   6.779   7.917   6.722
 9386TIP3   OH228098   5.032   5.236   1.596
 9386TIP3    H128099   4.969   5.165   1.591
 9386TIP3    H228100   5.116   5.193   1.611
 9387TIP3   OH228101   3.095   1.222   4.915
 9387TIP3    H128102   3.142   1.146   4.950
 9387TIP3    H228103   3.006   1.212   4.948
 9388TIP3   OH228104   1.871   6.434   3.943
 9388TIP3    H128105   1.776   6.430   3.944
 9388TIP3    H228106   1.892   6.522   3.974
 9389TIP3   OH228107   0.993   1.071   4.299
 9389TIP3    H128108   0.988   0.976   4.298
 9389TIP3    H228109   1.049   1.091   4.374
 9390TIP3   OH228110   3.461   2.854   1.107
 9390TIP3    H128111   3.462   2.912   1.031
 9390TIP3    H228112   3.375   2.869   1.147
 9391TIP3   OH228113   6.998   3.996   0.969
 9391TIP3    H128114   7.081   4.042   0.983
 9391TIP3    H228115   7.020   3.903   0.977
 9392TIP3   OH228116   4.361   2.474   3.513
 9392TIP3    H128117   4.431   2.537   3.528
 9392TIP3    H228118   4.385   2.397   3.565
 9393TIP3   OH228119   5.577   0.729   6.229
 9393TIP3    H128120   5.671   0.720   6.217
 9393TIP3    H228121   5.557   0.817   6.197
 9394TIP3   OH228122   6.702   1.217   1.519
 9394TIP3    H128123   6.770   1.184   1.461
 9394TIP3    H228124   6.624   1.166   1.496
 9395TIP3   OH228125   2.154   2.948   6.369
 9395TIP3    H128126   2.165   2.869   6.422
 9395TIP3    H228127   2.189   3.019   6.423
 9396TIP3   OH228128   2.383   5.480   3.703
 9396TIP3    H128129   2.333   5.533   3.765
 9396TIP3    H228130   2.359   5.515   3.617
 9397TIP3   OH228131   6.229   5.546   6.689
 9397TIP3    H128132   6.164   5.606   6.653
 9397TIP3    H228133   6.306   5.559   6.633
 9398TIP3   OH228134   8.379   7.126   4.776
 9398TIP3    H128135   8.450   7.072   4.744
 9398TIP3    H228136   8.302   7.096   4.728
 9399TIP3   OH228137   0.051   7.036   0.839
 9399TIP3    H128138   0.122   7.047   0.902
 9399TIP3    H228139   0.063   6.948   0.804
 9400TIP3   OH228140   3.697   1.497   2.011
 9400TIP3    H128141   3.655   1.569   2.059
 9400TIP3    H228142   3.644   1.487   1.932
 9401TIP3   OH228143   8.286   2.283   0.316
 9401TIP3    H128144   8.365   2.336   0.325
 9401TIP3    H228145   8.261   2.260   0.406
 9402TIP3   OH228146   5.995   5.554   4.521
 9402TIP3    H128147   5.964   5.464   4.515
 9402TIP3    H228148   5.920   5.607   4.496
 9403TIP3   OH228149   1.895   1.071   2.206
 9403TIP3    H128150   1.906   1.140   2.272
 9403TIP3    H228151   1.974   1.017   2.214
 9404TIP3   OH228152   0.459   3.134   0.528
 9404TIP3    H128153   0.384   3.139   0.587
 9404TIP3    H228154   0.425   3.089   0.450
 9405TIP3   OH228155   1.488   7.265   6.648
 9405TIP3    H128156   1.399   7.243   6.678
 9405TIP3    H228157   1.506   7.350   6.688
 9406TIP3   OH228158   0.738   2.325   5.240
 9406TIP3    H128159   0.803   2.285   5.298
 9406TIP3    H228160   0.663   2.266   5.245
 9407TIP3   OH228161   2.348   3.059   0.226
 9407TIP3    H128162   2.286   2.989   0.205
 9407TIP3    H228163   2.399   3.072   0.146
 9408TIP3   OH228164   7.065   7.475   3.766
 9408TIP3    H128165   7.043   7.445   3.678
 9408TIP3    H228166   7.082   7.568   3.757
 9409TIP3   OH228167   4.628   2.186   1.249
 9409TIP3    H128168   4.703   2.127   1.247
 9409TIP3    H228169   4.579   2.161   1.327
 9410TIP3   OH228170   6.017   7.376   0.459
 9410TIP3    H128171   5.947   7.395   0.522
 9410TIP3    H228172   5.976   7.319   0.394
 9411TIP3   OH228173   2.291   2.016   1.631
 9411TIP3    H128174   2.234   2.077   1.585
 9411TIP3    H228175   2.237   1.938   1.644
 9412TIP3   OH228176   6.051   2.453   2.817
 9412TIP3    H128177   6.136   2.497   2.812
 9412TIP3    H228178   6.031   2.452   2.911
 9413TIP3   OH228179   6.810   7.421   3.830
 9413TIP3    H128180   6.903   7.433   3.814
 9413TIP3    H228181   6.772   7.508   3.822
 9414TIP3   OH228182   6.025   5.681   6.558
 9414TIP3    H128183   5.982   5.596   6.544
 9414TIP3    H228184   6.002   5.732   6.481
 9415TIP3   OH228185   0.173   3.751   5.576
 9415TIP3    H128186   0.163   3.780   5.666
 9415TIP3    H228187   0.266   3.728   5.568
 9416TIP3   OH228188   3.268   0.312   5.267
 9416TIP3    H128189   3.309   0.295   5.352
 9416TIP3    H228190   3.177   0.334   5.288
 9417TIP3   OH228191   3.015   2.531   3.406
 9417TIP3    H128192   2.970   2.479   3.339
 9417TIP3    H228193   2.956   2.603   3.425
 9418TIP3   OH228194   1.793   3.550   2.528
 9418TIP3    H128195   1.828   3.474   2.482
 9418TIP3    H228196   1.699   3.550   2.506
 9419TIP3   OH228197   6.102   2.939   4.538
 9419TIP3    H128198   6.027   2.920   4.481
 9419TIP3    H228199   6.145   2.854   4.551
 9420TIP3   OH228200   7.296   2.115   5.166
 9420TIP3    H128201   7.375   2.142   5.214
 9420TIP3    H228202   7.327   2.099   5.077
 9421TIP3   OH228203   7.070   7.705   2.507
 9421TIP3    H128204   7.063   7.800   2.523
 9421TIP3    H228205   7.075   7.698   2.412
 9422TIP3   OH228206   2.954   1.295   6.635
 9422TIP3    H128207   2.867   1.320   6.665
 9422TIP3    H228208   3.002   1.378   6.628
 9423TIP3   OH228209   6.616   4.510   6.523
 9423TIP3    H128210   6.569   4.525   6.604
 9423TIP3    H228211   6.611   4.593   6.476
 9424TIP3   OH228212   7.997   5.301   2.862
 9424TIP3    H128213   8.041   5.352   2.794
 9424TIP3    H228214   8.031   5.336   2.944
 9425TIP3   OH228215   3.317   6.493   2.617
 9425TIP3    H128216   3.286   6.579   2.647
 9425TIP3    H228217   3.353   6.451   2.695
 9426TIP3   OH228218   3.533   2.551   5.118
 9426TIP3    H128219   3.496   2.607   5.050
 9426TIP3    H228220   3.522   2.601   5.199
 9427TIP3   OH228221   5.421   5.930   2.917
 9427TIP3    H128222   5.401   6.020   2.891
 9427TIP3    H228223   5.362   5.876   2.865
 9428TIP3   OH228224   0.493   6.581   4.563
 9428TIP3    H128225   0.467   6.508   4.619
 9428TIP3    H228226   0.469   6.553   4.474
 9429TIP3   OH228227   1.794   5.172   6.129
 9429TIP3    H128228   1.754   5.232   6.066
 9429TIP3    H228229   1.824   5.099   6.076
 9430TIP3   OH228230   2.813   6.952   1.598
 9430TIP3    H128231   2.790   7.011   1.670
 9430TIP3    H228232   2.847   6.873   1.641
 9431TIP3   OH228233   8.191   5.985   4.035
 9431TIP3    H128234   8.160   6.064   3.990
 9431TIP3    H228235   8.215   5.925   3.964
 9432TIP3   OH228236   7.751   4.282   4.086
 9432TIP3    H128237   7.732   4.193   4.057
 9432TIP3    H228238   7.674   4.308   4.136
 9433TIP3   OH228239   2.086   7.858   6.759
 9433TIP3    H128240   2.152   7.861   6.829
 9433TIP3    H228241   2.080   7.948   6.728
 9434TIP3   OH228242   5.577   5.445   2.988
 9434TIP3    H128243   5.553   5.377   2.925
 9434TIP3    H228244   5.607   5.518   2.934
 9435TIP3   OH228245   8.343   3.653   3.944
 9435TIP3    H128246   8.352   3.625   3.853
 9435TIP3    H228247   8.269   3.602   3.978
 9436TIP3   OH228248   4.639   3.045   1.903
 9436TIP3    H128249   4.658   2.977   1.968
 9436TIP3    H228250   4.570   3.097   1.943
 9437TIP3   OH228251   8.261   7.274   4.514
 9437TIP3    H128252   8.225   7.229   4.590
 9437TIP3    H228253   8.350   7.238   4.506
 9438TIP3   OH228254   8.144   4.044   5.951
 9438TIP3    H128255   8.114   3.958   5.979
 9438TIP3    H228256   8.075   4.076   5.892
 9439TIP3   OH228257   8.145   0.773   2.531
 9439TIP3    H128258   8.103   0.710   2.589
 9439TIP3    H228259   8.224   0.729   2.501
 9440TIP3   OH228260   8.161   4.584   5.676
 9440TIP3    H128261   8.077   4.539   5.671
 9440TIP3    H228262   8.188   4.573   5.768
 9441TIP3   OH228263   7.860   5.621   1.293
 9441TIP3    H128264   7.907   5.554   1.343
 9441TIP3    H228265   7.929   5.680   1.263
 9442TIP3   OH228266   5.154   1.077   5.146
 9442TIP3    H128267   5.135   1.067   5.053
 9442TIP3    H228268   5.105   1.006   5.188
 9443TIP3   OH228269   4.633   2.335   6.160
 9443TIP3    H128270   4.705   2.283   6.124
 9443TIP3    H228271   4.676   2.404   6.210
 9444TIP3   OH228272   3.924   5.846   0.072
 9444TIP3    H128273   3.869   5.907   0.122
 9444TIP3    H228274   4.008   5.848   0.118
 9445TIP3   OH228275   6.163   0.768   4.726
 9445TIP3    H128276   6.240   0.722   4.693
 9445TIP3    H228277   6.107   0.780   4.649
 9446TIP3   OH228278   2.778   0.328   3.373
 9446TIP3    H128279   2.735   0.400   3.327
 9446TIP3    H228280   2.707   0.286   3.423
 9447TIP3   OH228281   5.680   5.714   5.310
 9447TIP3    H128282   5.755   5.773   5.299
 9447TIP3    H228283   5.678   5.663   5.230
 9448TIP3   OH228284   0.277   0.588   6.860
 9448TIP3    H128285   0.338   0.607   6.789
 9448TIP3    H228286   0.196   0.632   6.834
 9449TIP3   OH228287   3.672   6.897   3.153
 9449TIP3    H128288   3.727   6.886   3.075
 9449TIP3    H228289   3.696   6.822   3.209
 9450TIP3   OH228290   1.585   6.153   4.523
 9450TIP3    H128291   1.508   6.098   4.511
 9450TIP3    H228292   1.655   6.106   4.477
 9451TIP3   OH228293   0.673   3.263   0.313
 9451TIP3    H128294   0.681   3.171   0.286
 9451TIP3    H228295   0.633   3.259   0.400
 9452TIP3   OH228296   6.483   7.540   2.201
 9452TIP3    H128297   6.398   7.499   2.220
 9452TIP3    H228298   6.512   7.574   2.286
 9453TIP3   OH228299   5.772   4.806   2.582
 9453TIP3    H128300   5.852   4.858   2.586
 9453TIP3    H228301   5.767   4.763   2.668
 9454TIP3   OH228302   4.148   0.491   6.136
 9454TIP3    H128303   4.197   0.498   6.054
 9454TIP3    H228304   4.197   0.429   6.189
 9455TIP3   OH228305   1.719   3.868   4.573
 9455TIP3    H128306   1.764   3.946   4.604
 9455TIP3    H228307   1.734   3.803   4.642
 9456TIP3   OH228308   6.428   2.365   4.583
 9456TIP3    H128309   6.394   2.305   4.650
 9456TIP3    H228310   6.372   2.350   4.507
 9457TIP3   OH228311   0.840   4.414   0.487
 9457TIP3    H128312   0.772   4.374   0.432
 9457TIP3    H228313   0.793   4.443   0.565
 9458TIP3   OH228314   0.414   1.129   1.081
 9458TIP3    H128315   0.344   1.066   1.095
 9458TIP3    H228316   0.472   1.087   1.017
 9459TIP3   OH228317   0.348   2.583   5.081
 9459TIP3    H128318   0.329   2.602   4.989
 9459TIP3    H228319   0.418   2.519   5.079
 9460TIP3   OH228320   1.614   4.799   1.452
 9460TIP3    H128321   1.689   4.739   1.448
 9460TIP3    H228322   1.589   4.813   1.361
 9461TIP3   OH228323   1.488   6.177   6.575
 9461TIP3    H128324   1.465   6.144   6.662
 9461TIP3    H228325   1.580   6.202   6.582
 9462TIP3   OH228326   3.571   5.932   5.449
 9462TIP3    H128327   3.651   5.983   5.436
 9462TIP3    H228328   3.514   5.988   5.502
 9463TIP3   OH228329   4.786   6.495   4.996
 9463TIP3    H128330   4.734   6.575   4.994
 9463TIP3    H228331   4.795   6.474   5.089
 9464TIP3   OH228332   2.886   1.218   2.133
 9464TIP3    H128333   2.860   1.306   2.160
 9464TIP3    H228334   2.810   1.163   2.152
 9465TIP3   OH228335   4.973   6.886   2.865
 9465TIP3    H128336   4.928   6.922   2.789
 9465TIP3    H228337   5.049   6.944   2.878
 9466TIP3   OH228338   0.582   3.654   3.129
 9466TIP3    H128339   0.512   3.645   3.194
 9466TIP3    H228340   0.602   3.748   3.128
 9467TIP3   OH228341   3.920   4.160   0.857
 9467TIP3    H128342   3.983   4.203   0.799
 9467TIP3    H228343   3.848   4.134   0.799
 9468TIP3   OH228344   1.833   5.202   0.553
 9468TIP3    H128345   1.786   5.155   0.622
 9468TIP3    H228346   1.860   5.284   0.593
 9469TIP3   OH228347   5.606   0.948   2.084
 9469TIP3    H128348   5.669   0.885   2.117
 9469TIP3    H228349   5.559   0.901   2.015
 9470TIP3   OH228350   2.616   4.590   1.181
 9470TIP3    H128351   2.638   4.504   1.217
 9470TIP3    H228352   2.622   4.579   1.086
 9471TIP3   OH228353   7.593   0.202   6.806
 9471TIP3    H128354   7.640   0.277   6.840
 9471TIP3    H228355   7.510   0.202   6.854
 9472TIP3   OH228356   7.769   7.399   1.188
 9472TIP3    H128357   7.754   7.373   1.097
 9472TIP3    H228358   7.801   7.319   1.230
 9473TIP3   OH228359   6.153   6.923   6.764
 9473TIP3    H128360   6.121   6.870   6.836
 9473TIP3    H228361   6.248   6.924   6.776
 9474TIP3   OH228362   7.376   3.533   3.956
 9474TIP3    H128363   7.449   3.556   3.897
 9474TIP3    H228364   7.381   3.438   3.963
 9475TIP3   OH228365   7.682   7.336   6.263
 9475TIP3    H128366   7.716   7.401   6.324
 9475TIP3    H228367   7.737   7.259   6.277
 9476TIP3   OH228368   7.247   2.358   0.377
 9476TIP3    H128369   7.254   2.424   0.309
 9476TIP3    H228370   7.293   2.282   0.341
 9477TIP3   OH228371   5.821   0.335   4.155
 9477TIP3    H128372   5.792   0.259   4.204
 9477TIP3    H228373   5.800   0.315   4.064
 9478TIP3   OH228374   1.446   2.745   0.157
 9478TIP3    H128375   1.405   2.823   0.194
 9478TIP3    H228376   1.380   2.710   0.096
 9479TIP3   OH228377   6.335   5.973   0.063
 9479TIP3    H128378   6.284   6.045   0.026
 9479TIP3    H228379   6.300   5.962   0.151
 9480TIP3   OH228380   5.074   2.368   0.841
 9480TIP3    H128381   5.086   2.458   0.811
 9480TIP3    H228382   5.152   2.350   0.895
 9481TIP3   OH228383   8.196   5.466   1.088
 9481TIP3    H128384   8.106   5.447   1.060
 9481TIP3    H228385   8.238   5.504   1.011
 9482TIP3   OH228386   2.065   4.836   4.311
 9482TIP3    H128387   2.114   4.859   4.232
 9482TIP3    H228388   2.079   4.741   4.320
 9483TIP3   OH228389   2.863   4.485   2.359
 9483TIP3    H128390   2.933   4.444   2.308
 9483TIP3    H228391   2.803   4.413   2.379
 9484TIP3   OH228392   5.292   5.973   0.131
 9484TIP3    H128393   5.200   5.968   0.103
 9484TIP3    H228394   5.300   5.908   0.201
 9485TIP3   OH228395   2.158   7.306   4.658
 9485TIP3    H128396   2.143   7.227   4.606
 9485TIP3    H228397   2.080   7.313   4.713
 9486TIP3   OH228398   3.650   2.675   3.561
 9486TIP3    H128399   3.635   2.604   3.624
 9486TIP3    H228400   3.637   2.635   3.476
 9487TIP3   OH228401   3.424   1.159   1.460
 9487TIP3    H128402   3.379   1.081   1.425
 9487TIP3    H228403   3.354   1.221   1.477
 9488TIP3   OH228404   0.497   7.928   6.813
 9488TIP3    H128405   0.501   7.932   6.717
 9488TIP3    H228406   0.549   7.851   6.836
 9489TIP3   OH228407   2.020   7.026   3.490
 9489TIP3    H128408   1.965   6.948   3.476
 9489TIP3    H228409   2.017   7.073   3.407
 9490TIP3   OH228410   6.480   5.716   5.810
 9490TIP3    H128411   6.412   5.652   5.790
 9490TIP3    H228412   6.554   5.692   5.754
 9491TIP3   OH228413   3.540   5.192   2.243
 9491TIP3    H128414   3.485   5.269   2.233
 9491TIP3    H228415   3.579   5.178   2.157
 9492TIP3   OH228416   0.127   0.404   0.201
 9492TIP3    H128417   0.103   0.456   0.124
 9492TIP3    H228418   0.207   0.446   0.234
 9493TIP3   OH228419   5.124   6.925   4.014
 9493TIP3    H128420   5.093   6.892   4.098
 9493TIP3    H228421   5.145   6.847   3.963
 9494TIP3   OH228422   4.254   4.966   5.242
 9494TIP3    H128423   4.225   4.875   5.249
 9494TIP3    H228424   4.175   5.017   5.262
 9495TIP3   OH228425   0.931   3.790   0.899
 9495TIP3    H128426   0.905   3.837   0.820
 9495TIP3    H228427   0.926   3.697   0.874
 9496TIP3   OH228428   4.235   5.537   6.020
 9496TIP3    H128429   4.193   5.572   5.942
 9496TIP3    H228430   4.288   5.609   6.054
 9497TIP3   OH228431   7.489   7.044   5.505
 9497TIP3    H128432   7.454   7.083   5.585
 9497TIP3    H228433   7.584   7.055   5.513
 9498TIP3   OH228434   2.916   1.408   0.761
 9498TIP3    H128435   2.856   1.393   0.834
 9498TIP3    H228436   2.870   1.470   0.704
 9499TIP3   OH228437   2.672   4.178   0.513
 9499TIP3    H128438   2.681   4.142   0.425
 9499TIP3    H228439   2.638   4.106   0.566
 9500TIP3   OH228440   4.740   2.200   5.756
 9500TIP3    H128441   4.819   2.162   5.718
 9500TIP3    H228442   4.772   2.268   5.815
 9501TIP3   OH228443   4.228   4.268   2.695
 9501TIP3    H128444   4.153   4.268   2.755
 9501TIP3    H228445   4.271   4.352   2.712
 9502TIP3   OH228446   2.971   4.861   5.904
 9502TIP3    H128447   2.944   4.952   5.891
 9502TIP3    H228448   2.995   4.830   5.817
 9503TIP3   OH228449   1.065   0.298   3.971
 9503TIP3    H128450   1.021   0.213   3.971
 9503TIP3    H228451   1.148   0.281   4.015
 9504TIP3   OH228452   1.182   4.679   6.369
 9504TIP3    H128453   1.214   4.738   6.301
 9504TIP3    H228454   1.260   4.652   6.416
 9505TIP3   OH228455   0.559   2.275   4.631
 9505TIP3    H128456   0.527   2.205   4.576
 9505TIP3    H228457   0.633   2.312   4.583
 9506TIP3   OH228458   2.602   3.631   0.918
 9506TIP3    H128459   2.608   3.611   1.011
 9506TIP3    H228460   2.621   3.548   0.873
 9507TIP3   OH228461   7.883   5.805   4.360
 9507TIP3    H128462   7.856   5.767   4.276
 9507TIP3    H228463   7.902   5.730   4.416
 9508TIP3   OH228464   6.750   0.793   1.436
 9508TIP3    H128465   6.825   0.763   1.386
 9508TIP3    H228466   6.751   0.739   1.516
 9509TIP3   OH228467   7.466   2.799   3.702
 9509TIP3    H128468   7.436   2.748   3.627
 9509TIP3    H228469   7.559   2.778   3.710
 9510TIP3   OH228470   5.067   1.901   5.163
 9510TIP3    H128471   5.059   1.811   5.130
 9510TIP3    H228472   4.977   1.927   5.182
 9511TIP3   OH228473   5.017   2.703   6.497
 9511TIP3    H128474   5.058   2.784   6.466
 9511TIP3    H228475   5.065   2.680   6.576
 9512TIP3   OH228476   4.036   2.842   3.653
 9512TIP3    H128477   4.111   2.786   3.635
 9512TIP3    H228478   4.054   2.880   3.738
 9513TIP3   OH228479   7.344   3.680   6.343
 9513TIP3    H128480   7.367   3.620   6.273
 9513TIP3    H228481   7.428   3.715   6.373
 9514TIP3   OH228482   5.996   5.496   0.604
 9514TIP3    H128483   5.936   5.480   0.677
 9514TIP3    H228484   5.946   5.470   0.526
 9515TIP3   OH228485   4.366   3.611   0.452
 9515TIP3    H128486   4.285   3.585   0.496
 9515TIP3    H228487   4.434   3.557   0.493
 9516TIP3   OH228488   5.488   5.644   0.691
 9516TIP3    H128489   5.541   5.679   0.620
 9516TIP3    H228490   5.522   5.687   0.770
 9517TIP3   OH228491   6.363   3.196   3.559
 9517TIP3    H128492   6.321   3.197   3.645
 9517TIP3    H228493   6.457   3.186   3.578
 9518TIP3   OH228494   4.682   7.342   5.154
 9518TIP3    H128495   4.761   7.328   5.101
 9518TIP3    H228496   4.694   7.286   5.231
 9519TIP3   OH228497   6.203   5.853   1.281
 9519TIP3    H128498   6.278   5.882   1.334
 9519TIP3    H228499   6.230   5.869   1.191
 9520TIP3   OH228500   3.219   4.504   5.333
 9520TIP3    H128501   3.185   4.510   5.423
 9520TIP3    H228502   3.306   4.467   5.344
 9521TIP3   OH228503   3.952   2.350   0.025
 9521TIP3    H128504   3.983   2.405   0.098
 9521TIP3    H228505   4.029   2.339  -0.030
 9522TIP3   OH228506   5.645   1.710   5.025
 9522TIP3    H128507   5.601   1.659   4.957
 9522TIP3    H228508   5.735   1.678   5.025
 9523TIP3   OH228509   0.858   2.944   2.708
 9523TIP3    H128510   0.894   2.857   2.689
 9523TIP3    H228511   0.794   2.928   2.777
 9524TIP3   OH228512   6.092   0.441   0.063
 9524TIP3    H128513   6.127   0.353   0.077
 9524TIP3    H228514   6.007   0.426   0.022
 9525TIP3   OH228515   0.579   6.584   5.538
 9525TIP3    H128516   0.607   6.596   5.447
 9525TIP3    H228517   0.661   6.575   5.587
 9526TIP3   OH228518   3.375   7.888   1.711
 9526TIP3    H128519   3.440   7.943   1.668
 9526TIP3    H228520   3.420   7.853   1.788
 9527TIP3   OH228521   2.144   0.978   0.931
 9527TIP3    H128522   2.135   1.049   0.994
 9527TIP3    H228523   2.180   0.905   0.981
 9528TIP3   OH228524   4.566   0.932   5.166
 9528TIP3    H128525   4.627   0.875   5.120
 9528TIP3    H228526   4.619   0.970   5.237
 9529TIP3   OH228527   7.074   6.480   2.371
 9529TIP3    H128528   7.036   6.416   2.310
 9529TIP3    H228529   7.015   6.555   2.367
 9530TIP3   OH228530   6.320   6.424   0.582
 9530TIP3    H128531   6.272   6.490   0.533
 9530TIP3    H228532   6.373   6.379   0.516
 9531TIP3   OH228533   3.752   6.522   2.954
 9531TIP3    H128534   3.790   6.524   3.041
 9531TIP3    H228535   3.750   6.429   2.930
 9532TIP3   OH228536   0.281   0.899   4.458
 9532TIP3    H128537   0.316   0.975   4.505
 9532TIP3    H228538   0.354   0.838   4.452
 9533TIP3   OH228539   3.046   4.151   5.311
 9533TIP3    H128540   3.016   4.073   5.265
 9533TIP3    H228541   3.120   4.183   5.259
 9534TIP3   OH228542   4.301   0.135   5.433
 9534TIP3    H128543   4.300   0.112   5.340
 9534TIP3    H228544   4.296   0.230   5.435
 9535TIP3   OH228545   5.835   7.907   0.325
 9535TIP3    H128546   5.870   7.820   0.344
 9535TIP3    H228547   5.912   7.964   0.331
 9536TIP3   OH228548   7.704   4.473   5.388
 9536TIP3    H128549   7.786   4.508   5.351
 9536TIP3    H228550   7.732   4.417   5.460
 9537TIP3   OH228551   2.203   6.607   5.792
 9537TIP3    H128552   2.286   6.656   5.784
 9537TIP3    H228553   2.196   6.558   5.710
 9538TIP3   OH228554   1.243   4.275   0.102
 9538TIP3    H128555   1.282   4.362   0.091
 9538TIP3    H228556   1.300   4.216   0.054
 9539TIP3   OH228557   3.786   4.673   3.059
 9539TIP3    H128558   3.827   4.586   3.054
 9539TIP3    H228559   3.696   4.654   3.086
 9540TIP3   OH228560   2.313   7.256   3.282
 9540TIP3    H128561   2.363   7.176   3.262
 9540TIP3    H228562   2.304   7.255   3.378
 9541TIP3   OH228563   1.189   1.719   3.091
 9541TIP3    H128564   1.189   1.781   3.019
 9541TIP3    H228565   1.281   1.711   3.117
 9542TIP3   OH228566   7.323   4.602   5.610
 9542TIP3    H128567   7.389   4.640   5.666
 9542TIP3    H228568   7.371   4.543   5.552
 9543TIP3   OH228569   0.710   4.847   6.752
 9543TIP3    H128570   0.618   4.866   6.736
 9543TIP3    H228571   0.713   4.754   6.772
 9544TIP3   OH228572   3.911   1.989   4.384
 9544TIP3    H128573   3.924   2.050   4.457
 9544TIP3    H228574   3.908   1.903   4.425
 9545TIP3   OH228575   5.626   6.765   2.350
 9545TIP3    H128576   5.672   6.839   2.388
 9545TIP3    H228577   5.533   6.789   2.355
 9546TIP3   OH228578   2.320   1.304   3.044
 9546TIP3    H128579   2.283   1.326   3.130
 9546TIP3    H228580   2.247   1.315   2.983
 9547TIP3   OH228581   7.636   5.788   4.553
 9547TIP3    H128582   7.578   5.865   4.550
 9547TIP3    H228583   7.705   5.813   4.614
 9548TIP3   OH228584   2.135   6.614   5.221
 9548TIP3    H128585   2.185   6.615   5.302
 9548TIP3    H228586   2.044   6.602   5.250
 9549TIP3   OH228587   1.690   0.079   4.640
 9549TIP3    H128588   1.768   0.078   4.695
 9549TIP3    H228589   1.702   0.155   4.582
 9550TIP3   OH228590   4.735   1.351   0.073
 9550TIP3    H128591   4.785   1.344  -0.008
 9550TIP3    H228592   4.786   1.410   0.128
 9551TIP3   OH228593   1.484   1.337   2.283
 9551TIP3    H128594   1.526   1.373   2.361
 9551TIP3    H228595   1.396   1.312   2.313
 9552TIP3   OH228596   7.164   6.036   1.782
 9552TIP3    H128597   7.244   6.011   1.828
 9552TIP3    H228598   7.190   6.110   1.727
 9553TIP3   OH228599   5.421   0.425   1.956
 9553TIP3    H128600   5.462   0.353   1.908
 9553TIP3    H228601   5.379   0.479   1.888
 9554TIP3   OH228602   5.963   3.885   0.342
 9554TIP3    H128603   6.007   3.910   0.423
 9554TIP3    H228604   5.982   3.957   0.282
 9555TIP3   OH228605   4.365   7.502   5.790
 9555TIP3    H128606   4.317   7.465   5.863
 9555TIP3    H228607   4.361   7.597   5.803
 9556TIP3   OH228608   3.022   0.733   5.681
 9556TIP3    H128609   2.980   0.818   5.690
 9556TIP3    H228610   3.096   0.749   5.623
 9557TIP3   OH228611   6.699   6.721   6.247
 9557TIP3    H128612   6.615   6.685   6.217
 9557TIP3    H228613   6.680   6.756   6.334
 9558TIP3   OH228614   3.768   5.809   4.743
 9558TIP3    H128615   3.707   5.863   4.692
 9558TIP3    H228616   3.736   5.815   4.833
 9559TIP3   OH228617   4.375   6.444   0.796
 9559TIP3    H128618   4.346   6.526   0.756
 9559TIP3    H228619   4.407   6.391   0.723
 9560TIP3   OH228620   7.502   5.549   4.637
 9560TIP3    H128621   7.539   5.628   4.596
 9560TIP3    H228622   7.542   5.546   4.724
 9561TIP3   OH228623   1.673   6.487   4.844
 9561TIP3    H128624   1.686   6.493   4.939
 9561TIP3    H228625   1.711   6.568   4.810
 9562TIP3   OH228626   2.538   1.720   4.647
 9562TIP3    H128627   2.500   1.676   4.723
 9562TIP3    H228628   2.508   1.811   4.655
 9563TIP3   OH228629   1.653   1.807   3.873
 9563TIP3    H128630   1.659   1.902   3.884
 9563TIP3    H228631   1.741   1.775   3.894
 9564TIP3   OH228632   8.134   3.489   5.521
 9564TIP3    H128633   8.116   3.438   5.599
 9564TIP3    H228634   8.226   3.513   5.529
 9565TIP3   OH228635   1.141   1.416   1.989
 9565TIP3    H128636   1.126   1.510   1.976
 9565TIP3    H228637   1.167   1.383   1.902
 9566TIP3   OH228638   2.341   4.257   1.181
 9566TIP3    H128639   2.303   4.340   1.211
 9566TIP3    H228640   2.272   4.217   1.128
 9567TIP3   OH228641   2.046   5.848   3.064
 9567TIP3    H128642   1.974   5.911   3.066
 9567TIP3    H228643   2.005   5.763   3.080
 9568TIP3   OH228644   5.742   5.790   0.773
 9568TIP3    H128645   5.717   5.860   0.712
 9568TIP3    H228646   5.837   5.797   0.780
 9569TIP3   OH228647   1.995   1.558   1.661
 9569TIP3    H128648   1.947   1.503   1.724
 9569TIP3    H228649   1.948   1.546   1.578
 9570TIP3   OH228650   6.306   5.451   4.490
 9570TIP3    H128651   6.372   5.516   4.469
 9570TIP3    H228652   6.227   5.482   4.447
 9571TIP3   OH228653   5.074   6.544   5.462
 9571TIP3    H128654   5.127   6.509   5.533
 9571TIP3    H228655   5.062   6.636   5.484
 9572TIP3   OH228656   5.483   5.439   5.066
 9572TIP3    H128657   5.449   5.351   5.082
 9572TIP3    H228658   5.559   5.425   5.010
 9573TIP3   OH228659   7.322   1.742   0.156
 9573TIP3    H128660   7.266   1.665   0.163
 9573TIP3    H228661   7.268   1.807   0.112
 9574TIP3   OH228662   1.679   1.479   4.618
 9574TIP3    H128663   1.604   1.526   4.582
 9574TIP3    H228664   1.755   1.534   4.596
 9575TIP3   OH228665   4.177   5.729   2.974
 9575TIP3    H128666   4.236   5.661   2.943
 9575TIP3    H228667   4.134   5.691   3.050
 9576TIP3   OH228668   6.155   5.557   1.818
 9576TIP3    H128669   6.097   5.620   1.776
 9576TIP3    H228670   6.234   5.607   1.839
 9577TIP3   OH228671   3.069   3.253   5.190
 9577TIP3    H128672   3.026   3.331   5.227
 9577TIP3    H228673   3.103   3.207   5.267
 9578TIP3   OH228674   7.106   3.510   1.149
 9578TIP3    H128675   7.122   3.427   1.105
 9578TIP3    H228676   7.116   3.576   1.080
 9579TIP3   OH228677   1.199   3.677   0.798
 9579TIP3    H128678   1.154   3.598   0.769
 9579TIP3    H228679   1.260   3.646   0.866
 9580TIP3   OH228680   1.080   4.011   4.939
 9580TIP3    H128681   1.074   4.100   4.904
 9580TIP3    H228682   1.172   3.988   4.933
 9581TIP3   OH228683   3.964   3.393   0.151
 9581TIP3    H128684   3.983   3.436   0.235
 9581TIP3    H228685   3.887   3.339   0.168
 9582TIP3   OH228686   1.406   1.411   2.028
 9582TIP3    H128687   1.315   1.387   2.043
 9582TIP3    H228688   1.445   1.415   2.116
 9583TIP3   OH228689   2.756   3.692   4.081
 9583TIP3    H128690   2.780   3.745   4.005
 9583TIP3    H228691   2.768   3.750   4.156
 9584TIP3   OH228692   8.050   6.406   5.008
 9584TIP3    H128693   8.144   6.395   5.024
 9584TIP3    H228694   8.009   6.331   5.052
 9585TIP3   OH228695   7.060   0.653   0.063
 9585TIP3    H128696   7.017   0.634  -0.020
 9585TIP3    H228697   7.077   0.747   0.061
 9586TIP3   OH228698   6.401   5.610   1.066
 9586TIP3    H128699   6.413   5.583   1.158
 9586TIP3    H228700   6.448   5.543   1.016
 9587TIP3   OH228701   2.293   5.031   5.918
 9587TIP3    H128702   2.380   5.053   5.885
 9587TIP3    H228703   2.291   4.935   5.920
 9588TIP3   OH228704   6.587   3.743   5.212
 9588TIP3    H128705   6.597   3.786   5.297
 9588TIP3    H228706   6.592   3.814   5.149
 9589TIP3   OH228707   1.828   7.034   1.573
 9589TIP3    H128708   1.899   7.081   1.529
 9589TIP3    H228709   1.754   7.040   1.513
 9590TIP3   OH228710   0.939   2.997   2.021
 9590TIP3    H128711   0.851   3.033   2.031
 9590TIP3    H228712   0.975   2.996   2.110
 9591TIP3   OH228713   5.020   1.466   3.353
 9591TIP3    H128714   5.061   1.533   3.407
 9591TIP3    H228715   5.093   1.424   3.307
 9592TIP3   OH228716   4.280   4.453   5.943
 9592TIP3    H128717   4.345   4.383   5.945
 9592TIP3    H228718   4.316   4.521   6.000
 9593TIP3   OH228719   6.665   4.270   5.612
 9593TIP3    H128720   6.739   4.316   5.573
 9593TIP3    H228721   6.703   4.193   5.653
 9594TIP3   OH228722   5.012   1.736   4.594
 9594TIP3    H128723   5.076   1.680   4.550
 9594TIP3    H228724   4.931   1.721   4.546
 9595TIP3   OH228725   4.212   1.066   6.873
 9595TIP3    H128726   4.172   1.078   6.787
 9595TIP3    H228727   4.277   0.997   6.860
 9596TIP3   OH228728   4.151   6.637   6.533
 9596TIP3    H128729   4.127   6.698   6.603
 9596TIP3    H228730   4.102   6.557   6.552
 9597TIP3   OH228731   3.907   0.845   1.689
 9597TIP3    H128732   3.860   0.789   1.626
 9597TIP3    H228733   3.844   0.913   1.712
 9598TIP3   OH228734   5.631   5.243   6.703
 9598TIP3    H128735   5.706   5.184   6.712
 9598TIP3    H228736   5.668   5.330   6.718
 9599TIP3   OH228737   0.007   1.807   6.831
 9599TIP3    H128738   0.099   1.778   6.832
 9599TIP3    H228739  -0.018   1.803   6.738
 9600TIP3   OH228740   5.157   7.687   3.025
 9600TIP3    H128741   5.090   7.752   3.005
 9600TIP3    H228742   5.207   7.679   2.945
 9601TIP3   OH228743   5.748   1.535   4.549
 9601TIP3    H128744   5.750   1.571   4.460
 9601TIP3    H228745   5.661   1.496   4.557
 9602TIP3   OH228746   2.834   3.170   5.085
 9602TIP3    H128747   2.854   3.085   5.044
 9602TIP3    H228748   2.920   3.210   5.098
 9603TIP3   OH228749   2.191   4.603   2.229
 9603TIP3    H128750   2.101   4.628   2.207
 9603TIP3    H228751   2.181   4.531   2.291
 9604TIP3   OH228752   0.890   4.760   4.530
 9604TIP3    H128753   0.965   4.750   4.588
 9604TIP3    H228754   0.816   4.772   4.589
 9605TIP3   OH228755   8.085   5.879   2.872
 9605TIP3    H128756   8.175   5.895   2.900
 9605TIP3    H228757   8.087   5.889   2.777
 9606TIP3   OH228758   4.466   6.569   2.749
 9606TIP3    H128759   4.496   6.537   2.834
 9606TIP3    H228760   4.374   6.590   2.762
 9607TIP3   OH228761   3.686   4.543   4.514
 9607TIP3    H128762   3.748   4.591   4.458
 9607TIP3    H228763   3.605   4.594   4.507
 9608TIP3   OH228764   5.063   6.463   5.178
 9608TIP3    H128765   5.066   6.368   5.165
 9608TIP3    H228766   5.050   6.473   5.272
 9609TIP3   OH228767   6.551   0.365   2.982
 9609TIP3    H128768   6.525   0.301   2.917
 9609TIP3    H228769   6.640   0.390   2.958
 9610TIP3   OH228770   3.098   5.103   5.277
 9610TIP3    H128771   3.071   5.177   5.223
 9610TIP3    H228772   3.038   5.105   5.351
 9611TIP3   OH228773   6.364   6.684   1.705
 9611TIP3    H128774   6.281   6.669   1.749
 9611TIP3    H228775   6.393   6.597   1.678
 9612TIP3   OH228776   7.185   2.962   0.582
 9612TIP3    H128777   7.112   2.984   0.640
 9612TIP3    H228778   7.149   2.969   0.494
 9613TIP3   OH228779   1.998   0.680   1.225
 9613TIP3    H128780   1.979   0.586   1.229
 9613TIP3    H228781   2.084   0.685   1.182
 9614TIP3   OH228782   4.675   0.685   5.333
 9614TIP3    H128783   4.762   0.672   5.295
 9614TIP3    H228784   4.687   0.756   5.396
 9615TIP3   OH228785   5.115   2.483   1.664
 9615TIP3    H128786   5.151   2.560   1.709
 9615TIP3    H228787   5.056   2.520   1.599
 9616TIP3   OH228788   0.251   5.941   1.176
 9616TIP3    H128789   0.286   6.018   1.220
 9616TIP3    H228790   0.176   5.915   1.228
 9617TIP3   OH228791   4.378   4.546   6.703
 9617TIP3    H128792   4.392   4.454   6.726
 9617TIP3    H228793   4.319   4.579   6.770
 9618TIP3   OH228794   5.734   3.815   1.436
 9618TIP3    H128795   5.711   3.812   1.343
 9618TIP3    H228796   5.812   3.869   1.440
 9619TIP3   OH228797   7.531   2.724   6.829
 9619TIP3    H128798   7.516   2.805   6.781
 9619TIP3    H228799   7.545   2.658   6.761
 9620TIP3   OH228800   0.333   0.889   3.951
 9620TIP3    H128801   0.385   0.850   3.880
 9620TIP3    H228802   0.253   0.837   3.954
 9621TIP3   OH228803   5.208   1.016   1.038
 9621TIP3    H128804   5.254   1.043   1.117
 9621TIP3    H228805   5.182   0.925   1.055
 9622TIP3   OH228806   5.243   4.000   4.657
 9622TIP3    H128807   5.192   4.025   4.734
 9622TIP3    H228808   5.332   3.985   4.691
 9623TIP3   OH228809   3.142   2.592   0.430
 9623TIP3    H128810   3.135   2.554   0.342
 9623TIP3    H228811   3.066   2.558   0.477
 9624TIP3   OH228812   2.496   3.923   2.124
 9624TIP3    H128813   2.573   3.871   2.101
 9624TIP3    H228814   2.463   3.955   2.041
 9625TIP3   OH228815   3.752   6.273   4.535
 9625TIP3    H128816   3.695   6.196   4.541
 9625TIP3    H228817   3.770   6.297   4.625
 9626TIP3   OH228818   8.239   2.964   1.169
 9626TIP3    H128819   8.318   2.930   1.210
 9626TIP3    H228820   8.240   2.928   1.081
 9627TIP3   OH228821   1.035   7.688   4.488
 9627TIP3    H128822   0.956   7.633   4.488
 9627TIP3    H228823   1.023   7.747   4.414
 9628TIP3   OH228824   4.560   2.620   6.500
 9628TIP3    H128825   4.602   2.597   6.417
 9628TIP3    H228826   4.632   2.625   6.562
 9629TIP3   OH228827   6.717   5.428   5.776
 9629TIP3    H128828   6.735   5.378   5.696
 9629TIP3    H228829   6.656   5.372   5.825
 9630TIP3   OH228830   0.282   6.806   1.494
 9630TIP3    H128831   0.324   6.720   1.492
 9630TIP3    H228832   0.249   6.816   1.583
 9631TIP3   OH228833   0.297   5.778   3.946
 9631TIP3    H128834   0.298   5.698   3.997
 9631TIP3    H228835   0.236   5.836   3.991
 9632TIP3   OH228836   1.633   1.833   3.419
 9632TIP3    H128837   1.562   1.777   3.450
 9632TIP3    H228838   1.592   1.918   3.405
 9633TIP3   OH228839   5.903   7.533   5.960
 9633TIP3    H128840   5.893   7.628   5.962
 9633TIP3    H228841   5.813   7.500   5.953
 9634TIP3   OH228842   4.947   5.433   2.941
 9634TIP3    H128843   4.934   5.487   2.863
 9634TIP3    H228844   5.040   5.411   2.939
 9635TIP3   OH228845   4.393   4.859   0.454
 9635TIP3    H128846   4.376   4.942   0.498
 9635TIP3    H228847   4.483   4.837   0.478
 9636TIP3   OH228848   5.066   5.708   6.299
 9636TIP3    H128849   4.999   5.723   6.232
 9636TIP3    H228850   5.063   5.613   6.314
 9637TIP3   OH228851   7.401   6.262   6.446
 9637TIP3    H128852   7.403   6.187   6.387
 9637TIP3    H228853   7.443   6.333   6.398
 9638TIP3   OH228854   3.548   5.073   5.624
 9638TIP3    H128855   3.605   5.110   5.692
 9638TIP3    H228856   3.538   5.144   5.560
 9639TIP3   OH228857   1.897   2.329   2.446
 9639TIP3    H128858   1.892   2.233   2.441
 9639TIP3    H228859   1.977   2.346   2.495
 9640TIP3   OH228860   0.079   4.217   2.227
 9640TIP3    H128861   0.129   4.256   2.299
 9640TIP3    H228862   0.140   4.154   2.187
 9641TIP3   OH228863   2.496   0.695   4.572
 9641TIP3    H128864   2.574   0.694   4.516
 9641TIP3    H228865   2.518   0.637   4.645
 9642TIP3   OH228866   0.497   7.231   1.097
 9642TIP3    H128867   0.460   7.294   1.159
 9642TIP3    H228868   0.582   7.209   1.135
 9643TIP3   OH228869   4.252   2.095   5.750
 9643TIP3    H128870   4.307   2.055   5.683
 9643TIP3    H228871   4.217   2.022   5.800
 9644TIP3   OH228872   4.671   0.761   0.441
 9644TIP3    H128873   4.650   0.676   0.478
 9644TIP3    H228874   4.766   0.770   0.453
 9645TIP3   OH228875   4.938   6.554   2.868
 9645TIP3    H128876   4.928   6.475   2.922
 9645TIP3    H228877   4.962   6.521   2.782
 9646TIP3   OH228878   4.295   6.164   6.182
 9646TIP3    H128879   4.311   6.226   6.111
 9646TIP3    H228880   4.332   6.206   6.259
 9647TIP3   OH228881   6.548   1.007   1.379
 9647TIP3    H128882   6.497   0.956   1.316
 9647TIP3    H228883   6.624   0.952   1.397
 9648TIP3   OH228884   6.160   2.233   6.366
 9648TIP3    H128885   6.131   2.323   6.354
 9648TIP3    H228886   6.252   2.240   6.391
 9649TIP3   OH228887   2.046   6.906   1.208
 9649TIP3    H128888   2.098   6.951   1.274
 9649TIP3    H228889   2.053   6.962   1.130
 9650TIP3   OH228890   3.112   3.164   4.171
 9650TIP3    H128891   3.079   3.085   4.128
 9650TIP3    H228892   3.115   3.229   4.101
 9651TIP3   OH228893   1.520   5.296   5.741
 9651TIP3    H128894   1.488   5.254   5.661
 9651TIP3    H228895   1.442   5.320   5.790
 9652TIP3   OH228896   4.116   1.698   0.140
 9652TIP3    H128897   4.137   1.727   0.052
 9652TIP3    H228898   4.200   1.688   0.184
 9653TIP3   OH228899   4.990   2.197   5.635
 9653TIP3    H128900   4.998   2.288   5.607
 9653TIP3    H228901   5.073   2.178   5.678
 9654TIP3   OH228902   0.574   6.250   6.282
 9654TIP3    H128903   0.554   6.331   6.329
 9654TIP3    H228904   0.598   6.188   6.351
 9655TIP3   OH228905   3.654   5.973   4.242
 9655TIP3    H128906   3.587   5.914   4.277
 9655TIP3    H228907   3.735   5.921   4.244
 9656TIP3   OH228908   5.579   6.290   5.228
 9656TIP3    H128909   5.626   6.371   5.207
 9656TIP3    H228910   5.488   6.310   5.210
 9657TIP3   OH228911   6.405   6.610   3.329
 9657TIP3    H128912   6.318   6.613   3.289
 9657TIP3    H228913   6.457   6.555   3.271
 9658TIP3   OH228914   4.607   2.292   2.241
 9658TIP3    H128915   4.660   2.213   2.246
 9658TIP3    H228916   4.517   2.260   2.230
 9659TIP3   OH228917   6.758   7.860   5.049
 9659TIP3    H128918   6.747   7.798   4.977
 9659TIP3    H228919   6.833   7.914   5.023
 9660TIP3   OH228920   1.101   0.230   6.079
 9660TIP3    H128921   1.187   0.189   6.085
 9660TIP3    H228922   1.100   0.272   5.993
 9661TIP3   OH228923   1.661   7.590   1.004
 9661TIP3    H128924   1.648   7.626   0.916
 9661TIP3    H228925   1.614   7.650   1.061
 9662TIP3   OH228926   7.794   6.620   3.788
 9662TIP3    H128927   7.770   6.674   3.713
 9662TIP3    H228928   7.827   6.539   3.750
 9663TIP3   OH228929   5.371   1.701   2.453
 9663TIP3    H128930   5.463   1.726   2.458
 9663TIP3    H228931   5.326   1.761   2.512
 9664TIP3   OH228932   4.373   1.883   4.612
 9664TIP3    H128933   4.382   1.796   4.651
 9664TIP3    H228934   4.366   1.942   4.687
 9665TIP3   OH228935   8.184   1.471   5.636
 9665TIP3    H128936   8.145   1.558   5.636
 9665TIP3    H228937   8.192   1.448   5.728
 9666TIP3   OH228938   8.198   7.817   4.790
 9666TIP3    H128939   8.192   7.903   4.833
 9666TIP3    H228940   8.160   7.756   4.852
 9667TIP3   OH228941   6.911   4.179   0.751
 9667TIP3    H128942   6.932   4.127   0.828
 9667TIP3    H228943   6.983   4.241   0.743
 9668TIP3   OH228944   1.268   5.129   0.593
 9668TIP3    H128945   1.359   5.141   0.564
 9668TIP3    H228946   1.276   5.096   0.682
 9669TIP3   OH228947   6.751   5.388   6.648
 9669TIP3    H128948   6.725   5.442   6.574
 9669TIP3    H228949   6.844   5.372   6.635
 9670TIP3   OH228950   6.555   4.228   2.541
 9670TIP3    H128951   6.475   4.176   2.546
 9670TIP3    H228952   6.568   4.261   2.630
 9671TIP3   OH228953   0.990   5.426  -0.002
 9671TIP3    H128954   0.993   5.377   0.081
 9671TIP3    H228955   1.061   5.389  -0.054
 9672TIP3   OH228956   1.896   3.283   0.143
 9672TIP3    H128957   1.846   3.201   0.136
 9672TIP3    H228958   1.982   3.262   0.106
 9673TIP3   OH228959   6.811   1.910   0.145
 9673TIP3    H128960   6.816   1.959   0.063
 9673TIP3    H228961   6.838   1.821   0.122
 9674TIP3   OH228962   3.485   0.987   5.283
 9674TIP3    H128963   3.397   0.967   5.315
 9674TIP3    H228964   3.501   0.922   5.215
 9675TIP3   OH228965   5.312   0.381   5.187
 9675TIP3    H128966   5.317   0.290   5.217
 9675TIP3    H228967   5.306   0.375   5.092
 9676TIP3   OH228968   4.543   2.040   2.943
 9676TIP3    H128969   4.462   1.994   2.922
 9676TIP3    H228970   4.516   2.111   3.001
 9677TIP3   OH228971   0.183   5.400   1.723
 9677TIP3    H128972   0.221   5.448   1.797
 9677TIP3    H228973   0.258   5.372   1.671
 9678TIP3   OH228974   6.587   2.886   0.455
 9678TIP3    H128975   6.539   2.941   0.517
 9678TIP3    H228976   6.520   2.830   0.416
 9679TIP3   OH228977   0.853   2.595   1.097
 9679TIP3    H128978   0.846   2.503   1.070
 9679TIP3    H228979   0.948   2.612   1.098
 9680TIP3   OH228980   1.279   2.900   5.876
 9680TIP3    H128981   1.277   2.897   5.972
 9680TIP3    H228982   1.205   2.846   5.849
 9681TIP3   OH228983   0.258   2.337   2.596
 9681TIP3    H128984   0.187   2.275   2.610
 9681TIP3    H228985   0.273   2.336   2.502
 9682TIP3   OH228986   2.212   3.998   4.597
 9682TIP3    H128987   2.300   4.010   4.635
 9682TIP3    H228988   2.196   4.078   4.547
 9683TIP3   OH228989   8.274   7.536   4.574
 9683TIP3    H128990   8.266   7.443   4.556
 9683TIP3    H228991   8.199   7.557   4.630
 9684TIP3   OH228992   1.435   7.457   6.349
 9684TIP3    H128993   1.397   7.437   6.435
 9684TIP3    H228994   1.493   7.383   6.331
 9685TIP3   OH228995   2.225   4.656   5.345
 9685TIP3    H128996   2.161   4.619   5.407
 9685TIP3    H228997   2.199   4.747   5.335
 9686TIP3   OH228998   4.789   4.360   4.904
 9686TIP3    H128999   4.715   4.399   4.858
 9686TIP3    H229000   4.796   4.272   4.868
 9687TIP3   OH229001   1.584   4.928   6.795
 9687TIP3    H129002   1.587   4.983   6.717
 9687TIP3    H229003   1.528   4.975   6.856
 9688TIP3   OH229004   8.067   0.368   1.162
 9688TIP3    H129005   8.134   0.424   1.122
 9688TIP3    H229006   7.986   0.418   1.155
 9689TIP3   OH229007   1.049   6.590   2.678
 9689TIP3    H129008   1.010   6.624   2.759
 9689TIP3    H229009   0.988   6.616   2.609
 9690TIP3   OH229010   0.658   2.252   6.238
 9690TIP3    H129011   0.727   2.269   6.173
 9690TIP3    H229012   0.677   2.164   6.270
 9691TIP3   OH229013   3.626   4.814   0.634
 9691TIP3    H129014   3.571   4.787   0.561
 9691TIP3    H229015   3.665   4.733   0.666
 9692TIP3   OH229016   1.743   0.314   1.301
 9692TIP3    H129017   1.700   0.398   1.314
 9692TIP3    H229018   1.702   0.279   1.221
 9693TIP3   OH229019   5.379   4.060   1.793
 9693TIP3    H129020   5.350   4.129   1.734
 9693TIP3    H229021   5.463   4.032   1.758
 9694TIP3   OH229022   4.935   1.819   6.398
 9694TIP3    H129023   4.946   1.773   6.481
 9694TIP3    H229024   5.003   1.886   6.397
 9695TIP3   OH229025   4.823   6.745   4.098
 9695TIP3    H129026   4.863   6.750   4.011
 9695TIP3    H229027   4.751   6.808   4.094
 9696TIP3   OH229028   7.111   6.814   6.642
 9696TIP3    H129029   7.079   6.767   6.720
 9696TIP3    H229030   7.201   6.838   6.664
 9697TIP3   OH229031   7.365   3.298   1.662
 9697TIP3    H129032   7.373   3.363   1.732
 9697TIP3    H229033   7.438   3.317   1.603
 9698TIP3   OH229034   1.786   6.045   1.529
 9698TIP3    H129035   1.691   6.048   1.520
 9698TIP3    H229036   1.813   5.972   1.473
 9699TIP3   OH229037   3.769   7.554   5.999
 9699TIP3    H129038   3.784   7.648   6.013
 9699TIP3    H229039   3.840   7.527   5.942
 9700TIP3   OH229040   2.686   3.570   3.214
 9700TIP3    H129041   2.697   3.658   3.178
 9700TIP3    H229042   2.635   3.524   3.147
 9701TIP3   OH229043   3.556   7.088   0.860
 9701TIP3    H129044   3.626   7.067   0.922
 9701TIP3    H229045   3.597   7.148   0.798
 9702TIP3   OH229046   3.963   3.967   4.471
 9702TIP3    H129047   3.979   3.905   4.542
 9702TIP3    H229048   3.940   3.912   4.396
 9703TIP3   OH229049   7.198   4.864   3.963
 9703TIP3    H129050   7.156   4.942   3.999
 9703TIP3    H229051   7.291   4.886   3.959
 9704TIP3   OH229052   4.571   3.729   0.170
 9704TIP3    H129053   4.623   3.745   0.091
 9704TIP3    H229054   4.487   3.772   0.152
 9705TIP3   OH229055   2.656   7.244   0.793
 9705TIP3    H129056   2.670   7.225   0.700
 9705TIP3    H229057   2.592   7.315   0.794
 9706TIP3   OH229058   2.373   7.180   2.721
 9706TIP3    H129059   2.415   7.264   2.736
 9706TIP3    H229060   2.317   7.167   2.798
 9707TIP3   OH229061   6.783   5.769   3.967
 9707TIP3    H129062   6.826   5.706   3.908
 9707TIP3    H229063   6.806   5.739   4.054
 9708TIP3   OH229064   6.127   2.416   4.749
 9708TIP3    H129065   6.177   2.497   4.740
 9708TIP3    H229066   6.188   2.355   4.790
 9709TIP3   OH229067   2.148   2.490   4.567
 9709TIP3    H129068   2.167   2.559   4.631
 9709TIP3    H229069   2.180   2.525   4.484
 9710TIP3   OH229070   7.120   5.596   2.293
 9710TIP3    H129071   7.026   5.587   2.276
 9710TIP3    H229072   7.139   5.527   2.356
 9711TIP3   OH229073   4.622   1.437   5.374
 9711TIP3    H129074   4.560   1.509   5.385
 9711TIP3    H229075   4.569   1.358   5.386
 9712TIP3   OH229076   7.808   0.693   6.613
 9712TIP3    H129077   7.868   0.742   6.557
 9712TIP3    H229078   7.861   0.620   6.646
 9713TIP3   OH229079   5.047   2.358   6.165
 9713TIP3    H129080   4.973   2.384   6.110
 9713TIP3    H229081   5.021   2.381   6.254
 9714TIP3   OH229082   8.167   6.836   0.101
 9714TIP3    H129083   8.254   6.877   0.105
 9714TIP3    H229084   8.141   6.827   0.192
 9715TIP3   OH229085   0.721   6.022   5.641
 9715TIP3    H129086   0.734   5.947   5.699
 9715TIP3    H229087   0.745   5.990   5.555
 9716TIP3   OH229088   2.278   4.164   1.434
 9716TIP3    H129089   2.319   4.251   1.439
 9716TIP3    H229090   2.280   4.142   1.341
 9717TIP3   OH229091   0.637   4.671   3.039
 9717TIP3    H129092   0.582   4.613   2.987
 9717TIP3    H229093   0.670   4.735   2.976
 9718TIP3   OH229094   3.305   2.024   1.967
 9718TIP3    H129095   3.342   2.053   2.050
 9718TIP3    H229096   3.238   1.960   1.991
 9719TIP3   OH229097   7.419   1.490   1.762
 9719TIP3    H129098   7.421   1.529   1.674
 9719TIP3    H229099   7.481   1.541   1.813
 9720TIP3   OH229100   4.661   2.362   0.206
 9720TIP3    H129101   4.692   2.277   0.237
 9720TIP3    H229102   4.641   2.411   0.286
 9721TIP3   OH229103   6.563   2.482   4.375
 9721TIP3    H129104   6.495   2.538   4.338
 9721TIP3    H229105   6.528   2.454   4.460
 9722TIP3   OH229106   3.701   3.839   4.956
 9722TIP3    H129107   3.736   3.818   5.042
 9722TIP3    H229108   3.726   3.764   4.901
 9723TIP3   OH229109   6.138   0.332   3.200
 9723TIP3    H129110   6.108   0.248   3.235
 9723TIP3    H229111   6.229   0.315   3.174
 9724TIP3   OH229112   4.719   3.166   3.237
 9724TIP3    H129113   4.749   3.110   3.166
 9724TIP3    H229114   4.724   3.255   3.201
 9725TIP3   OH229115   6.925   1.865   4.341
 9725TIP3    H129116   6.940   1.870   4.247
 9725TIP3    H229117   6.853   1.802   4.351
 9726TIP3   OH229118   1.675   7.933   0.611
 9726TIP3    H129119   1.622   7.895   0.541
 9726TIP3    H229120   1.765   7.913   0.587
 9727TIP3   OH229121   5.368   0.311   2.394
 9727TIP3    H129122   5.281   0.333   2.361
 9727TIP3    H229123   5.420   0.391   2.380
 9728TIP3   OH229124   8.380   6.273   6.540
 9728TIP3    H129125   8.388   6.297   6.448
 9728TIP3    H229126   8.286   6.258   6.553
 9729TIP3   OH229127   6.490   2.626   2.164
 9729TIP3    H129128   6.495   2.660   2.074
 9729TIP3    H229129   6.406   2.581   2.168
 9730TIP3   OH229130   5.837   3.481   6.813
 9730TIP3    H129131   5.912   3.521   6.857
 9730TIP3    H229132   5.796   3.553   6.765
 9731TIP3   OH229133   1.075   6.274   1.851
 9731TIP3    H129134   1.079   6.246   1.943
 9731TIP3    H229135   0.984   6.302   1.839
 9732TIP3   OH229136   1.153   4.723   4.645
 9732TIP3    H129137   1.213   4.796   4.665
 9732TIP3    H229138   1.194   4.646   4.684
 9733TIP3   OH229139   4.721   5.148   4.405
 9733TIP3    H129140   4.725   5.053   4.414
 9733TIP3    H229141   4.670   5.177   4.481
 9734TIP3   OH229142   6.304   7.246   2.965
 9734TIP3    H129143   6.329   7.264   3.056
 9734TIP3    H229144   6.381   7.269   2.913
 9735TIP3   OH229145   2.348   5.510   2.399
 9735TIP3    H129146   2.418   5.575   2.408
 9735TIP3    H229147   2.388   5.428   2.428
 9736TIP3   OH229148   5.832   6.817   0.818
 9736TIP3    H129149   5.794   6.729   0.822
 9736TIP3    H229150   5.769   6.872   0.865
 9737TIP3   OH229151   0.340   2.453   5.329
 9737TIP3    H129152   0.315   2.511   5.257
 9737TIP3    H229153   0.262   2.401   5.348
 9738TIP3   OH229154   6.065   6.937   1.898
 9738TIP3    H129155   5.998   7.004   1.914
 9738TIP3    H229156   6.120   6.975   1.829
 9739TIP3   OH229157   4.959   5.374   2.128
 9739TIP3    H129158   5.036   5.330   2.163
 9739TIP3    H229159   4.906   5.304   2.090
 9740TIP3   OH229160   2.219   1.369   5.089
 9740TIP3    H129161   2.224   1.450   5.038
 9740TIP3    H229162   2.128   1.366   5.119
 9741TIP3   OH229163   2.223   5.685   0.867
 9741TIP3    H129164   2.136   5.666   0.833
 9741TIP3    H229165   2.207   5.738   0.945
 9742TIP3   OH229166   8.262   1.847   0.620
 9742TIP3    H129167   8.193   1.827   0.556
 9742TIP3    H229168   8.215   1.888   0.693
 9743TIP3   OH229169   5.838   2.042   6.772
 9743TIP3    H129170   5.881   2.082   6.848
 9743TIP3    H229171   5.905   2.044   6.703
 9744TIP3   OH229172   2.895   6.225   6.333
 9744TIP3    H129173   2.897   6.301   6.392
 9744TIP3    H229174   2.809   6.186   6.347
 9745TIP3   OH229175   4.938   3.500   5.031
 9745TIP3    H129176   4.864   3.441   5.040
 9745TIP3    H229177   4.906   3.584   5.063
 9746TIP3   OH229178   3.479   1.846   3.149
 9746TIP3    H129179   3.470   1.927   3.099
 9746TIP3    H229180   3.522   1.873   3.231
 9747TIP3   OH229181   2.425   0.215   4.439
 9747TIP3    H129182   2.367   0.223   4.514
 9747TIP3    H229183   2.450   0.123   4.437
 9748TIP3   OH229184   8.394   3.037   5.843
 9748TIP3    H129185   8.458   3.016   5.775
 9748TIP3    H229186   8.333   2.964   5.843
 9749TIP3   OH229187   4.757   3.189   0.880
 9749TIP3    H129188   4.672   3.232   0.890
 9749TIP3    H229189   4.788   3.216   0.793
 9750TIP3   OH229190   5.332   0.788   4.360
 9750TIP3    H129191   5.277   0.807   4.436
 9750TIP3    H229192   5.385   0.713   4.386
 9751TIP3   OH229193   3.633   5.870   5.007
 9751TIP3    H129194   3.624   5.945   5.066
 9751TIP3    H229195   3.544   5.853   4.977
 9752TIP3   OH229196   1.049   5.504   2.713
 9752TIP3    H129197   1.072   5.524   2.804
 9752TIP3    H229198   1.095   5.421   2.695
 9753TIP3   OH229199   0.367   1.939   3.500
 9753TIP3    H129200   0.460   1.918   3.491
 9753TIP3    H229201   0.324   1.888   3.432
 9754TIP3   OH229202   1.440   6.182   3.194
 9754TIP3    H129203   1.504   6.119   3.161
 9754TIP3    H229204   1.384   6.202   3.119
 9755TIP3   OH229205   7.522   4.593   6.627
 9755TIP3    H129206   7.427   4.602   6.624
 9755TIP3    H229207   7.537   4.498   6.627
 9756TIP3   OH229208   7.605   5.625   4.883
 9756TIP3    H129209   7.579   5.546   4.931
 9756TIP3    H229210   7.684   5.599   4.835
 9757TIP3   OH229211   4.607   7.451   1.350
 9757TIP3    H129212   4.669   7.487   1.287
 9757TIP3    H229213   4.526   7.500   1.334
 9758TIP3   OH229214   7.776   1.389   3.026
 9758TIP3    H129215   7.863   1.398   2.987
 9758TIP3    H229216   7.718   1.368   2.952
 9759TIP3   OH229217   4.504   0.603   1.146
 9759TIP3    H129218   4.548   0.569   1.224
 9759TIP3    H229219   4.431   0.655   1.181
 9760TIP3   OH229220   0.934   2.899   5.138
 9760TIP3    H129221   0.891   2.864   5.060
 9760TIP3    H229222   0.961   2.822   5.188
 9761TIP3   OH229223   5.017   1.892   1.610
 9761TIP3    H129224   5.052   1.939   1.685
 9761TIP3    H229225   4.923   1.887   1.627
 9762TIP3   OH229226   1.822   7.755   6.825
 9762TIP3    H129227   1.841   7.684   6.887
 9762TIP3    H229228   1.907   7.791   6.803
 9763TIP3   OH229229   7.690   2.293   0.273
 9763TIP3    H129230   7.786   2.284   0.275
 9763TIP3    H229231   7.658   2.204   0.287
 9764TIP3   OH229232   0.715   4.324   3.013
 9764TIP3    H129233   0.696   4.344   2.921
 9764TIP3    H229234   0.810   4.337   3.021
 9765TIP3   OH229235   6.025   7.062   6.555
 9765TIP3    H129236   5.941   7.087   6.594
 9765TIP3    H229237   6.075   7.022   6.627
 9766TIP3   OH229238   0.305   3.813   4.436
 9766TIP3    H129239   0.390   3.843   4.469
 9766TIP3    H229240   0.323   3.726   4.401
 9767TIP3   OH229241   0.727   5.642   3.044
 9767TIP3    H129242   0.700   5.552   3.064
 9767TIP3    H229243   0.702   5.692   3.121
 9768TIP3   OH229244   7.812   0.323   3.965
 9768TIP3    H129245   7.810   0.318   4.060
 9768TIP3    H229246   7.838   0.413   3.946
 9769TIP3   OH229247   0.247   1.412   0.307
 9769TIP3    H129248   0.172   1.469   0.325
 9769TIP3    H229249   0.323   1.467   0.323
 9770TIP3   OH229250   6.308   3.830   5.346
 9770TIP3    H129251   6.285   3.898   5.282
 9770TIP3    H229252   6.240   3.763   5.335
 9771TIP3   OH229253   4.672   6.938   0.311
 9771TIP3    H129254   4.718   6.938   0.394
 9771TIP3    H229255   4.650   6.846   0.296
 9772TIP3   OH229256   2.899   7.551   3.494
 9772TIP3    H129257   2.986   7.565   3.457
 9772TIP3    H229258   2.854   7.498   3.428
 9773TIP3   OH229259   3.008   5.675   1.329
 9773TIP3    H129260   3.072   5.647   1.263
 9773TIP3    H229261   3.054   5.742   1.380
 9774TIP3   OH229262   7.518   5.763   5.591
 9774TIP3    H129263   7.531   5.857   5.578
 9774TIP3    H229264   7.579   5.739   5.662
 9775TIP3   OH229265   6.498   7.589   2.470
 9775TIP3    H129266   6.448   7.665   2.440
 9775TIP3    H229267   6.449   7.555   2.545
 9776TIP3   OH229268   3.606   0.005   6.470
 9776TIP3    H129269   3.599   0.060   6.548
 9776TIP3    H229270   3.640   0.064   6.402
 9777TIP3   OH229271   1.682   1.283   5.277
 9777TIP3    H129272   1.639   1.357   5.234
 9777TIP3    H229273   1.688   1.309   5.369
 9778TIP3   OH229274   5.087   0.751   1.766
 9778TIP3    H129275   5.116   0.708   1.846
 9778TIP3    H229276   5.004   0.709   1.744
 9779TIP3   OH229277   1.228   6.115   1.663
 9779TIP3    H129278   1.208   6.201   1.701
 9779TIP3    H229279   1.147   6.089   1.620
 9780TIP3   OH229280   8.086   0.168   5.719
 9780TIP3    H129281   8.099   0.110   5.794
 9780TIP3    H229282   8.106   0.114   5.643
 9781TIP3   OH229283   0.738   0.114   2.827
 9781TIP3    H129284   0.714   0.038   2.881
 9781TIP3    H229285   0.698   0.189   2.872
 9782TIP3   OH229286   8.137   0.598   4.447
 9782TIP3    H129287   8.146   0.506   4.423
 9782TIP3    H229288   8.103   0.596   4.536
 9783TIP3   OH229289   3.425   7.319   5.444
 9783TIP3    H129290   3.354   7.360   5.395
 9783TIP3    H229291   3.429   7.229   5.411
 9784TIP3   OH229292   1.008   6.291   3.499
 9784TIP3    H129293   1.049   6.309   3.584
 9784TIP3    H229294   0.916   6.311   3.513
 9785TIP3   OH229295   8.116   4.869   2.351
 9785TIP3    H129296   8.125   4.774   2.356
 9785TIP3    H229297   8.047   4.883   2.286
 9786TIP3   OH229298   4.086   3.040   1.816
 9786TIP3    H129299   4.133   2.986   1.879
 9786TIP3    H229300   4.154   3.074   1.757
 9787TIP3   OH229301   0.546   1.013   4.206
 9787TIP3    H129302   0.564   0.923   4.180
 9787TIP3    H229303   0.542   1.062   4.124
 9788TIP3   OH229304   1.228   4.870   3.286
 9788TIP3    H129305   1.271   4.955   3.279
 9788TIP3    H229306   1.300   4.807   3.293
 9789TIP3   OH229307   0.731   2.101   4.769
 9789TIP3    H129308   0.737   2.011   4.735
 9789TIP3    H229309   0.714   2.154   4.691
 9790TIP3   OH229310   7.688   1.686   6.702
 9790TIP3    H129311   7.640   1.726   6.775
 9790TIP3    H229312   7.649   1.599   6.692
 9791TIP3   OH229313   3.454   4.521   0.765
 9791TIP3    H129314   3.533   4.522   0.820
 9791TIP3    H229315   3.384   4.550   0.824
 9792TIP3   OH229316   4.085   2.150   2.277
 9792TIP3    H129317   4.077   2.055   2.266
 9792TIP3    H229318   4.051   2.187   2.196
 9793TIP3   OH229319   7.606   3.533   2.069
 9793TIP3    H129320   7.551   3.517   1.993
 9793TIP3    H229321   7.694   3.510   2.040
 9794TIP3   OH229322   8.335   5.813   2.412
 9794TIP3    H129323   8.386   5.838   2.490
 9794TIP3    H229324   8.401   5.800   2.344
 9795TIP3   OH229325   6.901   2.036   1.574
 9795TIP3    H129326   6.841   1.977   1.621
 9795TIP3    H229327   6.843   2.094   1.525
 9796TIP3   OH229328   6.110   0.751   3.730
 9796TIP3    H129329   6.175   0.818   3.751
 9796TIP3    H229330   6.124   0.683   3.796
 9797TIP3   OH229331   7.081   5.401   6.035
 9797TIP3    H129332   7.103   5.355   6.116
 9797TIP3    H229333   7.047   5.486   6.064
 9798TIP3   OH229334   4.620   4.609   1.484
 9798TIP3    H129335   4.591   4.659   1.408
 9798TIP3    H229336   4.616   4.671   1.557
 9799TIP3   OH229337   7.886   0.034   3.612
 9799TIP3    H129338   7.908   0.121   3.579
 9799TIP3    H229339   7.909   0.036   3.705
 9800TIP3   OH229340   7.899   2.885   6.194
 9800TIP3    H129341   7.887   2.927   6.108
 9800TIP3    H229342   7.876   2.953   6.257
 9801TIP3   OH229343   4.788   0.327   1.856
 9801TIP3    H129344   4.847   0.300   1.927
 9801TIP3    H229345   4.727   0.388   1.897
 9802TIP3   OH229346   1.056   4.685   0.214
 9802TIP3    H129347   1.108   4.649   0.286
 9802TIP3    H229348   1.100   4.767   0.191
 9803TIP3   OH229349   5.111   2.462   3.505
 9803TIP3    H129350   5.134   2.476   3.597
 9803TIP3    H229351   5.101   2.550   3.469
 9804TIP3   OH229352   6.280   2.584   2.808
 9804TIP3    H129353   6.264   2.678   2.821
 9804TIP3    H229354   6.353   2.581   2.747
 9805TIP3   OH229355   4.883   0.812   0.241
 9805TIP3    H129356   4.950   0.876   0.214
 9805TIP3    H229357   4.894   0.805   0.336
 9806TIP3   OH229358   1.727   7.704   0.180
 9806TIP3    H129359   1.711   7.798   0.173
 9806TIP3    H229360   1.800   7.689   0.119
 9807TIP3   OH229361   4.812   3.203   0.596
 9807TIP3    H129362   4.883   3.249   0.549
 9807TIP3    H229363   4.739   3.203   0.534
 9808TIP3   OH229364   3.254   6.820   6.807
 9808TIP3    H129365   3.224   6.738   6.846
 9808TIP3    H229366   3.293   6.868   6.880
 9809TIP3   OH229367   1.319   2.586   2.440
 9809TIP3    H129368   1.256   2.514   2.444
 9809TIP3    H229369   1.379   2.561   2.370
 9810TIP3   OH229370   5.057   3.389   0.325
 9810TIP3    H129371   5.059   3.466   0.382
 9810TIP3    H229372   4.964   3.369   0.316
 9811TIP3   OH229373   3.528   3.332   5.271
 9811TIP3    H129374   3.599   3.381   5.230
 9811TIP3    H229375   3.460   3.398   5.286
 9812TIP3   OH229376   4.826   6.896   0.751
 9812TIP3    H129377   4.780   6.894   0.668
 9812TIP3    H229378   4.911   6.855   0.733
 9813TIP3   OH229379   2.291   0.955   0.093
 9813TIP3    H129380   2.234   0.956   0.016
 9813TIP3    H229381   2.377   0.932   0.058
 9814TIP3   OH229382   1.724   1.967   5.403
 9814TIP3    H129383   1.801   1.926   5.444
 9814TIP3    H229384   1.660   1.897   5.397
 9815TIP3   OH229385   1.450   4.598   6.283
 9815TIP3    H129386   1.475   4.651   6.208
 9815TIP3    H229387   1.466   4.655   6.359
 9816TIP3   OH229388   5.099   2.451   3.791
 9816TIP3    H129389   5.007   2.434   3.809
 9816TIP3    H229390   5.144   2.369   3.811
 9817TIP3   OH229391   1.821   7.315   3.273
 9817TIP3    H129392   1.880   7.243   3.251
 9817TIP3    H229393   1.867   7.394   3.245
 9818TIP3   OH229394   6.478   1.239   2.544
 9818TIP3    H129395   6.410   1.227   2.611
 9818TIP3    H229396   6.447   1.314   2.492
 9819TIP3   OH229397   5.391   5.524   4.663
 9819TIP3    H129398   5.467   5.488   4.709
 9819TIP3    H229399   5.349   5.581   4.727
 9820TIP3   OH229400   4.275   7.901   4.950
 9820TIP3    H129401   4.223   7.892   5.029
 9820TIP3    H229402   4.362   7.870   4.975
 9821TIP3   OH229403   4.703   3.547   2.464
 9821TIP3    H129404   4.725   3.579   2.551
 9821TIP3    H229405   4.607   3.551   2.460
 9822TIP3   OH229406   2.574   1.606   1.353
 9822TIP3    H129407   2.556   1.558   1.435
 9822TIP3    H229408   2.554   1.542   1.284
 9823TIP3   OH229409   6.469   1.704   2.999
 9823TIP3    H129410   6.443   1.793   3.024
 9823TIP3    H229411   6.421   1.647   3.059
 9824TIP3   OH229412   8.326   1.383   6.331
 9824TIP3    H129413   8.405   1.402   6.280
 9824TIP3    H229414   8.357   1.365   6.419
 9825TIP3   OH229415   4.743   2.088   6.406
 9825TIP3    H129416   4.669   2.148   6.410
 9825TIP3    H229417   4.768   2.087   6.313
 9826TIP3   OH229418   2.469   7.398   4.412
 9826TIP3    H129419   2.512   7.399   4.326
 9826TIP3    H229420   2.401   7.332   4.404
 9827TIP3   OH229421   6.787   3.725   6.069
 9827TIP3    H129422   6.737   3.798   6.105
 9827TIP3    H229423   6.738   3.647   6.095
 9828TIP3   OH229424   4.641   7.062   0.587
 9828TIP3    H129425   4.555   7.026   0.608
 9828TIP3    H229426   4.623   7.150   0.552
 9829TIP3   OH229427   3.988   3.061   6.321
 9829TIP3    H129428   3.915   3.045   6.380
 9829TIP3    H229429   4.042   2.982   6.328
 9830TIP3   OH229430   5.168   4.288   1.368
 9830TIP3    H129431   5.124   4.345   1.305
 9830TIP3    H229432   5.261   4.308   1.359
 9831TIP3   OH229433   1.782   3.694   5.965
 9831TIP3    H129434   1.760   3.614   6.014
 9831TIP3    H229435   1.711   3.705   5.903
 9832TIP3   OH229436   6.479   2.866   5.702
 9832TIP3    H129437   6.559   2.819   5.729
 9832TIP3    H229438   6.409   2.801   5.710
 9833TIP3   OH229439   3.370   1.265   0.164
 9833TIP3    H129440   3.363   1.184   0.114
 9833TIP3    H229441   3.393   1.236   0.253
 9834TIP3   OH229442   1.967   6.599   5.484
 9834TIP3    H129443   2.053   6.631   5.510
 9834TIP3    H229444   1.910   6.617   5.559
 9835TIP3   OH229445   7.859   3.023   6.414
 9835TIP3    H129446   7.766   3.000   6.417
 9835TIP3    H229447   7.861   3.116   6.436
 9836TIP3   OH229448   3.093   5.364   0.734
 9836TIP3    H129449   3.087   5.438   0.673
 9836TIP3    H229450   3.184   5.334   0.725
 9837TIP3   OH229451   3.982   1.276   6.121
 9837TIP3    H129452   4.023   1.363   6.121
 9837TIP3    H229453   3.889   1.293   6.130
 9838TIP3   OH229454   7.264   0.960   3.221
 9838TIP3    H129455   7.267   0.955   3.126
 9838TIP3    H229456   7.312   1.040   3.243
 9839TIP3   OH229457   7.169   1.643   2.950
 9839TIP3    H129458   7.232   1.599   3.008
 9839TIP3    H229459   7.199   1.734   2.948
 9840TIP3   OH229460   7.455   2.293   0.821
 9840TIP3    H129461   7.377   2.311   0.768
 9840TIP3    H229462   7.482   2.205   0.796
 9841TIP3   OH229463   3.155   1.790   1.974
 9841TIP3    H129464   3.065   1.818   1.957
 9841TIP3    H229465   3.156   1.697   1.953
 9842TIP3   OH229466   2.818   4.458   4.632
 9842TIP3    H129467   2.845   4.383   4.579
 9842TIP3    H229468   2.724   4.446   4.646
 9843TIP3   OH229469   0.434   3.158   6.336
 9843TIP3    H129470   0.355   3.105   6.332
 9843TIP3    H229471   0.404   3.244   6.366
 9844TIP3   OH229472   0.427   4.928   4.792
 9844TIP3    H129473   0.339   4.939   4.828
 9844TIP3    H229474   0.471   5.011   4.808
 9845TIP3   OH229475   5.043   0.967   5.884
 9845TIP3    H129476   5.106   0.896   5.871
 9845TIP3    H229477   5.095   1.040   5.917
 9846TIP3   OH229478   4.945   2.474   1.176
 9846TIP3    H129479   4.975   2.385   1.197
 9846TIP3    H229480   4.882   2.461   1.105
 9847TIP3   OH229481   3.318   3.893   2.178
 9847TIP3    H129482   3.268   3.974   2.167
 9847TIP3    H229483   3.385   3.897   2.110
 9848TIP3   OH229484   0.444   7.574   6.417
 9848TIP3    H129485   0.516   7.543   6.472
 9848TIP3    H229486   0.382   7.501   6.415
 9849TIP3   OH229487   4.121   3.338   6.693
 9849TIP3    H129488   4.102   3.317   6.602
 9849TIP3    H229489   4.127   3.433   6.695
 9850TIP3   OH229490   2.625   6.174   2.836
 9850TIP3    H129491   2.713   6.192   2.802
 9850TIP3    H229492   2.584   6.119   2.769
 9851TIP3   OH229493   7.886   3.809   4.708
 9851TIP3    H129494   7.923   3.779   4.791
 9851TIP3    H229495   7.916   3.745   4.643
 9852TIP3   OH229496   3.947   2.797   0.656
 9852TIP3    H129497   3.873   2.836   0.703
 9852TIP3    H229498   3.959   2.711   0.698
 9853TIP3   OH229499   7.529   5.893   4.934
 9853TIP3    H129500   7.434   5.890   4.924
 9853TIP3    H229501   7.555   5.801   4.943
 9854TIP3   OH229502   2.959   2.294   3.738
 9854TIP3    H129503   2.900   2.269   3.667
 9854TIP3    H229504   2.926   2.246   3.814
 9855TIP3   OH229505   3.374   3.794   0.143
 9855TIP3    H129506   3.435   3.853   0.100
 9855TIP3    H229507   3.313   3.852   0.189
 9856TIP3   OH229508   6.937   2.658   5.816
 9856TIP3    H129509   6.926   2.570   5.781
 9856TIP3    H229510   7.005   2.650   5.883
 9857TIP3   OH229511   3.166   5.153   1.302
 9857TIP3    H129512   3.201   5.162   1.213
 9857TIP3    H229513   3.079   5.191   1.298
 9858TIP3   OH229514   7.913   5.222   4.458
 9858TIP3    H129515   7.923   5.168   4.380
 9858TIP3    H229516   7.906   5.158   4.530
 9859TIP3   OH229517   0.142   0.619   2.012
 9859TIP3    H129518   0.064   0.670   1.988
 9859TIP3    H229519   0.119   0.529   1.992
 9860TIP3   OH229520   2.730   7.152   0.528
 9860TIP3    H129521   2.741   7.058   0.519
 9860TIP3    H229522   2.819   7.187   0.522
 9861TIP3   OH229523   2.663   0.226   2.348
 9861TIP3    H129524   2.580   0.258   2.313
 9861TIP3    H229525   2.645   0.206   2.439
 9862TIP3   OH229526   2.545   4.295   0.869
 9862TIP3    H129527   2.564   4.226   0.932
 9862TIP3    H229528   2.455   4.277   0.840
 9863TIP3   OH229529   0.165   2.386   0.357
 9863TIP3    H129530   0.188   2.306   0.405
 9863TIP3    H229531   0.247   2.435   0.351
 9864TIP3   OH229532   8.327   5.960   6.264
 9864TIP3    H129533   8.337   5.946   6.358
 9864TIP3    H229534   8.346   5.875   6.224
 9865TIP3   OH229535   6.944   5.530   2.553
 9865TIP3    H129536   6.870   5.511   2.497
 9865TIP3    H229537   6.985   5.444   2.569
 9866TIP3   OH229538   3.573   1.928   0.889
 9866TIP3    H129539   3.604   1.906   0.801
 9866TIP3    H229540   3.488   1.885   0.895
 9867TIP3   OH229541   8.205   0.847   4.362
 9867TIP3    H129542   8.169   0.759   4.370
 9867TIP3    H229543   8.290   0.842   4.406
 9868TIP3   OH229544   1.902   7.662   6.181
 9868TIP3    H129545   1.828   7.632   6.234
 9868TIP3    H229546   1.979   7.639   6.232
 9869TIP3   OH229547   5.511   1.348   2.775
 9869TIP3    H129548   5.416   1.359   2.781
 9869TIP3    H229549   5.523   1.263   2.733
 9870TIP3   OH229550   5.623   3.784   3.038
 9870TIP3    H129551   5.640   3.796   3.132
 9870TIP3    H229552   5.680   3.712   3.013
 9871TIP3   OH229553   4.920   5.862   5.660
 9871TIP3    H129554   4.969   5.787   5.694
 9871TIP3    H229555   4.953   5.874   5.571
 9872TIP3   OH229556   2.722   6.452   3.441
 9872TIP3    H129557   2.658   6.503   3.392
 9872TIP3    H229558   2.692   6.361   3.432
 9873TIP3   OH229559   5.854   1.048   0.941
 9873TIP3    H129560   5.839   0.957   0.913
 9873TIP3    H229561   5.947   1.063   0.925
 9874TIP3   OH229562   8.250   7.348   1.240
 9874TIP3    H129563   8.320   7.288   1.266
 9874TIP3    H229564   8.285   7.392   1.162
 9875TIP3   OH229565   2.987   4.737   2.082
 9875TIP3    H129566   2.895   4.747   2.107
 9875TIP3    H229567   3.036   4.768   2.158
 9876TIP3   OH229568   4.914   7.073   4.532
 9876TIP3    H129569   4.984   7.047   4.592
 9876TIP3    H229570   4.914   7.168   4.535
 9877TIP3   OH229571   5.056   2.616   3.272
 9877TIP3    H129572   5.042   2.711   3.269
 9877TIP3    H229573   5.110   2.598   3.195
 9878TIP3   OH229574   8.266   4.830   4.571
 9878TIP3    H129575   8.280   4.735   4.570
 9878TIP3    H229576   8.177   4.842   4.602
 9879TIP3   OH229577   0.349   4.600   0.627
 9879TIP3    H129578   0.359   4.685   0.670
 9879TIP3    H229579   0.422   4.595   0.566
 9880TIP3   OH229580   5.631   1.841   1.579
 9880TIP3    H129581   5.684   1.776   1.533
 9880TIP3    H229582   5.557   1.792   1.615
 9881TIP3   OH229583   7.157   2.624   5.964
 9881TIP3    H129584   7.202   2.687   5.907
 9881TIP3    H229585   7.169   2.540   5.922
 9882TIP3   OH229586   6.758   3.648   3.471
 9882TIP3    H129587   6.813   3.669   3.546
 9882TIP3    H229588   6.733   3.734   3.436
 9883TIP3   OH229589   1.940   6.928   3.904
 9883TIP3    H129590   1.907   6.995   3.845
 9883TIP3    H229591   2.031   6.955   3.922
 9884TIP3   OH229592   7.691   6.710   6.832
 9884TIP3    H129593   7.658   6.774   6.769
 9884TIP3    H229594   7.621   6.646   6.841
 9885TIP3   OH229595   0.231   0.969   3.668
 9885TIP3    H129596   0.292   0.955   3.741
 9885TIP3    H229597   0.147   0.985   3.711
 9886TIP3   OH229598   5.840   7.570   5.633
 9886TIP3    H129599   5.836   7.475   5.638
 9886TIP3    H229600   5.928   7.592   5.663
 9887TIP3   OH229601   2.984   6.933   2.344
 9887TIP3    H129602   2.892   6.937   2.316
 9887TIP3    H229603   2.980   6.941   2.439
 9888TIP3   OH229604   6.806   5.105   5.001
 9888TIP3    H129605   6.773   5.165   4.933
 9888TIP3    H229606   6.770   5.139   5.083
 9889TIP3   OH229607   1.721   3.851   0.841
 9889TIP3    H129608   1.689   3.839   0.752
 9889TIP3    H229609   1.646   3.830   0.897
 9890TIP3   OH229610   8.317   5.859   3.054
 9890TIP3    H129611   8.252   5.907   3.105
 9890TIP3    H229612   8.363   5.805   3.118
 9891TIP3   OH229613   0.710   0.506   0.816
 9891TIP3    H129614   0.760   0.426   0.801
 9891TIP3    H229615   0.629   0.476   0.858
 9892TIP3   OH229616   3.820   3.027   4.054
 9892TIP3    H129617   3.740   3.017   4.106
 9892TIP3    H229618   3.891   3.011   4.117
 9893TIP3   OH229619   4.272   2.733   0.027
 9893TIP3    H129620   4.264   2.753   0.121
 9893TIP3    H229621   4.233   2.646   0.018
 9894TIP3   OH229622   1.527   5.887   1.952
 9894TIP3    H129623   1.521   5.865   1.859
 9894TIP3    H229624   1.458   5.952   1.966
 9895TIP3   OH229625   4.185   4.286   5.472
 9895TIP3    H129626   4.268   4.263   5.431
 9895TIP3    H229627   4.198   4.375   5.505
 9896TIP3   OH229628   0.343   6.034   3.491
 9896TIP3    H129629   0.388   5.984   3.560
 9896TIP3    H229630   0.386   6.006   3.410
 9897TIP3   OH229631   4.581   5.318   3.153
 9897TIP3    H129632   4.615   5.392   3.203
 9897TIP3    H229633   4.648   5.299   3.088
 9898TIP3   OH229634   0.365   4.332   5.423
 9898TIP3    H129635   0.288   4.304   5.474
 9898TIP3    H229636   0.420   4.378   5.486
 9899TIP3   OH229637   6.016   3.483   2.218
 9899TIP3    H129638   5.935   3.450   2.180
 9899TIP3    H229639   6.063   3.523   2.145
 9900TIP3   OH229640   4.089   6.245   3.426
 9900TIP3    H129641   4.070   6.162   3.382
 9900TIP3    H229642   4.004   6.280   3.449
 9901TIP3   OH229643   6.398   1.711   6.431
 9901TIP3    H129644   6.384   1.714   6.337
 9901TIP3    H229645   6.489   1.681   6.441
 9902TIP3   OH229646   0.285   5.276   6.047
 9902TIP3    H129647   0.304   5.255   6.138
 9902TIP3    H229648   0.210   5.220   6.025
 9903TIP3   OH229649   1.291   2.919   4.757
 9903TIP3    H129650   1.350   2.852   4.722
 9903TIP3    H229651   1.307   2.919   4.851
 9904TIP3   OH229652   8.274   7.849   1.930
 9904TIP3    H129653   8.263   7.944   1.941
 9904TIP3    H229654   8.187   7.813   1.950
 9905TIP3   OH229655   4.151   2.459   6.507
 9905TIP3    H129656   4.241   2.442   6.536
 9905TIP3    H229657   4.101   2.384   6.540
 9906TIP3   OH229658   3.966   3.367   5.117
 9906TIP3    H129659   3.948   3.298   5.181
 9906TIP3    H229660   3.880   3.396   5.087
 9907TIP3   OH229661   1.333   2.109   2.974
 9907TIP3    H129662   1.305   2.167   2.903
 9907TIP3    H229663   1.377   2.166   3.037
 9908TIP3   OH229664   4.461   7.711   2.328
 9908TIP3    H129665   4.493   7.750   2.246
 9908TIP3    H229666   4.462   7.617   2.312
 9909TIP3   OH229667   0.552   2.752   1.283
 9909TIP3    H129668   0.501   2.698   1.344
 9909TIP3    H229669   0.507   2.837   1.283
 9910TIP3   OH229670   3.744   6.030   0.247
 9910TIP3    H129671   3.739   5.958   0.310
 9910TIP3    H229672   3.655   6.038   0.213
 9911TIP3   OH229673   3.917   1.763   6.041
 9911TIP3    H129674   3.860   1.696   6.080
 9911TIP3    H229675   3.857   1.826   6.002
 9912TIP3   OH229676   7.602  -0.033   2.327
 9912TIP3    H129677   7.661   0.041   2.329
 9912TIP3    H229678   7.514   0.006   2.326
 9913TIP3   OH229679   2.438   6.682   5.686
 9913TIP3    H129680   2.501   6.634   5.633
 9913TIP3    H229681   2.490   6.745   5.735
 9914TIP3   OH229682   7.295   2.091   6.168
 9914TIP3    H129683   7.290   2.158   6.236
 9914TIP3    H229684   7.354   2.025   6.203
 9915TIP3   OH229685   0.689   7.813   3.761
 9915TIP3    H129686   0.769   7.861   3.784
 9915TIP3    H229687   0.619   7.860   3.807
 9916TIP3   OH229688   4.197   1.540   2.063
 9916TIP3    H129689   4.259   1.539   2.137
 9916TIP3    H229690   4.246   1.581   1.992
 9917TIP3   OH229691   0.376   7.795   2.979
 9917TIP3    H129692   0.351   7.741   3.055
 9917TIP3    H229693   0.451   7.845   3.010
 9918TIP3   OH229694   3.405   7.440   3.626
 9918TIP3    H129695   3.416   7.534   3.618
 9918TIP3    H229696   3.487   7.409   3.665
 9919TIP3   OH229697   1.768   3.362   4.543
 9919TIP3    H129698   1.674   3.379   4.532
 9919TIP3    H229699   1.811   3.439   4.506
 9920TIP3   OH229700   3.128   0.949   5.972
 9920TIP3    H129701   3.079   1.018   6.017
 9920TIP3    H229702   3.077   0.869   5.987
 9921TIP3   OH229703   2.637   3.468   3.503
 9921TIP3    H129704   2.607   3.553   3.536
 9921TIP3    H229705   2.665   3.486   3.413
 9922TIP3   OH229706   5.734   4.106   3.728
 9922TIP3    H129707   5.773   4.106   3.641
 9922TIP3    H229708   5.682   4.026   3.731
 9923TIP3   OH229709   5.029   1.308   2.442
 9923TIP3    H129710   5.108   1.356   2.418
 9923TIP3    H229711   4.995   1.355   2.518
 9924TIP3   OH229712   2.118   2.073   0.466
 9924TIP3    H129713   2.162   2.084   0.382
 9924TIP3    H229714   2.137   2.154   0.514
 9925TIP3   OH229715   3.996   2.916   1.254
 9925TIP3    H129716   3.984   2.825   1.280
 9925TIP3    H229717   4.028   2.912   1.164
 9926TIP3   OH229718   6.179   0.390   4.874
 9926TIP3    H129719   6.267   0.398   4.912
 9926TIP3    H229720   6.124   0.443   4.931
 9927TIP3   OH229721   3.095   6.619   5.660
 9927TIP3    H129722   3.016   6.617   5.714
 9927TIP3    H229723   3.064   6.604   5.571
 9928TIP3   OH229724   0.399   2.645   1.521
 9928TIP3    H129725   0.391   2.734   1.554
 9928TIP3    H229726   0.428   2.594   1.596
 9929TIP3   OH229727   4.363   1.236   4.033
 9929TIP3    H129728   4.431   1.176   4.064
 9929TIP3    H229729   4.410   1.318   4.015
 9930TIP3   OH229730   6.989   2.286   4.815
 9930TIP3    H129731   7.022   2.221   4.754
 9930TIP3    H229732   7.034   2.268   4.898
 9931TIP3   OH229733   6.043   0.232   1.958
 9931TIP3    H129734   6.134   0.258   1.939
 9931TIP3    H229735   6.002   0.224   1.871
 9932TIP3   OH229736   0.144   0.163   5.032
 9932TIP3    H129737   0.177   0.091   5.085
 9932TIP3    H229738   0.208   0.174   4.962
 9933TIP3   OH229739   0.573   7.799   5.306
 9933TIP3    H129740   0.605   7.722   5.260
 9933TIP3    H229741   0.479   7.784   5.316
 9934TIP3   OH229742   6.831   2.523   5.528
 9934TIP3    H129743   6.836   2.452   5.592
 9934TIP3    H229744   6.913   2.571   5.539
 9935TIP3   OH229745   1.863   5.091   1.180
 9935TIP3    H129746   1.895   5.133   1.100
 9935TIP3    H229747   1.771   5.071   1.162
 9936TIP3   OH229748   8.030   4.727   2.785
 9936TIP3    H129749   8.073   4.674   2.852
 9936TIP3    H229750   8.097   4.740   2.718
 9937TIP3   OH229751   5.733   5.941   3.821
 9937TIP3    H129752   5.713   5.927   3.913
 9937TIP3    H229753   5.827   5.928   3.814
 9938TIP3   OH229754   3.143   6.443   6.727
 9938TIP3    H129755   3.095   6.504   6.672
 9938TIP3    H229756   3.223   6.423   6.677
 9939TIP3   OH229757   7.198   6.929   3.588
 9939TIP3    H129758   7.237   7.016   3.593
 9939TIP3    H229759   7.234   6.882   3.662
 9940TIP3   OH229760   3.825   3.952   5.933
 9940TIP3    H129761   3.769   3.963   6.009
 9940TIP3    H229762   3.786   4.010   5.866
 9941TIP3   OH229763   0.869   1.216   3.456
 9941TIP3    H129764   0.782   1.182   3.435
 9941TIP3    H229765   0.917   1.140   3.487
 9942TIP3   OH229766   3.581   1.081   1.210
 9942TIP3    H129767   3.657   1.088   1.153
 9942TIP3    H229768   3.511   1.048   1.154
 9943TIP3   OH229769   5.078   6.783   0.707
 9943TIP3    H129770   5.106   6.710   0.652
 9943TIP3    H229771   5.156   6.805   0.758
 9944TIP3   OH229772   7.725   0.456   5.756
 9944TIP3    H129773   7.646   0.451   5.702
 9944TIP3    H229774   7.694   0.444   5.846
 9945TIP3   OH229775   7.424   2.483   5.716
 9945TIP3    H129776   7.360   2.539   5.672
 9945TIP3    H229777   7.441   2.527   5.799
 9946TIP3   OH229778   4.578   3.303   2.679
 9946TIP3    H129779   4.633   3.247   2.625
 9946TIP3    H229780   4.503   3.324   2.624
 9947TIP3   OH229781   2.053   5.781   1.777
 9947TIP3    H129782   2.035   5.740   1.862
 9947TIP3    H229783   2.097   5.712   1.727
 9948TIP3   OH229784   3.158   7.781   2.345
 9948TIP3    H129785   3.164   7.831   2.264
 9948TIP3    H229786   3.091   7.714   2.327
 9949TIP3   OH229787   3.971   7.633   6.689
 9949TIP3    H129788   3.914   7.709   6.682
 9949TIP3    H229789   3.931   7.567   6.634
 9950TIP3   OH229790   1.523   3.761   2.313
 9950TIP3    H129791   1.575   3.790   2.388
 9950TIP3    H229792   1.458   3.829   2.300
 9951TIP3   OH229793   7.529   6.458   6.264
 9951TIP3    H129794   7.459   6.419   6.212
 9951TIP3    H229795   7.540   6.546   6.226
 9952TIP3   OH229796   6.370   6.468   4.599
 9952TIP3    H129797   6.414   6.447   4.682
 9952TIP3    H229798   6.280   6.438   4.611
 9953TIP3   OH229799   6.368   1.383   0.581
 9953TIP3    H129800   6.366   1.423   0.494
 9953TIP3    H229801   6.414   1.447   0.635
 9954TIP3   OH229802   6.324   5.985   5.365
 9954TIP3    H129803   6.382   5.914   5.391
 9954TIP3    H229804   6.266   5.946   5.300
 9955TIP3   OH229805   7.062   3.874   4.134
 9955TIP3    H129806   7.150   3.907   4.152
 9955TIP3    H229807   7.016   3.881   4.218
 9956TIP3   OH229808   2.697   2.880   2.863
 9956TIP3    H129809   2.690   2.854   2.955
 9956TIP3    H229810   2.619   2.843   2.822
 9957TIP3   OH229811   5.058   1.804   2.586
 9957TIP3    H129812   5.139   1.846   2.614
 9957TIP3    H229813   4.995   1.876   2.577
 9958TIP3   OH229814   2.107   7.247   6.870
 9958TIP3    H129815   2.169   7.314   6.843
 9958TIP3    H229816   2.146   7.164   6.843
 9959TIP3   OH229817   4.374   4.415   3.958
 9959TIP3    H129818   4.305   4.391   3.895
 9959TIP3    H229819   4.452   4.372   3.924
 9960TIP3   OH229820   3.018   2.397   5.238
 9960TIP3    H129821   3.000   2.305   5.256
 9960TIP3    H229822   2.995   2.442   5.319
 9961TIP3   OH229823   6.865   0.822   1.039
 9961TIP3    H129824   6.815   0.770   0.975
 9961TIP3    H229825   6.813   0.901   1.052
 9962TIP3   OH229826   4.086   6.866   6.176
 9962TIP3    H129827   4.050   6.895   6.260
 9962TIP3    H229828   4.143   6.938   6.149
 9963TIP3   OH229829   3.104   2.165   4.997
 9963TIP3    H129830   3.138   2.254   4.992
 9963TIP3    H229831   3.009   2.175   5.001
 9964TIP3   OH229832   3.367   0.167   4.475
 9964TIP3    H129833   3.282   0.131   4.497
 9964TIP3    H229834   3.400   0.111   4.405
 9965TIP3   OH229835   4.790   4.026   4.970
 9965TIP3    H129836   4.764   3.951   5.023
 9965TIP3    H229837   4.717   4.087   4.979
 9966TIP3   OH229838   8.001   5.548   6.665
 9966TIP3    H129839   8.088   5.542   6.626
 9966TIP3    H229840   7.997   5.476   6.727
 9967TIP3   OH229841   4.840   7.852   1.159
 9967TIP3    H129842   4.803   7.915   1.221
 9967TIP3    H229843   4.764   7.811   1.118
 9968TIP3   OH229844   0.140   6.565   4.120
 9968TIP3    H129845   0.151   6.527   4.033
 9968TIP3    H229846   0.226   6.555   4.162
 9969TIP3   OH229847   7.605   2.118   1.645
 9969TIP3    H129848   7.655   2.057   1.590
 9969TIP3    H229849   7.575   2.064   1.718
 9970TIP3   OH229850   7.639   0.298   3.749
 9970TIP3    H129851   7.710   0.306   3.813
 9970TIP3    H229852   7.590   0.220   3.777
 9971TIP3   OH229853   7.317   1.825   2.072
 9971TIP3    H129854   7.256   1.765   2.115
 9971TIP3    H229855   7.312   1.906   2.122
 9972TIP3   OH229856   4.185   1.375   1.329
 9972TIP3    H129857   4.196   1.449   1.388
 9972TIP3    H229858   4.094   1.347   1.342
 9973TIP3   OH229859   7.199   0.425   0.113
 9973TIP3    H129860   7.240   0.393   0.033
 9973TIP3    H229861   7.168   0.513   0.091
 9974TIP3   OH229862   7.386   4.124   5.370
 9974TIP3    H129863   7.471   4.101   5.332
 9974TIP3    H229864   7.406   4.152   5.459
 9975TIP3   OH229865   7.653   2.196   2.979
 9975TIP3    H129866   7.684   2.285   2.990
 9975TIP3    H229867   7.715   2.143   3.029
 9976TIP3   OH229868   2.763   1.656   5.450
 9976TIP3    H129869   2.802   1.721   5.391
 9976TIP3    H229870   2.708   1.706   5.510
 9977TIP3   OH229871   1.126   0.096   1.497
 9977TIP3    H129872   1.128   0.015   1.548
 9977TIP3    H229873   1.175   0.075   1.417
 9978TIP3   OH229874   7.605   6.365   2.109
 9978TIP3    H129875   7.649   6.343   2.191
 9978TIP3    H229876   7.513   6.378   2.134
 9979TIP3   OH229877   6.160   3.248   2.147
 9979TIP3    H129878   6.155   3.260   2.052
 9979TIP3    H229879   6.099   3.313   2.182
 9980TIP3   OH229880   1.687   7.381   0.757
 9980TIP3    H129881   1.761   7.345   0.708
 9980TIP3    H229882   1.719   7.388   0.847
 9981TIP3   OH229883   5.455   2.753   0.059
 9981TIP3    H129884   5.444   2.823  -0.005
 9981TIP3    H229885   5.439   2.672   0.009
 9982TIP3   OH229886   3.668   5.315   2.858
 9982TIP3    H129887   3.737   5.262   2.897
 9982TIP3    H229888   3.691   5.405   2.881
 9983TIP3   OH229889   0.812   7.601   1.754
 9983TIP3    H129890   0.799   7.546   1.832
 9983TIP3    H229891   0.774   7.685   1.778
 9984TIP3   OH229892   4.039   5.752   3.909
 9984TIP3    H129893   4.044   5.810   3.833
 9984TIP3    H229894   4.014   5.809   3.981
 9985TIP3   OH229895   6.860   7.432   6.289
 9985TIP3    H129896   6.868   7.374   6.364
 9985TIP3    H229897   6.773   7.472   6.299
 9986TIP3   OH229898   6.522   2.091   1.794
 9986TIP3    H129899   6.523   2.070   1.888
 9986TIP3    H229900   6.608   2.130   1.778
 9987TIP3   OH229901   3.952   0.058   5.885
 9987TIP3    H129902   4.029   0.115   5.884
 9987TIP3    H229903   3.904   0.081   5.806
 9988TIP3   OH229904   0.209   0.061   0.054
 9988TIP3    H129905   0.190   0.055   0.148
 9988TIP3    H229906   0.237  -0.027   0.029
 9989TIP3   OH229907   2.907   7.194   5.899
 9989TIP3    H129908   2.849   7.126   5.935
 9989TIP3    H229909   2.966   7.147   5.840
 9990TIP3   OH229910   2.782   5.980   0.610
 9990TIP3    H129911   2.737   5.997   0.527
 9990TIP3    H229912   2.745   5.896   0.639
 9991TIP3   OH229913   6.962   2.383   3.069
 9991TIP3    H129914   7.001   2.435   3.139
 9991TIP3    H229915   6.882   2.429   3.046
 9992TIP3   OH229916   1.847   1.260   4.525
 9992TIP3    H129917   1.783   1.322   4.557
 9992TIP3    H229918   1.844   1.187   4.587
 9993TIP3   OH229919   2.952   0.803   6.721
 9993TIP3    H129920   2.937   0.720   6.678
 9993TIP3    H229921   2.999   0.856   6.657
 9994TIP3   OH229922   1.628   0.043   0.137
 9994TIP3    H129923   1.624  -0.045   0.100
 9994TIP3    H229924   1.717   0.050   0.172
 9995TIP3   OH229925   7.834   3.834   6.531
 9995TIP3    H129926   7.922   3.865   6.510
 9995TIP3    H229927   7.820   3.862   6.622
 9996TIP3   OH229928   7.407   0.450   1.713
 9996TIP3    H129929   7.445   0.470   1.628
 9996TIP3    H229930   7.432   0.523   1.769
 9997TIP3   OH229931   1.532   4.166   0.814
 9997TIP3    H129932   1.461   4.129   0.761
 9997TIP3    H229933   1.591   4.207   0.750
 9998TIP3   OH229934   2.500   5.744   1.033
 9998TIP3    H129935   2.533   5.834   1.025
 9998TIP3    H229936   2.438   5.734   0.961
 9999TIP3   OH229937   8.094   6.155   1.362
 9999TIP3    H129938   8.049   6.071   1.358
 9999TIP3    H229939   8.080   6.194   1.276
10000TIP3   OH229940   7.242   3.068   5.946
10000TIP3    H129941   7.151   3.048   5.965
10000TIP3    H229942   7.276   2.989   5.904
10001TIP3   OH229943   1.999   3.950   1.193
10001TIP3    H129944   1.973   3.913   1.277
10001TIP3    H229945   1.993   3.878   1.131
10002TIP3   OH229946   0.631   1.088   3.364
10002TIP3    H129947   0.603   1.016   3.420
10002TIP3    H229948   0.657   1.047   3.282
10003TIP3   OH229949   4.417   5.873   0.556
10003TIP3    H129950   4.479   5.806   0.586
10003TIP3    H229951   4.449   5.898   0.470
10004TIP3   OH229952   2.934   3.914   5.173
10004TIP3    H129953   2.888   3.877   5.098
10004TIP3    H229954   2.868   3.966   5.219
10005TIP3   OH229955   4.359   1.201   3.527
10005TIP3    H129956   4.415   1.138   3.572
10005TIP3    H229957   4.272   1.160   3.525
10006TIP3   OH229958   2.826   0.857   4.726
10006TIP3    H129959   2.753   0.885   4.781
10006TIP3    H229960   2.870   0.789   4.777
10007TIP3   OH229961   2.622   3.877   6.282
10007TIP3    H129962   2.594   3.827   6.359
10007TIP3    H229963   2.542   3.889   6.231
10008TIP3   OH229964   7.739   5.507   0.694
10008TIP3    H129965   7.748   5.563   0.617
10008TIP3    H229966   7.659   5.537   0.737
10009TIP3   OH229967   2.673   1.898   1.856
10009TIP3    H129968   2.607   1.829   1.869
10009TIP3    H229969   2.631   1.959   1.796
10010TIP3   OH229970   2.495   2.272   0.504
10010TIP3    H129971   2.512   2.321   0.584
10010TIP3    H229972   2.432   2.205   0.530
10011TIP3   OH229973   2.429   7.215   0.008
10011TIP3    H129974   2.341   7.179   0.022
10011TIP3    H229975   2.486   7.139  -0.001
10012TIP3   OH229976   4.083   3.559   2.793
10012TIP3    H129977   4.040   3.570   2.878
10012TIP3    H229978   4.117   3.469   2.796
10013TIP3   OH229979   5.735   2.071   6.477
10013TIP3    H129980   5.677   2.011   6.524
10013TIP3    H229981   5.816   2.022   6.465
10014TIP3   OH229982   4.332   5.596   2.585
10014TIP3    H129983   4.259   5.561   2.534
10014TIP3    H229984   4.317   5.691   2.585
10015TIP3   OH229985   8.400   5.729   5.770
10015TIP3    H129986   8.306   5.721   5.760
10015TIP3    H229987   8.427   5.647   5.812
10016TIP3   OH229988   5.000   1.232   1.825
10016TIP3    H129989   5.095   1.222   1.826
10016TIP3    H229990   4.979   1.266   1.911
10017TIP3   OH229991   1.233   1.276   1.784
10017TIP3    H129992   1.318   1.304   1.817
10017TIP3    H229993   1.240   1.181   1.776
10018TIP3   OH229994   5.652   4.549   1.400
10018TIP3    H129995   5.729   4.526   1.452
10018TIP3    H229996   5.650   4.644   1.401
10019TIP3   OH229997   6.814   4.593   5.507
10019TIP3    H129998   6.859   4.638   5.578
10019TIP3    H229999   6.759   4.660   5.467
10020TIP3   OH230000   2.294   5.438   0.592
10020TIP3    H130001   2.347   5.455   0.514
10020TIP3    H230002   2.358   5.437   0.664
10021TIP3   OH230003   3.101   6.221   1.071
10021TIP3    H130004   3.194   6.241   1.079
10021TIP3    H230005   3.069   6.278   1.001
10022TIP3   OH230006   2.073   7.047   2.207
10022TIP3    H130007   2.085   6.952   2.210
10022TIP3    H230008   2.016   7.067   2.281
10023TIP3   OH230009   7.093   0.059   2.141
10023TIP3    H130010   7.068   0.018   2.058
10023TIP3    H230011   7.189   0.055   2.141
10024TIP3   OH230012   4.673   3.695   4.490
10024TIP3    H130013   4.655   3.739   4.574
10024TIP3    H230014   4.761   3.725   4.466
10025TIP3   OH230015   3.540   1.890   6.311
10025TIP3    H130016   3.574   1.878   6.399
10025TIP3    H230017   3.618   1.902   6.256
10026TIP3   OH230018   3.643   0.206   3.001
10026TIP3    H130019   3.623   0.277   2.940
10026TIP3    H230020   3.718   0.239   3.051
10027TIP3   OH230021   2.981   4.667   5.656
10027TIP3    H130022   3.006   4.588   5.608
10027TIP3    H230023   2.890   4.651   5.683
10028TIP3   OH230024   4.191   4.389   1.342
10028TIP3    H130025   4.283   4.399   1.317
10028TIP3    H230026   4.180   4.448   1.416
10029TIP3   OH230027   6.626   6.948   5.945
10029TIP3    H130028   6.577   6.907   6.017
10029TIP3    H230029   6.563   6.951   5.873
10030TIP3   OH230030   3.098   6.384   5.821
10030TIP3    H130031   3.118   6.455   5.761
10030TIP3    H230032   3.091   6.425   5.907
10031TIP3   OH230033   4.395   7.762   1.446
10031TIP3    H130034   4.367   7.695   1.383
10031TIP3    H230035   4.358   7.733   1.529
10032TIP3   OH230036   5.682   3.906   2.681
10032TIP3    H130037   5.752   3.969   2.663
10032TIP3    H230038   5.604   3.946   2.642
10033TIP3   OH230039   6.342   2.567   1.840
10033TIP3    H130040   6.437   2.570   1.827
10033TIP3    H230041   6.308   2.531   1.758
10034TIP3   OH230042   8.082   2.021   3.328
10034TIP3    H130043   8.034   1.956   3.279
10034TIP3    H230044   8.046   2.016   3.417
10035TIP3   OH230045   4.282   2.813   0.277
10035TIP3    H130046   4.309   2.905   0.272
10035TIP3    H230047   4.354   2.769   0.321
10036TIP3   OH230048   3.029   5.345   6.106
10036TIP3    H130049   2.980   5.338   6.187
10036TIP3    H230050   3.053   5.438   6.100
10037TIP3   OH230051   7.325   1.248   3.066
10037TIP3    H130052   7.361   1.333   3.042
10037TIP3    H230053   7.348   1.237   3.159
10038TIP3   OH230054   2.165   2.223   1.111
10038TIP3    H130055   2.151   2.129   1.117
10038TIP3    H230056   2.205   2.247   1.195
10039TIP3   OH230057   1.094   6.875   1.603
10039TIP3    H130058   1.079   6.870   1.508
10039TIP3    H230059   1.080   6.786   1.634
10040TIP3   OH230060   5.999   1.125   4.111
10040TIP3    H130061   5.917   1.151   4.152
10040TIP3    H230062   5.975   1.104   4.021
10041TIP3   OH230063   4.322   3.634   1.074
10041TIP3    H130064   4.289   3.609   1.160
10041TIP3    H230065   4.407   3.675   1.091
10042TIP3   OH230066   6.245   5.862   3.808
10042TIP3    H130067   6.211   5.837   3.722
10042TIP3    H230068   6.169   5.863   3.865
10043TIP3   OH230069   1.927   7.366   4.851
10043TIP3    H130070   1.832   7.371   4.861
10043TIP3    H230071   1.956   7.310   4.923
10044TIP3   OH230072   5.362   6.730   0.712
10044TIP3    H130073   5.317   6.646   0.702
10044TIP3    H230074   5.349   6.775   0.629
10045TIP3   OH230075   8.129   6.165   6.310
10045TIP3    H130076   8.179   6.083   6.312
10045TIP3    H230077   8.051   6.147   6.363
10046TIP3   OH230078   0.762   4.407   6.697
10046TIP3    H130079   0.727   4.477   6.751
10046TIP3    H230080   0.849   4.437   6.671
10047TIP3   OH230081   2.656   7.057   6.741
10047TIP3    H130082   2.691   7.004   6.670
10047TIP3    H230083   2.719   7.128   6.753
10048TIP3   OH230084   0.985   3.893   6.013
10048TIP3    H130085   1.021   3.978   6.037
10048TIP3    H230086   1.032   3.830   6.067
10049TIP3   OH230087   3.393   3.942   0.957
10049TIP3    H130088   3.472   3.903   0.921
10049TIP3    H230089   3.424   3.993   1.032
10050TIP3   OH230090   2.977   6.661   6.672
10050TIP3    H130091   2.988   6.748   6.632
10050TIP3    H230092   2.897   6.670   6.724
10051TIP3   OH230093   4.990   4.629   3.570
10051TIP3    H130094   4.910   4.649   3.617
10051TIP3    H230095   5.051   4.598   3.637
10052TIP3   OH230096   0.529   5.608   3.927
10052TIP3    H130097   0.578   5.690   3.927
10052TIP3    H230098   0.465   5.619   3.857
10053TIP3   OH230099   2.548   3.064   3.990
10053TIP3    H130100   2.465   3.016   3.989
10053TIP3    H230101   2.540   3.128   3.919
10054TIP3   OH230102   3.184   3.321   2.343
10054TIP3    H130103   3.276   3.335   2.321
10054TIP3    H230104   3.170   3.373   2.421
10055TIP3   OH230105   0.783   1.592   5.992
10055TIP3    H130106   0.714   1.631   5.939
10055TIP3    H230107   0.804   1.659   6.057
10056TIP3   OH230108   5.090   1.231   5.731
10056TIP3    H130109   5.174   1.274   5.713
10056TIP3    H230110   5.087   1.158   5.670
10057TIP3   OH230111   6.003   4.652   2.971
10057TIP3    H130112   5.963   4.565   2.963
10057TIP3    H230113   6.080   4.637   3.026
10058TIP3   OH230114   4.299   0.132   1.112
10058TIP3    H130115   4.286   0.188   1.036
10058TIP3    H230116   4.301   0.191   1.186
10059TIP3   OH230117   6.077   6.083   0.374
10059TIP3    H130118   6.128   6.112   0.449
10059TIP3    H230119   6.030   6.005   0.405
10060TIP3   OH230120   4.078   3.082   1.017
10060TIP3    H130121   4.003   3.129   0.980
10060TIP3    H230122   4.056   2.989   1.003
10061TIP3   OH230123   4.544   5.110   5.006
10061TIP3    H130124   4.621   5.068   5.044
10061TIP3    H230125   4.571   5.133   4.917
10062TIP3   OH230126   1.668   1.136   2.714
10062TIP3    H130127   1.675   1.225   2.749
10062TIP3    H230128   1.626   1.147   2.629
10063TIP3   OH230129   2.253   4.163   6.029
10063TIP3    H130130   2.204   4.230   5.981
10063TIP3    H230131   2.188   4.123   6.087
10064TIP3   OH230132   1.454   6.612   6.012
10064TIP3    H130133   1.511   6.628   5.937
10064TIP3    H230134   1.513   6.606   6.087
10065TIP3   OH230135   2.482   4.387   0.531
10065TIP3    H130136   2.421   4.359   0.599
10065TIP3    H230137   2.563   4.339   0.550
10066TIP3   OH230138   3.866   3.866   3.749
10066TIP3    H130139   3.950   3.890   3.709
10066TIP3    H230140   3.828   3.950   3.775
10067TIP3   OH230141   7.375   2.988   4.162
10067TIP3    H130142   7.396   3.078   4.187
10067TIP3    H230143   7.281   2.980   4.180
10068TIP3   OH230144   7.954   3.493   4.713
10068TIP3    H130145   7.931   3.466   4.802
10068TIP3    H230146   8.046   3.518   4.719
10069TIP3   OH230147   0.602   7.667   4.309
10069TIP3    H130148   0.642   7.664   4.222
10069TIP3    H230149   0.514   7.631   4.296
10070TIP3   OH230150   5.560   5.409   2.650
10070TIP3    H130151   5.600   5.483   2.604
10070TIP3    H230152   5.620   5.336   2.636
10071TIP3   OH230153   3.296   4.866   6.204
10071TIP3    H130154   3.278   4.960   6.207
10071TIP3    H230155   3.392   4.860   6.201
10072TIP3   OH230156   6.060   1.636   5.939
10072TIP3    H130157   6.111   1.592   5.871
10072TIP3    H230158   6.052   1.726   5.909
10073TIP3   OH230159   3.032   3.315   1.149
10073TIP3    H130160   3.058   3.230   1.186
10073TIP3    H230161   3.063   3.313   1.059
10074TIP3   OH230162   6.116   5.565   3.835
10074TIP3    H130163   6.168   5.537   3.910
10074TIP3    H230164   6.072   5.486   3.805
10075TIP3   OH230165   6.411   0.393   2.119
10075TIP3    H130166   6.442   0.457   2.182
10075TIP3    H230167   6.368   0.325   2.172
10076TIP3   OH230168   7.674   4.617   1.423
10076TIP3    H130169   7.657   4.531   1.385
10076TIP3    H230170   7.641   4.611   1.513
10077TIP3   OH230171   3.939   2.502   3.983
10077TIP3    H130172   3.898   2.481   4.067
10077TIP3    H230173   3.887   2.575   3.949
10078TIP3   OH230174   1.105   0.602   3.107
10078TIP3    H130175   1.041   0.570   3.044
10078TIP3    H230176   1.169   0.650   3.054
10079TIP3   OH230177   7.247   4.034   2.889
10079TIP3    H130178   7.328   4.020   2.938
10079TIP3    H230179   7.192   3.959   2.911
10080TIP3   OH230180   1.446   0.590   3.582
10080TIP3    H130181   1.425   0.561   3.494
10080TIP3    H230182   1.406   0.677   3.589
10081TIP3   OH230183   4.425   3.995   0.117
10081TIP3    H130184   4.347   3.997   0.060
10081TIP3    H230185   4.389   3.989   0.205
10082TIP3   OH230186   6.093   4.467   2.163
10082TIP3    H130187   6.100   4.409   2.238
10082TIP3    H230188   6.015   4.436   2.116
10083TIP3   OH230189   7.215   3.452   1.410
10083TIP3    H130190   7.306   3.450   1.440
10083TIP3    H230191   7.219   3.494   1.325
10084TIP3   OH230192   7.365   0.954   6.200
10084TIP3    H130193   7.298   0.974   6.135
10084TIP3    H230194   7.342   0.867   6.232
10085TIP3   OH230195   2.489   0.409   5.761
10085TIP3    H130196   2.438   0.332   5.788
10085TIP3    H230197   2.474   0.415   5.666
10086TIP3   OH230198   5.962   2.435   3.747
10086TIP3    H130199   6.040   2.487   3.770
10086TIP3    H230200   5.918   2.420   3.830
10087TIP3   OH230201   5.772   2.586   2.942
10087TIP3    H130202   5.815   2.671   2.940
10087TIP3    H230203   5.679   2.606   2.937
10088TIP3   OH230204   6.879   0.421   0.868
10088TIP3    H130205   6.825   0.422   0.788
10088TIP3    H230206   6.820   0.388   0.936
10089TIP3   OH230207   5.668   6.308   4.826
10089TIP3    H130208   5.678   6.401   4.844
10089TIP3    H230209   5.573   6.294   4.827
10090TIP3   OH230210   1.179   7.276   6.259
10090TIP3    H130211   1.168   7.271   6.164
10090TIP3    H230212   1.213   7.190   6.284
10091TIP3   OH230213   4.852   2.115   6.136
10091TIP3    H130214   4.808   2.039   6.099
10091TIP3    H230215   4.936   2.120   6.089
10092TIP3   OH230216   2.169   3.970   6.437
10092TIP3    H130217   2.164   3.874   6.433
10092TIP3    H230218   2.108   3.995   6.506
10093TIP3   OH230219   3.675   3.554   6.681
10093TIP3    H130220   3.695   3.492   6.611
10093TIP3    H230221   3.713   3.514   6.760
10094TIP3   OH230222   0.096   7.255   6.112
10094TIP3    H130223   0.114   7.181   6.170
10094TIP3    H230224   0.153   7.325   6.144
10095TIP3   OH230225   3.960   2.615   5.984
10095TIP3    H130226   3.940   2.569   5.902
10095TIP3    H230227   3.902   2.575   6.048
10096TIP3   OH230228   1.814   6.119   5.417
10096TIP3    H130229   1.822   6.036   5.369
10096TIP3    H230230   1.867   6.181   5.367
10097TIP3   OH230231   2.316   0.122   5.972
10097TIP3    H130232   2.395   0.129   6.024
10097TIP3    H230233   2.247   0.161   6.026
10098TIP3   OH230234   2.320   4.146   4.998
10098TIP3    H130235   2.319   4.206   5.073
10098TIP3    H230236   2.286   4.198   4.925
10099TIP3   OH230237   0.395   4.629   1.016
10099TIP3    H130238   0.339   4.705   1.032
10099TIP3    H230239   0.334   4.556   1.004
10100TIP3   OH230240   2.337   0.963   1.244
10100TIP3    H130241   2.276   1.006   1.305
10100TIP3    H230242   2.348   0.875   1.280
10101TIP3   OH230243   1.312   6.095   1.054
10101TIP3    H130244   1.369   6.097   1.130
10101TIP3    H230245   1.350   6.029   0.996
10102TIP3   OH230246   1.670   0.282   6.736
10102TIP3    H130247   1.619   0.240   6.667
10102TIP3    H230248   1.612   0.279   6.813
10103TIP3   OH230249   7.789   6.833   4.323
10103TIP3    H130250   7.880   6.803   4.322
10103TIP3    H230251   7.738   6.755   4.345
10104TIP3   OH230252   7.599   3.962   2.290
10104TIP3    H130253   7.653   3.921   2.222
10104TIP3    H230254   7.514   3.920   2.283
10105TIP3   OH230255   3.020   5.513   0.218
10105TIP3    H130256   3.008   5.490   0.126
10105TIP3    H230257   3.033   5.429   0.262
10106TIP3   OH230258   2.565   7.673   2.220
10106TIP3    H130259   2.609   7.748   2.180
10106TIP3    H230260   2.548   7.613   2.148
10107TIP3   OH230261   1.723   5.398   5.996
10107TIP3    H130262   1.763   5.434   5.917
10107TIP3    H230263   1.742   5.462   6.065
10108TIP3   OH230264   3.094   4.435   6.518
10108TIP3    H130265   3.004   4.459   6.496
10108TIP3    H230266   3.144   4.515   6.506
10109TIP3   OH230267   3.187   7.892   3.665
10109TIP3    H130268   3.148   7.835   3.731
10109TIP3    H230269   3.239   7.834   3.610
10110TIP3   OH230270   1.139   0.626   3.382
10110TIP3    H130271   1.133   0.647   3.288
10110TIP3    H230272   1.053   0.591   3.404
10111TIP3   OH230273   1.984   0.630   4.918
10111TIP3    H130274   2.079   0.624   4.912
10111TIP3    H230275   1.952   0.587   4.839
10112TIP3   OH230276   3.260   0.950   5.716
10112TIP3    H130277   3.256   0.855   5.704
10112TIP3    H230278   3.253   0.963   5.810
10113TIP3   OH230279   8.099   5.138   6.016
10113TIP3    H130280   8.126   5.168   5.929
10113TIP3    H230281   8.045   5.061   5.999
10114TIP3   OH230282   7.895   5.043   0.996
10114TIP3    H130283   7.936   5.057   0.911
10114TIP3    H230284   7.803   5.063   0.983
10115TIP3   OH230285   5.337   3.565   5.260
10115TIP3    H130286   5.305   3.508   5.190
10115TIP3    H230287   5.415   3.607   5.223
10116TIP3   OH230288   1.579   1.680   0.626
10116TIP3    H130289   1.626   1.601   0.598
10116TIP3    H230290   1.646   1.748   0.628
10117TIP3   OH230291   1.386   5.298   2.872
10117TIP3    H130292   1.353   5.327   2.956
10117TIP3    H230293   1.452   5.233   2.893
10118TIP3   OH230294   3.399   7.681   2.454
10118TIP3    H130295   3.322   7.625   2.445
10118TIP3    H230296   3.430   7.665   2.543
10119TIP3   OH230297   5.828   2.999   0.597
10119TIP3    H130298   5.803   3.042   0.679
10119TIP3    H230299   5.805   2.907   0.610
10120TIP3   OH230300   0.116   3.401   1.133
10120TIP3    H130301   0.096   3.491   1.158
10120TIP3    H230302   0.127   3.355   1.217
10121TIP3   OH230303   5.913   3.248   4.449
10121TIP3    H130304   5.932   3.339   4.429
10121TIP3    H230305   5.937   3.238   4.541
10122TIP3   OH230306   3.628   5.197   2.605
10122TIP3    H130307   3.546   5.153   2.626
10122TIP3    H230308   3.644   5.255   2.679
10123TIP3   OH230309   0.387   2.033   0.994
10123TIP3    H130310   0.474   2.004   0.965
10123TIP3    H230311   0.335   1.953   1.000
10124TIP3   OH230312   2.226   3.491   3.827
10124TIP3    H130313   2.297   3.430   3.848
10124TIP3    H230314   2.271   3.567   3.791
10125TIP3   OH230315   4.872   3.324   5.360
10125TIP3    H130316   4.960   3.306   5.396
10125TIP3    H230317   4.877   3.295   5.269
10126TIP3   OH230318   1.408   0.296   4.765
10126TIP3    H130319   1.408   0.207   4.731
10126TIP3    H230320   1.482   0.339   4.720
10127TIP3   OH230321   1.537   5.577   4.676
10127TIP3    H130322   1.448   5.550   4.695
10127TIP3    H230323   1.571   5.606   4.761
10128TIP3   OH230324   7.838   6.504   0.844
10128TIP3    H130325   7.816   6.590   0.880
10128TIP3    H230326   7.844   6.519   0.749
10129TIP3   OH230327   6.355   1.211   0.192
10129TIP3    H130328   6.325   1.136   0.244
10129TIP3    H230329   6.318   1.287   0.235
10130TIP3   OH230330   2.672   7.021   4.739
10130TIP3    H130331   2.672   7.075   4.660
10130TIP3    H230332   2.622   7.071   4.803
10131TIP3   OH230333   1.680   4.249   5.567
10131TIP3    H130334   1.775   4.251   5.559
10131TIP3    H230335   1.662   4.266   5.659
10132TIP3   OH230336   5.266   3.123   3.181
10132TIP3    H130337   5.188   3.168   3.213
10132TIP3    H230338   5.313   3.190   3.131
10133TIP3   OH230339   2.004   3.911   1.985
10133TIP3    H130340   1.966   3.939   1.902
10133TIP3    H230341   1.947   3.948   2.052
10134TIP3   OH230342   8.135   7.444   2.268
10134TIP3    H130343   8.071   7.429   2.199
10134TIP3    H230344   8.085   7.433   2.349
10135TIP3   OH230345   6.943   7.204   0.533
10135TIP3    H130346   6.890   7.140   0.486
10135TIP3    H230347   6.956   7.275   0.470
10136TIP3   OH230348   7.792   0.735   4.507
10136TIP3    H130349   7.745   0.796   4.450
10136TIP3    H230350   7.862   0.787   4.545
10137TIP3   OH230351   2.809   5.436   5.312
10137TIP3    H130352   2.892   5.436   5.360
10137TIP3    H230353   2.802   5.524   5.276
10138TIP3   OH230354   3.265   4.863   4.581
10138TIP3    H130355   3.203   4.886   4.651
10138TIP3    H230356   3.221   4.889   4.501
10139TIP3   OH230357   7.022   2.210  -0.002
10139TIP3    H130358   6.938   2.255  -0.014
10139TIP3    H230359   7.081   2.278   0.029
10140TIP3   OH230360   0.041   3.923   2.015
10140TIP3    H130361   0.080   3.928   1.927
10140TIP3    H230362   0.016   3.831   2.025
10141TIP3   OH230363   0.203   6.526   2.093
10141TIP3    H130364   0.249   6.586   2.152
10141TIP3    H230365   0.227   6.556   2.005
10142TIP3   OH230366   7.535   6.423   5.947
10142TIP3    H130367   7.530   6.501   5.891
10142TIP3    H230368   7.446   6.389   5.947
10143TIP3   OH230369   6.071   5.508   4.859
10143TIP3    H130370   6.034   5.577   4.805
10143TIP3    H230371   6.002   5.441   4.863
10144TIP3   OH230372   0.491   4.012   6.011
10144TIP3    H130373   0.468   3.951   6.081
10144TIP3    H230374   0.407   4.042   5.976
10145TIP3   OH230375   8.367   6.660   6.072
10145TIP3    H130376   8.375   6.569   6.046
10145TIP3    H230377   8.453   6.698   6.053
10146TIP3   OH230378   3.416   6.660   1.333
10146TIP3    H130379   3.380   6.748   1.323
10146TIP3    H230380   3.509   6.670   1.312
10147TIP3   OH230381   0.022   0.565   4.117
10147TIP3    H130382   0.079   0.490   4.102
10147TIP3    H230383  -0.060   0.542   4.075
10148TIP3   OH230384   6.166   0.797   5.661
10148TIP3    H130385   6.236   0.815   5.597
10148TIP3    H230386   6.095   0.761   5.609
10149TIP3   OH230387   3.823   7.853   6.723
10149TIP3    H130388   3.870   7.925   6.682
10149TIP3    H230389   3.838   7.864   6.817
10150TIP3   OH230390   1.079   0.704   2.531
10150TIP3    H130391   1.161   0.658   2.553
10150TIP3    H230392   1.022   0.635   2.497
10151TIP3   OH230393   2.389   1.908   6.078
10151TIP3    H130394   2.299   1.932   6.055
10151TIP3    H230395   2.404   1.951   6.163
10152TIP3   OH230396   2.184   6.371   4.280
10152TIP3    H130397   2.227   6.450   4.246
10152TIP3    H230398   2.208   6.302   4.218
10153TIP3   OH230399   1.638   4.885   3.921
10153TIP3    H130400   1.556   4.879   3.872
10153TIP3    H230401   1.625   4.828   3.997
10154TIP3   OH230402   1.017   5.847   4.565
10154TIP3    H130403   1.024   5.934   4.604
10154TIP3    H230404   0.924   5.837   4.543
10155TIP3   OH230405   1.163   2.489   4.103
10155TIP3    H130406   1.152   2.503   4.008
10155TIP3    H230407   1.091   2.431   4.127
10156TIP3   OH230408   3.863   3.733   0.964
10156TIP3    H130409   3.893   3.797   1.028
10156TIP3    H230410   3.928   3.663   0.967
10157TIP3   OH230411   4.497   1.573   1.932
10157TIP3    H130412   4.421   1.589   1.876
10157TIP3    H230413   4.520   1.660   1.966
10158TIP3   OH230414   0.425   2.771   2.475
10158TIP3    H130415   0.498   2.713   2.498
10158TIP3    H230416   0.387   2.795   2.559
10159TIP3   OH230417   0.748   4.640   2.584
10159TIP3    H130418   0.753   4.724   2.628
10159TIP3    H230419   0.832   4.633   2.537
10160TIP3   OH230420   4.004   1.751   3.023
10160TIP3    H130421   4.038   1.701   2.949
10160TIP3    H230422   3.939   1.693   3.064
10161TIP3   OH230423   7.660   2.092   6.456
10161TIP3    H130424   7.637   2.014   6.405
10161TIP3    H230425   7.601   2.160   6.422
10162TIP3   OH230426   7.021   0.654   6.501
10162TIP3    H130427   7.024   0.558   6.507
10162TIP3    H230428   7.092   0.683   6.558
10163TIP3   OH230429   0.063   5.530   0.024
10163TIP3    H130430   0.053   5.621  -0.004
10163TIP3    H230431   0.149   5.527   0.065
10164TIP3   OH230432   3.746   6.652   3.239
10164TIP3    H130433   3.828   6.613   3.210
10164TIP3    H230434   3.705   6.585   3.294
10165TIP3   OH230435   3.704   1.117   3.734
10165TIP3    H130436   3.645   1.051   3.696
10165TIP3    H230437   3.786   1.106   3.687
10166TIP3   OH230438   7.134   2.046   3.724
10166TIP3    H130439   7.046   2.016   3.701
10166TIP3    H230440   7.125   2.082   3.813
10167TIP3   OH230441   1.208   2.956   2.459
10167TIP3    H130442   1.246   3.026   2.405
10167TIP3    H230443   1.279   2.929   2.517
10168TIP3   OH230444   5.955   3.648   3.824
10168TIP3    H130445   5.870   3.613   3.798
10168TIP3    H230446   5.945   3.743   3.820
10169TIP3   OH230447   4.897   7.706   4.147
10169TIP3    H130448   4.956   7.694   4.072
10169TIP3    H230449   4.913   7.630   4.203
10170TIP3   OH230450   3.308   7.398   1.188
10170TIP3    H130451   3.315   7.486   1.224
10170TIP3    H230452   3.218   7.392   1.156
10171TIP3   OH230453   7.366   7.438   1.996
10171TIP3    H130454   7.427   7.366   1.982
10171TIP3    H230455   7.310   7.438   1.918
10172TIP3   OH230456   3.319   4.447   4.405
10172TIP3    H130457   3.378   4.513   4.440
10172TIP3    H230458   3.232   4.474   4.434
10173TIP3   OH230459   4.070   7.802   0.319
10173TIP3    H130460   4.138   7.784   0.384
10173TIP3    H230461   4.116   7.802   0.236
10174TIP3   OH230462   7.553   7.437   6.055
10174TIP3    H130463   7.588   7.397   6.135
10174TIP3    H230464   7.475   7.385   6.034
10175TIP3   OH230465   3.967   3.797   6.626
10175TIP3    H130466   3.995   3.887   6.610
10175TIP3    H230467   3.878   3.806   6.661
10176TIP3   OH230468   0.088   4.510   4.223
10176TIP3    H130469   0.069   4.580   4.161
10176TIP3    H230470   0.017   4.515   4.287
10177TIP3   OH230471   6.291   7.219   1.819
10177TIP3    H130472   6.368   7.168   1.843
10177TIP3    H230473   6.260   7.179   1.738
10178TIP3   OH230474   6.554   6.859   0.786
10178TIP3    H130475   6.463   6.830   0.787
10178TIP3    H230476   6.592   6.817   0.710
10179TIP3   OH230477   3.807   0.749   4.986
10179TIP3    H130478   3.808   0.832   4.938
10179TIP3    H230479   3.760   0.769   5.067
10180TIP3   OH230480   1.492   4.807   2.081
10180TIP3    H130481   1.407   4.851   2.089
10180TIP3    H230482   1.555   4.870   2.116
10181TIP3   OH230483   1.310   5.950   2.936
10181TIP3    H130484   1.318   5.883   2.867
10181TIP3    H230485   1.232   5.999   2.913
10182TIP3   OH230486   4.140   7.506   0.987
10182TIP3    H130487   4.161   7.459   0.907
10182TIP3    H230488   4.179   7.453   1.057
10183TIP3   OH230489   3.987   7.201   4.323
10183TIP3    H130490   3.946   7.134   4.378
10183TIP3    H230491   4.016   7.268   4.385
10184TIP3   OH230492   0.382   6.615   0.790
10184TIP3    H130493   0.361   6.588   0.879
10184TIP3    H230494   0.456   6.561   0.764
10185TIP3   OH230495   1.983   6.594   2.543
10185TIP3    H130496   2.069   6.636   2.550
10185TIP3    H230497   1.920   6.666   2.546
10186TIP3   OH230498   2.770   0.561   5.608
10186TIP3    H130499   2.848   0.531   5.654
10186TIP3    H230500   2.720   0.482   5.590
10187TIP3   OH230501   0.135   4.522   2.043
10187TIP3    H130502   0.225   4.496   2.065
10187TIP3    H230503   0.145   4.584   1.971
10188TIP3   OH230504   6.837   2.673   2.647
10188TIP3    H130505   6.817   2.580   2.635
10188TIP3    H230506   6.754   2.718   2.632
10189TIP3   OH230507   2.786   6.750   3.520
10189TIP3    H130508   2.838   6.744   3.439
10189TIP3    H230509   2.832   6.815   3.573
10190TIP3   OH230510   5.644   4.740   4.705
10190TIP3    H130511   5.691   4.672   4.754
10190TIP3    H230512   5.673   4.728   4.615
10191TIP3   OH230513   3.826   4.439   3.283
10191TIP3    H130514   3.790   4.350   3.286
10191TIP3    H230515   3.899   4.433   3.221
10192TIP3   OH230516   5.201   2.563   2.520
10192TIP3    H130517   5.289   2.590   2.546
10192TIP3    H230518   5.204   2.467   2.521
10193TIP3   OH230519   4.453   7.062   5.431
10193TIP3    H130520   4.482   7.050   5.521
10193TIP3    H230521   4.359   7.043   5.433
10194TIP3   OH230522   5.443   7.757   0.052
10194TIP3    H130523   5.450   7.672   0.095
10194TIP3    H230524   5.444   7.821   0.124
10195TIP3   OH230525   1.139   5.398   0.237
10195TIP3    H130526   1.152   5.481   0.283
10195TIP3    H230527   1.188   5.407   0.155
10196TIP3   OH230528   2.425   1.152   1.061
10196TIP3    H130529   2.415   1.099   1.141
10196TIP3    H230530   2.362   1.223   1.072
10197TIP3   OH230531   6.571   3.099   3.281
10197TIP3    H130532   6.617   3.055   3.209
10197TIP3    H230533   6.636   3.161   3.316
10198TIP3   OH230534   0.365   2.661   1.041
10198TIP3    H130535   0.421   2.695   1.111
10198TIP3    H230536   0.425   2.643   0.969
10199TIP3   OH230537   2.973   7.397   0.215
10199TIP3    H130538   2.944   7.343   0.141
10199TIP3    H230539   3.065   7.417   0.195
10200TIP3   OH230540   5.341   1.846   3.201
10200TIP3    H130541   5.436   1.847   3.215
10200TIP3    H230542   5.304   1.843   3.290
10201TIP3   OH230543   3.627   0.289   1.923
10201TIP3    H130544   3.636   0.289   2.019
10201TIP3    H230545   3.717   0.293   1.891
10202TIP3   OH230546   3.787   3.156   1.037
10202TIP3    H130547   3.797   3.112   1.122
10202TIP3    H230548   3.807   3.248   1.055
10203TIP3   OH230549   2.670   6.284   6.670
10203TIP3    H130550   2.578   6.284   6.697
10203TIP3    H230551   2.685   6.195   6.637
10204TIP3   OH230552   6.263   7.550   5.340
10204TIP3    H130553   6.300   7.637   5.328
10204TIP3    H230554   6.336   7.490   5.322
10205TIP3   OH230555   1.162   0.678   0.280
10205TIP3    H130556   1.235   0.650   0.335
10205TIP3    H230557   1.094   0.703   0.342
10206TIP3   OH230558   8.151   2.082   0.194
10206TIP3    H130559   8.206   2.157   0.217
10206TIP3    H230560   8.213   2.010   0.184
10207TIP3   OH230561   6.471   3.577   1.863
10207TIP3    H130562   6.527   3.511   1.904
10207TIP3    H230563   6.395   3.583   1.921
10208TIP3   OH230564   6.914   0.703   5.800
10208TIP3    H130565   6.945   0.613   5.794
10208TIP3    H230566   6.857   0.714   5.724
10209TIP3   OH230567   1.059   2.783   3.152
10209TIP3    H130568   1.154   2.780   3.152
10209TIP3    H230569   1.036   2.822   3.068
10210TIP3   OH230570   1.333   1.884   5.372
10210TIP3    H130571   1.291   1.880   5.286
10210TIP3    H230572   1.423   1.856   5.356
10211TIP3   OH230573   0.300   7.505   3.602
10211TIP3    H130574   0.222   7.559   3.592
10211TIP3    H230575   0.371   7.559   3.566
10212TIP3   OH230576   2.502   5.931   1.312
10212TIP3    H130577   2.418   5.901   1.278
10212TIP3    H230578   2.504   6.025   1.292
10213TIP3   OH230579   2.687   4.323   2.823
10213TIP3    H130580   2.764   4.360   2.865
10213TIP3    H230581   2.717   4.297   2.736
10214TIP3   OH230582   6.187   4.613   3.169
10214TIP3    H130583   6.274   4.602   3.129
10214TIP3    H230584   6.205   4.656   3.253
10215TIP3   OH230585   5.147   3.634   1.118
10215TIP3    H130586   5.137   3.673   1.031
10215TIP3    H230587   5.148   3.708   1.178
10216TIP3   OH230588   3.386   6.114   4.719
10216TIP3    H130589   3.339   6.168   4.655
10216TIP3    H230590   3.400   6.172   4.794
10217TIP3   OH230591   1.977   1.983   4.329
10217TIP3    H130592   1.950   2.074   4.318
10217TIP3    H230593   1.900   1.932   4.305
10218TIP3   OH230594   8.152   6.691   0.767
10218TIP3    H130595   8.184   6.754   0.703
10218TIP3    H230596   8.072   6.729   0.802
10219TIP3   OH230597   1.184   5.633   0.365
10219TIP3    H130598   1.162   5.662   0.454
10219TIP3    H230599   1.261   5.684   0.342
10220TIP3   OH230600   7.379   2.807   5.385
10220TIP3    H130601   7.299   2.840   5.345
10220TIP3    H230602   7.448   2.868   5.357
10221TIP3   OH230603   4.653   0.745   2.602
10221TIP3    H130604   4.565   0.717   2.579
10221TIP3    H230605   4.657   0.736   2.697
10222TIP3   OH230606   6.216   7.320   1.473
10222TIP3    H130607   6.165   7.386   1.427
10222TIP3    H230608   6.156   7.245   1.481
10223TIP3   OH230609   3.696   2.845   0.414
10223TIP3    H130610   3.683   2.794   0.334
10223TIP3    H230611   3.705   2.780   0.483
10224TIP3   OH230612   4.766   6.282   2.832
10224TIP3    H130613   4.700   6.234   2.782
10224TIP3    H230614   4.788   6.357   2.778
10225TIP3   OH230615   0.269   3.721   1.495
10225TIP3    H130616   0.311   3.729   1.409
10225TIP3    H230617   0.292   3.802   1.540
10226TIP3   OH230618   6.234   3.404   0.949
10226TIP3    H130619   6.310   3.459   0.970
10226TIP3    H230620   6.212   3.361   1.032
10227TIP3   OH230621   4.058   1.445   4.312
10227TIP3    H130622   4.025   1.377   4.253
10227TIP3    H230623   4.125   1.401   4.364
10228TIP3   OH230624   4.499   6.677   2.424
10228TIP3    H130625   4.482   6.583   2.425
10228TIP3    H230626   4.422   6.715   2.383
10229TIP3   OH230627   6.308   7.064   5.574
10229TIP3    H130628   6.368   7.003   5.531
10229TIP3    H230629   6.231   7.067   5.518
10230TIP3   OH230630   0.591   5.084   4.305
10230TIP3    H130631   0.542   5.096   4.224
10230TIP3    H230632   0.593   4.990   4.319
10231TIP3   OH230633   7.599   0.620   1.212
10231TIP3    H130634   7.539   0.638   1.140
10231TIP3    H230635   7.601   0.701   1.262
10232TIP3   OH230636   4.108   0.902   2.862
10232TIP3    H130637   4.135   0.957   2.789
10232TIP3    H230638   4.133   0.952   2.940
10233TIP3   OH230639   1.016   2.339   6.383
10233TIP3    H130640   1.104   2.374   6.393
10233TIP3    H230641   0.961   2.394   6.438
10234TIP3   OH230642   4.703   7.575   3.489
10234TIP3    H130643   4.789   7.540   3.468
10234TIP3    H230644   4.642   7.528   3.432
10235TIP3   OH230645   0.536   5.820   6.518
10235TIP3    H130646   0.608   5.769   6.555
10235TIP3    H230647   0.544   5.808   6.424
10236TIP3   OH230648   6.425   6.102   0.461
10236TIP3    H130649   6.429   6.074   0.552
10236TIP3    H230650   6.437   6.022   0.410
10237TIP3   OH230651   1.965   1.619   0.408
10237TIP3    H130652   2.044   1.662   0.442
10237TIP3    H230653   1.999   1.541   0.363
10238TIP3   OH230654   1.754   0.015   3.729
10238TIP3    H130655   1.789  -0.042   3.660
10238TIP3    H230656   1.747   0.101   3.688
10239TIP3   OH230657   7.459   0.793   4.515
10239TIP3    H130658   7.530   0.768   4.456
10239TIP3    H230659   7.491   0.873   4.557
10240TIP3   OH230660   6.316   0.809   6.139
10240TIP3    H130661   6.324   0.728   6.191
10240TIP3    H230662   6.259   0.785   6.066
10241TIP3   OH230663   3.773   6.643   4.036
10241TIP3    H130664   3.754   6.612   3.947
10241TIP3    H230665   3.853   6.595   4.060
10242TIP3   OH230666   2.808   5.464   0.560
10242TIP3    H130667   2.801   5.550   0.518
10242TIP3    H230668   2.792   5.482   0.652
10243TIP3   OH230669   6.765   5.053   4.660
10243TIP3    H130670   6.715   5.101   4.594
10243TIP3    H230671   6.726   5.077   4.743
10244TIP3   OH230672   3.052   0.233   3.640
10244TIP3    H130673   2.985   0.274   3.696
10244TIP3    H230674   3.020   0.145   3.625
10245TIP3   OH230675   1.312   0.281   5.689
10245TIP3    H130676   1.359   0.253   5.611
10245TIP3    H230677   1.371   0.343   5.731
10246TIP3   OH230678   1.537   3.047   4.076
10246TIP3    H130679   1.601   3.103   4.032
10246TIP3    H230680   1.581   2.963   4.084
10247TIP3   OH230681   2.354   7.688   1.735
10247TIP3    H130682   2.410   7.698   1.659
10247TIP3    H230683   2.265   7.695   1.701
10248TIP3   OH230684   3.657   6.278   1.679
10248TIP3    H130685   3.612   6.355   1.644
10248TIP3    H230686   3.660   6.294   1.774
10249TIP3   OH230687   7.542   4.720   2.156
10249TIP3    H130688   7.596   4.656   2.201
10249TIP3    H230689   7.603   4.791   2.134
10250TIP3   OH230690   5.748   5.942   5.942
10250TIP3    H130691   5.786   6.029   5.949
10250TIP3    H230692   5.656   5.953   5.965
10251TIP3   OH230693   5.101   2.234   1.218
10251TIP3    H130694   5.185   2.275   1.235
10251TIP3    H230695   5.115   2.181   1.139
10252TIP3   OH230696   6.345   1.241   1.382
10252TIP3    H130697   6.336   1.154   1.342
10252TIP3    H230698   6.335   1.302   1.310
10253TIP3   OH230699   6.969   0.335   1.372
10253TIP3    H130700   6.914   0.301   1.442
10253TIP3    H230701   6.913   0.398   1.326
10254TIP3   OH230702   5.757   1.836   1.300
10254TIP3    H130703   5.737   1.922   1.335
10254TIP3    H230704   5.757   1.778   1.376
10255TIP3   OH230705   1.694   0.741   4.579
10255TIP3    H130706   1.783   0.768   4.559
10255TIP3    H230707   1.655   0.719   4.494
10256TIP3   OH230708   0.452   7.397   2.341
10256TIP3    H130709   0.396   7.465   2.304
10256TIP3    H230710   0.475   7.341   2.266
10257TIP3   OH230711   2.285   6.287   3.706
10257TIP3    H130712   2.220   6.313   3.772
10257TIP3    H230713   2.365   6.271   3.756
10258TIP3   OH230714   4.339   0.247   1.342
10258TIP3    H130715   4.399   0.317   1.318
10258TIP3    H230716   4.385   0.198   1.411
10259TIP3   OH230717   8.186   5.613   4.266
10259TIP3    H130718   8.096   5.629   4.237
10259TIP3    H230719   8.182   5.530   4.313
10260TIP3   OH230720   4.441   6.387   4.153
10260TIP3    H130721   4.500   6.462   4.157
10260TIP3    H230722   4.459   6.347   4.068
10261TIP3   OH230723   6.243   5.539   0.723
10261TIP3    H130724   6.256   5.623   0.768
10261TIP3    H230725   6.161   5.551   0.675
10262TIP3   OH230726   7.489   0.892   1.788
10262TIP3    H130727   7.504   0.879   1.882
10262TIP3    H230728   7.395   0.878   1.777
10263TIP3   OH230729   0.474   4.508   1.971
10263TIP3    H130730   0.531   4.585   1.966
10263TIP3    H230731   0.421   4.522   2.050
10264TIP3   OH230732   7.326   1.621   6.821
10264TIP3    H130733   7.319   1.591   6.912
10264TIP3    H230734   7.241   1.598   6.782
10265TIP3   OH230735   6.726   7.012   6.589
10265TIP3    H130736   6.822   7.010   6.587
10265TIP3    H230737   6.700   6.920   6.585
10266TIP3   OH230738   7.880   4.493   4.251
10266TIP3    H130739   7.909   4.452   4.333
10266TIP3    H230740   7.868   4.419   4.191
10267TIP3   OH230741   6.551   0.296   6.025
10267TIP3    H130742   6.512   0.237   6.089
10267TIP3    H230743   6.537   0.383   6.062
10268TIP3   OH230744   0.045   1.763   1.672
10268TIP3    H130745   0.106   1.729   1.608
10268TIP3    H230746  -0.040   1.726   1.647
10269TIP3   OH230747   0.919   5.778   3.952
10269TIP3    H130748   0.974   5.785   4.030
10269TIP3    H230749   0.916   5.684   3.933
10270TIP3   OH230750   1.822   2.296   4.739
10270TIP3    H130751   1.906   2.287   4.694
10270TIP3    H230752   1.818   2.219   4.797
10271TIP3   OH230753   7.393   5.491   5.285
10271TIP3    H130754   7.364   5.416   5.336
10271TIP3    H230755   7.327   5.500   5.216
10272TIP3   OH230756   6.769   2.721   6.324
10272TIP3    H130757   6.720   2.706   6.405
10272TIP3    H230758   6.833   2.789   6.346
10273TIP3   OH230759   2.907   4.791   3.636
10273TIP3    H130760   2.943   4.877   3.659
10273TIP3    H230761   2.969   4.729   3.674
10274TIP3   OH230762   6.398   1.804   6.704
10274TIP3    H130763   6.393   1.785   6.610
10274TIP3    H230764   6.372   1.896   6.711
10275TIP3   OH230765   1.480   2.595   1.218
10275TIP3    H130766   1.523   2.544   1.287
10275TIP3    H230767   1.392   2.560   1.214
10276TIP3   OH230768   3.753   4.952   3.116
10276TIP3    H130769   3.663   4.956   3.084
10276TIP3    H230770   3.775   4.859   3.114
10277TIP3   OH230771   3.899   3.218   1.714
10277TIP3    H130772   3.938   3.155   1.774
10277TIP3    H230773   3.916   3.303   1.754
10278TIP3   OH230774   8.287   4.817   2.943
10278TIP3    H130775   8.260   4.821   2.852
10278TIP3    H230776   8.209   4.843   2.993
10279TIP3   OH230777   0.758   0.259   3.521
10279TIP3    H130778   0.704   0.238   3.445
10279TIP3    H230779   0.836   0.205   3.510
10280TIP3   OH230780   4.560   4.485   2.724
10280TIP3    H130781   4.497   4.440   2.780
10280TIP3    H230782   4.565   4.432   2.644
10281TIP3   OH230783   0.610   3.301   6.599
10281TIP3    H130784   0.616   3.391   6.568
10281TIP3    H230785   0.666   3.251   6.540
10282TIP3   OH230786   4.777   5.358   6.156
10282TIP3    H130787   4.739   5.338   6.242
10282TIP3    H230788   4.743   5.445   6.135
10283TIP3   OH230789   1.162   1.009   1.717
10283TIP3    H130790   1.149   0.957   1.796
10283TIP3    H230791   1.196   0.947   1.653
10284TIP3   OH230792   5.960   7.239   2.604
10284TIP3    H130793   6.032   7.282   2.650
10284TIP3    H230794   5.960   7.149   2.640
10285TIP3   OH230795   0.227   4.425   1.239
10285TIP3    H130796   0.154   4.414   1.179
10285TIP3    H230797   0.214   4.511   1.278
10286TIP3   OH230798   7.381   3.712   4.178
10286TIP3    H130799   7.328   3.637   4.204
10286TIP3    H230800   7.428   3.681   4.100
10287TIP3   OH230801   0.267   5.127   3.459
10287TIP3    H130802   0.310   5.066   3.399
10287TIP3    H230803   0.177   5.096   3.464
10288TIP3   OH230804   4.046   4.065   6.539
10288TIP3    H130805   3.988   4.141   6.539
10288TIP3    H230806   4.109   4.083   6.609
10289TIP3   OH230807   0.083   3.919   3.846
10289TIP3    H130808   0.033   3.865   3.908
10289TIP3    H230809   0.016   3.960   3.791
10290TIP3   OH230810   4.101   4.931   3.554
10290TIP3    H130811   4.033   4.937   3.621
10290TIP3    H230812   4.174   4.982   3.588
10291TIP3   OH230813   8.182   1.202   0.326
10291TIP3    H130814   8.109   1.249   0.367
10291TIP3    H230815   8.259   1.254   0.348
10292TIP3   OH230816   0.316   1.568   3.835
10292TIP3    H130817   0.259   1.542   3.908
10292TIP3    H230818   0.332   1.487   3.787
10293TIP3   OH230819   4.821   1.698   1.675
10293TIP3    H130820   4.773   1.620   1.700
10293TIP3    H230821   4.848   1.737   1.758
10294TIP3   OH230822   1.214   4.228   3.607
10294TIP3    H130823   1.291   4.172   3.615
10294TIP3    H230824   1.142   4.166   3.593
10295TIP3   OH230825   4.255   2.530   1.524
10295TIP3    H130826   4.307   2.521   1.444
10295TIP3    H230827   4.185   2.590   1.500
10296TIP3   OH230828   2.256   2.596   6.300
10296TIP3    H130829   2.263   2.682   6.259
10296TIP3    H230830   2.343   2.578   6.335
10297TIP3   OH230831   3.360   3.334   2.867
10297TIP3    H130832   3.265   3.345   2.875
10297TIP3    H230833   3.386   3.399   2.802
10298TIP3   OH230834   7.317   0.497   0.686
10298TIP3    H130835   7.411   0.494   0.702
10298TIP3    H230836   7.290   0.582   0.721
10299TIP3   OH230837   4.786   1.107   3.618
10299TIP3    H130838   4.728   1.067   3.553
10299TIP3    H230839   4.810   1.035   3.676
10300TIP3   OH230840   0.427   2.387   6.884
10300TIP3    H130841   0.442   2.292   6.879
10300TIP3    H230842   0.402   2.412   6.795
10301TIP3   OH230843   7.665   6.683   2.335
10301TIP3    H130844   7.681   6.770   2.373
10301TIP3    H230845   7.714   6.683   2.253
10302TIP3   OH230846   5.092   3.042   1.997
10302TIP3    H130847   4.999   3.051   1.976
10302TIP3    H230848   5.109   3.112   2.060
10303TIP3   OH230849   5.906   6.748   0.414
10303TIP3    H130850   5.970   6.818   0.415
10303TIP3    H230851   5.839   6.776   0.352
10304TIP3   OH230852   4.386   1.634   4.764
10304TIP3    H130853   4.479   1.644   4.743
10304TIP3    H230854   4.372   1.690   4.841
10305TIP3   OH230855   1.239   6.160   4.317
10305TIP3    H130856   1.295   6.227   4.278
10305TIP3    H230857   1.157   6.166   4.268
10306TIP3   OH230858   0.356   5.708   3.683
10306TIP3    H130859   0.415   5.782   3.698
10306TIP3    H230860   0.296   5.709   3.757
10307TIP3   OH230861   7.270   7.495   4.364
10307TIP3    H130862   7.218   7.448   4.298
10307TIP3    H230863   7.250   7.450   4.446
10308TIP3   OH230864   3.257   4.627   4.765
10308TIP3    H130865   3.273   4.682   4.842
10308TIP3    H230866   3.296   4.674   4.692
10309TIP3   OH230867   8.348   4.823   0.467
10309TIP3    H130868   8.383   4.737   0.491
10309TIP3    H230869   8.393   4.844   0.385
10310TIP3   OH230870   7.077   3.834   2.692
10310TIP3    H130871   7.053   3.832   2.785
10310TIP3    H230872   7.034   3.758   2.653
10311TIP3   OH230873   4.585   1.534   1.461
10311TIP3    H130874   4.645   1.523   1.536
10311TIP3    H230875   4.549   1.447   1.446
10312TIP3   OH230876   3.275   5.007   0.478
10312TIP3    H130877   3.270   5.102   0.472
10312TIP3    H230878   3.263   4.976   0.388
10313TIP3   OH230879   6.968   0.504   4.711
10313TIP3    H130880   7.015   0.574   4.756
10313TIP3    H230881   6.997   0.511   4.620
10314TIP3   OH230882   2.329   7.436   2.994
10314TIP3    H130883   2.306   7.400   3.080
10314TIP3    H230884   2.249   7.426   2.942
10315TIP3   OH230885   7.076   7.363   4.537
10315TIP3    H130886   6.981   7.373   4.538
10315TIP3    H230887   7.089   7.269   4.524
10316TIP3   OH230888   6.008   5.815   0.495
10316TIP3    H130889   6.070   5.748   0.468
10316TIP3    H230890   6.004   5.807   0.590
10317TIP3   OH230891   3.549   0.039   1.036
10317TIP3    H130892   3.641   0.015   1.039
10317TIP3    H230893   3.526   0.034   0.943
10318TIP3   OH230894   7.415   4.711   2.539
10318TIP3    H130895   7.428   4.645   2.471
10318TIP3    H230896   7.372   4.664   2.611
10319TIP3   OH230897   5.592   6.703   6.686
10319TIP3    H130898   5.613   6.704   6.779
10319TIP3    H230899   5.498   6.685   6.682
10320TIP3   OH230900   4.934   2.361   5.328
10320TIP3    H130901   5.018   2.344   5.285
10320TIP3    H230902   4.899   2.274   5.347
10321TIP3   OH230903   2.777   1.910   0.945
10321TIP3    H130904   2.825   1.980   0.901
10321TIP3    H230905   2.687   1.942   0.949
10322TIP3   OH230906   6.757   7.840   5.791
10322TIP3    H130907   6.831   7.830   5.732
10322TIP3    H230908   6.783   7.794   5.871
10323TIP3   OH230909   7.665   0.190   5.583
10323TIP3    H130910   7.690   0.233   5.501
10323TIP3    H230911   7.605   0.252   5.625
10324TIP3   OH230912   4.350   4.522   4.275
10324TIP3    H130913   4.355   4.474   4.192
10324TIP3    H230914   4.310   4.459   4.336
10325TIP3   OH230915   1.591   1.111   5.926
10325TIP3    H130916   1.599   1.158   6.009
10325TIP3    H230917   1.610   1.177   5.860
10326TIP3   OH230918   2.885   7.604   4.114
10326TIP3    H130919   2.892   7.669   4.045
10326TIP3    H230920   2.856   7.653   4.191
10327TIP3   OH230921   8.343   5.501   2.452
10327TIP3    H130922   8.348   5.597   2.445
10327TIP3    H230923   8.318   5.485   2.543
10328TIP3   OH230924   6.415   1.052   6.066
10328TIP3    H130925   6.377   0.972   6.102
10328TIP3    H230926   6.376   1.060   5.978
10329TIP3   OH230927   5.642   2.374   1.617
10329TIP3    H130928   5.662   2.287   1.652
10329TIP3    H230929   5.568   2.360   1.557
10330TIP3   OH230930   5.400   0.037   1.919
10330TIP3    H130931   5.443  -0.027   1.975
10330TIP3    H230932   5.448   0.032   1.836
10331TIP3   OH230933   3.191   7.670   0.567
10331TIP3    H130934   3.239   7.626   0.637
10331TIP3    H230935   3.256   7.685   0.498
10332TIP3   OH230936   1.837   7.944   2.487
10332TIP3    H130937   1.754   7.937   2.533
10332TIP3    H230938   1.853   7.857   2.451
10333TIP3   OH230939   7.630   5.102   0.198
10333TIP3    H130940   7.659   5.022   0.155
10333TIP3    H230941   7.709   5.135   0.242
10334TIP3   OH230942   0.412   4.922   1.018
10334TIP3    H130943   0.460   4.869   0.954
10334TIP3    H230944   0.320   4.897   1.006
10335TIP3   OH230945   6.121   3.990   3.486
10335TIP3    H130946   6.184   4.062   3.488
10335TIP3    H230947   6.172   3.913   3.512
10336TIP3   OH230948   5.250   7.185   5.979
10336TIP3    H130949   5.314   7.245   6.018
10336TIP3    H230950   5.270   7.100   6.019
10337TIP3   OH230951   4.309   3.125   4.658
10337TIP3    H130952   4.318   3.078   4.741
10337TIP3    H230953   4.237   3.186   4.673
10338TIP3   OH230954   0.798   6.575   4.574
10338TIP3    H130955   0.838   6.662   4.584
10338TIP3    H230956   0.714   6.583   4.620
10339TIP3   OH230957   2.558   1.430   0.232
10339TIP3    H130958   2.467   1.414   0.256
10339TIP3    H230959   2.580   1.359   0.171
10340TIP3   OH230960   2.412   7.261   1.087
10340TIP3    H130961   2.472   7.187   1.074
10340TIP3    H230962   2.468   7.338   1.083
10341TIP3   OH230963   6.316   7.343   6.453
10341TIP3    H130964   6.396   7.369   6.407
10341TIP3    H230965   6.256   7.314   6.384
10342TIP3   OH230966   3.938   4.979   5.545
10342TIP3    H130967   4.000   5.046   5.572
10342TIP3    H230968   3.901   4.945   5.627
10343TIP3   OH230969   4.330   4.273   4.451
10343TIP3    H130970   4.280   4.305   4.526
10343TIP3    H230971   4.276   4.204   4.413
10344TIP3   OH230972   0.806   4.469   2.228
10344TIP3    H130973   0.846   4.430   2.151
10344TIP3    H230974   0.779   4.395   2.282
10345TIP3   OH230975   6.318   0.081   5.374
10345TIP3    H130976   6.269   0.137   5.315
10345TIP3    H230977   6.373   0.028   5.316
10346TIP3   OH230978   7.312   0.514   4.130
10346TIP3    H130979   7.337   0.598   4.090
10346TIP3    H230980   7.334   0.449   4.064
10347TIP3   OH230981   7.575   4.761   3.628
10347TIP3    H130982   7.568   4.684   3.571
10347TIP3    H230983   7.661   4.753   3.669
10348TIP3   OH230984   7.389   1.782   1.526
10348TIP3    H130985   7.331   1.842   1.572
10348TIP3    H230986   7.468   1.777   1.580
10349TIP3   OH230987   6.269   4.478   1.944
10349TIP3    H130988   6.323   4.550   1.974
10349TIP3    H230989   6.218   4.452   2.021
10350TIP3   OH230990   0.347   7.829   4.195
10350TIP3    H130991   0.293   7.808   4.119
10350TIP3    H230992   0.295   7.798   4.270
10351TIP3   OH230993   2.212   6.238   0.773
10351TIP3    H130994   2.186   6.295   0.701
10351TIP3    H230995   2.214   6.296   0.850
10352TIP3   OH230996   8.276   6.957   5.160
10352TIP3    H130997   8.233   6.984   5.079
10352TIP3    H230998   8.369   6.972   5.145
10353TIP3   OH230999   6.894   2.072   5.786
10353TIP3    H131000   6.856   2.092   5.700
10353TIP3    H231001   6.897   2.157   5.831
10354TIP3   OH231002   0.656   4.404   5.893
10354TIP3    H131003   0.565   4.422   5.869
10354TIP3    H231004   0.697   4.490   5.899
10355TIP3   OH231005   5.132   1.862   1.272
10355TIP3    H131006   5.182   1.849   1.192
10355TIP3    H231007   5.179   1.931   1.319
10356TIP3   OH231008   3.481   5.660   5.398
10356TIP3    H131009   3.569   5.623   5.392
10356TIP3    H231010   3.495   5.749   5.432
10357TIP3   OH231011   1.721   4.821   0.418
10357TIP3    H131012   1.743   4.728   0.411
10357TIP3    H231013   1.676   4.841   0.336
10358TIP3   OH231014   2.212   1.742   5.791
10358TIP3    H131015   2.145   1.688   5.747
10358TIP3    H231016   2.162   1.801   5.847
10359TIP3   OH231017   0.582   0.048   0.685
10359TIP3    H131018   0.664   0.041   0.636
10359TIP3    H231019   0.515   0.064   0.618
10360TIP3   OH231020   1.543   6.061   6.102
10360TIP3    H131021   1.483   6.077   6.029
10360TIP3    H231022   1.630   6.082   6.067
10361TIP3   OH231023   4.386   7.116   0.999
10361TIP3    H131024   4.345   7.072   0.924
10361TIP3    H231025   4.417   7.199   0.963
10362TIP3   OH231026   5.521   7.257   5.012
10362TIP3    H131027   5.572   7.309   4.951
10362TIP3    H231028   5.431   7.266   4.981
10363TIP3   OH231029   1.491   6.878   5.719
10363TIP3    H131030   1.510   6.820   5.792
10363TIP3    H231031   1.396   6.890   5.722
10364TIP3   OH231032   3.227   5.240   2.193
10364TIP3    H131033   3.159   5.282   2.140
10364TIP3    H231034   3.285   5.312   2.219
10365TIP3   OH231035   6.865   2.398   2.629
10365TIP3    H131036   6.949   2.391   2.673
10365TIP3    H231037   6.879   2.361   2.542
10366TIP3   OH231038   6.313   0.909   1.549
10366TIP3    H131039   6.305   0.826   1.596
10366TIP3    H231040   6.405   0.913   1.524
10367TIP3   OH231041   1.002   1.887   0.298
10367TIP3    H131042   1.077   1.845   0.256
10367TIP3    H231043   0.926   1.857   0.248
10368TIP3   OH231044   3.932   4.510   6.074
10368TIP3    H131045   3.886   4.445   6.128
10368TIP3    H231046   3.867   4.537   6.009
10369TIP3   OH231047   5.250   0.695   6.615
10369TIP3    H131048   5.286   0.784   6.620
10369TIP3    H231049   5.319   0.645   6.572
10370TIP3   OH231050   1.597   6.803   6.538
10370TIP3    H131051   1.527   6.839   6.592
10370TIP3    H231052   1.600   6.710   6.561
10371TIP3   OH231053   5.235   5.817   3.163
10371TIP3    H131054   5.316   5.797   3.117
10371TIP3    H231055   5.182   5.738   3.154
10372TIP3   OH231056   5.067   0.057   2.410
10372TIP3    H131057   4.999   0.063   2.477
10372TIP3    H231058   5.065   0.143   2.367
10373TIP3   OH231059   1.441   2.927   5.304
10373TIP3    H131060   1.503   2.859   5.329
10373TIP3    H231061   1.364   2.912   5.360
10374TIP3   OH231062   2.417   4.458   4.920
10374TIP3    H131063   2.496   4.503   4.951
10374TIP3    H231064   2.373   4.430   5.001
10375TIP3   OH231065   1.378   0.440   6.038
10375TIP3    H131066   1.413   0.522   6.075
10375TIP3    H231067   1.389   0.451   5.943
10376TIP3   OH231068   4.205   0.198   4.506
10376TIP3    H131069   4.111   0.215   4.504
10376TIP3    H231070   4.212   0.106   4.530
10377TIP3   OH231071   5.237   2.948   4.601
10377TIP3    H131072   5.197   2.868   4.566
10377TIP3    H231073   5.289   2.982   4.528
10378TIP3   OH231074   0.364   7.536   1.701
10378TIP3    H131075   0.329   7.615   1.660
10378TIP3    H231076   0.429   7.568   1.764
10379TIP3   OH231077   4.500   5.180   1.418
10379TIP3    H131078   4.591   5.195   1.443
10379TIP3    H231079   4.503   5.100   1.365
10380TIP3   OH231080   0.517   5.818   6.268
10380TIP3    H131081   0.543   5.870   6.192
10380TIP3    H231082   0.424   5.834   6.278
10381TIP3   OH231083   0.263   7.796   6.478
10381TIP3    H131084   0.245   7.792   6.384
10381TIP3    H231085   0.350   7.756   6.487
10382TIP3   OH231086   3.700   5.891   0.475
10382TIP3    H131087   3.627   5.943   0.509
10382TIP3    H231088   3.759   5.882   0.550
10383TIP3   OH231089   3.884   2.804   4.539
10383TIP3    H131090   3.925   2.815   4.625
10383TIP3    H231091   3.807   2.750   4.555
10384TIP3   OH231092   2.892   3.831   1.133
10384TIP3    H131093   2.860   3.742   1.123
10384TIP3    H231094   2.937   3.832   1.217
10385TIP3   OH231095   4.053   0.772   1.908
10385TIP3    H131096   4.020   0.769   1.818
10385TIP3    H231097   4.079   0.863   1.921
10386TIP3   OH231098   8.047   7.760   1.077
10386TIP3    H131099   8.043   7.684   1.135
10386TIP3    H231100   7.962   7.761   1.034
10387TIP3   OH231101   0.408   1.652   1.053
10387TIP3    H131102   0.375   1.657   0.963
10387TIP3    H231103   0.454   1.569   1.058
10388TIP3   OH231104   6.480   4.672   2.292
10388TIP3    H131105   6.456   4.582   2.315
10388TIP3    H231106   6.409   4.725   2.328
10389TIP3   OH231107   0.725   4.932   4.945
10389TIP3    H131108   0.744   5.010   4.893
10389TIP3    H231109   0.660   4.960   5.009
10390TIP3   OH231110   3.543   1.771   1.151
10390TIP3    H131111   3.604   1.766   1.225
10390TIP3    H231112   3.586   1.829   1.088
10391TIP3   OH231113   4.384   6.723   0.805
10391TIP3    H131114   4.348   6.802   0.764
10391TIP3    H231115   4.464   6.753   0.848
10392TIP3   OH231116   5.827   2.051   5.402
10392TIP3    H131117   5.838   1.984   5.335
10392TIP3    H231118   5.733   2.050   5.422
10393TIP3   OH231119   2.941   0.431   1.838
10393TIP3    H131120   2.892   0.373   1.779
10393TIP3    H231121   3.033   0.414   1.818
10394TIP3   OH231122   6.438   3.059   1.592
10394TIP3    H131123   6.431   3.153   1.575
10394TIP3    H231124   6.503   3.028   1.529
10395TIP3   OH231125   8.056   5.088   0.111
10395TIP3    H131126   8.090   5.100   0.200
10395TIP3    H231127   8.036   4.995   0.106
10396TIP3   OH231128   0.858   2.432   4.131
10396TIP3    H131129   0.853   2.417   4.036
10396TIP3    H231130   0.861   2.344   4.168
10397TIP3   OH231131   2.112   2.119   2.289
10397TIP3    H131132   2.064   2.143   2.210
10397TIP3    H231133   2.118   2.023   2.286
10398TIP3   OH231134   0.015   4.009   5.265
10398TIP3    H131135   0.057   4.037   5.347
10398TIP3    H231136  -0.049   3.943   5.292
10399TIP3   OH231137   4.899   7.117   4.173
10399TIP3    H131138   4.878   7.133   4.265
10399TIP3    H231139   4.986   7.079   4.175
10400TIP3   OH231140   7.788   3.962   3.642
10400TIP3    H131141   7.804   3.869   3.661
10400TIP3    H231142   7.870   4.006   3.661
10401TIP3   OH231143   5.066   4.071   1.235
10401TIP3    H131144   5.094   4.106   1.320
10401TIP3    H231145   5.003   4.135   1.202
10402TIP3   OH231146   7.243   0.771   0.299
10402TIP3    H131147   7.257   0.812   0.214
10402TIP3    H231148   7.324   0.723   0.316
10403TIP3   OH231149   7.932   7.611   4.361
10403TIP3    H131150   7.943   7.528   4.408
10403TIP3    H231151   7.943   7.678   4.428
10404TIP3   OH231152   6.881   1.140   0.049
10404TIP3    H131153   6.856   1.064   0.101
10404TIP3    H231154   6.804   1.160  -0.004
10405TIP3   OH231155   3.212   3.629   1.952
10405TIP3    H131156   3.152   3.665   1.886
10405TIP3    H231157   3.180   3.540   1.968
10406TIP3   OH231158   7.399   5.702   3.668
10406TIP3    H131159   7.409   5.618   3.624
10406TIP3    H231160   7.449   5.692   3.750
10407TIP3   OH231161   2.765   2.255   1.564
10407TIP3    H131162   2.790   2.321   1.500
10407TIP3    H231163   2.835   2.189   1.559
10408TIP3   OH231164   6.702   4.034   1.734
10408TIP3    H131165   6.658   3.950   1.725
10408TIP3    H231166   6.669   4.070   1.816
10409TIP3   OH231167   4.517   5.976   0.318
10409TIP3    H131168   4.584   5.909   0.305
10409TIP3    H231169   4.543   6.048   0.261
10410TIP3   OH231170   6.340   5.046   3.348
10410TIP3    H131171   6.385   5.126   3.320
10410TIP3    H231172   6.266   5.037   3.288
10411TIP3   OH231173   7.391   3.460   5.089
10411TIP3    H131174   7.482   3.432   5.099
10411TIP3    H231175   7.346   3.384   5.052
10412TIP3   OH231176   1.605   0.101   5.928
10412TIP3    H131177   1.626   0.120   5.837
10412TIP3    H231178   1.637   0.012   5.942
10413TIP3   OH231179   7.083   2.184   2.677
10413TIP3    H131180   7.016   2.136   2.724
10413TIP3    H231181   7.135   2.116   2.633
10414TIP3   OH231182   3.679   1.568   3.350
10414TIP3    H131183   3.648   1.620   3.425
10414TIP3    H231184   3.625   1.598   3.277
10415TIP3   OH231185   8.252   2.060   4.224
10415TIP3    H131186   8.180   2.114   4.256
10415TIP3    H231187   8.226   1.970   4.245
10416TIP3   OH231188   5.006   7.628   6.252
10416TIP3    H131189   5.006   7.635   6.347
10416TIP3    H231190   5.005   7.719   6.221
10417TIP3   OH231191   5.582   3.163   6.827
10417TIP3    H131192   5.660   3.141   6.877
10417TIP3    H231193   5.580   3.098   6.756
10418TIP3   OH231194   2.859   6.321   6.045
10418TIP3    H131195   2.940   6.371   6.053
10418TIP3    H231196   2.867   6.252   6.111
10419TIP3   OH231197   6.485   5.105   3.801
10419TIP3    H131198   6.522   5.101   3.889
10419TIP3    H231199   6.425   5.031   3.796
10420TIP3   OH231200   8.194   5.780   5.200
10420TIP3    H131201   8.271   5.822   5.160
10420TIP3    H231202   8.139   5.853   5.228
10421TIP3   OH231203   1.063   2.797   1.150
10421TIP3    H131204   1.060   2.841   1.235
10421TIP3    H231205   1.047   2.866   1.086
10422TIP3   OH231206   7.056   1.097   6.498
10422TIP3    H131207   7.150   1.081   6.497
10422TIP3    H231208   7.022   1.051   6.422
10423TIP3   OH231209   5.073   7.382   6.379
10423TIP3    H131210   5.048   7.301   6.333
10423TIP3    H231211   5.013   7.448   6.345
10424TIP3   OH231212   5.104   2.025   6.412
10424TIP3    H131213   5.126   2.078   6.489
10424TIP3    H231214   5.129   2.079   6.337
10425TIP3   OH231215   4.653   0.112   5.066
10425TIP3    H131216   4.686   0.025   5.089
10425TIP3    H231217   4.721   0.172   5.098
10426TIP3   OH231218   6.479   5.416   3.796
10426TIP3    H131219   6.546   5.360   3.834
10426TIP3    H231220   6.426   5.356   3.742
10427TIP3   OH231221   0.513   6.578   3.116
10427TIP3    H131222   0.501   6.550   3.025
10427TIP3    H231223   0.448   6.647   3.129
10428TIP3   OH231224   8.099   1.849   1.617
10428TIP3    H131225   8.164   1.887   1.558
10428TIP3    H231226   8.127   1.759   1.630
10429TIP3   OH231227   4.151   7.130   4.088
10429TIP3    H131228   4.091   7.178   4.145
10429TIP3    H231229   4.134   7.164   4.000
10430TIP3   OH231230   7.157   3.027   6.487
10430TIP3    H131231   7.190   2.993   6.404
10430TIP3    H231232   7.217   3.098   6.509
10431TIP3   OH231233   6.055   2.092   3.755
10431TIP3    H131234   6.117   2.165   3.757
10431TIP3    H231235   5.969   2.133   3.758
10432TIP3   OH231236   6.278   3.328   1.602
10432TIP3    H131237   6.222   3.257   1.571
10432TIP3    H231238   6.356   3.323   1.547
10433TIP3   OH231239   3.098   1.183   6.447
10433TIP3    H131240   3.060   1.216   6.529
10433TIP3    H231241   3.117   1.262   6.396
10434TIP3   OH231242   2.598   0.669   1.279
10434TIP3    H131243   2.628   0.745   1.331
10434TIP3    H231244   2.654   0.597   1.308
10435TIP3   OH231245   5.325   1.886   5.628
10435TIP3    H131246   5.351   1.866   5.718
10435TIP3    H231247   5.407   1.888   5.580
10436TIP3   OH231248   2.875   6.402   0.415
10436TIP3    H131249   2.886   6.497   0.410
10436TIP3    H231250   2.959   6.370   0.448
10437TIP3   OH231251   7.589   6.477   2.483
10437TIP3    H131252   7.646   6.406   2.455
10437TIP3    H231253   7.611   6.550   2.426
10438TIP3   OH231254   3.092   4.008   6.160
10438TIP3    H131255   3.182   3.980   6.176
10438TIP3    H231256   3.063   4.044   6.243
10439TIP3   OH231257   6.020   1.155   5.512
10439TIP3    H131258   6.003   1.063   5.493
10439TIP3    H231259   6.053   1.190   5.430
10440TIP3   OH231260   6.794   3.663   4.693
10440TIP3    H131261   6.826   3.749   4.664
10440TIP3    H231262   6.858   3.601   4.659
10441TIP3   OH231263   4.071   6.789   3.019
10441TIP3    H131264   4.058   6.842   3.098
10441TIP3    H231265   3.990   6.802   2.969
10442TIP3   OH231266   7.111   0.078   2.956
10442TIP3    H131267   7.159   0.161   2.954
10442TIP3    H231268   7.178   0.011   2.941
10443TIP3   OH231269   3.249   4.277   5.156
10443TIP3    H131270   3.199   4.347   5.198
10443TIP3    H231271   3.261   4.308   5.066
10444TIP3   OH231272   1.148   2.715   4.280
10444TIP3    H131273   1.231   2.758   4.263
10444TIP3    H231274   1.133   2.660   4.203
10445TIP3   OH231275   5.805   5.456   6.736
10445TIP3    H131276   5.836   5.499   6.657
10445TIP3    H231277   5.885   5.437   6.786
10446TIP3   OH231278   6.044   1.703   4.450
10446TIP3    H131279   5.951   1.723   4.460
10446TIP3    H231280   6.055   1.619   4.496
10447TIP3   OH231281   1.010   2.116   4.786
10447TIP3    H131282   0.917   2.122   4.808
10447TIP3    H231283   1.043   2.206   4.798
10448TIP3   OH231284   8.268   4.718   5.208
10448TIP3    H131285   8.361   4.738   5.199
10448TIP3    H231286   8.265   4.626   5.234
10449TIP3   OH231287   3.210   1.930   4.556
10449TIP3    H131288   3.250   1.979   4.629
10449TIP3    H231289   3.116   1.940   4.569
10450TIP3   OH231290   7.025   1.704   6.302
10450TIP3    H131291   6.981   1.621   6.285
10450TIP3    H231292   6.983   1.766   6.241
10451TIP3   OH231293   4.440   2.438   3.807
10451TIP3    H131294   4.485   2.478   3.882
10451TIP3    H231295   4.360   2.490   3.798
10452TIP3   OH231296   0.237   6.743   3.482
10452TIP3    H131297   0.288   6.736   3.563
10452TIP3    H231298   0.279   6.814   3.433
10453TIP3   OH231299   2.341   2.348   4.742
10453TIP3    H131300   2.334   2.385   4.654
10453TIP3    H231301   2.257   2.305   4.757
10454TIP3   OH231302   1.272   2.815   2.782
10454TIP3    H131303   1.299   2.728   2.752
10454TIP3    H231304   1.344   2.844   2.839
10455TIP3   OH231305   6.235   4.784   0.914
10455TIP3    H131306   6.305   4.843   0.887
10455TIP3    H231307   6.250   4.704   0.863
10456TIP3   OH231308   1.547   6.415   4.482
10456TIP3    H131309   1.514   6.425   4.393
10456TIP3    H231310   1.544   6.320   4.498
10457TIP3   OH231311   3.469   6.473   4.630
10457TIP3    H131312   3.396   6.425   4.590
10457TIP3    H231313   3.468   6.447   4.722
10458TIP3   OH231314   0.074   6.700   4.457
10458TIP3    H131315   0.061   6.626   4.517
10458TIP3    H231316   0.100   6.773   4.513
10459TIP3   OH231317   5.800   4.416   2.160
10459TIP3    H131318   5.831   4.326   2.152
10459TIP3    H231319   5.793   4.430   2.255
10460TIP3   OH231320   4.944   2.743   5.066
10460TIP3    H131321   4.848   2.743   5.066
10460TIP3    H231322   4.967   2.793   5.145
10461TIP3   OH231323   0.112   4.234   0.376
10461TIP3    H131324   0.104   4.229   0.471
10461TIP3    H231325   0.079   4.321   0.354
10462TIP3   OH231326   3.023   6.792   4.920
10462TIP3    H131327   3.079   6.717   4.903
10462TIP3    H231328   2.965   6.798   4.844
10463TIP3   OH231329   5.829   1.312   4.332
10463TIP3    H131330   5.831   1.406   4.350
10463TIP3    H231331   5.798   1.305   4.242
10464TIP3   OH231332   5.442   3.732   1.102
10464TIP3    H131333   5.423   3.684   1.182
10464TIP3    H231334   5.359   3.774   1.080
10465TIP3   OH231335   5.926   6.685   5.828
10465TIP3    H131336   5.988   6.724   5.767
10465TIP3    H231337   5.899   6.757   5.885
10466TIP3   OH231338   8.236   1.687   3.089
10466TIP3    H131339   8.206   1.753   3.028
10466TIP3    H231340   8.156   1.657   3.133
10467TIP3   OH231341   5.097   7.651   3.954
10467TIP3    H131342   5.088   7.636   3.860
10467TIP3    H231343   5.192   7.645   3.970
10468TIP3   OH231344   6.506   7.829   1.396
10468TIP3    H131345   6.525   7.740   1.425
10468TIP3    H231346   6.449   7.865   1.465
10469TIP3   OH231347   4.748   2.549   6.709
10469TIP3    H131348   4.728   2.456   6.720
10469TIP3    H231349   4.840   2.556   6.737
10470TIP3   OH231350   1.498   3.414   2.662
10470TIP3    H131351   1.488   3.510   2.661
10470TIP3    H231352   1.512   3.391   2.570
10471TIP3   OH231353   1.758   7.524   3.983
10471TIP3    H131354   1.799   7.478   3.909
10471TIP3    H231355   1.781   7.472   4.060
10472TIP3   OH231356   6.427   4.333   2.157
10472TIP3    H131357   6.469   4.250   2.179
10472TIP3    H231358   6.397   4.322   2.067
10473TIP3   OH231359   4.450   3.155   6.023
10473TIP3    H131360   4.476   3.093   6.091
10473TIP3    H231361   4.383   3.209   6.066
10474TIP3   OH231362   1.822   1.895   5.826
10474TIP3    H131363   1.776   1.813   5.844
10474TIP3    H231364   1.785   1.957   5.889
10475TIP3   OH231365   1.994   4.764   0.634
10475TIP3    H131366   1.992   4.753   0.539
10475TIP3    H231367   2.087   4.774   0.655
10476TIP3   OH231368   4.982   7.160   5.914
10476TIP3    H131369   5.061   7.195   5.955
10476TIP3    H231370   4.991   7.181   5.821
10477TIP3   OH231371   0.406   2.010   3.779
10477TIP3    H131372   0.501   1.999   3.777
10477TIP3    H231373   0.375   1.971   3.697
10478TIP3   OH231374   6.676   3.007   1.410
10478TIP3    H131375   6.674   3.082   1.350
10478TIP3    H231376   6.747   3.027   1.471
10479TIP3   OH231377   7.179   2.890   4.972
10479TIP3    H131378   7.115   2.904   4.902
10479TIP3    H231379   7.242   2.828   4.934
10480TIP3   OH231380   7.912   1.842   0.697
10480TIP3    H131381   7.879   1.874   0.613
10480TIP3    H231382   7.945   1.920   0.742
10481TIP3   OH231383   7.462   0.609   0.224
10481TIP3    H131384   7.411   0.644   0.151
10481TIP3    H231385   7.491   0.523   0.193
10482TIP3   OH231386   5.666   7.004   0.905
10482TIP3    H131387   5.652   7.018   0.811
10482TIP3    H231388   5.585   6.963   0.936
10483TIP3   OH231389   7.575   7.746   6.348
10483TIP3    H131390   7.506   7.812   6.351
10483TIP3    H231391   7.531   7.664   6.370
10484TIP3   OH231392   7.068   4.535   2.379
10484TIP3    H131393   6.979   4.548   2.344
10484TIP3    H231394   7.073   4.596   2.453
10485TIP3   OH231395   7.063   6.657   5.931
10485TIP3    H131396   6.976   6.698   5.926
10485TIP3    H231397   7.057   6.599   6.008
10486TIP3   OH231398   6.591   0.427   0.906
10486TIP3    H131399   6.496   0.424   0.906
10486TIP3    H231400   6.617   0.393   0.991
10487TIP3   OH231401   4.561   0.231   6.017
10487TIP3    H131402   4.561   0.244   6.111
10487TIP3    H231403   4.597   0.313   5.981
10488TIP3   OH231404   2.144   5.552   3.284
10488TIP3    H131405   2.134   5.487   3.215
10488TIP3    H231406   2.102   5.631   3.250
10489TIP3   OH231407   3.387   6.830   3.179
10489TIP3    H131408   3.436   6.912   3.189
10489TIP3    H231409   3.394   6.788   3.265
10490TIP3   OH231410   2.815   1.233   6.343
10490TIP3    H131411   2.910   1.222   6.350
10490TIP3    H231412   2.796   1.216   6.251
10491TIP3   OH231413   7.845   2.916   1.567
10491TIP3    H131414   7.808   2.882   1.485
10491TIP3    H231415   7.804   3.002   1.578
10492TIP3   OH231416   7.205   0.697   5.977
10492TIP3    H131417   7.293   0.672   5.947
10492TIP3    H231418   7.190   0.782   5.936
10493TIP3   OH231419   5.935   5.355   5.392
10493TIP3    H131420   5.870   5.418   5.426
10493TIP3    H231421   5.913   5.347   5.300
10494TIP3   OH231422   2.724   5.213   5.654
10494TIP3    H131423   2.694   5.226   5.745
10494TIP3    H231424   2.651   5.246   5.601
10495TIP3   OH231425   3.233   2.021   3.629
10495TIP3    H131426   3.254   2.057   3.543
10495TIP3    H231427   3.222   2.097   3.685
10496TIP3   OH231428   6.330   5.044   6.722
10496TIP3    H131429   6.355   5.007   6.806
10496TIP3    H231430   6.390   5.118   6.709
10497TIP3   OH231431   3.448   4.056   1.479
10497TIP3    H131432   3.461   4.145   1.448
10497TIP3    H231433   3.356   4.037   1.462
10498TIP3   OH231434   4.601   3.869   5.673
10498TIP3    H131435   4.571   3.958   5.654
10498TIP3    H231436   4.524   3.814   5.657
10499TIP3   OH231437   7.383   3.878   1.459
10499TIP3    H131438   7.419   3.866   1.547
10499TIP3    H231439   7.408   3.798   1.413
10500TIP3   OH231440   2.176   1.367   1.858
10500TIP3    H131441   2.108   1.397   1.798
10500TIP3    H231442   2.218   1.294   1.813
10501TIP3   OH231443   4.595   7.901   6.085
10501TIP3    H131444   4.510   7.944   6.080
10501TIP3    H231445   4.625   7.916   6.174
10502TIP3   OH231446   2.061   6.421   2.299
10502TIP3    H131447   2.036   6.465   2.380
10502TIP3    H231448   2.135   6.472   2.265
10503TIP3   OH231449   1.531   4.244   2.062
10503TIP3    H131450   1.514   4.196   1.981
10503TIP3    H231451   1.467   4.316   2.060
10504TIP3   OH231452   4.995   3.851   4.671
10504TIP3    H131453   5.029   3.881   4.587
10504TIP3    H231454   4.901   3.869   4.667
10505TIP3   OH231455   0.792   7.463   2.683
10505TIP3    H131456   0.793   7.554   2.712
10505TIP3    H231457   0.767   7.412   2.760
10506TIP3   OH231458   6.145   1.998   5.366
10506TIP3    H131459   6.207   2.067   5.344
10506TIP3    H231460   6.059   2.039   5.356
10507TIP3   OH231461   4.525   0.016   4.035
10507TIP3    H131462   4.528   0.087   4.100
10507TIP3    H231463   4.516   0.061   3.951
10508TIP3   OH231464   0.406   4.643   4.206
10508TIP3    H131465   0.356   4.564   4.222
10508TIP3    H231466   0.393   4.661   4.112
10509TIP3   OH231467   2.024   3.815   5.497
10509TIP3    H131468   2.061   3.765   5.569
10509TIP3    H231469   2.099   3.840   5.444
10510TIP3   OH231470   6.332   3.883   1.509
10510TIP3    H131471   6.349   3.946   1.439
10510TIP3    H231472   6.286   3.811   1.467
10511TIP3   OH231473   6.992   1.393   1.865
10511TIP3    H131474   7.051   1.465   1.842
10511TIP3    H231475   6.917   1.404   1.806
10512TIP3   OH231476   3.795   6.621   1.996
10512TIP3    H131477   3.729   6.689   2.001
10512TIP3    H231478   3.878   6.668   1.985
10513TIP3   OH231479   1.323   5.083   4.088
10513TIP3    H131480   1.346   5.175   4.099
10513TIP3    H231481   1.238   5.084   4.044
10514TIP3   OH231482   7.488   7.504   6.475
10514TIP3    H131483   7.414   7.510   6.536
10514TIP3    H231484   7.529   7.420   6.496
10515TIP3   OH231485   0.295   6.530   4.346
10515TIP3    H131486   0.299   6.464   4.416
10515TIP3    H231487   0.229   6.592   4.377
10516TIP3   OH231488   0.942   5.664   5.798
10516TIP3    H131489   0.973   5.574   5.810
10516TIP3    H231490   1.020   5.714   5.774
10517TIP3   OH231491   4.511   0.306   2.672
10517TIP3    H131492   4.497   0.223   2.627
10517TIP3    H231493   4.434   0.318   2.727
10518TIP3   OH231494   3.315   2.148   5.204
10518TIP3    H131495   3.244   2.131   5.141
10518TIP3    H231496   3.354   2.063   5.221
10519TIP3   OH231497   6.617   3.008   6.056
10519TIP3    H131498   6.680   3.044   6.118
10519TIP3    H231499   6.594   3.081   6.000
10520TIP3   OH231500   1.930   2.331   5.981
10520TIP3    H131501   1.909   2.348   5.890
10520TIP3    H231502   1.983   2.406   6.008
10521TIP3   OH231503   4.259   1.634   0.603
10521TIP3    H131504   4.238   1.662   0.692
10521TIP3    H231505   4.346   1.670   0.586
10522TIP3   OH231506   0.908   0.388   6.782
10522TIP3    H131507   0.902   0.351   6.694
10522TIP3    H231508   1.000   0.409   6.793
10523TIP3   OH231509   7.216   5.004   5.080
10523TIP3    H131510   7.199   5.029   4.990
10523TIP3    H231511   7.307   4.972   5.079
10524TIP3   OH231512   4.499   6.979   4.285
10524TIP3    H131513   4.579   6.952   4.329
10524TIP3    H231514   4.507   6.945   4.196
10525TIP3   OH231515   1.852   0.914   5.834
10525TIP3    H131516   1.849   0.926   5.739
10525TIP3    H231517   1.894   0.993   5.867
10526TIP3   OH231518   3.444   6.183   0.682
10526TIP3    H131519   3.414   6.271   0.660
10526TIP3    H231520   3.468   6.144   0.598
10527TIP3   OH231521   3.610   1.868   2.850
10527TIP3    H131522   3.532   1.844   2.799
10527TIP3    H231523   3.581   1.941   2.904
10528TIP3   OH231524   5.944   4.500   6.195
10528TIP3    H131525   6.039   4.484   6.193
10528TIP3    H231526   5.906   4.420   6.157
10529TIP3   OH231527   6.102   0.969   1.763
10529TIP3    H131528   6.151   1.048   1.741
10529TIP3    H231529   6.016   0.981   1.722
10530TIP3   OH231530   0.756   7.859   1.860
10530TIP3    H131531   0.782   7.871   1.952
10530TIP3    H231532   0.786   7.939   1.817
10531TIP3   OH231533   6.186   5.920   6.634
10531TIP3    H131534   6.192   5.948   6.543
10531TIP3    H231535   6.179   5.825   6.630
10532TIP3   OH231536   7.403   3.444   4.482
10532TIP3    H131537   7.378   3.432   4.574
10532TIP3    H231538   7.322   3.468   4.438
10533TIP3   OH231539   0.602   4.780   2.080
10533TIP3    H131540   0.677   4.839   2.087
10533TIP3    H231541   0.604   4.728   2.160
10534TIP3   OH231542   7.708   2.114   5.457
10534TIP3    H131543   7.680   2.081   5.542
10534TIP3    H231544   7.785   2.169   5.476
10535TIP3   OH231545   4.187   1.923   3.169
10535TIP3    H131546   4.099   1.892   3.146
10535TIP3    H231547   4.246   1.874   3.112
10536TIP3   OH231548   7.386   5.208   0.187
10536TIP3    H131549   7.335   5.158   0.251
10536TIP3    H231550   7.476   5.180   0.202
10537TIP3   OH231551   1.229   6.956   5.904
10537TIP3    H131552   1.230   6.877   5.957
10537TIP3    H231553   1.186   6.930   5.822
10538TIP3   OH231554   3.354   0.125   0.745
10538TIP3    H131555   3.322   0.212   0.768
10538TIP3    H231556   3.283   0.084   0.696
10539TIP3   OH231557   8.214   7.267   5.715
10539TIP3    H131558   8.250   7.336   5.770
10539TIP3    H231559   8.119   7.274   5.727
10540TIP3   OH231560   7.917   6.107   0.466
10540TIP3    H131561   7.923   6.014   0.488
10540TIP3    H231562   7.826   6.130   0.483
10541TIP3   OH231563   3.427   3.639   3.815
10541TIP3    H131564   3.444   3.546   3.832
10541TIP3    H231565   3.511   3.681   3.831
10542TIP3   OH231566   3.815   7.293   3.288
10542TIP3    H131567   3.823   7.274   3.381
10542TIP3    H231568   3.872   7.368   3.274
10543TIP3   OH231569   2.541   7.129   4.516
10543TIP3    H131570   2.523   7.215   4.553
10543TIP3    H231571   2.470   7.115   4.453
10544TIP3   OH231572   4.149   5.139   1.476
10544TIP3    H131573   4.210   5.074   1.440
10544TIP3    H231574   4.195   5.175   1.552
10545TIP3   OH231575   5.164   0.995   3.042
10545TIP3    H131576   5.234   1.027   2.985
10545TIP3    H231577   5.211   0.945   3.110
10546TIP3   OH231578   3.332   5.488   5.232
10546TIP3    H131579   3.273   5.437   5.288
10546TIP3    H231580   3.364   5.558   5.288
10547TIP3   OH231581   2.902   4.375   2.639
10547TIP3    H131582   2.951   4.437   2.694
10547TIP3    H231583   2.878   4.426   2.561
10548TIP3   OH231584   0.696   1.649   3.608
10548TIP3    H131585   0.724   1.570   3.654
10548TIP3    H231586   0.633   1.691   3.667
10549TIP3   OH231587   4.118   3.626   2.339
10549TIP3    H131588   4.124   3.705   2.392
10549TIP3    H231589   4.082   3.560   2.398
10550TIP3   OH231590   7.562   0.202   2.705
10550TIP3    H131591   7.637   0.232   2.755
10550TIP3    H231592   7.566   0.251   2.623
10551TIP3   OH231593   4.792   6.358   3.159
10551TIP3    H131594   4.771   6.273   3.197
10551TIP3    H231595   4.883   6.349   3.129
10552TIP3   OH231596   7.030   0.083   4.544
10552TIP3    H131597   6.951   0.049   4.587
10552TIP3    H231598   7.056   0.014   4.484
10553TIP3   OH231599   6.467   1.956   2.074
10553TIP3    H131600   6.394   1.916   2.121
10553TIP3    H231601   6.528   1.884   2.056
10554TIP3   OH231602   3.369   7.527   4.116
10554TIP3    H131603   3.328   7.502   4.033
10554TIP3    H231604   3.296   7.548   4.173
10555TIP3   OH231605   8.143   1.368   4.898
10555TIP3    H131606   8.180   1.335   4.980
10555TIP3    H231607   8.147   1.463   4.905
10556TIP3   OH231608   3.488   0.763   4.766
10556TIP3    H131609   3.472   0.672   4.791
10556TIP3    H231610   3.532   0.758   4.682
10557TIP3   OH231611   5.559   6.323   2.300
10557TIP3    H131612   5.607   6.401   2.328
10557TIP3    H231613   5.469   6.353   2.288
10558TIP3   OH231614   0.588   4.845   0.797
10558TIP3    H131615   0.497   4.861   0.771
10558TIP3    H231616   0.624   4.933   0.813
10559TIP3   OH231617   4.331   3.143   1.623
10559TIP3    H131618   4.415   3.098   1.628
10559TIP3    H231619   4.295   3.120   1.538
10560TIP3   OH231620   2.576   4.985   3.747
10560TIP3    H131621   2.481   4.979   3.741
10560TIP3    H231622   2.593   5.079   3.754
10561TIP3   OH231623   1.261   1.193   2.840
10561TIP3    H131624   1.168   1.192   2.819
10561TIP3    H231625   1.285   1.101   2.847
10562TIP3   OH231626   3.934   0.397   6.724
10562TIP3    H131627   4.004   0.352   6.770
10562TIP3    H231628   3.911   0.339   6.651
10563TIP3   OH231629   5.651   1.730   1.922
10563TIP3    H131630   5.729   1.685   1.890
10563TIP3    H231631   5.603   1.755   1.843
10564TIP3   OH231632   5.063   4.568   2.692
10564TIP3    H131633   5.042   4.521   2.611
10564TIP3    H231634   4.978   4.595   2.727
10565TIP3   OH231635   1.687   7.478   4.683
10565TIP3    H131636   1.707   7.418   4.612
10565TIP3    H231637   1.591   7.486   4.681
10566TIP3   OH231638   3.711   1.916   2.098
10566TIP3    H131639   3.658   1.837   2.090
10566TIP3    H231640   3.733   1.940   2.008
10567TIP3   OH231641   0.099   1.412   0.671
10567TIP3    H131642   0.016   1.407   0.719
10567TIP3    H231643   0.085   1.479   0.605
10568TIP3   OH231644   7.825   7.530   2.700
10568TIP3    H131645   7.849   7.526   2.792
10568TIP3    H231646   7.729   7.526   2.700
10569TIP3   OH231647   4.551   0.555   5.581
10569TIP3    H131648   4.480   0.608   5.616
10569TIP3    H231649   4.536   0.556   5.486
10570TIP3   OH231650   1.070   4.824   3.028
10570TIP3    H131651   1.073   4.769   2.950
10570TIP3    H231652   1.105   4.908   2.999
10571TIP3   OH231653   8.254   6.381   6.203
10571TIP3    H131654   8.202   6.324   6.259
10571TIP3    H231655   8.195   6.454   6.182
10572TIP3   OH231656   0.570   2.743   4.637
10572TIP3    H131657   0.487   2.724   4.592
10572TIP3    H231658   0.601   2.657   4.665
10573TIP3   OH231659   1.212   1.313   3.368
10573TIP3    H131660   1.128   1.272   3.390
10573TIP3    H231661   1.194   1.406   3.363
10574TIP3   OH231662   5.192   2.673   5.410
10574TIP3    H131663   5.133   2.601   5.433
10574TIP3    H231664   5.249   2.636   5.343
10575TIP3   OH231665   1.450   2.282   4.586
10575TIP3    H131666   1.417   2.372   4.588
10575TIP3    H231667   1.506   2.276   4.664
10576TIP3   OH231668   3.815   1.439   5.764
10576TIP3    H131669   3.910   1.436   5.753
10576TIP3    H231670   3.789   1.521   5.724
10577TIP3   OH231671   7.756   1.583   0.884
10577TIP3    H131672   7.841   1.621   0.864
10577TIP3    H231673   7.774   1.519   0.953
10578TIP3   OH231674   2.099   2.287   1.872
10578TIP3    H131675   2.090   2.303   1.966
10578TIP3    H231676   2.039   2.351   1.832
10579TIP3   OH231677   4.562   1.635   0.146
10579TIP3    H131678   4.657   1.640   0.135
10579TIP3    H231679   4.537   1.554   0.101
10580TIP3   OH231680   7.387   5.267   5.823
10580TIP3    H131681   7.438   5.214   5.761
10580TIP3    H231682   7.337   5.203   5.874
10581TIP3   OH231683   4.920   3.416   2.216
10581TIP3    H131684   4.876   3.500   2.233
10581TIP3    H231685   4.849   3.358   2.189
10582TIP3   OH231686   1.520   4.170   6.631
10582TIP3    H131687   1.595   4.111   6.633
10582TIP3    H231688   1.521   4.207   6.543
10583TIP3   OH231689   3.746   7.696   4.556
10583TIP3    H131690   3.822   7.673   4.611
10583TIP3    H231691   3.748   7.792   4.552
10584TIP3   OH231692   0.425   5.222   3.009
10584TIP3    H131693   0.335   5.190   3.003
10584TIP3    H231694   0.439   5.268   2.926
10585TIP3   OH231695   5.206   4.821   4.537
10585TIP3    H131696   5.128   4.874   4.549
10585TIP3    H231697   5.173   4.732   4.520
10586TIP3   OH231698   5.040   3.400   6.685
10586TIP3    H131699   4.999   3.369   6.605
10586TIP3    H231700   5.050   3.495   6.672
10587TIP3   OH231701   3.281   3.928   6.348
10587TIP3    H131702   3.243   3.844   6.371
10587TIP3    H231703   3.217   3.993   6.377
10588TIP3   OH231704   3.269   6.443   1.394
10588TIP3    H131705   3.174   6.455   1.397
10588TIP3    H231706   3.303   6.527   1.364
10589TIP3   OH231707   5.027   2.146   0.357
10589TIP3    H131708   5.038   2.237   0.327
10589TIP3    H231709   5.095   2.135   0.424
10590TIP3   OH231710   3.154   5.906   1.397
10590TIP3    H131711   3.239   5.945   1.421
10590TIP3    H231712   3.103   5.980   1.365
10591TIP3   OH231713   3.786   3.801   5.276
10591TIP3    H131714   3.870   3.817   5.233
10591TIP3    H231715   3.805   3.734   5.341
10592TIP3   OH231716   3.088   2.734   6.311
10592TIP3    H131717   2.997   2.732   6.338
10592TIP3    H231718   3.126   2.806   6.361
10593TIP3   OH231719   5.941   5.260   1.702
10593TIP3    H131720   5.933   5.216   1.617
10593TIP3    H231721   5.935   5.353   1.682
10594TIP3   OH231722   3.054   7.771   1.405
10594TIP3    H131723   3.012   7.729   1.330
10594TIP3    H231724   2.987   7.771   1.473
10595TIP3   OH231725   3.195   1.941   2.725
10595TIP3    H131726   3.228   1.873   2.784
10595TIP3    H231727   3.141   1.997   2.781
10596TIP3   OH231728   2.734   4.734   2.298
10596TIP3    H131729   2.776   4.650   2.320
10596TIP3    H231730   2.655   4.709   2.251
10597TIP3   OH231731   4.154   3.968   0.565
10597TIP3    H131732   4.159   4.049   0.616
10597TIP3    H231733   4.107   3.907   0.622
10598TIP3   OH231734   5.343   0.329   2.783
10598TIP3    H131735   5.286   0.350   2.857
10598TIP3    H231736   5.310   0.246   2.749
10599TIP3   OH231737  -0.002   4.469   0.302
10599TIP3    H131738   0.028   4.512   0.221
10599TIP3    H231739   0.049   4.511   0.371
10600TIP3   OH231740   0.311   6.532   0.407
10600TIP3    H131741   0.267   6.504   0.488
10600TIP3    H231742   0.359   6.455   0.378
10601TIP3   OH231743   4.261   2.089   3.574
10601TIP3    H131744   4.269   2.093   3.479
10601TIP3    H231745   4.294   2.003   3.598
10602TIP3   OH231746   2.359   0.697   5.683
10602TIP3    H131747   2.397   0.618   5.644
10602TIP3    H231748   2.431   0.760   5.684
10603TIP3   OH231749   2.363   2.442   2.775
10603TIP3    H131750   2.428   2.372   2.771
10603TIP3    H231751   2.352   2.470   2.684
10604TIP3   OH231752   3.067   2.050   1.344
10604TIP3    H131753   3.092   2.142   1.338
10604TIP3    H231754   3.149   2.002   1.334
10605TIP3   OH231755   3.823   7.337   5.609
10605TIP3    H131756   3.740   7.302   5.643
10605TIP3    H231757   3.802   7.364   5.519
10606TIP3   OH231758   1.377   1.914   0.152
10606TIP3    H131759   1.282   1.926   0.157
10606TIP3    H231760   1.403   1.891   0.241
10607TIP3   OH231761   7.107   3.581   6.421
10607TIP3    H131762   7.197   3.608   6.402
10607TIP3    H231763   7.083   3.525   6.348
10608TIP3   OH231764   5.674   0.755   5.619
10608TIP3    H131765   5.734   0.791   5.554
10608TIP3    H231766   5.713   0.778   5.703
10609TIP3   OH231767   2.614   6.674   2.908
10609TIP3    H131768   2.611   6.749   2.849
10609TIP3    H231769   2.687   6.693   2.967
10610TIP3   OH231770   3.897   2.362   4.548
10610TIP3    H131771   3.928   2.275   4.573
10610TIP3    H231772   3.814   2.373   4.595
10611TIP3   OH231773   6.067   2.534   6.346
10611TIP3    H131774   6.100   2.546   6.257
10611TIP3    H231775   6.130   2.578   6.402
10612TIP3   OH231776   2.073   6.212   3.502
10612TIP3    H131777   2.126   6.145   3.459
10612TIP3    H231778   2.120   6.232   3.583
10613TIP3   OH231779   2.185   1.271   5.865
10613TIP3    H131780   2.205   1.351   5.913
10613TIP3    H231781   2.230   1.282   5.781
10614TIP3   OH231782   0.729   7.793   5.000
10614TIP3    H131783   0.662   7.799   4.931
10614TIP3    H231784   0.717   7.872   5.052
10615TIP3   OH231785   2.575   2.269   2.773
10615TIP3    H131786   2.651   2.325   2.790
10615TIP3    H231787   2.585   2.196   2.835
10616TIP3   OH231788   0.235   2.161   2.826
10616TIP3    H131789   0.212   2.251   2.803
10616TIP3    H231790   0.297   2.170   2.898
10617TIP3   OH231791   3.695   5.329   0.059
10617TIP3    H131792   3.606   5.357   0.081
10617TIP3    H231793   3.691   5.309  -0.035
10618TIP3   OH231794   4.507   1.864   3.238
10618TIP3    H131795   4.482   1.931   3.175
10618TIP3    H231796   4.546   1.794   3.186
10619TIP3   OH231797   4.493   0.355   1.011
10619TIP3    H131798   4.408   0.348   0.967
10619TIP3    H231799   4.486   0.435   1.064
10620TIP3   OH231800   4.454   3.998   4.065
10620TIP3    H131801   4.427   3.923   4.117
10620TIP3    H231802   4.513   3.960   3.999
10621TIP3   OH231803   1.295   3.758   5.860
10621TIP3    H131804   1.239   3.726   5.930
10621TIP3    H231805   1.234   3.796   5.797
10622TIP3   OH231806   3.094   0.626   4.585
10622TIP3    H131807   3.107   0.712   4.546
10622TIP3    H231808   3.162   0.572   4.545
10623TIP3   OH231809   5.287   2.279   0.953
10623TIP3    H131810   5.321   2.359   0.914
10623TIP3    H231811   5.326   2.277   1.040
10624TIP3   OH231812   1.521   1.715   6.428
10624TIP3    H131813   1.490   1.629   6.399
10624TIP3    H231814   1.495   1.721   6.519
10625TIP3   OH231815   3.594   3.369   2.175
10625TIP3    H131816   3.677   3.417   2.169
10625TIP3    H231817   3.535   3.413   2.114
10626TIP3   OH231818   1.774   1.410   0.895
10626TIP3    H131819   1.774   1.340   0.829
10626TIP3    H231820   1.859   1.453   0.884
10627TIP3   OH231821   6.887   4.425   3.439
10627TIP3    H131822   6.838   4.401   3.361
10627TIP3    H231823   6.823   4.421   3.510
10628TIP3   OH231824   5.203   4.338   5.800
10628TIP3    H131825   5.237   4.411   5.852
10628TIP3    H231826   5.178   4.272   5.864
10629TIP3   OH231827   1.362   0.915   6.132
10629TIP3    H131828   1.303   0.949   6.064
10629TIP3    H231829   1.439   0.972   6.128
10630TIP3   OH231830   1.834   2.211   5.606
10630TIP3    H131831   1.915   2.199   5.655
10630TIP3    H231832   1.807   2.123   5.581
10631TIP3   OH231833   8.365   1.757   0.065
10631TIP3    H131834   8.279   1.761   0.023
10631TIP3    H231835   8.416   1.697   0.010
10632TIP3   OH231836   5.869   0.425   5.300
10632TIP3    H131837   5.954   0.434   5.343
10632TIP3    H231838   5.805   0.434   5.371
10633TIP3   OH231839   1.278   2.434   5.387
10633TIP3    H131840   1.323   2.459   5.307
10633TIP3    H231841   1.291   2.339   5.393
10634TIP3   OH231842   8.121   0.575   0.313
10634TIP3    H131843   8.204   0.541   0.348
10634TIP3    H231844   8.121   0.667   0.337
10635TIP3   OH231845   7.661   3.161   6.635
10635TIP3    H131846   7.723   3.117   6.694
10635TIP3    H231847   7.652   3.249   6.672
10636TIP3   OH231848   6.172   1.091   3.649
10636TIP3    H131849   6.224   1.061   3.574
10636TIP3    H231850   6.228   1.156   3.691
10637TIP3   OH231851   3.183   7.326   4.673
10637TIP3    H131852   3.187   7.404   4.730
10637TIP3    H231853   3.265   7.328   4.624
10638TIP3   OH231854   2.885   5.638   3.709
10638TIP3    H131855   2.822   5.618   3.639
10638TIP3    H231856   2.945   5.701   3.671
10639TIP3   OH231857   0.533   1.719   5.868
10639TIP3    H131858   0.514   1.654   5.800
10639TIP3    H231859   0.514   1.803   5.826
10640TIP3   OH231860   3.495   5.591   2.415
10640TIP3    H131861   3.557   5.661   2.391
10640TIP3    H231862   3.547   5.511   2.412
10641TIP3   OH231863   2.067   1.023   0.471
10641TIP3    H131864   2.144   1.060   0.429
10641TIP3    H231865   1.997   1.032   0.406
10642TIP3   OH231866   1.060   7.739   1.707
10642TIP3    H131867   0.975   7.710   1.740
10642TIP3    H231868   1.091   7.666   1.653
10643TIP3   OH231869   5.527   0.485   3.809
10643TIP3    H131870   5.460   0.430   3.770
10643TIP3    H231871   5.481   0.564   3.837
10644TIP3   OH231872   2.829   5.809   2.620
10644TIP3    H131873   2.924   5.801   2.631
10644TIP3    H231874   2.795   5.813   2.710
10645TIP3   OH231875   2.551   2.908   3.381
10645TIP3    H131876   2.555   3.001   3.405
10645TIP3    H231877   2.470   2.876   3.419
10646TIP3   OH231878   2.670   3.843   2.312
10646TIP3    H131879   2.688   3.766   2.257
10646TIP3    H231880   2.591   3.881   2.275
10647TIP3   OH231881   3.750   0.303   1.427
10647TIP3    H131882   3.750   0.396   1.447
10647TIP3    H231883   3.661   0.284   1.397
10648TIP3   OH231884   7.521   7.268   3.007
10648TIP3    H131885   7.515   7.361   2.986
10648TIP3    H231886   7.432   7.235   2.994
10649TIP3   OH231887   3.554   4.775   5.734
10649TIP3    H131888   3.478   4.826   5.760
10649TIP3    H231889   3.608   4.836   5.684
10650TIP3   OH231890   8.360   1.310   2.745
10650TIP3    H131891   8.387   1.324   2.654
10650TIP3    H231892   8.363   1.398   2.784
10651TIP3   OH231893   7.975   6.859   2.226
10651TIP3    H131894   7.953   6.767   2.214
10651TIP3    H231895   7.923   6.905   2.160
10652TIP3   OH231896   7.089   1.431   0.982
10652TIP3    H131897   7.050   1.346   0.962
10652TIP3    H231898   7.183   1.416   0.979
10653TIP3   OH231899   1.068   1.462   3.797
10653TIP3    H131900   1.153   1.468   3.841
10653TIP3    H231901   1.086   1.489   3.707
10654TIP3   OH231902   2.546   0.367   3.727
10654TIP3    H131903   2.493   0.360   3.806
10654TIP3    H231904   2.527   0.454   3.693
10655TIP3   OH231905   4.222   4.500   1.599
10655TIP3    H131906   4.251   4.583   1.638
10655TIP3    H231907   4.148   4.473   1.654
10656TIP3   OH231908   1.157   7.173   4.113
10656TIP3    H131909   1.183   7.145   4.201
10656TIP3    H231910   1.084   7.234   4.128
10657TIP3   OH231911   5.808   0.694   1.589
10657TIP3    H131912   5.792   0.771   1.644
10657TIP3    H231913   5.894   0.709   1.550
10658TIP3   OH231914   4.869   2.980   6.088
10658TIP3    H131915   4.902   2.952   6.174
10658TIP3    H231916   4.941   2.961   6.028
10659TIP3   OH231917   6.821   3.844   2.782
10659TIP3    H131918   6.791   3.835   2.692
10659TIP3    H231919   6.774   3.776   2.830
10660TIP3   OH231920   0.435   7.578   0.092
10660TIP3    H131921   0.409   7.643   0.158
10660TIP3    H231922   0.491   7.626   0.031
10661TIP3   OH231923   1.170   1.914   6.192
10661TIP3    H131924   1.129   1.881   6.112
10661TIP3    H231925   1.264   1.912   6.173
10662TIP3   OH231926   6.642   5.725   6.324
10662TIP3    H131927   6.578   5.720   6.253
10662TIP3    H231928   6.689   5.807   6.308
10663TIP3   OH231929   7.911   4.440   3.233
10663TIP3    H131930   7.905   4.500   3.308
10663TIP3    H231931   7.950   4.493   3.164
10664TIP3   OH231932   1.183   3.768   5.383
10664TIP3    H131933   1.171   3.717   5.303
10664TIP3    H231934   1.132   3.721   5.449
10665TIP3   OH231935   1.887   5.455   5.794
10665TIP3    H131936   1.855   5.459   5.704
10665TIP3    H231937   1.928   5.369   5.801
10666TIP3   OH231938   7.660   2.726   2.306
10666TIP3    H131939   7.754   2.730   2.289
10666TIP3    H231940   7.645   2.638   2.340
10667TIP3   OH231941   1.303   4.993   4.928
10667TIP3    H131942   1.340   4.936   4.861
10667TIP3    H231943   1.241   5.049   4.880
10668TIP3   OH231944   7.683   2.670   1.671
10668TIP3    H131945   7.602   2.720   1.660
10668TIP3    H231946   7.752   2.729   1.641
10669TIP3   OH231947   3.870   7.130   6.358
10669TIP3    H131948   3.920   7.054   6.388
10669TIP3    H231949   3.930   7.204   6.368
10670TIP3   OH231950   5.112   1.443   0.657
10670TIP3    H131951   5.033   1.390   0.648
10670TIP3    H231952   5.094   1.523   0.608
10671TIP3   OH231953   0.044   5.128   1.012
10671TIP3    H131954   0.017   5.216   0.984
10671TIP3    H231955  -0.010   5.069   0.958
10672TIP3   OH231956   1.412   2.854   1.461
10672TIP3    H131957   1.496   2.875   1.420
10672TIP3    H231958   1.357   2.824   1.388
10673TIP3   OH231959   5.326   6.833   0.450
10673TIP3    H131960   5.310   6.808   0.359
10673TIP3    H231961   5.309   6.927   0.453
10674TIP3   OH231962   3.921   2.969   0.061
10674TIP3    H131963   3.832   2.998   0.076
10674TIP3    H231964   3.952   2.940   0.147
10675TIP3   OH231965   6.416   6.796   4.209
10675TIP3    H131966   6.378   6.803   4.122
10675TIP3    H231967   6.484   6.730   4.201
10676TIP3   OH231968   6.890   2.994   1.596
10676TIP3    H131969   6.918   3.014   1.686
10676TIP3    H231970   6.970   2.967   1.552
10677TIP3   OH231971   0.046   3.544   2.166
10677TIP3    H131972   0.082   3.463   2.131
10677TIP3    H231973   0.002   3.586   2.092
10678TIP3   OH231974   1.425   3.010   3.674
10678TIP3    H131975   1.361   2.992   3.605
10678TIP3    H231976   1.372   3.033   3.750
10679TIP3   OH231977   3.959   0.094   3.702
10679TIP3    H131978   3.990   0.184   3.710
10679TIP3    H231979   4.037   0.045   3.675
10680TIP3   OH231980   0.492   7.380   6.142
10680TIP3    H131981   0.538   7.453   6.101
10680TIP3    H231982   0.410   7.418   6.172
10681TIP3   OH231983   3.324   4.311   0.361
10681TIP3    H131984   3.255   4.320   0.427
10681TIP3    H231985   3.394   4.368   0.392
10682TIP3   OH231986   2.113   2.639   1.872
10682TIP3    H131987   2.208   2.649   1.866
10682TIP3    H231988   2.085   2.713   1.925
10683TIP3   OH231989   6.755   6.693   5.968
10683TIP3    H131990   6.669   6.707   5.928
10683TIP3    H231991   6.742   6.717   6.060
10684TIP3   OH231992   6.171   3.298   1.875
10684TIP3    H131993   6.158   3.388   1.906
10684TIP3    H231994   6.216   3.308   1.791
10685TIP3   OH231995   4.532   7.581   4.057
10685TIP3    H131996   4.608   7.621   4.015
10685TIP3    H231997   4.547   7.487   4.050
10686TIP3   OH231998   5.205   2.872   2.609
10686TIP3    H131999   5.276   2.824   2.566
10686TIP3    H232000   5.167   2.926   2.540
10687TIP3   OH232001   1.742   4.190   0.997
10687TIP3    H132002   1.664   4.161   0.950
10687TIP3    H232003   1.815   4.161   0.942
10688TIP3   OH232004   2.555   3.047   6.003
10688TIP3    H132005   2.598   2.962   5.990
10688TIP3    H232006   2.461   3.028   5.992
10689TIP3   OH232007   5.902   2.935   6.612
10689TIP3    H132008   5.866   2.974   6.692
10689TIP3    H232009   5.890   3.002   6.545
10690TIP3   OH232010   2.660   5.795   0.795
10690TIP3    H132011   2.737   5.821   0.845
10690TIP3    H232012   2.633   5.712   0.834
10691TIP3   OH232013   6.399   0.244   2.422
10691TIP3    H132014   6.338   0.307   2.460
10691TIP3    H232015   6.347   0.166   2.405
10692TIP3   OH232016   7.584   6.823   3.197
10692TIP3    H132017   7.521   6.823   3.125
10692TIP3    H232018   7.533   6.848   3.274
10693TIP3   OH232019   6.675   3.805   0.324
10693TIP3    H132020   6.731   3.728   0.330
10693TIP3    H232021   6.733   3.875   0.294
10694TIP3   OH232022   7.396   3.173   1.011
10694TIP3    H132023   7.485   3.148   0.988
10694TIP3    H232024   7.358   3.094   1.050
10695TIP3   OH232025   3.078   5.405   6.374
10695TIP3    H132026   3.046   5.432   6.461
10695TIP3    H232027   3.090   5.488   6.327
10696TIP3   OH232028   8.157   7.106   6.115
10696TIP3    H132029   8.195   7.123   6.029
10696TIP3    H232030   8.166   7.012   6.127
10697TIP3   OH232031   1.385   2.179   5.360
10697TIP3    H132032   1.348   2.092   5.344
10697TIP3    H232033   1.479   2.168   5.344
10698TIP3   OH232034   0.969   6.444   6.602
10698TIP3    H132035   1.041   6.388   6.573
10698TIP3    H232036   0.911   6.385   6.650
10699TIP3   OH232037   4.291   2.728   6.792
10699TIP3    H132038   4.261   2.644   6.827
10699TIP3    H232039   4.387   2.725   6.803
10700TIP3   OH232040   6.689   1.748   6.539
10700TIP3    H132041   6.689   1.653   6.550
10700TIP3    H232042   6.693   1.761   6.444
10701TIP3   OH232043   1.122   4.288   4.147
10701TIP3    H132044   1.095   4.215   4.093
10701TIP3    H232045   1.173   4.344   4.088
10702TIP3   OH232046   1.494   1.049   2.465
10702TIP3    H132047   1.539   1.037   2.381
10702TIP3    H232048   1.413   0.998   2.457
10703TIP3   OH232049   4.652   6.978   4.047
10703TIP3    H132050   4.625   7.015   3.963
10703TIP3    H232051   4.719   7.038   4.079
10704TIP3   OH232052   0.353   3.844   3.906
10704TIP3    H132053   0.398   3.928   3.905
10704TIP3    H232054   0.262   3.865   3.884
10705TIP3   OH232055   3.987   7.614   4.667
10705TIP3    H132056   4.071   7.623   4.712
10705TIP3    H232057   3.950   7.532   4.701
10706TIP3   OH232058   2.414   3.872   0.363
10706TIP3    H132059   2.442   3.931   0.433
10706TIP3    H232060   2.370   3.929   0.300
10707TIP3   OH232061   2.874   3.566   1.085
10707TIP3    H132062   2.780   3.559   1.102
10707TIP3    H232063   2.908   3.479   1.104
10708TIP3   OH232064   2.418   1.423   6.799
10708TIP3    H132065   2.365   1.349   6.828
10708TIP3    H232066   2.380   1.498   6.845
10709TIP3   OH232067   5.746   0.883   0.057
10709TIP3    H132068   5.744   0.925   0.142
10709TIP3    H232069   5.815   0.817   0.064
10710TIP3   OH232070   1.612   5.107   1.060
10710TIP3    H132071   1.558   5.131   1.136
10710TIP3    H232072   1.556   5.049   1.008
10711TIP3   OH232073   7.718   1.687   6.010
10711TIP3    H132074   7.779   1.620   6.040
10711TIP3    H232075   7.772   1.764   5.994
10712TIP3   OH232076   1.853   3.350   5.890
10712TIP3    H132077   1.888   3.311   5.811
10712TIP3    H232078   1.765   3.314   5.898
10713TIP3   OH232079   7.452   6.730   4.441
10713TIP3    H132080   7.422   6.714   4.351
10713TIP3    H232081   7.443   6.825   4.452
10714TIP3   OH232082   4.278   1.734   3.759
10714TIP3    H132083   4.265   1.639   3.755
10714TIP3    H232084   4.341   1.753   3.689
10715TIP3   OH232085   7.655   5.966   0.558
10715TIP3    H132086   7.627   5.985   0.469
10715TIP3    H232087   7.604   6.026   0.613
10716TIP3   OH232088   5.574   3.353   3.553
10716TIP3    H132089   5.595   3.307   3.472
10716TIP3    H232090   5.480   3.370   3.546
10717TIP3   OH232091   7.926   7.079   4.428
10717TIP3    H132092   7.863   7.011   4.403
10717TIP3    H232093   8.010   7.034   4.433
10718TIP3   OH232094   4.335   5.815   4.087
10718TIP3    H132095   4.360   5.854   4.003
10718TIP3    H232096   4.356   5.883   4.151
10719TIP3   OH232097   0.832   1.823   1.894
10719TIP3    H132098   0.846   1.765   1.819
10719TIP3    H232099   0.736   1.829   1.902
10720TIP3   OH232100   5.412   0.508   4.437
10720TIP3    H132101   5.452   0.421   4.430
10720TIP3    H232102   5.318   0.491   4.434
10721TIP3   OH232103   7.988   6.219   1.643
10721TIP3    H132104   7.968   6.134   1.681
10721TIP3    H232105   8.028   6.199   1.558
10722TIP3   OH232106   7.364   0.358   4.388
10722TIP3    H132107   7.349   0.359   4.482
10722TIP3    H232108   7.283   0.392   4.350
10723TIP3   OH232109   5.605   3.471   5.404
10723TIP3    H132110   5.541   3.430   5.346
10723TIP3    H232111   5.555   3.534   5.455
10724TIP3   OH232112   5.005   5.442   4.517
10724TIP3    H132113   5.098   5.456   4.500
10724TIP3    H232114   4.964   5.443   4.431
10725TIP3   OH232115   3.689   5.936   3.857
10725TIP3    H132116   3.619   5.934   3.923
10725TIP3    H232117   3.749   5.867   3.884
10726TIP3   OH232118   5.987   5.887   4.378
10726TIP3    H132119   6.056   5.952   4.371
10726TIP3    H232120   6.004   5.825   4.307
10727TIP3   OH232121   0.376   7.717   1.330
10727TIP3    H132122   0.379   7.723   1.234
10727TIP3    H232123   0.468   7.718   1.357
10728TIP3   OH232124   6.354   4.990   2.817
10728TIP3    H132125   6.406   4.935   2.758
10728TIP3    H232126   6.321   4.929   2.883
10729TIP3   OH232127   8.107   4.245   4.220
10729TIP3    H132128   8.068   4.158   4.209
10729TIP3    H232129   8.173   4.233   4.288
10730TIP3   OH232130   5.811   0.793   0.854
10730TIP3    H132131   5.758   0.738   0.796
10730TIP3    H232132   5.828   0.738   0.930
10731TIP3   OH232133   2.744   2.915   5.350
10731TIP3    H132134   2.827   2.878   5.382
10731TIP3    H232135   2.677   2.861   5.391
10732TIP3   OH232136   5.297   0.995   4.140
10732TIP3    H132137   5.323   0.920   4.194
10732TIP3    H232138   5.244   1.049   4.198
10733TIP3   OH232139   4.656   5.732   2.515
10733TIP3    H132140   4.621   5.773   2.436
10733TIP3    H232141   4.750   5.750   2.512
10734TIP3   OH232142   3.249   4.070   2.771
10734TIP3    H132143   3.168   4.114   2.749
10734TIP3    H232144   3.244   3.986   2.726
10735TIP3   OH232145   4.123   0.967   1.582
10735TIP3    H132146   4.064   0.934   1.650
10735TIP3    H232147   4.075   0.953   1.501
10736TIP3   OH232148   0.750   1.110   5.737
10736TIP3    H132149   0.750   1.188   5.793
10736TIP3    H232150   0.743   1.036   5.797
10737TIP3   OH232151   5.185   0.888   4.558
10737TIP3    H132152   5.119   0.829   4.593
10737TIP3    H232153   5.135   0.963   4.525
10738TIP3   OH232154   1.994   6.652   4.107
10738TIP3    H132155   1.976   6.690   4.192
10738TIP3    H232156   2.048   6.717   4.062
10739TIP3   OH232157   4.452   1.825   1.008
10739TIP3    H132158   4.494   1.911   1.020
10739TIP3    H232159   4.484   1.772   1.082
10740TIP3   OH232160   4.794   5.263   5.221
10740TIP3    H132161   4.797   5.168   5.210
10740TIP3    H232162   4.812   5.298   5.133
10741TIP3   OH232163   0.310   2.571   5.678
10741TIP3    H132164   0.403   2.551   5.669
10741TIP3    H232165   0.289   2.625   5.601
10742TIP3   OH232166   3.481   7.914   2.370
10742TIP3    H132167   3.455   7.832   2.412
10742TIP3    H232168   3.484   7.894   2.277
10743TIP3   OH232169   4.591   2.531   1.651
10743TIP3    H132170   4.521   2.582   1.691
10743TIP3    H232171   4.547   2.456   1.611
10744TIP3   OH232172   4.032   2.049   2.555
10744TIP3    H132173   3.955   2.072   2.607
10744TIP3    H232174   3.998   2.040   2.466
10745TIP3   OH232175   1.839   4.942   4.481
10745TIP3    H132176   1.889   4.894   4.415
10745TIP3    H232177   1.782   4.876   4.521
10746TIP3   OH232178   1.748   5.585   2.102
10746TIP3    H132179   1.724   5.669   2.140
10746TIP3    H232180   1.766   5.528   2.177
10747TIP3   OH232181   6.798   3.318   2.411
10747TIP3    H132182   6.704   3.301   2.401
10747TIP3    H232183   6.835   3.235   2.439
10748TIP3   OH232184   2.414   5.854   2.505
10748TIP3    H132185   2.387   5.904   2.427
10748TIP3    H232186   2.335   5.846   2.557
10749TIP3   OH232187   2.212   6.277   5.103
10749TIP3    H132188   2.233   6.280   5.010
10749TIP3    H232189   2.247   6.359   5.138
10750TIP3   OH232190   1.296   0.552   1.032
10750TIP3    H132191   1.300   0.460   1.005
10750TIP3    H232192   1.253   0.596   0.959
10751TIP3   OH232193   0.465   0.190   4.795
10751TIP3    H132194   0.392   0.243   4.761
10751TIP3    H232195   0.505   0.152   4.717
10752TIP3   OH232196   0.298   3.433   0.256
10752TIP3    H132197   0.253   3.508   0.296
10752TIP3    H232198   0.323   3.464   0.169
10753TIP3   OH232199   6.107   2.068   2.311
10753TIP3    H132200   6.047   2.062   2.386
10753TIP3    H232201   6.125   2.161   2.302
10754TIP3   OH232202   0.632   2.956   3.831
10754TIP3    H132203   0.700   3.007   3.875
10754TIP3    H232204   0.550   2.988   3.868
10755TIP3   OH232205   0.466   5.201   1.049
10755TIP3    H132206   0.452   5.106   1.041
10755TIP3    H232207   0.416   5.226   1.127
10756TIP3   OH232208   1.247   4.796   0.989
10756TIP3    H132209   1.182   4.823   0.924
10756TIP3    H232210   1.220   4.840   1.069
10757TIP3   OH232211   5.170   1.659   3.482
10757TIP3    H132212   5.241   1.647   3.546
10757TIP3    H232213   5.171   1.753   3.463
10758TIP3   OH232214   5.247   7.507   1.003
10758TIP3    H132215   5.182   7.546   1.062
10758TIP3    H232216   5.209   7.517   0.916
10759TIP3   OH232217   6.420   3.103   2.191
10759TIP3    H132218   6.336   3.147   2.176
10759TIP3    H232219   6.399   3.010   2.187
10760TIP3   OH232220   4.712   0.845  -0.003
10760TIP3    H132221   4.670   0.764  -0.032
10760TIP3    H232222   4.790   0.815   0.044
10761TIP3   OH232223   4.858   4.629   4.562
10761TIP3    H132224   4.857   4.708   4.615
10761TIP3    H232225   4.766   4.611   4.545
10762TIP3   OH232226   4.277   2.943   2.009
10762TIP3    H132227   4.310   3.015   2.063
10762TIP3    H232228   4.312   2.864   2.050
10763TIP3   OH232229   1.924   0.793   5.221
10763TIP3    H132230   1.887   0.835   5.299
10763TIP3    H232231   1.872   0.826   5.148
10764TIP3   OH232232   8.029   3.351   1.865
10764TIP3    H132233   8.117   3.377   1.837
10764TIP3    H232234   8.002   3.285   1.802
10765TIP3   OH232235   2.917   1.838   5.689
10765TIP3    H132236   2.837   1.786   5.699
10765TIP3    H232237   2.891   1.926   5.718
10766TIP3   OH232238   1.168   3.858   2.421
10766TIP3    H132239   1.202   3.771   2.445
10766TIP3    H232240   1.086   3.839   2.375
10767TIP3   OH232241   3.870   4.597   1.989
10767TIP3    H132242   3.785   4.623   1.954
10767TIP3    H232243   3.849   4.541   2.064
10768TIP3   OH232244   7.013   6.172   5.933
10768TIP3    H132245   7.053   6.157   6.018
10768TIP3    H232246   6.962   6.253   5.944
10769TIP3   OH232247   2.506   6.166   4.877
10769TIP3    H132248   2.460   6.249   4.865
10769TIP3    H232249   2.561   6.157   4.799
10770TIP3   OH232250   5.254   0.703   6.336
10770TIP3    H132251   5.181   0.691   6.276
10770TIP3    H232252   5.213   0.709   6.423
10771TIP3   OH232253   7.617   6.956   4.123
10771TIP3    H132254   7.685   6.915   4.176
10771TIP3    H232255   7.647   6.945   4.032
10772TIP3   OH232256   0.896   6.638   2.222
10772TIP3    H132257   0.892   6.733   2.215
10772TIP3    H232258   0.879   6.606   2.133
10773TIP3   OH232259   4.140   1.441   4.001
10773TIP3    H132260   4.160   1.352   4.028
10773TIP3    H232261   4.045   1.445   3.996
10774TIP3   OH232262   4.110   3.440   2.532
10774TIP3    H132263   4.074   3.429   2.620
10774TIP3    H232264   4.104   3.353   2.492
10775TIP3   OH232265   6.322   1.665   4.086
10775TIP3    H132266   6.257   1.621   4.142
10775TIP3    H232267   6.396   1.604   4.085
10776TIP3   OH232268   1.592   5.075   4.393
10776TIP3    H132269   1.672   5.026   4.410
10776TIP3    H232270   1.615   5.136   4.323
10777TIP3   OH232271   3.663   1.205   6.147
10777TIP3    H132272   3.676   1.227   6.055
10777TIP3    H232273   3.614   1.123   6.146
10778TIP3   OH232274   6.547   6.724   4.810
10778TIP3    H132275   6.527   6.808   4.850
10778TIP3    H232276   6.523   6.734   4.718
10779TIP3   OH232277   1.191   1.120   3.150
10779TIP3    H132278   1.283   1.135   3.167
10779TIP3    H232279   1.189   1.077   3.064
10780TIP3   OH232280   3.545   3.107   2.084
10780TIP3    H132281   3.567   3.200   2.093
10780TIP3    H232282   3.590   3.065   2.157
10781TIP3   OH232283   5.642   5.392   2.185
10781TIP3    H132284   5.670   5.422   2.098
10781TIP3    H232285   5.695   5.443   2.246
10782TIP3   OH232286   2.216   5.859   2.671
10782TIP3    H132287   2.136   5.909   2.654
10782TIP3    H232288   2.271   5.917   2.723
10783TIP3   OH232289   8.330   0.202   4.310
10783TIP3    H132290   8.250   0.240   4.347
10783TIP3    H232291   8.329   0.227   4.218
10784TIP3   OH232292   7.987   7.094   5.447
10784TIP3    H132293   7.990   7.035   5.372
10784TIP3    H232294   8.020   7.042   5.521
10785TIP3   OH232295   7.907   0.658   1.211
10785TIP3    H132296   7.990   0.657   1.163
10785TIP3    H232297   7.842   0.685   1.147
10786TIP3   OH232298   4.957   2.695   6.841
10786TIP3    H132299   5.022   2.759   6.812
10786TIP3    H232300   4.888   2.748   6.881
10787TIP3   OH232301   7.473   7.380   5.445
10787TIP3    H132302   7.400   7.440   5.427
10787TIP3    H232303   7.440   7.322   5.513
10788TIP3   OH232304   0.460   5.837   3.298
10788TIP3    H132305   0.429   5.755   3.258
10788TIP3    H232306   0.555   5.825   3.306
10789TIP3   OH232307   6.979   7.567   6.696
10789TIP3    H132308   6.966   7.634   6.629
10789TIP3    H232309   7.027   7.611   6.766
10790TIP3   OH232310   7.476   1.245   1.918
10790TIP3    H132311   7.484   1.304   1.843
10790TIP3    H232312   7.567   1.221   1.938
10791TIP3   OH232313   1.979   7.573   4.675
10791TIP3    H132314   1.944   7.500   4.727
10791TIP3    H232315   2.072   7.555   4.667
10792TIP3   OH232316   3.616   3.800   0.867
10792TIP3    H132317   3.625   3.797   0.772
10792TIP3    H232318   3.694   3.755   0.900
10793TIP3   OH232319   4.641   0.977   3.881
10793TIP3    H132320   4.605   0.926   3.954
10793TIP3    H232321   4.734   0.954   3.879
10794TIP3   OH232322   4.008   4.935   4.567
10794TIP3    H132323   4.096   4.901   4.579
10794TIP3    H232324   4.018   5.030   4.572
10795TIP3   OH232325   0.134   2.428   2.828
10795TIP3    H132326   0.110   2.516   2.859
10795TIP3    H232327   0.213   2.443   2.776
10796TIP3   OH232328   6.447   4.152   1.920
10796TIP3    H132329   6.404   4.069   1.944
10796TIP3    H232330   6.410   4.174   1.834
10797TIP3   OH232331   1.020   2.185   1.371
10797TIP3    H132332   0.973   2.268   1.379
10797TIP3    H232333   1.099   2.206   1.321
10798TIP3   OH232334   8.165   6.755   2.823
10798TIP3    H132335   8.210   6.757   2.739
10798TIP3    H232336   8.193   6.834   2.868
10799TIP3   OH232337   4.229   3.989   5.847
10799TIP3    H132338   4.293   3.937   5.798
10799TIP3    H232339   4.189   4.045   5.781
10800TIP3   OH232340   7.071   3.779   6.062
10800TIP3    H132341   6.975   3.780   6.068
10800TIP3    H232342   7.098   3.853   6.117
10801TIP3   OH232343   2.382   3.973   1.842
10801TIP3    H132344   2.384   4.064   1.811
10801TIP3    H232345   2.303   3.936   1.803
10802TIP3   OH232346   2.924   3.662   6.436
10802TIP3    H132347   2.923   3.752   6.469
10802TIP3    H232348   2.922   3.672   6.340
10803TIP3   OH232349   5.598   4.265   4.221
10803TIP3    H132350   5.694   4.271   4.221
10803TIP3    H232351   5.579   4.189   4.166
10804TIP3   OH232352   2.907   6.810   6.067
10804TIP3    H132353   2.904   6.728   6.116
10804TIP3    H232354   2.937   6.875   6.130
10805TIP3   OH232355   0.581   0.166   1.448
10805TIP3    H132356   0.567   0.157   1.542
10805TIP3    H232357   0.562   0.079   1.412
10806TIP3   OH232358   4.751   0.878   4.792
10806TIP3    H132359   4.740   0.971   4.812
10806TIP3    H232360   4.742   0.834   4.876
10807TIP3   OH232361   3.759   0.969   5.240
10807TIP3    H132362   3.670   1.005   5.239
10807TIP3    H232363   3.815   1.046   5.231
10808TIP3   OH232364   6.453   0.910   1.166
10808TIP3    H132365   6.361   0.934   1.180
10808TIP3    H232366   6.450   0.819   1.137
10809TIP3   OH232367   3.798   7.395   2.914
10809TIP3    H132368   3.848   7.326   2.959
10809TIP3    H232369   3.861   7.437   2.856
10810TIP3   OH232370   2.425   3.891   2.616
10810TIP3    H132371   2.420   3.804   2.575
10810TIP3    H232372   2.334   3.911   2.639
10811TIP3   OH232373   8.312   3.426   0.764
10811TIP3    H132374   8.347   3.344   0.800
10811TIP3    H232375   8.267   3.466   0.838
10812TIP3   OH232376   4.749   7.144   2.780
10812TIP3    H132377   4.778   7.082   2.713
10812TIP3    H232378   4.712   7.217   2.731
10813TIP3   OH232379   1.756   5.607   6.210
10813TIP3    H132380   1.850   5.586   6.207
10813TIP3    H232381   1.745   5.676   6.144
10814TIP3   OH232382   2.220   7.533   5.177
10814TIP3    H132383   2.206   7.511   5.085
10814TIP3    H232384   2.164   7.472   5.225
10815TIP3   OH232385   0.609   0.289   2.472
10815TIP3    H132386   0.535   0.234   2.449
10815TIP3    H232387   0.646   0.317   2.388
10816TIP3   OH232388   6.284   4.185   0.214
10816TIP3    H132389   6.237   4.250   0.162
10816TIP3    H232390   6.223   4.162   0.284
10817TIP3   OH232391   3.153   5.458   4.407
10817TIP3    H132392   3.123   5.415   4.326
10817TIP3    H232393   3.187   5.543   4.378
10818TIP3   OH232394   5.285   2.395   5.624
10818TIP3    H132395   5.351   2.464   5.614
10818TIP3    H232396   5.202   2.438   5.603
10819TIP3   OH232397   7.231   6.523   1.390
10819TIP3    H132398   7.269   6.512   1.303
10819TIP3    H232399   7.283   6.465   1.446
10820TIP3   OH232400   0.812   1.802   0.115
10820TIP3    H132401   0.724   1.808   0.152
10820TIP3    H232402   0.850   1.724   0.155
10821TIP3   OH232403   1.287   7.153   3.600
10821TIP3    H132404   1.249   7.218   3.541
10821TIP3    H232405   1.234   7.160   3.680
10822TIP3   OH232406   1.297   5.540   1.157
10822TIP3    H132407   1.271   5.549   1.248
10822TIP3    H232408   1.254   5.459   1.128
10823TIP3   OH232409   6.017   5.785   1.772
10823TIP3    H132410   6.033   5.831   1.854
10823TIP3    H232411   6.042   5.849   1.704
10824TIP3   OH232412   1.986   3.521   4.949
10824TIP3    H132413   2.003   3.447   4.891
10824TIP3    H232414   2.044   3.591   4.918
10825TIP3   OH232415   3.894   6.497   2.215
10825TIP3    H132416   3.851   6.545   2.144
10825TIP3    H232417   3.893   6.406   2.187
10826TIP3   OH232418   7.206   5.944   2.614
10826TIP3    H132419   7.121   5.985   2.606
10826TIP3    H232420   7.244   5.982   2.693
10827TIP3   OH232421   5.608   6.722   5.617
10827TIP3    H132422   5.613   6.750   5.526
10827TIP3    H232423   5.522   6.752   5.647
10828TIP3   OH232424   4.914   5.870   4.743
10828TIP3    H132425   4.970   5.944   4.764
10828TIP3    H232426   4.907   5.872   4.647
10829TIP3   OH232427   2.322   1.837   3.436
10829TIP3    H132428   2.362   1.891   3.368
10829TIP3    H232429   2.304   1.898   3.508
10830TIP3   OH232430   1.952   3.248   5.670
10830TIP3    H132431   1.981   3.315   5.609
10830TIP3    H232432   1.972   3.165   5.627
10831TIP3   OH232433   7.541   3.493   6.454
10831TIP3    H132434   7.610   3.547   6.415
10831TIP3    H232435   7.467   3.502   6.395
10832TIP3   OH232436   7.574   2.711   4.772
10832TIP3    H132437   7.660   2.715   4.730
10832TIP3    H232438   7.593   2.692   4.864
10833TIP3   OH232439   5.407   3.593   1.325
10833TIP3    H132440   5.346   3.628   1.391
10833TIP3    H232441   5.360   3.519   1.286
10834TIP3   OH232442   5.032   7.438   2.664
10834TIP3    H132443   5.007   7.467   2.752
10834TIP3    H232444   4.971   7.482   2.606
10835TIP3   OH232445   2.758   7.430   6.169
10835TIP3    H132446   2.763   7.484   6.090
10835TIP3    H232447   2.683   7.465   6.218
10836TIP3   OH232448   3.737   5.903   3.147
10836TIP3    H132449   3.813   5.902   3.206
10836TIP3    H232450   3.732   5.993   3.117
10837TIP3   OH232451   5.251   7.812   6.479
10837TIP3    H132452   5.295   7.734   6.447
10837TIP3    H232453   5.255   7.874   6.406
10838TIP3   OH232454  -0.001   6.841   3.036
10838TIP3    H132455   0.032   6.920   3.078
10838TIP3    H232456   0.010   6.772   3.101
10839TIP3   OH232457   0.711   6.109   1.210
10839TIP3    H132458   0.627   6.154   1.202
10839TIP3    H232459   0.717   6.086   1.303
10840TIP3   OH232460   1.939   2.301   5.073
10840TIP3    H132461   1.997   2.341   5.138
10840TIP3    H232462   1.878   2.371   5.049
10841TIP3   OH232463   4.713   1.110   4.119
10841TIP3    H132464   4.800   1.075   4.137
10841TIP3    H232465   4.711   1.123   4.024
10842TIP3   OH232466   6.161   0.069   3.326
10842TIP3    H132467   6.206  -0.006   3.287
10842TIP3    H232468   6.068   0.048   3.318
10843TIP3   OH232469   6.777   3.266   3.422
10843TIP3    H132470   6.799   3.348   3.379
10843TIP3    H232471   6.717   3.291   3.493
10844TIP3   OH232472   2.180   0.301   6.205
10844TIP3    H132473   2.191   0.260   6.291
10844TIP3    H232474   2.238   0.377   6.208
10845TIP3   OH232475   8.091   3.697   4.879
10845TIP3    H132476   8.117   3.739   4.961
10845TIP3    H232477   8.168   3.650   4.850
10846TIP3   OH232478   6.563   2.175   5.890
10846TIP3    H132479   6.519   2.126   5.959
10846TIP3    H232480   6.654   2.184   5.921
10847TIP3   OH232481   5.029   4.452   6.658
10847TIP3    H132482   4.935   4.452   6.639
10847TIP3    H232483   5.034   4.430   6.751
10848TIP3   OH232484   2.513   6.098   4.348
10848TIP3    H132485   2.539   6.188   4.328
10848TIP3    H232486   2.418   6.101   4.353
10849TIP3   OH232487   5.879   0.393   2.760
10849TIP3    H132488   5.847   0.468   2.810
10849TIP3    H232489   5.958   0.425   2.716
10850TIP3   OH232490   1.450   1.794   3.141
10850TIP3    H132491   1.496   1.835   3.067
10850TIP3    H232492   1.509   1.806   3.215
10851TIP3   OH232493   6.948   5.640   1.912
10851TIP3    H132494   6.996   5.592   1.979
10851TIP3    H232495   6.985   5.609   1.829
10852TIP3   OH232496   5.883   1.335   3.869
10852TIP3    H132497   5.945   1.404   3.894
10852TIP3    H232498   5.910   1.309   3.781
10853TIP3   OH232499   5.917   0.676   0.091
10853TIP3    H132500   5.986   0.728   0.132
10853TIP3    H232501   5.959   0.594   0.068
10854TIP3   OH232502   4.693   1.825   6.278
10854TIP3    H132503   4.763   1.836   6.343
10854TIP3    H232504   4.737   1.828   6.194
10855TIP3   OH232505   2.504   7.356   4.141
10855TIP3    H132506   2.570   7.368   4.072
10855TIP3    H232507   2.434   7.417   4.117
10856TIP3   OH232508   0.827   5.820   2.876
10856TIP3    H132509   0.825   5.775   2.792
10856TIP3    H232510   0.819   5.751   2.941
10857TIP3   OH232511   3.046   7.429   5.950
10857TIP3    H132512   3.001   7.345   5.958
10857TIP3    H232513   2.976   7.493   5.936
10858TIP3   OH232514   0.988   1.193   2.834
10858TIP3    H132515   0.952   1.248   2.904
10858TIP3    H232516   0.915   1.136   2.809
10859TIP3   OH232517   1.417   5.715   5.684
10859TIP3    H132518   1.485   5.734   5.619
10859TIP3    H232519   1.355   5.659   5.637
10860TIP3   OH232520   1.960   6.402   0.316
10860TIP3    H132521   1.997   6.426   0.231
10860TIP3    H232522   1.930   6.485   0.353
10861TIP3   OH232523   2.387   7.877   4.566
10861TIP3    H132524   2.435   7.920   4.636
10861TIP3    H232525   2.296   7.876   4.596
10862TIP3   OH232526   0.845   0.848   6.060
10862TIP3    H132527   0.869   0.927   6.108
10862TIP3    H232528   0.905   0.846   5.985
10863TIP3   OH232529   3.636   2.380   3.306
10863TIP3    H132530   3.625   2.366   3.212
10863TIP3    H232531   3.623   2.474   3.319
10864TIP3   OH232532   2.443   0.557   0.401
10864TIP3    H132533   2.483   0.577   0.316
10864TIP3    H232534   2.351   0.581   0.391
10865TIP3   OH232535   0.654   0.853   5.811
10865TIP3    H132536   0.583   0.889   5.864
10865TIP3    H232537   0.672   0.767   5.849
10866TIP3   OH232538   1.626   6.700   5.353
10866TIP3    H132539   1.717   6.729   5.345
10866TIP3    H232540   1.587   6.760   5.416
10867TIP3   OH232541   6.930   6.097   2.882
10867TIP3    H132542   6.895   6.020   2.927
10867TIP3    H232543   6.921   6.076   2.789
10868TIP3   OH232544   2.557   0.516   4.770
10868TIP3    H132545   2.562   0.428   4.809
10868TIP3    H232546   2.630   0.563   4.810
10869TIP3   OH232547   0.981   6.048   2.951
10869TIP3    H132548   0.947   5.961   2.928
10869TIP3    H232549   0.909   6.089   2.999
10870TIP3   OH232550   0.651   2.292   0.611
10870TIP3    H132551   0.586   2.307   0.679
10870TIP3    H232552   0.674   2.380   0.580
10871TIP3   OH232553   7.369   1.540   3.656
10871TIP3    H132554   7.280   1.508   3.664
10871TIP3    H232555   7.364   1.606   3.587
10872TIP3   OH232556   1.988   4.632   5.490
10872TIP3    H132557   1.993   4.549   5.538
10872TIP3    H232558   1.897   4.638   5.463
10873TIP3   OH232559   3.887   1.547   6.561
10873TIP3    H132560   3.877   1.478   6.627
10873TIP3    H232561   3.919   1.623   6.611
10874TIP3   OH232562   1.527   7.087   0.711
10874TIP3    H132563   1.506   7.177   0.684
10874TIP3    H232564   1.542   7.093   0.805
10875TIP3   OH232565   6.760   2.080   4.123
10875TIP3    H132566   6.726   2.030   4.048
10875TIP3    H232567   6.684   2.091   4.180
10876TIP3   OH232568   7.351   6.881   4.030
10876TIP3    H132569   7.434   6.896   4.075
10876TIP3    H232570   7.314   6.969   4.018
10877TIP3   OH232571   2.633   0.874   3.272
10877TIP3    H132572   2.666   0.939   3.334
10877TIP3    H232573   2.538   0.873   3.288
10878TIP3   OH232574   7.912   2.263   6.173
10878TIP3    H132575   7.852   2.235   6.104
10878TIP3    H232576   7.915   2.359   6.164
10879TIP3   OH232577   2.148   4.824   6.421
10879TIP3    H132578   2.080   4.863   6.475
10879TIP3    H232579   2.214   4.894   6.412
10880TIP3   OH232580   4.806   7.460   1.715
10880TIP3    H132581   4.772   7.467   1.804
10880TIP3    H232582   4.900   7.469   1.724
10881TIP3   OH232583   5.801   6.656   4.583
10881TIP3    H132584   5.822   6.643   4.675
10881TIP3    H232585   5.887   6.660   4.540
10882TIP3   OH232586   2.178   3.697   0.409
10882TIP3    H132587   2.130   3.656   0.337
10882TIP3    H232588   2.240   3.755   0.367
10883TIP3   OH232589   4.892   3.278   6.474
10883TIP3    H132590   4.823   3.214   6.494
10883TIP3    H232591   4.920   3.256   6.385
10884TIP3   OH232592   7.542   5.178   3.109
10884TIP3    H132593   7.573   5.089   3.093
10884TIP3    H232594   7.540   5.219   3.023
10885TIP3   OH232595   2.008   3.122   1.119
10885TIP3    H132596   2.082   3.175   1.089
10885TIP3    H232597   2.036   3.089   1.205
10886TIP3   OH232598   2.088   6.733   1.460
10886TIP3    H132599   2.047   6.739   1.374
10886TIP3    H232600   2.101   6.639   1.474
10887TIP3   OH232601   0.018   7.638   5.858
10887TIP3    H132602   0.112   7.623   5.857
10887TIP3    H232603  -0.020   7.554   5.882
10888TIP3   OH232604   7.888   0.349   4.608
10888TIP3    H132605   7.799   0.342   4.643
10888TIP3    H232606   7.934   0.405   4.670
10889TIP3   OH232607   8.188   2.821   3.939
10889TIP3    H132608   8.177   2.761   3.865
10889TIP3    H232609   8.199   2.763   4.014
10890TIP3   OH232610   5.775   2.395   2.403
10890TIP3    H132611   5.716   2.364   2.335
10890TIP3    H232612   5.839   2.324   2.414
10891TIP3   OH232613   1.416   7.823   4.525
10891TIP3    H132614   1.443   7.741   4.567
10891TIP3    H232615   1.469   7.828   4.446
10892TIP3   OH232616   4.837   1.628   2.113
10892TIP3    H132617   4.772   1.624   2.183
10892TIP3    H232618   4.920   1.641   2.159
10893TIP3   OH232619   2.943   4.304   6.268
10893TIP3    H132620   2.885   4.257   6.208
10893TIP3    H232621   2.885   4.366   6.313
10894TIP3   OH232622   3.548   4.912   6.266
10894TIP3    H132623   3.638   4.880   6.262
10894TIP3    H232624   3.525   4.906   6.359
10895TIP3   OH232625   7.280   2.563   6.885
10895TIP3    H132626   7.230   2.515   6.819
10895TIP3    H232627   7.341   2.618   6.835
10896TIP3   OH232628   2.430   7.446   5.359
10896TIP3    H132629   2.414   7.482   5.272
10896TIP3    H232630   2.488   7.371   5.344
10897TIP3   OH232631   8.101   5.306   0.587
10897TIP3    H132632   8.062   5.274   0.669
10897TIP3    H232633   8.169   5.242   0.566
10898TIP3   OH232634   5.986   5.089   6.148
10898TIP3    H132635   6.046   5.103   6.075
10898TIP3    H232636   5.898   5.097   6.109
10899TIP3   OH232637   2.425   7.132   4.020
10899TIP3    H132638   2.470   7.149   3.937
10899TIP3    H232639   2.461   7.198   4.080
10900TIP3   OH232640   2.432   4.910   5.059
10900TIP3    H132641   2.439   4.916   5.154
10900TIP3    H232642   2.468   4.824   5.037
10901TIP3   OH232643   1.085   6.564   3.420
10901TIP3    H132644   1.121   6.480   3.448
10901TIP3    H232645   1.012   6.579   3.480
10902TIP3   OH232646   5.769   0.487   6.211
10902TIP3    H132647   5.822   0.524   6.282
10902TIP3    H232648   5.749   0.398   6.240
10903TIP3   OH232649   5.994   0.544   0.719
10903TIP3    H132650   5.960   0.583   0.638
10903TIP3    H232651   5.988   0.614   0.784
10904TIP3   OH232652   2.659   5.558   1.077
10904TIP3    H132653   2.603   5.634   1.064
10904TIP3    H232654   2.599   5.488   1.102
10905TIP3   OH232655   1.157   1.042   5.677
10905TIP3    H132656   1.228   0.985   5.708
10905TIP3    H232657   1.110   1.067   5.756
10906TIP3   OH232658   4.727   4.010   2.099
10906TIP3    H132659   4.662   4.051   2.043
10906TIP3    H232660   4.771   3.946   2.042
10907TIP3   OH232661   6.925   4.630   6.312
10907TIP3    H132662   6.842   4.618   6.266
10907TIP3    H232663   6.970   4.546   6.304
10908TIP3   OH232664   5.042   5.712   0.660
10908TIP3    H132665   5.080   5.776   0.600
10908TIP3    H232666   5.115   5.658   0.687
10909TIP3   OH232667   4.249   7.455   5.126
10909TIP3    H132668   4.318   7.420   5.181
10909TIP3    H232669   4.287   7.457   5.038
10910TIP3   OH232670   4.179   1.189   6.326
10910TIP3    H132671   4.147   1.177   6.237
10910TIP3    H232672   4.205   1.281   6.331
10911TIP3   OH232673   7.870   1.084   1.389
10911TIP3    H132674   7.814   1.064   1.464
10911TIP3    H232675   7.957   1.056   1.416
10912TIP3   OH232676   2.220   3.182   6.606
10912TIP3    H132677   2.304   3.177   6.653
10912TIP3    H232678   2.208   3.275   6.588
10913TIP3   OH232679   4.673   2.975   4.974
10913TIP3    H132680   4.712   2.978   4.886
10913TIP3    H232681   4.582   3.003   4.960
10914TIP3   OH232682   4.519   0.810   3.394
10914TIP3    H132683   4.536   0.878   3.459
10914TIP3    H232684   4.606   0.779   3.368
10915TIP3   OH232685   7.949   5.589   0.937
10915TIP3    H132686   7.883   5.543   0.886
10915TIP3    H232687   7.905   5.608   1.020
10916TIP3   OH232688   4.982   1.982   4.854
10916TIP3    H132689   4.945   2.068   4.835
10916TIP3    H232690   4.906   1.924   4.859
10917TIP3   OH232691   5.975   3.580   0.994
10917TIP3    H132692   6.054   3.554   0.947
10917TIP3    H232693   5.929   3.639   0.933
10918TIP3   OH232694   6.451   6.993   4.790
10918TIP3    H132695   6.372   6.985   4.843
10918TIP3    H232696   6.434   7.068   4.732
10919TIP3   OH232697   5.942   6.918   1.374
10919TIP3    H132698   5.898   6.834   1.363
10919TIP3    H232699   6.015   6.916   1.313
10920TIP3   OH232700   1.625   5.186   6.624
10920TIP3    H132701   1.701   5.163   6.678
10920TIP3    H232702   1.553   5.196   6.687
10921TIP3   OH232703   5.123   5.079   0.763
10921TIP3    H132704   5.065   5.125   0.824
10921TIP3    H232705   5.085   4.991   0.757
10922TIP3   OH232706   0.427   2.482   4.764
10922TIP3    H132707   0.435   2.457   4.856
10922TIP3    H232708   0.436   2.400   4.716
10923TIP3   OH232709   2.317   0.189   5.695
10923TIP3    H132710   2.272   0.184   5.611
10923TIP3    H232711   2.256   0.150   5.757
10924TIP3   OH232712   3.533   1.883   0.623
10924TIP3    H132713   3.511   1.871   0.530
10924TIP3    H232714   3.593   1.811   0.642
10925TIP3   OH232715   2.855   6.787   0.922
10925TIP3    H132716   2.831   6.703   0.883
10925TIP3    H232717   2.836   6.777   1.015
10926TIP3   OH232718   5.595   7.562   3.340
10926TIP3    H132719   5.686   7.534   3.332
10926TIP3    H232720   5.589   7.602   3.427
10927TIP3   OH232721   3.317   4.742   2.846
10927TIP3    H132722   3.327   4.679   2.775
10927TIP3    H232723   3.347   4.825   2.808
10928TIP3   OH232724   4.390   1.610   5.363
10928TIP3    H132725   4.309   1.602   5.314
10928TIP3    H232726   4.365   1.596   5.454
10929TIP3   OH232727   1.937   0.459   6.176
10929TIP3    H132728   1.999   0.528   6.152
10929TIP3    H232729   1.990   0.379   6.176
10930TIP3   OH232730   8.197   3.432   4.982
10930TIP3    H132731   8.257   3.453   5.054
10930TIP3    H232732   8.112   3.465   5.012
10931TIP3   OH232733   5.981   6.557   3.450
10931TIP3    H132734   5.987   6.482   3.509
10931TIP3    H232735   5.897   6.598   3.471
10932TIP3   OH232736   0.783   4.868   1.669
10932TIP3    H132737   0.692   4.899   1.674
10932TIP3    H232738   0.806   4.876   1.576
10933TIP3   OH232739   5.189   4.867   0.302
10933TIP3    H132740   5.136   4.789   0.315
10933TIP3    H232741   5.279   4.835   0.297
10934TIP3   OH232742   2.539   5.403   4.839
10934TIP3    H132743   2.515   5.315   4.868
10934TIP3    H232744   2.605   5.389   4.771
10935TIP3   OH232745   3.448   4.675   4.501
10935TIP3    H132746   3.411   4.748   4.550
10935TIP3    H232747   3.456   4.708   4.412
10936TIP3   OH232748   1.670   4.191   5.919
10936TIP3    H132749   1.666   4.140   6.000
10936TIP3    H232750   1.608   4.263   5.934
10937TIP3   OH232751   5.969   5.705   4.153
10937TIP3    H132752   5.917   5.626   4.141
10937TIP3    H232753   5.986   5.735   4.064
10938TIP3   OH232754   4.717   4.770   1.179
10938TIP3    H132755   4.706   4.847   1.123
10938TIP3    H232756   4.729   4.805   1.267
10939TIP3   OH232757   6.249   6.746   1.421
10939TIP3    H132758   6.194   6.753   1.499
10939TIP3    H232759   6.222   6.820   1.366
10940TIP3   OH232760   4.440   4.056   0.650
10940TIP3    H132761   4.457   3.984   0.589
10940TIP3    H232762   4.527   4.090   0.672
10941TIP3   OH232763   1.024   2.884   1.403
10941TIP3    H132764   0.930   2.894   1.423
10941TIP3    H232765   1.066   2.956   1.450
10942TIP3   OH232766   0.486   1.403   1.048
10942TIP3    H132767   0.545   1.377   1.119
10942TIP3    H232768   0.421   1.333   1.044
10943TIP3   OH232769   3.100   1.337   0.254
10943TIP3    H132770   3.152   1.257   0.259
10943TIP3    H232771   3.144   1.398   0.314
10944TIP3   OH232772   3.147   0.072   3.391
10944TIP3    H132773   3.082   0.075   3.321
10944TIP3    H232774   3.148   0.160   3.427
10945TIP3   OH232775   6.587   0.206   4.880
10945TIP3    H132776   6.655   0.180   4.943
10945TIP3    H232777   6.632   0.206   4.795
10946TIP3   OH232778   2.725   7.849   4.828
10946TIP3    H132779   2.781   7.886   4.759
10946TIP3    H232780   2.787   7.819   4.895
10947TIP3   OH232781   2.829   0.756   5.426
10947TIP3    H132782   2.883   0.710   5.361
10947TIP3    H232783   2.817   0.692   5.496
10948TIP3   OH232784   1.262   6.247   2.954
10948TIP3    H132785   1.310   6.301   2.891
10948TIP3    H232786   1.178   6.230   2.912
10949TIP3   OH232787   7.744   0.633   3.169
10949TIP3    H132788   7.810   0.602   3.107
10949TIP3    H232789   7.718   0.555   3.217
10950TIP3   OH232790   6.932   6.618   2.991
10950TIP3    H132791   6.875   6.570   3.051
10950TIP3    H232792   6.964   6.552   2.930
10951TIP3   OH232793   4.285   5.574   3.979
10951TIP3    H132794   4.337   5.642   4.020
10951TIP3    H232795   4.213   5.620   3.937
10952TIP3   OH232796   7.019   5.754   2.927
10952TIP3    H132797   7.108   5.723   2.942
10952TIP3    H232798   7.022   5.796   2.841
10953TIP3   OH232799   6.855   1.137   6.848
10953TIP3    H132800   6.880   1.203   6.783
10953TIP3    H232801   6.874   1.053   6.807
10954TIP3   OH232802   5.229   3.332   3.968
10954TIP3    H132803   5.179   3.302   3.892
10954TIP3    H232804   5.222   3.260   4.031
10955TIP3   OH232805   7.071   3.156   2.792
10955TIP3    H132806   7.094   3.064   2.807
10955TIP3    H232807   6.989   3.169   2.840
10956TIP3   OH232808   1.099   4.857   2.419
10956TIP3    H132809   1.053   4.773   2.424
10956TIP3    H232810   1.034   4.918   2.383
10957TIP3   OH232811   0.874   6.928   2.823
10957TIP3    H132812   0.950   6.965   2.867
10957TIP3    H232813   0.893   6.935   2.730
10958TIP3   OH232814   1.814   2.584   0.353
10958TIP3    H132815   1.893   2.627   0.320
10958TIP3    H232816   1.831   2.490   0.339
10959TIP3   OH232817   7.311   3.442   3.695
10959TIP3    H132818   7.332   3.533   3.719
10959TIP3    H232819   7.300   3.445   3.600
10960TIP3   OH232820   7.627   1.755   1.662
10960TIP3    H132821   7.679   1.700   1.721
10960TIP3    H232822   7.687   1.823   1.632
10961TIP3   OH232823   4.056   1.933   1.318
10961TIP3    H132824   4.076   2.023   1.346
10961TIP3    H232825   4.093   1.927   1.230
10962TIP3   OH232826   0.065   6.962   2.790
10962TIP3    H132827   0.009   6.919   2.855
10962TIP3    H232828   0.011   6.967   2.711
10963TIP3   OH232829   6.672   5.418   4.593
10963TIP3    H132830   6.635   5.484   4.536
10963TIP3    H232831   6.654   5.335   4.549
10964TIP3   OH232832   3.912   3.842   2.196
10964TIP3    H132833   3.988   3.841   2.254
10964TIP3    H232834   3.839   3.814   2.252
10965TIP3   OH232835   0.278   1.761   3.322
10965TIP3    H132836   0.365   1.740   3.289
10965TIP3    H232837   0.220   1.701   3.276
10966TIP3   OH232838   2.637   4.771   3.563
10966TIP3    H132839   2.727   4.739   3.568
10966TIP3    H232840   2.629   4.833   3.635
10967TIP3   OH232841   1.283   6.490   3.219
10967TIP3    H132842   1.204   6.501   3.166
10967TIP3    H232843   1.267   6.540   3.298
10968TIP3   OH232844   5.201   4.576   6.372
10968TIP3    H132845   5.124   4.622   6.339
10968TIP3    H232846   5.272   4.601   6.313
10969TIP3   OH232847   7.481   4.237   2.182
10969TIP3    H132848   7.544   4.204   2.245
10969TIP3    H232849   7.395   4.220   2.222
10970TIP3   OH232850   3.894   3.753   0.301
10970TIP3    H132851   3.963   3.786   0.242
10970TIP3    H232852   3.847   3.831   0.328
10971TIP3   OH232853   7.917   5.866   2.594
10971TIP3    H132854   7.947   5.785   2.552
10971TIP3    H232855   7.830   5.881   2.556
10972TIP3   OH232856   6.134   4.752   5.754
10972TIP3    H132857   6.111   4.763   5.846
10972TIP3    H232858   6.050   4.738   5.710
10973TIP3   OH232859   5.077   6.635   0.377
10973TIP3    H132860   5.145   6.634   0.444
10973TIP3    H232861   5.099   6.563   0.319
10974TIP3   OH232862   6.619   7.727   4.624
10974TIP3    H132863   6.586   7.773   4.702
10974TIP3    H232864   6.566   7.648   4.619
10975TIP3   OH232865   6.988   6.572   5.680
10975TIP3    H132866   7.032   6.488   5.670
10975TIP3    H232867   7.022   6.609   5.762
10976TIP3   OH232868   3.834   4.838   0.344
10976TIP3    H132869   3.886   4.823   0.265
10976TIP3    H232870   3.894   4.816   0.416
10977TIP3   OH232871   4.302   2.109   3.312
10977TIP3    H132872   4.339   2.177   3.256
10977TIP3    H232873   4.238   2.064   3.257
10978TIP3   OH232874   6.270   3.563   2.798
10978TIP3    H132875   6.209   3.607   2.740
10978TIP3    H232876   6.224   3.484   2.827
10979TIP3   OH232877   0.149   7.725   4.342
10979TIP3    H132878   0.091   7.710   4.267
10979TIP3    H232879   0.136   7.647   4.397
10980TIP3   OH232880   5.658   2.080   1.402
10980TIP3    H132881   5.633   2.037   1.483
10980TIP3    H232882   5.734   2.134   1.425
10981TIP3   OH232883   1.535   6.816   2.239
10981TIP3    H132884   1.563   6.751   2.304
10981TIP3    H232885   1.608   6.879   2.236
10982TIP3   OH232886   6.457   4.574   3.077
10982TIP3    H132887   6.466   4.479   3.078
10982TIP3    H232888   6.473   4.599   2.986
10983TIP3   OH232889   0.585   2.379   5.589
10983TIP3    H132890   0.607   2.456   5.642
10983TIP3    H232891   0.592   2.410   5.498
10984TIP3   OH232892   4.523   6.696   0.303
10984TIP3    H132893   4.443   6.746   0.283
10984TIP3    H232894   4.504   6.654   0.386
10985TIP3   OH232895   0.227   7.473   6.231
10985TIP3    H132896   0.214   7.473   6.326
10985TIP3    H232897   0.190   7.557   6.203
10986TIP3   OH232898   0.708   6.208   4.067
10986TIP3    H132899   0.646   6.188   4.137
10986TIP3    H232900   0.794   6.199   4.107
10987TIP3   OH232901   2.825   3.030   0.403
10987TIP3    H132902   2.841   2.942   0.369
10987TIP3    H232903   2.849   3.088   0.331
10988TIP3   OH232904   2.031   5.190   5.060
10988TIP3    H132905   1.974   5.130   5.108
10988TIP3    H232906   2.074   5.136   4.995
10989TIP3   OH232907   5.262   5.804   0.350
10989TIP3    H132908   5.310   5.723   0.333
10989TIP3    H232909   5.290   5.831   0.437
10990TIP3   OH232910   5.440   0.280   1.299
10990TIP3    H132911   5.396   0.223   1.363
10990TIP3    H232912   5.370   0.334   1.264
10991TIP3   OH232913   3.637   1.369   2.304
10991TIP3    H132914   3.553   1.406   2.277
10991TIP3    H232915   3.634   1.278   2.275
10992TIP3   OH232916   6.801   2.468   6.190
10992TIP3    H132917   6.814   2.558   6.221
10992TIP3    H232918   6.815   2.414   6.268
10993TIP3   OH232919   5.335   7.454   4.467
10993TIP3    H132920   5.396   7.519   4.431
10993TIP3    H232921   5.283   7.503   4.531
10994TIP3   OH232922   1.294   2.294   0.978
10994TIP3    H132923   1.340   2.210   0.983
10994TIP3    H232924   1.259   2.307   1.066
10995TIP3   OH232925   7.943   5.197   3.200
10995TIP3    H132926   7.905   5.277   3.162
10995TIP3    H232927   7.921   5.128   3.138
10996TIP3   OH232928   0.858   3.746   4.853
10996TIP3    H132929   0.899   3.721   4.770
10996TIP3    H232930   0.844   3.841   4.846
10997TIP3   OH232931   0.416   1.114   5.715
10997TIP3    H132932   0.505   1.147   5.704
10997TIP3    H232933   0.420   1.022   5.691
10998TIP3   OH232934   5.495   6.691   3.131
10998TIP3    H132935   5.413   6.738   3.116
10998TIP3    H232936   5.547   6.709   3.053
10999TIP3   OH232937   4.162   6.411   2.407
10999TIP3    H132938   4.178   6.453   2.322
10999TIP3    H232939   4.183   6.319   2.392
11000TIP3   OH232940   4.216   3.746   2.618
11000TIP3    H132941   4.195   3.676   2.679
11000TIP3    H232942   4.223   3.825   2.672
11001TIP3   OH232943   0.112   3.233   4.533
11001TIP3    H132944   0.113   3.171   4.459
11001TIP3    H232945   0.147   3.314   4.496
11002TIP3   OH232946   4.185   0.061   0.625
11002TIP3    H132947   4.278   0.050   0.645
11002TIP3    H232948   4.182   0.126   0.555
11003TIP3   OH232949   4.222   6.503   2.131
11003TIP3    H132950   4.279   6.565   2.087
11003TIP3    H232951   4.133   6.530   2.106
11004TIP3   OH232952   5.169   4.810   5.200
11004TIP3    H132953   5.135   4.725   5.228
11004TIP3    H232954   5.250   4.822   5.250
11005TIP3   OH232955   0.673   3.312   3.377
11005TIP3    H132956   0.577   3.309   3.381
11005TIP3    H232957   0.700   3.337   3.465
11006TIP3   OH232958   2.680   3.821   4.737
11006TIP3    H132959   2.685   3.916   4.732
11006TIP3    H232960   2.770   3.791   4.727
11007TIP3   OH232961   4.138   4.624   1.966
11007TIP3    H132962   4.180   4.638   1.881
11007TIP3    H232963   4.052   4.665   1.957
11008TIP3   OH232964   8.245   3.818   2.908
11008TIP3    H132965   8.335   3.849   2.898
11008TIP3    H232966   8.210   3.817   2.818
11009TIP3   OH232967   6.070   3.791   5.810
11009TIP3    H132968   6.031   3.716   5.854
11009TIP3    H232969   6.139   3.754   5.755
11010TIP3   OH232970   0.393   4.899   5.780
11010TIP3    H132971   0.340   4.967   5.740
11010TIP3    H232972   0.363   4.817   5.741
11011TIP3   OH232973   6.140   7.190   0.819
11011TIP3    H132974   6.107   7.144   0.896
11011TIP3    H232975   6.113   7.135   0.745
11012TIP3   OH232976   1.370   2.886   4.312
11012TIP3    H132977   1.370   2.940   4.233
11012TIP3    H232978   1.321   2.938   4.376
11013TIP3   OH232979   3.475   6.986   5.574
11013TIP3    H132980   3.537   7.044   5.529
11013TIP3    H232981   3.469   6.910   5.517
11014TIP3   OH232982   1.850   4.381   1.595
11014TIP3    H132983   1.839   4.440   1.521
11014TIP3    H232984   1.819   4.430   1.670
11015TIP3   OH232985   0.294   3.156   0.293
11015TIP3    H132986   0.283   3.252   0.294
11015TIP3    H232987   0.348   3.138   0.217
11016TIP3   OH232988   4.226   0.391   0.025
11016TIP3    H132989   4.194   0.481   0.034
11016TIP3    H232990   4.147   0.337   0.026
11017TIP3   OH232991   8.195   7.435   0.711
11017TIP3    H132992   8.274   7.387   0.733
11017TIP3    H232993   8.190   7.430   0.615
11018TIP3   OH232994   5.208   3.406   5.067
11018TIP3    H132995   5.201   3.374   4.977
11018TIP3    H232996   5.129   3.458   5.081
11019TIP3   OH232997   6.723   5.921   2.425
11019TIP3    H132998   6.715   5.826   2.428
11019TIP3    H232999   6.778   5.939   2.349
11020TIP3   OH233000   0.349   5.178   6.292
11020TIP3    H133001   0.366   5.234   6.368
11020TIP3    H233002   0.270   5.129   6.316
11021TIP3   OH233003   2.383   4.697   0.579
11021TIP3    H133004   2.455   4.735   0.630
11021TIP3    H233005   2.340   4.637   0.639
11022TIP3   OH233006   7.162   0.116   1.356
11022TIP3    H133007   7.162   0.038   1.411
11022TIP3    H233008   7.239   0.107   1.300
11023TIP3   OH233009   0.218   3.154   5.983
11023TIP3    H133010   0.198   3.207   6.060
11023TIP3    H233011   0.135   3.148   5.936
11024TIP3   OH233012   5.592   7.889   3.888
11024TIP3    H133013   5.657   7.848   3.832
11024TIP3    H233014   5.517   7.903   3.830
11025TIP3   OH233015   4.735   2.246   2.578
11025TIP3    H133016   4.748   2.285   2.491
11025TIP3    H233017   4.649   2.204   2.573
11026TIP3   OH233018   2.852   2.197   5.695
11026TIP3    H133019   2.894   2.276   5.662
11026TIP3    H233020   2.880   2.191   5.787
11027TIP3   OH233021   1.457   5.485   2.383
11027TIP3    H133022   1.412   5.570   2.380
11027TIP3    H233023   1.436   5.451   2.470
11028TIP3   OH233024   2.661   5.898   3.631
11028TIP3    H133025   2.574   5.881   3.594
11028TIP3    H233026   2.695   5.972   3.582
11029TIP3   OH233027   2.658   3.849   5.408
11029TIP3    H133028   2.652   3.784   5.338
11029TIP3    H233029   2.604   3.922   5.377
11030TIP3   OH233030   4.752   5.851   6.782
11030TIP3    H133031   4.827   5.860   6.841
11030TIP3    H233032   4.787   5.870   6.695
11031TIP3   OH233033   5.867   2.942   2.081
11031TIP3    H133034   5.931   2.951   2.151
11031TIP3    H233035   5.789   2.988   2.112
11032TIP3   OH233036   0.597   3.005   0.164
11032TIP3    H133037   0.661   3.036   0.100
11032TIP3    H233038   0.634   2.922   0.196
11033TIP3   OH233039   6.956   1.272   6.042
11033TIP3    H133040   6.915   1.213   6.105
11033TIP3    H233041   6.942   1.359   6.078
11034TIP3   OH233042   8.211   7.359   0.459
11034TIP3    H133043   8.305   7.364   0.438
11034TIP3    H233044   8.180   7.283   0.410
11035TIP3   OH233045   2.518   0.593   4.046
11035TIP3    H133046   2.474   0.596   4.131
11035TIP3    H233047   2.490   0.510   4.008
11036TIP3   OH233048   3.510   0.035   0.411
11036TIP3    H133049   3.520  -0.035   0.347
11036TIP3    H233050   3.419   0.064   0.402
11037TIP3   OH233051   4.192   4.060   4.317
11037TIP3    H133052   4.114   4.075   4.370
11037TIP3    H233053   4.185   4.125   4.246
11038TIP3   OH233054   2.426   7.260   6.001
11038TIP3    H133055   2.488   7.223   5.938
11038TIP3    H233056   2.454   7.351   6.011
11039TIP3   OH233057   2.273   7.405   1.869
11039TIP3    H133058   2.193   7.456   1.855
11039TIP3    H233059   2.246   7.338   1.933
11040TIP3   OH233060   1.286   2.854   3.974
11040TIP3    H133061   1.225   2.819   3.909
11040TIP3    H233062   1.363   2.799   3.968
11041TIP3   OH233063   1.083   2.964   6.277
11041TIP3    H133064   1.022   2.893   6.257
11041TIP3    H233065   1.029   3.043   6.276
11042TIP3   OH233066   1.535   2.568   2.260
11042TIP3    H133067   1.609   2.518   2.225
11042TIP3    H233068   1.464   2.553   2.198
11043TIP3   OH233069   7.151   4.391   2.642
11043TIP3    H133070   7.120   4.415   2.555
11043TIP3    H233071   7.095   4.318   2.668
11044TIP3   OH233072   2.142   4.883   1.957
11044TIP3    H133073   2.051   4.851   1.959
11044TIP3    H233074   2.148   4.931   1.874
11045TIP3   OH233075   8.115   1.874   2.948
11045TIP3    H133076   8.069   1.926   3.014
11045TIP3    H233077   8.121   1.932   2.872
11046TIP3   OH233078   7.735   5.623   6.852
11046TIP3    H133079   7.812   5.666   6.816
11046TIP3    H233080   7.662   5.660   6.802
11047TIP3   OH233081   7.735   7.876   0.166
11047TIP3    H133082   7.802   7.910   0.225
11047TIP3    H233083   7.765   7.789   0.142
11048TIP3   OH233084   2.747   0.710   3.075
11048TIP3    H133085   2.720   0.788   3.124
11048TIP3    H233086   2.842   0.706   3.087
11049TIP3   OH233087   1.564   2.656   6.768
11049TIP3    H133088   1.482   2.702   6.786
11049TIP3    H233089   1.631   2.711   6.809
11050TIP3   OH233090   6.092   1.230   0.778
11050TIP3    H133091   6.187   1.242   0.785
11050TIP3    H233092   6.057   1.275   0.855
11051TIP3   OH233093   4.941   1.863   0.548
11051TIP3    H133094   4.896   1.863   0.633
11051TIP3    H233095   4.943   1.954   0.522
11052TIP3   OH233096   4.231   0.036   4.882
11052TIP3    H133097   4.242  -0.059   4.889
11052TIP3    H233098   4.252   0.069   4.970
11053TIP3   OH233099   0.453   6.234   1.154
11053TIP3    H133100   0.390   6.237   1.226
11053TIP3    H233101   0.412   6.178   1.089
11054TIP3   OH233102   0.488   7.919   1.753
11054TIP3    H133103   0.566   7.879   1.791
11054TIP3    H233104   0.518   7.950   1.667
11055TIP3   OH233105   0.108   4.898   2.335
11055TIP3    H133106   0.138   4.885   2.425
11055TIP3    H233107   0.079   4.811   2.306
11056TIP3   OH233108   6.731   5.999   6.721
11056TIP3    H133109   6.824   6.021   6.728
11056TIP3    H233110   6.694   6.067   6.665
11057TIP3   OH233111   7.068   0.640   0.988
11057TIP3    H133112   6.992   0.585   0.970
11057TIP3    H233113   7.033   0.718   1.031
11058TIP3   OH233114   1.364  -0.016   3.447
11058TIP3    H133115   1.394   0.035   3.522
11058TIP3    H233116   1.356   0.047   3.376
11059TIP3   OH233117   1.080   2.091   5.614
11059TIP3    H133118   1.010   2.027   5.623
11059TIP3    H233119   1.102   2.090   5.521
11060TIP3   OH233120   6.054   0.717   3.168
11060TIP3    H133121   6.071   0.664   3.091
11060TIP3    H233122   6.019   0.656   3.233
11061TIP3   OH233123   2.060   3.513   3.599
11061TIP3    H133124   2.105   3.499   3.683
11061TIP3    H233125   1.976   3.467   3.610
11062TIP3   OH233126   4.837   3.022   3.716
11062TIP3    H133127   4.775   3.074   3.665
11062TIP3    H233128   4.859   3.078   3.790
11063TIP3   OH233129   7.243   7.467   2.843
11063TIP3    H133130   7.184   7.420   2.784
11063TIP3    H233131   7.203   7.456   2.930
11064TIP3   OH233132   0.071   5.390   0.956
11064TIP3    H133133   0.101   5.426   1.040
11064TIP3    H233134   0.028   5.464   0.913
11065TIP3   OH233135   4.274   6.887   6.475
11065TIP3    H133136   4.208   6.818   6.475
11065TIP3    H233137   4.358   6.841   6.475
11066TIP3   OH233138   2.384   2.578   2.486
11066TIP3    H133139   2.466   2.546   2.448
11066TIP3    H233140   2.371   2.664   2.447
11067TIP3   OH233141   4.683   4.981   1.000
11067TIP3    H133142   4.702   5.072   1.023
11067TIP3    H233143   4.654   4.984   0.909
11068TIP3   OH233144   2.400   7.795   4.847
11068TIP3    H133145   2.444   7.709   4.851
11068TIP3    H233146   2.311   7.777   4.877
11069TIP3   OH233147   4.023   7.837   2.073
11069TIP3    H133148   4.092   7.845   2.007
11069TIP3    H233149   4.070   7.814   2.153
11070TIP3   OH233150   0.573   5.593   1.829
11070TIP3    H133151   0.628   5.541   1.888
11070TIP3    H233152   0.532   5.529   1.772
11071TIP3   OH233153   4.545   7.624   4.326
11071TIP3    H133154   4.535   7.607   4.233
11071TIP3    H233155   4.528   7.540   4.368
11072TIP3   OH233156   4.406   7.225   5.712
11072TIP3    H133157   4.389   7.312   5.749
11072TIP3    H233158   4.348   7.167   5.761
11073TIP3   OH233159   2.542   7.791   0.261
11073TIP3    H133160   2.461   7.745   0.280
11073TIP3    H233161   2.607   7.722   0.248
11074TIP3   OH233162   1.615   7.288   6.217
11074TIP3    H133163   1.625   7.193   6.221
11074TIP3    H233164   1.705   7.321   6.217
11075TIP3   OH233165   7.775   1.195   4.694
11075TIP3    H133166   7.692   1.177   4.736
11075TIP3    H233167   7.789   1.289   4.706
11076TIP3   OH233168   8.292   6.708   1.548
11076TIP3    H133169   8.334   6.645   1.607
11076TIP3    H233170   8.329   6.793   1.574
11077TIP3   OH233171   1.782   2.705   4.621
11077TIP3    H133172   1.820   2.753   4.548
11077TIP3    H233173   1.849   2.708   4.689
11078TIP3   OH233174   2.631   5.141   2.767
11078TIP3    H133175   2.659   5.129   2.858
11078TIP3    H233176   2.541   5.174   2.774
11079TIP3   OH233177   2.773   6.707   5.103
11079TIP3    H133178   2.811   6.623   5.077
11079TIP3    H233179   2.818   6.772   5.049
11080TIP3   OH233180   0.395   6.272   5.134
11080TIP3    H133181   0.424   6.348   5.084
11080TIP3    H233182   0.468   6.251   5.192
11081TIP3   OH233183   4.571   1.326   6.175
11081TIP3    H133184   4.563   1.231   6.168
11081TIP3    H233185   4.515   1.350   6.248
11082TIP3   OH233186   2.917   4.451   4.216
11082TIP3    H133187   3.002   4.413   4.193
11082TIP3    H233188   2.862   4.376   4.238
11083TIP3   OH233189   1.110   7.643   0.232
11083TIP3    H133190   1.045   7.645   0.162
11083TIP3    H233191   1.077   7.705   0.297
11084TIP3   OH233192   5.003   1.032   4.291
11084TIP3    H133193   5.020   1.098   4.223
11084TIP3    H233194   4.934   1.070   4.345
11085TIP3   OH233195   3.498   7.266   1.372
11085TIP3    H133196   3.477   7.173   1.378
11085TIP3    H233197   3.445   7.297   1.298
11086TIP3   OH233198   1.220   4.330   0.366
11086TIP3    H133199   1.232   4.302   0.275
11086TIP3    H233200   1.308   4.325   0.404
11087TIP3   OH233201   5.432   6.465   5.941
11087TIP3    H133202   5.524   6.456   5.966
11087TIP3    H233203   5.410   6.380   5.902
11088TIP3   OH233204   6.585   7.210   6.734
11088TIP3    H133205   6.616   7.299   6.721
11088TIP3    H233206   6.637   7.157   6.674
11089TIP3   OH233207   3.057   5.822   3.588
11089TIP3    H133208   3.010   5.900   3.556
11089TIP3    H233209   3.135   5.817   3.533
11090TIP3   OH233210   1.600   0.538   1.303
11090TIP3    H133211   1.525   0.567   1.252
11090TIP3    H233212   1.628   0.616   1.352
11091TIP3   OH233213   6.628   6.859   3.079
11091TIP3    H133214   6.629   6.954   3.086
11091TIP3    H233215   6.688   6.840   3.007
11092TIP3   OH233216   7.248   7.616   5.410
11092TIP3    H133217   7.176   7.656   5.361
11092TIP3    H233218   7.270   7.681   5.478
11093TIP3   OH233219   2.325   0.668   5.969
11093TIP3    H133220   2.353   0.660   5.878
11093TIP3    H233221   2.401   0.704   6.015
11094TIP3   OH233222   2.766   6.597   4.707
11094TIP3    H133223   2.799   6.684   4.728
11094TIP3    H233224   2.763   6.551   4.791
11095TIP3   OH233225   5.308   2.295   1.613
11095TIP3    H133226   5.270   2.229   1.556
11095TIP3    H233227   5.232   2.341   1.650
11096TIP3   OH233228   7.825   2.697   3.670
11096TIP3    H133229   7.773   2.696   3.751
11096TIP3    H233230   7.777   2.639   3.611
11097TIP3   OH233231   1.446   1.034   5.007
11097TIP3    H133232   1.401   1.079   5.077
11097TIP3    H233233   1.401   0.950   4.999
11098TIP3   OH233234   2.415   5.682   2.849
11098TIP3    H133235   2.485   5.713   2.792
11098TIP3    H233236   2.336   5.689   2.796
11099TIP3   OH233237   5.490   3.328   1.048
11099TIP3    H133238   5.539   3.387   0.991
11099TIP3    H233239   5.477   3.249   0.996
11100TIP3   OH233240   2.883   1.882   0.509
11100TIP3    H133241   2.956   1.834   0.469
11100TIP3    H233242   2.893   1.867   0.603
11101TIP3   OH233243   1.358   2.574   2.725
11101TIP3    H133244   1.354   2.541   2.635
11101TIP3    H233245   1.443   2.547   2.757
11102TIP3   OH233246   0.106   1.332   1.948
11102TIP3    H133247   0.161   1.361   2.021
11102TIP3    H233248   0.024   1.380   1.960
11103TIP3   OH233249   1.608   5.019   2.518
11103TIP3    H133250   1.610   5.099   2.571
11103TIP3    H233251   1.698   5.009   2.486
11104TIP3   OH233252   2.295   4.218   2.746
11104TIP3    H133253   2.303   4.129   2.711
11104TIP3    H233254   2.307   4.207   2.841
11105TIP3   OH233255   2.809   1.226   4.842
11105TIP3    H133256   2.816   1.222   4.747
11105TIP3    H233257   2.720   1.196   4.862
11106TIP3   OH233258   8.386   1.795   2.633
11106TIP3    H133259   8.380   1.826   2.723
11106TIP3    H233260   8.433   1.865   2.587
11107TIP3   OH233261   5.247   2.693   1.756
11107TIP3    H133262   5.280   2.747   1.684
11107TIP3    H233263   5.229   2.755   1.826
11108TIP3   OH233264   5.024   5.897   0.047
11108TIP3    H133265   5.048   5.889  -0.045
11108TIP3    H233266   4.946   5.952   0.046
11109TIP3   OH233267   6.045   5.318   5.763
11109TIP3    H133268   5.964   5.367   5.746
11109TIP3    H233269   6.099   5.335   5.686
11110TIP3   OH233270   6.458   2.875   3.385
11110TIP3    H133271   6.502   2.955   3.357
11110TIP3    H233272   6.530   2.816   3.409
11111TIP3   OH233273   2.966   0.507   0.517
11111TIP3    H133274   2.955   0.592   0.560
11111TIP3    H233275   2.879   0.468   0.517
11112TIP3   OH233276   5.079   5.696   1.769
11112TIP3    H133277   5.020   5.627   1.740
11112TIP3    H233278   5.102   5.673   1.859
11113TIP3   OH233279   5.858   0.393   6.578
11113TIP3    H133280   5.836   0.451   6.506
11113TIP3    H233281   5.789   0.408   6.643
11114TIP3   OH233282   3.341   5.841   3.463
11114TIP3    H133283   3.401   5.809   3.395
11114TIP3    H233284   3.395   5.898   3.518
11115TIP3   OH233285   5.790   6.633   6.491
11115TIP3    H133286   5.809   6.573   6.563
11115TIP3    H233287   5.748   6.708   6.533
11116TIP3   OH233288   6.825   7.885   1.988
11116TIP3    H133289   6.801   7.876   1.896
11116TIP3    H233290   6.861   7.799   2.012
11117TIP3   OH233291   5.182   5.381   5.082
11117TIP3    H133292   5.096   5.369   5.042
11117TIP3    H233293   5.226   5.444   5.025
11118TIP3   OH233294   0.991   5.735   3.385
11118TIP3    H133295   1.001   5.679   3.462
11118TIP3    H233296   1.080   5.763   3.364
11119TIP3   OH233297   1.385   0.156   4.991
11119TIP3    H133298   1.404   0.216   4.919
11119TIP3    H233299   1.349   0.212   5.060
11120TIP3   OH233300   1.953   3.214   3.463
11120TIP3    H133301   1.991   3.190   3.548
11120TIP3    H233302   1.861   3.189   3.469
11121TIP3   OH233303   3.703   6.672   1.239
11121TIP3    H133304   3.713   6.577   1.235
11121TIP3    H233305   3.786   6.706   1.207
11122TIP3   OH233306   6.898   1.572   2.595
11122TIP3    H133307   6.899   1.610   2.506
11122TIP3    H233308   6.835   1.501   2.590
11123TIP3   OH233309   6.966   1.519   2.121
11123TIP3    H133310   7.028   1.487   2.056
11123TIP3    H233311   6.880   1.493   2.088
11124TIP3   OH233312   3.744   6.272   2.823
11124TIP3    H133313   3.753   6.340   2.757
11124TIP3    H233314   3.815   6.210   2.805
11125TIP3   OH233315   5.261   3.984   0.745
11125TIP3    H133316   5.302   3.900   0.766
11125TIP3    H233317   5.209   3.966   0.667
11126TIP3   OH233318   0.995   4.577   3.845
11126TIP3    H133319   1.011   4.596   3.753
11126TIP3    H233320   0.993   4.662   3.888
11127TIP3   OH233321   4.116   1.987   4.946
11127TIP3    H133322   4.150   2.074   4.925
11127TIP3    H233323   4.030   1.984   4.906
11128TIP3   OH233324   6.012   2.183   1.944
11128TIP3    H133325   5.996   2.235   2.023
11128TIP3    H233326   6.104   2.201   1.923
11129TIP3   OH233327   3.315   1.877   5.263
11129TIP3    H133328   3.375   1.914   5.328
11129TIP3    H233329   3.341   1.786   5.255
11130TIP3   OH233330   0.759   7.853   1.307
11130TIP3    H133331   0.751   7.898   1.222
11130TIP3    H233332   0.845   7.812   1.303
11131TIP3   OH233333   3.640   0.312   6.402
11131TIP3    H133334   3.720   0.317   6.454
11131TIP3    H233335   3.659   0.364   6.324
11132TIP3   OH233336   6.685   3.727   2.256
11132TIP3    H133337   6.651   3.766   2.176
11132TIP3    H233338   6.740   3.654   2.227
11133TIP3   OH233339   0.127   4.727   3.613
11133TIP3    H133340   0.088   4.690   3.692
11133TIP3    H233341   0.211   4.763   3.643
11134TIP3   OH233342   1.855   1.645   2.089
11134TIP3    H133343   1.797   1.576   2.121
11134TIP3    H233344   1.835   1.720   2.145
11135TIP3   OH233345   4.965   1.534   3.047
11135TIP3    H133346   5.003   1.556   3.132
11135TIP3    H233347   4.990   1.443   3.032
11136TIP3   OH233348   3.578   4.949   0.116
11136TIP3    H133349   3.612   4.859   0.119
11136TIP3    H233350   3.581   4.978   0.208
11137TIP3   OH233351   7.371   1.323   2.762
11137TIP3    H133352   7.344   1.240   2.724
11137TIP3    H233353   7.312   1.387   2.725
11138TIP3   OH233354   5.769   7.370   3.785
11138TIP3    H133355   5.770   7.288   3.736
11138TIP3    H233356   5.817   7.432   3.730
11139TIP3   OH233357   3.829   5.959   6.626
11139TIP3    H133358   3.827   5.943   6.532
11139TIP3    H233359   3.758   5.904   6.661
11140TIP3   OH233360   4.241   0.057   1.695
11140TIP3    H133361   4.298   0.126   1.729
11140TIP3    H233362   4.168   0.054   1.756
11141TIP3   OH233363   3.487   5.789   3.998
11141TIP3    H133364   3.465   5.723   4.064
11141TIP3    H233365   3.403   5.812   3.959
11142TIP3   OH233366   2.114   6.572   0.681
11142TIP3    H133367   2.022   6.593   0.667
11142TIP3    H233368   2.148   6.643   0.735
11143TIP3   OH233369   4.806   4.436   1.963
11143TIP3    H133370   4.837   4.515   1.919
11143TIP3    H233371   4.714   4.430   1.940
11144TIP3   OH233372   7.096   4.047   6.474
11144TIP3    H133373   7.147   4.096   6.539
11144TIP3    H233374   7.005   4.066   6.496
11145TIP3   OH233375   7.118   4.864   3.680
11145TIP3    H133376   7.054   4.821   3.624
11145TIP3    H233377   7.188   4.893   3.620
11146TIP3   OH233378   7.554   5.756   2.043
11146TIP3    H133379   7.570   5.707   2.124
11146TIP3    H233380   7.638   5.754   1.997
11147TIP3   OH233381   3.198   1.932   0.361
11147TIP3    H133382   3.182   1.857   0.304
11147TIP3    H233383   3.292   1.948   0.353
11148TIP3   OH233384   0.131   5.817   4.452
11148TIP3    H133385   0.122   5.750   4.385
11148TIP3    H233386   0.068   5.884   4.428
11149TIP3   OH233387   1.096   6.952   6.544
11149TIP3    H133388   1.046   6.874   6.564
11149TIP3    H233389   1.187   6.929   6.564
11150TIP3   OH233390   5.059   3.416   2.467
11150TIP3    H133391   4.990   3.376   2.520
11150TIP3    H233392   5.015   3.439   2.385
11151TIP3   OH233393   8.076   2.995   6.647
11151TIP3    H133394   8.034   2.990   6.733
11151TIP3    H233395   8.015   2.951   6.588
11152TIP3   OH233396   5.089   6.459   0.135
11152TIP3    H133397   5.080   6.394   0.064
11152TIP3    H233398   5.051   6.539   0.099
11153TIP3   OH233399   4.289   2.022   2.676
11153TIP3    H133400   4.263   2.002   2.766
11153TIP3    H233401   4.207   2.044   2.632
11154TIP3   OH233402   0.985   6.036   1.570
11154TIP3    H133403   0.967   6.063   1.480
11154TIP3    H233404   0.898   6.033   1.612
11155TIP3   OH233405   2.912   4.045   1.459
11155TIP3    H133406   2.839   3.993   1.424
11155TIP3    H233407   2.892   4.134   1.432
11156TIP3   OH233408   2.384   6.693   6.665
11156TIP3    H133409   2.315   6.687   6.600
11156TIP3    H233410   2.424   6.779   6.649
11157TIP3   OH233411   6.153   4.039   5.796
11157TIP3    H133412   6.116   4.069   5.713
11157TIP3    H233413   6.120   3.949   5.806
11158TIP3   OH233414   6.536   3.275   5.976
11158TIP3    H133415   6.502   3.270   5.887
11158TIP3    H233416   6.631   3.267   5.965
11159TIP3   OH233417   2.122   0.685   6.153
11159TIP3    H133418   2.122   0.645   6.241
11159TIP3    H233419   2.206   0.659   6.116
11160TIP3   OH233420   6.448   6.039   4.138
11160TIP3    H133421   6.518   6.028   4.202
11160TIP3    H233422   6.488   6.014   4.054
11161TIP3   OH233423   7.926   1.272   5.139
11161TIP3    H133424   7.944   1.354   5.093
11161TIP3    H233425   7.947   1.204   5.075
11162TIP3   OH233426   3.549   5.884   0.743
11162TIP3    H133427   3.518   5.892   0.833
11162TIP3    H233428   3.642   5.861   0.751
11163TIP3   OH233429   4.736   7.541   6.139
11163TIP3    H133430   4.683   7.607   6.093
11163TIP3    H233431   4.823   7.580   6.144
11164TIP3   OH233432   2.162   5.317   5.264
11164TIP3    H133433   2.147   5.273   5.180
11164TIP3    H233434   2.137   5.251   5.329
11165TIP3   OH233435   4.327   6.890   1.847
11165TIP3    H133436   4.334   6.853   1.759
11165TIP3    H233437   4.258   6.956   1.840
11166TIP3   OH233438   2.440   5.277   0.796
11166TIP3    H133439   2.529   5.260   0.827
11166TIP3    H233440   2.422   5.205   0.736
11167TIP3   OH233441   2.914   5.706   5.741
11167TIP3    H133442   2.963   5.749   5.671
11167TIP3    H233443   2.877   5.778   5.792
11168TIP3   OH233444   3.437   6.627   4.339
11168TIP3    H133445   3.345   6.634   4.313
11168TIP3    H233446   3.483   6.687   4.281
11169TIP3   OH233447   6.313   7.253   6.708
11169TIP3    H133448   6.328   7.295   6.624
11169TIP3    H233449   6.400   7.249   6.748
11170TIP3   OH233450   1.308   6.632   2.914
11170TIP3    H133451   1.248   6.626   2.988
11170TIP3    H233452   1.329   6.541   2.893
11171TIP3   OH233453   3.837   6.641   6.373
11171TIP3    H133454   3.749   6.617   6.404
11171TIP3    H233455   3.828   6.647   6.278
11172TIP3   OH233456   5.707   6.482   6.015
11172TIP3    H133457   5.733   6.559   6.066
11172TIP3    H233458   5.738   6.501   5.926
11173TIP3   OH233459   5.238   2.487   6.762
11173TIP3    H133460   5.244   2.578   6.733
11173TIP3    H233461   5.207   2.492   6.852
11174TIP3   OH233462   7.651   6.275   3.030
11174TIP3    H133463   7.569   6.310   3.065
11174TIP3    H233464   7.706   6.352   3.014
11175TIP3   OH233465   5.164   5.988   6.131
11175TIP3    H133466   5.139   6.074   6.097
11175TIP3    H233467   5.240   5.962   6.079
11176TIP3   OH233468   2.237   1.963   6.645
11176TIP3    H133469   2.178   1.925   6.580
11176TIP3    H233470   2.276   2.039   6.602
11177TIP3   OH233471   5.855   2.838   5.790
11177TIP3    H133472   5.867   2.839   5.885
11177TIP3    H233473   5.923   2.896   5.756
11178TIP3   OH233474   0.803   7.582   6.477
11178TIP3    H133475   0.740   7.584   6.549
11178TIP3    H233476   0.816   7.488   6.460
11179TIP3   OH233477   3.539   6.509   1.564
11179TIP3    H133478   3.469   6.497   1.629
11179TIP3    H233479   3.495   6.539   1.485
11180TIP3   OH233480   0.550   4.256   2.102
11180TIP3    H133481   0.495   4.333   2.113
11180TIP3    H233482   0.590   4.243   2.188
11181TIP3   OH233483   1.327   6.965   1.730
11181TIP3    H133484   1.258   6.941   1.667
11181TIP3    H233485   1.333   6.889   1.788
11182TIP3   OH233486   0.388   4.177   1.837
11182TIP3    H133487   0.428   4.171   1.750
11182TIP3    H233488   0.449   4.232   1.887
11183TIP3   OH233489   7.769   7.627   5.250
11183TIP3    H133490   7.819   7.560   5.203
11183TIP3    H233491   7.730   7.580   5.324
11184TIP3   OH233492   7.950   2.948   3.049
11184TIP3    H133493   8.036   2.912   3.071
11184TIP3    H233494   7.968   3.037   3.017
11185TIP3   OH233495   5.910   3.597   6.514
11185TIP3    H133496   5.851   3.522   6.505
11185TIP3    H233497   5.997   3.563   6.493
11186TIP3   OH233498   2.946   6.221   4.739
11186TIP3    H133499   3.001   6.187   4.669
11186TIP3    H233500   2.988   6.303   4.765
11187TIP3   OH233501   1.802   0.454   1.526
11187TIP3    H133502   1.723   0.502   1.503
11187TIP3    H233503   1.862   0.521   1.558
11188TIP3   OH233504   8.432   6.469   2.816
11188TIP3    H133505   8.364   6.408   2.786
11188TIP3    H233506   8.406   6.554   2.779
11189TIP3   OH233507   6.201   6.405   4.233
11189TIP3    H133508   6.295   6.423   4.242
11189TIP3    H233509   6.162   6.490   4.216
11190TIP3   OH233510   7.390   3.157   2.504
11190TIP3    H133511   7.367   3.237   2.458
11190TIP3    H233512   7.334   3.090   2.465
11191TIP3   OH233513   7.418   7.392   6.856
11191TIP3    H133514   7.385   7.465   6.804
11191TIP3    H233515   7.504   7.421   6.886
11192TIP3   OH233516   4.911   5.513   1.668
11192TIP3    H133517   4.825   5.510   1.710
11192TIP3    H233518   4.928   5.422   1.642
11193TIP3   OH233519   5.239   1.390   2.812
11193TIP3    H133520   5.184   1.414   2.886
11193TIP3    H233521   5.194   1.427   2.736
11194TIP3   OH233522   0.832   7.402   2.270
11194TIP3    H133523   0.899   7.362   2.215
11194TIP3    H233524   0.768   7.332   2.283
11195TIP3   OH233525   6.436   6.887   6.159
11195TIP3    H133526   6.380   6.829   6.211
11195TIP3    H233527   6.488   6.935   6.224
11196TIP3   OH233528   2.186   3.176   5.456
11196TIP3    H133529   2.255   3.150   5.395
11196TIP3    H233530   2.233   3.216   5.529
11197TIP3   OH233531   7.584   0.086   5.050
11197TIP3    H133532   7.581   0.099   5.144
11197TIP3    H233533   7.662   0.033   5.035
11198TIP3   OH233534   0.655   6.475   0.361
11198TIP3    H133535   0.719   6.447   0.296
11198TIP3    H233536   0.589   6.523   0.311
11199TIP3   OH233537   7.161   1.794   1.292
11199TIP3    H133538   7.163   1.834   1.379
11199TIP3    H233539   7.226   1.724   1.297
11200TIP3   OH233540   7.989   4.919   1.719
11200TIP3    H133541   7.919   4.865   1.757
11200TIP3    H233542   7.945   4.970   1.651
11201TIP3   OH233543   2.015   5.236   2.095
11201TIP3    H133544   2.021   5.310   2.155
11201TIP3    H233545   2.073   5.170   2.134
11202TIP3   OH233546   5.467   1.208   6.258
11202TIP3    H133547   5.420   1.127   6.274
11202TIP3    H233548   5.451   1.261   6.336
11203TIP3   OH233549   6.534   3.979   0.515
11203TIP3    H133550   6.588   3.915   0.469
11203TIP3    H233551   6.597   4.045   0.545
11204TIP3   OH233552   2.592   4.039   2.891
11204TIP3    H133553   2.547   4.023   2.974
11204TIP3    H233554   2.594   4.135   2.883
11205TIP3   OH233555   3.817   1.946   5.870
11205TIP3    H133556   3.903   1.952   5.830
11205TIP3    H233557   3.757   1.982   5.804
11206TIP3   OH233558   4.245   5.360   1.104
11206TIP3    H133559   4.168   5.383   1.155
11206TIP3    H233560   4.232   5.402   1.019
11207TIP3   OH233561   8.320   4.953   4.832
11207TIP3    H133562   8.280   4.874   4.868
11207TIP3    H233563   8.303   4.948   4.738
11208TIP3   OH233564   1.384   7.055   2.887
11208TIP3    H133565   1.289   7.067   2.876
11208TIP3    H233566   1.391   6.999   2.964
11209TIP3   OH233567   3.010   3.661   3.898
11209TIP3    H133568   3.012   3.756   3.904
11209TIP3    H233569   2.995   3.632   3.988
11210TIP3   OH233570   0.141   5.443   2.755
11210TIP3    H133571   0.111   5.352   2.749
11210TIP3    H233572   0.078   5.493   2.703
11211TIP3   OH233573   3.761   5.479   2.329
11211TIP3    H133574   3.767   5.394   2.373
11211TIP3    H233575   3.820   5.471   2.254
11212TIP3   OH233576   4.254   5.478   0.451
11212TIP3    H133577   4.341   5.497   0.415
11212TIP3    H233578   4.219   5.564   0.475
11213TIP3   OH233579   7.843   3.438   4.984
11213TIP3    H133580   7.777   3.496   5.023
11213TIP3    H233581   7.822   3.351   5.017
11214TIP3   OH233582   1.185   0.447   2.809
11214TIP3    H133583   1.211   0.455   2.717
11214TIP3    H233584   1.231   0.519   2.852
11215TIP3   OH233585   1.709   4.111   0.062
11215TIP3    H133586   1.704   4.204   0.043
11215TIP3    H233587   1.638   4.095   0.124
11216TIP3   OH233588   4.389   0.063   2.602
11216TIP3    H133589   4.305   0.109   2.597
11216TIP3    H233590   4.377  -0.001   2.672
11217TIP3   OH233591   6.984   0.339   4.427
11217TIP3    H133592   7.006   0.255   4.468
11217TIP3    H233593   6.976   0.318   4.334
11218TIP3   OH233594   6.927   4.736   1.452
11218TIP3    H133595   7.007   4.764   1.498
11218TIP3    H233596   6.884   4.819   1.428
11219TIP3   OH233597   5.549   1.777   4.284
11219TIP3    H133598   5.564   1.828   4.204
11219TIP3    H233599   5.554   1.842   4.354
11220TIP3   OH233600   0.438   5.089   4.054
11220TIP3    H133601   0.458   5.036   3.977
11220TIP3    H233602   0.382   5.160   4.020
11221TIP3   OH233603   3.423   7.056   6.501
11221TIP3    H133604   3.510   7.076   6.466
11221TIP3    H233605   3.363   7.081   6.430
11222TIP3   OH233606   7.210   4.625   6.312
11222TIP3    H133607   7.126   4.670   6.325
11222TIP3    H233608   7.191   4.557   6.247
11223TIP3   OH233609   2.305   7.092   1.663
11223TIP3    H133610   2.276   7.181   1.684
11223TIP3    H233611   2.254   7.036   1.722
11224TIP3   OH233612   5.644   2.419   3.499
11224TIP3    H133613   5.686   2.470   3.430
11224TIP3    H233614   5.681   2.331   3.491
11225TIP3   OH233615   3.641   2.454   2.808
11225TIP3    H133616   3.575   2.515   2.841
11225TIP3    H233617   3.593   2.394   2.751
11226TIP3   OH233618   5.767   1.837   6.168
11226TIP3    H133619   5.755   1.760   6.113
11226TIP3    H233620   5.714   1.819   6.246
11227TIP3   OH233621   3.952   7.372   4.753
11227TIP3    H133622   3.985   7.295   4.799
11227TIP3    H233623   3.859   7.352   4.738
11228TIP3   OH233624   6.736   3.923   6.789
11228TIP3    H133625   6.649   3.918   6.751
11228TIP3    H233626   6.746   3.841   6.839
11229TIP3   OH233627   8.092   1.325   6.487
11229TIP3    H133628   8.157   1.341   6.418
11229TIP3    H233629   8.076   1.412   6.525
11230TIP3   OH233630   2.010   4.406   0.918
11230TIP3    H133631   2.038   4.320   0.947
11230TIP3    H233632   1.949   4.389   0.846
11231TIP3   OH233633   1.473   4.726   3.330
11231TIP3    H133634   1.543   4.739   3.267
11231TIP3    H233635   1.513   4.746   3.415
11232TIP3   OH233636   5.752   0.333   3.872
11232TIP3    H133637   5.681   0.397   3.871
11232TIP3    H233638   5.711   0.251   3.844
11233TIP3   OH233639   2.779   3.687   5.602
11233TIP3    H133640   2.765   3.592   5.597
11233TIP3    H233641   2.705   3.725   5.554
11234TIP3   OH233642   2.733   0.802   0.422
11234TIP3    H133643   2.802   0.868   0.422
11234TIP3    H233644   2.714   0.787   0.515
11235TIP3   OH233645   8.293   2.744   6.737
11235TIP3    H133646   8.206   2.730   6.701
11235TIP3    H233647   8.277   2.771   6.828
11236TIP3   OH233648   5.529   7.479   0.173
11236TIP3    H133649   5.439   7.511   0.176
11236TIP3    H233650   5.521   7.387   0.145
11237TIP3   OH233651   7.728   6.195   4.557
11237TIP3    H133652   7.759   6.146   4.481
11237TIP3    H233653   7.667   6.259   4.521
11238TIP3   OH233654   2.982   1.367   1.889
11238TIP3    H133655   2.890   1.391   1.899
11238TIP3    H233656   3.029   1.427   1.948
11239TIP3   OH233657   6.826   3.605   5.148
11239TIP3    H133658   6.885   3.673   5.114
11239TIP3    H233659   6.750   3.653   5.180
11240TIP3   OH233660   0.392   5.602   3.152
11240TIP3    H133661   0.310   5.598   3.104
11240TIP3    H233662   0.405   5.513   3.185
11241TIP3   OH233663   2.019   5.502   1.226
11241TIP3    H133664   2.089   5.437   1.234
11241TIP3    H233665   1.940   5.455   1.254
11242TIP3   OH233666   3.799   6.287   6.549
11242TIP3    H133667   3.716   6.239   6.558
11242TIP3    H233668   3.817   6.286   6.455
11243TIP3   OH233669   2.695   1.134   4.103
11243TIP3    H133670   2.670   1.054   4.056
11243TIP3    H233671   2.707   1.199   4.034
11244TIP3   OH233672   2.630   7.206   5.799
11244TIP3    H133673   2.706   7.243   5.842
11244TIP3    H233674   2.643   7.111   5.802
11245TIP3   OH233675   3.994   6.534   3.164
11245TIP3    H133676   4.000   6.450   3.209
11245TIP3    H233677   4.044   6.521   3.083
11246TIP3   OH233678   2.419   1.820   4.879
11246TIP3    H133679   2.344   1.789   4.930
11246TIP3    H233680   2.439   1.906   4.915
11247TIP3   OH233681   7.430   5.402   6.595
11247TIP3    H133682   7.361   5.341   6.619
11247TIP3    H233683   7.387   5.487   6.590
11248TIP3   OH233684   6.166   4.344   0.040
11248TIP3    H133685   6.124   4.430   0.039
11248TIP3    H233686   6.157   4.311  -0.049
11249TIP3   OH233687   5.087   0.304   1.898
11249TIP3    H133688   5.157   0.313   1.835
11249TIP3    H233689   5.069   0.210   1.902
11250TIP3   OH233690   3.492   1.839   4.882
11250TIP3    H133691   3.405   1.864   4.912
11250TIP3    H233692   3.546   1.842   4.961
11251TIP3   OH233693   0.520   5.607   0.409
11251TIP3    H133694   0.529   5.652   0.325
11251TIP3    H233695   0.548   5.517   0.391
11252TIP3   OH233696   7.632   1.801   2.201
11252TIP3    H133697   7.564   1.782   2.266
11252TIP3    H233698   7.616   1.892   2.176
11253TIP3   OH233699   5.146   4.891   1.040
11253TIP3    H133700   5.188   4.813   1.003
11253TIP3    H233701   5.095   4.928   0.968
11254TIP3   OH233702   8.308   0.406   1.777
11254TIP3    H133703   8.271   0.317   1.773
11254TIP3    H233704   8.238   0.462   1.743
11255TIP3   OH233705   7.497   3.884   6.626
11255TIP3    H133706   7.514   3.871   6.533
11255TIP3    H233707   7.453   3.804   6.654
11256TIP3   OH233708   2.809   2.730   6.396
11256TIP3    H133709   2.785   2.823   6.399
11256TIP3    H233710   2.768   2.693   6.474
11257TIP3   OH233711   1.111   5.213   1.279
11257TIP3    H133712   1.148   5.260   1.204
11257TIP3    H233713   1.021   5.194   1.253
11258TIP3   OH233714   4.511   1.677   0.558
11258TIP3    H133715   4.543   1.759   0.519
11258TIP3    H233716   4.559   1.609   0.511
11259TIP3   OH233717   2.936   2.043   1.583
11259TIP3    H133718   2.994   2.053   1.658
11259TIP3    H233719   2.994   2.019   1.511
11260TIP3   OH233720   6.754   5.666   5.614
11260TIP3    H133721   6.743   5.663   5.709
11260TIP3    H233722   6.723   5.580   5.584
11261TIP3   OH233723   5.700   2.775   0.972
11261TIP3    H133724   5.713   2.686   1.006
11261TIP3    H233725   5.786   2.802   0.941
11262TIP3   OH233726   7.153   2.898   5.252
11262TIP3    H133727   7.143   2.858   5.166
11262TIP3    H233728   7.105   2.981   5.245
11263TIP3   OH233729   0.428   0.102   2.356
11263TIP3    H133730   0.481   0.024   2.341
11263TIP3    H233731   0.339   0.074   2.336
11264TIP3   OH233732   4.014   6.767   3.315
11264TIP3    H133733   4.003   6.693   3.254
11264TIP3    H233734   4.084   6.739   3.374
11265TIP3   OH233735   1.868   7.683   2.419
11265TIP3    H133736   1.848   7.590   2.434
11265TIP3    H233737   1.835   7.700   2.330
11266TIP3   OH233738   8.363   2.875   6.467
11266TIP3    H133739   8.315   2.829   6.535
11266TIP3    H233740   8.295   2.913   6.411
11267TIP3   OH233741   5.086   6.222   1.676
11267TIP3    H133742   5.087   6.152   1.742
11267TIP3    H233743   5.176   6.225   1.643
11268TIP3   OH233744   7.907   7.210   3.524
11268TIP3    H133745   7.961   7.139   3.558
11268TIP3    H233746   7.825   7.168   3.497
11269TIP3   OH233747   0.153   5.738   6.013
11269TIP3    H133748   0.103   5.738   5.931
11269TIP3    H233749   0.221   5.672   5.999
11270TIP3   OH233750   5.948   1.934   0.558
11270TIP3    H133751   5.859   1.913   0.532
11270TIP3    H233752   5.976   2.001   0.495
11271TIP3   OH233753   8.398   1.404   1.271
11271TIP3    H133754   8.324   1.450   1.231
11271TIP3    H233755   8.455   1.381   1.198
11272TIP3   OH233756   4.878   4.812   5.728
11272TIP3    H133757   4.928   4.773   5.657
11272TIP3    H233758   4.927   4.891   5.751
11273TIP3   OH233759   4.249   2.220   1.381
11273TIP3    H133760   4.208   2.187   1.460
11273TIP3    H233761   4.342   2.201   1.392
11274TIP3   OH233762   3.100   0.886   4.396
11274TIP3    H133763   3.030   0.913   4.337
11274TIP3    H233764   3.124   0.966   4.442
11275TIP3   OH233765   7.760   6.718   2.703
11275TIP3    H133766   7.834   6.756   2.750
11275TIP3    H233767   7.798   6.674   2.628
11276TIP3   OH233768   3.586   6.442   6.731
11276TIP3    H133769   3.497   6.435   6.697
11276TIP3    H233770   3.603   6.358   6.773
11277TIP3   OH233771   0.517   2.219   1.633
11277TIP3    H133772   0.558   2.133   1.645
11277TIP3    H233773   0.531   2.239   1.540
11278TIP3   OH233774   0.753   7.563   4.525
11278TIP3    H133775   0.687   7.501   4.554
11278TIP3    H233776   0.713   7.609   4.451
11279TIP3   OH233777   6.871   0.281   6.673
11279TIP3    H133778   6.948   0.317   6.629
11279TIP3    H233779   6.887   0.187   6.674
11280TIP3   OH233780   7.914   7.784   5.857
11280TIP3    H133781   7.824   7.753   5.863
11280TIP3    H233782   7.916   7.862   5.913
11281TIP3   OH233783   1.146   1.838   3.841
11281TIP3    H133784   1.054   1.816   3.855
11281TIP3    H233785   1.178   1.864   3.927
11282TIP3   OH233786   7.126   5.212   3.912
11282TIP3    H133787   7.167   5.260   3.985
11282TIP3    H233788   7.144   5.265   3.835
11283TIP3   OH233789   7.983   6.926   3.706
11283TIP3    H133790   7.913   6.926   3.641
11283TIP3    H233791   7.939   6.913   3.790
11284TIP3   OH233792   2.107   2.324   0.248
11284TIP3    H133793   2.158   2.247   0.222
11284TIP3    H233794   2.019   2.291   0.265
11285TIP3   OH233795   3.610   1.498   3.910
11285TIP3    H133796   3.585   1.537   3.994
11285TIP3    H233797   3.537   1.439   3.889
11286TIP3   OH233798   3.022   3.737   1.392
11286TIP3    H133799   3.084   3.681   1.345
11286TIP3    H233800   3.074   3.811   1.422
11287TIP3   OH233801   7.284   4.688   1.510
11287TIP3    H133802   7.260   4.606   1.553
11287TIP3    H233803   7.254   4.678   1.420
11288TIP3   OH233804   4.592   2.165   5.146
11288TIP3    H133805   4.680   2.130   5.138
11288TIP3    H233806   4.602   2.259   5.132
11289TIP3   OH233807   8.012   5.622   2.454
11289TIP3    H133808   7.925   5.596   2.423
11289TIP3    H233809   8.050   5.671   2.380
11290TIP3   OH233810   7.112   5.833   3.992
11290TIP3    H133811   7.105   5.815   4.086
11290TIP3    H233812   7.123   5.747   3.952
11291TIP3   OH233813   1.454   4.287   4.362
11291TIP3    H133814   1.526   4.274   4.423
11291TIP3    H233815   1.393   4.345   4.409
11292TIP3   OH233816   1.375   0.395   3.327
11292TIP3    H133817   1.285   0.391   3.295
11292TIP3    H233818   1.422   0.444   3.260
11293TIP3   OH233819   7.586   6.911   3.850
11293TIP3    H133820   7.595   6.829   3.899
11293TIP3    H233821   7.520   6.891   3.783
11294TIP3   OH233822   0.952   3.740   4.308
11294TIP3    H133823   1.020   3.689   4.264
11294TIP3    H233824   0.961   3.828   4.273
11295TIP3   OH233825   3.919   1.025   6.020
11295TIP3    H133826   3.916   1.112   6.061
11295TIP3    H233827   3.929   1.042   5.927
11296TIP3   OH233828   0.254   1.055   6.558
11296TIP3    H133829   0.294   1.142   6.568
11296TIP3    H233830   0.245   1.045   6.463
11297TIP3   OH233831   7.033   2.705   5.404
11297TIP3    H133832   6.987   2.673   5.327
11297TIP3    H233833   7.088   2.776   5.371
11298TIP3   OH233834   5.571   7.601   5.099
11298TIP3    H133835   5.513   7.676   5.085
11298TIP3    H233836   5.641   7.613   5.036
11299TIP3   OH233837   2.351   1.557   3.520
11299TIP3    H133838   2.416   1.521   3.581
11299TIP3    H233839   2.372   1.650   3.516
11300TIP3   OH233840   3.138   6.322   0.475
11300TIP3    H133841   3.162   6.278   0.557
11300TIP3    H233842   3.217   6.369   0.449
11301TIP3   OH233843   4.158   4.369   6.205
11301TIP3    H133844   4.099   4.306   6.165
11301TIP3    H233845   4.144   4.450   6.154
11302TIP3   OH233846   0.966   4.201   6.657
11302TIP3    H133847   0.979   4.150   6.577
11302TIP3    H233848   1.046   4.254   6.664
11303TIP3   OH233849   7.540   0.269   0.733
11303TIP3    H133850   7.587   0.222   0.664
11303TIP3    H233851   7.578   0.356   0.734
11304TIP3   OH233852   5.710   0.505   5.503
11304TIP3    H133853   5.687   0.581   5.558
11304TIP3    H233854   5.626   0.463   5.486
11305TIP3   OH233855   0.586   1.531   2.964
11305TIP3    H133856   0.555   1.543   2.875
11305TIP3    H233857   0.627   1.445   2.964
11306TIP3   OH233858   1.060   0.782   5.872
11306TIP3    H133859   1.137   0.815   5.824
11306TIP3    H233860   1.017   0.724   5.809
11307TIP3   OH233861   7.830   2.060   5.030
11307TIP3    H133862   7.921   2.033   5.021
11307TIP3    H233863   7.800   2.074   4.940
11308TIP3   OH233864   7.158   0.096   6.043
11308TIP3    H133865   7.179   0.186   6.067
11308TIP3    H233866   7.078   0.103   5.991
11309TIP3   OH233867   0.990   0.262   2.294
11309TIP3    H133868   1.033   0.223   2.218
11309TIP3    H233869   1.002   0.197   2.364
11310TIP3   OH233870   4.934   3.491   1.224
11310TIP3    H133871   4.985   3.570   1.208
11310TIP3    H233872   4.924   3.488   1.319
11311TIP3   OH233873   2.411   4.124   2.350
11311TIP3    H133874   2.336   4.065   2.345
11311TIP3    H233875   2.468   4.095   2.279
11312TIP3   OH233876   8.299   0.880   3.606
11312TIP3    H133877   8.210   0.853   3.631
11312TIP3    H233878   8.286   0.929   3.524
11313TIP3   OH233879   3.019   3.112   1.520
11313TIP3    H133880   2.950   3.178   1.509
11313TIP3    H233881   3.073   3.120   1.442
11314TIP3   OH233882   4.465   0.358   5.103
11314TIP3    H133883   4.542   0.301   5.112
11314TIP3    H233884   4.482   0.430   5.165
11315TIP3   OH233885   3.274   3.045   1.985
11315TIP3    H133886   3.248   2.953   1.981
11315TIP3    H233887   3.356   3.046   2.033
11316TIP3   OH233888   6.406   4.828   3.836
11316TIP3    H133889   6.324   4.782   3.850
11316TIP3    H233890   6.466   4.790   3.900
11317TIP3   OH233891   5.805   7.393   1.964
11317TIP3    H133892   5.872   7.346   1.914
11317TIP3    H233893   5.728   7.336   1.961
11318TIP3   OH233894   4.500   0.314   6.624
11318TIP3    H133895   4.444   0.236   6.626
11318TIP3    H233896   4.441   0.385   6.598
11319TIP3   OH233897   2.876   7.551   3.155
11319TIP3    H133898   2.782   7.544   3.137
11319TIP3    H233899   2.905   7.460   3.166
11320TIP3   OH233900   6.567   3.929   6.105
11320TIP3    H133901   6.575   4.001   6.043
11320TIP3    H233902   6.525   3.968   6.182
11321TIP3   OH233903   6.945   1.582   0.080
11321TIP3    H133904   6.850   1.591   0.081
11321TIP3    H233905   6.963   1.528   0.003
11322TIP3   OH233906   1.190   6.426   3.696
11322TIP3    H133907   1.284   6.421   3.676
11322TIP3    H233908   1.177   6.515   3.730
11323TIP3   OH233909   5.024   6.752   1.122
11323TIP3    H133910   5.074   6.830   1.099
11323TIP3    H233911   5.091   6.685   1.138
11324TIP3   OH233912   2.937   3.843   0.561
11324TIP3    H133913   2.999   3.827   0.490
11324TIP3    H233914   2.852   3.821   0.523
11325TIP3   OH233915   6.692   3.830   6.357
11325TIP3    H133916   6.774   3.810   6.402
11325TIP3    H233917   6.661   3.911   6.397
11326TIP3   OH233918   6.307   2.218   4.792
11326TIP3    H133919   6.285   2.129   4.819
11326TIP3    H233920   6.386   2.240   4.841
11327TIP3   OH233921   3.581   0.829   5.884
11327TIP3    H133922   3.529   0.749   5.874
11327TIP3    H233923   3.650   0.822   5.818
11328TIP3   OH233924   2.470   5.109   0.021
11328TIP3    H133925   2.499   5.189   0.064
11328TIP3    H233926   2.468   5.043   0.090
11329TIP3   OH233927   7.035   5.716   0.030
11329TIP3    H133928   7.070   5.769  -0.041
11329TIP3    H233929   6.993   5.779   0.089
11330TIP3   OH233930   2.105   3.625   2.585
11330TIP3    H133931   2.200   3.622   2.575
11330TIP3    H233932   2.090   3.661   2.672
11331TIP3   OH233933   7.881   6.593   4.631
11331TIP3    H133934   7.819   6.570   4.561
11331TIP3    H233935   7.905   6.509   4.670
11332TIP3   OH233936   3.693   7.371   0.348
11332TIP3    H133937   3.713   7.447   0.293
11332TIP3    H233938   3.626   7.323   0.299
11333TIP3   OH233939   4.623   2.170   0.432
11333TIP3    H133940   4.572   2.192   0.511
11333TIP3    H233941   4.558   2.136   0.371
11334TIP3   OH233942   4.454   6.258   1.106
11334TIP3    H133943   4.459   6.166   1.081
11334TIP3    H233944   4.403   6.259   1.187
11335TIP3   OH233945   5.127   2.332   2.098
11335TIP3    H133946   5.126   2.317   2.003
11335TIP3    H233947   5.171   2.254   2.133
11336TIP3   OH233948   0.586   7.740   0.596
11336TIP3    H133949   0.599   7.821   0.547
11336TIP3    H233950   0.648   7.678   0.557
11337TIP3   OH233951   7.074   3.270   4.409
11337TIP3    H133952   7.071   3.242   4.318
11337TIP3    H233953   7.131   3.206   4.452
11338TIP3   OH233954   4.290   1.833   6.055
11338TIP3    H133955   4.262   1.919   6.088
11338TIP3    H233956   4.274   1.838   5.961
11339TIP3   OH233957   4.341   4.473   6.362
11339TIP3    H133958   4.356   4.380   6.381
11339TIP3    H233959   4.266   4.473   6.302
11340TIP3   OH233960   2.229   7.462   4.901
11340TIP3    H133961   2.324   7.475   4.898
11340TIP3    H233962   2.209   7.411   4.823
11341TIP3   OH233963   7.260   2.298   5.550
11341TIP3    H133964   7.291   2.361   5.485
11341TIP3    H233965   7.311   2.219   5.531
11342TIP3   OH233966   0.797   6.311   0.979
11342TIP3    H133967   0.877   6.275   1.017
11342TIP3    H233968   0.823   6.342   0.892
11343TIP3   OH233969   7.300   6.015   3.916
11343TIP3    H133970   7.274   6.044   4.004
11343TIP3    H233971   7.237   5.946   3.894
11344TIP3   OH233972   7.246   4.957   6.117
11344TIP3    H133973   7.201   4.973   6.201
11344TIP3    H233974   7.292   5.039   6.099
11345TIP3   OH233975   4.956   6.650   1.784
11345TIP3    H133976   4.951   6.741   1.811
11345TIP3    H233977   4.894   6.642   1.712
11346TIP3   OH233978   4.810   4.966   6.827
11346TIP3    H133979   4.776   4.999   6.744
11346TIP3    H233980   4.813   4.871   6.816
11347TIP3   OH233981   1.470   0.129   0.740
11347TIP3    H133982   1.419   0.209   0.751
11347TIP3    H233983   1.561   0.158   0.750
11348TIP3   OH233984   7.941   3.166   0.399
11348TIP3    H133985   7.859   3.117   0.395
11348TIP3    H233986   8.008   3.100   0.412
11349TIP3   OH233987   6.665   6.899   1.555
11349TIP3    H133988   6.635   6.845   1.628
11349TIP3    H233989   6.748   6.859   1.529
11350TIP3   OH233990   6.616   5.760   1.051
11350TIP3    H133991   6.635   5.768   1.144
11350TIP3    H233992   6.541   5.701   1.046
11351TIP3   OH233993   3.869   4.934   2.029
11351TIP3    H133994   3.902   4.860   2.081
11351TIP3    H233995   3.929   4.939   1.954
11352TIP3   OH233996   0.053   0.814   1.665
11352TIP3    H133997   0.004   0.786   1.743
11352TIP3    H233998  -0.014   0.818   1.596
11353TIP3   OH233999   1.109   2.529   0.251
11353TIP3    H134000   1.196   2.509   0.288
11353TIP3    H234001   1.128   2.581   0.173
11354TIP3   OH234002   4.894   5.138   6.047
11354TIP3    H134003   4.902   5.100   6.134
11354TIP3    H234004   4.805   5.172   6.043
11355TIP3   OH234005   3.095   0.666   3.813
11355TIP3    H134006   3.045   0.748   3.818
11355TIP3    H234007   3.074   0.632   3.726
11356TIP3   OH234008   7.156   5.839   3.670
11356TIP3    H134009   7.233   5.783   3.677
11356TIP3    H234010   7.188   5.919   3.629
11357TIP3   OH234011   6.973   4.896   4.919
11357TIP3    H134012   6.904   4.949   4.960
11357TIP3    H234013   6.952   4.806   4.945
11358TIP3   OH234014   7.515   6.462   0.931
11358TIP3    H134015   7.548   6.374   0.915
11358TIP3    H234016   7.491   6.495   0.845
11359TIP3   OH234017   4.854   6.521   6.413
11359TIP3    H134018   4.799   6.489   6.341
11359TIP3    H234019   4.917   6.580   6.370
11360TIP3   OH234020   1.370   3.056   3.188
11360TIP3    H134021   1.280   3.064   3.220
11360TIP3    H234022   1.361   3.043   3.094
11361TIP3   OH234023   5.616   4.389   0.696
11361TIP3    H134024   5.689   4.331   0.677
11361TIP3    H234025   5.562   4.340   0.758
11362TIP3   OH234026   3.493   3.132   1.045
11362TIP3    H134027   3.455   3.121   1.132
11362TIP3    H234028   3.586   3.115   1.057
11363TIP3   OH234029   1.227   6.722   1.856
11363TIP3    H134030   1.189   6.687   1.776
11363TIP3    H234031   1.160   6.783   1.890
11364TIP3   OH234032   1.504   4.060   0.250
11364TIP3    H134033   1.426   4.085   0.300
11364TIP3    H234034   1.493   3.967   0.231
11365TIP3   OH234035   2.839   2.334   0.685
11365TIP3    H134036   2.830   2.375   0.599
11365TIP3    H234037   2.901   2.389   0.732
11366TIP3   OH234038   2.504   5.371   1.231
11366TIP3    H134039   2.528   5.340   1.319
11366TIP3    H234040   2.487   5.464   1.242
11367TIP3   OH234041   3.174   5.368   3.074
11367TIP3    H134042   3.104   5.418   3.033
11367TIP3    H234043   3.247   5.375   3.012
11368TIP3   OH234044   7.764   1.100   3.724
11368TIP3    H134045   7.750   1.006   3.738
11368TIP3    H234046   7.768   1.109   3.628
11369TIP3   OH234047   8.141   2.815   2.277
11369TIP3    H134048   8.095   2.793   2.359
11369TIP3    H234049   8.075   2.804   2.209
11370TIP3   OH234050   8.114   1.968   5.025
11370TIP3    H134051   8.193   2.020   5.008
11370TIP3    H234052   8.142   1.904   5.091
11371TIP3   OH234053   3.659   7.270   2.002
11371TIP3    H134054   3.588   7.313   1.954
11371TIP3    H234055   3.699   7.340   2.053
11372TIP3   OH234056   4.943   0.947   5.267
11372TIP3    H134057   4.950   0.858   5.303
11372TIP3    H234058   4.862   0.982   5.303
11373TIP3   OH234059   2.376   6.217   5.617
11373TIP3    H134060   2.348   6.307   5.637
11373TIP3    H234061   2.297   6.175   5.583
11374TIP3   OH234062   4.296   7.209   2.777
11374TIP3    H134063   4.366   7.153   2.812
11374TIP3    H234064   4.342   7.275   2.726
11375TIP3   OH234065   1.867   4.722   3.448
11375TIP3    H134066   1.911   4.644   3.482
11375TIP3    H234067   1.823   4.760   3.524
11376TIP3   OH234068   2.566   3.550   3.976
11376TIP3    H134069   2.656   3.569   4.004
11376TIP3    H234070   2.576   3.492   3.901
11377TIP3   OH234071   0.932   0.590   5.700
11377TIP3    H134072   0.846   0.566   5.735
11377TIP3    H234073   0.936   0.545   5.615
11378TIP3   OH234074   4.868   5.995   3.812
11378TIP3    H134075   4.796   6.012   3.751
11378TIP3    H234076   4.876   5.900   3.813
11379TIP3   OH234077   1.117   6.299  -0.013
11379TIP3    H134078   1.142   6.217   0.030
11379TIP3    H234079   1.023   6.308   0.007
11380TIP3   OH234080   1.550   1.557   5.133
11380TIP3    H134081   1.520   1.545   5.043
11380TIP3    H234082   1.644   1.575   5.125
11381TIP3   OH234083   2.984   2.701   4.657
11381TIP3    H134084   2.983   2.777   4.716
11381TIP3    H234085   2.968   2.738   4.570
11382TIP3   OH234086   0.259   0.146   1.633
11382TIP3    H134087   0.242   0.140   1.538
11382TIP3    H234088   0.226   0.232   1.658
11383TIP3   OH234089   6.257   1.729   3.831
11383TIP3    H134090   6.169   1.764   3.845
11383TIP3    H234091   6.284   1.698   3.917
11384TIP3   OH234092   1.743   4.466   3.782
11384TIP3    H134093   1.789   4.549   3.767
11384TIP3    H234094   1.812   4.400   3.783
11385TIP3   OH234095   3.143   4.034   3.809
11385TIP3    H134096   3.209   3.999   3.870
11385TIP3    H234097   3.061   4.031   3.858
11386TIP3   OH234098   0.758   0.545   3.334
11386TIP3    H134099   0.781   0.609   3.401
11386TIP3    H234100   0.806   0.466   3.359
11387TIP3   OH234101   1.270   6.441   1.273
11387TIP3    H134102   1.188   6.434   1.322
11387TIP3    H234103   1.319   6.362   1.297
11388TIP3   OH234104   7.643   4.890   4.127
11388TIP3    H134105   7.625   4.843   4.209
11388TIP3    H234106   7.700   4.831   4.078
11389TIP3   OH234107   2.627   1.078   6.819
11389TIP3    H134108   2.541   1.035   6.828
11389TIP3    H234109   2.628   1.109   6.729
11390TIP3   OH234110   4.001   1.339   3.617
11390TIP3    H134111   3.973   1.422   3.656
11390TIP3    H234112   4.032   1.287   3.691
11391TIP3   OH234113   8.265   6.541   4.305
11391TIP3    H134114   8.341   6.557   4.360
11391TIP3    H234115   8.280   6.592   4.226
11392TIP3   OH234116   0.137   4.098   2.529
11392TIP3    H134117   0.069   4.161   2.505
11392TIP3    H234118   0.138   4.034   2.457
11393TIP3   OH234119   8.404   1.025   3.826
11393TIP3    H134120   8.344   0.993   3.759
11393TIP3    H234121   8.388   0.969   3.902
11394TIP3   OH234122   6.375   6.863   3.909
11394TIP3    H134123   6.294   6.829   3.873
11394TIP3    H234124   6.432   6.877   3.833
11395TIP3   OH234125   3.880   0.083   1.226
11395TIP3    H134126   3.835   0.031   1.159
11395TIP3    H234127   3.953   0.125   1.179
11396TIP3   OH234128  -0.001   1.492   1.560
11396TIP3    H134129   0.000   1.458   1.470
11396TIP3    H234130   0.040   1.422   1.612
11397TIP3   OH234131   5.118   6.999   4.710
11397TIP3    H134132   5.104   7.003   4.804
11397TIP3    H234133   5.191   7.059   4.694
11398TIP3   OH234134   7.969   7.189   2.917
11398TIP3    H134135   7.979   7.274   2.960
11398TIP3    H234136   7.878   7.163   2.937
11399TIP3   OH234137   3.637   3.775   4.603
11399TIP3    H134138   3.647   3.844   4.537
11399TIP3    H234139   3.560   3.726   4.575
11400TIP3   OH234140   1.099   0.533   4.457
11400TIP3    H134141   1.143   0.590   4.520
11400TIP3    H234142   1.084   0.451   4.505
11401TIP3   OH234143   0.374   0.539   3.945
11401TIP3    H134144   0.365   0.592   3.866
11401TIP3    H234145   0.466   0.546   3.969
11402TIP3   OH234146   4.222   1.126   3.037
11402TIP3    H134147   4.288   1.095   3.099
11402TIP3    H234148   4.157   1.171   3.091
11403TIP3   OH234149   7.329   2.383   1.045
11403TIP3    H134150   7.376   2.456   1.083
11403TIP3    H234151   7.387   2.349   0.977
11404TIP3   OH234152   3.648   0.166   2.431
11404TIP3    H134153   3.690   0.148   2.515
11404TIP3    H234154   3.561   0.198   2.454
11405TIP3   OH234155   6.562   2.541   5.598
11405TIP3    H134156   6.548   2.502   5.684
11405TIP3    H234157   6.657   2.546   5.588
11406TIP3   OH234158   5.876   6.368   2.542
11406TIP3    H134159   5.818   6.421   2.489
11406TIP3    H234160   5.858   6.278   2.516
11407TIP3   OH234161   4.697   2.909   6.676
11407TIP3    H134162   4.788   2.892   6.700
11407TIP3    H234163   4.702   2.957   6.593
11408TIP3   OH234164   4.699   6.517   4.152
11408TIP3    H134165   4.735   6.468   4.077
11408TIP3    H234166   4.728   6.607   4.137
11409TIP3   OH234167   5.342   4.504   4.109
11409TIP3    H134168   5.356   4.443   4.037
11409TIP3    H234169   5.328   4.588   4.066
11410TIP3   OH234170   3.323   4.819   4.945
11410TIP3    H134171   3.313   4.773   5.029
11410TIP3    H234172   3.344   4.909   4.970
11411TIP3   OH234173   6.152   2.027   0.048
11411TIP3    H134174   6.228   2.007  -0.007
11411TIP3    H234175   6.111   2.102   0.005
11412TIP3   OH234176   8.079   2.321   5.750
11412TIP3    H134177   8.008   2.319   5.686
11412TIP3    H234178   8.151   2.274   5.707
11413TIP3   OH234179   2.136   4.586   4.408
11413TIP3    H134180   2.182   4.572   4.491
11413TIP3    H234181   2.071   4.516   4.405
11414TIP3   OH234182   6.705   6.487   1.335
11414TIP3    H134183   6.627   6.543   1.330
11414TIP3    H234184   6.772   6.536   1.288
11415TIP3   OH234185   2.790   5.221   5.918
11415TIP3    H134186   2.873   5.220   5.965
11415TIP3    H234187   2.779   5.311   5.889
11416TIP3   OH234188   0.461   6.439   2.337
11416TIP3    H134189   0.478   6.375   2.407
11416TIP3    H234190   0.477   6.390   2.256
11417TIP3   OH234191   1.403   2.067   0.646
11417TIP3    H134192   1.397   2.162   0.639
11417TIP3    H234193   1.375   2.048   0.736
11418TIP3   OH234194   7.088   1.157   1.979
11418TIP3    H134195   7.052   1.244   1.962
11418TIP3    H234196   7.115   1.125   1.893
11419TIP3   OH234197   4.438   2.730   2.114
11419TIP3    H134198   4.491   2.668   2.063
11419TIP3    H234199   4.491   2.747   2.192
11420TIP3   OH234200   6.966   6.809   6.276
11420TIP3    H134201   6.877   6.776   6.292
11420TIP3    H234202   6.957   6.868   6.201
11421TIP3   OH234203   7.944   7.594   6.698
11421TIP3    H134204   8.005   7.595   6.625
11421TIP3    H234205   7.865   7.637   6.665
11422TIP3   OH234206   7.177   2.324   1.507
11422TIP3    H134207   7.148   2.413   1.525
11422TIP3    H234208   7.207   2.291   1.591
11423TIP3   OH234209   0.236   3.669   5.857
11423TIP3    H134210   0.322   3.708   5.866
11423TIP3    H234211   0.183   3.711   5.925
11424TIP3   OH234212   1.214   6.046   0.669
11424TIP3    H134213   1.237   6.097   0.592
11424TIP3    H234214   1.122   6.068   0.685
11425TIP3   OH234215   4.075   0.259   3.049
11425TIP3    H134216   4.117   0.318   2.987
11425TIP3    H234217   4.108   0.172   3.026
11426TIP3   OH234218   7.081   0.717   3.843
11426TIP3    H134219   7.130   0.661   3.783
11426TIP3    H234220   7.137   0.794   3.854
11427TIP3   OH234221   0.550   7.557   2.573
11427TIP3    H134222   0.639   7.532   2.598
11427TIP3    H234223   0.536   7.518   2.487
11428TIP3   OH234224   1.183   6.138   3.361
11428TIP3    H134225   1.128   6.194   3.416
11428TIP3    H234226   1.234   6.199   3.308
11429TIP3   OH234227   1.636   3.003   0.779
11429TIP3    H134228   1.612   2.990   0.687
11429TIP3    H234229   1.671   2.918   0.807
11430TIP3   OH234230   7.699   5.161   1.937
11430TIP3    H134231   7.609   5.126   1.937
11430TIP3    H234232   7.712   5.190   1.847
11431TIP3   OH234233   8.353   3.756   6.402
11431TIP3    H134234   8.336   3.850   6.397
11431TIP3    H234235   8.304   3.727   6.479
11432TIP3   OH234236   5.939   5.824   1.074
11432TIP3    H134237   6.009   5.762   1.053
11432TIP3    H234238   5.860   5.786   1.035
11433TIP3   OH234239   5.764   2.311   5.141
11433TIP3    H134240   5.760   2.252   5.066
11433TIP3    H234241   5.826   2.270   5.201
11434TIP3   OH234242   6.151   2.709   5.825
11434TIP3    H134243   6.200   2.627   5.836
11434TIP3    H234244   6.073   2.683   5.777
11435TIP3   OH234245   0.770   4.187   1.595
11435TIP3    H134246   0.738   4.271   1.631
11435TIP3    H234247   0.768   4.199   1.500
11436TIP3   OH234248   0.202   6.357   0.756
11436TIP3    H134249   0.118   6.331   0.794
11436TIP3    H234250   0.241   6.415   0.821
11437TIP3   OH234251   6.958   4.852   5.260
11437TIP3    H134252   7.004   4.884   5.182
11437TIP3    H234253   6.916   4.771   5.232
11438TIP3   OH234254   3.779   7.015   2.033
11438TIP3    H134255   3.717   6.942   2.041
11438TIP3    H234256   3.724   7.090   2.010
11439TIP3   OH234257   0.754   5.108   4.018
11439TIP3    H134258   0.697   5.061   4.078
11439TIP3    H234259   0.843   5.092   4.051
11440TIP3   OH234260   7.024   5.059   3.006
11440TIP3    H134261   7.038   5.149   2.979
11440TIP3    H234262   6.986   5.065   3.093
11441TIP3   OH234263   2.682   2.830   4.860
11441TIP3    H134264   2.606   2.819   4.802
11441TIP3    H234265   2.697   2.744   4.898
11442TIP3   OH234266   3.471   1.936   0.301
11442TIP3    H134267   3.472   1.971   0.212
11442TIP3    H234268   3.554   1.965   0.339
11443TIP3   OH234269   4.687   4.026   2.580
11443TIP3    H134270   4.683   4.082   2.503
11443TIP3    H234271   4.628   3.953   2.560
11444TIP3   OH234272   6.279   3.516   6.008
11444TIP3    H134273   6.269   3.465   5.928
11444TIP3    H234274   6.220   3.473   6.071
11445TIP3   OH234275   6.110   7.630   5.630
11445TIP3    H134276   6.142   7.719   5.644
11445TIP3    H234277   6.149   7.604   5.547
11446TIP3   OH234278   1.500   5.554   0.192
11446TIP3    H134279   1.504   5.645   0.165
11446TIP3    H234280   1.455   5.509   0.120
11447TIP3   OH234281   3.089   7.832   6.505
11447TIP3    H134282   3.183   7.813   6.508
11447TIP3    H234283   3.084   7.923   6.477
11448TIP3   OH234284   2.213   3.363   4.577
11448TIP3    H134285   2.175   3.387   4.661
11448TIP3    H234286   2.143   3.378   4.514
11449TIP3   OH234287   0.896  -0.012   4.800
11449TIP3    H134288   0.951   0.065   4.814
11449TIP3    H234289   0.835  -0.012   4.874
11450TIP3   OH234290   4.714   0.690   1.007
11450TIP3    H134291   4.735   0.747   1.081
11450TIP3    H234292   4.636   0.643   1.034
11451TIP3   OH234293   6.719   2.862   1.964
11451TIP3    H134294   6.682   2.945   1.993
11451TIP3    H234295   6.662   2.796   2.004
11452TIP3   OH234296   7.310   6.967   0.365
11452TIP3    H134297   7.217   6.973   0.343
11452TIP3    H234298   7.355   6.968   0.280
11453TIP3   OH234299   6.623   6.606   4.137
11453TIP3    H134300   6.619   6.511   4.146
11453TIP3    H234301   6.694   6.633   4.195
11454TIP3   OH234302   3.577   6.644   6.536
11454TIP3    H134303   3.489   6.682   6.526
11454TIP3    H234304   3.563   6.565   6.588
11455TIP3   OH234305   0.421   7.705   1.922
11455TIP3    H134306   0.332   7.696   1.958
11455TIP3    H234307   0.422   7.792   1.882
11456TIP3   OH234308   6.388   1.901   4.801
11456TIP3    H134309   6.348   1.851   4.731
11456TIP3    H234310   6.471   1.932   4.764
11457TIP3   OH234311   5.387   0.568   3.501
11457TIP3    H134312   5.398   0.568   3.406
11457TIP3    H234313   5.414   0.655   3.529
11458TIP3   OH234314   0.737   3.569   5.036
11458TIP3    H134315   0.667   3.617   5.081
11458TIP3    H234316   0.790   3.637   4.994
11459TIP3   OH234317   0.933   0.806   6.488
11459TIP3    H134318   0.922   0.766   6.402
11459TIP3    H234319   0.989   0.882   6.472
11460TIP3   OH234320   8.317   0.993   3.372
11460TIP3    H134321   8.257   1.062   3.401
11460TIP3    H234322   8.401   1.039   3.359
11461TIP3   OH234323   4.706   0.953   5.413
11461TIP3    H134324   4.765   0.958   5.489
11461TIP3    H234325   4.619   0.940   5.451
11462TIP3   OH234326   3.801   7.213   6.779
11462TIP3    H134327   3.862   7.202   6.852
11462TIP3    H234328   3.810   7.132   6.728
11463TIP3   OH234329   1.443   1.357   0.599
11463TIP3    H134330   1.433   1.292   0.669
11463TIP3    H234331   1.537   1.373   0.594
11464TIP3   OH234332   2.492   4.059   5.242
11464TIP3    H134333   2.417   4.015   5.201
11464TIP3    H234334   2.454   4.104   5.317
11465TIP3   OH234335   5.545   4.140   3.990
11465TIP3    H134336   5.513   4.050   3.994
11465TIP3    H234337   5.620   4.137   3.931
11466TIP3   OH234338   7.025   0.929   0.441
11466TIP3    H134339   6.979   0.846   0.452
11466TIP3    H234340   7.118   0.906   0.451
11467TIP3   OH234341   2.225   0.722   1.027
11467TIP3    H134342   2.298   0.718   1.088
11467TIP3    H234343   2.263   0.697   0.942
11468TIP3   OH234344   7.152   1.531   0.245
11468TIP3    H134345   7.076   1.537   0.187
11468TIP3    H234346   7.119   1.561   0.330
11469TIP3   OH234347   0.466   2.019   2.233
11469TIP3    H134348   0.553   1.980   2.234
11469TIP3    H234349   0.469   2.086   2.300
11470TIP3   OH234350   1.764   6.958   6.790
11470TIP3    H134351   1.795   7.048   6.774
11470TIP3    H234352   1.722   6.933   6.708
11471TIP3   OH234353   3.524   6.470   5.416
11471TIP3    H134354   3.579   6.394   5.435
11471TIP3    H234355   3.469   6.478   5.494
11472TIP3   OH234356   1.214   3.802   1.626
11472TIP3    H134357   1.129   3.789   1.668
11472TIP3    H234358   1.249   3.714   1.613
11473TIP3   OH234359   3.024   7.690   4.526
11473TIP3    H134360   3.096   7.646   4.571
11473TIP3    H234361   2.946   7.661   4.572
11474TIP3   OH234362   5.493   1.753   0.234
11474TIP3    H134363   5.436   1.691   0.188
11474TIP3    H234364   5.442   1.835   0.234
11475TIP3   OH234365   5.414   6.382   0.771
11475TIP3    H134366   5.488   6.419   0.818
11475TIP3    H234367   5.426   6.412   0.680
11476TIP3   OH234368   3.901   6.145   5.285
11476TIP3    H134369   3.968   6.076   5.284
11476TIP3    H234370   3.875   6.155   5.194
11477TIP3   OH234371   8.149   5.070   2.858
11477TIP3    H134372   8.074   5.127   2.838
11477TIP3    H234373   8.208   5.081   2.783
11478TIP3   OH234374   7.779   4.008   1.702
11478TIP3    H134375   7.789   4.098   1.671
11478TIP3    H234376   7.857   3.992   1.755
11479TIP3   OH234377   1.810   1.850   0.655
11479TIP3    H134378   1.889   1.802   0.678
11479TIP3    H234379   1.755   1.848   0.733
11480TIP3   OH234380   2.181   3.412   4.223
11480TIP3    H134381   2.139   3.379   4.303
11480TIP3    H234382   2.275   3.407   4.242
11481TIP3   OH234383   6.529   4.100   4.345
11481TIP3    H134384   6.505   4.192   4.345
11481TIP3    H234385   6.514   4.070   4.434
11482TIP3   OH234386   2.002   6.559   1.755
11482TIP3    H134387   2.022   6.520   1.670
11482TIP3    H234388   2.082   6.603   1.782
11483TIP3   OH234389   6.707   3.128   4.717
11483TIP3    H134390   6.771   3.190   4.751
11483TIP3    H234391   6.656   3.103   4.794
11484TIP3   OH234392   2.547   6.236   0.749
11484TIP3    H134393   2.576   6.294   0.678
11484TIP3    H234394   2.453   6.226   0.735
11485TIP3   OH234395   7.983   1.844   3.989
11485TIP3    H134396   7.981   1.940   3.990
11485TIP3    H234397   8.041   1.822   3.916
11486TIP3   OH234398   1.603   6.583   2.901
11486TIP3    H134399   1.517   6.579   2.857
11486TIP3    H234400   1.582   6.580   2.994
11487TIP3   OH234401   2.407   1.505   1.558
11487TIP3    H134402   2.335   1.556   1.520
11487TIP3    H234403   2.387   1.500   1.651
11488TIP3   OH234404   2.042   7.822   5.725
11488TIP3    H134405   2.012   7.774   5.803
11488TIP3    H234406   2.117   7.770   5.693
11489TIP3   OH234407   2.700   7.513   5.912
11489TIP3    H134408   2.769   7.563   5.869
11489TIP3    H234409   2.629   7.509   5.848
11490TIP3   OH234410   6.637   6.933   3.773
11490TIP3    H134411   6.692   6.857   3.796
11490TIP3    H234412   6.663   7.001   3.835
11491TIP3   OH234413   5.164   5.341   5.734
11491TIP3    H134414   5.170   5.360   5.828
11491TIP3    H234415   5.092   5.397   5.704
11492TIP3   OH234416   7.693   1.908   4.054
11492TIP3    H134417   7.745   1.944   3.982
11492TIP3    H234418   7.611   1.957   4.051
11493TIP3   OH234419   7.728   5.018   5.532
11493TIP3    H134420   7.702   5.088   5.591
11493TIP3    H234421   7.790   5.059   5.471
11494TIP3   OH234422   3.679   2.089   4.932
11494TIP3    H134423   3.603   2.145   4.946
11494TIP3    H234424   3.657   2.007   4.975
11495TIP3   OH234425   6.343   3.700   3.083
11495TIP3    H134426   6.260   3.683   3.128
11495TIP3    H234427   6.331   3.665   2.995
11496TIP3   OH234428   1.628   7.821   5.260
11496TIP3    H134429   1.577   7.793   5.336
11496TIP3    H234430   1.697   7.755   5.251
11497TIP3   OH234431   3.488   1.696   2.039
11497TIP3    H134432   3.450   1.727   2.121
11497TIP3    H234433   3.423   1.637   2.003
11498TIP3   OH234434   8.068   2.001   1.331
11498TIP3    H134435   8.126   1.929   1.360
11498TIP3    H234436   8.128   2.072   1.310
11499TIP3   OH234437   7.716   7.061   1.274
11499TIP3    H134438   7.786   7.074   1.338
11499TIP3    H234439   7.636   7.056   1.326
11500TIP3   OH234440   8.092   2.644   5.201
11500TIP3    H134441   8.169   2.589   5.212
11500TIP3    H234442   8.037   2.597   5.138
11501TIP3   OH234443   4.889   5.834   4.455
11501TIP3    H134444   4.981   5.848   4.433
11501TIP3    H234445   4.842   5.845   4.372
11502TIP3   OH234446   1.891   4.338   4.753
11502TIP3    H134447   1.982   4.359   4.777
11502TIP3    H234448   1.895   4.248   4.720
11503TIP3   OH234449   1.480   4.705   4.423
11503TIP3    H134450   1.548   4.736   4.482
11503TIP3    H234451   1.452   4.783   4.375
11504TIP3   OH234452   8.071   7.406   4.130
11504TIP3    H134453   8.032   7.376   4.049
11504TIP3    H234454   8.118   7.330   4.164
11505TIP3   OH234455   4.173   4.937   1.903
11505TIP3    H134456   4.151   5.029   1.888
11505TIP3    H234457   4.214   4.936   1.990
11506TIP3   OH234458   6.485   3.609   5.469
11506TIP3    H134459   6.442   3.673   5.413
11506TIP3    H234460   6.446   3.525   5.444
11507TIP3   OH234461   4.725   0.265   2.334
11507TIP3    H134462   4.699   0.185   2.379
11507TIP3    H234463   4.749   0.325   2.405
11508TIP3   OH234464   1.849   4.617   1.410
11508TIP3    H134465   1.919   4.625   1.475
11508TIP3    H234466   1.895   4.610   1.326
11509TIP3   OH234467   5.970   0.159   5.390
11509TIP3    H134468   5.930   0.173   5.475
11509TIP3    H234469   5.897   0.160   5.328
11510TIP3   OH234470   2.403   3.195   5.290
11510TIP3    H134471   2.457   3.158   5.360
11510TIP3    H234472   2.437   3.283   5.277
11511TIP3   OH234473   1.696   0.639   3.737
11511TIP3    H134474   1.676   0.641   3.831
11511TIP3    H234475   1.614   0.612   3.696
11512TIP3   OH234476   6.261   7.440   3.485
11512TIP3    H134477   6.197   7.447   3.414
11512TIP3    H234478   6.209   7.452   3.565
11513TIP3   OH234479   6.572   1.281   0.055
11513TIP3    H134480   6.557   1.298  -0.038
11513TIP3    H234481   6.492   1.238   0.085
11514TIP3   OH234482   4.058   5.422   2.951
11514TIP3    H134483   4.153   5.424   2.957
11514TIP3    H234484   4.036   5.329   2.954
11515TIP3   OH234485   0.688   3.657   4.259
11515TIP3    H134486   0.657   3.741   4.226
11515TIP3    H234487   0.782   3.669   4.273
11516TIP3   OH234488   1.676   7.852   4.395
11516TIP3    H134489   1.755   7.898   4.422
11516TIP3    H234490   1.703   7.761   4.384
11517TIP3   OH234491   5.436   0.441   5.728
11517TIP3    H134492   5.454   0.443   5.821
11517TIP3    H234493   5.397   0.355   5.713
11518TIP3   OH234494   6.031   3.101   5.839
11518TIP3    H134495   5.997   3.190   5.827
11518TIP3    H234496   6.077   3.104   5.922
11519TIP3   OH234497   4.835   5.217   3.929
11519TIP3    H134498   4.923   5.248   3.952
11519TIP3    H234499   4.777   5.260   3.992
11520TIP3   OH234500   0.107   4.063   3.280
11520TIP3    H134501   0.177   3.997   3.274
11520TIP3    H234502   0.027   4.014   3.262
11521TIP3   OH234503   4.013   7.126   1.915
11521TIP3    H134504   3.954   7.074   1.970
11521TIP3    H234505   3.988   7.104   1.825
11522TIP3   OH234506   6.651   2.931   0.943
11522TIP3    H134507   6.598   2.897   1.016
11522TIP3    H234508   6.725   2.974   0.985
11523TIP3   OH234509   1.677   7.289   2.670
11523TIP3    H134510   1.685   7.254   2.759
11523TIP3    H234511   1.748   7.353   2.663
11524TIP3   OH234512   6.154   5.266   2.962
11524TIP3    H134513   6.204   5.297   2.887
11524TIP3    H234514   6.110   5.344   2.997
11525TIP3   OH234515   7.465   3.224   4.266
11525TIP3    H134516   7.429   3.293   4.323
11525TIP3    H234517   7.494   3.271   4.188
11526TIP3   OH234518   4.672   4.535   4.166
11526TIP3    H134519   4.688   4.441   4.159
11526TIP3    H234520   4.674   4.553   4.260
11527TIP3   OH234521   5.617   7.121   3.845
11527TIP3    H134522   5.579   7.179   3.778
11527TIP3    H234523   5.609   7.033   3.807
11528TIP3   OH234524   7.110   7.660   1.034
11528TIP3    H134525   7.142   7.653   1.124
11528TIP3    H234526   7.069   7.576   1.016
11529TIP3   OH234527   1.924   5.716   5.081
11529TIP3    H134528   1.911   5.673   4.996
11529TIP3    H234529   2.006   5.680   5.113
11530TIP3   OH234530   2.601   7.629   2.630
11530TIP3    H134531   2.542   7.677   2.573
11530TIP3    H234532   2.686   7.670   2.618
11531TIP3   OH234533   5.381   3.772   2.892
11531TIP3    H134534   5.470   3.791   2.922
11531TIP3    H234535   5.334   3.855   2.901
11532TIP3   OH234536   1.989   7.206   6.502
11532TIP3    H134537   1.909   7.209   6.555
11532TIP3    H234538   1.958   7.198   6.412
11533TIP3   OH234539   2.683   1.278   1.539
11533TIP3    H134540   2.758   1.222   1.558
11533TIP3    H234541   2.653   1.307   1.626
11534TIP3   OH234542   6.118   7.405   5.828
11534TIP3    H134543   6.058   7.458   5.880
11534TIP3    H234544   6.136   7.458   5.750
11535TIP3   OH234545   2.279   7.823   3.140
11535TIP3    H134546   2.364   7.825   3.184
11535TIP3    H234547   2.255   7.731   3.137
11536TIP3   OH234548   7.914   5.180   5.382
11536TIP3    H134549   7.883   5.229   5.306
11536TIP3    H234550   8.006   5.204   5.391
11537TIP3   OH234551   5.838   6.665   6.214
11537TIP3    H134552   5.875   6.738   6.164
11537TIP3    H234553   5.820   6.702   6.301
11538TIP3   OH234554   7.792   4.752   5.616
11538TIP3    H134555   7.758   4.835   5.582
11538TIP3    H234556   7.870   4.734   5.563
11539TIP3   OH234557   3.358   5.020   2.425
11539TIP3    H134558   3.437   4.980   2.462
11539TIP3    H234559   3.386   5.061   2.344
11540TIP3   OH234560   7.312   4.303   6.368
11540TIP3    H134561   7.243   4.237   6.370
11540TIP3    H234562   7.318   4.328   6.275
11541TIP3   OH234563   5.908   3.638   2.428
11541TIP3    H134564   5.949   3.717   2.393
11541TIP3    H234565   5.936   3.568   2.369
11542TIP3   OH234566   4.524   6.202   5.026
11542TIP3    H134567   4.505   6.266   5.095
11542TIP3    H234568   4.567   6.252   4.957
11543TIP3   OH234569   5.244   7.744   3.275
11543TIP3    H134570   5.338   7.758   3.259
11543TIP3    H234571   5.207   7.731   3.188
11544TIP3   OH234572   7.001   3.404   1.845
11544TIP3    H134573   7.017   3.498   1.837
11544TIP3    H234574   7.073   3.372   1.899
11545TIP3   OH234575   5.253   2.791   0.602
11545TIP3    H134576   5.328   2.732   0.597
11545TIP3    H234577   5.189   2.753   0.542
11546TIP3   OH234578   1.863   6.367   3.162
11546TIP3    H134579   1.829   6.337   3.078
11546TIP3    H234580   1.875   6.287   3.213
11547TIP3   OH234581   0.542   3.571   2.126
11547TIP3    H134582   0.451   3.576   2.097
11547TIP3    H234583   0.588   3.634   2.070
11548TIP3   OH234584   7.656   4.181   6.360
11548TIP3    H134585   7.618   4.238   6.426
11548TIP3    H234586   7.617   4.210   6.278
11549TIP3   OH234587   5.477   5.841   4.620
11549TIP3    H134588   5.439   5.878   4.699
11549TIP3    H234589   5.514   5.757   4.647
11550TIP3   OH234590   4.423   2.235   0.619
11550TIP3    H134591   4.346   2.188   0.651
11550TIP3    H234592   4.390   2.322   0.597
11551TIP3   OH234593   6.179   5.578   5.869
11551TIP3    H134594   6.089   5.570   5.837
11551TIP3    H234595   6.229   5.605   5.792
11552TIP3   OH234596   5.103   5.648   5.039
11552TIP3    H134597   5.044   5.633   5.113
11552TIP3    H234598   5.048   5.632   4.962
11553TIP3   OH234599   5.536   6.972   0.187
11553TIP3    H134600   5.459   6.915   0.186
11553TIP3    H234601   5.604   6.920   0.229
11554TIP3   OH234602   0.996   4.545   6.635
11554TIP3    H134603   1.022   4.636   6.620
11554TIP3    H234604   1.053   4.494   6.577
11555TIP3   OH234605   5.134   5.626   0.066
11555TIP3    H134606   5.101   5.716   0.070
11555TIP3    H234607   5.086   5.581   0.136
11556TIP3   OH234608   5.428   6.250   3.158
11556TIP3    H134609   5.405   6.329   3.207
11556TIP3    H234610   5.407   6.178   3.217
11557TIP3   OH234611   7.319   2.946   6.244
11557TIP3    H134612   7.326   2.977   6.154
11557TIP3    H234613   7.265   2.868   6.238
11558TIP3   OH234614   4.641   4.662   6.054
11558TIP3    H134615   4.587   4.590   6.087
11558TIP3    H234616   4.648   4.722   6.128
11559TIP3   OH234617   3.251   0.498   3.505
11559TIP3    H134618   3.179   0.442   3.476
11559TIP3    H234619   3.265   0.558   3.431
11560TIP3   OH234620   5.706   7.478   0.369
11560TIP3    H134621   5.644   7.477   0.296
11560TIP3    H234622   5.722   7.571   0.385
11561TIP3   OH234623   5.707   0.617   3.220
11561TIP3    H134624   5.731   0.705   3.190
11561TIP3    H234625   5.791   0.573   3.233
11562TIP3   OH234626   7.159   1.929   5.790
11562TIP3    H134627   7.076   1.977   5.777
11562TIP3    H234628   7.139   1.865   5.858
11563TIP3   OH234629   4.837   1.330   5.758
11563TIP3    H134630   4.831   1.323   5.853
11563TIP3    H234631   4.913   1.277   5.735
11564TIP3   OH234632   1.410   7.789   3.762
11564TIP3    H134633   1.488   7.844   3.769
11564TIP3    H234634   1.404   7.745   3.848
11565TIP3   OH234635   1.094   2.118   5.315
11565TIP3    H134636   1.038   2.098   5.240
11565TIP3    H234637   1.099   2.213   5.317
11566TIP3   OH234638   5.043   5.934   2.270
11566TIP3    H134639   4.977   5.985   2.222
11566TIP3    H234640   5.105   5.906   2.204
11567TIP3   OH234641   3.664   2.017   2.369
11567TIP3    H134642   3.752   2.009   2.405
11567TIP3    H234643   3.674   1.994   2.277
11568TIP3   OH234644   2.708   6.009   6.624
11568TIP3    H134645   2.768   5.944   6.659
11568TIP3    H234646   2.683   5.976   6.538
11569TIP3   OH234647   6.259   2.064   3.296
11569TIP3    H134648   6.314   2.127   3.343
11569TIP3    H234649   6.202   2.027   3.364
11570TIP3   OH234650   3.717   1.400   3.587
11570TIP3    H134651   3.740   1.464   3.655
11570TIP3    H234652   3.660   1.337   3.632
11571TIP3   OH234653   2.858   1.416   2.378
11571TIP3    H134654   2.881   1.336   2.425
11571TIP3    H234655   2.762   1.417   2.377
11572TIP3   OH234656   7.007   4.362   4.730
11572TIP3    H134657   6.980   4.356   4.638
11572TIP3    H234658   6.930   4.331   4.778
11573TIP3   OH234659   8.054   1.587   6.514
11573TIP3    H134660   8.041   1.602   6.607
11573TIP3    H234661   7.968   1.602   6.475
11574TIP3   OH234662   1.105   3.216   0.178
11574TIP3    H134663   1.048   3.173   0.242
11574TIP3    H234664   1.093   3.309   0.193
11575TIP3   OH234665   3.874   0.257   1.824
11575TIP3    H134666   3.918   0.296   1.749
11575TIP3    H234667   3.933   0.188   1.854
11576TIP3   OH234668   1.482   3.860   0.987
11576TIP3    H134669   1.476   3.765   0.995
11576TIP3    H234670   1.427   3.894   1.057
11577TIP3   OH234671   7.414   4.449   4.815
11577TIP3    H134672   7.415   4.437   4.910
11577TIP3    H234673   7.339   4.507   4.799
11578TIP3   OH234674   0.055   3.246   3.843
11578TIP3    H134675   0.132   3.220   3.792
11578TIP3    H234676   0.020   3.164   3.877
11579TIP3   OH234677   4.425   0.040   3.746
11579TIP3    H134678   4.435   0.126   3.704
11579TIP3    H234679   4.513   0.018   3.776
11580TIP3   OH234680   6.586   6.329   0.043
11580TIP3    H134681   6.655   6.283  -0.004
11580TIP3    H234682   6.632   6.385   0.105
11581TIP3   OH234683   6.183   0.422   4.589
11581TIP3    H134684   6.278   0.408   4.585
11581TIP3    H234685   6.161   0.410   4.681
11582TIP3   OH234686   8.387   4.790   1.181
11582TIP3    H134687   8.409   4.858   1.244
11582TIP3    H234688   8.293   4.775   1.194
11583TIP3   OH234689   3.184   6.671   0.590
11583TIP3    H134690   3.262   6.714   0.626
11583TIP3    H234691   3.114   6.736   0.603
11584TIP3   OH234692   1.948   5.740   0.854
11584TIP3    H134693   1.933   5.833   0.871
11584TIP3    H234694   1.911   5.695   0.930
11585TIP3   OH234695   1.871   1.109   4.778
11585TIP3    H134696   1.885   1.172   4.849
11585TIP3    H234697   1.953   1.060   4.771
11586TIP3   OH234698   1.960   4.294   3.789
11586TIP3    H134699   2.033   4.334   3.836
11586TIP3    H234700   1.999   4.221   3.741
11587TIP3   OH234701   0.412   6.650   3.681
11587TIP3    H134702   0.441   6.567   3.643
11587TIP3    H234703   0.449   6.651   3.769
11588TIP3   OH234704   1.422   7.493   5.614
11588TIP3    H134705   1.328   7.503   5.627
11588TIP3    H234706   1.436   7.398   5.616
11589TIP3   OH234707   3.179   3.495   6.773
11589TIP3    H134708   3.263   3.474   6.733
11589TIP3    H234709   3.187   3.466   6.864
11590TIP3   OH234710   2.274   4.316   4.520
11590TIP3    H134711   2.324   4.330   4.440
11590TIP3    H234712   2.339   4.317   4.590
11591TIP3   OH234713   0.292   5.893   2.427
11591TIP3    H134714   0.328   5.980   2.414
11591TIP3    H234715   0.299   5.877   2.521
11592TIP3   OH234716   2.092   2.143   4.913
11592TIP3    H134717   2.028   2.197   4.960
11592TIP3    H234718   2.082   2.169   4.822
11593TIP3   OH234719   1.958   3.852   4.080
11593TIP3    H134720   1.908   3.876   4.158
11593TIP3    H234721   2.032   3.801   4.114
11594TIP3   OH234722   3.012   5.735   1.846
11594TIP3    H134723   3.072   5.765   1.777
11594TIP3    H234724   3.002   5.810   1.904
11595TIP3   OH234725   7.661   3.546   3.896
11595TIP3    H134726   7.638   3.466   3.943
11595TIP3    H234727   7.686   3.608   3.965
11596TIP3   OH234728   0.191   0.549   0.625
11596TIP3    H134729   0.281   0.565   0.652
11596TIP3    H234730   0.184   0.590   0.539
11597TIP3   OH234731   7.080   1.609   5.096
11597TIP3    H134732   7.047   1.547   5.161
11597TIP3    H234733   7.021   1.599   5.022
11598TIP3   OH234734   6.095   4.777   6.043
11598TIP3    H134735   6.126   4.835   6.112
11598TIP3    H234736   6.027   4.724   6.085
11599TIP3   OH234737   3.298   0.270   0.997
11599TIP3    H134738   3.381   0.310   1.022
11599TIP3    H234739   3.290   0.194   1.054
11600TIP3   OH234740   1.198   2.937   6.528
11600TIP3    H134741   1.146   2.927   6.448
11600TIP3    H234742   1.289   2.931   6.498
11601TIP3   OH234743   0.817   4.191   2.544
11601TIP3    H134744   0.786   4.276   2.576
11601TIP3    H234745   0.803   4.131   2.617
11602TIP3   OH234746   5.749   4.290   5.038
11602TIP3    H134747   5.682   4.356   5.059
11602TIP3    H234748   5.827   4.319   5.086
11603TIP3   OH234749   2.404   2.648   1.956
11603TIP3    H134750   2.379   2.559   1.982
11603TIP3    H234751   2.494   2.639   1.926
11604TIP3   OH234752   3.785   0.751   5.415
11604TIP3    H134753   3.831   0.681   5.368
11604TIP3    H234754   3.776   0.821   5.351
11605TIP3   OH234755   0.147   5.654   5.507
11605TIP3    H134756   0.123   5.711   5.581
11605TIP3    H234757   0.193   5.581   5.547
11606TIP3   OH234758   3.685   6.913   5.990
11606TIP3    H134759   3.732   6.906   5.906
11606TIP3    H234760   3.681   7.007   6.007
11607TIP3   OH234761   5.136   3.260   2.932
11607TIP3    H134762   5.048   3.265   2.969
11607TIP3    H234763   5.141   3.173   2.893
11608TIP3   OH234764   4.785   2.609   5.679
11608TIP3    H134765   4.712   2.586   5.736
11608TIP3    H234766   4.845   2.658   5.735
11609TIP3   OH234767   4.926   3.718   4.320
11609TIP3    H134768   4.931   3.806   4.284
11609TIP3    H234769   4.967   3.662   4.253
11610TIP3   OH234770   1.012   3.625   1.439
11610TIP3    H134771   1.063   3.679   1.499
11610TIP3    H234772   1.005   3.540   1.483
11611TIP3   OH234773   8.257   4.524   5.941
11611TIP3    H134774   8.197   4.573   5.997
11611TIP3    H234775   8.236   4.432   5.957
11612TIP3   OH234776   5.176   4.456   1.858
11612TIP3    H134777   5.237   4.524   1.828
11612TIP3    H234778   5.191   4.383   1.798
11613TIP3   OH234779   5.283   0.731   2.842
11613TIP3    H134780   5.301   0.822   2.819
11613TIP3    H234781   5.269   0.687   2.759
11614TIP3   OH234782   2.645   7.248   5.365
11614TIP3    H134783   2.656   7.210   5.278
11614TIP3    H234784   2.734   7.267   5.394
11615TIP3   OH234785   1.079   6.395   4.548
11615TIP3    H134786   1.021   6.455   4.595
11615TIP3    H234787   1.159   6.394   4.601
11616TIP3   OH234788   5.422   1.598   4.713
11616TIP3    H134789   5.418   1.559   4.800
11616TIP3    H234790   5.437   1.525   4.653
11617TIP3   OH234791   2.849   0.106   6.149
11617TIP3    H134792   2.845   0.026   6.097
11617TIP3    H234793   2.837   0.077   6.240
11618TIP3   OH234794   4.220   2.737   0.569
11618TIP3    H134795   4.135   2.772   0.594
11618TIP3    H234796   4.274   2.814   0.551
11619TIP3   OH234797   1.323   4.608   3.721
11619TIP3    H134798   1.342   4.680   3.782
11619TIP3    H234799   1.290   4.538   3.777
11620TIP3   OH234800   3.413   0.677   1.865
11620TIP3    H134801   3.435   0.600   1.917
11620TIP3    H234802   3.412   0.749   1.928
11621TIP3   OH234803   7.552   4.672   5.733
11621TIP3    H134804   7.588   4.613   5.800
11621TIP3    H234805   7.626   4.689   5.675
11622TIP3   OH234806   7.924   0.917   0.683
11622TIP3    H134807   7.833   0.903   0.658
11622TIP3    H234808   7.924   1.002   0.727
11623TIP3   OH234809   3.764   6.398   4.802
11623TIP3    H134810   3.856   6.396   4.774
11623TIP3    H234811   3.758   6.475   4.859
11624TIP3   OH234812   2.362   0.848   3.335
11624TIP3    H134813   2.342   0.790   3.408
11624TIP3    H234814   2.298   0.825   3.268
11625TIP3   OH234815   1.988   1.938   0.896
11625TIP3    H134816   1.953   1.852   0.873
11625TIP3    H234817   2.081   1.934   0.873
11626TIP3   OH234818   1.886   6.796   2.164
11626TIP3    H134819   1.899   6.809   2.070
11626TIP3    H234820   1.839   6.875   2.192
11627TIP3   OH234821   0.752   4.931   0.425
11627TIP3    H134822   0.771   4.847   0.383
11627TIP3    H234823   0.837   4.973   0.434
11628TIP3   OH234824   7.602   0.158   3.475
11628TIP3    H134825   7.532   0.219   3.454
11628TIP3    H234826   7.607   0.158   3.571
11629TIP3   OH234827   2.693   3.429   5.550
11629TIP3    H134828   2.615   3.479   5.524
11629TIP3    H234829   2.712   3.373   5.474
11630TIP3   OH234830   5.339   0.079   3.926
11630TIP3    H134831   5.279   0.133   3.875
11630TIP3    H234832   5.377   0.139   3.989
11631TIP3   OH234833   7.073   2.772   0.024
11631TIP3    H134834   7.063   2.677   0.038
11631TIP3    H234835   6.990   2.799  -0.015
11632TIP3   OH234836   3.834   4.356   3.720
11632TIP3    H134837   3.759   4.415   3.722
11632TIP3    H234838   3.892   4.392   3.652
11633TIP3   OH234839   2.020   1.699   0.706
11633TIP3    H134840   2.070   1.624   0.738
11633TIP3    H234841   2.073   1.735   0.636
11634TIP3   OH234842   4.386   2.676   4.412
11634TIP3    H134843   4.405   2.674   4.506
11634TIP3    H234844   4.333   2.597   4.397
11635TIP3   OH234845   0.794   6.259   4.678
11635TIP3    H134846   0.709   6.301   4.669
11635TIP3    H234847   0.846   6.320   4.730
11636TIP3   OH234848   1.246   6.941   0.035
11636TIP3    H134849   1.339   6.935   0.054
11636TIP3    H234850   1.206   6.966   0.119
11637TIP3   OH234851   1.678   5.465   6.769
11637TIP3    H134852   1.610   5.423   6.822
11637TIP3    H234853   1.714   5.394   6.716
11638TIP3   OH234854   5.509   2.747   2.782
11638TIP3    H134855   5.560   2.690   2.725
11638TIP3    H234856   5.476   2.688   2.851
11639TIP3   OH234857   2.535   1.854   1.179
11639TIP3    H134858   2.584   1.934   1.201
11639TIP3    H234859   2.564   1.790   1.243
11640TIP3   OH234860   2.368   5.473   5.629
11640TIP3    H134861   2.313   5.525   5.570
11640TIP3    H234862   2.454   5.473   5.588
11641TIP3   OH234863   3.443   0.530   5.235
11641TIP3    H134864   3.437   0.537   5.139
11641TIP3    H234865   3.391   0.453   5.256
11642TIP3   OH234866   4.896   3.296   3.512
11642TIP3    H134867   4.835   3.369   3.526
11642TIP3    H234868   4.843   3.218   3.530
11643TIP3   OH234869   5.488   7.215   1.107
11643TIP3    H134870   5.489   7.139   1.050
11643TIP3    H234871   5.475   7.179   1.195
11644TIP3   OH234872   7.120   4.362   3.581
11644TIP3    H134873   7.119   4.297   3.651
11644TIP3    H234874   7.028   4.381   3.563
11645TIP3   OH234875   7.452   5.386   2.385
11645TIP3    H134876   7.508   5.393   2.462
11645TIP3    H234877   7.477   5.303   2.344
11646TIP3   OH234878   2.384   6.885   4.143
11646TIP3    H134879   2.479   6.875   4.147
11646TIP3    H234880   2.371   6.976   4.115
11647TIP3   OH234881   8.392   6.743   3.825
11647TIP3    H134882   8.389   6.667   3.767
11647TIP3    H234883   8.357   6.815   3.772
11648TIP3   OH234884   2.671   2.806   0.882
11648TIP3    H134885   2.764   2.797   0.906
11648TIP3    H234886   2.658   2.744   0.811
11649TIP3   OH234887   5.591   6.421   4.104
11649TIP3    H134888   5.526   6.351   4.101
11649TIP3    H234889   5.674   6.377   4.119
11650TIP3   OH234890   6.481   0.181   2.786
11650TIP3    H134891   6.410   0.202   2.726
11650TIP3    H234892   6.438   0.143   2.863
11651TIP3   OH234893   6.754   2.592   6.755
11651TIP3    H134894   6.735   2.500   6.774
11651TIP3    H234895   6.717   2.640   6.829
11652TIP3   OH234896   2.809   3.299   1.405
11652TIP3    H134897   2.803   3.299   1.309
11652TIP3    H234898   2.749   3.229   1.432
11653TIP3   OH234899   5.455   6.473   3.299
11653TIP3    H134900   5.492   6.546   3.249
11653TIP3    H234901   5.488   6.486   3.388
11654TIP3   OH234902   2.481   7.216   2.066
11654TIP3    H134903   2.389   7.235   2.079
11654TIP3    H234904   2.527   7.274   2.127
11655TIP3   OH234905   6.336   6.161   2.416
11655TIP3    H134906   6.297   6.210   2.487
11655TIP3    H234907   6.397   6.223   2.375
11656TIP3   OH234908   7.817   1.535   2.690
11656TIP3    H134909   7.795   1.606   2.630
11656TIP3    H234910   7.751   1.468   2.673
11657TIP3   OH234911   4.450   1.027   1.033
11657TIP3    H134912   4.516   1.086   0.997
11657TIP3    H234913   4.428   0.969   0.960
11658TIP3   OH234914   2.043   5.549   0.501
11658TIP3    H134915   2.107   5.501   0.554
11658TIP3    H234916   2.065   5.527   0.411
11659TIP3   OH234917   4.023   3.171   4.283
11659TIP3    H134918   3.962   3.141   4.351
11659TIP3    H234919   4.107   3.133   4.308
11660TIP3   OH234920   4.924   1.360   3.607
11660TIP3    H134921   4.978   1.358   3.528
11660TIP3    H234922   4.888   1.271   3.613
11661TIP3   OH234923   0.488   6.385   0.093
11661TIP3    H134924   0.579   6.354   0.096
11661TIP3    H234925   0.450   6.357   0.177
11662TIP3   OH234926   7.471   2.373   1.590
11662TIP3    H134927   7.425   2.358   1.507
11662TIP3    H234928   7.527   2.296   1.600
11663TIP3   OH234929   3.400   5.071   4.910
11663TIP3    H134930   3.398   5.138   4.979
11663TIP3    H234931   3.487   5.079   4.871
11664TIP3   OH234932   3.890   0.886   2.715
11664TIP3    H134933   3.982   0.867   2.736
11664TIP3    H234934   3.852   0.911   2.799
11665TIP3   OH234935   0.257   5.723   1.004
11665TIP3    H134936   0.218   5.670   1.074
11665TIP3    H234937   0.215   5.808   1.012
11666TIP3   OH234938   5.722   3.747   6.646
11666TIP3    H134939   5.640   3.757   6.598
11666TIP3    H234940   5.789   3.736   6.578
11667TIP3   OH234941   1.686   0.745   1.430
11667TIP3    H134942   1.657   0.721   1.518
11667TIP3    H234943   1.744   0.821   1.443
11668TIP3   OH234944   5.367   2.270   5.037
11668TIP3    H134945   5.386   2.239   4.949
11668TIP3    H234946   5.423   2.347   5.048
11669TIP3   OH234947   6.052   1.637   2.373
11669TIP3    H134948   6.117   1.680   2.429
11669TIP3    H234949   5.979   1.699   2.370
11670TIP3   OH234950   0.520   5.833   1.045
11670TIP3    H134951   0.502   5.860   1.135
11670TIP3    H234952   0.444   5.780   1.020
11671TIP3   OH234953   3.529   0.741   6.694
11671TIP3    H134954   3.546   0.805   6.624
11671TIP3    H234955   3.497   0.663   6.648
11672TIP3   OH234956   6.651   2.739   5.854
11672TIP3    H134957   6.641   2.803   5.925
11672TIP3    H234958   6.745   2.724   5.849
11673TIP3   OH234959   5.091   4.523   5.228
11673TIP3    H134960   5.001   4.496   5.247
11673TIP3    H234961   5.143   4.444   5.242
11674TIP3   OH234962   7.022   3.967   1.520
11674TIP3    H134963   6.959   3.911   1.476
11674TIP3    H234964   7.007   3.952   1.613
11675TIP3   OH234965   3.907   6.400   1.003
11675TIP3    H134966   3.983   6.367   1.051
11675TIP3    H234967   3.914   6.360   0.916
11676TIP3   OH234968   0.155   6.754   1.072
11676TIP3    H134969   0.105   6.731   0.994
11676TIP3    H234970   0.152   6.674   1.126
11677TIP3   OH234971   1.992   3.675   5.742
11677TIP3    H134972   1.936   3.689   5.819
11677TIP3    H234973   2.071   3.726   5.759
11678TIP3   OH234974   0.715   0.249   5.640
11678TIP3    H134975   0.632   0.293   5.621
11678TIP3    H234976   0.727   0.259   5.735
11679TIP3   OH234977   0.590   4.692   4.995
11679TIP3    H134978   0.624   4.778   4.970
11679TIP3    H234979   0.668   4.639   5.010
11680TIP3   OH234980   8.031   0.816   3.617
11680TIP3    H134981   7.960   0.878   3.633
11680TIP3    H234982   7.986   0.736   3.589
11681TIP3   OH234983   7.273   0.729   3.603
11681TIP3    H134984   7.290   0.795   3.670
11681TIP3    H234985   7.308   0.648   3.638
11682TIP3   OH234986   2.483   0.639   1.764
11682TIP3    H134987   2.440   0.713   1.721
11682TIP3    H234988   2.573   0.668   1.777
11683TIP3   OH234989   0.362   0.578   2.446
11683TIP3    H134990   0.388   0.508   2.387
11683TIP3    H234991   0.444   0.624   2.467
11684TIP3   OH234992   7.638   0.318   4.750
11684TIP3    H134993   7.570   0.252   4.741
11684TIP3    H234994   7.600   0.397   4.712
11685TIP3   OH234995   6.803   5.943   0.445
11685TIP3    H134996   6.821   6.035   0.427
11685TIP3    H234997   6.714   5.929   0.413
11686TIP3   OH234998   5.685   0.328   1.412
11686TIP3    H134999   5.601   0.311   1.369
11686TIP3    H235000   5.741   0.254   1.385
11687TIP3   OH235001   6.192   2.841   1.526
11687TIP3    H135002   6.108   2.840   1.573
11687TIP3    H235003   6.232   2.924   1.550
11688TIP3   OH235004   5.988   1.103   2.977
11688TIP3    H135005   6.072   1.129   2.941
11688TIP3    H235006   5.971   1.016   2.941
11689TIP3   OH235007   6.475   3.714   2.433
11689TIP3    H135008   6.412   3.642   2.421
11689TIP3    H235009   6.546   3.694   2.372
11690TIP3   OH235010   6.160   6.999   6.138
11690TIP3    H135011   6.247   6.961   6.126
11690TIP3    H235012   6.171   7.062   6.210
11691TIP3   OH235013   1.349   0.537   1.675
11691TIP3    H135014   1.345   0.466   1.612
11691TIP3    H235015   1.303   0.504   1.752
11692TIP3   OH235016   7.082   7.098   5.941
11692TIP3    H135017   7.105   7.073   6.031
11692TIP3    H235018   7.072   7.015   5.895
11693TIP3   OH235019   7.358   4.046   4.800
11693TIP3    H135020   7.440   4.051   4.752
11693TIP3    H235021   7.382   4.005   4.884
11694TIP3   OH235022   1.906   2.954   3.069
11694TIP3    H135023   1.919   2.863   3.099
11694TIP3    H235024   1.978   3.002   3.108
11695TIP3   OH235025   7.653   0.035   4.034
11695TIP3    H135026   7.670  -0.047   4.081
11695TIP3    H235027   7.613   0.093   4.099
11696TIP3   OH235028   3.276   0.053   1.158
11696TIP3    H135029   3.253  -0.020   1.101
11696TIP3    H235030   3.372   0.057   1.154
11697TIP3   OH235031   4.747   1.120   3.200
11697TIP3    H135032   4.733   1.215   3.206
11697TIP3    H235033   4.812   1.101   3.268
11698TIP3   OH235034   6.916   3.492   3.308
11698TIP3    H135035   6.859   3.547   3.363
11698TIP3    H235036   6.879   3.499   3.220
11699TIP3   OH235037   3.405   5.864   4.876
11699TIP3    H135038   3.381   5.777   4.842
11699TIP3    H235039   3.384   5.924   4.804
11700TIP3   OH235040   1.814   4.819   6.609
11700TIP3    H135041   1.885   4.756   6.598
11700TIP3    H235042   1.859   4.903   6.620
11701TIP3   OH235043   0.378   7.845   2.398
11701TIP3    H135044   0.382   7.836   2.493
11701TIP3    H235045   0.316   7.916   2.383
11702TIP3   OH235046   3.141   5.600   2.296
11702TIP3    H135047   3.081   5.596   2.222
11702TIP3    H235048   3.087   5.576   2.372
11703TIP3   OH235049   6.566   7.093   6.311
11703TIP3    H135050   6.511   7.166   6.281
11703TIP3    H235051   6.644   7.136   6.346
11704TIP3   OH235052   4.678   7.730   6.725
11704TIP3    H135053   4.660   7.639   6.750
11704TIP3    H235054   4.669   7.779   6.807
11705TIP3   OH235055   4.685   1.633   0.811
11705TIP3    H135056   4.745   1.702   0.839
11705TIP3    H235057   4.618   1.679   0.761
11706TIP3   OH235058   2.134   7.728   1.285
11706TIP3    H135059   2.173   7.664   1.226
11706TIP3    H235060   2.046   7.742   1.251
11707TIP3   OH235061   1.491   0.676   6.096
11707TIP3    H135062   1.561   0.704   6.037
11707TIP3    H235063   1.443   0.756   6.116
11708TIP3   OH235064   3.493   6.730   5.463
11708TIP3    H135065   3.544   6.662   5.420
11708TIP3    H235066   3.450   6.686   5.536
11709TIP3   OH235067   3.276   4.724   5.190
11709TIP3    H135068   3.296   4.794   5.252
11709TIP3    H235069   3.265   4.646   5.244
11710TIP3   OH235070   6.637   7.077   1.125
11710TIP3    H135071   6.606   7.131   1.198
11710TIP3    H235072   6.721   7.116   1.099
11711TIP3   OH235073   0.518   3.367   5.607
11711TIP3    H135074   0.514   3.414   5.524
11711TIP3    H235075   0.468   3.287   5.591
11712TIP3   OH235076   7.141   7.454   6.277
11712TIP3    H135077   7.167   7.386   6.338
11712TIP3    H235078   7.045   7.449   6.276
11713TIP3   OH235079   6.873   0.204   0.554
11713TIP3    H135080   6.938   0.136   0.539
11713TIP3    H235081   6.919   0.271   0.605
11714TIP3   OH235082   5.843   0.602   0.514
11714TIP3    H135083   5.869   0.523   0.466
11714TIP3    H235084   5.774   0.641   0.460
11715TIP3   OH235085   1.957   5.747   5.828
11715TIP3    H135086   2.028   5.751   5.764
11715TIP3    H235087   1.931   5.655   5.829
11716TIP3   OH235088   8.167   1.916   0.883
11716TIP3    H135089   8.125   1.909   0.968
11716TIP3    H235090   8.218   1.997   0.888
11717TIP3   OH235091   1.391   3.321   2.905
11717TIP3    H135092   1.427   3.363   2.827
11717TIP3    H235093   1.381   3.229   2.880
11718TIP3   OH235094   6.232   1.555   5.729
11718TIP3    H135095   6.302   1.572   5.666
11718TIP3    H235096   6.169   1.500   5.681
11719TIP3   OH235097   5.265   1.444   0.922
11719TIP3    H135098   5.262   1.348   0.919
11719TIP3    H235099   5.225   1.472   0.840
11720TIP3   OH235100   2.170   4.509   3.935
11720TIP3    H135101   2.199   4.433   3.985
11720TIP3    H235102   2.239   4.574   3.947
11721TIP3   OH235103  -0.020   2.677   4.078
11721TIP3    H135104   0.059   2.631   4.050
11721TIP3    H235105   0.007   2.728   4.154
11722TIP3   OH235106   8.110   6.610   6.627
11722TIP3    H135107   8.155   6.533   6.593
11722TIP3    H235108   8.018   6.584   6.629
11723TIP3   OH235109   2.945   5.310   6.698
11723TIP3    H135110   3.017   5.371   6.686
11723TIP3    H235111   2.962   5.268   6.782
11724TIP3   OH235112   6.043   3.310   3.698
11724TIP3    H135113   5.975   3.363   3.741
11724TIP3    H235114   6.035   3.332   3.605
11725TIP3   OH235115   4.849   7.740   5.177
11725TIP3    H135116   4.820   7.769   5.264
11725TIP3    H235117   4.940   7.713   5.189
11726TIP3   OH235118   1.749   5.079   0.326
11726TIP3    H135119   1.769   4.991   0.357
11726TIP3    H235120   1.786   5.137   0.392
11727TIP3   OH235121   1.746   7.407   5.511
11727TIP3    H135122   1.809   7.414   5.582
11727TIP3    H235123   1.674   7.356   5.547
11728TIP3   OH235124   4.331   4.172   6.043
11728TIP3    H135125   4.295   4.094   6.000
11728TIP3    H235126   4.262   4.202   6.101
11729TIP3   OH235127   5.673   3.797   2.014
11729TIP3    H135128   5.616   3.873   2.023
11729TIP3    H235129   5.679   3.761   2.103
11730TIP3   OH235130   6.843   4.942   1.855
11730TIP3    H135131   6.827   4.910   1.944
11730TIP3    H235132   6.932   4.976   1.859
11731TIP3   OH235133   6.628   6.183   2.559
11731TIP3    H135134   6.645   6.100   2.514
11731TIP3    H235135   6.573   6.232   2.499
11732TIP3   OH235136   2.314   3.830   3.367
11732TIP3    H135137   2.262   3.905   3.394
11732TIP3    H235138   2.259   3.785   3.302
11733TIP3   OH235139   7.309   7.072   0.681
11733TIP3    H135140   7.397   7.076   0.720
11733TIP3    H235141   7.308   7.145   0.619
11734TIP3   OH235142   5.319   3.933   5.484
11734TIP3    H135143   5.316   4.027   5.465
11734TIP3    H235144   5.228   3.904   5.478
11735TIP3   OH235145   1.147   3.617   6.559
11735TIP3    H135146   1.236   3.622   6.525
11735TIP3    H235147   1.092   3.610   6.482
11736TIP3   OH235148   7.828   6.579   6.645
11736TIP3    H135149   7.785   6.585   6.560
11736TIP3    H235150   7.770   6.627   6.704
11737TIP3   OH235151   5.693   7.879   1.462
11737TIP3    H135152   5.635   7.833   1.401
11737TIP3    H235153   5.740   7.942   1.407
11738TIP3   OH235154   4.480   2.572   4.038
11738TIP3    H135155   4.405   2.620   4.075
11738TIP3    H235156   4.557   2.611   4.079
11739TIP3   OH235157   3.882   4.587   6.530
11739TIP3    H135158   3.836   4.519   6.481
11739TIP3    H235159   3.975   4.573   6.509
11740TIP3   OH235160   1.714   2.840   0.405
11740TIP3    H135161   1.726   2.753   0.366
11740TIP3    H235162   1.797   2.885   0.386
11741TIP3   OH235163   5.151   5.194   2.241
11741TIP3    H135164   5.229   5.229   2.284
11741TIP3    H235165   5.157   5.099   2.254
11742TIP3   OH235166   5.630   1.615   2.770
11742TIP3    H135167   5.584   1.534   2.790
11742TIP3    H235168   5.706   1.586   2.719
11743TIP3   OH235169   0.113   3.038   6.278
11743TIP3    H135170   0.037   3.003   6.323
11743TIP3    H235171   0.130   2.976   6.207
11744TIP3   OH235172   1.584   5.802   5.313
11744TIP3    H135173   1.628   5.844   5.239
11744TIP3    H235174   1.491   5.820   5.299
11745TIP3   OH235175   6.506   2.171   3.934
11745TIP3    H135176   6.599   2.161   3.912
11745TIP3    H235177   6.486   2.095   3.989
11746TIP3   OH235178   2.319   5.982   2.275
11746TIP3    H135179   2.273   6.065   2.262
11746TIP3    H235180   2.304   5.933   2.194
11747TIP3   OH235181   5.156   2.984   0.754
11747TIP3    H135182   5.167   2.911   0.694
11747TIP3    H235183   5.101   2.949   0.824
11748TIP3   OH235184   2.012   3.549   1.096
11748TIP3    H135185   1.993   3.620   1.036
11748TIP3    H235186   1.929   3.531   1.140
11749TIP3   OH235187   2.332   6.552   3.616
11749TIP3    H135188   2.323   6.457   3.609
11749TIP3    H235189   2.243   6.586   3.609
11750TIP3   OH235190   6.851   4.845   2.106
11750TIP3    H135191   6.915   4.825   2.174
11750TIP3    H235192   6.801   4.764   2.095
11751TIP3   OH235193   7.663   5.080   0.883
11751TIP3    H135194   7.654   5.096   0.789
11751TIP3    H235195   7.647   5.165   0.924
11752TIP3   OH235196   1.015   6.002   5.569
11752TIP3    H135197   1.064   6.082   5.549
11752TIP3    H235198   1.061   5.964   5.644
11753TIP3   OH235199   3.352   7.512   6.573
11753TIP3    H135200   3.290   7.439   6.569
11753TIP3    H235201   3.438   7.471   6.567
11754TIP3   OH235202   4.793   5.989   1.931
11754TIP3    H135203   4.736   5.918   1.961
11754TIP3    H235204   4.742   6.033   1.863
11755TIP3   OH235205   1.851   1.291   4.993
11755TIP3    H135206   1.765   1.253   5.011
11755TIP3    H235207   1.887   1.311   5.079
11756TIP3   OH235208   2.610   4.668   2.630
11756TIP3    H135209   2.647   4.756   2.620
11756TIP3    H235210   2.651   4.634   2.709
11757TIP3   OH235211   7.485   5.692   2.327
11757TIP3    H135212   7.459   5.606   2.359
11757TIP3    H235213   7.408   5.725   2.280
11758TIP3   OH235214   7.934   2.668   5.740
11758TIP3    H135215   7.878   2.590   5.746
11758TIP3    H235216   7.939   2.687   5.647
11759TIP3   OH235217   6.790   5.271   2.370
11759TIP3    H135218   6.734   5.227   2.434
11759TIP3    H235219   6.729   5.310   2.308
11760TIP3   OH235220   3.719   0.745   4.044
11760TIP3    H135221   3.633   0.710   4.066
11760TIP3    H235222   3.776   0.668   4.040
11761TIP3   OH235223   6.611   7.860   2.532
11761TIP3    H135224   6.677   7.888   2.468
11761TIP3    H235225   6.574   7.941   2.567
11762TIP3   OH235226   2.345   3.789   3.720
11762TIP3    H135227   2.378   3.860   3.774
11762TIP3    H235228   2.258   3.819   3.692
11763TIP3   OH235229   7.998   4.119   0.621
11763TIP3    H135230   7.914   4.136   0.663
11763TIP3    H235231   8.049   4.198   0.635
11764TIP3   OH235232   6.392   0.066   3.490
11764TIP3    H135233   6.300   0.081   3.467
11764TIP3    H235234   6.420   0.149   3.529
11765TIP3   OH235235   8.298   6.320   0.732
11765TIP3    H135236   8.306   6.237   0.685
11765TIP3    H235237   8.301   6.295   0.825
11766TIP3   OH235238   1.655   2.137   0.916
11766TIP3    H135239   1.750   2.130   0.921
11766TIP3    H235240   1.638   2.215   0.863
11767TIP3   OH235241   5.838   7.100   5.167
11767TIP3    H135242   5.777   7.029   5.149
11767TIP3    H235243   5.888   7.110   5.086
11768TIP3   OH235244   7.606   3.071   5.529
11768TIP3    H135245   7.575   3.071   5.620
11768TIP3    H235246   7.697   3.044   5.535
11769TIP3   OH235247   0.834   5.912   5.390
11769TIP3    H135248   0.896   5.944   5.456
11769TIP3    H235249   0.890   5.875   5.321
11770TIP3   OH235250   7.884   6.146   2.767
11770TIP3    H135251   7.909   6.082   2.700
11770TIP3    H235252   7.803   6.184   2.734
11771TIP3   OH235253   1.093   4.073   1.390
11771TIP3    H135254   1.037   4.048   1.317
11771TIP3    H235255   1.088   4.169   1.392
11772TIP3   OH235256   4.745   0.176   3.118
11772TIP3    H135257   4.684   0.248   3.104
11772TIP3    H235258   4.821   0.197   3.063
11773TIP3   OH235259   3.890   1.022   0.987
11773TIP3    H135260   3.899   0.927   0.977
11773TIP3    H235261   3.809   1.043   0.939
11774TIP3   OH235262   2.932   3.860   5.984
11774TIP3    H135263   2.992   3.910   6.040
11774TIP3    H235264   2.926   3.775   6.027
11775TIP3   OH235265   6.367   2.304   3.398
11775TIP3    H135266   6.275   2.318   3.420
11775TIP3    H235267   6.413   2.377   3.440
11776TIP3   OH235268   4.260   0.465   1.628
11776TIP3    H135269   4.349   0.447   1.658
11776TIP3    H235270   4.270   0.528   1.557
11777TIP3   OH235271   4.278   0.748   2.294
11777TIP3    H135272   4.319   0.725   2.211
11777TIP3    H235273   4.185   0.756   2.273
11778TIP3   OH235274   0.675   3.409   4.400
11778TIP3    H135275   0.706   3.469   4.468
11778TIP3    H235276   0.647   3.467   4.329
11779TIP3   OH235277   3.438   1.973   5.496
11779TIP3    H135278   3.375   2.016   5.554
11779TIP3    H235279   3.481   1.909   5.553
11780TIP3   OH235280   0.550   7.421   4.637
11780TIP3    H135281   0.474   7.471   4.666
11780TIP3    H235282   0.513   7.349   4.585
11781TIP3   OH235283   0.260   2.314   4.141
11781TIP3    H135284   0.208   2.288   4.217
11781TIP3    H235285   0.232   2.254   4.072
11782TIP3   OH235286   6.082   4.258   0.478
11782TIP3    H135287   5.997   4.256   0.523
11782TIP3    H235288   6.143   4.219   0.541
11783TIP3   OH235289   4.172   3.381   4.643
11783TIP3    H135290   4.234   3.453   4.637
11783TIP3    H235291   4.118   3.388   4.564
11784TIP3   OH235292   2.861   0.343   2.142
11784TIP3    H135293   2.793   0.324   2.207
11784TIP3    H235294   2.819   0.400   2.079
11785TIP3   OH235295   7.002   1.071   5.556
11785TIP3    H135296   6.923   1.056   5.505
11785TIP3    H235297   6.974   1.122   5.631
11786TIP3   OH235298   1.751   6.205   6.628
11786TIP3    H135299   1.779   6.118   6.655
11786TIP3    H235300   1.832   6.252   6.611
11787TIP3   OH235301   5.689   1.222   0.781
11787TIP3    H135302   5.665   1.169   0.705
11787TIP3    H235303   5.748   1.166   0.831
11788TIP3   OH235304   3.090   5.948   4.781
11788TIP3    H135305   3.063   5.982   4.696
11788TIP3    H235306   3.096   5.854   4.769
11789TIP3   OH235307   1.660   2.541   5.220
11789TIP3    H135308   1.706   2.545   5.136
11789TIP3    H235309   1.574   2.504   5.198
11790TIP3   OH235310   0.006   6.557   6.658
11790TIP3    H135311   0.002   6.470   6.618
11790TIP3    H235312  -0.007   6.617   6.584
11791TIP3   OH235313   3.512   2.824   4.468
11791TIP3    H135314   3.449   2.849   4.535
11791TIP3    H235315   3.465   2.761   4.413
11792TIP3   OH235316   2.035   4.748   6.180
11792TIP3    H135317   2.001   4.830   6.216
11792TIP3    H235318   2.117   4.733   6.226
11793TIP3   OH235319   7.510   6.414   3.778
11793TIP3    H135320   7.558   6.335   3.751
11793TIP3    H235321   7.579   6.474   3.808
11794TIP3   OH235322   5.645   4.773   4.417
11794TIP3    H135323   5.553   4.799   4.413
11794TIP3    H235324   5.653   4.704   4.351
11795TIP3   OH235325   4.563   1.399   5.763
11795TIP3    H135326   4.499   1.332   5.740
11795TIP3    H235327   4.645   1.351   5.773
11796TIP3   OH235328   5.174   4.790   5.769
11796TIP3    H135329   5.131   4.875   5.778
11796TIP3    H235330   5.234   4.801   5.695
11797TIP3   OH235331   0.135   6.814   0.489
11797TIP3    H135332   0.158   6.903   0.461
11797TIP3    H235333   0.217   6.766   0.485
11798TIP3   OH235334   0.730   1.591   2.379
11798TIP3    H135335   0.703   1.630   2.296
11798TIP3    H235336   0.655   1.537   2.405
11799TIP3   OH235337   1.704   3.626   4.214
11799TIP3    H135338   1.719   3.564   4.285
11799TIP3    H235339   1.706   3.573   4.134
11800TIP3   OH235340   8.307   6.721   2.045
11800TIP3    H135341   8.366   6.792   2.069
11800TIP3    H235342   8.258   6.702   2.125
11801TIP3   OH235343   2.935   2.730   0.944
11801TIP3    H135344   2.914   2.637   0.947
11801TIP3    H235345   3.014   2.735   0.890
11802TIP3   OH235346   1.957   6.291   5.190
11802TIP3    H135347   2.052   6.293   5.204
11802TIP3    H235348   1.947   6.281   5.096
11803TIP3   OH235349   7.424   1.845   2.945
11803TIP3    H135350   7.405   1.914   2.882
11803TIP3    H235351   7.455   1.771   2.892
11804TIP3   OH235352   7.275   1.569   2.300
11804TIP3    H135353   7.334   1.507   2.258
11804TIP3    H235354   7.220   1.514   2.357
11805TIP3   OH235355   5.939   3.259   4.732
11805TIP3    H135356   5.979   3.341   4.761
11805TIP3    H235357   5.845   3.271   4.748
11806TIP3   OH235358   2.721   2.752   2.463
11806TIP3    H135359   2.786   2.796   2.409
11806TIP3    H235360   2.711   2.809   2.540
11807TIP3   OH235361   4.793   7.720   1.915
11807TIP3    H135362   4.761   7.692   1.830
11807TIP3    H235363   4.715   7.727   1.969
11808TIP3   OH235364   5.533   0.457   2.973
11808TIP3    H135365   5.474   0.531   2.960
11808TIP3    H235366   5.512   0.397   2.901
11809TIP3   OH235367   3.965   7.552   2.769
11809TIP3    H135368   3.887   7.605   2.751
11809TIP3    H235369   4.038   7.608   2.740
11810TIP3   OH235370   4.953   4.869   0.834
11810TIP3    H135371   4.938   4.857   0.740
11810TIP3    H235372   4.869   4.898   0.868
11811TIP3   OH235373   3.802   3.775   2.842
11811TIP3    H135374   3.758   3.691   2.827
11811TIP3    H235375   3.788   3.792   2.935
11812TIP3   OH235376   1.463   3.603   5.339
11812TIP3    H135377   1.452   3.520   5.291
11812TIP3    H235378   1.398   3.598   5.410
11813TIP3   OH235379   5.811   7.143   0.591
11813TIP3    H135380   5.883   7.118   0.650
11813TIP3    H235381   5.739   7.085   0.617
11814TIP3   OH235382   5.779   7.567   4.204
11814TIP3    H135383   5.768   7.653   4.165
11814TIP3    H235384   5.736   7.507   4.143
11815TIP3   OH235385   1.810   5.261   5.380
11815TIP3    H135386   1.786   5.307   5.299
11815TIP3    H235387   1.761   5.307   5.449
11816TIP3   OH235388   7.623   2.964   3.442
11816TIP3    H135389   7.700   2.917   3.409
11816TIP3    H235390   7.581   2.999   3.363
11817TIP3   OH235391   0.567   1.932   0.263
11817TIP3    H135392   0.605   1.969   0.343
11817TIP3    H235393   0.556   2.007   0.205
11818TIP3   OH235394   4.290   5.904   5.299
11818TIP3    H135395   4.357   5.911   5.367
11818TIP3    H235396   4.333   5.857   5.227
11819TIP3   OH235397   0.706   1.470   6.304
11819TIP3    H135398   0.663   1.398   6.257
11819TIP3    H235399   0.687   1.547   6.252
11820TIP3   OH235400   4.819   1.701   4.418
11820TIP3    H135401   4.793   1.610   4.400
11820TIP3    H235402   4.739   1.751   4.403
11821TIP3   OH235403   6.368   5.192   1.535
11821TIP3    H135404   6.419   5.112   1.550
11821TIP3    H235405   6.349   5.226   1.622
11822TIP3   OH235406   1.648   4.454   1.084
11822TIP3    H135407   1.669   4.367   1.052
11822TIP3    H235408   1.733   4.495   1.102
11823TIP3   OH235409   6.400   4.715   5.854
11823TIP3    H135410   6.458   4.662   5.800
11823TIP3    H235411   6.335   4.750   5.794
11824TIP3   OH235412   1.522   0.777   5.261
11824TIP3    H135413   1.547   0.861   5.298
11824TIP3    H235414   1.538   0.714   5.332
11825TIP3   OH235415   2.256   7.152   5.042
11825TIP3    H135416   2.241   7.131   5.134
11825TIP3    H235417   2.171   7.183   5.010
11826TIP3   OH235418   3.132   1.515   4.179
11826TIP3    H135419   3.111   1.493   4.269
11826TIP3    H235420   3.184   1.442   4.148
11827TIP3   OH235421   2.120   6.192   1.323
11827TIP3    H135422   2.136   6.161   1.412
11827TIP3    H235423   2.205   6.182   1.279
11828TIP3   OH235424   2.758   5.945   4.111
11828TIP3    H135425   2.705   5.898   4.046
11828TIP3    H235426   2.724   5.915   4.195
11829TIP3   OH235427   4.738   7.002   3.552
11829TIP3    H135428   4.647   7.015   3.527
11829TIP3    H235429   4.767   7.087   3.584
11830TIP3   OH235430   8.176   0.466   4.018
11830TIP3    H135431   8.166   0.393   3.957
11830TIP3    H235432   8.086   0.490   4.042
11831TIP3   OH235433   6.004   5.893   1.501
11831TIP3    H135434   6.023   5.804   1.472
11831TIP3    H235435   6.084   5.942   1.484
11832TIP3   OH235436   4.351   6.379   0.376
11832TIP3    H135437   4.380   6.427   0.298
11832TIP3    H235438   4.256   6.372   0.365
11833TIP3   OH235439   0.245   1.227   0.078
11833TIP3    H135440   0.185   1.156   0.102
11833TIP3    H235441   0.245   1.285   0.154
11834TIP3   OH235442   8.093   1.743   3.743
11834TIP3    H135443   8.154   1.680   3.704
11834TIP3    H235444   8.049   1.783   3.668
11835TIP3   OH235445   0.677   6.426   1.200
11835TIP3    H135446   0.593   6.379   1.203
11835TIP3    H235447   0.732   6.372   1.144
11836TIP3   OH235448   4.393   2.325   5.784
11836TIP3    H135449   4.349   2.381   5.720
11836TIP3    H235450   4.360   2.237   5.766
11837TIP3   OH235451   6.637   5.349   2.165
11837TIP3    H135452   6.642   5.269   2.112
11837TIP3    H235453   6.556   5.392   2.137
11838TIP3   OH235454   6.235   1.463   0.317
11838TIP3    H135455   6.143   1.453   0.292
11838TIP3    H235456   6.251   1.557   0.314
11839TIP3   OH235457   1.383   6.073   3.542
11839TIP3    H135458   1.322   6.069   3.616
11839TIP3    H235459   1.328   6.052   3.466
11840TIP3   OH235460   8.289   2.378   1.802
11840TIP3    H135461   8.339   2.312   1.849
11840TIP3    H235462   8.319   2.371   1.711
11841TIP3   OH235463   2.911   4.268   2.041
11841TIP3    H135464   2.880   4.358   2.027
11841TIP3    H235465   3.003   4.279   2.066
11842TIP3   OH235466   4.798   2.502   0.470
11842TIP3    H135467   4.773   2.442   0.540
11842TIP3    H235468   4.715   2.528   0.429
11843TIP3   OH235469   6.287   2.215   1.848
11843TIP3    H135470   6.334   2.286   1.892
11843TIP3    H235471   6.356   2.153   1.822
11844TIP3   OH235472   7.218   2.960   1.072
11844TIP3    H135473   7.284   2.901   1.035
11844TIP3    H235474   7.169   2.905   1.134
11845TIP3   OH235475   7.444   1.384   4.042
11845TIP3    H135476   7.524   1.402   4.091
11845TIP3    H235477   7.404   1.470   4.028
11846TIP3   OH235478   1.622   1.852   1.290
11846TIP3    H135479   1.668   1.819   1.368
11846TIP3    H235480   1.662   1.937   1.273
11847TIP3   OH235481   3.560   0.930   6.131
11847TIP3    H135482   3.559   0.905   6.038
11847TIP3    H235483   3.645   0.902   6.163
11848TIP3   OH235484   1.419   4.904   6.192
11848TIP3    H135485   1.415   4.939   6.103
11848TIP3    H235486   1.328   4.895   6.218
11849TIP3   OH235487   4.268   4.423   0.915
11849TIP3    H135488   4.313   4.408   0.998
11849TIP3    H235489   4.175   4.422   0.939
11850TIP3   OH235490   5.065   1.622   5.238
11850TIP3    H135491   5.000   1.570   5.191
11850TIP3    H235492   5.019   1.653   5.316
11851TIP3   OH235493   0.487   0.034   1.695
11851TIP3    H135494   0.447  -0.026   1.759
11851TIP3    H235495   0.412   0.074   1.651
11852TIP3   OH235496   4.502   5.776   5.680
11852TIP3    H135497   4.559   5.787   5.756
11852TIP3    H235498   4.413   5.786   5.715
11853TIP3   OH235499   1.632   3.008   4.828
11853TIP3    H135500   1.585   3.021   4.746
11853TIP3    H235501   1.610   3.085   4.881
11854TIP3   OH235502   0.973   4.528   0.794
11854TIP3    H135503   0.923   4.600   0.755
11854TIP3    H235504   1.019   4.488   0.721
11855TIP3   OH235505   7.221   6.190   6.647
11855TIP3    H135506   7.217   6.164   6.555
11855TIP3    H235507   7.288   6.259   6.650
11856TIP3   OH235508   0.029   7.641   0.399
11856TIP3    H135509   0.024   7.624   0.493
11856TIP3    H235510   0.063   7.560   0.362
11857TIP3   OH235511   7.993   5.032   0.719
11857TIP3    H135512   7.909   5.068   0.693
11857TIP3    H235513   7.986   4.938   0.703
11858TIP3   OH235514   6.120   0.284   1.534
11858TIP3    H135515   6.204   0.293   1.580
11858TIP3    H235516   6.064   0.238   1.596
11859TIP3   OH235517   0.998   0.491   5.079
11859TIP3    H135518   1.093   0.500   5.077
11859TIP3    H235519   0.981   0.402   5.049
11860TIP3   OH235520   1.652   2.524   1.872
11860TIP3    H135521   1.562   2.492   1.872
11860TIP3    H235522   1.647   2.610   1.914
11861TIP3   OH235523   0.963   6.383   4.854
11861TIP3    H135524   1.009   6.464   4.834
11861TIP3    H235525   1.032   6.319   4.867
11862TIP3   OH235526   2.996   1.049   3.253
11862TIP3    H135527   2.988   0.968   3.202
11862TIP3    H235528   2.907   1.086   3.251
11863TIP3   OH235529   6.244   5.311   1.756
11863TIP3    H135530   6.201   5.394   1.775
11863TIP3    H235531   6.173   5.248   1.748
11864TIP3   OH235532   3.225   2.872   3.823
11864TIP3    H135533   3.211   2.885   3.729
11864TIP3    H235534   3.298   2.811   3.829
11865TIP3   OH235535   0.524   4.678   0.346
11865TIP3    H135536   0.615   4.651   0.359
11865TIP3    H235537   0.526   4.729   0.265
11866TIP3   OH235538   7.671   3.416   5.222
11866TIP3    H135539   7.725   3.346   5.257
11866TIP3    H235540   7.727   3.494   5.225
11867TIP3   OH235541   4.631   2.388   0.720
11867TIP3    H135542   4.596   2.477   0.711
11867TIP3    H235543   4.554   2.333   0.725
11868TIP3   OH235544   4.026   0.999   0.283
11868TIP3    H135545   4.038   0.976   0.191
11868TIP3    H235546   4.113   0.992   0.322
11869TIP3   OH235547   4.373   3.588   4.518
11869TIP3    H135548   4.343   3.674   4.489
11869TIP3    H235549   4.355   3.530   4.444
11870TIP3   OH235550   4.844   0.311   5.053
11870TIP3    H135551   4.890   0.315   5.137
11870TIP3    H235552   4.891   0.244   5.003
11871TIP3   OH235553   0.369   1.977   2.653
11871TIP3    H135554   0.410   1.913   2.711
11871TIP3    H235555   0.326   2.039   2.712
11872TIP3   OH235556   2.442   4.097   4.698
11872TIP3    H135557   2.490   4.135   4.771
11872TIP3    H235558   2.502   4.033   4.660
11873TIP3   OH235559   0.229   4.330   3.996
11873TIP3    H135560   0.196   4.241   4.002
11873TIP3    H235561   0.201   4.371   4.078
11874TIP3   OH235562   1.859   5.533   6.500
11874TIP3    H135563   1.904   5.453   6.527
11874TIP3    H235564   1.807   5.507   6.424
11875TIP3   OH235565   4.037   0.685   3.359
11875TIP3    H135566   4.078   0.641   3.285
11875TIP3    H235567   4.079   0.647   3.436
11876TIP3   OH235568   1.492   4.823   0.238
11876TIP3    H135569   1.447   4.906   0.254
11876TIP3    H235570   1.430   4.757   0.268
11877TIP3   OH235571   1.242   5.601   4.066
11877TIP3    H135572   1.191   5.680   4.084
11877TIP3    H235573   1.330   5.633   4.045
11878TIP3   OH235574   1.495   5.718   0.626
11878TIP3    H135575   1.496   5.626   0.600
11878TIP3    H235576   1.403   5.741   0.634
11879TIP3   OH235577   4.035   7.708   5.656
11879TIP3    H135578   4.127   7.713   5.681
11879TIP3    H235579   3.999   7.637   5.710
11880TIP3   OH235580   3.281   4.573   1.557
11880TIP3    H135581   3.230   4.575   1.476
11880TIP3    H235582   3.372   4.568   1.527
11881TIP3   OH235583   3.628   0.208   4.516
11881TIP3    H135584   3.642   0.139   4.581
11881TIP3    H235585   3.533   0.220   4.512
11882TIP3   OH235586   0.414   3.422   4.580
11882TIP3    H135587   0.418   3.362   4.505
11882TIP3    H235588   0.480   3.488   4.562
11883TIP3   OH235589   8.147   7.723   0.448
11883TIP3    H135590   8.222   7.675   0.413
11883TIP3    H235591   8.185   7.782   0.513
11884TIP3   OH235592   0.529   7.230   3.658
11884TIP3    H135593   0.617   7.193   3.651
11884TIP3    H235594   0.495   7.194   3.740
11885TIP3   OH235595   2.708   1.985   5.847
11885TIP3    H135596   2.675   2.072   5.870
11885TIP3    H235597   2.680   1.929   5.919
11886TIP3   OH235598   1.511   5.229   0.425
11886TIP3    H135599   1.556   5.144   0.426
11886TIP3    H235600   1.489   5.244   0.333
11887TIP3   OH235601   4.721   1.323   5.121
11887TIP3    H135602   4.814   1.323   5.147
11887TIP3    H235603   4.677   1.370   5.192
11888TIP3   OH235604   3.238   1.851   2.981
11888TIP3    H135605   3.322   1.834   3.023
11888TIP3    H235606   3.177   1.867   3.053
11889TIP3   OH235607   4.680   1.029   2.962
11889TIP3    H135608   4.699   1.056   3.052
11889TIP3    H235609   4.598   0.980   2.968
11890TIP3   OH235610   8.101   1.344   6.152
11890TIP3    H135611   8.059   1.261   6.176
11890TIP3    H235612   8.185   1.342   6.198
11891TIP3   OH235613   5.828   0.316   5.045
11891TIP3    H135614   5.832   0.368   5.125
11891TIP3    H235615   5.804   0.378   4.977
11892TIP3   OH235616   0.053   4.857   1.934
11892TIP3    H135617   0.104   4.786   1.895
11892TIP3    H235618   0.077   4.935   1.884
11893TIP3   OH235619   0.962   4.601   1.812
11893TIP3    H135620   0.977   4.606   1.718
11893TIP3    H235621   0.867   4.609   1.821
11894TIP3   OH235622   1.647   6.031   3.575
11894TIP3    H135623   1.558   6.061   3.559
11894TIP3    H235624   1.697   6.111   3.592
11895TIP3   OH235625   2.125   4.397   5.988
11895TIP3    H135626   2.076   4.442   5.919
11895TIP3    H235627   2.141   4.464   6.054
11896TIP3   OH235628   0.027   3.916   2.713
11896TIP3    H135629   0.113   3.917   2.757
11896TIP3    H235630   0.039   3.973   2.636
11897TIP3   OH235631   3.445   6.106   2.590
11897TIP3    H135632   3.421   6.198   2.589
11897TIP3    H235633   3.491   6.094   2.673
11898TIP3   OH235634   3.468   2.924   4.061
11898TIP3    H135635   3.476   2.983   3.985
11898TIP3    H235636   3.440   2.841   4.024
11899TIP3   OH235637   3.134   6.962   0.971
11899TIP3    H135638   3.044   6.993   0.960
11899TIP3    H235639   3.186   7.020   0.915
11900TIP3   OH235640   4.183   3.862   1.986
11900TIP3    H135641   4.106   3.919   1.991
11900TIP3    H235642   4.244   3.898   2.049
11901TIP3   OH235643   1.877   5.993   4.940
11901TIP3    H135644   1.920   6.063   4.891
11901TIP3    H235645   1.941   5.969   5.008
11902TIP3   OH235646   5.114   5.618   2.041
11902TIP3    H135647   5.122   5.653   2.130
11902TIP3    H235648   5.060   5.540   2.050
11903TIP3   OH235649   1.514   2.422   6.573
11903TIP3    H135650   1.457   2.499   6.578
11903TIP3    H235651   1.602   2.458   6.561
11904TIP3   OH235652   4.561   4.253   3.850
11904TIP3    H135653   4.552   4.158   3.845
11904TIP3    H235654   4.626   4.274   3.783
11905TIP3   OH235655   6.669   4.931   6.558
11905TIP3    H135656   6.640   4.987   6.630
11905TIP3    H235657   6.613   4.956   6.484
11906TIP3   OH235658   2.638   2.002   4.406
11906TIP3    H135659   2.575   2.005   4.334
11906TIP3    H235660   2.686   1.921   4.393
11907TIP3   OH235661   2.423   4.453   2.792
11907TIP3    H135662   2.387   4.374   2.751
11907TIP3    H235663   2.517   4.447   2.777
11908TIP3   OH235664   6.344   0.710   0.272
11908TIP3    H135665   6.381   0.658   0.343
11908TIP3    H235666   6.402   0.785   0.264
11909TIP3   OH235667   6.978   5.786   4.742
11909TIP3    H135668   7.031   5.708   4.726
11909TIP3    H235669   6.933   5.768   4.825
11910TIP3   OH235670   5.102   6.286   3.640
11910TIP3    H135671   5.172   6.276   3.705
11910TIP3    H235672   5.099   6.380   3.623
11911TIP3   OH235673   1.284   1.926   3.622
11911TIP3    H135674   1.243   1.880   3.696
11911TIP3    H235675   1.244   1.886   3.545
11912TIP3   OH235676   4.210   6.689   2.831
11912TIP3    H135677   4.142   6.626   2.806
11912TIP3    H235678   4.173   6.736   2.906
11913TIP3   OH235679   6.199   7.825   4.905
11913TIP3    H135680   6.114   7.783   4.920
11913TIP3    H235681   6.177   7.914   4.877
11914TIP3   OH235682   1.863   6.089   4.487
11914TIP3    H135683   1.916   6.122   4.415
11914TIP3    H235684   1.925   6.046   4.545
11915TIP3   OH235685   6.633   5.532   6.860
11915TIP3    H135686   6.718   5.547   6.902
11915TIP3    H235687   6.650   5.460   6.799
11916TIP3   OH235688   3.655   2.690   6.422
11916TIP3    H135689   3.667   2.634   6.498
11916TIP3    H235690   3.702   2.770   6.443
11917TIP3   OH235691   7.483   0.611   1.911
11917TIP3    H135692   7.426   0.671   1.958
11917TIP3    H235693   7.557   0.597   1.971
11918TIP3   OH235694   3.361   7.763   6.659
11918TIP3    H135695   3.455   7.760   6.675
11918TIP3    H235696   3.339   7.675   6.629
11919TIP3   OH235697   7.706   1.499   2.250
11919TIP3    H135698   7.687   1.593   2.256
11919TIP3    H235699   7.768   1.492   2.177
11920TIP3   OH235700   6.509   0.517   0.416
11920TIP3    H135701   6.587   0.468   0.392
11920TIP3    H235702   6.488   0.487   0.504
11921TIP3   OH235703   0.271   5.718   5.080
11921TIP3    H135704   0.189   5.680   5.111
11921TIP3    H235705   0.339   5.665   5.121
11922TIP3   OH235706   6.108   4.044   5.533
11922TIP3    H135707   6.199   4.023   5.516
11922TIP3    H235708   6.069   4.058   5.447
11923TIP3   OH235709   7.638   1.054   3.139
11923TIP3    H135710   7.716   1.101   3.111
11923TIP3    H235711   7.590   1.036   3.058
11924TIP3   OH235712   6.132   1.525   4.214
11924TIP3    H135713   6.147   1.468   4.290
11924TIP3    H235714   6.078   1.596   4.247
11925TIP3   OH235715   1.899   3.582   0.731
11925TIP3    H135716   1.818   3.578   0.680
11925TIP3    H235717   1.871   3.566   0.821
11926TIP3   OH235718   2.694   5.224   5.203
11926TIP3    H135719   2.726   5.310   5.230
11926TIP3    H235720   2.635   5.197   5.273
11927TIP3   OH235721   7.370   4.959   0.759
11927TIP3    H135722   7.375   4.963   0.855
11927TIP3    H235723   7.427   4.885   0.736
11928TIP3   OH235724   0.546   2.133   5.288
11928TIP3    H135725   0.494   2.122   5.208
11928TIP3    H235726   0.506   2.073   5.351
11929TIP3   OH235727   6.159   7.777   0.209
11929TIP3    H135728   6.219   7.702   0.201
11929TIP3    H235729   6.079   7.748   0.164
11930TIP3   OH235730   3.177   6.130   6.494
11930TIP3    H135731   3.123   6.195   6.449
11930TIP3    H235732   3.198   6.065   6.427
11931TIP3   OH235733   2.978   4.920   0.271
11931TIP3    H135734   2.965   4.943   0.179
11931TIP3    H235735   3.071   4.896   0.276
11932TIP3   OH235736   6.793   7.088   2.297
11932TIP3    H135737   6.726   7.152   2.321
11932TIP3    H235738   6.865   7.104   2.357
11933TIP3   OH235739   1.069   1.067   6.039
11933TIP3    H135740   1.159   1.085   6.012
11933TIP3    H235741   1.051   0.980   6.003
11934TIP3   OH235742   4.341   1.048   2.762
11934TIP3    H135743   4.431   1.039   2.729
11934TIP3    H235744   4.350   1.038   2.857
11935TIP3   OH235745   6.573   1.667   1.694
11935TIP3    H135746   6.596   1.591   1.640
11935TIP3    H235747   6.488   1.695   1.660
11936TIP3   OH235748   0.873   4.594   4.968
11936TIP3    H135749   0.819   4.524   5.003
11936TIP3    H235750   0.959   4.581   5.008
11937TIP3   OH235751   3.219   7.398   5.276
11937TIP3    H135752   3.135   7.366   5.242
11937TIP3    H235753   3.284   7.367   5.213
11938TIP3   OH235754   5.455   1.408   1.764
11938TIP3    H135755   5.485   1.391   1.675
11938TIP3    H235756   5.532   1.438   1.811
11939TIP3   OH235757   0.501   5.494   4.915
11939TIP3    H135758   0.431   5.531   4.863
11939TIP3    H235759   0.569   5.561   4.917
11940TIP3   OH235760   4.325   4.462   2.108
11940TIP3    H135761   4.248   4.495   2.062
11940TIP3    H235762   4.395   4.462   2.042
11941TIP3   OH235763   7.988   7.288   6.240
11941TIP3    H135764   8.048   7.231   6.193
11941TIP3    H235765   7.958   7.236   6.315
11942TIP3   OH235766   6.067   5.721   2.346
11942TIP3    H135767   6.076   5.760   2.433
11942TIP3    H235768   6.152   5.737   2.304
11943TIP3   OH235769   7.025   3.469   5.004
11943TIP3    H135770   7.067   3.453   5.089
11943TIP3    H235771   6.947   3.519   5.025
11944TIP3   OH235772   1.015   1.763   1.521
11944TIP3    H135773   1.103   1.795   1.544
11944TIP3    H235774   1.002   1.794   1.431
11945TIP3   OH235775   5.542   3.742   6.852
11945TIP3    H135776   5.534   3.650   6.876
11945TIP3    H235777   5.603   3.742   6.778
11946TIP3   OH235778   3.008   6.013   4.525
11946TIP3    H135779   3.006   5.944   4.460
11946TIP3    H235780   3.041   6.090   4.478
11947TIP3   OH235781   4.240   4.379   3.720
11947TIP3    H135782   4.156   4.394   3.676
11947TIP3    H235783   4.292   4.329   3.656
11948TIP3   OH235784   7.509   0.882   2.166
11948TIP3    H135785   7.507   0.977   2.174
11948TIP3    H235786   7.442   0.851   2.227
11949TIP3   OH235787   6.167   1.147   6.812
11949TIP3    H135788   6.245   1.149   6.757
11949TIP3    H235789   6.094   1.152   6.750
11950TIP3   OH235790   6.292   0.038   6.455
11950TIP3    H135791   6.203   0.040   6.490
11950TIP3    H235792   6.285  -0.013   6.375
11951TIP3   OH235793   1.019   3.147   6.836
11951TIP3    H135794   0.941   3.179   6.791
11951TIP3    H235795   1.022   3.053   6.816
11952TIP3   OH235796   7.388   5.840   5.847
11952TIP3    H135797   7.421   5.753   5.825
11952TIP3    H235798   7.445   5.900   5.801
11953TIP3   OH235799   0.646   6.531   6.182
11953TIP3    H135800   0.631   6.580   6.101
11953TIP3    H235801   0.725   6.479   6.164
11954TIP3   OH235802   7.763   4.031   3.205
11954TIP3    H135803   7.721   4.072   3.280
11954TIP3    H235804   7.711   3.953   3.188
11955TIP3   OH235805   7.285   0.561   5.712
11955TIP3    H135806   7.294   0.642   5.662
11955TIP3    H235807   7.191   0.542   5.710
11956TIP3   OH235808   6.364   4.861   3.070
11956TIP3    H135809   6.413   4.779   3.075
11956TIP3    H235810   6.426   4.928   3.096
11957TIP3   OH235811   7.838   2.046   3.505
11957TIP3    H135812   7.887   2.112   3.553
11957TIP3    H235813   7.750   2.082   3.498
11958TIP3   OH235814   6.374   2.740   3.995
11958TIP3    H135815   6.334   2.770   3.913
11958TIP3    H235816   6.466   2.725   3.974
11959TIP3   OH235817   1.801   6.687   3.747
11959TIP3    H135818   1.736   6.625   3.781
11959TIP3    H235819   1.805   6.756   3.813
11960TIP3   OH235820   5.665   4.111   4.864
11960TIP3    H135821   5.679   4.177   4.931
11960TIP3    H235822   5.753   4.086   4.835
11961TIP3   OH235823   1.002   1.037   6.844
11961TIP3    H135824   0.965   1.082   6.768
11961TIP3    H235825   0.928   0.993   6.885
11962TIP3   OH235826   3.302   1.533   1.363
11962TIP3    H135827   3.351   1.531   1.281
11962TIP3    H235828   3.212   1.555   1.336
11963TIP3   OH235829   6.574   0.066   4.547
11963TIP3    H135830   6.670   0.069   4.553
11963TIP3    H235831   6.552   0.129   4.479
11964TIP3   OH235832   0.591   0.979   2.282
11964TIP3    H135833   0.589   0.892   2.321
11964TIP3    H235834   0.683   1.004   2.284
11965TIP3   OH235835   7.430   5.019   6.471
11965TIP3    H135836   7.463   5.087   6.412
11965TIP3    H235837   7.509   4.978   6.507
11966TIP3   OH235838   1.026   5.598   1.677
11966TIP3    H135839   0.969   5.592   1.754
11966TIP3    H235840   1.012   5.515   1.631
11967TIP3   OH235841   1.647   4.731   0.959
11967TIP3    H135842   1.742   4.722   0.953
11967TIP3    H235843   1.612   4.663   0.902
11968TIP3   OH235844   3.125   0.846   0.429
11968TIP3    H135845   3.174   0.846   0.511
11968TIP3    H235846   3.041   0.806   0.450
11969TIP3   OH235847   7.164   5.886   3.169
11969TIP3    H135848   7.236   5.888   3.232
11969TIP3    H235849   7.182   5.808   3.115
11970TIP3   OH235850   7.623   5.933   4.161
11970TIP3    H135851   7.702   5.953   4.212
11970TIP3    H235852   7.656   5.908   4.075
11971TIP3   OH235853   6.684   6.292   2.859
11971TIP3    H135854   6.744   6.263   2.928
11971TIP3    H235855   6.691   6.225   2.791
11972TIP3   OH235856   7.028   0.168   1.819
11972TIP3    H135857   7.051   0.207   1.903
11972TIP3    H235858   7.102   0.111   1.797
11973TIP3   OH235859   7.064   4.681   0.687
11973TIP3    H135860   7.104   4.689   0.773
11973TIP3    H235861   7.063   4.770   0.652
11974TIP3   OH235862   0.424   1.606   5.607
11974TIP3    H135863   0.333   1.603   5.576
11974TIP3    H235864   0.459   1.520   5.587
11975TIP3   OH235865   5.858   6.101   2.507
11975TIP3    H135866   5.924   6.090   2.575
11975TIP3    H235867   5.863   6.020   2.455
11976TIP3   OH235868   6.120   0.973   6.330
11976TIP3    H135869   6.058   0.968   6.257
11976TIP3    H235870   6.163   1.058   6.319
11977TIP3   OH235871   4.398   2.777   5.165
11977TIP3    H135872   4.391   2.872   5.156
11977TIP3    H235873   4.472   2.764   5.224
11978TIP3   OH235874   2.526   4.480   2.438
11978TIP3    H135875   2.543   4.547   2.504
11978TIP3    H235876   2.601   4.420   2.443
11979TIP3   OH235877   5.540   6.199   2.911
11979TIP3    H135878   5.634   6.212   2.921
11979TIP3    H235879   5.503   6.227   2.994
11980TIP3   OH235880   3.066   5.133   5.921
11980TIP3    H135881   3.064   5.218   5.966
11980TIP3    H235882   3.145   5.090   5.953
11981TIP3   OH235883   3.678   5.433   1.870
11981TIP3    H135884   3.760   5.476   1.895
11981TIP3    H235885   3.679   5.351   1.920
11982TIP3   OH235886   0.399   3.203   1.856
11982TIP3    H135887   0.450   3.128   1.825
11982TIP3    H235888   0.450   3.279   1.829
11983TIP3   OH235889   6.373   5.474   2.110
11983TIP3    H135890   6.410   5.511   2.030
11983TIP3    H235891   6.279   5.466   2.092
11984TIP3   OH235892   2.840   4.447   3.607
11984TIP3    H135893   2.930   4.430   3.637
11984TIP3    H235894   2.792   4.368   3.631
11985TIP3   OH235895   2.960   0.109   2.351
11985TIP3    H135896   2.888   0.075   2.403
11985TIP3    H235897   2.923   0.123   2.264
11986TIP3   OH235898   0.841   6.512   5.058
11986TIP3    H135899   0.880   6.458   4.989
11986TIP3    H235900   0.887   6.595   5.052
11987TIP3   OH235901   5.546   6.744   4.664
11987TIP3    H135902   5.521   6.793   4.742
11987TIP3    H235903   5.629   6.702   4.688
11988TIP3   OH235904   7.625   3.329   5.797
11988TIP3    H135905   7.678   3.371   5.730
11988TIP3    H235906   7.663   3.243   5.809
11989TIP3   OH235907   5.078   1.828   5.525
11989TIP3    H135908   5.160   1.867   5.556
11989TIP3    H235909   5.084   1.736   5.550
11990TIP3   OH235910   8.113   5.704   5.721
11990TIP3    H135911   8.054   5.637   5.757
11990TIP3    H235912   8.062   5.747   5.653
11991TIP3   OH235913   3.497   4.180   0.773
11991TIP3    H135914   3.591   4.170   0.789
11991TIP3    H235915   3.456   4.165   0.858
11992TIP3   OH235916   2.152   4.441   1.223
11992TIP3    H135917   2.118   4.352   1.224
11992TIP3    H235918   2.075   4.497   1.218
11993TIP3   OH235919   7.222   4.401   1.564
11993TIP3    H135920   7.254   4.311   1.570
11993TIP3    H235921   7.201   4.425   1.655
11994TIP3   OH235922   6.940   5.935   3.400
11994TIP3    H135923   6.935   6.015   3.454
11994TIP3    H235924   6.879   5.874   3.442
11995TIP3   OH235925   4.081   7.521   2.230
11995TIP3    H135926   4.081   7.512   2.134
11995TIP3    H235927   4.091   7.615   2.245
11996TIP3   OH235928   8.426   2.209   0.026
11996TIP3    H135929   8.354   2.262   0.058
11996TIP3    H235930   8.393   2.167  -0.053
11997TIP3   OH235931   7.148   0.950   5.333
11997TIP3    H135932   7.080   0.895   5.371
11997TIP3    H235933   7.133   1.036   5.371
11998TIP3   OH235934   3.000   7.010   5.699
11998TIP3    H135935   3.045   6.946   5.755
11998TIP3    H235936   2.948   6.956   5.639
11999TIP3   OH235937   5.288   6.264   3.837
11999TIP3    H135938   5.229   6.211   3.890
11999TIP3    H235939   5.280   6.353   3.872
12000TIP3   OH235940   4.207   1.076   2.172
12000TIP3    H135941   4.258   1.010   2.219
12000TIP3    H235942   4.260   1.098   2.096
12001TIP3   OH235943   5.811   3.009   4.711
12001TIP3    H135944   5.783   3.015   4.802
12001TIP3    H235945   5.872   3.082   4.700
12002TIP3   OH235946   4.237   5.485   6.303
12002TIP3    H135947   4.250   5.578   6.324
12002TIP3    H235948   4.208   5.485   6.212
12003TIP3   OH235949   7.749   6.181   1.917
12003TIP3    H135950   7.664   6.202   1.956
12003TIP3    H235951   7.802   6.149   1.989
12004TIP3   OH235952   0.500   7.227   3.941
12004TIP3    H135953   0.571   7.291   3.937
12004TIP3    H235954   0.435   7.268   3.998
12005TIP3   OH235955   1.438   6.234   3.875
12005TIP3    H135956   1.490   6.292   3.932
12005TIP3    H235957   1.439   6.278   3.790
12006TIP3   OH235958   2.337   5.268   6.520
12006TIP3    H135959   2.415   5.241   6.569
12006TIP3    H235960   2.359   5.248   6.429
12007TIP3   OH235961   1.228   5.041   4.525
12007TIP3    H135962   1.223   5.136   4.518
12007TIP3    H235963   1.189   5.009   4.444
12008TIP3   OH235964   6.775   0.745   5.547
12008TIP3    H135965   6.689   0.714   5.519
12008TIP3    H235966   6.766   0.841   5.549
12009TIP3   OH235967   7.812   4.728   1.092
12009TIP3    H135968   7.833   4.807   1.043
12009TIP3    H235969   7.735   4.751   1.144
12010TIP3   OH235970   1.667   3.134   2.724
12010TIP3    H135971   1.698   3.043   2.717
12010TIP3    H235972   1.694   3.162   2.811
12011TIP3   OH235973   6.316   2.988   5.932
12011TIP3    H135974   6.278   2.900   5.927
12011TIP3    H235975   6.388   2.986   5.868
12012TIP3   OH235976   6.988   4.190   2.341
12012TIP3    H135977   6.960   4.138   2.266
12012TIP3    H235978   7.024   4.127   2.403
12013TIP3   OH235979   1.643   4.513   4.804
12013TIP3    H135980   1.709   4.445   4.784
12013TIP3    H235981   1.608   4.487   4.889
12014TIP3   OH235982   1.897   4.797   0.884
12014TIP3    H135983   1.923   4.811   0.793
12014TIP3    H235984   1.980   4.792   0.932
12015TIP3   OH235985   4.840   6.729   2.445
12015TIP3    H135986   4.835   6.657   2.382
12015TIP3    H235987   4.834   6.808   2.392
12016TIP3   OH235988   5.771   0.564   3.696
12016TIP3    H135989   5.680   0.563   3.727
12016TIP3    H235990   5.799   0.473   3.701
12017TIP3   OH235991   5.266   3.025   1.378
12017TIP3    H135992   5.343   3.054   1.329
12017TIP3    H235993   5.232   2.952   1.326
12018TIP3   OH235994   4.792   1.678   3.289
12018TIP3    H135995   4.843   1.611   3.334
12018TIP3    H235996   4.821   1.761   3.327
12019TIP3   OH235997   5.155   2.590   2.250
12019TIP3    H135998   5.166   2.503   2.212
12019TIP3    H235999   5.150   2.574   2.344
12020TIP3   OH236000   5.670   0.157   5.255
12020TIP3    H136001   5.574   0.154   5.259
12020TIP3    H236002   5.689   0.223   5.188
12021TIP3   OH236003   3.007   1.990   2.506
12021TIP3    H136004   2.929   1.994   2.560
12021TIP3    H236005   3.077   1.963   2.566
12022TIP3   OH236006   5.478   0.369   0.358
12022TIP3    H136007   5.562   0.345   0.318
12022TIP3    H236008   5.415   0.308   0.319
12023TIP3   OH236009   7.065   1.912   2.560
12023TIP3    H136010   7.087   1.830   2.516
12023TIP3    H236011   6.976   1.933   2.530
12024TIP3   OH236012   2.465   1.778   5.873
12024TIP3    H136013   2.374   1.786   5.844
12024TIP3    H236014   2.469   1.831   5.953
12025TIP3   OH236015   2.233   4.539   0.735
12025TIP3    H136016   2.158   4.497   0.776
12025TIP3    H236017   2.286   4.571   0.808
12026TIP3   OH236018   1.551   4.960   3.157
12026TIP3    H136019   1.572   4.988   3.068
12026TIP3    H236020   1.490   5.026   3.190
12027TIP3   OH236021   1.635   4.124   0.510
12027TIP3    H136022   1.588   4.046   0.481
12027TIP3    H236023   1.710   4.131   0.452
12028TIP3   OH236024   5.736   3.732   1.149
12028TIP3    H136025   5.775   3.645   1.159
12028TIP3    H236026   5.644   3.714   1.130
12029TIP3   OH236027   4.233   4.187   0.762
12029TIP3    H136028   4.245   4.255   0.828
12029TIP3    H236029   4.322   4.161   0.737
12030TIP3   OH236030   6.696   5.625   1.341
12030TIP3    H136031   6.752   5.552   1.314
12030TIP3    H236032   6.757   5.697   1.356
12031TIP3   OH236033   0.258   6.281   6.603
12031TIP3    H136034   0.276   6.244   6.516
12031TIP3    H236035   0.176   6.329   6.592
12032TIP3   OH236036   6.501   5.248   0.340
12032TIP3    H136037   6.583   5.258   0.291
12032TIP3    H236038   6.492   5.330   0.389
12033TIP3   OH236039   3.532   5.480   3.200
12033TIP3    H136040   3.479   5.479   3.120
12033TIP3    H236041   3.507   5.401   3.247
12034TIP3   OH236042   0.759   0.872   4.795
12034TIP3    H136043   0.737   0.913   4.878
12034TIP3    H236044   0.741   0.779   4.808
12035TIP3   OH236045   4.265   6.781   2.326
12035TIP3    H136046   4.174   6.755   2.315
12035TIP3    H236047   4.280   6.847   2.259
12036TIP3   OH236048   1.811   2.149   3.353
12036TIP3    H136049   1.904   2.127   3.361
12036TIP3    H236050   1.770   2.110   3.430
12037TIP3   OH236051   3.956   1.720   4.590
12037TIP3    H136052   4.033   1.743   4.539
12037TIP3    H236053   3.895   1.683   4.527
12038TIP3   OH236054   5.502   1.145   6.610
12038TIP3    H136055   5.587   1.101   6.602
12038TIP3    H236056   5.517   1.233   6.577
12039TIP3   OH236057   4.419   7.235   2.140
12039TIP3    H136058   4.395   7.267   2.054
12039TIP3    H236059   4.347   7.177   2.165
12040TIP3   OH236060   7.163   2.793   1.309
12040TIP3    H136061   7.086   2.739   1.321
12040TIP3    H236062   7.236   2.730   1.304
12041TIP3   OH236063   4.436   2.848   6.419
12041TIP3    H136064   4.511   2.891   6.379
12041TIP3    H236065   4.462   2.756   6.427
12042TIP3   OH236066   5.027   7.672   6.546
12042TIP3    H136067   5.025   7.663   6.642
12042TIP3    H236068   5.105   7.724   6.528
12043TIP3   OH236069   6.865   0.712   0.479
12043TIP3    H136070   6.843   0.676   0.393
12043TIP3    H236071   6.921   0.645   0.519
12044TIP3   OH236072   0.952   5.773   1.494
12044TIP3    H136073   0.957   5.864   1.524
12044TIP3    H236074   1.010   5.725   1.553
12045TIP3   OH236075   5.553   6.422   3.575
12045TIP3    H136076   5.528   6.451   3.663
12045TIP3    H236077   5.568   6.328   3.584
12046TIP3   OH236078   5.901   3.010   1.832
12046TIP3    H136079   5.990   2.976   1.821
12046TIP3    H236080   5.875   2.982   1.919
12047TIP3   OH236081   5.075   2.938   6.390
12047TIP3    H136082   5.070   3.032   6.409
12047TIP3    H236083   5.153   2.929   6.335
12048TIP3   OH236084   7.744   4.335   0.360
12048TIP3    H136085   7.836   4.354   0.377
12048TIP3    H236086   7.745   4.269   0.290
12049TIP3   OH236087   7.464   0.500   3.019
12049TIP3    H136088   7.416   0.421   2.994
12049TIP3    H236089   7.556   0.478   3.003
12050TIP3   OH236090   4.779   0.667   3.162
12050TIP3    H136091   4.787   0.658   3.257
12050TIP3    H236092   4.750   0.580   3.132
12051TIP3   OH236093   3.845   1.639   4.351
12051TIP3    H136094   3.891   1.556   4.347
12051TIP3    H236095   3.831   1.664   4.259
12052TIP3   OH236096   7.476   3.503   0.801
12052TIP3    H136097   7.513   3.437   0.860
12052TIP3    H236098   7.550   3.560   0.780
12053TIP3   OH236099   7.872   7.333   5.378
12053TIP3    H136100   7.831   7.279   5.310
12053TIP3    H236101   7.911   7.270   5.439
12054TIP3   OH236102   3.978   5.380   3.397
12054TIP3    H136103   3.897   5.429   3.380
12054TIP3    H236104   3.982   5.373   3.493
12055TIP3   OH236105   0.041   7.171   2.175
12055TIP3    H136106  -0.015   7.203   2.106
12055TIP3    H236107   0.004   7.207   2.256
12056TIP3   OH236108   6.540   5.787   5.461
12056TIP3    H136109   6.523   5.712   5.405
12056TIP3    H236110   6.611   5.759   5.518
12057TIP3   OH236111   1.573   3.301   0.915
12057TIP3    H136112   1.602   3.281   1.004
12057TIP3    H236113   1.594   3.223   0.865
12058TIP3   OH236114   6.163   5.138   5.944
12058TIP3    H136115   6.212   5.094   5.874
12058TIP3    H236116   6.146   5.226   5.909
12059TIP3   OH236117   6.039   2.514   0.108
12059TIP3    H136118   6.028   2.592   0.161
12059TIP3    H236119   5.959   2.463   0.121
12060TIP3   OH236120   4.832   4.189   6.284
12060TIP3    H136121   4.845   4.110   6.231
12060TIP3    H236122   4.917   4.233   6.284
12061TIP3   OH236123   8.350   3.289   0.503
12061TIP3    H136124   8.289   3.220   0.527
12061TIP3    H236125   8.342   3.355   0.572
12062TIP3   OH236126   2.434   3.949   3.115
12062TIP3    H136127   2.354   3.897   3.108
12062TIP3    H236128   2.484   3.907   3.184
12063TIP3   OH236129   7.760   1.304   5.976
12063TIP3    H136130   7.694   1.279   6.041
12063TIP3    H236131   7.796   1.386   6.009
12064TIP3   OH236132   8.144   1.145   4.706
12064TIP3    H136133   8.140   1.225   4.758
12064TIP3    H236134   8.161   1.076   4.770
12065TIP3   OH236135   0.070   1.577   2.470
12065TIP3    H136136   0.056   1.628   2.550
12065TIP3    H236137  -0.007   1.597   2.416
12066TIP3   OH236138   4.302   6.330   1.360
12066TIP3    H136139   4.232   6.393   1.376
12066TIP3    H236140   4.329   6.301   1.447
12067TIP3   OH236141   1.318   3.422   1.348
12067TIP3    H136142   1.403   3.390   1.318
12067TIP3    H236143   1.264   3.421   1.269
12068TIP3   OH236144   4.037   0.269   1.093
12068TIP3    H136145   4.035   0.244   1.001
12068TIP3    H236146   3.977   0.344   1.099
12069TIP3   OH236147   7.031   7.116   3.917
12069TIP3    H136148   7.031   7.031   3.961
12069TIP3    H236149   6.976   7.104   3.840
12070TIP3   OH236150   4.527   2.974   1.674
12070TIP3    H136151   4.569   2.996   1.757
12070TIP3    H236152   4.591   3.001   1.607
12071TIP3   OH236153   2.729   0.314   1.640
12071TIP3    H136154   2.761   0.236   1.594
12071TIP3    H236155   2.744   0.386   1.579
12072TIP3   OH236156   6.084   2.677   1.222
12072TIP3    H136157   6.043   2.764   1.223
12072TIP3    H236158   6.020   2.620   1.181
12073TIP3   OH236159   5.220   2.138   3.547
12073TIP3    H136160   5.216   2.087   3.628
12073TIP3    H236161   5.146   2.199   3.554
12074TIP3   OH236162   0.172   4.818   0.953
12074TIP3    H136163   0.121   4.848   0.877
12074TIP3    H236164   0.107   4.799   1.020
12075TIP3   OH236165   3.066   5.713   4.103
12075TIP3    H136166   3.079   5.650   4.032
12075TIP3    H236167   3.007   5.779   4.066
12076TIP3   OH236168   8.152   5.021   6.736
12076TIP3    H136169   8.179   4.984   6.651
12076TIP3    H236170   8.080   4.966   6.764
12077TIP3   OH236171   7.285   0.310   3.287
12077TIP3    H136172   7.264   0.236   3.344
12077TIP3    H236173   7.352   0.276   3.227
12078TIP3   OH236174   1.350   5.891   0.854
12078TIP3    H136175   1.320   5.946   0.781
12078TIP3    H236176   1.279   5.829   0.868
12079TIP3   OH236177   7.111   0.058   0.261
12079TIP3    H136178   7.123   0.149   0.290
12079TIP3    H236179   7.168   0.007   0.319
12080TIP3   OH236180   2.944   3.534   3.303
12080TIP3    H136181   2.966   3.591   3.230
12080TIP3    H236182   2.849   3.526   3.301
12081TIP3   OH236183   3.691   7.548   4.327
12081TIP3    H136184   3.723   7.592   4.406
12081TIP3    H236185   3.659   7.619   4.272
12082TIP3   OH236186   0.521   3.356   1.102
12082TIP3    H136187   0.574   3.397   1.034
12082TIP3    H236188   0.582   3.344   1.175
12083TIP3   OH236189   0.751   1.837   2.962
12083TIP3    H136190   0.824   1.776   2.968
12083TIP3    H236191   0.790   1.918   2.928
12084TIP3   OH236192   5.884   6.938   3.957
12084TIP3    H136193   5.822   6.893   3.900
12084TIP3    H236194   5.873   7.031   3.935
12085TIP3   OH236195   7.980   2.020   2.286
12085TIP3    H136196   8.064   2.059   2.310
12085TIP3    H236197   7.979   1.936   2.332
12086TIP3   OH236198   2.618   7.408   6.607
12086TIP3    H136199   2.697   7.389   6.659
12086TIP3    H236200   2.567   7.467   6.662
12087TIP3   OH236201   4.576   3.452   0.482
12087TIP3    H136202   4.667   3.469   0.507
12087TIP3    H236203   4.566   3.357   0.495
12088TIP3   OH236204   0.309   0.650   5.214
12088TIP3    H136205   0.371   0.586   5.249
12088TIP3    H236206   0.264   0.684   5.291
12089TIP3   OH236207   2.336   5.886   5.867
12089TIP3    H136208   2.288   5.966   5.889
12089TIP3    H236209   2.428   5.910   5.874
12090TIP3   OH236210   7.207   5.976   0.219
12090TIP3    H136211   7.221   5.907   0.284
12090TIP3    H236212   7.238   5.937   0.136
12091TIP3   OH236213   3.417   0.941   4.468
12091TIP3    H136214   3.392   0.991   4.545
12091TIP3    H236215   3.512   0.929   4.477
12092TIP3   OH236216   7.248   5.229   5.240
12092TIP3    H136217   7.226   5.205   5.330
12092TIP3    H236218   7.232   5.150   5.189
12093TIP3   OH236219   1.287   5.787   3.601
12093TIP3    H136220   1.310   5.877   3.623
12093TIP3    H236221   1.272   5.788   3.507
12094TIP3   OH236222   6.336   1.800   5.936
12094TIP3    H136223   6.282   1.726   5.908
12094TIP3    H236224   6.344   1.854   5.857
12095TIP3   OH236225   3.479   2.880   3.075
12095TIP3    H136226   3.405   2.879   3.136
12095TIP3    H236227   3.477   2.968   3.036
12096TIP3   OH236228   3.853   7.304   3.582
12096TIP3    H136229   3.850   7.300   3.678
12096TIP3    H236230   3.821   7.392   3.561
12097TIP3   OH236231   4.675   6.648   1.147
12097TIP3    H136232   4.594   6.657   1.196
12097TIP3    H236233   4.742   6.684   1.206
12098TIP3   OH236234   5.997   0.155   0.463
12098TIP3    H136235   5.919   0.100   0.464
12098TIP3    H236236   6.070   0.093   0.457
12099TIP3   OH236237   6.420   2.030   2.435
12099TIP3    H136238   6.387   2.077   2.512
12099TIP3    H236239   6.487   2.088   2.399
12100TIP3   OH236240   8.006   5.297   6.787
12100TIP3    H136241   8.009   5.312   6.881
12100TIP3    H236242   8.040   5.209   6.775
12101TIP3   OH236243   2.013   3.774   5.128
12101TIP3    H136244   2.018   3.745   5.037
12101TIP3    H236245   1.931   3.737   5.161
12102TIP3   OH236246   4.716   3.722   5.883
12102TIP3    H136247   4.684   3.796   5.832
12102TIP3    H236248   4.757   3.664   5.818
12103TIP3   OH236249   3.521   0.002   5.547
12103TIP3    H136250   3.444  -0.010   5.492
12103TIP3    H236251   3.587   0.038   5.487
12104TIP3   OH236252   6.056   1.302   4.856
12104TIP3    H136253   6.139   1.278   4.897
12104TIP3    H236254   6.019   1.219   4.826
12105TIP3   OH236255   4.557   6.193   0.143
12105TIP3    H136256   4.608   6.267   0.178
12105TIP3    H236257   4.478   6.234   0.108
12106TIP3   OH236258   3.143   3.388   4.693
12106TIP3    H136259   3.199   3.320   4.655
12106TIP3    H236260   3.199   3.433   4.756
12107TIP3   OH236261   5.293   4.498   4.699
12107TIP3    H136262   5.227   4.484   4.767
12107TIP3    H236263   5.316   4.410   4.669
12108TIP3   OH236264   0.761   5.171   4.795
12108TIP3    H136265   0.788   5.175   4.703
12108TIP3    H236266   0.676   5.214   4.797
12109TIP3   OH236267   5.922   3.599   3.475
12109TIP3    H136268   5.874   3.594   3.558
12109TIP3    H236269   5.915   3.691   3.449
12110TIP3   OH236270   1.785   5.535   3.424
12110TIP3    H136271   1.810   5.448   3.393
12110TIP3    H236272   1.796   5.530   3.519
12111TIP3   OH236273   3.622   5.976   6.282
12111TIP3    H136274   3.701   5.924   6.296
12111TIP3    H236275   3.559   5.914   6.244
12112TIP3   OH236276   3.508   2.144   1.409
12112TIP3    H136277   3.591   2.171   1.450
12112TIP3    H236278   3.449   2.218   1.423
12113TIP3   OH236279   4.125   2.297   4.018
12113TIP3    H136280   4.032   2.307   3.995
12113TIP3    H236281   4.131   2.329   4.108
12114TIP3   OH236282   7.667   3.413   1.802
12114TIP3    H136283   7.661   3.484   1.739
12114TIP3    H236284   7.743   3.434   1.856
12115TIP3   OH236285   0.537   6.017   0.190
12115TIP3    H136286   0.593   6.022   0.268
12115TIP3    H236287   0.597   6.026   0.116
12116TIP3   OH236288   1.707   4.090   5.027
12116TIP3    H136289   1.625   4.118   5.067
12116TIP3    H236290   1.755   4.047   5.098
12117TIP3   OH236291   0.178   5.132   2.916
12117TIP3    H136292   0.116   5.197   2.951
12117TIP3    H236293   0.144   5.112   2.829
12118TIP3   OH236294   3.182   6.344   2.451
12118TIP3    H136295   3.240   6.387   2.515
12118TIP3    H236296   3.096   6.345   2.493
12119TIP3   OH236297   7.325   0.110   1.130
12119TIP3    H136298   7.329   0.144   1.040
12119TIP3    H236299   7.386   0.165   1.179
12120TIP3   OH236300   2.824   7.767   0.793
12120TIP3    H136301   2.791   7.853   0.768
12120TIP3    H236302   2.918   7.779   0.805
12121TIP3   OH236303   5.306   6.264   5.117
12121TIP3    H136304   5.382   6.215   5.086
12121TIP3    H236305   5.237   6.244   5.053
12122TIP3   OH236306   0.274   1.680   1.508
12122TIP3    H136307   0.286   1.607   1.569
12122TIP3    H236308   0.276   1.640   1.421
12123TIP3   OH236309   8.272   5.094   1.475
12123TIP3    H136310   8.225   5.125   1.553
12123TIP3    H236311   8.259   5.163   1.410
12124TIP3   OH236312   1.116   0.310   4.635
12124TIP3    H136313   1.094   0.225   4.597
12124TIP3    H236314   1.210   0.304   4.652
12125TIP3   OH236315   2.072   4.283   2.605
12125TIP3    H136316   2.119   4.255   2.683
12125TIP3    H236317   2.084   4.212   2.543
12126TIP3   OH236318   1.237   3.530   3.580
12126TIP3    H136319   1.204   3.461   3.522
12126TIP3    H236320   1.198   3.610   3.547
12127TIP3   OH236321   3.369   7.107   4.307
12127TIP3    H136322   3.362   7.027   4.255
12127TIP3    H236323   3.461   7.111   4.332
12128TIP3   OH236324   0.583   5.110   5.820
12128TIP3    H136325   0.566   5.114   5.914
12128TIP3    H236326   0.522   5.043   5.787
12129TIP3   OH236327   0.073   1.141   0.842
12129TIP3    H136328   0.168   1.140   0.847
12129TIP3    H236329   0.053   1.102   0.756
12130TIP3   OH236330   4.027   4.529   0.647
12130TIP3    H136331   4.042   4.510   0.740
12130TIP3    H236332   4.115   4.545   0.612
12131TIP3   OH236333   8.265   0.465   4.818
12131TIP3    H136334   8.347   0.495   4.857
12131TIP3    H236335   8.292   0.413   4.742
12132TIP3   OH236336   1.759   2.874   2.615
12132TIP3    H136337   1.765   2.784   2.647
12132TIP3    H236338   1.850   2.900   2.600
12133TIP3   OH236339   4.820   3.033   5.604
12133TIP3    H136340   4.885   3.096   5.635
12133TIP3    H236341   4.870   2.952   5.592
12134TIP3   OH236342   0.759   1.618   4.383
12134TIP3    H136343   0.784   1.651   4.469
12134TIP3    H236344   0.739   1.696   4.332
12135TIP3   OH236345   5.681   1.472   2.137
12135TIP3    H136346   5.614   1.465   2.205
12135TIP3    H236347   5.758   1.429   2.175
12136TIP3   OH236348   0.099   0.522   4.949
12136TIP3    H136349   0.191   0.548   4.941
12136TIP3    H236350   0.094   0.481   5.035
12137TIP3   OH236351   0.410   6.801   0.594
12137TIP3    H136352   0.384   6.751   0.672
12137TIP3    H236353   0.373   6.888   0.608
12138TIP3   OH236354   6.408   6.506   4.926
12138TIP3    H136355   6.402   6.543   5.014
12138TIP3    H236356   6.465   6.566   4.879
12139TIP3   OH236357   3.695   6.700   2.365
12139TIP3    H136358   3.604   6.730   2.359
12139TIP3    H236359   3.713   6.698   2.459
12140TIP3   OH236360   4.287   6.695   6.152
12140TIP3    H136361   4.257   6.621   6.204
12140TIP3    H236362   4.215   6.758   6.154
12141TIP3   OH236363   6.759   6.804   1.185
12141TIP3    H136364   6.851   6.831   1.193
12141TIP3    H236365   6.715   6.881   1.148
12142TIP3   OH236366   1.728   5.799   6.006
12142TIP3    H136367   1.733   5.893   5.987
12142TIP3    H236368   1.800   5.761   5.957
12143TIP3   OH236369   7.879   6.200   3.958
12143TIP3    H136370   7.954   6.233   3.908
12143TIP3    H236371   7.916   6.171   4.041
12144TIP3   OH236372   3.987   0.417   1.646
12144TIP3    H136373   3.943   0.447   1.567
12144TIP3    H236374   4.080   0.428   1.628
12145TIP3   OH236375   5.455   2.376   2.356
12145TIP3    H136376   5.466   2.326   2.275
12145TIP3    H236377   5.378   2.338   2.398
12146TIP3   OH236378   0.525   6.393   4.768
12146TIP3    H136379   0.497   6.312   4.810
12146TIP3    H236380   0.535   6.455   4.839
12147TIP3   OH236381   4.689   4.871   3.297
12147TIP3    H136382   4.774   4.847   3.260
12147TIP3    H236383   4.632   4.880   3.220
12148TIP3   OH236384   5.759   6.515   2.345
12148TIP3    H136385   5.720   6.600   2.361
12148TIP3    H236386   5.845   6.534   2.309
12149TIP3   OH236387   5.514   4.460   3.683
12149TIP3    H136388   5.583   4.431   3.624
12149TIP3    H236389   5.536   4.550   3.704
12150TIP3   OH236390   6.732   0.798   6.522
12150TIP3    H136391   6.652   0.774   6.475
12150TIP3    H236392   6.794   0.728   6.502
12151TIP3   OH236393   5.214   7.755   0.460
12151TIP3    H136394   5.184   7.721   0.544
12151TIP3    H236395   5.241   7.677   0.411
12152TIP3   OH236396   6.764   1.127   0.858
12152TIP3    H136397   6.833   1.134   0.924
12152TIP3    H236398   6.725   1.214   0.855
12153TIP3   OH236399   4.888   1.536   1.223
12153TIP3    H136400   4.877   1.617   1.272
12153TIP3    H236401   4.799   1.504   1.207
12154TIP3   OH236402   0.076   5.744   0.336
12154TIP3    H136403   0.148   5.752   0.273
12154TIP3    H236404   0.004   5.790   0.294
12155TIP3   OH236405   6.908   5.746   3.676
12155TIP3    H136406   7.000   5.769   3.670
12155TIP3    H236407   6.908   5.657   3.712
12156TIP3   OH236408   4.869   7.717   4.904
12156TIP3    H136409   4.898   7.720   4.996
12156TIP3    H236410   4.791   7.661   4.905
12157TIP3   OH236411   1.558   0.096   5.245
12157TIP3    H136412   1.613   0.155   5.195
12157TIP3    H236413   1.492   0.065   5.183
12158TIP3   OH236414   0.222   4.229   2.771
12158TIP3    H136415   0.287   4.290   2.737
12158TIP3    H236416   0.184   4.189   2.693
12159TIP3   OH236417   2.502   7.702   6.589
12159TIP3    H136418   2.549   7.694   6.673
12159TIP3    H236419   2.458   7.787   6.595
12160TIP3   OH236420   3.667   4.791   3.878
12160TIP3    H136421   3.697   4.709   3.839
12160TIP3    H236422   3.695   4.786   3.969
12161TIP3   OH236423   0.175   2.751   5.481
12161TIP3    H136424   0.242   2.761   5.414
12161TIP3    H236425   0.104   2.705   5.436
12162TIP3   OH236426   0.832   2.409   3.857
12162TIP3    H136427   0.876   2.385   3.775
12162TIP3    H236428   0.768   2.476   3.832
12163TIP3   OH236429   1.260   7.437   4.042
12163TIP3    H136430   1.353   7.419   4.029
12163TIP3    H236431   1.228   7.364   4.095
12164TIP3   OH236432   2.978   7.655   6.260
12164TIP3    H136433   3.054   7.597   6.265
12164TIP3    H236434   2.912   7.612   6.314
12165TIP3   OH236435   2.013   2.923   0.923
12165TIP3    H136436   1.981   2.961   0.841
12165TIP3    H236437   2.004   2.993   0.987
12166TIP3   OH236438   2.829   5.122   1.576
12166TIP3    H136439   2.915   5.165   1.574
12166TIP3    H236440   2.793   5.144   1.662
12167TIP3   OH236441   0.585   3.723   1.853
12167TIP3    H136442   0.571   3.801   1.800
12167TIP3    H236443   0.677   3.701   1.839
12168TIP3   OH236444   0.708   2.157   3.438
12168TIP3    H136445   0.684   2.067   3.461
12168TIP3    H236446   0.687   2.164   3.345
12169TIP3   OH236447   7.630   7.765   5.980
12169TIP3    H136448   7.577   7.744   6.057
12169TIP3    H236449   7.606   7.855   5.959
12170TIP3   OH236450   2.878   0.528   3.940
12170TIP3    H136451   2.961   0.549   3.898
12170TIP3    H236452   2.893   0.548   4.033
12171TIP3   OH236453   7.779   4.902   0.094
12171TIP3    H136454   7.841   4.889   0.166
12171TIP3    H236455   7.793   4.827   0.037
12172TIP3   OH236456   2.942   2.743   6.835
12172TIP3    H136457   2.977   2.756   6.747
12172TIP3    H236458   2.968   2.654   6.858
12173TIP3   OH236459   1.223   1.808   5.118
12173TIP3    H136460   1.296   1.812   5.057
12173TIP3    H236461   1.145   1.826   5.065
12174TIP3   OH236462   4.443   3.998   2.418
12174TIP3    H136463   4.372   4.058   2.443
12174TIP3    H236464   4.440   3.929   2.484
12175TIP3   OH236465   4.164   1.174   3.784
12175TIP3    H136466   4.230   1.160   3.851
12175TIP3    H236467   4.132   1.086   3.763
12176TIP3   OH236468   4.181   5.609   4.535
12176TIP3    H136469   4.182   5.613   4.440
12176TIP3    H236470   4.088   5.617   4.558
12177TIP3   OH236471   4.540   4.503   2.261
12177TIP3    H136472   4.549   4.599   2.263
12177TIP3    H236473   4.454   4.488   2.223
12178TIP3   OH236474   5.107   3.221   2.224
12178TIP3    H136475   5.029   3.275   2.211
12178TIP3    H236476   5.075   3.142   2.267
12179TIP3   OH236477   3.571   2.166   2.619
12179TIP3    H136478   3.641   2.153   2.682
12179TIP3    H236479   3.612   2.153   2.534
12180TIP3   OH236480   1.397   7.549   2.665
12180TIP3    H136481   1.384   7.464   2.707
12180TIP3    H236482   1.403   7.611   2.738
12181TIP3   OH236483   8.058   4.897   5.189
12181TIP3    H136484   8.126   4.830   5.196
12181TIP3    H236485   8.105   4.977   5.166
12182TIP3   OH236486   7.708   2.503   6.199
12182TIP3    H136487   7.714   2.579   6.256
12182TIP3    H236488   7.789   2.504   6.148
12183TIP3   OH236489   4.699   1.450   3.507
12183TIP3    H136490   4.707   1.414   3.418
12183TIP3    H236491   4.777   1.419   3.552
12184TIP3   OH236492   6.313   4.108   2.457
12184TIP3    H136493   6.347   4.070   2.376
12184TIP3    H236494   6.282   4.033   2.507
12185TIP3   OH236495   2.719   6.990   5.979
12185TIP3    H136496   2.765   6.910   6.005
12185TIP3    H236497   2.688   7.028   6.061
12186TIP3   OH236498   4.497   7.675   2.606
12186TIP3    H136499   4.553   7.746   2.639
12186TIP3    H236500   4.491   7.690   2.512
12187TIP3   OH236501   6.384   7.516   1.795
12187TIP3    H136502   6.307   7.475   1.834
12187TIP3    H236503   6.457   7.488   1.851
12188TIP3   OH236504   3.094   0.558   2.872
12188TIP3    H136505   3.147   0.500   2.818
12188TIP3    H236506   3.107   0.526   2.961
12189TIP3   OH236507   5.232   7.128   1.249
12189TIP3    H136508   5.224   7.192   1.178
12189TIP3    H236509   5.222   7.179   1.329
12190TIP3   OH236510   7.388   7.106   3.648
12190TIP3    H136511   7.373   7.138   3.737
12190TIP3    H236512   7.431   7.179   3.604
12191TIP3   OH236513   4.203   1.886   1.751
12191TIP3    H136514   4.225   1.793   1.740
12191TIP3    H236515   4.178   1.895   1.843
12192TIP3   OH236516   2.744   3.455   5.901
12192TIP3    H136517   2.754   3.449   5.806
12192TIP3    H236518   2.833   3.446   5.935
12193TIP3   OH236519   8.365   5.150   6.136
12193TIP3    H136520   8.432   5.098   6.092
12193TIP3    H236521   8.379   5.132   6.229
12194TIP3   OH236522   4.959   6.435   1.594
12194TIP3    H136523   5.005   6.354   1.614
12194TIP3    H236524   4.974   6.491   1.670
12195TIP3   OH236525   4.461   1.913   4.211
12195TIP3    H136526   4.532   1.965   4.172
12195TIP3    H236527   4.396   1.904   4.141
12196TIP3   OH236528   2.030   2.717   5.841
12196TIP3    H136529   2.075   2.769   5.775
12196TIP3    H236530   1.938   2.740   5.832
12197TIP3   OH236531   5.708   6.207   4.381
12197TIP3    H136532   5.622   6.164   4.374
12197TIP3    H236533   5.690   6.288   4.428
12198TIP3   OH236534   3.508   5.599   5.005
12198TIP3    H136535   3.576   5.644   5.055
12198TIP3    H236536   3.436   5.587   5.068
12199TIP3   OH236537   1.351   6.478   4.685
12199TIP3    H136538   1.365   6.430   4.767
12199TIP3    H236539   1.407   6.433   4.622
12200TIP3   OH236540   0.467   3.092   4.272
12200TIP3    H136541   0.534   3.039   4.315
12200TIP3    H236542   0.393   3.092   4.334
12201TIP3   OH236543   7.689   6.943   5.205
12201TIP3    H136544   7.783   6.949   5.187
12201TIP3    H236545   7.677   6.988   5.289
12202TIP3   OH236546   4.736   5.456   3.331
12202TIP3    H136547   4.705   5.540   3.365
12202TIP3    H236548   4.789   5.419   3.402
12203TIP3   OH236549   7.427   0.283   0.269
12203TIP3    H136550   7.463   0.302   0.183
12203TIP3    H236551   7.346   0.333   0.272
12204TIP3   OH236552   4.688   3.894   3.366
12204TIP3    H136553   4.715   3.803   3.362
12204TIP3    H236554   4.768   3.943   3.348
12205TIP3   OH236555   5.101   3.078   4.357
12205TIP3    H136556   5.063   3.165   4.354
12205TIP3    H236557   5.027   3.021   4.379
12206TIP3   OH236558   4.952   3.978   3.734
12206TIP3    H136559   4.916   4.065   3.754
12206TIP3    H236560   4.934   3.927   3.813
12207TIP3   OH236561   6.363   0.692   4.579
12207TIP3    H136562   6.355   0.702   4.484
12207TIP3    H236563   6.441   0.638   4.591
12208TIP3   OH236564   5.709   5.142   3.072
12208TIP3    H136565   5.684   5.234   3.083
12208TIP3    H236566   5.675   5.098   3.150
12209TIP3   OH236567   4.477   4.928   5.390
12209TIP3    H136568   4.448   4.974   5.470
12209TIP3    H236569   4.407   4.944   5.327
12210TIP3   OH236570   2.971   4.374   2.985
12210TIP3    H136571   2.941   4.457   3.021
12210TIP3    H236572   3.028   4.398   2.912
12211TIP3   OH236573   2.230   2.288   2.479
12211TIP3    H136574   2.205   2.369   2.436
12211TIP3    H236575   2.198   2.219   2.420
12212TIP3   OH236576   2.498   1.132   1.415
12212TIP3    H136577   2.428   1.190   1.383
12212TIP3    H236578   2.560   1.191   1.458
12213TIP3   OH236579   1.400   6.143   5.883
12213TIP3    H136580   1.439   6.230   5.883
12213TIP3    H236581   1.310   6.157   5.855
12214TIP3   OH236582   0.300   5.848   0.186
12214TIP3    H136583   0.369   5.896   0.231
12214TIP3    H236584   0.235   5.914   0.162
12215TIP3   OH236585   2.697   4.160   5.844
12215TIP3    H136586   2.744   4.172   5.926
12215TIP3    H236587   2.695   4.065   5.831
12216TIP3   OH236588   7.819   7.489   1.815
12216TIP3    H136589   7.797   7.535   1.734
12216TIP3    H236590   7.843   7.401   1.786
12217TIP3   OH236591   5.475   7.395   0.612
12217TIP3    H136592   5.547   7.419   0.552
12217TIP3    H236593   5.480   7.460   0.682
12218TIP3   OH236594   1.755   4.823   5.890
12218TIP3    H136595   1.826   4.887   5.892
12218TIP3    H236596   1.781   4.756   5.953
12219TIP3   OH236597   7.270   6.018   5.070
12219TIP3    H136598   7.237   5.960   5.001
12219TIP3    H236599   7.203   6.014   5.138
12220TIP3   OH236600   7.748   5.127   6.145
12220TIP3    H136601   7.704   5.046   6.170
12220TIP3    H236602   7.772   5.114   6.053
12221TIP3   OH236603   3.420   1.879   4.038
12221TIP3    H136604   3.467   1.933   4.102
12221TIP3    H236605   3.439   1.789   4.065
12222TIP3   OH236606   2.957   3.946   2.419
12222TIP3    H136607   2.884   3.915   2.365
12222TIP3    H236608   2.989   3.868   2.464
12223TIP3   OH236609   8.333   4.278   2.516
12223TIP3    H136610   8.321   4.306   2.426
12223TIP3    H236611   8.342   4.359   2.566
12224TIP3   OH236612   6.922   5.038   2.532
12224TIP3    H136613   7.000   5.041   2.587
12224TIP3    H236614   6.863   5.103   2.570
12225TIP3   OH236615   1.950   3.525   4.411
12225TIP3    H136616   1.963   3.544   4.318
12225TIP3    H236617   2.013   3.582   4.456
12226TIP3   OH236618   1.512   0.614   2.742
12226TIP3    H136619   1.437   0.636   2.797
12226TIP3    H236620   1.527   0.521   2.758
12227TIP3   OH236621   5.022   3.570   0.728
12227TIP3    H136622   5.063   3.640   0.778
12227TIP3    H236623   4.990   3.509   0.794
12228TIP3   OH236624   6.329   5.548   4.791
12228TIP3    H136625   6.241   5.523   4.821
12228TIP3    H236626   6.330   5.525   4.698
12229TIP3   OH236627   8.359   3.069   3.247
12229TIP3    H136628   8.318   3.156   3.253
12229TIP3    H236629   8.407   3.060   3.329
12230TIP3   OH236630  -0.014   2.355   1.558
12230TIP3    H136631   0.065   2.407   1.575
12230TIP3    H236632   0.020   2.267   1.539
12231TIP3   OH236633   1.761   2.084   2.454
12231TIP3    H136634   1.681   2.051   2.494
12231TIP3    H236635   1.800   2.007   2.412
12232TIP3   OH236636   7.250   3.683   2.333
12232TIP3    H136637   7.247   3.587   2.326
12232TIP3    H236638   7.328   3.708   2.285
12233TIP3   OH236639   6.323   3.510   2.387
12233TIP3    H136640   6.241   3.473   2.354
12233TIP3    H236641   6.360   3.441   2.441
12234TIP3   OH236642   3.546   6.103   3.406
12234TIP3    H136643   3.628   6.087   3.358
12234TIP3    H236644   3.552   6.047   3.483
12235TIP3   OH236645   6.202   5.775   5.636
12235TIP3    H136646   6.140   5.830   5.684
12235TIP3    H236647   6.173   5.780   5.545
12236TIP3   OH236648   7.403   1.517   3.004
12236TIP3    H136649   7.426   1.517   2.911
12236TIP3    H236650   7.468   1.575   3.045
12237TIP3   OH236651   7.032   0.257   5.558
12237TIP3    H136652   7.102   0.203   5.593
12237TIP3    H236653   7.067   0.292   5.476
12238TIP3   OH236654   7.868   0.214   5.899
12238TIP3    H136655   7.808   0.275   5.855
12238TIP3    H236656   7.924   0.181   5.829
12239TIP3   OH236657   2.415   7.764   2.479
12239TIP3    H136658   2.373   7.845   2.451
12239TIP3    H236659   2.448   7.725   2.398
12240TIP3   OH236660   2.904   3.159   6.264
12240TIP3    H136661   2.844   3.110   6.322
12240TIP3    H236662   2.852   3.178   6.186
12241TIP3   OH236663   3.428   6.179   2.087
12241TIP3    H136664   3.493   6.246   2.105
12241TIP3    H236665   3.461   6.101   2.133
12242TIP3   OH236666   0.203   3.828   1.819
12242TIP3    H136667   0.266   3.881   1.768
12242TIP3    H236668   0.204   3.743   1.776
12243TIP3   OH236669   4.191   2.378   5.064
12243TIP3    H136670   4.253   2.441   5.026
12243TIP3    H236671   4.220   2.369   5.155
12244TIP3   OH236672   7.405   0.044   1.993
12244TIP3    H136673   7.431  -0.045   2.015
12244TIP3    H236674   7.444   0.098   2.062
12245TIP3   OH236675   0.410   2.388   6.224
12245TIP3    H136676   0.400   2.468   6.276
12245TIP3    H236677   0.497   2.356   6.245
12246TIP3   OH236678   4.765   5.224   2.968
12246TIP3    H136679   4.693   5.261   2.916
12246TIP3    H236680   4.839   5.282   2.951
12247TIP3   OH236681   1.866   2.270   3.913
12247TIP3    H136682   1.883   2.206   3.844
12247TIP3    H236683   1.944   2.266   3.969
12248TIP3   OH236684   7.476   6.359   1.615
12248TIP3    H136685   7.424   6.281   1.632
12248TIP3    H236686   7.562   6.339   1.652
12249TIP3   OH236687   4.715   1.079   2.059
12249TIP3    H136688   4.753   1.164   2.036
12249TIP3    H236689   4.621   1.089   2.043
12250TIP3   OH236690   4.522   3.711   4.265
12250TIP3    H136691   4.582   3.729   4.337
12250TIP3    H236692   4.558   3.632   4.224
12251TIP3   OH236693   4.805   2.443   5.942
12251TIP3    H136694   4.714   2.455   5.916
12251TIP3    H236695   4.852   2.515   5.900
12252TIP3   OH236696   7.774   1.804   5.618
12252TIP3    H136697   7.721   1.734   5.658
12252TIP3    H236698   7.713   1.876   5.605
12253TIP3   OH236699   0.928   4.962   3.229
12253TIP3    H136700   0.889   4.990   3.311
12253TIP3    H236701   0.877   5.007   3.161
12254TIP3   OH236702   7.971   0.094   4.210
12254TIP3    H136703   7.895   0.143   4.178
12254TIP3    H236704   8.035   0.101   4.139
12255TIP3   OH236705   0.966   0.023   1.165
12255TIP3    H136706   0.883   0.066   1.142
12255TIP3    H236707   0.946  -0.027   1.244
12256TIP3   OH236708   1.351   7.835   3.131
12256TIP3    H136709   1.269   7.841   3.082
12256TIP3    H236710   1.416   7.874   3.073
12257TIP3   OH236711   7.067   2.822   4.717
12257TIP3    H136712   7.159   2.832   4.693
12257TIP3    H236713   7.020   2.879   4.656
12258TIP3   OH236714   5.186   5.720   3.715
12258TIP3    H136715   5.114   5.772   3.678
12258TIP3    H236716   5.146   5.635   3.735
12259TIP3   OH236717   5.046   2.291   1.848
12259TIP3    H136718   4.951   2.286   1.859
12259TIP3    H236719   5.058   2.348   1.772
12260TIP3   OH236720   2.417   7.626   3.784
12260TIP3    H136721   2.428   7.684   3.709
12260TIP3    H236722   2.322   7.620   3.797
12261TIP3   OH236723   3.869   5.154   2.951
12261TIP3    H136724   3.836   5.109   3.028
12261TIP3    H236725   3.905   5.085   2.896
12262TIP3   OH236726   7.116   4.942   0.587
12262TIP3    H136727   7.189   4.985   0.542
12262TIP3    H236728   7.144   4.937   0.679
12263TIP3   OH236729   5.676   4.206   0.984
12263TIP3    H136730   5.733   4.130   1.001
12263TIP3    H236731   5.700   4.269   1.052
12264TIP3   OH236732   1.784   0.948   5.546
12264TIP3    H136733   1.710   0.946   5.485
12264TIP3    H236734   1.815   1.039   5.542
12265TIP3   OH236735   3.633   5.098   3.486
12265TIP3    H136736   3.582   5.031   3.439
12265TIP3    H236737   3.683   5.048   3.551
12266TIP3   OH236738   3.866   7.048   1.306
12266TIP3    H136739   3.866   7.142   1.322
12266TIP3    H236740   3.907   7.039   1.219
12267TIP3   OH236741   5.434   6.522   5.010
12267TIP3    H136742   5.362   6.464   5.036
12267TIP3    H236743   5.398   6.574   4.938
12268TIP3   OH236744   3.266   0.713   1.232
12268TIP3    H136745   3.285   0.805   1.252
12268TIP3    H236746   3.297   0.701   1.142
12269TIP3   OH236747   6.555   6.837   5.131
12269TIP3    H136748   6.648   6.813   5.141
12269TIP3    H236749   6.507   6.757   5.153
12270TIP3   OH236750   5.928   5.831   2.050
12270TIP3    H136751   5.873   5.909   2.048
12270TIP3    H236752   6.004   5.856   2.103
12271TIP3   OH236753   0.921   2.371   0.356
12271TIP3    H136754   0.844   2.415   0.392
12271TIP3    H236755   0.966   2.439   0.306
12272TIP3   OH236756   4.245   1.459   3.695
12272TIP3    H136757   4.220   1.379   3.742
12272TIP3    H236758   4.187   1.461   3.619
12273TIP3   OH236759   7.324   5.555   0.612
12273TIP3    H136760   7.414   5.551   0.579
12273TIP3    H236761   7.272   5.508   0.547
12274TIP3   OH236762   4.100   6.662   4.601
12274TIP3    H136763   4.170   6.728   4.603
12274TIP3    H236764   4.020   6.712   4.621
12275TIP3   OH236765   6.499   5.246   6.514
12275TIP3    H136766   6.552   5.284   6.585
12275TIP3    H236767   6.481   5.319   6.455
12276TIP3   OH236768   2.039   3.189   2.045
12276TIP3    H136769   2.024   3.175   1.952
12276TIP3    H236770   2.134   3.185   2.055
12277TIP3   OH236771   5.905   6.871   4.887
12277TIP3    H136772   5.975   6.820   4.846
12277TIP3    H236773   5.928   6.962   4.869
12278TIP3   OH236774   4.468   7.321   3.733
12278TIP3    H136775   4.485   7.331   3.639
12278TIP3    H236776   4.423   7.402   3.758
12279TIP3   OH236777   4.025   4.087   3.691
12279TIP3    H136778   4.011   4.177   3.719
12279TIP3    H236779   3.976   4.079   3.609
12280TIP3   OH236780   6.071   6.134   3.851
12280TIP3    H136781   6.140   6.096   3.796
12280TIP3    H236782   6.117   6.197   3.907
12281TIP3   OH236783   3.644   6.794   4.266
12281TIP3    H136784   3.694   6.778   4.186
12281TIP3    H236785   3.634   6.889   4.269
12282TIP3   OH236786   7.601   3.188   4.630
12282TIP3    H136787   7.628   3.277   4.651
12282TIP3    H236788   7.679   3.135   4.645
12283TIP3   OH236789   8.019   1.779   5.950
12283TIP3    H136790   8.087   1.835   5.912
12283TIP3    H236791   8.013   1.705   5.890
12284TIP3   OH236792   7.217   5.411   3.746
12284TIP3    H136793   7.234   5.383   3.655
12284TIP3    H236794   7.126   5.441   3.746
12285TIP3   OH236795   5.276   6.111   5.354
12285TIP3    H136796   5.290   6.169   5.279
12285TIP3    H236797   5.335   6.038   5.339
12286TIP3   OH236798   8.366   2.808   2.089
12286TIP3    H136799   8.321   2.819   2.005
12286TIP3    H236800   8.296   2.813   2.154
12287TIP3   OH236801   6.104   6.219   0.139
12287TIP3    H136802   6.087   6.170   0.219
12287TIP3    H236803   6.198   6.236   0.140
12288TIP3   OH236804   4.898   2.037   5.436
12288TIP3    H136805   4.963   1.968   5.448
12288TIP3    H236806   4.922   2.105   5.500
12289TIP3   OH236807   3.054   5.259   4.956
12289TIP3    H136808   3.015   5.331   4.906
12289TIP3    H236809   3.093   5.202   4.890
12290TIP3   OH236810   3.002   5.532   2.052
12290TIP3    H136811   3.004   5.577   1.968
12290TIP3    H236812   3.014   5.439   2.030
12291TIP3   OH236813   6.202   6.996   2.991
12291TIP3    H136814   6.246   7.080   3.001
12291TIP3    H236815   6.261   6.933   3.032
12292TIP3   OH236816   8.027   3.354   0.547
12292TIP3    H136817   8.008   3.285   0.484
12292TIP3    H236818   8.027   3.435   0.496
12293TIP3   OH236819   3.840   5.414   3.638
12293TIP3    H136820   3.783   5.344   3.669
12293TIP3    H236821   3.780   5.483   3.610
12294TIP3   OH236822   6.057   2.684   0.363
12294TIP3    H136823   6.020   2.597   0.375
12294TIP3    H236824   6.025   2.735   0.438
12295TIP3   OH236825   1.641   5.145   4.129
12295TIP3    H136826   1.641   5.234   4.092
12295TIP3    H236827   1.610   5.089   4.058
12296TIP3   OH236828   6.202   1.047   4.341
12296TIP3    H136829   6.137   1.079   4.278
12296TIP3    H236830   6.284   1.091   4.316
12297TIP3   OH236831   5.126   5.454   3.792
12297TIP3    H136832   5.137   5.368   3.752
12297TIP3    H236833   5.098   5.435   3.882
12298TIP3   OH236834   2.839   0.108   0.045
12298TIP3    H136835   2.852   0.065   0.130
12298TIP3    H236836   2.777   0.052  -0.001
12299TIP3   OH236837   4.225   4.745   4.557
12299TIP3    H136838   4.207   4.749   4.463
12299TIP3    H236839   4.280   4.821   4.574
12300TIP3   OH236840   6.264   4.537   0.783
12300TIP3    H136841   6.298   4.513   0.697
12300TIP3    H236842   6.177   4.496   0.787
12301TIP3   OH236843   1.106   6.567   0.523
12301TIP3    H136844   1.109   6.476   0.553
12301TIP3    H236845   1.068   6.562   0.436
12302TIP3   OH236846   0.366   2.894   5.746
12302TIP3    H136847   0.365   2.819   5.806
12302TIP3    H236848   0.283   2.887   5.699
12303TIP3   OH236849   0.400   2.108   4.385
12303TIP3    H136850   0.333   2.057   4.430
12303TIP3    H236851   0.415   2.060   4.303
12304TIP3   OH236852   7.731   7.121   5.577
12304TIP3    H136853   7.725   7.184   5.648
12304TIP3    H236854   7.824   7.097   5.574
12305TIP3   OH236855   0.328   5.885   4.866
12305TIP3    H136856   0.294   5.824   4.931
12305TIP3    H236857   0.422   5.886   4.880
12306TIP3   OH236858   2.251   1.193   4.718
12306TIP3    H136859   2.244   1.098   4.707
12306TIP3    H236860   2.177   1.228   4.668
12307TIP3   OH236861   0.061   7.461   4.774
12307TIP3    H136862  -0.004   7.482   4.707
12307TIP3    H236863   0.047   7.526   4.843
12308TIP3   OH236864   3.867   3.481   6.444
12308TIP3    H136865   3.955   3.445   6.435
12308TIP3    H236866   3.880   3.576   6.444
12309TIP3   OH236867   2.443   5.952   5.572
12309TIP3    H136868   2.473   5.963   5.482
12309TIP3    H236869   2.418   6.040   5.600
12310TIP3   OH236870   5.961   1.777   2.850
12310TIP3    H136871   5.899   1.781   2.923
12310TIP3    H236872   5.927   1.840   2.786
12311TIP3   OH236873   2.970   4.525   6.828
12311TIP3    H136874   3.060   4.514   6.797
12311TIP3    H236875   2.926   4.572   6.757
12312TIP3   OH236876   5.706   0.933   0.322
12312TIP3    H136877   5.729   0.957   0.412
12312TIP3    H236878   5.681   0.841   0.328
12313TIP3   OH236879   7.806   4.498   6.011
12313TIP3    H136880   7.831   4.518   6.102
12313TIP3    H236881   7.818   4.581   5.965
12314TIP3   OH236882   0.829   0.704   0.241
12314TIP3    H136883   0.867   0.711   0.153
12314TIP3    H236884   0.853   0.786   0.284
12315TIP3   OH236885   5.494   2.176   3.588
12315TIP3    H136886   5.400   2.173   3.569
12315TIP3    H236887   5.501   2.154   3.681
12316TIP3   OH236888   0.825   7.853   5.944
12316TIP3    H136889   0.790   7.924   5.998
12316TIP3    H236890   0.869   7.897   5.871
12317TIP3   OH236891   1.808   6.824   6.142
12317TIP3    H136892   1.814   6.730   6.122
12317TIP3    H236893   1.862   6.835   6.220
12318TIP3   OH236894   4.063   3.400   0.692
12318TIP3    H136895   4.064   3.305   0.698
12318TIP3    H236896   3.993   3.420   0.630
12319TIP3   OH236897   0.256   5.783   1.671
12319TIP3    H136898   0.345   5.772   1.639
12319TIP3    H236899   0.266   5.795   1.765
12320TIP3   OH236900   7.617   0.300   2.002
12320TIP3    H136901   7.656   0.213   1.994
12320TIP3    H236902   7.690   0.357   2.025
12321TIP3   OH236903   1.587   5.807   4.386
12321TIP3    H136904   1.502   5.765   4.372
12321TIP3    H236905   1.645   5.736   4.412
12322TIP3   OH236906   3.217   3.661   6.413
12322TIP3    H136907   3.126   3.666   6.442
12322TIP3    H236908   3.261   3.608   6.481
12323TIP3   OH236909   0.449   2.869   6.384
12323TIP3    H136910   0.455   2.960   6.413
12323TIP3    H236911   0.414   2.874   6.295
12324TIP3   OH236912   0.533   0.070   0.383
12324TIP3    H136913   0.625   0.094   0.395
12324TIP3    H236914   0.536  -0.004   0.322
12325TIP3   OH236915   5.282   6.711   5.347
12325TIP3    H136916   5.254   6.741   5.260
12325TIP3    H236917   5.231   6.631   5.362
12326TIP3   OH236918   3.457   5.310   3.414
12326TIP3    H136919   3.485   5.391   3.458
12326TIP3    H236920   3.527   5.247   3.433
12327TIP3   OH236921   1.484   2.605   1.553
12327TIP3    H136922   1.430   2.683   1.539
12327TIP3    H236923   1.423   2.542   1.592
12328TIP3   OH236924   4.535   3.448   5.706
12328TIP3    H136925   4.555   3.358   5.734
12328TIP3    H236926   4.617   3.479   5.667
12329TIP3   OH236927   1.696   1.729   0.889
12329TIP3    H136928   1.675   1.759   0.978
12329TIP3    H236929   1.658   1.641   0.885
12330TIP3   OH236930   7.445   6.867   5.067
12330TIP3    H136931   7.418   6.789   5.115
12330TIP3    H236932   7.538   6.877   5.088
12331TIP3   OH236933   7.719   1.835   4.910
12331TIP3    H136934   7.656   1.770   4.941
12331TIP3    H236935   7.734   1.893   4.985
12332TIP3   OH236936   3.651   1.040   1.983
12332TIP3    H136937   3.722   1.104   1.977
12332TIP3    H236938   3.638   1.010   1.893
12333TIP3   OH236939   8.095   4.717   1.867
12333TIP3    H136940   8.093   4.622   1.857
12333TIP3    H236941   8.029   4.736   1.934
12334TIP3   OH236942   1.842   1.761   3.198
12334TIP3    H136943   1.911   1.777   3.134
12334TIP3    H236944   1.794   1.843   3.203
12335TIP3   OH236945   0.636   6.977   4.697
12335TIP3    H136946   0.605   7.052   4.748
12335TIP3    H236947   0.572   6.969   4.625
12336TIP3   OH236948   0.035   5.752   2.827
12336TIP3    H136949   0.015   5.798   2.909
12336TIP3    H236950   0.012   5.815   2.759
12337TIP3   OH236951   6.982   1.396   5.261
12337TIP3    H136952   7.026   1.327   5.312
12337TIP3    H236953   6.949   1.351   5.183
12338TIP3   OH236954   6.285   4.106   3.154
12338TIP3    H136955   6.333   4.184   3.179
12338TIP3    H236956   6.343   4.033   3.176
12339TIP3   OH236957   1.729   2.725   1.595
12339TIP3    H136958   1.669   2.718   1.521
12339TIP3    H236959   1.687   2.675   1.665
12340TIP3   OH236960   6.184   6.517   0.918
12340TIP3    H136961   6.143   6.445   0.870
12340TIP3    H236962   6.114   6.580   0.933
12341TIP3   OH236963   2.349   6.891   2.734
12341TIP3    H136964   2.423   6.935   2.692
12341TIP3    H236965   2.288   6.961   2.755
12342TIP3   OH236966   1.730   6.517   0.814
12342TIP3    H136967   1.677   6.496   0.736
12342TIP3    H236968   1.793   6.445   0.820
12343TIP3   OH236969   3.962   2.445   5.454
12343TIP3    H136970   3.956   2.411   5.365
12343TIP3    H236971   3.947   2.539   5.445
12344TIP3   OH236972   2.685   4.823   6.113
12344TIP3    H136973   2.636   4.741   6.116
12344TIP3    H236974   2.776   4.797   6.100
12345TIP3   OH236975   5.926   5.730   5.885
12345TIP3    H136976   5.863   5.790   5.924
12345TIP3    H236977   6.007   5.781   5.878
12346TIP3   OH236978   0.130   2.749   1.145
12346TIP3    H136979   0.190   2.688   1.101
12346TIP3    H236980   0.131   2.827   1.089
12347TIP3   OH236981   7.936   1.871   4.711
12347TIP3    H136982   7.889   1.804   4.761
12347TIP3    H236983   7.920   1.848   4.619
12348TIP3   OH236984   5.955   4.023   1.427
12348TIP3    H136985   6.015   4.097   1.424
12348TIP3    H236986   5.868   4.060   1.412
12349TIP3   OH236987   2.828   4.528   6.465
12349TIP3    H136988   2.866   4.616   6.462
12349TIP3    H236989   2.745   4.539   6.511
12350TIP3   OH236990   5.935   2.810   1.628
12350TIP3    H136991   5.858   2.755   1.645
12350TIP3    H236992   5.909   2.897   1.658
12351TIP3   OH236993   4.589   2.338   5.523
12351TIP3    H136994   4.564   2.412   5.578
12351TIP3    H236995   4.652   2.289   5.576
12352TIP3   OH236996   4.027   7.256   2.632
12352TIP3    H136997   4.106   7.264   2.685
12352TIP3    H236998   3.999   7.346   2.616
12353TIP3   OH236999   3.268   6.775   2.795
12353TIP3    H137000   3.238   6.778   2.885
12353TIP3    H237001   3.352   6.820   2.796
12354TIP3   OH237002   0.301   4.091   2.149
12354TIP3    H137003   0.327   4.005   2.184
12354TIP3    H237004   0.382   4.142   2.147
12355TIP3   OH237005   8.285   7.876   0.649
12355TIP3    H137006   8.194   7.905   0.657
12355TIP3    H237007   8.325   7.900   0.732
12356TIP3   OH237008   8.170   1.187   0.621
12356TIP3    H137009   8.241   1.128   0.595
12356TIP3    H237010   8.093   1.131   0.630
12357TIP3   OH237011   8.201   1.472   0.157
12357TIP3    H137012   8.233   1.476   0.067
12357TIP3    H237013   8.280   1.482   0.211
12358TIP3   OH237014   0.807   4.624   0.321
12358TIP3    H137015   0.839   4.563   0.388
12358TIP3    H237016   0.885   4.674   0.296
12359TIP3   OH237017   3.441   4.412   6.487
12359TIP3    H137018   3.502   4.475   6.525
12359TIP3    H237019   3.395   4.462   6.419
12360TIP3   OH237020   8.323   6.239   6.875
12360TIP3    H137021   8.363   6.155   6.854
12360TIP3    H237022   8.280   6.267   6.794
12361TIP3   OH237023   0.639   2.508   0.154
12361TIP3    H137024   0.711   2.445   0.158
12361TIP3    H237025   0.638   2.549   0.240
12362TIP3   OH237026   8.133   3.452   3.255
12362TIP3    H137027   8.107   3.531   3.302
12362TIP3    H237028   8.052   3.401   3.248
12363TIP3   OH237029   2.525   7.772   3.570
12363TIP3    H137030   2.502   7.754   3.479
12363TIP3    H237031   2.579   7.850   3.566
12364TIP3   OH237032   8.061   1.054   4.017
12364TIP3    H137033   8.093   0.967   3.992
12364TIP3    H237034   8.038   1.045   4.109
12365TIP3   OH237035   0.019   2.025   1.758
12365TIP3    H137036   0.047   1.946   1.711
12365TIP3    H237037   0.086   2.090   1.736
12366TIP3   OH237038   1.851   5.623   2.869
12366TIP3    H137039   1.761   5.641   2.896
12366TIP3    H237040   1.868   5.685   2.798
12367TIP3   OH237041   6.684   1.382   2.021
12367TIP3    H137042   6.660   1.292   2.045
12367TIP3    H237043   6.685   1.382   1.925
12368TIP3   OH237044   2.681   6.270   2.161
12368TIP3    H137045   2.692   6.290   2.254
12368TIP3    H237046   2.769   6.279   2.124
12369TIP3   OH237047   5.999   5.285   2.216
12369TIP3    H137048   6.031   5.334   2.141
12369TIP3    H237049   5.980   5.198   2.181
12370TIP3   OH237050   1.495   2.958   6.477
12370TIP3    H137051   1.582   2.920   6.465
12370TIP3    H237052   1.508   3.052   6.463
12371TIP3   OH237053   1.768   4.444   1.854
12371TIP3    H137054   1.683   4.479   1.880
12371TIP3    H237055   1.789   4.379   1.922
12372TIP3   OH237056   5.493   3.884   0.112
12372TIP3    H137057   5.464   3.818   0.049
12372TIP3    H237058   5.575   3.849   0.147
12373TIP3   OH237059   6.151   6.135   0.658
12373TIP3    H137060   6.148   6.229   0.676
12373TIP3    H237061   6.061   6.104   0.671
12374TIP3   OH237062   1.344   7.740   5.942
12374TIP3    H137063   1.371   7.818   5.990
12374TIP3    H237064   1.282   7.773   5.876
12375TIP3   OH237065   1.169   1.742   1.150
12375TIP3    H137066   1.256   1.728   1.114
12375TIP3    H237067   1.130   1.810   1.096
12376TIP3   OH237068   5.090   5.124   5.403
12376TIP3    H137069   5.012   5.079   5.436
12376TIP3    H237070   5.147   5.131   5.479
12377TIP3   OH237071   7.162   2.469   2.715
12377TIP3    H137072   7.174   2.467   2.810
12377TIP3    H237073   7.145   2.378   2.690
12378TIP3   OH237074   6.868   6.190   0.319
12378TIP3    H137075   6.813   6.254   0.274
12378TIP3    H237076   6.910   6.240   0.390
12379TIP3   OH237077   4.782   7.500   1.142
12379TIP3    H137078   4.877   7.485   1.142
12379TIP3    H237079   4.768   7.565   1.073
12380TIP3   OH237080   5.851   5.738   0.288
12380TIP3    H137081   5.870   5.652   0.327
12380TIP3    H237082   5.905   5.799   0.339
12381TIP3   OH237083   7.412   0.918   5.811
12381TIP3    H137084   7.324   0.946   5.787
12381TIP3    H237085   7.453   0.997   5.846
12382TIP3   OH237086   3.490   0.893   5.018
12382TIP3    H137087   3.400   0.926   5.024
12382TIP3    H237088   3.486   0.825   4.952
12383TIP3   OH237089   4.397   7.157   2.504
12383TIP3    H137090   4.343   7.235   2.493
12383TIP3    H237091   4.344   7.098   2.558
12384TIP3   OH237092   7.161   7.503   0.646
12384TIP3    H137093   7.104   7.443   0.696
12384TIP3    H237094   7.215   7.445   0.593
12385TIP3   OH237095   8.261   7.046   1.391
12385TIP3    H137096   8.310   6.995   1.327
12385TIP3    H237097   8.220   6.981   1.447
12386TIP3   OH237098   4.848   0.956   0.656
12386TIP3    H137099   4.854   1.045   0.620
12386TIP3    H237100   4.935   0.940   0.694
12387TIP3   OH237101   7.597   7.291   3.583
12387TIP3    H137102   7.633   7.267   3.668
12387TIP3    H237103   7.532   7.358   3.602
12388TIP3   OH237104   7.463   3.326   3.248
12388TIP3    H137105   7.420   3.303   3.165
12388TIP3    H237106   7.393   3.320   3.313
12389TIP3   OH237107   7.109   7.573   6.035
12389TIP3    H137108   7.064   7.507   5.982
12389TIP3    H237109   7.171   7.524   6.087
12390TIP3   OH237110   0.542   1.613   0.116
12390TIP3    H137111   0.524   1.593   0.208
12390TIP3    H237112   0.501   1.699   0.102
12391TIP3   OH237113   8.347   6.788   3.403
12391TIP3    H137114   8.422   6.837   3.435
12391TIP3    H237115   8.385   6.728   3.337
12392TIP3   OH237116   7.652   7.488   4.880
12392TIP3    H137117   7.599   7.567   4.890
12392TIP3    H237118   7.626   7.451   4.796
12393TIP3   OH237119   1.282   4.155   5.919
12393TIP3    H137120   1.223   4.125   5.989
12393TIP3    H237121   1.342   4.215   5.963
12394TIP3   OH237122   1.804   3.381   3.030
12394TIP3    H137123   1.718   3.380   3.072
12394TIP3    H237124   1.785   3.389   2.937
12395TIP3   OH237125   0.547   7.826   6.560
12395TIP3    H137126   0.632   7.867   6.577
12395TIP3    H237127   0.565   7.761   6.492
12396TIP3   OH237128   5.340   7.275   5.613
12396TIP3    H137129   5.383   7.204   5.661
12396TIP3    H237130   5.412   7.331   5.584
12397TIP3   OH237131   2.893   4.819   6.445
12397TIP3    H137132   2.938   4.840   6.363
12397TIP3    H237133   2.852   4.900   6.472
12398TIP3   OH237134   6.411   5.201   1.078
12398TIP3    H137135   6.458   5.274   1.039
12398TIP3    H237136   6.341   5.181   1.015
12399TIP3   OH237137   7.976   4.129   3.739
12399TIP3    H137138   7.960   4.218   3.709
12399TIP3    H237139   8.071   4.123   3.747
12400TIP3   OH237140   3.686   7.318   2.480
12400TIP3    H137141   3.701   7.262   2.404
12400TIP3    H237142   3.771   7.360   2.496
12401TIP3   OH237143   7.908   4.109   5.336
12401TIP3    H137144   7.952   4.041   5.284
12401TIP3    H237145   7.969   4.182   5.337
12402TIP3   OH237146   0.950   2.345   1.749
12402TIP3    H137147   0.860   2.342   1.716
12402TIP3    H237148   0.959   2.432   1.788
12403TIP3   OH237149   3.156   0.662   4.873
12403TIP3    H137150   3.143   0.693   4.783
12403TIP3    H237151   3.170   0.742   4.923
12404TIP3   OH237152   2.551   3.239   5.025
12404TIP3    H137153   2.585   3.215   4.939
12404TIP3    H237154   2.627   3.271   5.074
12405TIP3   OH237155   7.162   6.072   5.735
12405TIP3    H137156   7.093   6.108   5.790
12405TIP3    H237157   7.170   5.981   5.763
12406TIP3   OH237158   6.402   6.281   6.578
12406TIP3    H137159   6.466   6.230   6.627
12406TIP3    H237160   6.328   6.290   6.637
12407TIP3   OH237161   7.129   3.544   4.298
12407TIP3    H137162   7.076   3.475   4.337
12407TIP3    H237163   7.131   3.613   4.364
12408TIP3   OH237164   1.025   4.226   0.547
12408TIP3    H137165   1.076   4.224   0.466
12408TIP3    H237166   0.973   4.305   0.542
12409TIP3   OH237167   4.831   3.072   2.568
12409TIP3    H137168   4.845   3.010   2.640
12409TIP3    H237169   4.849   3.157   2.606
12410TIP3   OH237170   2.232   2.463   3.314
12410TIP3    H137171   2.178   2.445   3.391
12410TIP3    H237172   2.171   2.497   3.249
12411TIP3   OH237173   0.580   7.464   3.819
12411TIP3    H137174   0.624   7.524   3.760
12411TIP3    H237175   0.539   7.399   3.761
12412TIP3   OH237176   6.879   4.380   3.157
12412TIP3    H137177   6.898   4.415   3.071
12412TIP3    H237178   6.965   4.368   3.198
12413TIP3   OH237179   7.638   2.716   3.153
12413TIP3    H137180   7.713   2.684   3.103
12413TIP3    H237181   7.589   2.770   3.091
12414TIP3   OH237182   1.715   0.744   4.276
12414TIP3    H137183   1.624   0.721   4.259
12414TIP3    H237184   1.737   0.808   4.208
12415TIP3   OH237185   5.397   1.942   6.212
12415TIP3    H137186   5.315   1.980   6.180
12415TIP3    H237187   5.438   2.011   6.264
12416TIP3   OH237188   0.238   5.759   6.275
12416TIP3    H137189   0.189   5.768   6.194
12416TIP3    H237190   0.281   5.673   6.267
12417TIP3   OH237191   5.104   2.879   1.164
12417TIP3    H137192   5.031   2.892   1.104
12417TIP3    H237193   5.075   2.808   1.222
12418TIP3   OH237194   3.694   7.676   2.217
12418TIP3    H137195   3.731   7.717   2.296
12418TIP3    H237196   3.601   7.696   2.221
12419TIP3   OH237197   1.600   3.728   0.268
12419TIP3    H137198   1.628   3.739   0.359
12419TIP3    H237199   1.673   3.764   0.216
12420TIP3   OH237200   3.898   3.205   1.412
12420TIP3    H137201   3.926   3.199   1.503
12420TIP3    H237202   3.905   3.115   1.379
12421TIP3   OH237203   1.404   4.516   6.577
12421TIP3    H137204   1.462   4.591   6.563
12421TIP3    H237205   1.462   4.447   6.610
12422TIP3   OH237206   4.211   2.346   1.704
12422TIP3    H137207   4.233   2.415   1.642
12422TIP3    H237208   4.140   2.297   1.663
12423TIP3   OH237209   3.122   5.012   2.301
12423TIP3    H137210   3.190   4.971   2.354
12423TIP3    H237211   3.165   5.089   2.263
12424TIP3   OH237212   6.244   7.621   4.685
12424TIP3    H137213   6.237   7.679   4.761
12424TIP3    H237214   6.154   7.609   4.655
12425TIP3   OH237215   1.449   6.404   0.640
12425TIP3    H137216   1.467   6.372   0.552
12425TIP3    H237217   1.356   6.384   0.653
12426TIP3   OH237218   6.881   2.109   3.047
12426TIP3    H137219   6.884   2.072   2.959
12426TIP3    H237220   6.906   2.200   3.036
12427TIP3   OH237221   4.912   4.185   1.939
12427TIP3    H137222   4.909   4.281   1.940
12427TIP3    H237223   4.915   4.161   2.032
12428TIP3   OH237224   2.216   5.596   4.183
12428TIP3    H137225   2.264   5.577   4.264
12428TIP3    H237226   2.163   5.519   4.167
12429TIP3   OH237227   1.773   6.930   5.893
12429TIP3    H137228   1.759   6.884   5.976
12429TIP3    H237229   1.736   6.873   5.826
12430TIP3   OH237230   1.749   7.479   2.311
12430TIP3    H137231   1.714   7.497   2.224
12430TIP3    H237232   1.676   7.495   2.370
12431TIP3   OH237233   4.084   2.615   2.991
12431TIP3    H137234   4.127   2.700   2.981
12431TIP3    H237235   4.019   2.612   2.921
12432TIP3   OH237236   1.178   5.275   2.683
12432TIP3    H137237   1.130   5.193   2.675
12432TIP3    H237238   1.247   5.256   2.748
12433TIP3   OH237239   4.526   3.000   4.507
12433TIP3    H137240   4.463   3.044   4.564
12433TIP3    H237241   4.471   2.944   4.451
12434TIP3   OH237242   5.482   2.800   6.052
12434TIP3    H137243   5.496   2.708   6.030
12434TIP3    H237244   5.432   2.835   5.978
12435TIP3   OH237245   2.815   6.446   4.254
12435TIP3    H137246   2.846   6.512   4.315
12435TIP3    H237247   2.746   6.400   4.301
12436TIP3   OH237248   6.233   7.704   5.996
12436TIP3    H137249   6.204   7.697   5.905
12436TIP3    H237250   6.160   7.670   6.048
12437TIP3   OH237251   0.423   2.690   0.562
12437TIP3    H137252   0.396   2.735   0.482
12437TIP3    H237253   0.506   2.649   0.539
12438TIP3   OH237254   7.559   3.854   1.671
12438TIP3    H137255   7.602   3.770   1.655
12438TIP3    H237256   7.630   3.918   1.670
12439TIP3   OH237257   4.284   2.741   5.627
12439TIP3    H137258   4.300   2.779   5.713
12439TIP3    H237259   4.261   2.816   5.572
12440TIP3   OH237260   8.252   7.600   0.981
12440TIP3    H137261   8.197   7.677   0.973
12440TIP3    H237262   8.242   7.555   0.897
12441TIP3   OH237263   4.385   2.308   4.087
12441TIP3    H137264   4.412   2.391   4.047
12441TIP3    H237265   4.326   2.269   4.023
12442TIP3   OH237266   8.361   6.259   4.217
12442TIP3    H137267   8.333   6.349   4.235
12442TIP3    H237268   8.368   6.254   4.122
12443TIP3   OH237269   6.457   3.220   5.663
12443TIP3    H137270   6.402   3.180   5.596
12443TIP3    H237271   6.532   3.160   5.670
12444TIP3   OH237272   5.676   5.925   6.376
12444TIP3    H137273   5.599   5.937   6.433
12444TIP3    H237274   5.681   5.830   6.364
12445TIP3   OH237275   7.987   0.317   1.873
12445TIP3    H137276   8.040   0.247   1.835
12445TIP3    H237277   7.926   0.341   1.803
12446TIP3   OH237278   2.870   5.215   2.613
12446TIP3    H137279   2.842   5.238   2.524
12446TIP3    H237280   2.789   5.197   2.660
12447TIP3   OH237281   6.367   6.265   5.410
12447TIP3    H137282   6.278   6.293   5.431
12447TIP3    H237283   6.362   6.170   5.405
12448TIP3   OH237284   5.341   4.255   4.994
12448TIP3    H137285   5.259   4.271   4.947
12448TIP3    H237286   5.407   4.299   4.941
12449TIP3   OH237287   2.485   2.949   4.578
12449TIP3    H137288   2.439   2.973   4.497
12449TIP3    H237289   2.577   2.969   4.560
12450TIP3   OH237290   4.708   6.612   6.624
12450TIP3    H137291   4.764   6.635   6.550
12450TIP3    H237292   4.625   6.585   6.585
12451TIP3   OH237293   2.480   4.808   5.792
12451TIP3    H137294   2.441   4.806   5.705
12451TIP3    H237295   2.446   4.730   5.835
12452TIP3   OH237296   6.328   7.013   6.449
12452TIP3    H137297   6.286   7.096   6.474
12452TIP3    H237298   6.421   7.035   6.443
12453TIP3   OH237299   6.411   0.346   3.222
12453TIP3    H137300   6.453   0.310   3.143
12453TIP3    H237301   6.483   0.387   3.270
12454TIP3   OH237302   8.190   6.125   0.413
12454TIP3    H137303   8.204   6.204   0.361
12454TIP3    H237304   8.096   6.125   0.430
12455TIP3   OH237305   4.826   6.106   2.194
12455TIP3    H137306   4.835   6.195   2.161
12455TIP3    H237307   4.793   6.056   2.119
12456TIP3   OH237308   6.729   0.435   4.517
12456TIP3    H137309   6.814   0.397   4.495
12456TIP3    H237310   6.740   0.529   4.502
12457TIP3   OH237311   6.118   3.106   1.631
12457TIP3    H137312   6.062   3.168   1.678
12457TIP3    H237313   6.159   3.053   1.700
12458TIP3   OH237314   0.366   7.195   4.625
12458TIP3    H137315   0.318   7.224   4.703
12458TIP3    H237316   0.333   7.106   4.610
12459TIP3   OH237317   2.281   5.041   0.707
12459TIP3    H137318   2.301   4.947   0.709
12459TIP3    H237319   2.278   5.063   0.614
12460TIP3   OH237320   7.476   6.678   5.424
12460TIP3    H137321   7.460   6.757   5.476
12460TIP3    H237322   7.448   6.606   5.482
12461TIP3   OH237323   8.325   3.782   3.282
12461TIP3    H137324   8.348   3.749   3.369
12461TIP3    H237325   8.236   3.751   3.268
12462TIP3   OH237326   2.210   5.050   0.999
12462TIP3    H137327   2.217   5.023   0.908
12462TIP3    H237328   2.289   5.102   1.015
12463TIP3   OH237329   8.256   5.182   6.449
12463TIP3    H137330   8.271   5.209   6.540
12463TIP3    H237331   8.290   5.093   6.444
12464TIP3   OH237332   3.569   2.237   0.905
12464TIP3    H137333   3.616   2.156   0.929
12464TIP3    H237334   3.558   2.284   0.987
12465TIP3   OH237335   0.768   2.405   4.525
12465TIP3    H137336   0.777   2.466   4.599
12465TIP3    H237337   0.858   2.379   4.506
12466TIP3   OH237338   3.770   5.940   1.356
12466TIP3    H137339   3.769   5.851   1.321
12466TIP3    H237340   3.725   5.933   1.441
12467TIP3   OH237341   7.016   7.914   6.793
12467TIP3    H137342   7.076   7.852   6.751
12467TIP3    H237343   7.001   7.981   6.727
12468TIP3   OH237344   2.513   0.103   5.334
12468TIP3    H137345   2.552   0.056   5.260
12468TIP3    H237346   2.523   0.043   5.408
12469TIP3   OH237347   0.954   5.270   3.018
12469TIP3    H137348   0.963   5.243   3.110
12469TIP3    H237349   0.881   5.217   2.985
12470TIP3   OH237350   6.770   7.569   0.923
12470TIP3    H137351   6.862   7.578   0.897
12470TIP3    H237352   6.748   7.654   0.962
12471TIP3   OH237353   5.405   5.669   3.873
12471TIP3    H137354   5.448   5.711   3.798
12471TIP3    H237355   5.314   5.659   3.845
12472TIP3   OH237356   7.414   5.307   1.612
12472TIP3    H137357   7.427   5.217   1.583
12472TIP3    H237358   7.502   5.341   1.626
12473TIP3   OH237359   2.228   2.486   3.829
12473TIP3    H137360   2.271   2.519   3.908
12473TIP3    H237361   2.165   2.554   3.806
12474TIP3   OH237362   3.725   6.664   4.930
12474TIP3    H137363   3.720   6.742   4.874
12474TIP3    H237364   3.634   6.637   4.942
12475TIP3   OH237365   0.766   4.088   4.275
12475TIP3    H137366   0.699   4.152   4.300
12475TIP3    H237367   0.750   4.070   4.183
12476TIP3   OH237368   5.727   4.895   4.927
12476TIP3    H137369   5.690   4.977   4.959
12476TIP3    H237370   5.692   4.886   4.839
12477TIP3   OH237371   2.574   2.976   5.133
12477TIP3    H137372   2.573   3.070   5.114
12477TIP3    H237373   2.623   2.969   5.215
12478TIP3   OH237374   3.488   3.246   6.166
12478TIP3    H137375   3.520   3.156   6.161
12478TIP3    H237376   3.485   3.275   6.075
12479TIP3   OH237377   0.986   7.809   1.035
12479TIP3    H137378   1.073   7.773   1.052
12479TIP3    H237379   0.959   7.767   0.953
12480TIP3   OH237380   3.685   4.119   5.493
12480TIP3    H137381   3.665   4.169   5.414
12480TIP3    H237382   3.751   4.171   5.538
12481TIP3   OH237383   5.223   1.339   4.913
12481TIP3    H137384   5.270   1.420   4.933
12481TIP3    H237385   5.287   1.285   4.868
12482TIP3   OH237386   2.926   1.108   4.265
12482TIP3    H137387   2.835   1.113   4.237
12482TIP3    H237388   2.968   1.050   4.202
12483TIP3   OH237389   0.590   3.737   1.526
12483TIP3    H137390   0.565   3.820   1.567
12483TIP3    H237391   0.679   3.753   1.493
12484TIP3   OH237392   8.068   2.535   0.536
12484TIP3    H137393   7.995   2.544   0.475
12484TIP3    H237394   8.031   2.558   0.621
12485TIP3   OH237395   2.386   1.381   2.634
12485TIP3    H137396   2.456   1.317   2.649
12485TIP3    H237397   2.424   1.444   2.573
12486TIP3   OH237398   3.528   6.850   6.243
12486TIP3    H137399   3.596   6.904   6.204
12486TIP3    H237400   3.544   6.856   6.337
12487TIP3   OH237401   2.824   3.693   6.184
12487TIP3    H137402   2.751   3.639   6.155
12487TIP3    H237403   2.783   3.768   6.226
12488TIP3   OH237404   6.394   4.630   0.082
12488TIP3    H137405   6.312   4.601   0.122
12488TIP3    H237406   6.368   4.668  -0.002
12489TIP3   OH237407   1.345   0.890   0.929
12489TIP3    H137408   1.363   0.822   0.864
12489TIP3    H237409   1.261   0.865   0.967
12490TIP3   OH237410   1.220   5.467   6.437
12490TIP3    H137411   1.297   5.467   6.495
12490TIP3    H237412   1.226   5.550   6.390
12491TIP3   OH237413   4.295   7.721   4.083
12491TIP3    H137414   4.295   7.758   4.171
12491TIP3    H237415   4.374   7.667   4.080
12492TIP3   OH237416   2.224   2.657   4.370
12492TIP3    H137417   2.242   2.751   4.363
12492TIP3    H237418   2.299   2.622   4.418
12493TIP3   OH237419   0.079   5.113   6.719
12493TIP3    H137420   0.169   5.091   6.744
12493TIP3    H237421   0.025   5.075   6.788
12494TIP3   OH237422   4.950   4.737   2.129
12494TIP3    H137423   4.855   4.746   2.132
12494TIP3    H237424   4.970   4.668   2.193
12495TIP3   OH237425   5.927   2.714   3.179
12495TIP3    H137426   5.914   2.716   3.273
12495TIP3    H237427   5.854   2.764   3.143
12496TIP3   OH237428   7.459   5.112   2.368
12496TIP3    H137429   7.414   5.047   2.315
12496TIP3    H237430   7.501   5.061   2.438
12497TIP3   OH237431   7.384   6.974   4.549
12497TIP3    H137432   7.445   6.937   4.613
12497TIP3    H237433   7.419   7.061   4.531
12498TIP3   OH237434   5.694   3.595   3.685
12498TIP3    H137435   5.625   3.602   3.751
12498TIP3    H237436   5.677   3.512   3.641
12499TIP3   OH237437   8.133   5.884   6.035
12499TIP3    H137438   8.186   5.809   6.062
12499TIP3    H237439   8.137   5.944   6.110
12500TIP3   OH237440   4.979   4.442   2.474
12500TIP3    H137441   4.940   4.359   2.499
12500TIP3    H237442   4.936   4.464   2.391
12501TIP3   OH237443   5.100   2.647   0.187
12501TIP3    H137444   5.052   2.714   0.139
12501TIP3    H237445   5.184   2.687   0.208
12502TIP3   OH237446   7.495   5.308   2.868
12502TIP3    H137447   7.469   5.370   2.800
12502TIP3    H237448   7.589   5.293   2.852
12503TIP3   OH237449   6.917   5.746   5.016
12503TIP3    H137450   6.934   5.719   5.107
12503TIP3    H237451   6.900   5.840   5.022
12504TIP3   OH237452   5.930   5.107   0.542
12504TIP3    H137453   5.938   5.117   0.637
12504TIP3    H237454   6.018   5.127   0.508
12505TIP3   OH237455   1.415   1.735   1.996
12505TIP3    H137456   1.339   1.725   1.939
12505TIP3    H237457   1.478   1.669   1.965
12506TIP3   OH237458   2.516   1.925   6.309
12506TIP3    H137459   2.567   2.001   6.279
12506TIP3    H237460   2.529   1.924   6.404
12507TIP3   OH237461   3.123   4.519   2.774
12507TIP3    H137462   3.211   4.521   2.737
12507TIP3    H237463   3.073   4.582   2.721
12508TIP3   OH237464   3.699   1.733   3.829
12508TIP3    H137465   3.614   1.774   3.813
12508TIP3    H237466   3.678   1.656   3.883
12509TIP3   OH237467   2.416   4.643   0.908
12509TIP3    H137468   2.488   4.592   0.871
12509TIP3    H237469   2.458   4.718   0.950
12510TIP3   OH237470   3.224   1.289   4.067
12510TIP3    H137471   3.219   1.197   4.092
12510TIP3    H237472   3.243   1.287   3.973
12511TIP3   OH237473   6.382   0.604   5.874
12511TIP3    H137474   6.304   0.568   5.916
12511TIP3    H237475   6.402   0.541   5.804
12512TIP3   OH237476   5.648   4.089   0.558
12512TIP3    H137477   5.732   4.117   0.594
12512TIP3    H237478   5.583   4.122   0.621
12513TIP3   OH237479   6.136   1.712   0.533
12513TIP3    H137480   6.079   1.783   0.564
12513TIP3    H237481   6.123   1.642   0.597
12514TIP3   OH237482   2.571   6.442   0.175
12514TIP3    H137483   2.529   6.413   0.255
12514TIP3    H237484   2.503   6.435   0.108
12515TIP3   OH237485   1.163   7.550   5.676
12515TIP3    H137486   1.078   7.527   5.712
12515TIP3    H237487   1.168   7.645   5.684
12516TIP3   OH237488   7.210   6.080   0.570
12516TIP3    H137489   7.145   6.150   0.577
12516TIP3    H237490   7.212   6.058   0.477
12517TIP3   OH237491   7.735   0.622   0.047
12517TIP3    H137492   7.729   0.683   0.120
12517TIP3    H237493   7.825   0.632   0.015
12518TIP3   OH237494   8.382   5.135   0.210
12518TIP3    H137495   8.346   5.222   0.230
12518TIP3    H237496   8.471   5.153   0.179
12519TIP3   OH237497   1.005   3.644   5.842
12519TIP3    H137498   1.021   3.634   5.749
12519TIP3    H237499   0.963   3.730   5.851
12520TIP3   OH237500   1.349   0.111   4.363
12520TIP3    H137501   1.367   0.189   4.311
12520TIP3    H237502   1.388   0.130   4.448
12521TIP3   OH237503   0.151   6.704   5.094
12521TIP3    H137504   0.158   6.800   5.100
12521TIP3    H237505   0.201   6.681   5.016
12522TIP3   OH237506   6.585   4.084   3.100
12522TIP3    H137507   6.652   4.101   3.033
12522TIP3    H237508   6.576   3.989   3.101
12523TIP3   OH237509   3.181   2.491   0.755
12523TIP3    H137510   3.137   2.560   0.806
12523TIP3    H237511   3.274   2.508   0.767
12524TIP3   OH237512   4.693   1.657   5.794
12524TIP3    H137513   4.672   1.581   5.740
12524TIP3    H237514   4.684   1.626   5.884
12525TIP3   OH237515   6.273   3.834   4.038
12525TIP3    H137516   6.257   3.743   4.063
12525TIP3    H237517   6.365   3.836   4.012
12526TIP3   OH237518   1.098   4.425   5.846
12526TIP3    H137519   1.125   4.508   5.886
12526TIP3    H237520   1.176   4.370   5.850
12527TIP3   OH237521   1.567   4.639   3.583
12527TIP3    H137522   1.603   4.596   3.661
12527TIP3    H237523   1.473   4.630   3.592
12528TIP3   OH237524   3.133   4.873   4.314
12528TIP3    H137525   3.100   4.783   4.308
12528TIP3    H237526   3.179   4.887   4.232
12529TIP3   OH237527   4.208   0.515   1.168
12529TIP3    H137528   4.238   0.540   1.080
12529TIP3    H237529   4.119   0.482   1.154
12530TIP3   OH237530   4.194   7.269   1.135
12530TIP3    H137531   4.270   7.216   1.108
12530TIP3    H237532   4.232   7.339   1.188
12531TIP3   OH237533   1.370   0.174   6.085
12531TIP3    H137534   1.382   0.269   6.076
12531TIP3    H237535   1.432   0.136   6.022
12532TIP3   OH237536   1.587   0.102   3.112
12532TIP3    H137537   1.497   0.103   3.145
12532TIP3    H237538   1.585   0.042   3.038
12533TIP3   OH237539   4.289   4.212   4.120
12533TIP3    H137540   4.325   4.277   4.059
12533TIP3    H237541   4.348   4.137   4.114
12534TIP3   OH237542   4.413   2.717   2.799
12534TIP3    H137543   4.453   2.686   2.880
12534TIP3    H237544   4.446   2.806   2.788
12535TIP3   OH237545   1.420   1.839   4.664
12535TIP3    H137546   1.355   1.773   4.687
12535TIP3    H237547   1.407   1.853   4.570
12536TIP3   OH237548   3.747   6.201   5.055
12536TIP3    H137549   3.725   6.263   4.986
12536TIP3    H237550   3.663   6.174   5.091
12537TIP3   OH237551   4.085   3.114   0.655
12537TIP3    H137552   4.146   3.055   0.700
12537TIP3    H237553   3.999   3.085   0.683
12538TIP3   OH237554   8.144   1.095   5.284
12538TIP3    H137555   8.223   1.064   5.329
12538TIP3    H237556   8.177   1.161   5.223
12539TIP3   OH237557   6.590   1.720   1.989
12539TIP3    H137558   6.552   1.702   1.903
12539TIP3    H237559   6.684   1.727   1.973
12540TIP3   OH237560   3.821   3.063   4.450
12540TIP3    H137561   3.758   3.005   4.407
12540TIP3    H237562   3.877   3.004   4.501
12541TIP3   OH237563   2.279   3.124   3.508
12541TIP3    H137564   2.289   3.215   3.537
12541TIP3    H237565   2.247   3.077   3.584
12542TIP3   OH237566   1.156   6.407   0.822
12542TIP3    H137567   1.155   6.355   0.903
12542TIP3    H237568   1.109   6.353   0.758
12543TIP3   OH237569   1.865   0.505   0.319
12543TIP3    H137570   1.885   0.567   0.389
12543TIP3    H237571   1.857   0.420   0.363
12544TIP3   OH237572   0.648   0.772   1.558
12544TIP3    H137573   0.605   0.855   1.539
12544TIP3    H237574   0.640   0.762   1.653
12545TIP3   OH237575   5.153   6.256   1.252
12545TIP3    H137576   5.133   6.167   1.283
12545TIP3    H237577   5.191   6.244   1.165
12546TIP3   OH237578   1.399   3.385   5.607
12546TIP3    H137579   1.346   3.434   5.671
12546TIP3    H237580   1.489   3.412   5.625
12547TIP3   OH237581   0.841   6.007   3.802
12547TIP3    H137582   0.868   5.939   3.864
12547TIP3    H237583   0.791   5.960   3.734
12548TIP3   OH237584   1.806   3.453   3.477
12548TIP3    H137585   1.738   3.431   3.540
12548TIP3    H237586   1.841   3.369   3.448
12549TIP3   OH237587   1.723   6.598   2.043
12549TIP3    H137588   1.656   6.647   1.997
12549TIP3    H237589   1.757   6.658   2.109
12550TIP3   OH237590   7.755   1.258   2.421
12550TIP3    H137591   7.847   1.256   2.447
12550TIP3    H237592   7.750   1.328   2.356
12551TIP3   OH237593   4.458   1.086   4.966
12551TIP3    H137594   4.500   1.043   5.040
12551TIP3    H237595   4.530   1.118   4.911
12552TIP3   OH237596   2.944   6.636   3.781
12552TIP3    H137597   2.994   6.717   3.789
12552TIP3    H237598   2.964   6.587   3.861
12553TIP3   OH237599   5.120   0.340   5.847
12553TIP3    H137600   5.203   0.307   5.879
12553TIP3    H237601   5.064   0.263   5.839
12554TIP3   OH237602   1.401   3.196   5.905
12554TIP3    H137603   1.400   3.177   5.999
12554TIP3    H237604   1.312   3.227   5.885
12555TIP3   OH237605   6.890   4.619   0.996
12555TIP3    H137606   6.833   4.670   1.053
12555TIP3    H237607   6.835   4.548   0.963
12556TIP3   OH237608   8.149   7.686   3.269
12556TIP3    H137609   8.065   7.718   3.235
12556TIP3    H237610   8.143   7.700   3.363
12557TIP3   OH237611   7.935   6.403   5.415
12557TIP3    H137612   8.029   6.400   5.401
12557TIP3    H237613   7.912   6.495   5.403
12558TIP3   OH237614   1.984   7.092   0.097
12558TIP3    H137615   1.912   7.057   0.045
12558TIP3    H237616   1.962   7.070   0.187
12559TIP3   OH237617   1.342   4.540   0.046
12559TIP3    H137618   1.426   4.517   0.087
12559TIP3    H237619   1.340   4.636   0.048
12560TIP3   OH237620   8.095   1.902   0.395
12560TIP3    H137621   8.096   1.972   0.330
12560TIP3    H237622   8.032   1.839   0.361
12561TIP3   OH237623   1.718   6.457   6.367
12561TIP3    H137624   1.649   6.515   6.399
12561TIP3    H237625   1.672   6.377   6.342
12562TIP3   OH237626   3.730   7.714   5.390
12562TIP3    H137627   3.774   7.635   5.422
12562TIP3    H237628   3.643   7.711   5.429
12563TIP3   OH237629   0.918   5.459   5.295
12563TIP3    H137630   0.994   5.403   5.308
12563TIP3    H237631   0.863   5.412   5.234
12564TIP3   OH237632   1.813   0.737   1.036
12564TIP3    H137633   1.760   0.812   1.063
12564TIP3    H237634   1.870   0.721   1.110
12565TIP3   OH237635   6.062   1.718   6.699
12565TIP3    H137636   6.012   1.724   6.780
12565TIP3    H237637   6.079   1.625   6.687
12566TIP3   OH237638   4.053   4.215   2.148
12566TIP3    H137639   4.087   4.294   2.191
12566TIP3    H237640   4.022   4.160   2.219
12567TIP3   OH237641   3.647   7.740   0.202
12567TIP3    H137642   3.730   7.715   0.242
12567TIP3    H237643   3.671   7.790   0.124
12568TIP3   OH237644   0.820   1.038   5.464
12568TIP3    H137645   0.838   1.063   5.554
12568TIP3    H237646   0.736   0.991   5.468
12569TIP3   OH237647   5.684   2.942   6.202
12569TIP3    H137648   5.736   2.862   6.215
12569TIP3    H237649   5.608   2.913   6.152
12570TIP3   OH237650   0.403   1.790   4.466
12570TIP3    H137651   0.335   1.787   4.399
12570TIP3    H237652   0.479   1.826   4.420
12571TIP3   OH237653   2.215   1.236   3.655
12571TIP3    H137654   2.287   1.217   3.595
12571TIP3    H237655   2.244   1.313   3.704
12572TIP3   OH237656   0.552   0.192   3.043
12572TIP3    H137657   0.538   0.194   3.137
12572TIP3    H237658   0.567   0.100   3.022
12573TIP3   OH237659   0.967   5.397   0.809
12573TIP3    H137660   0.901   5.385   0.740
12573TIP3    H237661   1.050   5.402   0.762
12574TIP3   OH237662   2.809   6.200   1.167
12574TIP3    H137663   2.784   6.161   1.083
12574TIP3    H237664   2.857   6.279   1.142
12575TIP3   OH237665   5.924   4.357   4.589
12575TIP3    H137666   5.834   4.329   4.601
12575TIP3    H237667   5.963   4.290   4.534
12576TIP3   OH237668   7.217   6.983   6.153
12576TIP3    H137669   7.275   6.910   6.134
12576TIP3    H237670   7.274   7.050   6.192
12577TIP3   OH237671   2.219   3.753   4.122
12577TIP3    H137672   2.231   3.659   4.108
12577TIP3    H237673   2.306   3.784   4.149
12578TIP3   OH237674   0.259   5.268   3.948
12578TIP3    H137675   0.223   5.355   3.968
12578TIP3    H237676   0.287   5.274   3.857
12579TIP3   OH237677  -0.007   1.748   5.462
12579TIP3    H137678   0.053   1.704   5.522
12579TIP3    H237679   0.022   1.839   5.461
12580TIP3   OH237680   2.247   3.636  -0.028
12580TIP3    H137681   2.322   3.629   0.031
12580TIP3    H237682   2.171   3.640   0.031
12581TIP3   OH237683   6.081   6.880   5.716
12581TIP3    H137684   6.052   6.963   5.755
12581TIP3    H237685   6.091   6.900   5.623
12582TIP3   OH237686   4.512   2.635   0.663
12582TIP3    H137687   4.546   2.722   0.685
12582TIP3    H237688   4.526   2.626   0.569
12583TIP3   OH237689   1.048   2.220   0.887
12583TIP3    H137690   1.123   2.276   0.906
12583TIP3    H237691   1.028   2.236   0.795
12584TIP3   OH237692   3.640   7.196   1.119
12584TIP3    H137693   3.731   7.200   1.089
12584TIP3    H237694   3.636   7.260   1.190
12585TIP3   OH237695   2.569   5.875   3.898
12585TIP3    H137696   2.607   5.890   3.811
12585TIP3    H237697   2.548   5.782   3.898
12586TIP3   OH237698   3.107   4.274   4.118
12586TIP3    H137699   3.196   4.307   4.110
12586TIP3    H237700   3.112   4.208   4.187
12587TIP3   OH237701   6.794   7.115   1.822
12587TIP3    H137702   6.816   7.103   1.915
12587TIP3    H237703   6.843   7.045   1.777
12588TIP3   OH237704   1.973   3.878   6.038
12588TIP3    H137705   1.896   3.831   6.007
12588TIP3    H237706   1.997   3.935   5.965
12589TIP3   OH237707   5.369   2.522   0.849
12589TIP3    H137708   5.374   2.519   0.753
12589TIP3    H237709   5.404   2.608   0.872
12590TIP3   OH237710   4.352   3.235   5.613
12590TIP3    H137711   4.266   3.268   5.587
12590TIP3    H237712   4.414   3.293   5.569
12591TIP3   OH237713   4.595   1.840   4.422
12591TIP3    H137714   4.536   1.849   4.496
12591TIP3    H237715   4.540   1.851   4.345
12592TIP3   OH237716   6.840   6.260   5.537
12592TIP3    H137717   6.824   6.306   5.455
12592TIP3    H237718   6.754   6.224   5.562
12593TIP3   OH237719   2.143   1.389   6.159
12593TIP3    H137720   2.211   1.450   6.187
12593TIP3    H237721   2.178   1.302   6.178
12594TIP3   OH237722   6.617   4.318   6.300
12594TIP3    H137723   6.534   4.333   6.255
12594TIP3    H237724   6.610   4.368   6.381
12595TIP3   OH237725   5.667   6.190   3.704
12595TIP3    H137726   5.750   6.237   3.694
12595TIP3    H237727   5.692   6.105   3.739
12596TIP3   OH237728   6.972   5.521   3.407
12596TIP3    H137729   7.053   5.567   3.386
12596TIP3    H237730   6.903   5.587   3.398
12597TIP3   OH237731   0.420   3.784   6.160
12597TIP3    H137732   0.331   3.779   6.196
12597TIP3    H237733   0.449   3.694   6.155
12598TIP3   OH237734   4.605   3.647   2.964
12598TIP3    H137735   4.689   3.693   2.957
12598TIP3    H237736   4.560   3.691   3.036
12599TIP3   OH237737   6.687   3.042   4.112
12599TIP3    H137738   6.662   3.122   4.065
12599TIP3    H237739   6.731   3.074   4.191
12600TIP3   OH237740   0.613   6.972   6.079
12600TIP3    H137741   0.582   7.056   6.048
12600TIP3    H237742   0.696   6.991   6.123
12601TIP3   OH237743   0.106   5.344   5.570
12601TIP3    H137744   0.102   5.294   5.488
12601TIP3    H237745   0.042   5.415   5.558
12602TIP3   OH237746   1.338   3.958   2.218
12602TIP3    H137747   1.326   3.958   2.123
12602TIP3    H237748   1.254   3.931   2.253
12603TIP3   OH237749   4.580   2.680   3.518
12603TIP3    H137750   4.598   2.751   3.579
12603TIP3    H237751   4.666   2.645   3.495
12604TIP3   OH237752   2.007   4.122   3.432
12604TIP3    H137753   1.993   4.038   3.389
12604TIP3    H237754   1.964   4.186   3.375
12605TIP3   OH237755   4.107   2.561   0.215
12605TIP3    H137756   4.187   2.565   0.268
12605TIP3    H237757   4.036   2.549   0.279
12606TIP3   OH237758   0.170   4.629   5.993
12606TIP3    H137759   0.105   4.630   5.922
12606TIP3    H237760   0.215   4.545   5.983
12607TIP3   OH237761   2.877   2.612   4.191
12607TIP3    H137762   2.889   2.519   4.175
12607TIP3    H237763   2.856   2.649   4.106
12608TIP3   OH237764   3.016   0.102   0.891
12608TIP3    H137765   3.037   0.138   0.978
12608TIP3    H237766   3.065   0.157   0.830
12609TIP3   OH237767   7.270   5.222   0.659
12609TIP3    H137768   7.291   5.128   0.657
12609TIP3    H237769   7.177   5.226   0.636
12610TIP3   OH237770   1.214   5.558   5.921
12610TIP3    H137771   1.131   5.604   5.931
12610TIP3    H237772   1.277   5.612   5.968
12611TIP3   OH237773   3.199   6.761   4.654
12611TIP3    H137774   3.223   6.793   4.741
12611TIP3    H237775   3.161   6.837   4.610
12612TIP3   OH237776   0.022   5.505   3.258
12612TIP3    H137777   0.067   5.529   3.178
12612TIP3    H237778   0.028   5.582   3.314
12613TIP3   OH237779   8.244   6.385   5.366
12613TIP3    H137780   8.302   6.418   5.298
12613TIP3    H237781   8.301   6.366   5.440
12614TIP3   OH237782   0.152   0.135   3.652
12614TIP3    H137783   0.173   0.049   3.688
12614TIP3    H237784   0.175   0.197   3.722
12615TIP3   OH237785   4.562   7.847   5.027
12615TIP3    H137786   4.606   7.778   5.076
12615TIP3    H237787   4.628   7.916   5.018
12616TIP3   OH237788   0.296   6.672   4.827
12616TIP3    H137789   0.382   6.712   4.816
12616TIP3    H237790   0.237   6.728   4.776
12617TIP3   OH237791   0.009   1.625   5.144
12617TIP3    H137792   0.051   1.578   5.215
12617TIP3    H237793   0.015   1.566   5.069
12618TIP3   OH237794   8.189   4.501   4.298
12618TIP3    H137795   8.123   4.432   4.288
12618TIP3    H237796   8.161   4.570   4.238
12619TIP3   OH237797   7.061   6.667   5.145
12619TIP3    H137798   7.012   6.592   5.110
12619TIP3    H237799   7.049   6.660   5.240
12620TIP3   OH237800   0.961   3.484   6.054
12620TIP3    H137801   0.982   3.522   5.969
12620TIP3    H237802   0.866   3.469   6.049
12621TIP3   OH237803   7.696   1.533   5.338
12621TIP3    H137804   7.621   1.544   5.395
12621TIP3    H237805   7.720   1.441   5.346
12622TIP3   OH237806   4.952   6.823   0.103
12622TIP3    H137807   5.014   6.896   0.105
12622TIP3    H237808   4.906   6.829   0.187
12623TIP3   OH237809   1.349   7.556   6.594
12623TIP3    H137810   1.374   7.587   6.681
12623TIP3    H237811   1.254   7.557   6.594
12624TIP3   OH237812   3.848   1.466   0.522
12624TIP3    H137813   3.903   1.530   0.476
12624TIP3    H237814   3.849   1.389   0.466
12625TIP3   OH237815   3.519   0.863   2.713
12625TIP3    H137816   3.451   0.803   2.742
12625TIP3    H237817   3.562   0.892   2.794
12626TIP3   OH237818   7.933   0.117   2.449
12626TIP3    H137819   7.932   0.204   2.489
12626TIP3    H237820   7.844   0.105   2.415
12627TIP3   OH237821   6.112   4.394   1.741
12627TIP3    H137822   6.152   4.441   1.814
12627TIP3    H237823   6.019   4.414   1.747
12628TIP3   OH237824   0.360   5.334   5.775
12628TIP3    H137825   0.376   5.314   5.868
12628TIP3    H237826   0.268   5.311   5.761
12629TIP3   OH237827   3.640   5.006   1.723
12629TIP3    H137828   3.551   4.992   1.755
12629TIP3    H237829   3.629   5.043   1.636
12630TIP3   OH237830   2.243   1.676   6.137
12630TIP3    H137831   2.262   1.652   6.228
12630TIP3    H237832   2.318   1.730   6.111
12631TIP3   OH237833   0.745   4.091   0.519
12631TIP3    H137834   0.823   4.092   0.464
12631TIP3    H237835   0.672   4.087   0.457
12632TIP3   OH237836   1.983   1.607   2.832
12632TIP3    H137837   1.994   1.700   2.852
12632TIP3    H237838   2.059   1.585   2.779
12633TIP3   OH237839   2.790   4.115   6.765
12633TIP3    H137840   2.864   4.088   6.820
12633TIP3    H237841   2.726   4.044   6.773
12634TIP3   OH237842   3.302   1.620   5.591
12634TIP3    H137843   3.242   1.695   5.591
12634TIP3    H237844   3.387   1.657   5.613
12635TIP3   OH237845   4.368   3.724   4.928
12635TIP3    H137846   4.424   3.672   4.869
12635TIP3    H237847   4.281   3.685   4.919
12636TIP3   OH237848   7.744   5.807   1.071
12636TIP3    H137849   7.760   5.867   1.144
12636TIP3    H237850   7.704   5.861   1.003
12637TIP3   OH237851   2.685   4.106   1.006
12637TIP3    H137852   2.668   4.134   1.096
12637TIP3    H237853   2.774   4.136   0.989
12638TIP3   OH237854   6.124   4.931   3.570
12638TIP3    H137855   6.158   4.987   3.639
12638TIP3    H237856   6.127   4.985   3.491
12639TIP3   OH237857   5.443   2.484   4.042
12639TIP3    H137858   5.516   2.458   3.986
12639TIP3    H237859   5.386   2.534   3.985
12640TIP3   OH237860   2.620   4.696   4.995
12640TIP3    H137861   2.645   4.611   5.031
12640TIP3    H237862   2.689   4.756   5.025
12641TIP3   OH237863   4.508   6.756   6.311
12641TIP3    H137864   4.519   6.693   6.382
12641TIP3    H237865   4.436   6.721   6.258
12642TIP3   OH237866   6.528   6.219   4.451
12642TIP3    H137867   6.506   6.145   4.508
12642TIP3    H237868   6.443   6.258   4.429
12643TIP3   OH237869   6.065   2.835   0.865
12643TIP3    H137870   6.136   2.827   0.929
12643TIP3    H237871   6.060   2.929   0.847
12644TIP3   OH237872   1.941   0.775   2.570
12644TIP3    H137873   1.850   0.806   2.569
12644TIP3    H237874   1.989   0.842   2.618
12645TIP3   OH237875   1.211   5.191   6.257
12645TIP3    H137876   1.287   5.240   6.226
12645TIP3    H237877   1.146   5.199   6.188
12646TIP3   OH237878   3.227   4.777   3.592
12646TIP3    H137879   3.258   4.841   3.656
12646TIP3    H237880   3.158   4.729   3.639
12647TIP3   OH237881   4.559   2.711   6.828
12647TIP3    H137882   4.616   2.644   6.790
12647TIP3    H237883   4.593   2.794   6.795
12648TIP3   OH237884   4.912   3.596   2.984
12648TIP3    H137885   5.005   3.577   2.979
12648TIP3    H237886   4.905   3.688   2.960
12649TIP3   OH237887   0.205   2.925   2.104
12649TIP3    H137888   0.218   2.965   2.190
12649TIP3    H237889   0.120   2.881   2.110
12650TIP3   OH237890   7.936   5.526   1.772
12650TIP3    H137891   7.925   5.618   1.749
12650TIP3    H237892   7.948   5.526   1.867
12651TIP3   OH237893   6.486   7.335   1.573
12651TIP3    H137894   6.402   7.318   1.531
12651TIP3    H237895   6.463   7.385   1.652
12652TIP3   OH237896   1.338   6.683   1.146
12652TIP3    H137897   1.304   6.597   1.170
12652TIP3    H237898   1.422   6.665   1.105
12653TIP3   OH237899   0.905   6.403   5.528
12653TIP3    H137900   0.875   6.348   5.455
12653TIP3    H237901   0.968   6.463   5.488
12654TIP3   OH237902   1.120   0.342   3.224
12654TIP3    H137903   1.130   0.433   3.194
12654TIP3    H237904   1.032   0.318   3.197
12655TIP3   OH237905   4.267   7.328   0.776
12655TIP3    H137906   4.284   7.252   0.720
12655TIP3    H237907   4.355   7.359   0.800
12656TIP3   OH237908   5.107   4.595   3.812
12656TIP3    H137909   5.072   4.542   3.883
12656TIP3    H237910   5.201   4.602   3.832
12657TIP3   OH237911   5.115   1.674   0.314
12657TIP3    H137912   5.145   1.683   0.404
12657TIP3    H237913   5.192   1.695   0.261
12658TIP3   OH237914   7.647   6.574   1.938
12658TIP3    H137915   7.647   6.485   1.974
12658TIP3    H237916   7.692   6.566   1.854
12659TIP3   OH237917   7.504   5.310   4.509
12659TIP3    H137918   7.500   5.386   4.566
12659TIP3    H237919   7.537   5.239   4.565
12660TIP3   OH237920   0.957   7.405   4.427
12660TIP3    H137921   0.953   7.309   4.432
12660TIP3    H237922   0.903   7.435   4.500
12661TIP3   OH237923   4.686   6.090   1.719
12661TIP3    H137924   4.605   6.054   1.685
12661TIP3    H237925   4.755   6.044   1.671
12662TIP3   OH237926   3.899   1.186   4.189
12662TIP3    H137927   3.821   1.131   4.177
12662TIP3    H237928   3.935   1.159   4.273
12663TIP3   OH237929   2.802   5.840   2.343
12663TIP3    H137930   2.791   5.850   2.438
12663TIP3    H237931   2.883   5.887   2.324
12664TIP3   OH237932   5.853   5.538   2.283
12664TIP3    H137933   5.898   5.619   2.307
12664TIP3    H237934   5.920   5.484   2.242
12665TIP3   OH237935   2.696   0.796   6.593
12665TIP3    H137936   2.756   0.793   6.667
12665TIP3    H237937   2.671   0.888   6.586
12666TIP3   OH237938   3.396   4.600   3.429
12666TIP3    H137939   3.334   4.659   3.472
12666TIP3    H237940   3.342   4.544   3.373
12667TIP3   OH237941   1.334   5.739   2.754
12667TIP3    H137942   1.355   5.648   2.733
12667TIP3    H237943   1.294   5.773   2.674
12668TIP3   OH237944   2.595   6.702   0.133
12668TIP3    H137945   2.581   6.610   0.157
12668TIP3    H237946   2.548   6.752   0.199
12669TIP3   OH237947   7.966   4.571   3.479
12669TIP3    H137948   7.931   4.557   3.567
12669TIP3    H237949   8.034   4.638   3.491
12670TIP3   OH237950   1.262   5.546   1.421
12670TIP3    H137951   1.218   5.531   1.504
12670TIP3    H237952   1.353   5.521   1.437
12671TIP3   OH237953   7.137   0.088   3.892
12671TIP3    H137954   7.151   0.173   3.851
12671TIP3    H237955   7.070   0.046   3.839
12672TIP3   OH237956   6.830   3.873   3.953
12672TIP3    H137957   6.832   3.968   3.949
12672TIP3    H237958   6.907   3.850   4.005
12673TIP3   OH237959   1.970   0.551   3.704
12673TIP3    H137960   1.971   0.455   3.702
12673TIP3    H237961   1.880   0.573   3.726
12674TIP3   OH237962   1.423   3.708   2.645
12674TIP3    H137963   1.328   3.713   2.642
12674TIP3    H237964   1.451   3.792   2.681
12675TIP3   OH237965   3.403   1.108   6.558
12675TIP3    H137966   3.496   1.103   6.579
12675TIP3    H237967   3.383   1.202   6.556
12676TIP3   OH237968   7.410   2.760   0.428
12676TIP3    H137969   7.350   2.721   0.491
12676TIP3    H237970   7.425   2.849   0.460
12677TIP3   OH237971   4.219   4.161   4.876
12677TIP3    H137972   4.144   4.215   4.900
12677TIP3    H237973   4.254   4.130   4.960
12678TIP3   OH237974   4.807   4.554   5.179
12678TIP3    H137975   4.810   4.633   5.125
12678TIP3    H237976   4.761   4.489   5.125
12679TIP3   OH237977   2.874   3.088   5.915
12679TIP3    H137978   2.800   3.122   5.865
12679TIP3    H237979   2.881   2.996   5.889
12680TIP3   OH237980   0.789   5.390   1.486
12680TIP3    H137981   0.752   5.307   1.457
12680TIP3    H237982   0.882   5.370   1.502
12681TIP3   OH237983   8.016   1.552   2.891
12681TIP3    H137984   7.955   1.534   2.819
12681TIP3    H237985   7.999   1.644   2.914
12682TIP3   OH237986   3.264   0.799   2.806
12682TIP3    H137987   3.249   0.713   2.768
12682TIP3    H237988   3.177   0.834   2.823
12683TIP3   OH237989   3.507   3.016   2.577
12683TIP3    H137990   3.573   3.005   2.508
12683TIP3    H237991   3.459   2.933   2.577
12684TIP3   OH237992   4.985   5.062   4.507
12684TIP3    H137993   5.012   5.095   4.421
12684TIP3    H237994   4.896   5.031   4.494
12685TIP3   OH237995   6.120   7.185   6.328
12685TIP3    H137996   6.084   7.128   6.395
12685TIP3    H237997   6.046   7.239   6.300
12686TIP3   OH237998   5.108   7.351   4.301
12686TIP3    H137999   5.094   7.270   4.349
12686TIP3    H238000   5.195   7.381   4.328
12687TIP3   OH238001   7.928   1.543   6.091
12687TIP3    H138002   7.977   1.469   6.127
12687TIP3    H238003   7.981   1.620   6.112
12688TIP3   OH238004   3.045   5.421   3.396
12688TIP3    H138005   3.067   5.502   3.440
12688TIP3    H238006   3.093   5.353   3.444
12689TIP3   OH238007   4.969   6.834   3.481
12689TIP3    H138008   4.988   6.846   3.388
12689TIP3    H238009   4.875   6.851   3.490
12690TIP3   OH238010   0.845   0.453   4.386
12690TIP3    H138011   0.842   0.458   4.291
12690TIP3    H238012   0.902   0.526   4.412
12691TIP3   OH238013   8.137   2.296   1.311
12691TIP3    H138014   8.119   2.337   1.396
12691TIP3    H238015   8.232   2.282   1.312
12692TIP3   OH238016   5.316   6.031   3.291
12692TIP3    H138017   5.290   5.979   3.215
12692TIP3    H238018   5.306   5.971   3.365
12693TIP3   OH238019   2.404   2.544   3.603
12693TIP3    H138020   2.484   2.541   3.656
12693TIP3    H238021   2.334   2.561   3.666
12694TIP3   OH238022   0.589   3.350   3.858
12694TIP3    H138023   0.649   3.337   3.932
12694TIP3    H238024   0.511   3.388   3.898
12695TIP3   OH238025   8.097   4.262   5.659
12695TIP3    H138026   8.021   4.266   5.600
12695TIP3    H238027   8.064   4.297   5.742
12696TIP3   OH238028   4.761   3.801   5.466
12696TIP3    H138029   4.740   3.708   5.461
12696TIP3    H238030   4.705   3.835   5.536
12697TIP3   OH238031   2.725   1.229   6.042
12697TIP3    H138032   2.736   1.146   5.994
12697TIP3    H238033   2.632   1.229   6.067
12698TIP3   OH238034   3.278   3.222   0.581
12698TIP3    H138035   3.352   3.191   0.633
12698TIP3    H238036   3.318   3.262   0.504
12699TIP3   OH238037   5.677   6.882   5.852
12699TIP3    H138038   5.608   6.825   5.885
12699TIP3    H238039   5.700   6.846   5.767
12700TIP3   OH238040   2.697   4.506   0.893
12700TIP3    H138041   2.789   4.504   0.917
12700TIP3    H238042   2.674   4.415   0.875
12701TIP3   OH238043   4.434   0.311   0.616
12701TIP3    H138044   4.501   0.379   0.604
12701TIP3    H238045   4.483   0.229   0.618
12702TIP3   OH238046   2.204   4.960   3.523
12702TIP3    H138047   2.130   4.933   3.469
12702TIP3    H238048   2.185   4.926   3.610
12703TIP3   OH238049   8.338   3.913   0.774
12703TIP3    H138050   8.298   4.000   0.770
12703TIP3    H238051   8.282   3.858   0.720
12704TIP3   OH238052   8.102   7.477   4.769
12704TIP3    H138053   8.051   7.551   4.803
12704TIP3    H238054   8.062   7.400   4.808
12705TIP3   OH238055   6.146   4.256   6.507
12705TIP3    H138056   6.105   4.329   6.555
12705TIP3    H238057   6.230   4.244   6.551
12706TIP3   OH238058   2.904   1.263   2.890
12706TIP3    H138059   2.923   1.345   2.936
12706TIP3    H238060   2.972   1.203   2.919
12707TIP3   OH238061   7.276   1.038   3.566
12707TIP3    H138062   7.192   0.995   3.550
12707TIP3    H238063   7.295   1.086   3.486
12708TIP3   OH238064   5.359   7.428   5.239
12708TIP3    H138065   5.389   7.408   5.328
12708TIP3    H238066   5.436   7.415   5.185
12709TIP3   OH238067   4.047   1.298   2.227
12709TIP3    H138068   4.108   1.224   2.216
12709TIP3    H238069   3.983   1.267   2.290
12710TIP3   OH238070   8.282   2.159   0.916
12710TIP3    H138071   8.345   2.209   0.968
12710TIP3    H238072   8.256   2.219   0.847
12711TIP3   OH238073   3.054   3.851   1.716
12711TIP3    H138074   2.971   3.883   1.682
12711TIP3    H238075   3.098   3.929   1.750
12712TIP3   OH238076   0.841   6.289   5.298
12712TIP3    H138077   0.914   6.319   5.245
12712TIP3    H238078   0.803   6.217   5.247
12713TIP3   OH238079   6.610   0.638   3.769
12713TIP3    H138080   6.670   0.709   3.744
12713TIP3    H238081   6.525   0.680   3.777
12714TIP3   OH238082   5.500   3.930   4.764
12714TIP3    H138083   5.553   3.999   4.804
12714TIP3    H238084   5.459   3.886   4.838
12715TIP3   OH238085   5.858   6.204   5.979
12715TIP3    H138086   5.926   6.220   6.044
12715TIP3    H238087   5.811   6.287   5.972
12716TIP3   OH238088   6.781   6.442   6.197
12716TIP3    H138089   6.747   6.529   6.218
12716TIP3    H238090   6.724   6.382   6.244
12717TIP3   OH238091   4.884   5.020   1.715
12717TIP3    H138092   4.888   4.954   1.646
12717TIP3    H238093   4.937   4.985   1.786
12718TIP3   OH238094   6.403   7.108   2.152
12718TIP3    H138095   6.440   7.120   2.065
12718TIP3    H238096   6.323   7.160   2.152
12719TIP3   OH238097   8.088   0.869   5.972
12719TIP3    H138098   8.105   0.778   5.997
12719TIP3    H238099   8.026   0.862   5.899
12720TIP3   OH238100   3.760   3.261   0.284
12720TIP3    H138101   3.677   3.217   0.269
12720TIP3    H238102   3.754   3.294   0.374
12721TIP3   OH238103   1.121   0.454   3.742
12721TIP3    H138104   1.124   0.418   3.830
12721TIP3    H238105   1.028   0.470   3.726
12722TIP3   OH238106   7.972   0.116   0.556
12722TIP3    H138107   7.998   0.041   0.608
12722TIP3    H238108   8.025   0.188   0.590
12723TIP3   OH238109   6.427   7.669   0.951
12723TIP3    H138110   6.363   7.707   1.011
12723TIP3    H238111   6.501   7.644   1.006
12724TIP3   OH238112   0.852   6.598   3.578
12724TIP3    H138113   0.852   6.549   3.660
12724TIP3    H238114   0.761   6.626   3.566
12725TIP3   OH238115   7.511   1.219   3.804
12725TIP3    H138116   7.602   1.192   3.789
12725TIP3    H238117   7.513   1.263   3.889
12726TIP3   OH238118   1.568   1.629   6.059
12726TIP3    H138119   1.645   1.595   6.014
12726TIP3    H238120   1.506   1.556   6.057
12727TIP3   OH238121   4.075   3.765   4.864
12727TIP3    H138122   4.039   3.854   4.868
12727TIP3    H238123   4.083   3.746   4.771
12728TIP3   OH238124   2.101   0.419   6.689
12728TIP3    H138125   2.173   0.446   6.746
12728TIP3    H238126   2.132   0.339   6.647
12729TIP3   OH238127   3.219   4.292   0.125
12729TIP3    H138128   3.258   4.269   0.210
12729TIP3    H238129   3.236   4.386   0.116
12730TIP3   OH238130   6.457   2.549   0.535
12730TIP3    H138131   6.409   2.538   0.452
12730TIP3    H238132   6.476   2.643   0.539
12731TIP3   OH238133   0.332   0.412   4.334
12731TIP3    H138134   0.289   0.417   4.248
12731TIP3    H238135   0.271   0.362   4.388
12732TIP3   OH238136   6.033   7.391   1.085
12732TIP3    H138137   5.974   7.321   1.056
12732TIP3    H238138   6.121   7.354   1.073
12733TIP3   OH238139   5.956   6.723   2.253
12733TIP3    H138140   6.049   6.745   2.250
12733TIP3    H238141   5.932   6.707   2.162
12734TIP3   OH238142   4.213   5.037   6.262
12734TIP3    H138143   4.210   5.071   6.173
12734TIP3    H238144   4.300   5.060   6.294
12735TIP3   OH238145   3.086   4.641   3.788
12735TIP3    H138146   3.087   4.553   3.826
12735TIP3    H238147   3.031   4.692   3.847
12736TIP3   OH238148   1.553   3.671   5.799
12736TIP3    H138149   1.550   3.583   5.836
12736TIP3    H238150   1.463   3.703   5.804
12737TIP3   OH238151   8.384   5.535   4.673
12737TIP3    H138152   8.366   5.623   4.705
12737TIP3    H238153   8.417   5.548   4.584
12738TIP3   OH238154   5.480   2.456   6.586
12738TIP3    H138155   5.465   2.527   6.650
12738TIP3    H238156   5.526   2.389   6.636
12739TIP3   OH238157   5.720   0.297   5.811
12739TIP3    H138158   5.658   0.370   5.807
12739TIP3    H238159   5.674   0.230   5.862
12740TIP3   OH238160   1.317   3.923   5.553
12740TIP3    H138161   1.240   3.928   5.608
12740TIP3    H238162   1.303   3.845   5.498
12741TIP3   OH238163   6.835   0.080   2.979
12741TIP3    H138164   6.929   0.061   2.984
12741TIP3    H238165   6.809   0.094   3.070
12742TIP3   OH238166   4.440   0.853   1.261
12742TIP3    H138167   4.453   0.915   1.190
12742TIP3    H238168   4.527   0.837   1.296
12743TIP3   OH238169   6.024   3.861   1.672
12743TIP3    H138170   6.029   3.913   1.591
12743TIP3    H238171   6.025   3.770   1.642
12744TIP3   OH238172   0.006   0.805   4.561
12744TIP3    H138173   0.092   0.841   4.542
12744TIP3    H238174   0.001   0.804   4.657
12745TIP3   OH238175   1.528   6.594   3.443
12745TIP3    H138176   1.561   6.623   3.358
12745TIP3    H238177   1.516   6.675   3.493
12746TIP3   OH238178   4.458   5.803   1.415
12746TIP3    H138179   4.497   5.715   1.418
12746TIP3    H238180   4.364   5.787   1.414
12747TIP3   OH238181   0.946   6.795   0.473
12747TIP3    H138182   0.896   6.762   0.399
12747TIP3    H238183   1.003   6.723   0.498
12748TIP3   OH238184   3.468   4.518   5.612
12748TIP3    H138185   3.502   4.589   5.666
12748TIP3    H238186   3.475   4.550   5.523
12749TIP3   OH238187   4.990   3.950   3.147
12749TIP3    H138188   4.953   4.004   3.217
12749TIP3    H238189   5.066   3.908   3.186
12750TIP3   OH238190   7.852   3.622   3.411
12750TIP3    H138191   7.757   3.634   3.409
12750TIP3    H238192   7.870   3.590   3.500
12751TIP3   OH238193   7.418   0.051   6.356
12751TIP3    H138194   7.469  -0.014   6.403
12751TIP3    H238195   7.405   0.122   6.420
12752TIP3   OH238196   4.001   2.048   5.239
12752TIP3    H138197   3.953   2.131   5.245
12752TIP3    H238198   4.088   2.074   5.208
12753TIP3   OH238199   5.876   1.755   3.550
12753TIP3    H138200   5.813   1.762   3.622
12753TIP3    H238201   5.834   1.698   3.487
12754TIP3   OH238202   8.371   6.080   5.462
12754TIP3    H138203   8.293   6.073   5.406
12754TIP3    H238204   8.401   5.990   5.472
12755TIP3   OH238205   0.915   7.493   3.299
12755TIP3    H138206   0.951   7.569   3.346
12755TIP3    H238207   0.841   7.528   3.250
12756TIP3   OH238208   1.027   2.888   4.467
12756TIP3    H138209   1.078   2.815   4.431
12756TIP3    H238210   0.992   2.854   4.549
12757TIP3   OH238211   4.400   6.249   0.611
12757TIP3    H138212   4.491   6.220   0.617
12757TIP3    H238213   4.390   6.281   0.522
12758TIP3   OH238214   7.534   0.863   6.546
12758TIP3    H138215   7.507   0.825   6.629
12758TIP3    H238216   7.626   0.889   6.560
12759TIP3   OH238217   1.247   3.780   3.461
12759TIP3    H138218   1.198   3.854   3.428
12759TIP3    H238219   1.327   3.818   3.497
12760TIP3   OH238220   0.786   2.151   0.426
12760TIP3    H138221   0.853   2.217   0.405
12760TIP3    H238222   0.731   2.192   0.492
12761TIP3   OH238223   4.530   4.775   0.090
12761TIP3    H138224   4.525   4.820   0.174
12761TIP3    H238225   4.446   4.793   0.048
12762TIP3   OH238226   5.925   2.180   1.417
12762TIP3    H138227   5.955   2.183   1.508
12762TIP3    H238228   5.945   2.267   1.382
12763TIP3   OH238229   5.254   3.507   4.182
12763TIP3    H138230   5.340   3.544   4.202
12763TIP3    H238231   5.265   3.466   4.096
12764TIP3   OH238232   0.635   3.685   3.674
12764TIP3    H138233   0.588   3.736   3.608
12764TIP3    H238234   0.658   3.748   3.742
12765TIP3   OH238235   2.532   3.651   1.470
12765TIP3    H138236   2.498   3.737   1.491
12765TIP3    H238237   2.604   3.637   1.532
12766TIP3   OH238238   4.093   0.918   4.628
12766TIP3    H138239   4.124   0.945   4.542
12766TIP3    H238240   4.006   0.880   4.612
12767TIP3   OH238241   4.710   6.597   5.786
12767TIP3    H138242   4.674   6.520   5.828
12767TIP3    H238243   4.801   6.574   5.766
12768TIP3   OH238244   0.305   4.690   3.297
12768TIP3    H138245   0.215   4.718   3.280
12768TIP3    H238246   0.296   4.621   3.363
12769TIP3   OH238247   2.267   5.398   1.987
12769TIP3    H138248   2.192   5.369   2.038
12769TIP3    H238249   2.316   5.455   2.045
12770TIP3   OH238250   5.534   5.632   1.017
12770TIP3    H138251   5.546   5.541   0.990
12770TIP3    H238252   5.588   5.641   1.096
12771TIP3   OH238253   6.774   5.941   0.922
12771TIP3    H138254   6.814   5.921   0.837
12771TIP3    H238255   6.709   5.872   0.934
12772TIP3   OH238256   1.431   2.995   2.937
12772TIP3    H138257   1.417   3.023   2.846
12772TIP3    H238258   1.507   3.045   2.966
12773TIP3   OH238259   0.426   0.933   5.956
12773TIP3    H138260   0.412   0.926   6.051
12773TIP3    H238261   0.371   1.007   5.929
12774TIP3   OH238262   2.202   7.669   0.067
12774TIP3    H138263   2.192   7.654   0.161
12774TIP3    H238264   2.282   7.621   0.043
12775TIP3   OH238265   2.647   5.576   3.584
12775TIP3    H138266   2.558   5.542   3.585
12775TIP3    H238267   2.638   5.669   3.600
12776TIP3   OH238268   6.378   5.041   1.289
12776TIP3    H138269   6.357   5.105   1.357
12776TIP3    H238270   6.377   5.091   1.208
12777TIP3   OH238271   2.442   0.440   1.589
12777TIP3    H138272   2.441   0.510   1.655
12777TIP3    H238273   2.533   0.411   1.586
12778TIP3   OH238274   5.099   4.825   6.284
12778TIP3    H138275   5.039   4.873   6.226
12778TIP3    H238276   5.165   4.890   6.307
12779TIP3   OH238277   2.217   0.288   1.590
12779TIP3    H138278   2.294   0.343   1.604
12779TIP3    H238279   2.198   0.251   1.676
12780TIP3   OH238280   5.715   7.736   5.811
12780TIP3    H138281   5.767   7.816   5.812
12780TIP3    H238282   5.751   7.685   5.739
12781TIP3   OH238283   3.077   2.565   6.626
12781TIP3    H138284   3.004   2.553   6.686
12781TIP3    H238285   3.070   2.656   6.597
12782TIP3   OH238286   1.910   1.800   1.135
12782TIP3    H138287   1.991   1.839   1.101
12782TIP3    H238288   1.841   1.836   1.079
12783TIP3   OH238289   6.400   4.295   6.660
12783TIP3    H138290   6.447   4.335   6.733
12783TIP3    H238291   6.346   4.366   6.625
12784TIP3   OH238292   7.681   0.509   6.208
12784TIP3    H138293   7.763   0.555   6.190
12784TIP3    H238294   7.631   0.570   6.263
12785TIP3   OH238295   2.434   2.214   4.494
12785TIP3    H138296   2.374   2.179   4.561
12785TIP3    H238297   2.475   2.137   4.455
12786TIP3   OH238298   3.559   2.585   1.107
12786TIP3    H138299   3.619   2.610   1.037
12786TIP3    H238300   3.515   2.667   1.131
12787TIP3   OH238301   2.864   7.621   1.207
12787TIP3    H138302   2.911   7.557   1.152
12787TIP3    H238303   2.790   7.572   1.242
12788TIP3   OH238304   7.695   3.717   0.704
12788TIP3    H138305   7.654   3.785   0.651
12788TIP3    H238306   7.751   3.669   0.644
12789TIP3   OH238307   7.296   1.302   1.635
12789TIP3    H138308   7.332   1.360   1.701
12789TIP3    H238309   7.241   1.359   1.581
12790TIP3   OH238310   2.047   5.107   5.447
12790TIP3    H138311   2.031   5.036   5.509
12790TIP3    H238312   1.970   5.163   5.453
12791TIP3   OH238313   1.248   7.154   5.188
12791TIP3    H138314   1.298   7.232   5.161
12791TIP3    H238315   1.167   7.189   5.225
12792TIP3   OH238316   5.981   6.304   1.635
12792TIP3    H138317   5.907   6.290   1.694
12792TIP3    H238318   6.052   6.333   1.693
12793TIP3   OH238319   8.050   3.666   0.059
12793TIP3    H138320   7.976   3.726   0.056
12793TIP3    H238321   8.024   3.599   0.122
12794TIP3   OH238322   3.890   4.065   5.101
12794TIP3    H138323   3.951   4.122   5.054
12794TIP3    H238324   3.934   3.980   5.105
12795TIP3   OH238325   4.657   7.321   0.487
12795TIP3    H138326   4.600   7.398   0.496
12795TIP3    H238327   4.681   7.319   0.395
12796TIP3   OH238328   3.067   0.255   4.482
12796TIP3    H138329   3.035   0.167   4.503
12796TIP3    H238330   3.048   0.306   4.561
12797TIP3   OH238331   4.718   5.175   0.020
12797TIP3    H138332   4.624   5.170   0.038
12797TIP3    H238333   4.725   5.242  -0.048
12798TIP3   OH238334   4.655   0.502   0.521
12798TIP3    H138335   4.686   0.559   0.592
12798TIP3    H238336   4.733   0.454   0.493
12799TIP3   OH238337   4.190   6.443   3.870
12799TIP3    H138338   4.265   6.500   3.853
12799TIP3    H238339   4.227   6.369   3.919
12800TIP3   OH238340   2.734   5.551   2.136
12800TIP3    H138341   2.721   5.473   2.190
12800TIP3    H238342   2.827   5.552   2.116
12801TIP3   OH238343   1.437   2.597   4.887
12801TIP3    H138344   1.460   2.572   4.798
12801TIP3    H238345   1.512   2.647   4.919
12802TIP3   OH238346   6.768   1.843   1.723
12802TIP3    H138347   6.691   1.795   1.694
12802TIP3    H238348   6.810   1.786   1.787
12803TIP3   OH238349   0.534   3.169   3.114
12803TIP3    H138350   0.517   3.130   3.199
12803TIP3    H238351   0.590   3.244   3.132
12804TIP3   OH238352   3.014   1.954   6.334
12804TIP3    H138353   3.066   2.034   6.338
12804TIP3    H238354   2.995   1.942   6.240
12805TIP3   OH238355   1.604   5.259   2.611
12805TIP3    H138356   1.665   5.329   2.635
12805TIP3    H238357   1.523   5.282   2.656
12806TIP3   OH238358   5.088   4.277   0.646
12806TIP3    H138359   5.148   4.229   0.703
12806TIP3    H238360   5.001   4.247   0.671
12807TIP3   OH238361   5.983   5.196   1.431
12807TIP3    H138362   5.925   5.229   1.362
12807TIP3    H238363   6.064   5.245   1.419
12808TIP3   OH238364   3.746   1.017   0.254
12808TIP3    H138365   3.731   1.086   0.319
12808TIP3    H238366   3.841   1.007   0.252
12809TIP3   OH238367   5.567   2.012   4.411
12809TIP3    H138368   5.551   2.099   4.377
12809TIP3    H238369   5.490   1.991   4.463
12810TIP3   OH238370   6.511   5.246   2.822
12810TIP3    H138371   6.460   5.164   2.822
12810TIP3    H238372   6.523   5.266   2.915
12811TIP3   OH238373   7.046   0.761   2.755
12811TIP3    H138374   6.952   0.744   2.764
12811TIP3    H238375   7.053   0.816   2.677
12812TIP3   OH238376   7.961   1.054   4.984
12812TIP3    H138377   7.882   1.036   4.931
12812TIP3    H238378   8.033   1.048   4.921
12813TIP3   OH238379   6.158   7.873   0.973
12813TIP3    H138380   6.158   7.900   0.881
12813TIP3    H238381   6.116   7.787   0.973
12814TIP3   OH238382   7.989   7.154   2.068
12814TIP3    H138383   8.021   7.067   2.043
12814TIP3    H238384   7.987   7.151   2.164
12815TIP3   OH238385   8.390   5.294   3.084
12815TIP3    H138386   8.354   5.219   3.131
12815TIP3    H238387   8.414   5.356   3.153
12816TIP3   OH238388   1.715   0.770   2.866
12816TIP3    H138389   1.706   0.811   2.780
12816TIP3    H238390   1.650   0.699   2.865
12817TIP3   OH238391   4.034   0.921   3.766
12817TIP3    H138392   4.011   0.927   3.859
12817TIP3    H238393   3.950   0.914   3.721
12818TIP3   OH238394   0.054   0.219   0.670
12818TIP3    H138395   0.063   0.269   0.588
12818TIP3    H238396   0.077   0.129   0.645
12819TIP3   OH238397   1.611   3.154   3.266
12819TIP3    H138398   1.601   3.215   3.340
12819TIP3    H238399   1.530   3.102   3.268
12820TIP3   OH238400   5.943   3.847   3.030
12820TIP3    H138401   5.877   3.779   3.022
12820TIP3    H238402   6.008   3.811   3.090
12821TIP3   OH238403   5.055   4.214   2.905
12821TIP3    H138404   4.981   4.239   2.849
12821TIP3    H238405   5.035   4.253   2.990
12822TIP3   OH238406   7.884   6.478   0.145
12822TIP3    H138407   7.849   6.545   0.086
12822TIP3    H238408   7.828   6.402   0.132
12823TIP3   OH238409   8.324   4.569   4.516
12823TIP3    H138410   8.264   4.549   4.445
12823TIP3    H238411   8.322   4.491   4.571
12824TIP3   OH238412   7.105   3.276   4.116
12824TIP3    H138413   7.145   3.291   4.031
12824TIP3    H238414   7.113   3.359   4.162
12825TIP3   OH238415   3.157   1.178   2.015
12825TIP3    H138416   3.168   1.124   2.093
12825TIP3    H238417   3.069   1.214   2.022
12826TIP3   OH238418   6.378   5.982   5.702
12826TIP3    H138419   6.407   5.903   5.748
12826TIP3    H238420   6.330   5.949   5.626
12827TIP3   OH238421   6.344   1.536   6.800
12827TIP3    H138422   6.438   1.519   6.811
12827TIP3    H238423   6.340   1.604   6.732
12828TIP3   OH238424   3.653   4.510   3.856
12828TIP3    H138425   3.613   4.456   3.924
12828TIP3    H238426   3.580   4.539   3.802
12829TIP3   OH238427   8.312   5.847   6.805
12829TIP3    H138428   8.402   5.872   6.824
12829TIP3    H238429   8.302   5.760   6.845
12830TIP3   OH238430   3.908   4.387   2.993
12830TIP3    H138431   3.904   4.326   3.067
12830TIP3    H238432   3.910   4.330   2.916
12831TIP3   OH238433   0.141   3.540   4.080
12831TIP3    H138434   0.069   3.585   4.035
12831TIP3    H238435   0.220   3.587   4.052
12832TIP3   OH238436   1.101   1.795   0.846
12832TIP3    H138437   1.190   1.761   0.843
12832TIP3    H238438   1.062   1.769   0.763
12833TIP3   OH238439   6.927   1.463   1.218
12833TIP3    H138440   6.996   1.491   1.158
12833TIP3    H238441   6.965   1.389   1.266
12834TIP3   OH238442   5.435   0.668   1.608
12834TIP3    H138443   5.474   0.688   1.523
12834TIP3    H238444   5.502   0.617   1.654
12835TIP3   OH238445   8.401   3.025   0.618
12835TIP3    H138446   8.464   3.088   0.653
12835TIP3    H238447   8.316   3.058   0.646
12836TIP3   OH238448   4.110   1.136   6.601
12836TIP3    H138449   4.137   1.100   6.516
12836TIP3    H238450   4.017   1.157   6.590
12837TIP3   OH238451   5.222   3.206   2.545
12837TIP3    H138452   5.240   3.131   2.488
12837TIP3    H238453   5.175   3.268   2.488
12838TIP3   OH238454   6.796   1.417   1.675
12838TIP3    H138455   6.845   1.487   1.631
12838TIP3    H238456   6.766   1.360   1.604
12839TIP3   OH238457   6.778   7.251   4.772
12839TIP3    H138458   6.744   7.249   4.861
12839TIP3    H238459   6.777   7.160   4.744
12840TIP3   OH238460   4.117   2.776   6.146
12840TIP3    H138461   4.093   2.763   6.238
12840TIP3    H238462   4.068   2.708   6.099
12841TIP3   OH238463   1.832   0.469   6.660
12841TIP3    H138464   1.926   0.452   6.655
12841TIP3    H238465   1.794   0.385   6.683
12842TIP3   OH238466   3.681   7.518   5.127
12842TIP3    H138467   3.602   7.568   5.146
12842TIP3    H238468   3.682   7.508   5.032
12843TIP3   OH238469   0.690   4.605   3.303
12843TIP3    H138470   0.625   4.667   3.336
12843TIP3    H238471   0.670   4.596   3.210
12844TIP3   OH238472   4.869   7.700   2.782
12844TIP3    H138473   4.923   7.770   2.818
12844TIP3    H238474   4.888   7.623   2.836
12845TIP3   OH238475   7.788   4.625   6.538
12845TIP3    H138476   7.830   4.612   6.622
12845TIP3    H238477   7.695   4.634   6.559
12846TIP3   OH238478   7.108   7.193   0.191
12846TIP3    H138479   7.027   7.167   0.147
12846TIP3    H238480   7.169   7.214   0.121
12847TIP3   OH238481   1.792   3.448   3.821
12847TIP3    H138482   1.852   3.474   3.891
12847TIP3    H238483   1.724   3.515   3.823
12848TIP3   OH238484   2.825   6.605   5.792
12848TIP3    H138485   2.769   6.535   5.760
12848TIP3    H238486   2.803   6.612   5.885
12849TIP3   OH238487   3.272   4.820   0.780
12849TIP3    H138488   3.287   4.744   0.836
12849TIP3    H238489   3.248   4.783   0.695
12850TIP3   OH238490   5.690   6.705   4.192
12850TIP3    H138491   5.695   6.611   4.174
12850TIP3    H238492   5.597   6.726   4.182
12851TIP3   OH238493   0.232   3.351   0.575
12851TIP3    H138494   0.172   3.335   0.502
12851TIP3    H238495   0.207   3.286   0.641
12852TIP3   OH238496   0.146   6.155   4.482
12852TIP3    H138497   0.063   6.107   4.482
12852TIP3    H238498   0.183   6.140   4.395
12853TIP3   OH238499   7.631   1.135   0.762
12853TIP3    H138500   7.612   1.205   0.699
12853TIP3    H238501   7.622   1.054   0.711
12854TIP3   OH238502   5.045   6.489   4.826
12854TIP3    H138503   4.956   6.486   4.860
12854TIP3    H238504   5.088   6.413   4.865
12855TIP3   OH238505   5.894   3.191   3.239
12855TIP3    H138506   5.934   3.105   3.240
12855TIP3    H238507   5.856   3.199   3.151
12856TIP3   OH238508   6.950   6.048   1.474
12856TIP3    H138509   6.888   6.115   1.444
12856TIP3    H238510   6.906   5.965   1.456
12857TIP3   OH238511   4.302   4.675   6.130
12857TIP3    H138512   4.224   4.729   6.142
12857TIP3    H238513   4.363   4.707   6.197
12858TIP3   OH238514   2.400   5.183   2.931
12858TIP3    H138515   2.358   5.098   2.919
12858TIP3    H238516   2.399   5.197   3.025
12859TIP3   OH238517   7.809   6.901   3.042
12859TIP3    H138518   7.737   6.936   2.990
12859TIP3    H238519   7.773   6.891   3.130
12860TIP3   OH238520   6.182   7.851   3.261
12860TIP3    H138521   6.271   7.864   3.295
12860TIP3    H238522   6.154   7.768   3.299
12861TIP3   OH238523   5.035   6.791   5.704
12861TIP3    H138524   4.988   6.848   5.766
12861TIP3    H238525   4.998   6.704   5.720
12862TIP3   OH238526   7.691   3.078   4.348
12862TIP3    H138527   7.751   3.148   4.373
12862TIP3    H238528   7.618   3.122   4.306
12863TIP3   OH238529   6.435   7.893   3.327
12863TIP3    H138530   6.508   7.941   3.366
12863TIP3    H238531   6.463   7.802   3.329
12864TIP3   OH238532   1.926   3.778   0.976
12864TIP3    H138533   1.837   3.807   0.952
12864TIP3    H238534   1.984   3.830   0.921
12865TIP3   OH238535   6.491   0.576   4.191
12865TIP3    H138536   6.574   0.621   4.177
12865TIP3    H238537   6.429   0.645   4.213
12866TIP3   OH238538   7.993   1.671   6.763
12866TIP3    H138539   7.905   1.707   6.750
12866TIP3    H238540   8.007   1.674   6.858
12867TIP3   OH238541   2.990   0.920   3.781
12867TIP3    H138542   2.923   0.988   3.781
12867TIP3    H238543   3.004   0.900   3.688
12868TIP3   OH238544   1.823   5.954   0.996
12868TIP3    H138545   1.757   5.913   0.940
12868TIP3    H238546   1.784   6.036   1.025
12869TIP3   OH238547   7.910   2.738   2.119
12869TIP3    H138548   7.891   2.787   2.039
12869TIP3    H238549   7.861   2.657   2.110
12870TIP3   OH238550   5.568   5.058   5.392
12870TIP3    H138551   5.561   5.148   5.360
12870TIP3    H238552   5.661   5.036   5.382
12871TIP3   OH238553   5.320   0.043   4.343
12871TIP3    H138554   5.404   0.078   4.371
12871TIP3    H238555   5.274   0.022   4.424
12872TIP3   OH238556   4.747   0.021   6.440
12872TIP3    H138557   4.834  -0.014   6.460
12872TIP3    H238558   4.695   0.002   6.518
12873TIP3   OH238559   8.262   4.153   4.408
12873TIP3    H138560   8.321   4.119   4.341
12873TIP3    H238561   8.221   4.076   4.446
12874TIP3   OH238562   6.292   7.325   0.444
12874TIP3    H138563   6.211   7.369   0.470
12874TIP3    H238564   6.326   7.287   0.525
12875TIP3   OH238565   5.928   0.130   5.691
12875TIP3    H138566   5.902   0.052   5.740
12875TIP3    H238567   5.857   0.193   5.707
12876TIP3   OH238568   2.505   3.173   5.553
12876TIP3    H138569   2.455   3.238   5.601
12876TIP3    H238570   2.560   3.131   5.619
12877TIP3   OH238571   1.551   7.545   5.893
12877TIP3    H138572   1.476   7.593   5.926
12877TIP3    H238573   1.542   7.547   5.798
12878TIP3   OH238574   2.348   6.306   6.379
12878TIP3    H138575   2.261   6.284   6.347
12878TIP3    H238576   2.395   6.338   6.302
12879TIP3   OH238577   6.583   4.380   4.325
12879TIP3    H138578   6.636   4.442   4.275
12879TIP3    H238579   6.587   4.412   4.415
12880TIP3   OH238580   8.245   6.182   2.390
12880TIP3    H138581   8.291   6.266   2.389
12880TIP3    H238582   8.305   6.122   2.346
12881TIP3   OH238583   6.057   4.473   6.683
12881TIP3    H138584   6.052   4.508   6.772
12881TIP3    H238585   6.144   4.497   6.652
12882TIP3   OH238586   8.057   0.559   1.430
12882TIP3    H138587   8.001   0.601   1.365
12882TIP3    H238588   8.087   0.479   1.387
12883TIP3   OH238589   7.151   6.772   3.145
12883TIP3    H138590   7.083   6.723   3.098
12883TIP3    H238591   7.222   6.781   3.082
12884TIP3   OH238592   4.470   1.647   5.095
12884TIP3    H138593   4.460   1.740   5.078
12884TIP3    H238594   4.434   1.634   5.183
12885TIP3   OH238595   0.869   7.293   0.068
12885TIP3    H138596   0.777   7.322   0.068
12885TIP3    H238597   0.915   7.360   0.017
12886TIP3   OH238598   2.147   0.359   3.050
12886TIP3    H138599   2.119   0.382   3.139
12886TIP3    H238600   2.069   0.324   3.008
12887TIP3   OH238601   4.131   0.652   0.062
12887TIP3    H138602   4.209   0.705   0.041
12887TIP3    H238603   4.060   0.694   0.012
12888TIP3   OH238604   1.594   4.184   5.314
12888TIP3    H138605   1.619   4.194   5.406
12888TIP3    H238606   1.604   4.091   5.296
12889TIP3   OH238607   8.338   3.244   4.758
12889TIP3    H138608   8.365   3.315   4.816
12889TIP3    H238609   8.398   3.250   4.684
12890TIP3   OH238610   6.754   2.755   0.211
12890TIP3    H138611   6.694   2.682   0.197
12890TIP3    H238612   6.836   2.713   0.238
12891TIP3   OH238613   3.960   1.166   5.199
12891TIP3    H138614   3.895   1.217   5.150
12891TIP3    H238615   4.042   1.179   5.150
12892TIP3   OH238616   7.856   2.876   5.896
12892TIP3    H138617   7.902   2.810   5.845
12892TIP3    H238618   7.775   2.833   5.924
12893TIP3   OH238619   3.247   7.679   4.666
12893TIP3    H138620   3.330   7.639   4.693
12893TIP3    H238621   3.211   7.716   4.746
12894TIP3   OH238622   3.619   3.561   1.081
12894TIP3    H138623   3.706   3.535   1.048
12894TIP3    H238624   3.611   3.516   1.165
12895TIP3   OH238625   0.773   5.795   4.287
12895TIP3    H138626   0.821   5.877   4.294
12895TIP3    H238627   0.833   5.729   4.322
12896TIP3   OH238628   6.796   3.346   3.726
12896TIP3    H138629   6.871   3.400   3.753
12896TIP3    H238630   6.738   3.407   3.680
12897TIP3   OH238631   3.840   3.266   4.760
12897TIP3    H138632   3.921   3.227   4.727
12897TIP3    H238633   3.868   3.345   4.805
12898TIP3   OH238634   3.587   3.932   2.473
12898TIP3    H138635   3.515   3.873   2.494
12898TIP3    H238636   3.554   4.019   2.492
12899TIP3   OH238637   0.279   0.918   0.504
12899TIP3    H138638   0.341   0.933   0.432
12899TIP3    H238639   0.332   0.879   0.574
12900TIP3   OH238640   6.473   3.066   6.843
12900TIP3    H138641   6.483   3.143   6.900
12900TIP3    H238642   6.396   3.085   6.790
12901TIP3   OH238643   0.237   5.025   4.550
12901TIP3    H138644   0.211   4.940   4.516
12901TIP3    H238645   0.324   5.040   4.512
12902TIP3   OH238646   2.335   5.482   4.682
12902TIP3    H138647   2.274   5.476   4.755
12902TIP3    H238648   2.417   5.445   4.715
12903TIP3   OH238649   7.487   0.760   4.154
12903TIP3    H138650   7.511   0.685   4.208
12903TIP3    H238651   7.490   0.835   4.214
12904TIP3   OH238652   3.470   6.350   3.498
12904TIP3    H138653   3.502   6.273   3.451
12904TIP3    H238654   3.400   6.318   3.554
12905TIP3   OH238655   7.059   3.082   1.947
12905TIP3    H138656   7.080   3.037   2.028
12905TIP3    H238657   7.141   3.082   1.897
12906TIP3   OH238658   6.478   7.919   4.213
12906TIP3    H138659   6.558   7.921   4.265
12906TIP3    H238660   6.443   7.831   4.225
12907TIP3   OH238661   2.007   3.911   3.159
12907TIP3    H138662   1.972   3.823   3.146
12907TIP3    H238663   1.950   3.968   3.107
12908TIP3   OH238664   0.550   3.058   5.028
12908TIP3    H138665   0.560   2.992   5.096
12908TIP3    H238666   0.576   3.140   5.071
12909TIP3   OH238667   5.394   5.149   4.189
12909TIP3    H138668   5.426   5.137   4.279
12909TIP3    H238669   5.427   5.073   4.142
12910TIP3   OH238670   1.471   7.723   5.469
12910TIP3    H138671   1.420   7.778   5.528
12910TIP3    H238672   1.494   7.646   5.522
12911TIP3   OH238673   0.902   3.167   6.519
12911TIP3    H138674   0.918   3.179   6.426
12911TIP3    H238675   0.881   3.074   6.529
12912TIP3   OH238676   0.193   0.737   5.440
12912TIP3    H138677   0.115   0.685   5.420
12912TIP3    H238678   0.167   0.827   5.422
12913TIP3   OH238679   0.051   6.344   5.551
12913TIP3    H138680   0.031   6.256   5.518
12913TIP3    H238681   0.140   6.337   5.586
12914TIP3   OH238682   5.470   6.026   6.083
12914TIP3    H138683   5.490   6.064   6.168
12914TIP3    H238684   5.441   6.100   6.030
12915TIP3   OH238685   0.148   4.268   6.302
12915TIP3    H138686   0.132   4.359   6.325
12915TIP3    H238687   0.137   4.220   6.385
12916TIP3   OH238688   5.743   5.180   1.879
12916TIP3    H138689   5.777   5.120   1.946
12916TIP3    H238690   5.820   5.207   1.830
12917TIP3   OH238691   5.205   2.316   5.247
12917TIP3    H138692   5.242   2.278   5.167
12917TIP3    H238693   5.207   2.410   5.231
12918TIP3   OH238694   2.992   7.168   0.454
12918TIP3    H138695   2.985   7.207   0.367
12918TIP3    H238696   3.085   7.172   0.474
12919TIP3   OH238697   7.429   7.110   1.612
12919TIP3    H138698   7.515   7.151   1.625
12919TIP3    H238699   7.383   7.168   1.552
12920TIP3   OH238700   6.887   6.795   3.509
12920TIP3    H138701   6.819   6.855   3.540
12920TIP3    H238702   6.969   6.832   3.542
12921TIP3   OH238703   7.940   7.521   0.685
12921TIP3    H138704   7.923   7.442   0.634
12921TIP3    H238705   8.020   7.502   0.734
12922TIP3   OH238706   8.207   2.625   4.464
12922TIP3    H138707   8.238   2.681   4.535
12922TIP3    H238708   8.283   2.571   4.442
12923TIP3   OH238709   0.970   6.880   5.849
12923TIP3    H138710   0.968   6.799   5.901
12923TIP3    H238711   0.965   6.950   5.914
12924TIP3   OH238712   4.838   3.339   4.183
12924TIP3    H138713   4.931   3.321   4.197
12924TIP3    H238714   4.793   3.287   4.250
12925TIP3   OH238715   0.919   7.604   1.304
12925TIP3    H138716   0.932   7.551   1.226
12925TIP3    H238717   1.008   7.620   1.336
12926TIP3   OH238718   1.996   3.240   2.669
12926TIP3    H138719   1.929   3.288   2.718
12926TIP3    H238720   2.021   3.299   2.598
12927TIP3   OH238721   4.910   5.935   6.555
12927TIP3    H138722   4.894   6.027   6.533
12927TIP3    H238723   5.005   5.926   6.550
12928TIP3   OH238724   4.994   6.424   2.651
12928TIP3    H138725   4.909   6.438   2.609
12928TIP3    H238726   5.039   6.362   2.595
12929TIP3   OH238727   6.775   0.139   3.239
12929TIP3    H138728   6.775   0.089   3.321
12929TIP3    H238729   6.740   0.225   3.264
12930TIP3   OH238730   4.197   5.386   6.736
12930TIP3    H138731   4.224   5.314   6.679
12930TIP3    H238732   4.232   5.465   6.694
12931TIP3   OH238733   7.828   2.549   2.479
12931TIP3    H138734   7.862   2.626   2.434
12931TIP3    H238735   7.797   2.583   2.563
12932TIP3   OH238736   4.951   1.195   6.704
12932TIP3    H138737   5.006   1.185   6.782
12932TIP3    H238738   4.945   1.290   6.691
12933TIP3   OH238739   3.870   3.695   1.391
12933TIP3    H138740   3.915   3.720   1.310
12933TIP3    H238741   3.857   3.600   1.382
12934TIP3   OH238742   1.656   3.244   3.547
12934TIP3    H138743   1.605   3.199   3.615
12934TIP3    H238744   1.590   3.289   3.494
12935TIP3   OH238745   2.025   4.855   2.530
12935TIP3    H138746   2.065   4.768   2.535
12935TIP3    H238747   1.995   4.862   2.439
12936TIP3   OH238748   3.336   3.792   5.069
12936TIP3    H138749   3.388   3.828   4.996
12936TIP3    H238750   3.399   3.783   5.141
12937TIP3   OH238751   7.409   6.384   3.149
12937TIP3    H138752   7.447   6.392   3.237
12937TIP3    H238753   7.360   6.302   3.152
12938TIP3   OH238754   8.151   7.054   4.931
12938TIP3    H138755   8.209   7.119   4.893
12938TIP3    H238756   8.185   6.970   4.900
12939TIP3   OH238757   0.266   0.641   5.940
12939TIP3    H138758   0.214   0.686   6.006
12939TIP3    H238759   0.357   0.662   5.962
12940TIP3   OH238760   2.867   6.858   4.697
12940TIP3    H138761   2.781   6.894   4.715
12940TIP3    H238762   2.914   6.928   4.652
12941TIP3   OH238763   7.962   0.828   3.155
12941TIP3    H138764   7.979   0.833   3.061
12941TIP3    H238765   7.895   0.761   3.164
12942TIP3   OH238766   0.439   3.666   5.560
12942TIP3    H138767   0.459   3.729   5.629
12942TIP3    H238768   0.521   3.655   5.512
12943TIP3   OH238769   1.697   7.462   0.429
12943TIP3    H138770   1.704   7.557   0.419
12943TIP3    H238771   1.784   7.430   0.405
12944TIP3   OH238772   4.319   5.489   2.199
12944TIP3    H138773   4.257   5.562   2.191
12944TIP3    H238774   4.265   5.410   2.190
12945TIP3   OH238775   6.744   4.845   4.310
12945TIP3    H138776   6.777   4.931   4.286
12945TIP3    H238777   6.822   4.793   4.329
12946TIP3   OH238778   4.575   5.437   0.825
12946TIP3    H138779   4.539   5.349   0.830
12946TIP3    H238780   4.582   5.466   0.916
12947TIP3   OH238781   7.731   2.499   2.170
12947TIP3    H138782   7.792   2.436   2.132
12947TIP3    H238783   7.695   2.547   2.095
12948TIP3   OH238784   5.068   2.654   0.473
12948TIP3    H138785   4.974   2.642   0.481
12948TIP3    H238786   5.088   2.635   0.382
12949TIP3   OH238787   1.031   1.565   4.275
12949TIP3    H138788   1.055   1.525   4.359
12949TIP3    H238789   0.937   1.552   4.269
12950TIP3   OH238790   1.533   5.860   2.330
12950TIP3    H138791   1.501   5.881   2.243
12950TIP3    H238792   1.627   5.847   2.318
12951TIP3   OH238793   3.417   3.444   6.601
12951TIP3    H138794   3.454   3.398   6.526
12951TIP3    H238795   3.489   3.496   6.636
12952TIP3   OH238796   2.159   7.426   2.528
12952TIP3    H138797   2.201   7.511   2.537
12952TIP3    H238798   2.159   7.409   2.434
12953TIP3   OH238799   3.826   2.430   6.440
12953TIP3    H138800   3.812   2.477   6.522
12953TIP3    H238801   3.904   2.377   6.456
12954TIP3   OH238802   2.639   0.036   1.149
12954TIP3    H138803   2.673   0.055   1.062
12954TIP3    H238804   2.593  -0.047   1.139
12955TIP3   OH238805   1.925   0.205   1.825
12955TIP3    H138806   1.966   0.148   1.760
12955TIP3    H238807   1.964   0.178   1.908
12956TIP3   OH238808   0.282   7.118   2.961
12956TIP3    H138809   0.208   7.082   3.010
12956TIP3    H238810   0.259   7.104   2.869
12957TIP3   OH238811   7.482   4.127   5.661
12957TIP3    H138812   7.399   4.083   5.679
12957TIP3    H238813   7.549   4.062   5.681
12958TIP3   OH238814   5.263   2.704   4.405
12958TIP3    H138815   5.259   2.650   4.326
12958TIP3    H238816   5.352   2.689   4.439
12959TIP3   OH238817   2.531   7.768   4.166
12959TIP3    H138818   2.536   7.817   4.084
12959TIP3    H238819   2.541   7.835   4.235
12960TIP3   OH238820   3.124   7.711   0.916
12960TIP3    H138821   3.089   7.778   0.975
12960TIP3    H238822   3.210   7.690   0.952
12961TIP3   OH238823   5.506   2.256   3.127
12961TIP3    H138824   5.564   2.231   3.199
12961TIP3    H238825   5.436   2.306   3.169
12962TIP3   OH238826   5.784   3.592   2.979
12962TIP3    H138827   5.749   3.536   3.048
12962TIP3    H238828   5.781   3.538   2.900
12963TIP3   OH238829   8.262   0.774   5.482
12963TIP3    H138830   8.306   0.858   5.469
12963TIP3    H238831   8.293   0.719   5.410
12964TIP3   OH238832   3.861   2.305   2.384
12964TIP3    H138833   3.840   2.245   2.313
12964TIP3    H238834   3.936   2.355   2.350
12965TIP3   OH238835   7.845   0.756   2.713
12965TIP3    H138836   7.786   0.769   2.639
12965TIP3    H238837   7.790   0.773   2.790
12966TIP3   OH238838   8.035   4.381   2.206
12966TIP3    H138839   8.004   4.317   2.270
12966TIP3    H238840   7.960   4.438   2.190
12967TIP3   OH238841   4.626   7.066   5.955
12967TIP3    H138842   4.627   7.156   5.922
12967TIP3    H238843   4.667   7.071   6.041
12968TIP3   OH238844   5.144   0.366   6.476
12968TIP3    H138845   5.064   0.337   6.431
12968TIP3    H238846   5.195   0.286   6.486
12969TIP3   OH238847   0.459   0.346   5.530
12969TIP3    H138848   0.392   0.375   5.592
12969TIP3    H238849   0.418   0.353   5.444
12970TIP3   OH238850   0.006   7.462   2.500
12970TIP3    H138851   0.057   7.385   2.526
12970TIP3    H238852   0.071   7.523   2.466
12971TIP3   OH238853   0.541   3.873   4.269
12971TIP3    H138854   0.493   3.923   4.203
12971TIP3    H238855   0.565   3.938   4.335
12972TIP3   OH238856   4.075   5.036   2.506
12972TIP3    H138857   4.155   4.987   2.525
12972TIP3    H238858   4.089   5.072   2.418
12973TIP3   OH238859   6.150   6.430   5.243
12973TIP3    H138860   6.146   6.369   5.170
12973TIP3    H238861   6.079   6.402   5.301
12974TIP3   OH238862   5.605   5.684   4.308
12974TIP3    H138863   5.614   5.640   4.223
12974TIP3    H238864   5.510   5.691   4.321
12975TIP3   OH238865   7.624   4.396   1.600
12975TIP3    H138866   7.661   4.451   1.669
12975TIP3    H238867   7.557   4.343   1.643
12976TIP3   OH238868   2.259   3.904   5.139
12976TIP3    H138869   2.256   3.998   5.120
12976TIP3    H238870   2.170   3.873   5.123
12977TIP3   OH238871   5.158   0.358   4.208
12977TIP3    H138872   5.234   0.363   4.150
12977TIP3    H238873   5.121   0.271   4.191
12978TIP3   OH238874   4.736   6.076   0.887
12978TIP3    H138875   4.777   6.128   0.956
12978TIP3    H238876   4.793   6.000   0.878
12979TIP3   OH238877   1.265   7.555   6.157
12979TIP3    H138878   1.286   7.503   6.079
12979TIP3    H238879   1.314   7.513   6.228
12980TIP3   OH238880   4.809   0.801   6.599
12980TIP3    H138881   4.883   0.855   6.573
12980TIP3    H238882   4.765   0.850   6.668
12981TIP3   OH238883   5.170   3.659   0.119
12981TIP3    H138884   5.245   3.696   0.165
12981TIP3    H238885   5.192   3.668   0.026
12982TIP3   OH238886   3.083   5.798   5.114
12982TIP3    H138887   3.073   5.856   5.190
12982TIP3    H238888   3.005   5.814   5.062
12983TIP3   OH238889   1.365   6.502   1.557
12983TIP3    H138890   1.274   6.499   1.527
12983TIP3    H238891   1.415   6.464   1.485
12984TIP3   OH238892   6.666   7.025   3.524
12984TIP3    H138893   6.627   6.951   3.479
12984TIP3    H238894   6.659   7.004   3.617
12985TIP3   OH238895   0.384   4.210   3.617
12985TIP3    H138896   0.304   4.206   3.670
12985TIP3    H238897   0.378   4.294   3.572
12986TIP3   OH238898   6.096   2.323   3.499
12986TIP3    H138899   6.092   2.362   3.586
12986TIP3    H238900   6.024   2.364   3.451
12987TIP3   OH238901   5.773   6.974   2.499
12987TIP3    H138902   5.858   6.995   2.537
12987TIP3    H238903   5.732   6.916   2.564
12988TIP3   OH238904   4.359   1.344   0.615
12988TIP3    H138905   4.340   1.437   0.603
12988TIP3    H238906   4.321   1.323   0.701
12989TIP3   OH238907   7.350   1.899   5.521
12989TIP3    H138908   7.282   1.833   5.514
12989TIP3    H238909   7.381   1.893   5.612
12990TIP3   OH238910   5.446   5.695   5.479
12990TIP3    H138911   5.360   5.681   5.440
12990TIP3    H238912   5.503   5.716   5.405
12991TIP3   OH238913   5.230   0.605   5.328
12991TIP3    H138914   5.287   0.589   5.403
12991TIP3    H238915   5.229   0.523   5.279
12992TIP3   OH238916   1.282   1.836   3.342
12992TIP3    H138917   1.204   1.833   3.286
12992TIP3    H238918   1.355   1.823   3.282
12993TIP3   OH238919   6.488   1.715   6.148
12993TIP3    H138920   6.420   1.744   6.087
12993TIP3    H238921   6.520   1.634   6.110
12994TIP3   OH238922   4.583   6.426   3.004
12994TIP3    H138923   4.548   6.343   2.971
12994TIP3    H238924   4.674   6.407   3.025
12995TIP3   OH238925   4.329   3.163   3.506
12995TIP3    H138926   4.324   3.087   3.564
12995TIP3    H238927   4.247   3.160   3.456
12996TIP3   OH238928   0.688   3.407   3.618
12996TIP3    H138929   0.637   3.379   3.694
12996TIP3    H238930   0.701   3.501   3.632
12997TIP3   OH238931   7.087   0.491   3.324
12997TIP3    H138932   7.148   0.427   3.289
12997TIP3    H238933   7.138   0.573   3.329
12998TIP3   OH238934   5.632   4.880   0.086
12998TIP3    H138935   5.667   4.844   0.005
12998TIP3    H238936   5.559   4.935   0.058
12999TIP3   OH238937   5.410   6.220   6.279
12999TIP3    H138938   5.472   6.293   6.285
12999TIP3    H238939   5.337   6.247   6.335
13000TIP3   OH238940   4.980   3.808   5.909
13000TIP3    H138941   4.961   3.901   5.917
13000TIP3    H238942   4.897   3.765   5.926
13001TIP3   OH238943   0.562   7.475   5.376
13001TIP3    H138944   0.495   7.507   5.437
13001TIP3    H238945   0.641   7.525   5.398
13002TIP3   OH238946   2.150   3.485   1.563
13002TIP3    H138947   2.174   3.495   1.655
13002TIP3    H238948   2.078   3.423   1.563
13003TIP3   OH238949   4.297   4.804   5.901
13003TIP3    H138950   4.289   4.741   5.974
13003TIP3    H238951   4.382   4.844   5.914
13004TIP3   OH238952   6.058   2.181   4.591
13004TIP3    H138953   6.041   2.133   4.672
13004TIP3    H238954   6.067   2.272   4.618
13005TIP3   OH238955   6.172   4.183   4.103
13005TIP3    H138956   6.260   4.219   4.097
13005TIP3    H238957   6.159   4.137   4.020
13006TIP3   OH238958   6.893   0.995   1.806
13006TIP3    H138959   6.946   0.916   1.794
13006TIP3    H238960   6.908   1.021   1.897
13007TIP3   OH238961   5.492   4.100   2.652
13007TIP3    H138962   5.444   4.165   2.703
13007TIP3    H238963   5.438   4.021   2.655
13008TIP3   OH238964   2.915   6.429   1.480
13008TIP3    H138965   2.930   6.392   1.393
13008TIP3    H238966   2.824   6.458   1.478
13009TIP3   OH238967   1.365   2.130   6.162
13009TIP3    H138968   1.338   2.134   6.253
13009TIP3    H238969   1.416   2.049   6.155
13010TIP3   OH238970   2.624   1.803   0.498
13010TIP3    H138971   2.710   1.843   0.507
13010TIP3    H238972   2.614   1.787   0.405
13011TIP3   OH238973   5.800   0.796   2.235
13011TIP3    H138974   5.894   0.815   2.243
13011TIP3    H238975   5.767   0.799   2.325
13012TIP3   OH238976   3.382   0.065   1.493
13012TIP3    H138977   3.390   0.135   1.428
13012TIP3    H238978   3.440  -0.004   1.462
13013TIP3   OH238979   5.677   7.390   2.668
13013TIP3    H138980   5.668   7.462   2.606
13013TIP3    H238981   5.723   7.322   2.618
13014TIP3   OH238982   7.429   1.706   6.019
13014TIP3    H138983   7.522   1.688   6.033
13014TIP3    H238984   7.409   1.777   6.080
13015TIP3   OH238985   0.462   3.022   3.343
13015TIP3    H138986   0.425   2.936   3.322
13015TIP3    H238987   0.489   3.015   3.434
13016TIP3   OH238988   1.264   2.039   1.775
13016TIP3    H138989   1.275   1.993   1.692
13016TIP3    H238990   1.177   2.015   1.805
13017TIP3   OH238991   4.946   7.229   1.172
13017TIP3    H138992   4.978   7.193   1.090
13017TIP3    H238993   4.851   7.213   1.170
13018TIP3   OH238994   6.327   1.695   1.299
13018TIP3    H138995   6.330   1.613   1.250
13018TIP3    H238996   6.332   1.763   1.232
13019TIP3   OH238997   2.583   4.558   6.076
13019TIP3    H138998   2.535   4.486   6.118
13019TIP3    H238999   2.661   4.516   6.039
13020TIP3   OH239000   5.107   4.819   2.856
13020TIP3    H139001   5.094   4.725   2.868
13020TIP3    H239002   5.035   4.846   2.799
13021TIP3   OH239003   0.308   3.368   2.287
13021TIP3    H139004   0.367   3.294   2.303
13021TIP3    H239005   0.271   3.351   2.201
13022TIP3   OH239006   7.972   7.893   2.871
13022TIP3    H139007   7.979   7.985   2.844
13022TIP3    H239008   8.061   7.859   2.864
13023TIP3   OH239009   4.709   0.568   1.608
13023TIP3    H139010   4.687   0.661   1.607
13023TIP3    H239011   4.787   0.562   1.663
13024TIP3   OH239012   0.200   1.024   6.264
13024TIP3    H139013   0.233   1.112   6.251
13024TIP3    H239014   0.278   0.972   6.284
13025TIP3   OH239015   1.840   4.587   0.154
13025TIP3    H139016   1.904   4.522   0.184
13025TIP3    H239017   1.887   4.670   0.153
13026TIP3   OH239018   1.822   4.287   5.204
13026TIP3    H139019   1.783   4.341   5.135
13026TIP3    H239020   1.748   4.258   5.257
13027TIP3   OH239021   0.920   5.677   1.196
13027TIP3    H139022   0.918   5.700   1.289
13027TIP3    H239023   0.950   5.586   1.195
13028TIP3   OH239024   6.042   7.032   4.365
13028TIP3    H139025   5.999   6.960   4.319
13028TIP3    H239026   5.995   7.039   4.448
13029TIP3   OH239027   4.207   3.584   6.023
13029TIP3    H139028   4.258   3.557   5.947
13029TIP3    H239029   4.125   3.618   5.987
13030TIP3   OH239030   1.241   6.868   4.212
13030TIP3    H139031   1.336   6.860   4.205
13030TIP3    H239032   1.226   6.909   4.297
13031TIP3   OH239033   6.634   2.317   5.327
13031TIP3    H139034   6.683   2.320   5.245
13031TIP3    H239035   6.649   2.403   5.367
13032TIP3   OH239036   8.221   2.442   3.202
13032TIP3    H139037   8.302   2.407   3.239
13032TIP3    H239038   8.204   2.522   3.252
13033TIP3   OH239039   8.377   7.633   1.338
13033TIP3    H139040   8.403   7.553   1.383
13033TIP3    H239041   8.297   7.661   1.382
13034TIP3   OH239042   0.392   0.234   0.529
13034TIP3    H139043   0.456   0.175   0.489
13034TIP3    H239044   0.418   0.321   0.499
13035TIP3   OH239045   4.125   4.947   3.137
13035TIP3    H139046   4.071   4.908   3.068
13035TIP3    H239047   4.191   4.998   3.090
13036TIP3   OH239048   4.313   6.497   1.089
13036TIP3    H139049   4.391   6.443   1.101
13036TIP3    H239050   4.314   6.521   0.997
13037TIP3   OH239051   5.594   0.262   1.813
13037TIP3    H139052   5.577   0.198   1.743
13037TIP3    H239053   5.624   0.340   1.766
13038TIP3   OH239054   0.568   0.337   4.163
13038TIP3    H139055   0.588   0.256   4.208
13038TIP3    H239056   0.503   0.381   4.218
13039TIP3   OH239057   6.018   1.376   2.994
13039TIP3    H139058   6.050   1.418   2.914
13039TIP3    H239059   5.995   1.287   2.966
13040TIP3   OH239060   7.776   7.594   2.088
13040TIP3    H139061   7.747   7.504   2.107
13040TIP3    H239062   7.786   7.596   1.993
13041TIP3   OH239063   6.899   3.862   4.346
13041TIP3    H139064   6.840   3.790   4.369
13041TIP3    H239065   6.940   3.887   4.429
13042TIP3   OH239066   6.530   4.532   5.664
13042TIP3    H139067   6.568   4.444   5.663
13042TIP3    H239068   6.474   4.534   5.586
13043TIP3   OH239069   1.435   6.185   5.303
13043TIP3    H139070   1.488   6.164   5.226
13043TIP3    H239071   1.346   6.162   5.278
13044TIP3   OH239072   1.525   3.418   4.086
13044TIP3    H139073   1.457   3.360   4.120
13044TIP3    H239074   1.515   3.412   3.991
13045TIP3   OH239075   3.800   3.854   3.096
13045TIP3    H139076   3.846   3.805   3.164
13045TIP3    H239077   3.710   3.862   3.128
13046TIP3   OH239078   3.887   6.531   6.628
13046TIP3    H139079   3.850   6.447   6.604
13046TIP3    H239080   3.867   6.588   6.554
13047TIP3   OH239081   1.413   6.734   2.685
13047TIP3    H139082   1.346   6.710   2.749
13047TIP3    H239083   1.435   6.825   2.706
13048TIP3   OH239084   5.115   1.081   5.464
13048TIP3    H139085   5.090   1.081   5.372
13048TIP3    H239086   5.089   0.994   5.495
13049TIP3   OH239087   5.865   2.519   5.438
13049TIP3    H139088   5.878   2.612   5.417
13049TIP3    H239089   5.846   2.517   5.531
13050TIP3   OH239090   0.230   3.230   4.086
13050TIP3    H139091   0.285   3.307   4.098
13050TIP3    H239092   0.185   3.244   4.003
13051TIP3   OH239093   1.423   7.016   2.627
13051TIP3    H139094   1.413   7.055   2.714
13051TIP3    H239095   1.371   7.071   2.569
13052TIP3   OH239096   7.702   3.588   5.625
13052TIP3    H139097   7.617   3.614   5.589
13052TIP3    H239098   7.766   3.641   5.578
13053TIP3   OH239099   2.014   1.768   4.801
13053TIP3    H139100   1.920   1.785   4.792
13053TIP3    H239101   2.031   1.776   4.895
13054TIP3   OH239102   0.695   0.950   6.438
13054TIP3    H139103   0.681   0.998   6.520
13054TIP3    H239104   0.788   0.924   6.442
13055TIP3   OH239105   4.731   5.772   4.942
13055TIP3    H139106   4.810   5.785   4.888
13055TIP3    H239107   4.678   5.850   4.926
13056TIP3   OH239108   5.088   4.431   2.124
13056TIP3    H139109   5.134   4.407   2.044
13056TIP3    H239110   4.996   4.434   2.098
13057TIP3   OH239111   2.166   1.050   3.130
13057TIP3    H139112   2.201   1.097   3.055
13057TIP3    H239113   2.205   0.963   3.123
13058TIP3   OH239114   3.384   3.368   4.834
13058TIP3    H139115   3.422   3.414   4.759
13058TIP3    H239116   3.454   3.309   4.863
13059TIP3   OH239117   2.757   4.567   0.621
13059TIP3    H139118   2.721   4.549   0.708
13059TIP3    H239119   2.770   4.481   0.582
13060TIP3   OH239120   4.335   7.266   4.928
13060TIP3    H139121   4.280   7.240   5.002
13060TIP3    H239122   4.343   7.186   4.876
13061TIP3   OH239123   1.163   7.823   5.650
13061TIP3    H139124   1.152   7.866   5.565
13061TIP3    H239125   1.247   7.855   5.682
13062TIP3   OH239126   8.229   3.786   2.551
13062TIP3    H139127   8.212   3.877   2.577
13062TIP3    H239128   8.323   3.775   2.563
13063TIP3   OH239129   4.234   4.158   2.448
13063TIP3    H139130   4.259   4.190   2.535
13063TIP3    H239131   4.211   4.237   2.399
13064TIP3   OH239132   7.806   2.783   5.019
13064TIP3    H139133   7.723   2.754   5.056
13064TIP3    H239134   7.814   2.733   4.938
13065TIP3   OH239135   4.356   6.867   5.038
13065TIP3    H139136   4.444   6.903   5.048
13065TIP3    H239137   4.318   6.915   4.965
13066TIP3   OH239138   2.424   6.977   6.594
13066TIP3    H139139   2.484   7.011   6.660
13066TIP3    H239140   2.346   7.031   6.602
13067TIP3   OH239141   3.869   0.770   6.146
13067TIP3    H139142   3.859   0.697   6.085
13067TIP3    H239143   3.878   0.847   6.090
13068TIP3   OH239144   7.310   7.510   3.164
13068TIP3    H139145   7.330   7.459   3.243
13068TIP3    H239146   7.218   7.492   3.147
13069TIP3   OH239147   4.829   4.949   3.767
13069TIP3    H139148   4.834   4.853   3.767
13069TIP3    H239149   4.837   4.972   3.860
13070TIP3   OH239150   4.086   4.179   5.715
13070TIP3    H139151   4.042   4.262   5.730
13070TIP3    H239152   4.114   4.183   5.623
13071TIP3   OH239153   7.578   4.545   3.082
13071TIP3    H139154   7.668   4.534   3.112
13071TIP3    H239155   7.586   4.562   2.988
13072TIP3   OH239156   0.836   4.014   4.783
13072TIP3    H139157   0.930   4.003   4.795
13072TIP3    H239158   0.828   4.095   4.732
13073TIP3   OH239159   1.434   5.547   3.768
13073TIP3    H139160   1.427   5.631   3.813
13073TIP3    H239161   1.428   5.568   3.675
13074TIP3   OH239162   5.038   3.252   3.279
13074TIP3    H139163   4.974   3.252   3.350
13074TIP3    H239164   4.986   3.252   3.199
13075TIP3   OH239165   7.419   0.441   5.334
13075TIP3    H139166   7.486   0.509   5.340
13075TIP3    H239167   7.339   0.488   5.310
13076TIP3   OH239168   1.363   4.559   4.795
13076TIP3    H139169   1.359   4.607   4.878
13076TIP3    H239170   1.451   4.520   4.795
13077TIP3   OH239171   7.720   1.398   0.009
13077TIP3    H139172   7.719   1.439   0.096
13077TIP3    H239173   7.809   1.363   0.000
13078TIP3   OH239174   4.108   6.151   5.840
13078TIP3    H139175   4.072   6.238   5.824
13078TIP3    H239176   4.200   6.158   5.815
13079TIP3   OH239177   6.251   6.655   5.889
13079TIP3    H139178   6.190   6.673   5.818
13079TIP3    H239179   6.220   6.709   5.962
13080TIP3   OH239180   6.637   1.561   2.211
13080TIP3    H139181   6.604   1.632   2.155
13080TIP3    H239182   6.624   1.482   2.160
13081TIP3   OH239183   6.446   0.377   6.652
13081TIP3    H139184   6.354   0.394   6.633
13081TIP3    H239185   6.452   0.282   6.663
13082TIP3   OH239186   2.804   2.755   5.867
13082TIP3    H139187   2.760   2.735   5.950
13082TIP3    H239188   2.895   2.729   5.881
13083TIP3   OH239189   8.062   4.906   5.486
13083TIP3    H139190   8.019   4.967   5.426
13083TIP3    H239191   8.144   4.882   5.442
13084TIP3   OH239192   5.308   0.176   4.691
13084TIP3    H139193   5.273   0.221   4.614
13084TIP3    H239194   5.395   0.215   4.704
13085TIP3   OH239195   0.333   0.699   2.196
13085TIP3    H139196   0.263   0.668   2.138
13085TIP3    H239197   0.318   0.654   2.279
13086TIP3   OH239198   6.696   5.589   3.316
13086TIP3    H139199   6.708   5.614   3.224
13086TIP3    H239200   6.691   5.672   3.363
13087TIP3   OH239201   2.364   5.241   1.720
13087TIP3    H139202   2.354   5.302   1.648
13087TIP3    H239203   2.339   5.291   1.798
13088TIP3   OH239204   0.004   6.272   4.923
13088TIP3    H139205   0.009   6.197   4.865
13088TIP3    H239206   0.080   6.325   4.901
13089TIP3   OH239207   7.792   1.423   1.593
13089TIP3    H139208   7.776   1.473   1.673
13089TIP3    H239209   7.732   1.460   1.529
13090TIP3   OH239210   3.082   0.928   0.130
13090TIP3    H139211   2.993   0.951   0.104
13090TIP3    H239212   3.075   0.903   0.222
13091TIP3   OH239213   6.938   5.034   3.982
13091TIP3    H139214   6.951   4.966   3.916
13091TIP3    H239215   7.005   5.100   3.962
13092TIP3   OH239216   7.909   2.773   4.273
13092TIP3    H139217   7.985   2.818   4.309
13092TIP3    H239218   7.844   2.776   4.344
13093TIP3   OH239219   1.654   1.282   0.245
13093TIP3    H139220   1.575   1.307   0.198
13093TIP3    H239221   1.630   1.201   0.291
13094TIP3   OH239222   3.967   1.516   1.846
13094TIP3    H139223   3.972   1.597   1.796
13094TIP3    H239224   3.877   1.486   1.833
13095TIP3   OH239225   4.983   7.766   4.463
13095TIP3    H139226   4.951   7.803   4.545
13095TIP3    H239227   4.922   7.799   4.397
13096TIP3   OH239228   0.036   3.941   5.764
13096TIP3    H139229  -0.028   3.910   5.700
13096TIP3    H239230   0.025   3.883   5.839
13097TIP3   OH239231   4.184   7.172   5.137
13097TIP3    H139232   4.168   7.214   5.222
13097TIP3    H239233   4.258   7.114   5.153
13098TIP3   OH239234   0.431   3.465   4.950
13098TIP3    H139235   0.455   3.425   5.033
13098TIP3    H239236   0.467   3.554   4.954
13099TIP3   OH239237   5.584   4.989   3.305
13099TIP3    H139238   5.601   5.022   3.393
13099TIP3    H239239   5.565   4.896   3.317
13100TIP3   OH239240   0.059   6.560   0.198
13100TIP3    H139241   0.065   6.486   0.258
13100TIP3    H239242  -0.020   6.543   0.146
13101TIP3   OH239243   0.631   1.993   0.871
13101TIP3    H139244   0.685   1.934   0.925
13101TIP3    H239245   0.680   2.001   0.789
13102TIP3   OH239246   3.348   5.536   5.969
13102TIP3    H139247   3.290   5.526   5.893
13102TIP3    H239248   3.371   5.447   5.993
13103TIP3   OH239249   5.800   0.597   2.938
13103TIP3    H139250   5.717   0.563   2.971
13103TIP3    H239251   5.812   0.679   2.986
13104TIP3   OH239252   2.495   7.514   4.924
13104TIP3    H139253   2.545   7.530   5.003
13104TIP3    H239254   2.558   7.473   4.864
13105TIP3   OH239255   0.692   3.598   5.396
13105TIP3    H139256   0.629   3.610   5.325
13105TIP3    H239257   0.739   3.682   5.400
13106TIP3   OH239258   6.954   5.378   4.603
13106TIP3    H139259   6.951   5.336   4.689
13106TIP3    H239260   6.863   5.402   4.586
13107TIP3   OH239261   2.051   1.257   1.154
13107TIP3    H139262   2.008   1.208   1.224
13107TIP3    H239263   2.050   1.348   1.184
13108TIP3   OH239264   2.335   6.550   2.231
13108TIP3    H139265   2.398   6.545   2.303
13108TIP3    H239266   2.382   6.513   2.156
13109TIP3   OH239267   8.316   7.390   5.946
13109TIP3    H139268   8.365   7.321   5.992
13109TIP3    H239269   8.248   7.416   6.007
13110TIP3   OH239270   4.466   5.268   0.360
13110TIP3    H139271   4.545   5.214   0.350
13110TIP3    H239272   4.397   5.205   0.380
13111TIP3   OH239273   4.851   6.703   3.115
13111TIP3    H139274   4.841   6.615   3.151
13111TIP3    H239275   4.786   6.755   3.161
13112TIP3   OH239276   0.497  -0.010   6.361
13112TIP3    H139277   0.474   0.083   6.355
13112TIP3    H239278   0.588  -0.013   6.329
13113TIP3   OH239279   0.467   1.291   3.106
13113TIP3    H139280   0.372   1.286   3.099
13113TIP3    H239281   0.483   1.298   3.200
13114TIP3   OH239282   5.807   7.077   5.982
13114TIP3    H139283   5.865   7.107   5.912
13114TIP3    H239284   5.750   7.013   5.940
13115TIP3   OH239285   1.200   1.578   3.449
13115TIP3    H139286   1.220   1.665   3.415
13115TIP3    H239287   1.113   1.586   3.486
13116TIP3   OH239288   7.337   0.562   2.382
13116TIP3    H139289   7.362   0.527   2.297
13116TIP3    H239290   7.329   0.657   2.368
13117TIP3   OH239291   1.061   4.995   0.143
13117TIP3    H139292   1.082   4.997   0.237
13117TIP3    H239293   1.141   5.026   0.101
13118TIP3   OH239294   1.896   7.670   1.145
13118TIP3    H139295   1.958   7.623   1.088
13118TIP3    H239296   1.823   7.692   1.087
13119TIP3   OH239297   5.126   7.182   2.676
13119TIP3    H139298   5.213   7.221   2.667
13119TIP3    H239299   5.065   7.253   2.657
13120TIP3   OH239300   2.813   1.037   1.895
13120TIP3    H139301   2.878   0.974   1.925
13120TIP3    H239302   2.846   1.121   1.927
13121TIP3   OH239303   2.793   3.901   1.711
13121TIP3    H139304   2.749   3.975   1.670
13121TIP3    H239305   2.800   3.927   1.803
13122TIP3   OH239306   5.349   1.533   6.443
13122TIP3    H139307   5.422   1.492   6.490
13122TIP3    H239308   5.272   1.512   6.495
13123TIP3   OH239309   5.577   4.473   2.012
13123TIP3    H139310   5.666   4.466   2.048
13123TIP3    H239311   5.590   4.483   1.918
13124TIP3   OH239312   8.200   7.429   6.812
13124TIP3    H139313   8.146   7.421   6.890
13124TIP3    H239314   8.205   7.523   6.796
13125TIP3   OH239315   3.095   5.648   3.217
13125TIP3    H139316   3.133   5.668   3.303
13125TIP3    H239317   3.067   5.557   3.224
13126TIP3   OH239318   4.740   1.911   5.257
13126TIP3    H139319   4.763   1.951   5.341
13126TIP3    H239320   4.645   1.898   5.261
13127TIP3   OH239321   8.031   3.830   6.115
13127TIP3    H139322   8.025   3.769   6.189
13127TIP3    H239323   8.029   3.917   6.155
13128TIP3   OH239324   2.656   0.930   2.496
13128TIP3    H139325   2.564   0.915   2.521
13128TIP3    H239326   2.653   0.937   2.400
13129TIP3   OH239327   0.283   2.180   6.632
13129TIP3    H139328   0.273   2.141   6.719
13129TIP3    H239329   0.275   2.274   6.647
13130TIP3   OH239330   0.249   1.380   3.663
13130TIP3    H139331   0.203   1.320   3.721
13130TIP3    H239332   0.183   1.445   3.638
13131TIP3   OH239333   5.265   0.873   5.610
13131TIP3    H139334   5.286   0.779   5.612
13131TIP3    H239335   5.305   0.908   5.690
13132TIP3   OH239336   4.728   4.154   2.345
13132TIP3    H139337   4.714   4.094   2.272
13132TIP3    H239338   4.809   4.201   2.323
13133TIP3   OH239339   7.526   2.046   0.693
13133TIP3    H139340   7.457   1.984   0.717
13133TIP3    H239341   7.607   2.005   0.725
13134TIP3   OH239342   3.285   1.131   2.714
13134TIP3    H139343   3.249   1.212   2.679
13134TIP3    H239344   3.363   1.114   2.661
13135TIP3   OH239345   2.429   6.889   0.613
13135TIP3    H139346   2.334   6.878   0.612
13135TIP3    H239347   2.448   6.926   0.699
13136TIP3   OH239348   8.379   0.235   3.965
13136TIP3    H139349   8.392   0.300   3.896
13136TIP3    H239350   8.363   0.153   3.917
13137TIP3   OH239351   1.735   0.160   1.080
13137TIP3    H139352   1.798   0.088   1.075
13137TIP3    H239353   1.650   0.118   1.068
13138TIP3   OH239354   1.539   4.350   1.295
13138TIP3    H139355   1.574   4.386   1.213
13138TIP3    H239356   1.543   4.255   1.283
13139TIP3   OH239357   6.547   0.636   3.062
13139TIP3    H139358   6.554   0.541   3.066
13139TIP3    H239359   6.536   0.663   3.153
13140TIP3   OH239360   4.789   1.499   2.807
13140TIP3    H139361   4.812   1.487   2.899
13140TIP3    H239362   4.728   1.427   2.788
13141TIP3   OH239363   7.305   7.724   4.038
13141TIP3    H139364   7.265   7.693   3.956
13141TIP3    H239365   7.231   7.738   4.097
13142TIP3   OH239366   3.688   2.733   4.851
13142TIP3    H139367   3.623   2.663   4.841
13142TIP3    H239368   3.676   2.764   4.941
13143TIP3   OH239369   2.460   1.217   6.115
13143TIP3    H139370   2.440   1.293   6.171
13143TIP3    H239371   2.374   1.188   6.084
13144TIP3   OH239372   3.237   6.046   5.033
13144TIP3    H139373   3.170   6.061   4.965
13144TIP3    H239374   3.254   5.952   5.030
13145TIP3   OH239375   6.993   7.712   1.449
13145TIP3    H139376   6.954   7.753   1.372
13145TIP3    H239377   7.082   7.748   1.451
13146TIP3   OH239378   4.656   4.245   0.814
13146TIP3    H139379   4.723   4.264   0.749
13146TIP3    H239380   4.596   4.320   0.809
13147TIP3   OH239381   3.010   0.095   3.148
13147TIP3    H139382   2.940   0.145   3.106
13147TIP3    H239383   3.022   0.018   3.093
13148TIP3   OH239384   3.995   4.218   5.967
13148TIP3    H139385   3.989   4.305   5.928
13148TIP3    H239386   4.014   4.160   5.893
13149TIP3   OH239387   2.025   4.415   2.345
13149TIP3    H139388   2.114   4.384   2.361
13149TIP3    H239389   1.976   4.337   2.322
13150TIP3   OH239390   1.800   6.731   5.050
13150TIP3    H139391   1.850   6.745   4.969
13150TIP3    H239392   1.852   6.774   5.118
13151TIP3   OH239393   8.272   4.339   6.734
13151TIP3    H139394   8.326   4.398   6.785
13151TIP3    H239395   8.262   4.384   6.649
13152TIP3   OH239396   3.820   1.265   2.041
13152TIP3    H139397   3.906   1.287   2.074
13152TIP3    H239398   3.774   1.349   2.034
13153TIP3   OH239399   6.239   3.039   0.291
13153TIP3    H139400   6.187   3.057   0.370
13153TIP3    H239401   6.173   3.023   0.223
13154TIP3   OH239402   4.289   7.897   0.580
13154TIP3    H139403   4.272   7.899   0.674
13154TIP3    H239404   4.363   7.957   0.568
13155TIP3   OH239405   0.325   7.586   4.664
13155TIP3    H139406   0.281   7.537   4.594
13155TIP3    H239407   0.267   7.577   4.740
13156TIP3   OH239408   5.903   1.070   5.767
13156TIP3    H139409   5.909   1.165   5.756
13156TIP3    H239410   5.951   1.035   5.693
13157TIP3   OH239411   0.729   6.979   4.319
13157TIP3    H139412   0.772   7.033   4.253
13157TIP3    H239413   0.641   7.014   4.325
13158TIP3   OH239414   6.903   1.988   2.807
13158TIP3    H139415   6.811   1.985   2.780
13158TIP3    H239416   6.930   1.896   2.814
13159TIP3   OH239417   4.852   0.985   5.649
13159TIP3    H139418   4.777   1.037   5.678
13159TIP3    H239419   4.910   0.983   5.725
13160TIP3   OH239420   0.398   6.255   0.320
13160TIP3    H139421   0.412   6.237   0.412
13160TIP3    H239422   0.432   6.178   0.274
13161TIP3   OH239423   4.101   6.089   6.557
13161TIP3    H139424   4.084   6.140   6.637
13161TIP3    H239425   4.020   6.039   6.543
13162TIP3   OH239426   0.913   1.588   0.289
13162TIP3    H139427   0.853   1.521   0.321
13162TIP3    H239428   0.991   1.540   0.262
13163TIP3   OH239429   8.359   7.374   5.271
13163TIP3    H139430   8.278   7.412   5.304
13163TIP3    H239431   8.363   7.287   5.311
13164TIP3   OH239432   2.979   3.813   5.410
13164TIP3    H139433   2.975   3.862   5.327
13164TIP3    H239434   2.900   3.759   5.410
13165TIP3   OH239435   7.333   6.717   0.776
13165TIP3    H139436   7.392   6.652   0.738
13165TIP3    H239437   7.262   6.666   0.814
13166TIP3   OH239438   7.149   4.783   2.040
13166TIP3    H139439   7.206   4.756   1.968
13166TIP3    H239440   7.068   4.733   2.026
13167TIP3   OH239441   7.754   7.353   0.892
13167TIP3    H139442   7.683   7.297   0.860
13167TIP3    H239443   7.745   7.433   0.840
13168TIP3   OH239444   1.083   4.140   2.895
13168TIP3    H139445   1.102   4.098   2.811
13168TIP3    H239446   1.091   4.234   2.878
13169TIP3   OH239447   2.585   5.683   1.525
13169TIP3    H139448   2.537   5.603   1.505
13169TIP3    H239449   2.620   5.669   1.613
13170TIP3   OH239450   6.314   2.963   0.960
13170TIP3    H139451   6.332   2.971   1.054
13170TIP3    H239452   6.379   2.902   0.927
13171TIP3   OH239453   3.296   7.304   3.186
13171TIP3    H139454   3.377   7.257   3.170
13171TIP3    H239455   3.245   7.246   3.243
13172TIP3   OH239456   5.802   4.396   6.637
13172TIP3    H139457   5.816   4.307   6.672
13172TIP3    H239458   5.888   4.438   6.643
13173TIP3   OH239459   1.383   0.679   0.027
13173TIP3    H139460   1.387   0.698   0.121
13173TIP3    H239461   1.324   0.604   0.021
13174TIP3   OH239462   7.243   1.954   0.465
13174TIP3    H139463   7.325   1.958   0.515
13174TIP3    H239464   7.250   1.873   0.414
13175TIP3   OH239465   5.526   7.439   5.515
13175TIP3    H139466   5.599   7.419   5.455
13175TIP3    H239467   5.562   7.505   5.575
13176TIP3   OH239468   1.621   6.277   2.674
13176TIP3    H139469   1.585   6.188   2.670
13176TIP3    H239470   1.619   6.308   2.584
13177TIP3   OH239471   6.710   5.201   5.940
13177TIP3    H139472   6.787   5.150   5.915
13177TIP3    H239473   6.738   5.249   6.018
13178TIP3   OH239474   2.378   6.167   5.902
13178TIP3    H139475   2.391   6.231   5.832
13178TIP3    H239476   2.283   6.160   5.911
13179TIP3   OH239477   4.067   3.074   4.999
13179TIP3    H139478   3.976   3.081   5.029
13179TIP3    H239479   4.082   3.156   4.951
13180TIP3   OH239480   7.377   5.297   0.892
13180TIP3    H139481   7.357   5.388   0.911
13180TIP3    H239482   7.339   5.281   0.806
13181TIP3   OH239483   6.583   1.301   5.356
13181TIP3    H139484   6.630   1.382   5.377
13181TIP3    H239485   6.499   1.309   5.402
13182TIP3   OH239486   0.754   0.013   0.044
13182TIP3    H139487   0.719   0.081   0.101
13182TIP3    H239488   0.677  -0.028   0.004
13183TIP3   OH239489   2.514   0.690   1.007
13183TIP3    H139490   2.514   0.707   1.102
13183TIP3    H239491   2.574   0.755   0.972
13184TIP3   OH239492   6.139   5.774   3.333
13184TIP3    H139493   6.108   5.713   3.266
13184TIP3    H239494   6.210   5.726   3.378
13185TIP3   OH239495   3.071   7.899   0.117
13185TIP3    H139496   3.137   7.841   0.155
13185TIP3    H239497   2.996   7.892   0.176
13186TIP3   OH239498   6.193   7.391   5.064
13186TIP3    H139499   6.266   7.423   5.116
13186TIP3    H239500   6.221   7.403   4.973
13187TIP3   OH239501   0.334   1.670   6.575
13187TIP3    H139502   0.309   1.746   6.521
13187TIP3    H239503   0.415   1.697   6.618
13188TIP3   OH239504   3.703   0.941   3.216
13188TIP3    H139505   3.727   0.849   3.207
13188TIP3    H239506   3.774   0.988   3.172
13189TIP3   OH239507   5.559   5.947   1.903
13189TIP3    H139508   5.549   5.971   1.995
13189TIP3    H239509   5.498   5.875   1.890
13190TIP3   OH239510   8.342   0.630   2.435
13190TIP3    H139511   8.379   0.551   2.398
13190TIP3    H239512   8.418   0.687   2.452
13191TIP3   OH239513   8.021   0.841   4.599
13191TIP3    H139514   8.064   0.922   4.625
13191TIP3    H239515   8.083   0.798   4.541
13192TIP3   OH239516   7.944   5.851   5.557
13192TIP3    H139517   7.851   5.831   5.551
13192TIP3    H239518   7.948   5.947   5.553
13193TIP3   OH239519   3.312   3.713   1.641
13193TIP3    H139520   3.277   3.627   1.663
13193TIP3    H239521   3.249   3.775   1.678
13194TIP3   OH239522   5.669   1.097   5.088
13194TIP3    H139523   5.599   1.041   5.055
13194TIP3    H239524   5.749   1.047   5.072
13195TIP3   OH239525   5.297   5.418   4.182
13195TIP3    H139526   5.285   5.432   4.276
13195TIP3    H239527   5.320   5.325   4.175
13196TIP3   OH239528   8.172   2.087   1.754
13196TIP3    H139529   8.260   2.049   1.758
13196TIP3    H239530   8.114   2.012   1.744
13197TIP3   OH239531  -0.023   0.497   3.057
13197TIP3    H139532   0.041   0.426   3.067
13197TIP3    H239533   0.006   0.564   3.118
13198TIP3   OH239534   5.391   0.490   6.226
13198TIP3    H139535   5.460   0.551   6.253
13198TIP3    H239536   5.313   0.521   6.274
13199TIP3   OH239537   5.917   4.857   3.370
13199TIP3    H139538   5.916   4.834   3.278
13199TIP3    H239539   5.938   4.776   3.416
13200TIP3   OH239540   3.869   4.889   5.808
13200TIP3    H139541   3.852   4.976   5.844
13200TIP3    H239542   3.908   4.840   5.881
13201TIP3   OH239543   2.697   5.578   0.157
13201TIP3    H139544   2.739   5.588   0.243
13201TIP3    H239545   2.712   5.661   0.113
13202TIP3   OH239546   2.779   7.347   3.675
13202TIP3    H139547   2.815   7.354   3.586
13202TIP3    H239548   2.750   7.436   3.696
13203TIP3   OH239549   2.603   2.043   3.931
13203TIP3    H139550   2.593   1.980   3.859
13203TIP3    H239551   2.646   2.118   3.890
13204TIP3   OH239552   2.843   4.732   6.694
13204TIP3    H139553   2.771   4.782   6.732
13204TIP3    H239554   2.869   4.782   6.616
13205TIP3   OH239555   4.911   6.241   5.606
13205TIP3    H139556   4.965   6.300   5.659
13205TIP3    H239557   4.975   6.183   5.563
13206TIP3   OH239558   5.384   0.338   3.658
13206TIP3    H139559   5.388   0.275   3.586
13206TIP3    H239560   5.391   0.424   3.615
13207TIP3   OH239561   1.709   7.605   5.041
13207TIP3    H139562   1.775   7.668   5.013
13207TIP3    H239563   1.736   7.578   5.128
13208TIP3   OH239564   1.706   3.483   5.609
13208TIP3    H139565   1.766   3.553   5.584
13208TIP3    H239566   1.734   3.457   5.696
13209TIP3   OH239567   6.568   1.139   3.198
13209TIP3    H139568   6.526   1.212   3.242
13209TIP3    H239569   6.657   1.138   3.234
13210TIP3   OH239570   7.879   4.882   6.380
13210TIP3    H139571   7.826   4.848   6.452
13210TIP3    H239572   7.822   4.946   6.337
13211TIP3   OH239573   0.935   0.466   2.450
13211TIP3    H139574   0.957   0.387   2.400
13211TIP3    H239575   0.907   0.529   2.384
13212TIP3   OH239576   4.825   7.031   3.200
13212TIP3    H139577   4.740   6.991   3.220
13212TIP3    H239578   4.889   6.971   3.239
13213TIP3   OH239579   0.579   4.063   0.169
13213TIP3    H139580   0.496   4.105   0.194
13213TIP3    H239581   0.563   3.970   0.185
13214TIP3   OH239582   8.198   6.138   5.029
13214TIP3    H139583   8.267   6.200   5.004
13214TIP3    H239584   8.218   6.059   4.979
13215TIP3   OH239585   8.269   2.369   5.207
13215TIP3    H139586   8.174   2.362   5.218
13215TIP3    H239587   8.281   2.388   5.114
13216TIP3   OH239588   0.809   5.918   1.061
13216TIP3    H139589   0.764   5.990   1.104
13216TIP3    H239590   0.837   5.860   1.133
13217TIP3   OH239591   1.180   1.131   4.499
13217TIP3    H139592   1.123   1.133   4.576
13217TIP3    H239593   1.236   1.054   4.512
13218TIP3   OH239594   1.690   5.696   5.535
13218TIP3    H139595   1.780   5.729   5.542
13218TIP3    H239596   1.644   5.765   5.486
13219TIP3   OH239597   3.533   7.877   5.962
13219TIP3    H139598   3.518   7.951   5.903
13219TIP3    H239599   3.627   7.878   5.979
13220TIP3   OH239600   3.872   6.217   6.283
13220TIP3    H139601   3.954   6.178   6.252
13220TIP3    H239602   3.805   6.179   6.226
13221TIP3   OH239603   6.769   6.532   3.488
13221TIP3    H139604   6.793   6.622   3.509
13221TIP3    H239605   6.766   6.488   3.573
13222TIP3   OH239606   6.163   7.387   2.721
13222TIP3    H139607   6.213   7.461   2.688
13222TIP3    H239608   6.229   7.326   2.754
13223TIP3   OH239609   8.147   6.997   4.073
13223TIP3    H139610   8.180   7.046   3.997
13223TIP3    H239611   8.169   7.053   4.148
13224TIP3   OH239612   0.734   6.704   6.846
13224TIP3    H139613   0.722   6.620   6.803
13224TIP3    H239614   0.645   6.741   6.851
13225TIP3   OH239615   3.176   2.511   5.039
13225TIP3    H139616   3.118   2.472   5.104
13225TIP3    H239617   3.139   2.484   4.954
13226TIP3   OH239618   7.811   4.231   1.199
13226TIP3    H139619   7.848   4.279   1.126
13226TIP3    H239620   7.809   4.294   1.271
13227TIP3   OH239621   4.839   2.821   0.502
13227TIP3    H139622   4.782   2.757   0.458
13227TIP3    H239623   4.872   2.775   0.579
13228TIP3   OH239624   6.084   0.595   2.327
13228TIP3    H139625   6.092   0.546   2.246
13228TIP3    H239626   6.114   0.684   2.305
13229TIP3   OH239627   8.136   4.345   2.802
13229TIP3    H139628   8.200   4.365   2.734
13229TIP3    H239629   8.163   4.259   2.835
13230TIP3   OH239630   2.094   2.173   5.711
13230TIP3    H139631   2.161   2.142   5.771
13230TIP3    H239632   2.107   2.268   5.709
13231TIP3   OH239633   7.033   2.917   2.165
13231TIP3    H139634   7.086   2.837   2.163
13231TIP3    H239635   6.943   2.886   2.156
13232TIP3   OH239636   6.198   4.070   3.810
13232TIP3    H139637   6.188   4.105   3.722
13232TIP3    H239638   6.166   3.980   3.804
13233TIP3   OH239639   3.338   2.109   4.744
13233TIP3    H139640   3.251   2.147   4.759
13233TIP3    H239641   3.394   2.151   4.810
13234TIP3   OH239642   5.192   5.659   5.648
13234TIP3    H139643   5.164   5.670   5.557
13234TIP3    H239644   5.286   5.642   5.642
13235TIP3   OH239645   2.755   7.379   4.913
13235TIP3    H139646   2.798   7.294   4.910
13235TIP3    H239647   2.822   7.438   4.947
13236TIP3   OH239648   6.669   1.593   0.069
13236TIP3    H139649   6.676   1.513   0.121
13236TIP3    H239650   6.621   1.654   0.125
13237TIP3   OH239651   0.799   4.917   0.107
13237TIP3    H139652   0.856   4.988   0.138
13237TIP3    H239653   0.853   4.869   0.044
13238TIP3   OH239654   1.015   1.348   6.124
13238TIP3    H139655   0.928   1.307   6.128
13238TIP3    H239656   1.076   1.275   6.120
13239TIP3   OH239657   7.897   1.340   5.441
13239TIP3    H139658   7.986   1.354   5.474
13239TIP3    H239659   7.909   1.283   5.365
13240TIP3   OH239660   4.101   2.547   4.616
13240TIP3    H139661   4.048   2.468   4.625
13240TIP3    H239662   4.045   2.608   4.569
13241TIP3   OH239663   7.475   1.510   6.394
13241TIP3    H139664   7.551   1.451   6.401
13241TIP3    H239665   7.511   1.598   6.401
13242TIP3   OH239666   3.221   2.073   1.016
13242TIP3    H139667   3.228   2.032   1.102
13242TIP3    H239668   3.265   2.012   0.957
13243TIP3   OH239669   4.038   4.846   1.602
13243TIP3    H139670   4.110   4.795   1.565
13243TIP3    H239671   4.048   4.933   1.564
13244TIP3   OH239672   3.288   5.550   1.384
13244TIP3    H139673   3.267   5.457   1.376
13244TIP3    H239674   3.285   5.584   1.295
13245TIP3   OH239675   7.321   5.170   4.831
13245TIP3    H139676   7.306   5.112   4.757
13245TIP3    H239677   7.248   5.232   4.829
13246TIP3   OH239678   6.133   4.934   5.133
13246TIP3    H139679   6.119   4.962   5.043
13246TIP3    H239680   6.079   4.856   5.142
13247TIP3   OH239681   1.992   1.024   3.382
13247TIP3    H139682   2.023   1.112   3.361
13247TIP3    H239683   1.954   0.992   3.301
13248TIP3   OH239684   5.696   2.661   1.611
13248TIP3    H139685   5.738   2.576   1.622
13248TIP3    H239686   5.604   2.646   1.632
13249TIP3   OH239687   8.274   2.286   3.611
13249TIP3    H139688   8.323   2.204   3.597
13249TIP3    H239689   8.330   2.354   3.574
13250TIP3   OH239690   2.247   1.453   0.603
13250TIP3    H139691   2.155   1.438   0.622
13250TIP3    H239692   2.291   1.373   0.631
13251TIP3   OH239693   8.219   1.214   1.635
13251TIP3    H139694   8.186   1.135   1.592
13251TIP3    H239695   8.171   1.285   1.592
13252TIP3   OH239696   1.589   7.184   4.782
13252TIP3    H139697   1.514   7.128   4.763
13252TIP3    H239698   1.644   7.132   4.841
13253TIP3   OH239699   7.382   7.493   4.783
13253TIP3    H139700   7.378   7.439   4.704
13253TIP3    H239701   7.291   7.505   4.809
13254TIP3   OH239702   3.602   5.595   0.990
13254TIP3    H139703   3.648   5.673   1.019
13254TIP3    H239704   3.629   5.583   0.899
13255TIP3   OH239705   1.860   2.892   3.601
13255TIP3    H139706   1.797   2.842   3.550
13255TIP3    H239707   1.819   2.904   3.687
13256TIP3   OH239708   2.318   2.839   6.130
13256TIP3    H139709   2.347   2.902   6.196
13256TIP3    H239710   2.248   2.884   6.083
13257TIP3   OH239711   7.456   2.537   2.915
13257TIP3    H139712   7.410   2.587   2.983
13257TIP3    H239713   7.391   2.474   2.884
13258TIP3   OH239714   7.714   1.065   5.525
13258TIP3    H139715   7.692   1.092   5.436
13258TIP3    H239716   7.809   1.054   5.525
13259TIP3   OH239717   1.589   4.911   1.824
13259TIP3    H139718   1.562   4.879   1.737
13259TIP3    H239719   1.665   4.857   1.846
13260TIP3   OH239720   2.636   4.806   0.989
13260TIP3    H139721   2.621   4.897   1.015
13260TIP3    H239722   2.727   4.789   1.013
13261TIP3   OH239723   3.596   0.294   0.557
13261TIP3    H139724   3.518   0.349   0.548
13261TIP3    H239725   3.567   0.206   0.532
13262TIP3   OH239726   5.367   6.611   2.456
13262TIP3    H139727   5.289   6.657   2.485
13262TIP3    H239728   5.351   6.592   2.363
13263TIP3   OH239729   5.196   4.676   3.188
13263TIP3    H139730   5.100   4.671   3.191
13263TIP3    H239731   5.224   4.585   3.194
13264TIP3   OH239732   6.515   2.403   6.187
13264TIP3    H139733   6.605   2.373   6.196
13264TIP3    H239734   6.472   2.375   6.268
13265TIP3   OH239735   3.663   7.120   1.722
13265TIP3    H139736   3.582   7.133   1.771
13265TIP3    H239737   3.652   7.173   1.644
13266TIP3   OH239738   5.890   5.430   4.100
13266TIP3    H139739   5.887   5.353   4.043
13266TIP3    H239740   5.855   5.398   4.184
13267TIP3   OH239741   2.109   0.021   1.315
13267TIP3    H139742   2.195   0.017   1.356
13267TIP3    H239743   2.127   0.024   1.221
13268TIP3   OH239744   7.824   6.671   1.499
13268TIP3    H139745   7.885   6.598   1.492
13268TIP3    H239746   7.832   6.700   1.590
13269TIP3   OH239747   6.711   0.453   3.597
13269TIP3    H139748   6.768   0.408   3.658
13269TIP3    H239749   6.666   0.519   3.649
13270TIP3   OH239750   5.110   6.720   3.762
13270TIP3    H139751   5.115   6.641   3.815
13270TIP3    H239752   5.131   6.691   3.673
13271TIP3   OH239753   7.787   3.820   1.392
13271TIP3    H139754   7.781   3.729   1.362
13271TIP3    H239755   7.806   3.813   1.486
13272TIP3   OH239756   4.778   5.169   0.630
13272TIP3    H139757   4.737   5.207   0.553
13272TIP3    H239758   4.821   5.244   0.673
13273TIP3   OH239759   3.038   1.151   6.127
13273TIP3    H139760   3.111   1.182   6.180
13273TIP3    H239761   3.033   1.213   6.054
13274TIP3   OH239762   3.040   0.347   0.209
13274TIP3    H139763   2.953   0.381   0.191
13274TIP3    H239764   3.042   0.332   0.303
13275TIP3   OH239765   1.442   1.495   5.552
13275TIP3    H139766   1.421   1.463   5.464
13275TIP3    H239767   1.536   1.515   5.549
13276TIP3   OH239768   4.859   5.529   3.699
13276TIP3    H139769   4.809   5.448   3.703
13276TIP3    H239770   4.914   5.519   3.621
13277TIP3   OH239771   0.895   5.945   0.353
13277TIP3    H139772   0.933   5.879   0.411
13277TIP3    H239773   0.877   5.898   0.272
13278TIP3   OH239774   5.736   0.327   3.389
13278TIP3    H139775   5.780   0.263   3.446
13278TIP3    H239776   5.790   0.406   3.395
13279TIP3   OH239777   0.726   2.564   4.760
13279TIP3    H139778   0.789   2.521   4.818
13279TIP3    H239779   0.641   2.531   4.790
13280TIP3   OH239780   4.410   4.670   1.173
13280TIP3    H139781   4.452   4.645   1.090
13280TIP3    H239782   4.430   4.599   1.233
13281TIP3   OH239783   2.778   5.817   2.042
13281TIP3    H139784   2.788   5.859   2.128
13281TIP3    H239785   2.745   5.730   2.062
13282TIP3   OH239786   0.874   3.215   0.609
13282TIP3    H139787   0.870   3.304   0.576
13282TIP3    H239788   0.796   3.207   0.665
13283TIP3   OH239789   5.265   7.784   4.335
13283TIP3    H139790   5.174   7.779   4.364
13283TIP3    H239791   5.264   7.853   4.269
13284TIP3   OH239792   7.521   7.117   6.020
13284TIP3    H139793   7.558   7.037   6.058
13284TIP3    H239794   7.590   7.151   5.963
13285TIP3   OH239795   3.311   4.249   3.706
13285TIP3    H139796   3.269   4.297   3.777
13285TIP3    H239797   3.262   4.166   3.701
13286TIP3   OH239798   6.333   7.398   0.945
13286TIP3    H139799   6.421   7.373   0.917
13286TIP3    H239800   6.337   7.493   0.955
13287TIP3   OH239801   0.905   2.083   2.933
13287TIP3    H139802   0.941   2.065   2.846
13287TIP3    H239803   0.954   2.159   2.964
13288TIP3   OH239804   0.656   1.660   4.847
13288TIP3    H139805   0.610   1.738   4.876
13288TIP3    H239806   0.602   1.587   4.878
13289TIP3   OH239807   1.862   3.687   3.053
13289TIP3    H139808   1.851   3.593   3.041
13289TIP3    H239809   1.787   3.713   3.106
13290TIP3   OH239810   7.499   2.438   2.318
13290TIP3    H139811   7.515   2.411   2.408
13290TIP3    H239812   7.581   2.417   2.272
13291TIP3   OH239813   0.471   1.819   2.858
13291TIP3    H139814   0.407   1.768   2.909
13291TIP3    H239815   0.556   1.794   2.894
13292TIP3   OH239816   6.427   3.968   2.244
13292TIP3    H139817   6.433   3.879   2.277
13292TIP3    H239818   6.516   4.002   2.250
13293TIP3   OH239819   5.593   3.694   6.363
13293TIP3    H139820   5.593   3.749   6.285
13293TIP3    H239821   5.646   3.618   6.338
13294TIP3   OH239822   6.941   3.518   5.383
13294TIP3    H139823   6.897   3.518   5.297
13294TIP3    H239824   6.900   3.590   5.431
13295TIP3   OH239825   3.221   0.789   6.180
13295TIP3    H139826   3.236   0.861   6.119
13295TIP3    H239827   3.284   0.804   6.251
13296TIP3   OH239828   3.272   3.391   3.488
13296TIP3    H139829   3.232   3.303   3.492
13296TIP3    H239830   3.234   3.437   3.563
13297TIP3   OH239831   4.186   7.749   0.083
13297TIP3    H139832   4.231   7.666   0.067
13297TIP3    H239833   4.213   7.805   0.010
13298TIP3   OH239834   5.217   3.889   6.248
13298TIP3    H139835   5.213   3.939   6.330
13298TIP3    H239836   5.280   3.936   6.194
13299TIP3   OH239837   4.631   4.319   6.417
13299TIP3    H139838   4.550   4.273   6.393
13299TIP3    H239839   4.698   4.276   6.364
13300TIP3   OH239840   5.954   0.171   6.442
13300TIP3    H139841   5.964   0.193   6.349
13300TIP3    H239842   5.897   0.239   6.477
13301TIP3   OH239843   7.914   5.252   1.322
13301TIP3    H139844   7.928   5.311   1.397
13301TIP3    H239845   7.997   5.206   1.312
13302TIP3   OH239846   0.222   4.409   2.481
13302TIP3    H139847   0.275   4.387   2.558
13302TIP3    H239848   0.153   4.466   2.515
13303TIP3   OH239849   3.409   7.880   2.108
13303TIP3    H139850   3.461   7.884   2.028
13303TIP3    H239851   3.339   7.818   2.087
13304TIP3   OH239852   2.095   0.920   5.032
13304TIP3    H139853   2.059   0.871   5.106
13304TIP3    H239854   2.085   1.012   5.058
13305TIP3   OH239855   2.390   2.438   5.632
13305TIP3    H139856   2.408   2.364   5.690
13305TIP3    H239857   2.332   2.402   5.565
13306TIP3   OH239858   4.757   0.775   5.045
13306TIP3    H139859   4.853   0.777   5.040
13306TIP3    H239860   4.733   0.687   5.018
13307TIP3   OH239861   0.871   4.641   6.003
13307TIP3    H139862   0.792   4.688   6.031
13307TIP3    H239863   0.903   4.690   5.928
13308TIP3   OH239864   4.639   7.111   5.635
13308TIP3    H139865   4.704   7.112   5.705
13308TIP3    H239866   4.567   7.166   5.667
13309TIP3   OH239867   5.884   3.854   3.383
13309TIP3    H139868   5.931   3.907   3.319
13309TIP3    H239869   5.792   3.872   3.366
13310TIP3   OH239870   8.294   4.163   3.997
13310TIP3    H139871   8.273   4.192   3.908
13310TIP3    H239872   8.241   4.221   4.053
13311TIP3   OH239873   3.827   5.689   1.271
13311TIP3    H139874   3.783   5.610   1.301
13311TIP3    H239875   3.858   5.667   1.183
13312TIP3   OH239876   1.295   5.443   3.441
13312TIP3    H139877   1.224   5.500   3.471
13312TIP3    H239878   1.374   5.496   3.450
13313TIP3   OH239879   3.002   7.453   0.534
13313TIP3    H139880   3.019   7.407   0.451
13313TIP3    H239881   3.046   7.538   0.523
13314TIP3   OH239882   4.764   6.505   5.459
13314TIP3    H139883   4.849   6.461   5.468
13314TIP3    H239884   4.785   6.590   5.419
13315TIP3   OH239885   3.583   6.123   6.505
13315TIP3    H139886   3.578   6.071   6.424
13315TIP3    H239887   3.588   6.057   6.575
13316TIP3   OH239888   1.030   7.754   6.556
13316TIP3    H139889   0.956   7.798   6.513
13316TIP3    H239890   1.013   7.661   6.543
13317TIP3   OH239891   7.946   2.825   2.458
13317TIP3    H139892   7.931   2.912   2.421
13317TIP3    H239893   7.981   2.843   2.546
13318TIP3   OH239894   0.249   6.206   5.407
13318TIP3    H139895   0.182   6.140   5.392
13318TIP3    H239896   0.277   6.233   5.320
13319TIP3   OH239897   5.418   1.329   3.680
13319TIP3    H139898   5.373   1.390   3.622
13319TIP3    H239899   5.464   1.269   3.622
13320TIP3   OH239900   2.045   0.459   0.591
13320TIP3    H139901   1.971   0.422   0.543
13320TIP3    H239902   2.116   0.463   0.526
13321TIP3   OH239903   2.001   5.795   3.949
13321TIP3    H139904   1.989   5.884   3.917
13321TIP3    H239905   2.042   5.806   4.035
13322TIP3   OH239906   3.146   3.093   1.266
13322TIP3    H139907   3.153   3.011   1.218
13322TIP3    H239908   3.236   3.119   1.283
13323TIP3   OH239909   8.133   0.517   2.652
13323TIP3    H139910   8.189   0.568   2.710
13323TIP3    H239911   8.176   0.431   2.647
13324TIP3   OH239912   4.859   1.135   2.767
13324TIP3    H139913   4.781   1.189   2.753
13324TIP3    H239914   4.834   1.074   2.837
13325TIP3   OH239915   1.781   7.918   1.786
13325TIP3    H139916   1.744   7.978   1.721
13325TIP3    H239917   1.712   7.853   1.800
13326TIP3   OH239918   3.066   6.374   1.722
13326TIP3    H139919   3.020   6.388   1.639
13326TIP3    H239920   3.007   6.317   1.772
13327TIP3   OH239921   7.261   0.380   5.981
13327TIP3    H139922   7.342   0.349   5.940
13327TIP3    H239923   7.228   0.447   5.922
13328TIP3   OH239924   5.665   2.894   0.231
13328TIP3    H139925   5.705   2.971   0.272
13328TIP3    H239926   5.588   2.876   0.285
13329TIP3   OH239927   3.939   0.065   5.402
13329TIP3    H139928   3.984   0.108   5.330
13329TIP3    H239929   3.865   0.021   5.361
13330TIP3   OH239930   4.055   3.858   5.123
13330TIP3    H139931   4.091   3.791   5.182
13330TIP3    H239932   4.078   3.827   5.035
13331TIP3   OH239933   6.544   3.795   1.687
13331TIP3    H139934   6.489   3.806   1.610
13331TIP3    H239935   6.510   3.715   1.729
13332TIP3   OH239936   3.133   0.147   6.522
13332TIP3    H139937   3.143   0.053   6.536
13332TIP3    H239938   3.039   0.160   6.512
13333TIP3   OH239939   4.386   1.810   2.956
13333TIP3    H139940   4.475   1.789   2.927
13333TIP3    H239941   4.336   1.731   2.935
13334TIP3   OH239942   5.308   6.789   1.809
13334TIP3    H139943   5.256   6.722   1.765
13334TIP3    H239944   5.301   6.865   1.751
13335TIP3   OH239945   1.313   6.893   0.948
13335TIP3    H139946   1.404   6.872   0.925
13335TIP3    H239947   1.282   6.815   0.995
13336TIP3   OH239948   5.736   5.893   4.085
13336TIP3    H139949   5.774   5.865   4.168
13336TIP3    H239950   5.647   5.857   4.086
13337TIP3   OH239951   5.718   2.704   1.958
13337TIP3    H139952   5.644   2.762   1.942
13337TIP3    H239953   5.752   2.731   2.044
13338TIP3   OH239954   8.262   5.863   0.205
13338TIP3    H139955   8.204   5.799   0.164
13338TIP3    H239956   8.286   5.923   0.134
13339TIP3   OH239957   4.510   3.964   4.486
13339TIP3    H139958   4.605   3.973   4.489
13339TIP3    H239959   4.489   3.961   4.392
13340TIP3   OH239960   6.512   2.774   5.430
13340TIP3    H139961   6.503   2.827   5.509
13340TIP3    H239962   6.483   2.687   5.456
13341TIP3   OH239963   5.175   1.170   3.807
13341TIP3    H139964   5.185   1.251   3.756
13341TIP3    H239965   5.219   1.103   3.754
13342TIP3   OH239966   6.926   3.076   5.016
13342TIP3    H139967   6.944   3.110   5.104
13342TIP3    H239968   7.012   3.073   4.974
13343TIP3   OH239969   1.831   1.958   6.847
13343TIP3    H139970   1.903   1.964   6.910
13343TIP3    H239971   1.824   2.046   6.810
13344TIP3   OH239972   5.249   2.866   5.703
13344TIP3    H139973   5.316   2.803   5.676
13344TIP3    H239974   5.278   2.949   5.666
13345TIP3   OH239975   6.846   0.241   1.588
13345TIP3    H139976   6.894   0.206   1.663
13345TIP3    H239977   6.755   0.215   1.604
13346TIP3   OH239978   8.004   4.042   4.732
13346TIP3    H139979   7.965   4.124   4.703
13346TIP3    H239980   7.934   3.977   4.724
13347TIP3   OH239981   3.968   6.088   2.336
13347TIP3    H139982   3.888   6.036   2.332
13347TIP3    H239983   3.956   6.156   2.270
13348TIP3   OH239984   2.203   7.089   3.824
13348TIP3    H139985   2.268   7.030   3.785
13348TIP3    H239986   2.255   7.161   3.861
13349TIP3   OH239987   2.735   0.138   1.394
13349TIP3    H139988   2.726   0.110   1.303
13349TIP3    H239989   2.697   0.066   1.445
13350TIP3   OH239990   1.559   4.270   3.868
13350TIP3    H139991   1.539   4.213   3.793
13350TIP3    H239992   1.601   4.347   3.829
13351TIP3   OH239993   1.158   0.488   1.401
13351TIP3    H139994   1.104   0.519   1.473
13351TIP3    H239995   1.114   0.409   1.369
13352TIP3   OH239996   0.214   0.219   4.661
13352TIP3    H139997   0.125   0.252   4.668
13352TIP3    H239998   0.214   0.166   4.581
13353TIP3   OH239999   5.865   2.473   0.426
13353TIP3    H140000   5.883   2.386   0.390
13353TIP3    H240001   5.884   2.464   0.520
13354TIP3   OH240002   2.395   3.382   2.693
13354TIP3    H140003   2.381   3.303   2.640
13354TIP3    H240004   2.350   3.364   2.775
13355TIP3   OH240005   2.076   5.007   1.385
13355TIP3    H140006   2.005   5.001   1.322
13355TIP3    H240007   2.069   5.095   1.422
13356TIP3   OH240008   2.985   0.712   5.972
13356TIP3    H140009   2.930   0.659   5.915
13356TIP3    H240010   3.072   0.673   5.966
13357TIP3   OH240011   3.201   7.281   6.528
13357TIP3    H140012   3.204   7.186   6.544
13357TIP3    H240013   3.110   7.298   6.503
13358TIP3   OH240014   4.251   6.448   5.168
13358TIP3    H140015   4.240   6.539   5.196
13358TIP3    H240016   4.289   6.404   5.244
13359TIP3   OH240017   2.694   4.180   3.119
13359TIP3    H140018   2.742   4.160   3.200
13359TIP3    H240019   2.719   4.111   3.058
13360TIP3   OH240020   7.824   5.469   3.540
13360TIP3    H140021   7.916   5.496   3.537
13360TIP3    H240022   7.795   5.495   3.628
13361TIP3   OH240023   2.970   4.355   3.279
13361TIP3    H140024   2.914   4.277   3.282
13361TIP3    H240025   2.980   4.374   3.185
13362TIP3   OH240026   7.397   3.931   6.058
13362TIP3    H140027   7.353   3.961   6.138
13362TIP3    H240028   7.414   3.838   6.074
13363TIP3   OH240029   0.720   0.623   5.317
13363TIP3    H140030   0.799   0.572   5.337
13363TIP3    H240031   0.726   0.699   5.376
13364TIP3   OH240032   2.749   7.442   1.917
13364TIP3    H140033   2.660   7.473   1.933
13364TIP3    H240034   2.795   7.453   2.000
13365TIP3   OH240035   6.709   4.849   3.723
13365TIP3    H140036   6.631   4.874   3.674
13365TIP3    H240037   6.773   4.918   3.703
13366TIP3   OH240038   3.746   1.924   6.652
13366TIP3    H140039   3.708   1.844   6.617
13366TIP3    H240040   3.811   1.950   6.588
13367TIP3   OH240041   0.655   2.896   2.881
13367TIP3    H140042   0.561   2.910   2.895
13367TIP3    H240043   0.691   2.886   2.969
13368TIP3   OH240044   0.093   3.987   4.348
13368TIP3    H140045   0.092   4.023   4.437
13368TIP3    H240046   0.160   3.919   4.350
13369TIP3   OH240047   0.067   4.178   1.858
13369TIP3    H140048   0.162   4.185   1.843
13369TIP3    H240049   0.059   4.117   1.931
13370TIP3   OH240050   5.666   1.051   2.372
13370TIP3    H140051   5.632   1.011   2.291
13370TIP3    H240052   5.703   0.978   2.421
13371TIP3   OH240053   7.991   2.662   5.475
13371TIP3    H140054   8.080   2.690   5.497
13371TIP3    H240055   7.990   2.656   5.379
13372TIP3   OH240056   1.596   5.489   1.235
13372TIP3    H140057   1.514   5.509   1.190
13372TIP3    H240058   1.583   5.520   1.324
13373TIP3   OH240059   5.940   6.129   4.875
13373TIP3    H140060   5.870   6.082   4.829
13373TIP3    H240061   5.900   6.212   4.901
13374TIP3   OH240062   6.840   2.274   6.373
13374TIP3    H140063   6.922   2.231   6.351
13374TIP3    H240064   6.774   2.205   6.364
13375TIP3   OH240065   7.741   1.797   2.571
13375TIP3    H140066   7.726   1.853   2.647
13375TIP3    H240067   7.675   1.824   2.508
13376TIP3   OH240068   4.829   5.011   2.224
13376TIP3    H140069   4.865   5.083   2.276
13376TIP3    H240070   4.896   4.942   2.229
13377TIP3   OH240071   2.770   0.982   5.255
13377TIP3    H140072   2.795   0.918   5.322
13377TIP3    H240073   2.679   0.959   5.234
13378TIP3   OH240074   8.061   6.879   1.678
13378TIP3    H140075   8.150   6.887   1.714
13378TIP3    H240076   8.071   6.900   1.586
13379TIP3   OH240077   8.248   1.581   2.287
13379TIP3    H140078   8.188   1.582   2.361
13379TIP3    H240079   8.253   1.489   2.261
13380TIP3   OH240080   6.404   7.679   6.223
13380TIP3    H140081   6.369   7.748   6.280
13380TIP3    H240082   6.338   7.669   6.154
13381TIP3   OH240083   1.833   4.212   2.741
13381TIP3    H140084   1.754   4.236   2.692
13381TIP3    H240085   1.905   4.248   2.689
13382TIP3   OH240086   7.490   4.460   2.780
13382TIP3    H140087   7.432   4.534   2.763
13382TIP3    H240088   7.437   4.398   2.829
13383TIP3   OH240089   6.020   6.995   0.679
13383TIP3    H140090   5.966   6.932   0.726
13383TIP3    H240091   6.048   6.949   0.599
13384TIP3   OH240092   8.211   2.908   0.910
13384TIP3    H140093   8.120   2.882   0.895
13384TIP3    H240094   8.261   2.862   0.842
13385TIP3   OH240095   7.542   1.258   1.501
13385TIP3    H140096   7.598   1.334   1.487
13385TIP3    H240097   7.465   1.293   1.546
13386TIP3   OH240098   5.390   3.667   0.337
13386TIP3    H140099   5.307   3.650   0.381
13386TIP3    H240100   5.452   3.686   0.408
13387TIP3   OH240101   3.390   6.559   5.636
13387TIP3    H140102   3.428   6.571   5.723
13387TIP3    H240103   3.296   6.568   5.649
13388TIP3   OH240104   7.759   4.160   2.391
13388TIP3    H140105   7.684   4.104   2.370
13388TIP3    H240106   7.796   4.122   2.471
13389TIP3   OH240107   5.859   1.495   0.178
13389TIP3    H140108   5.857   1.590   0.169
13389TIP3    H240109   5.864   1.480   0.272
13390TIP3   OH240110   7.701   0.216   2.343
13390TIP3    H140111   7.674   0.298   2.385
13390TIP3    H240112   7.766   0.243   2.277
13391TIP3   OH240113   2.909   3.336   4.860
13391TIP3    H140114   2.998   3.330   4.825
13391TIP3    H240115   2.885   3.246   4.882
13392TIP3   OH240116   4.223   2.467   5.598
13392TIP3    H140117   4.257   2.556   5.609
13392TIP3    H240118   4.133   2.478   5.568
13393TIP3   OH240119   0.015   6.461   5.151
13393TIP3    H140120   0.080   6.526   5.125
13393TIP3    H240121   0.028   6.389   5.090
13394TIP3   OH240122   6.488   3.905   2.620
13394TIP3    H140123   6.575   3.941   2.603
13394TIP3    H240124   6.473   3.843   2.548
13395TIP3   OH240125   2.996   5.290   5.682
13395TIP3    H140126   2.903   5.266   5.677
13395TIP3    H240127   3.035   5.221   5.735
13396TIP3   OH240128   5.635   6.794   2.659
13396TIP3    H140129   5.654   6.763   2.748
13396TIP3    H240130   5.633   6.715   2.606
13397TIP3   OH240131  -0.014   4.534   0.846
13397TIP3    H140132   0.071   4.492   0.834
13397TIP3    H240133  -0.039   4.512   0.936
13398TIP3   OH240134   0.519   5.132   0.608
13398TIP3    H140135   0.524   5.129   0.512
13398TIP3    H240136   0.533   5.224   0.629
13399TIP3   OH240137   5.804   5.282   1.237
13399TIP3    H140138   5.778   5.190   1.241
13399TIP3    H240139   5.804   5.302   1.143
13400TIP3   OH240140   6.585   7.848   1.812
13400TIP3    H140141   6.501   7.808   1.788
13400TIP3    H240142   6.644   7.822   1.741
13401TIP3   OH240143   3.197   7.262   4.186
13401TIP3    H140144   3.249   7.217   4.253
13401TIP3    H240145   3.260   7.280   4.115
13402TIP3   OH240146   3.342   3.319   0.066
13402TIP3    H140147   3.353   3.281  -0.022
13402TIP3    H240148   3.396   3.397   0.065
13403TIP3   OH240149   4.985   5.103   4.851
13403TIP3    H140150   5.034   5.073   4.927
13403TIP3    H240151   5.052   5.138   4.791
13404TIP3   OH240152   5.161   1.593   1.961
13404TIP3    H140153   5.254   1.569   1.965
13404TIP3    H240154   5.136   1.574   1.871
13405TIP3   OH240155   2.913   1.631   2.085
13405TIP3    H140156   2.907   1.582   2.167
13405TIP3    H240157   2.921   1.722   2.111
13406TIP3   OH240158   6.830   6.203  -0.008
13406TIP3    H140159   6.813   6.127   0.047
13406TIP3    H240160   6.924   6.216  -0.003
13407TIP3   OH240161   0.543   0.604   6.008
13407TIP3    H140162   0.617   0.661   6.030
13407TIP3    H240163   0.492   0.598   6.088
13408TIP3   OH240164   3.366   1.216   5.128
13408TIP3    H140165   3.443   1.218   5.070
13408TIP3    H240166   3.338   1.125   5.127
13409TIP3   OH240167   1.675   6.119   0.438
13409TIP3    H140168   1.715   6.196   0.479
13409TIP3    H240169   1.712   6.044   0.486
13410TIP3   OH240170   7.790   5.604   5.393
13410TIP3    H140171   7.806   5.534   5.330
13410TIP3    H240172   7.720   5.656   5.353
13411TIP3   OH240173   3.278   1.704   6.426
13411TIP3    H140174   3.212   1.738   6.486
13411TIP3    H240175   3.298   1.777   6.367
13412TIP3   OH240176   7.523   1.663   2.780
13412TIP3    H140177   7.582   1.588   2.767
13412TIP3    H240178   7.480   1.674   2.695
13413TIP3   OH240179   0.564   1.503   0.796
13413TIP3    H140180   0.478   1.491   0.756
13413TIP3    H240181   0.557   1.459   0.881
13414TIP3   OH240182   1.416   6.861   4.525
13414TIP3    H140183   1.330   6.903   4.516
13414TIP3    H240184   1.430   6.856   4.619
13415TIP3   OH240185   7.434   1.167   3.303
13415TIP3    H140186   7.516   1.152   3.257
13415TIP3    H240187   7.460   1.197   3.389
13416TIP3   OH240188   2.524   5.299   0.200
13416TIP3    H140189   2.528   5.376   0.257
13416TIP3    H240190   2.613   5.265   0.199
13417TIP3   OH240191   4.218   2.587   1.822
13417TIP3    H140192   4.244   2.503   1.783
13417TIP3    H240193   4.297   2.640   1.819
13418TIP3   OH240194   6.931   0.299   4.172
13418TIP3    H140195   6.986   0.341   4.106
13418TIP3    H240196   6.896   0.221   4.128
13419TIP3   OH240197   4.532   5.649   2.092
13419TIP3    H140198   4.605   5.669   2.033
13419TIP3    H240199   4.476   5.727   2.087
13420TIP3   OH240200   0.398   2.238   2.103
13420TIP3    H140201   0.423   2.153   2.140
13420TIP3    H240202   0.481   2.279   2.081
13421TIP3   OH240203   4.821   3.781   1.581
13421TIP3    H140204   4.898   3.755   1.632
13421TIP3    H240205   4.780   3.850   1.633
13422TIP3   OH240206   6.992   4.158   1.344
13422TIP3    H140207   7.010   4.072   1.384
13422TIP3    H240208   7.069   4.211   1.365
13423TIP3   OH240209   4.189   1.571   5.039
13423TIP3    H140210   4.168   1.491   5.086
13423TIP3    H240211   4.282   1.586   5.058
13424TIP3   OH240212   2.217   4.072   4.113
13424TIP3    H140213   2.130   4.050   4.147
13424TIP3    H240214   2.267   3.991   4.123
13425TIP3   OH240215   0.597   7.373   3.407
13425TIP3    H140216   0.582   7.285   3.374
13425TIP3    H240217   0.562   7.372   3.496
13426TIP3   OH240218   7.500   3.660   3.701
13426TIP3    H140219   7.574   3.623   3.749
13426TIP3    H240220   7.514   3.754   3.701
13427TIP3   OH240221   2.488   3.879   4.453
13427TIP3    H140222   2.461   3.851   4.365
13427TIP3    H240223   2.552   3.948   4.437
13428TIP3   OH240224   0.389   7.147   1.694
13428TIP3    H140225   0.449   7.221   1.679
13428TIP3    H240226   0.436   7.092   1.757
13429TIP3   OH240227   7.341   1.899   1.806
13429TIP3    H140228   7.413   1.842   1.778
13429TIP3    H240229   7.319   1.867   1.893
13430TIP3   OH240230   8.377   0.827   5.139
13430TIP3    H140231   8.324   0.757   5.177
13430TIP3    H240232   8.386   0.891   5.209
13431TIP3   OH240233   4.621   2.964   0.673
13431TIP3    H140234   4.712   2.988   0.653
13431TIP3    H240235   4.569   3.038   0.643
13432TIP3   OH240236   5.544   1.091   3.200
13432TIP3    H140237   5.637   1.107   3.186
13432TIP3    H240238   5.500   1.140   3.130
13433TIP3   OH240239   6.581   3.928   5.445
13433TIP3    H140240   6.599   3.924   5.539
13433TIP3    H240241   6.487   3.942   5.438
13434TIP3   OH240242   2.631   3.156   1.021
13434TIP3    H140243   2.591   3.094   0.959
13434TIP3    H240244   2.563   3.172   1.086
13435TIP3   OH240245   6.252   6.947   1.664
13435TIP3    H140246   6.288   6.862   1.690
13435TIP3    H240247   6.319   6.984   1.605
13436TIP3   OH240248   7.087   6.385   6.470
13436TIP3    H140249   7.104   6.438   6.392
13436TIP3    H240250   7.174   6.369   6.508
13437TIP3   OH240251   4.466   3.814   3.219
13437TIP3    H140252   4.428   3.743   3.269
13437TIP3    H240253   4.528   3.855   3.279
13438TIP3   OH240254   8.188   6.227   3.887
13438TIP3    H140255   8.283   6.220   3.899
13438TIP3    H240256   8.177   6.278   3.807
13439TIP3   OH240257   5.838   5.689  -0.001
13439TIP3    H140258   5.842   5.699   0.094
13439TIP3    H240259   5.902   5.751  -0.034
13440TIP3   OH240260   1.534   3.875   3.461
13440TIP3    H140261   1.587   3.869   3.541
13440TIP3    H240262   1.584   3.934   3.405
13441TIP3   OH240263   1.992   7.483   3.088
13441TIP3    H140264   1.965   7.542   3.158
13441TIP3    H240265   1.995   7.539   3.010
13442TIP3   OH240266   1.236   5.384   3.865
13442TIP3    H140267   1.298   5.427   3.806
13442TIP3    H240268   1.228   5.444   3.939
13443TIP3   OH240269   1.854   0.345   3.932
13443TIP3    H140270   1.883   0.306   3.849
13443TIP3    H240271   1.936   0.367   3.977
13444TIP3   OH240272   0.642   5.866   4.016
13444TIP3    H140273   0.592   5.890   4.094
13444TIP3    H240274   0.731   5.853   4.048
13445TIP3   OH240275   1.611   0.537   3.252
13445TIP3    H140276   1.698   0.573   3.272
13445TIP3    H240277   1.628   0.468   3.189
13446TIP3   OH240278   1.447   0.207   3.622
13446TIP3    H140279   1.496   0.249   3.693
13446TIP3    H240280   1.501   0.221   3.544
13447TIP3   OH240281   4.708   5.302   3.678
13447TIP3    H140282   4.728   5.252   3.758
13447TIP3    H240283   4.706   5.236   3.609
13448TIP3   OH240284   3.316   1.383   6.473
13448TIP3    H140285   3.407   1.382   6.502
13448TIP3    H240286   3.282   1.466   6.506
13449TIP3   OH240287   0.565   1.295   2.050
13449TIP3    H140288   0.615   1.281   1.970
13449TIP3    H240289   0.632   1.314   2.116
13450TIP3   OH240290   3.782   4.079   3.509
13450TIP3    H140291   3.777   3.994   3.464
13450TIP3    H240292   3.715   4.132   3.466
13451TIP3   OH240293   3.159   6.260   2.174
13451TIP3    H140294   3.153   6.285   2.266
13451TIP3    H240295   3.241   6.210   2.168
13452TIP3   OH240296   6.387   2.686   4.293
13452TIP3    H140297   6.461   2.739   4.264
13452TIP3    H240298   6.321   2.699   4.225
13453TIP3   OH240299   1.003   0.596   1.600
13453TIP3    H140300   1.020   0.559   1.687
13453TIP3    H240301   0.978   0.687   1.617
13454TIP3   OH240302   6.388   6.425   1.084
13454TIP3    H140303   6.357   6.428   1.175
13454TIP3    H240304   6.321   6.471   1.034
13455TIP3   OH240305   2.668   0.481   3.182
13455TIP3    H140306   2.707   0.565   3.154
13455TIP3    H240307   2.621   0.450   3.104
13456TIP3   OH240308   2.524   4.973   4.708
13456TIP3    H140309   2.570   5.048   4.744
13456TIP3    H240310   2.554   4.967   4.617
13457TIP3   OH240311   4.042   0.317   3.944
13457TIP3    H140312   4.036   0.245   4.007
13457TIP3    H240313   4.135   0.341   3.944
13458TIP3   OH240314   4.692   2.011   6.693
13458TIP3    H140315   4.680   1.931   6.744
13458TIP3    H240316   4.692   1.982   6.602
13459TIP3   OH240317   7.737   2.291   0.689
13459TIP3    H140318   7.779   2.343   0.757
13459TIP3    H240319   7.645   2.317   0.693
13460TIP3   OH240320   6.732   7.403   2.631
13460TIP3    H140321   6.654   7.366   2.672
13460TIP3    H240322   6.728   7.496   2.651
13461TIP3   OH240323   0.585   4.110   5.779
13461TIP3    H140324   0.502   4.134   5.738
13461TIP3    H240325   0.563   4.090   5.869
13462TIP3   OH240326   0.720   3.537   5.851
13462TIP3    H140327   0.796   3.586   5.821
13462TIP3    H240328   0.686   3.587   5.925
13463TIP3   OH240329   2.434   6.635   6.106
13463TIP3    H140330   2.466   6.718   6.069
13463TIP3    H240331   2.510   6.577   6.103
13464TIP3   OH240332   0.371   6.864   6.222
13464TIP3    H140333   0.453   6.892   6.181
13464TIP3    H240334   0.356   6.776   6.188
13465TIP3   OH240335   8.253   0.632   6.037
13465TIP3    H140336   8.261   0.540   6.062
13465TIP3    H240337   8.341   0.668   6.049
13466TIP3   OH240338   4.588   7.234   1.717
13466TIP3    H140339   4.557   7.213   1.629
13466TIP3    H240340   4.676   7.272   1.703
13467TIP3   OH240341   3.180   1.926   4.295
13467TIP3    H140342   3.206   1.926   4.387
13467TIP3    H240343   3.203   2.013   4.263
13468TIP3   OH240344   2.250   3.608   4.832
13468TIP3    H140345   2.259   3.515   4.853
13468TIP3    H240346   2.334   3.631   4.791
13469TIP3   OH240347   7.688   2.432   0.029
13469TIP3    H140348   7.770   2.479   0.047
13469TIP3    H240349   7.667   2.389   0.111
13470TIP3   OH240350   7.971   6.041   5.864
13470TIP3    H140351   7.972   6.011   5.774
13470TIP3    H240352   8.027   5.979   5.911
13471TIP3   OH240353   0.878   0.243   1.361
13471TIP3    H140354   0.808   0.178   1.365
13471TIP3    H240355   0.958   0.193   1.375
13472TIP3   OH240356   5.703   6.230   0.643
13472TIP3    H140357   5.684   6.259   0.554
13472TIP3    H240358   5.701   6.310   0.696
13473TIP3   OH240359   4.317   0.840   3.675
13473TIP3    H140360   4.233   0.800   3.654
13473TIP3    H240361   4.302   0.887   3.757
13474TIP3   OH240362   5.007   1.526   2.653
13474TIP3    H140363   4.927   1.516   2.706
13474TIP3    H240364   5.015   1.620   2.639
13475TIP3   OH240365   7.256   2.174   1.740
13475TIP3    H140366   7.314   2.242   1.776
13475TIP3    H240367   7.290   2.093   1.778
13476TIP3   OH240368   0.357   4.456   2.714
13476TIP3    H140369   0.410   4.527   2.679
13476TIP3    H240370   0.334   4.483   2.803
13477TIP3   OH240371   4.096   0.082   6.832
13477TIP3    H140372   4.005   0.073   6.807
13477TIP3    H240373   4.141   0.112   6.753
13478TIP3   OH240374   6.157   4.255   2.633
13478TIP3    H140375   6.186   4.256   2.724
13478TIP3    H240376   6.227   4.209   2.587
13479TIP3   OH240377   0.587   5.446   0.936
13479TIP3    H140378   0.576   5.454   0.841
13479TIP3    H240379   0.510   5.397   0.965
13480TIP3   OH240380   7.418   2.614   0.776
13480TIP3    H140381   7.419   2.524   0.743
13480TIP3    H240382   7.368   2.663   0.710
13481TIP3   OH240383   7.099   2.685   3.549
13481TIP3    H140384   7.083   2.591   3.542
13481TIP3    H240385   7.192   2.695   3.527
13482TIP3   OH240386   3.747   5.754   3.515
13482TIP3    H140387   3.808   5.825   3.495
13482TIP3    H240388   3.770   5.728   3.604
13483TIP3   OH240389   5.865   1.055   1.669
13483TIP3    H140390   5.852   1.119   1.739
13483TIP3    H240391   5.783   1.007   1.665
13484TIP3   OH240392   0.186   2.833   3.588
13484TIP3    H140393   0.238   2.755   3.604
13484TIP3    H240394   0.095   2.805   3.601
13485TIP3   OH240395   1.348   4.062   3.957
13485TIP3    H140396   1.417   4.082   4.021
13485TIP3    H240397   1.343   4.140   3.902
13486TIP3   OH240398   6.337   5.029   6.431
13486TIP3    H140399   6.357   5.062   6.519
13486TIP3    H240400   6.422   5.026   6.387
13487TIP3   OH240401   0.718   0.317   3.932
13487TIP3    H140402   0.653   0.324   4.001
13487TIP3    H240403   0.768   0.238   3.953
13488TIP3   OH240404   6.417   6.777   6.773
13488TIP3    H140405   6.377   6.743   6.693
13488TIP3    H240406   6.443   6.698   6.822
13489TIP3   OH240407   1.655   7.495   6.645
13489TIP3    H140408   1.740   7.457   6.668
13489TIP3    H240409   1.622   7.531   6.728
13490TIP3   OH240410   0.752   1.931   6.775
13490TIP3    H140411   0.832   1.886   6.747
13490TIP3    H240412   0.760   2.019   6.739
13491TIP3   OH240413   2.918   1.223   5.150
13491TIP3    H140414   2.842   1.280   5.139
13491TIP3    H240415   2.882   1.134   5.148
13492TIP3   OH240416   4.976   5.463   0.221
13492TIP3    H140417   4.979   5.478   0.315
13492TIP3    H240418   5.021   5.379   0.209
13493TIP3   OH240419   5.636   0.647   4.589
13493TIP3    H140420   5.620   0.663   4.496
13493TIP3    H240421   5.552   0.615   4.623
13494TIP3   OH240422   6.598   3.346   1.945
13494TIP3    H140423   6.587   3.347   2.040
13494TIP3    H240424   6.574   3.257   1.919
13495TIP3   OH240425   5.505   2.978   3.468
13495TIP3    H140426   5.437   2.981   3.536
13495TIP3    H240427   5.527   2.885   3.461
13496TIP3   OH240428   0.238   1.831   0.632
13496TIP3    H140429   0.300   1.868   0.695
13496TIP3    H240430   0.173   1.901   0.619
13497TIP3   OH240431   6.002   3.596   0.631
13497TIP3    H140432   5.913   3.628   0.644
13497TIP3    H240433   6.012   3.591   0.536
13498TIP3   OH240434   7.483   4.075   0.189
13498TIP3    H140435   7.409   4.081   0.129
13498TIP3    H240436   7.557   4.111   0.139
13499TIP3   OH240437   5.957   2.034   2.570
13499TIP3    H140438   5.913   1.948   2.568
13499TIP3    H240439   5.931   2.072   2.654
13500TIP3   OH240440   1.367   4.908   3.820
13500TIP3    H140441   1.359   4.930   3.912
13500TIP3    H240442   1.326   4.981   3.774
13501TIP3   OH240443   7.097   3.403   3.866
13501TIP3    H140444   7.088   3.485   3.914
13501TIP3    H240445   7.174   3.417   3.811
13502TIP3   OH240446   5.322   3.423   3.588
13502TIP3    H140447   5.265   3.484   3.542
13502TIP3    H240448   5.262   3.368   3.638
13503TIP3   OH240449   6.963   1.765   6.794
13503TIP3    H140450   7.032   1.741   6.732
13503TIP3    H240451   6.998   1.841   6.840
13504TIP3   OH240452   6.402   5.664   1.884
13504TIP3    H140453   6.392   5.758   1.898
13504TIP3    H240454   6.489   5.654   1.847
13505TIP3   OH240455   7.468   5.145   5.463
13505TIP3    H140456   7.437   5.223   5.510
13505TIP3    H240457   7.563   5.145   5.476
13506TIP3   OH240458   5.983   3.233   3.989
13506TIP3    H140459   6.077   3.245   3.974
13506TIP3    H240460   5.964   3.147   3.952
13507TIP3   OH240461   5.665   2.844   3.161
13507TIP3    H140462   5.621   2.805   3.236
13507TIP3    H240463   5.602   2.906   3.125
13508TIP3   OH240464   6.033   4.314   3.366
13508TIP3    H140465   6.030   4.248   3.296
13508TIP3    H240466   6.006   4.395   3.324
13509TIP3   OH240467   4.937   2.756   3.997
13509TIP3    H140468   4.873   2.820   4.029
13509TIP3    H240469   4.883   2.681   3.972
13510TIP3   OH240470   5.481   0.268   4.109
13510TIP3    H140471   5.550   0.219   4.153
13510TIP3    H240472   5.505   0.360   4.121
13511TIP3   OH240473   2.495   6.588   0.902
13511TIP3    H140474   2.487   6.539   0.984
13511TIP3    H240475   2.471   6.677   0.925
13512TIP3   OH240476   4.599   5.504   5.896
13512TIP3    H140477   4.589   5.515   5.990
13512TIP3    H240478   4.606   5.593   5.861
13513TIP3   OH240479   7.822   5.329   5.909
13513TIP3    H140480   7.890   5.386   5.874
13513TIP3    H240481   7.855   5.302   5.995
13514TIP3   OH240482   2.696   2.369   4.052
13514TIP3    H140483   2.753   2.311   4.102
13514TIP3    H240484   2.699   2.335   3.963
13515TIP3   OH240485   1.694   3.895   6.417
13515TIP3    H140486   1.714   3.911   6.509
13515TIP3    H240487   1.776   3.861   6.380
13516TIP3   OH240488   0.484   4.664   2.626
13516TIP3    H140489   0.574   4.633   2.620
13516TIP3    H240490   0.489   4.745   2.677
13517TIP3   OH240491   0.335   7.613   5.931
13517TIP3    H140492   0.348   7.707   5.923
13517TIP3    H240493   0.421   7.580   5.957
13518TIP3   OH240494   4.501   5.019   6.337
13518TIP3    H140495   4.550   4.981   6.264
13518TIP3    H240496   4.475   4.943   6.390
13519TIP3   OH240497   7.985   4.165   3.125
13519TIP3    H140498   7.984   4.242   3.181
13519TIP3    H240499   7.922   4.105   3.165
13520TIP3   OH240500   5.197   2.680   4.945
13520TIP3    H140501   5.157   2.660   5.030
13520TIP3    H240502   5.215   2.774   4.949
13521TIP3   OH240503   4.503   4.960   1.259
13521TIP3    H140504   4.454   4.993   1.184
13521TIP3    H240505   4.518   4.867   1.239
13522TIP3   OH240506   7.256   4.108   4.176
13522TIP3    H140507   7.344   4.136   4.152
13522TIP3    H240508   7.205   4.189   4.182
13523TIP3   OH240509   1.568   7.114   0.076
13523TIP3    H140510   1.542   7.063   0.153
13523TIP3    H240511   1.563   7.205   0.106
13524TIP3   OH240512   5.048   7.499   5.944
13524TIP3    H140513   5.110   7.561   5.982
13524TIP3    H240514   5.094   7.461   5.869
13525TIP3   OH240515   1.657   2.734   0.855
13525TIP3    H140516   1.706   2.669   0.905
13525TIP3    H240517   1.567   2.725   0.886
13526TIP3   OH240518   5.610   0.046   0.411
13526TIP3    H140519   5.675   0.006   0.469
13526TIP3    H240520   5.546  -0.024   0.397
13527TIP3   OH240521   6.714   7.459   5.141
13527TIP3    H140522   6.772   7.498   5.075
13527TIP3    H240523   6.762   7.466   5.223
13528TIP3   OH240524   7.273   2.172   5.902
13528TIP3    H140525   7.243   2.097   5.851
13528TIP3    H240526   7.275   2.140   5.993
13529TIP3   OH240527   0.036   0.433   5.584
13529TIP3    H140528   0.116   0.430   5.636
13529TIP3    H240529  -0.035   0.431   5.648
13530TIP3   OH240530   7.930   0.537   4.126
13530TIP3    H140531   7.922   0.509   4.217
13530TIP3    H240532   7.875   0.616   4.120
13531TIP3   OH240533   6.254   0.236   5.883
13531TIP3    H140534   6.182   0.299   5.895
13531TIP3    H240535   6.256   0.220   5.788
13532TIP3   OH240536   7.570   4.239   3.100
13532TIP3    H140537   7.613   4.269   3.180
13532TIP3    H240538   7.525   4.317   3.066
13533TIP3   OH240539   7.162   2.399   5.805
13533TIP3    H140540   7.207   2.421   5.723
13533TIP3    H240541   7.209   2.323   5.839
13534TIP3   OH240542   5.259   0.809   4.828
13534TIP3    H140543   5.286   0.884   4.881
13534TIP3    H240544   5.242   0.846   4.741
13535TIP3   OH240545   0.709   3.324   6.149
13535TIP3    H140546   0.682   3.297   6.062
13535TIP3    H240547   0.644   3.390   6.175
13536TIP3   OH240548   8.295   4.566   6.533
13536TIP3    H140549   8.374   4.563   6.479
13536TIP3    H240550   8.244   4.490   6.506
13537TIP3   OH240551   0.586   0.493   5.128
13537TIP3    H140552   0.517   0.442   5.171
13537TIP3    H240553   0.632   0.536   5.200
13538TIP3   OH240554   1.913   2.760   3.991
13538TIP3    H140555   1.871   2.676   4.006
13538TIP3    H240556   1.872   2.819   4.054
13539TIP3   OH240557   6.245   3.994   1.750
13539TIP3    H140558   6.295   3.952   1.680
13539TIP3    H240559   6.163   3.944   1.755
13540TIP3   OH240560   5.212   2.144   5.757
13540TIP3    H140561   5.284   2.205   5.771
13540TIP3    H240562   5.243   2.085   5.688
13541TIP3   OH240563   2.289   0.007   2.207
13541TIP3    H140564   2.212   0.062   2.189
13541TIP3    H240565   2.260  -0.051   2.277
13542TIP3   OH240566   4.624   3.126   5.423
13542TIP3    H140567   4.684   3.179   5.371
13542TIP3    H240568   4.672   3.107   5.503
13543TIP3   OH240569   3.035   4.622   5.036
13543TIP3    H140570   2.965   4.670   5.080
13543TIP3    H240571   3.113   4.637   5.091
13544TIP3   OH240572   5.328   1.482   5.396
13544TIP3    H140573   5.322   1.402   5.343
13544TIP3    H240574   5.344   1.551   5.332
13545TIP3   OH240575   4.979   0.439   3.559
13545TIP3    H140576   5.039   0.494   3.610
13545TIP3    H240577   4.892   0.463   3.591
13546TIP3   OH240578   6.863   6.981   0.977
13546TIP3    H140579   6.948   7.017   0.951
13546TIP3    H240580   6.805   7.004   0.904
13547TIP3   OH240581   0.289   3.693   0.343
13547TIP3    H140582   0.339   3.761   0.298
13547TIP3    H240583   0.304   3.709   0.436
13548TIP3   OH240584   4.465   6.341   3.882
13548TIP3    H140585   4.484   6.427   3.844
13548TIP3    H240586   4.495   6.279   3.815
13549TIP3   OH240587   6.719   5.147  -0.013
13549TIP3    H140588   6.663   5.101   0.050
13549TIP3    H240589   6.805   5.151   0.029
13550TIP3   OH240590   8.000   4.417   0.458
13550TIP3    H140591   8.060   4.370   0.400
13550TIP3    H240592   8.041   4.411   0.545
13551TIP3   OH240593   4.991   5.590   3.146
13551TIP3    H140594   4.969   5.538   3.068
13551TIP3    H240595   4.943   5.548   3.217
13552TIP3   OH240596   2.728   6.648   6.814
13552TIP3    H140597   2.688   6.573   6.858
13552TIP3    H240598   2.723   6.719   6.878
13553TIP3   OH240599   2.348   0.454   1.921
13553TIP3    H140600   2.304   0.498   1.993
13553TIP3    H240601   2.415   0.516   1.891
13554TIP3   OH240602   5.182   0.478   1.251
13554TIP3    H140603   5.153   0.472   1.160
13554TIP3    H240604   5.109   0.445   1.302
13555TIP3   OH240605   4.462   0.209   3.288
13555TIP3    H140606   4.501   0.268   3.224
13555TIP3    H240607   4.529   0.198   3.355
13556TIP3   OH240608   3.142   0.433   1.610
13556TIP3    H140609   3.229   0.410   1.645
13556TIP3    H240610   3.109   0.351   1.572
13557TIP3   OH240611   6.069   2.597   4.969
13557TIP3    H140612   6.052   2.530   4.903
13557TIP3    H240613   6.097   2.674   4.919
13558TIP3   OH240614   2.858   5.034   1.243
13558TIP3    H140615   2.865   5.117   1.290
13558TIP3    H240616   2.817   4.974   1.306
13559TIP3   OH240617   0.150   6.961   2.033
13559TIP3    H140618   0.088   7.028   2.060
13559TIP3    H240619   0.236   6.999   2.052
13560TIP3   OH240620   7.492   2.080   3.973
13560TIP3    H140621   7.482   2.128   3.891
13560TIP3    H240622   7.402   2.061   4.001
13561TIP3   OH240623   3.049   5.801   5.454
13561TIP3    H140624   3.096   5.863   5.508
13561TIP3    H240625   3.097   5.719   5.463
13562TIP3   OH240626   2.000   1.898   1.390
13562TIP3    H140627   1.994   1.859   1.303
13562TIP3    H240628   1.910   1.903   1.421
13563TIP3   OH240629   2.593   1.886   5.301
13563TIP3    H140630   2.683   1.904   5.274
13563TIP3    H240631   2.579   1.793   5.279
13564TIP3   OH240632   4.978   4.195   5.683
13564TIP3    H140633   4.925   4.274   5.674
13564TIP3    H240634   5.032   4.212   5.761
13565TIP3   OH240635   4.103   2.188   4.298
13565TIP3    H140636   4.185   2.191   4.348
13565TIP3    H240637   4.065   2.103   4.319
13566TIP3   OH240638   1.298   0.552   2.566
13566TIP3    H140639   1.322   0.515   2.481
13566TIP3    H240640   1.381   0.582   2.603
13567TIP3   OH240641   3.818   5.372   6.218
13567TIP3    H140642   3.740   5.318   6.214
13567TIP3    H240643   3.879   5.323   6.273
13568TIP3   OH240644   7.633   0.639   1.658
13568TIP3    H140645   7.593   0.604   1.578
13568TIP3    H240646   7.559   0.668   1.711
13569TIP3   OH240647   0.179   4.287   5.666
13569TIP3    H140648   0.087   4.295   5.640
13569TIP3    H240649   0.213   4.217   5.610
13570TIP3   OH240650   0.180   2.552   1.703
13570TIP3    H140651   0.228   2.537   1.784
13570TIP3    H240652   0.237   2.610   1.652
13571TIP3   OH240653   4.241   1.617   2.822
13571TIP3    H140654   4.291   1.641   2.744
13571TIP3    H240655   4.248   1.521   2.827
13572TIP3   OH240656   4.426   0.032   5.864
13572TIP3    H140657   4.442   0.118   5.903
13572TIP3    H240658   4.441  -0.030   5.935
13573TIP3   OH240659   4.923   5.726   3.868
13573TIP3    H140660   4.925   5.648   3.813
13573TIP3    H240661   4.988   5.709   3.936
13574TIP3   OH240662   3.855   6.983   5.050
13574TIP3    H140663   3.806   6.993   4.968
13574TIP3    H240664   3.836   7.063   5.099
13575TIP3   OH240665   6.802   7.392   1.164
13575TIP3    H140666   6.727   7.439   1.129
13575TIP3    H240667   6.875   7.415   1.106
13576TIP3   OH240668   2.384   5.868   4.586
13576TIP3    H140669   2.352   5.845   4.673
13576TIP3    H240670   2.454   5.805   4.567
13577TIP3   OH240671   5.253   3.456   2.699
13577TIP3    H140672   5.340   3.482   2.669
13577TIP3    H240673   5.237   3.372   2.656
13578TIP3   OH240674   6.510   7.893   2.090
13578TIP3    H140675   6.530   7.881   1.997
13578TIP3    H240676   6.580   7.847   2.136
13579TIP3   OH240677   2.138   1.524   2.123
13579TIP3    H140678   2.043   1.532   2.120
13579TIP3    H240679   2.161   1.481   2.041
13580TIP3   OH240680  -0.013   1.576   2.880
13580TIP3    H140681   0.082   1.586   2.885
13580TIP3    H240682  -0.045   1.606   2.965
13581TIP3   OH240683   0.806   4.167   3.772
13581TIP3    H140684   0.786   4.259   3.754
13581TIP3    H240685   0.880   4.147   3.714
13582TIP3   OH240686   5.431   7.230   2.305
13582TIP3    H140687   5.418   7.307   2.249
13582TIP3    H240688   5.483   7.170   2.252
13583TIP3   OH240689   0.816   2.259   0.092
13583TIP3    H140690   0.832   2.218   0.177
13583TIP3    H240691   0.901   2.294   0.065
13584TIP3   OH240692   1.911   2.062   2.094
13584TIP3    H140693   1.850   2.127   2.058
13584TIP3    H240694   1.860   2.015   2.160
13585TIP3   OH240695   5.814   0.877   6.314
13585TIP3    H140696   5.876   0.876   6.241
13585TIP3    H240697   5.743   0.935   6.285
13586TIP3   OH240698   7.715   2.137   2.310
13586TIP3    H140699   7.805   2.104   2.300
13586TIP3    H240700   7.724   2.212   2.369
13587TIP3   OH240701   2.803   0.564   3.584
13587TIP3    H140702   2.784   0.472   3.600
13587TIP3    H240703   2.758   0.611   3.654
13588TIP3   OH240704   7.098   4.913   4.342
13588TIP3    H140705   7.071   4.870   4.423
13588TIP3    H240706   7.136   4.843   4.289
13589TIP3   OH240707   3.762   2.659   0.931
13589TIP3    H140708   3.754   2.745   0.890
13589TIP3    H240709   3.806   2.605   0.865
13590TIP3   OH240710   6.797   0.708   2.944
13590TIP3    H140711   6.765   0.657   2.870
13590TIP3    H240712   6.742   0.680   3.017
13591TIP3   OH240713   7.610   2.304   3.758
13591TIP3    H140714   7.661   2.336   3.683
13591TIP3    H240715   7.519   2.317   3.733
13592TIP3   OH240716   3.307   0.831   0.642
13592TIP3    H140717   3.300   0.907   0.700
13592TIP3    H240718   3.394   0.795   0.660
13593TIP3   OH240719   1.964   2.739   5.187
13593TIP3    H140720   2.009   2.793   5.122
13593TIP3    H240721   1.883   2.787   5.206
13594TIP3   OH240722   6.101   6.293   5.496
13594TIP3    H140723   6.098   6.199   5.512
13594TIP3    H240724   6.035   6.329   5.556
13595TIP3   OH240725   2.541   7.835   3.230
13595TIP3    H140726   2.624   7.809   3.271
13595TIP3    H240727   2.563   7.850   3.138
13596TIP3   OH240728   7.861   7.441   5.057
13596TIP3    H140729   7.927   7.383   5.019
13596TIP3    H240730   7.793   7.447   4.991
13597TIP3   OH240731   7.654   4.267   3.380
13597TIP3    H140732   7.644   4.363   3.383
13597TIP3    H240733   7.605   4.236   3.456
13598TIP3   OH240734   8.229   3.546   4.428
13598TIP3    H140735   8.238   3.527   4.522
13598TIP3    H240736   8.316   3.575   4.401
13599TIP3   OH240737   2.966   5.023   1.922
13599TIP3    H140738   3.048   4.993   1.960
13599TIP3    H240739   2.898   4.989   1.981
13600TIP3   OH240740   0.079   7.213   4.075
13600TIP3    H140741   0.145   7.235   4.009
13600TIP3    H240742   0.014   7.162   4.026
13601TIP3   OH240743   4.063   7.117   0.389
13601TIP3    H140744   4.044   7.195   0.442
13601TIP3    H240745   4.156   7.101   0.402
13602TIP3   OH240746   1.610   3.574   4.747
13602TIP3    H140747   1.649   3.659   4.767
13602TIP3    H240748   1.611   3.527   4.831
13603TIP3   OH240749   7.630   0.893   6.080
13603TIP3    H140750   7.693   0.875   6.150
13603TIP3    H240751   7.553   0.928   6.125
13604TIP3   OH240752   5.458   5.197   4.764
13604TIP3    H140753   5.464   5.150   4.848
13604TIP3    H240754   5.373   5.170   4.728
13605TIP3   OH240755   7.899   0.690   2.335
13605TIP3    H140756   7.864   0.765   2.383
13605TIP3    H240757   7.991   0.685   2.362
13606TIP3   OH240758   5.036   7.611   1.148
13606TIP3    H140759   4.990   7.694   1.165
13606TIP3    H240760   5.014   7.555   1.222
13607TIP3   OH240761   0.788   7.069   4.067
13607TIP3    H140762   0.828   6.988   4.097
13607TIP3    H240763   0.839   7.095   3.990
13608TIP3   OH240764   0.708   1.293   2.976
13608TIP3    H140765   0.786   1.272   3.028
13608TIP3    H240766   0.634   1.273   3.034
13609TIP3   OH240767   1.859   2.665   2.453
13609TIP3    H140768   1.857   2.575   2.486
13609TIP3    H240769   1.767   2.692   2.451
13610TIP3   OH240770   1.586   2.551   0.516
13610TIP3    H140771   1.621   2.637   0.541
13610TIP3    H240772   1.663   2.501   0.488
13611TIP3   OH240773   2.695   4.445   5.047
13611TIP3    H140774   2.705   4.356   5.081
13611TIP3    H240775   2.779   4.464   5.004
13612TIP3   OH240776   1.680   2.994   1.156
13612TIP3    H140777   1.595   2.993   1.113
13612TIP3    H240778   1.721   3.076   1.126
13613TIP3   OH240779   0.845   4.374   4.103
13613TIP3    H140780   0.939   4.362   4.120
13613TIP3    H240781   0.832   4.468   4.105
13614TIP3   OH240782   2.041   4.904   5.653
13614TIP3    H140783   2.008   4.820   5.621
13614TIP3    H240784   2.002   4.914   5.740
13615TIP3   OH240785   5.685   6.116   3.236
13615TIP3    H140786   5.609   6.161   3.201
13615TIP3    H240787   5.754   6.182   3.239
13616TIP3   OH240788   5.548   7.635   2.967
13616TIP3    H140789   5.632   7.592   2.975
13616TIP3    H240790   5.529   7.633   2.873
13617TIP3   OH240791   7.441   6.393   0.153
13617TIP3    H140792   7.426   6.472   0.205
13617TIP3    H240793   7.364   6.339   0.168
13618TIP3   OH240794   2.498   0.328   5.186
13618TIP3    H140795   2.559   0.385   5.233
13618TIP3    H240796   2.494   0.249   5.240
13619TIP3   OH240797   3.927   4.683   3.517
13619TIP3    H140798   3.953   4.772   3.542
13619TIP3    H240799   3.850   4.696   3.461
13620TIP3   OH240800   2.975   0.850   6.259
13620TIP3    H140801   2.987   0.938   6.225
13620TIP3    H240802   3.031   0.794   6.205
13621TIP3   OH240803   5.396   5.668   3.380
13621TIP3    H140804   5.479   5.715   3.375
13621TIP3    H240805   5.330   5.733   3.357
13622TIP3   OH240806   2.447   2.093   5.259
13622TIP3    H140807   2.499   2.018   5.286
13622TIP3    H240808   2.437   2.082   5.164
13623TIP3   OH240809   2.712   4.283   2.445
13623TIP3    H140810   2.697   4.233   2.525
13623TIP3    H240811   2.671   4.231   2.376
13624TIP3   OH240812   3.992   6.874   5.244
13624TIP3    H140813   3.946   6.919   5.173
13624TIP3    H240814   3.939   6.892   5.321
13625TIP3   OH240815   3.706   7.595   3.170
13625TIP3    H140816   3.716   7.530   3.100
13625TIP3    H240817   3.764   7.564   3.240
13626TIP3   OH240818   7.858   1.027   0.219
13626TIP3    H140819   7.868   1.122   0.216
13626TIP3    H240820   7.800   1.012   0.293
13627TIP3   OH240821   7.189   6.431   5.347
13627TIP3    H140822   7.166   6.340   5.331
13627TIP3    H240823   7.108   6.471   5.377
13628TIP3   OH240824   2.681   4.784   1.919
13628TIP3    H140825   2.661   4.868   1.962
13628TIP3    H240826   2.649   4.718   1.980
13629TIP3   OH240827   2.962   7.006   3.104
13629TIP3    H140828   3.004   7.073   3.051
13629TIP3    H240829   2.947   7.049   3.188
13630TIP3   OH240830   2.939   2.796   4.412
13630TIP3    H140831   2.900   2.883   4.410
13630TIP3    H240832   2.915   2.756   4.329
13631TIP3   OH240833   1.698   7.043   2.578
13631TIP3    H140834   1.602   7.039   2.581
13631TIP3    H240835   1.719   7.134   2.596
13632TIP3   OH240836   2.932   7.297   1.562
13632TIP3    H140837   2.869   7.292   1.491
13632TIP3    H240838   2.893   7.246   1.633
13633TIP3   OH240839   8.122   4.844   6.472
13633TIP3    H140840   8.035   4.858   6.435
13633TIP3    H240841   8.120   4.754   6.505
13634TIP3   OH240842   0.123   7.802   2.882
13634TIP3    H140843   0.211   7.790   2.918
13634TIP3    H240844   0.130   7.882   2.829
13635TIP3   OH240845   6.530   5.857   0.343
13635TIP3    H140846   6.550   5.888   0.255
13635TIP3    H240847   6.564   5.767   0.346
13636TIP3   OH240848   1.758   5.668   3.169
13636TIP3    H140849   1.706   5.740   3.206
13636TIP3    H240850   1.779   5.613   3.243
13637TIP3   OH240851   3.272   3.977   0.344
13637TIP3    H140852   3.269   4.056   0.290
13637TIP3    H240853   3.184   3.939   0.336
13638TIP3   OH240854   5.797   0.122   3.546
13638TIP3    H140855   5.871   0.079   3.590
13638TIP3    H240856   5.724   0.061   3.557
13639TIP3   OH240857   5.891   5.022   0.193
13639TIP3    H140858   5.818   4.996   0.250
13639TIP3    H240859   5.851   5.076   0.125
13640TIP3   OH240860   4.347   6.022   6.829
13640TIP3    H140861   4.279   5.971   6.872
13640TIP3    H240862   4.429   5.980   6.854
13641TIP3   OH240863   6.418   7.313   3.208
13641TIP3    H140864   6.467   7.386   3.171
13641TIP3    H240865   6.454   7.302   3.297
13642TIP3   OH240866   5.920   1.836   6.498
13642TIP3    H140867   5.837   1.794   6.476
13642TIP3    H240868   5.948   1.793   6.579
13643TIP3   OH240869   1.059   3.448   6.808
13643TIP3    H140870   0.974   3.404   6.807
13643TIP3    H240871   1.121   3.381   6.835
13644TIP3   OH240872   5.976   4.350   5.182
13644TIP3    H140873   5.931   4.384   5.259
13644TIP3    H240874   6.058   4.315   5.217
13645TIP3   OH240875   5.091   3.554   3.228
13645TIP3    H140876   5.097   3.569   3.134
13645TIP3    H240877   5.081   3.459   3.237
13646TIP3   OH240878   0.617   0.509   0.189
13646TIP3    H140879   0.680   0.570   0.229
13646TIP3    H240880   0.532   0.551   0.201
13647TIP3   OH240881   7.675   7.293   2.582
13647TIP3    H140882   7.634   7.351   2.647
13647TIP3    H240883   7.764   7.326   2.574
13648TIP3   OH240884   4.254   0.264   2.298
13648TIP3    H140885   4.215   0.266   2.210
13648TIP3    H240886   4.325   0.328   2.294
13649TIP3   OH240887   2.374   3.073   3.068
13649TIP3    H140888   2.380   2.988   3.024
13649TIP3    H240889   2.329   3.055   3.150
13650TIP3   OH240890   5.415   3.039   2.738
13650TIP3    H140891   5.368   3.081   2.666
13650TIP3    H240892   5.393   2.946   2.729
13651TIP3   OH240893   1.213   1.915   2.363
13651TIP3    H140894   1.238   1.837   2.313
13651TIP3    H240895   1.164   1.969   2.301
13652TIP3   OH240896   3.897   0.828   1.384
13652TIP3    H140897   3.988   0.843   1.358
13652TIP3    H240898   3.857   0.915   1.383
13653TIP3   OH240899   0.105   4.529   6.343
13653TIP3    H140900   0.081   4.598   6.280
13653TIP3    H240901   0.198   4.545   6.360
13654TIP3   OH240902   7.357   1.702   4.562
13654TIP3    H140903   7.439   1.750   4.575
13654TIP3    H240904   7.384   1.613   4.542
13655TIP3   OH240905   8.197   1.766   5.194
13655TIP3    H140906   8.196   1.720   5.277
13655TIP3    H240907   8.255   1.715   5.138
13656TIP3   OH240908   5.094   3.339   4.322
13656TIP3    H140909   5.047   3.404   4.375
13656TIP3    H240910   5.172   3.385   4.291
13657TIP3   OH240911   1.606   7.341   5.285
13657TIP3    H140912   1.521   7.384   5.279
13657TIP3    H240913   1.647   7.378   5.363
13658TIP3   OH240914   7.055   1.419   0.508
13658TIP3    H140915   7.142   1.418   0.548
13658TIP3    H240916   7.055   1.346   0.447
13659TIP3   OH240917   7.147   5.552   3.981
13659TIP3    H140918   7.205   5.527   3.908
13659TIP3    H240919   7.179   5.500   4.055
13660TIP3   OH240920   3.424   5.425   6.773
13660TIP3    H140921   3.425   5.483   6.849
13660TIP3    H240922   3.335   5.430   6.740
13661TIP3   OH240923   5.841   1.538   2.617
13661TIP3    H140924   5.851   1.497   2.531
13661TIP3    H240925   5.927   1.527   2.659
13662TIP3   OH240926   1.700   0.325   5.097
13662TIP3    H140927   1.631   0.390   5.107
13662TIP3    H240928   1.780   0.376   5.086
13663TIP3   OH240929   2.403   0.276   2.263
13663TIP3    H140930   2.387   0.194   2.217
13663TIP3    H240931   2.323   0.327   2.252
13664TIP3   OH240932   3.913   5.045   4.323
13664TIP3    H140933   4.001   5.074   4.298
13664TIP3    H240934   3.928   4.970   4.380
13665TIP3   OH240935   0.529   0.326   1.193
13665TIP3    H140936   0.433   0.330   1.191
13665TIP3    H240937   0.551   0.322   1.286
13666TIP3   OH240938   3.318   4.990   3.790
13666TIP3    H140939   3.376   5.050   3.744
13666TIP3    H240940   3.284   5.040   3.864
13667TIP3   OH240941   5.968   7.230   5.375
13667TIP3    H140942   6.001   7.304   5.325
13667TIP3    H240943   5.928   7.173   5.309
13668TIP3   OH240944   5.719   5.134   5.084
13668TIP3    H140945   5.767   5.086   5.152
13668TIP3    H240946   5.647   5.176   5.132
13669TIP3   OH240947   5.372   6.514   0.117
13669TIP3    H140948   5.277   6.501   0.123
13669TIP3    H240949   5.409   6.426   0.130
13670TIP3   OH240950   1.457   3.270   6.744
13670TIP3    H140951   1.376   3.273   6.693
13670TIP3    H240952   1.428   3.271   6.835
13671TIP3   OH240953   8.357   7.882   1.653
13671TIP3    H140954   8.433   7.935   1.680
13671TIP3    H240955   8.315   7.856   1.734
13672TIP3   OH240956   5.439   2.468   0.267
13672TIP3    H140957   5.425   2.510   0.352
13672TIP3    H240958   5.526   2.497   0.240
13673TIP3   OH240959   5.716   4.231   5.664
13673TIP3    H140960   5.756   4.212   5.579
13673TIP3    H240961   5.622   4.239   5.645
13674TIP3   OH240962   1.491   7.042   6.036
13674TIP3    H140963   1.452   7.103   5.973
13674TIP3    H240964   1.576   7.019   5.998
13675TIP3   OH240965   7.273   2.037   2.283
13675TIP3    H140966   7.223   1.958   2.303
13675TIP3    H240967   7.260   2.094   2.358
13676TIP3   OH240968   3.103   1.595   2.894
13676TIP3    H140969   3.043   1.605   2.820
13676TIP3    H240970   3.140   1.682   2.908
13677TIP3   OH240971   5.402   2.397   3.360
13677TIP3    H140972   5.337   2.399   3.430
13677TIP3    H240973   5.486   2.395   3.405
13678TIP3   OH240974   2.880   0.952   1.259
13678TIP3    H140975   2.893   0.903   1.340
13678TIP3    H240976   2.809   1.013   1.279
13679TIP3   OH240977   5.474   1.078   1.505
13679TIP3    H140978   5.382   1.055   1.491
13679TIP3    H240979   5.522   0.998   1.486
13680TIP3   OH240980   1.094   3.531   4.578
13680TIP3    H140981   1.055   3.619   4.574
13680TIP3    H240982   1.076   3.501   4.667
13681TIP3   OH240983   4.431   6.233   1.581
13681TIP3    H140984   4.433   6.138   1.593
13681TIP3    H240985   4.507   6.252   1.525
13682TIP3   OH240986   5.632   6.527   1.408
13682TIP3    H140987   5.678   6.461   1.356
13682TIP3    H240988   5.557   6.551   1.355
13683TIP3   OH240989   3.309   6.910   1.960
13683TIP3    H140990   3.382   6.872   1.911
13683TIP3    H240991   3.349   6.942   2.041
13684TIP3   OH240992   7.051   5.468   5.429
13684TIP3    H140993   7.112   5.492   5.500
13684TIP3    H240994   7.003   5.393   5.463
13685TIP3   OH240995   1.561   5.969   1.176
13685TIP3    H140996   1.489   5.949   1.236
13685TIP3    H240997   1.544   5.914   1.099
13686TIP3   OH240998   6.854   3.534   1.581
13686TIP3    H140999   6.804   3.455   1.600
13686TIP3    H241000   6.912   3.510   1.509
13687TIP3   OH241001   0.283   6.809   3.932
13687TIP3    H141002   0.219   6.798   3.861
13687TIP3    H241003   0.232   6.847   4.003
13688TIP3   OH241004   7.936   0.023   1.627
13688TIP3    H141005   7.885   0.079   1.568
13688TIP3    H241006   7.901  -0.065   1.613
13689TIP3   OH241007   6.178   2.263   5.968
13689TIP3    H141008   6.130   2.194   6.014
13689TIP3    H241009   6.266   2.228   5.957
13690TIP3   OH241010   5.533   3.785   0.556
13690TIP3    H141011   5.461   3.795   0.619
13690TIP3    H241012   5.561   3.875   0.538
13691TIP3   OH241013   4.752   7.271   3.994
13691TIP3    H141014   4.780   7.306   4.079
13691TIP3    H241015   4.657   7.264   4.001
13692TIP3   OH241016   2.488   6.302   3.031
13692TIP3    H141017   2.402   6.267   3.008
13692TIP3    H241018   2.547   6.268   2.963
13693TIP3   OH241019   3.012   6.954   4.058
13693TIP3    H141020   3.031   6.976   4.149
13693TIP3    H241021   3.071   7.008   4.007
13694TIP3   OH241022   7.468   4.210   3.572
13694TIP3    H141023   7.439   4.261   3.647
13694TIP3    H241024   7.413   4.239   3.500
13695TIP3   OH241025   2.917   0.234   4.770
13695TIP3    H141026   2.944   0.154   4.725
13695TIP3    H241027   2.853   0.274   4.711
13696TIP3   OH241028   0.353   1.029   5.327
13696TIP3    H141029   0.365   1.116   5.290
13696TIP3    H241030   0.283   1.041   5.392
13697TIP3   OH241031   0.158   5.319   2.086
13697TIP3    H141032   0.064   5.331   2.098
13697TIP3    H241033   0.173   5.227   2.107
13698TIP3   OH241034   7.188   5.307   1.359
13698TIP3    H141035   7.229   5.389   1.332
13698TIP3    H241036   7.225   5.241   1.301
13699TIP3   OH241037   2.759   1.544   4.512
13699TIP3    H141038   2.703   1.467   4.509
13699TIP3    H241039   2.720   1.605   4.450
13700TIP3   OH241040   8.207   1.003   1.819
13700TIP3    H141041   8.271   1.020   1.888
13700TIP3    H241042   8.204   1.085   1.769
13701TIP3   OH241043   6.211   1.779   0.995
13701TIP3    H141044   6.145   1.820   0.940
13701TIP3    H241045   6.267   1.851   1.023
13702TIP3   OH241046   4.405   4.842   0.759
13702TIP3    H141047   4.475   4.903   0.738
13702TIP3    H241048   4.447   4.775   0.812
13703TIP3   OH241049   6.462   6.436   2.831
13703TIP3    H141050   6.547   6.392   2.830
13703TIP3    H241051   6.472   6.510   2.771
13704TIP3   OH241052   1.378   1.983   5.861
13704TIP3    H141053   1.364   1.928   5.783
13704TIP3    H241054   1.390   1.920   5.932
13705TIP3   OH241055   8.242   1.170   1.014
13705TIP3    H141056   8.300   1.146   0.942
13705TIP3    H241057   8.164   1.116   1.002
13706TIP3   OH241058   7.867   5.960   2.223
13706TIP3    H141059   7.946   5.915   2.254
13706TIP3    H241060   7.823   5.894   2.169
13707TIP3   OH241061   1.967   2.850   1.644
13707TIP3    H141062   1.943   2.834   1.735
13707TIP3    H241063   1.891   2.820   1.594
13708TIP3   OH241064   0.203   2.176   3.896
13708TIP3    H141065   0.135   2.115   3.925
13708TIP3    H241066   0.269   2.120   3.855
13709TIP3   OH241067   8.180   0.292   1.481
13709TIP3    H141068   8.160   0.249   1.564
13709TIP3    H241069   8.227   0.371   1.505
13710TIP3   OH241070   3.306   7.033   4.565
13710TIP3    H141071   3.317   7.026   4.470
13710TIP3    H241072   3.212   7.051   4.577
13711TIP3   OH241073   5.549   4.413   0.065
13711TIP3    H141074   5.643   4.396   0.069
13711TIP3    H241075   5.509   4.328   0.082
13712TIP3   OH241076   7.042   2.100   5.478
13712TIP3    H141077   7.065   2.030   5.417
13712TIP3    H241078   7.118   2.159   5.476
13713TIP3   OH241079   0.868   1.322   4.524
13713TIP3    H141080   0.824   1.261   4.583
13713TIP3    H241081   0.826   1.310   4.439
13714TIP3   OH241082   0.134   5.557   2.999
13714TIP3    H141083   0.161   5.495   2.932
13714TIP3    H241084   0.076   5.618   2.953
13715TIP3   OH241085   2.714   3.669   2.504
13715TIP3    H141086   2.735   3.711   2.587
13715TIP3    H241087   2.703   3.742   2.443
13716TIP3   OH241088   8.095   3.231   6.478
13716TIP3    H141089   8.053   3.304   6.521
13716TIP3    H241090   8.096   3.161   6.544
13717TIP3   OH241091   0.265   6.557   0.019
13717TIP3    H141092   0.304   6.588   0.101
13717TIP3    H241093   0.173   6.542   0.040
13718TIP3   OH241094   2.879   1.692   1.115
13718TIP3    H141095   2.808   1.627   1.110
13718TIP3    H241096   2.843   1.770   1.075
13719TIP3   OH241097   7.361   1.117   1.096
13719TIP3    H141098   7.293   1.056   1.069
13719TIP3    H241099   7.443   1.070   1.083
13720TIP3   OH241100   1.734   3.463   6.431
13720TIP3    H141101   1.759   3.458   6.523
13720TIP3    H241102   1.697   3.377   6.411
13721TIP3   OH241103   1.341   4.211   5.429
13721TIP3    H141104   1.325   4.132   5.480
13721TIP3    H241105   1.426   4.196   5.387
13722TIP3   OH241106   6.393   7.247   0.688
13722TIP3    H141107   6.316   7.225   0.740
13722TIP3    H241108   6.455   7.282   0.752
13723TIP3   OH241109   5.364   6.499   2.723
13723TIP3    H141110   5.459   6.509   2.728
13723TIP3    H241111   5.348   6.463   2.636
13724TIP3   OH241112   5.428   4.394   1.361
13724TIP3    H141113   5.438   4.397   1.266
13724TIP3    H241114   5.493   4.456   1.394
13725TIP3   OH241115   6.008   7.631   0.952
13725TIP3    H141116   6.005   7.595   0.864
13725TIP3    H241117   6.008   7.554   1.009
13726TIP3   OH241118   1.090   6.599   3.076
13726TIP3    H141119   1.002   6.563   3.072
13726TIP3    H241120   1.079   6.687   3.111
13727TIP3   OH241121   4.827   1.889   0.797
13727TIP3    H141122   4.861   1.857   0.881
13727TIP3    H241123   4.843   1.983   0.799
13728TIP3   OH241124   7.260   5.666   3.010
13728TIP3    H141125   7.273   5.582   3.053
13728TIP3    H241126   7.348   5.696   2.986
13729TIP3   OH241127   7.089   2.341   2.225
13729TIP3    H141128   7.141   2.368   2.150
13729TIP3    H241129   7.145   2.358   2.301
13730TIP3   OH241130   5.998   7.547   0.231
13730TIP3    H141131   5.950   7.464   0.234
13730TIP3    H241132   6.090   7.521   0.233
13731TIP3   OH241133   5.523   0.325   4.788
13731TIP3    H141134   5.480   0.408   4.768
13731TIP3    H241135   5.609   0.350   4.821
13732TIP3   OH241136   5.756   6.202   6.303
13732TIP3    H141137   5.732   6.190   6.395
13732TIP3    H241138   5.790   6.117   6.276
13733TIP3   OH241139   0.035   4.982   3.497
13733TIP3    H141140  -0.045   4.936   3.470
13733TIP3    H241141   0.070   4.929   3.568
13734TIP3   OH241142   2.976   7.279   6.301
13734TIP3    H141143   2.901   7.336   6.284
13734TIP3    H241144   3.050   7.338   6.310
13735TIP3   OH241145   7.256   4.778   3.455
13735TIP3    H141146   7.166   4.744   3.450
13735TIP3    H241147   7.293   4.759   3.369
13736TIP3   OH241148   0.294   4.877   4.247
13736TIP3    H141149   0.281   4.793   4.292
13736TIP3    H241150   0.377   4.867   4.200
13737TIP3   OH241151   7.621   6.003   2.861
13737TIP3    H141152   7.620   6.093   2.894
13737TIP3    H241153   7.589   6.011   2.771
13738TIP3   OH241154   2.614   2.235   2.047
13738TIP3    H141155   2.691   2.236   1.991
13738TIP3    H241156   2.546   2.195   1.993
13739TIP3   OH241157   5.063   7.724   0.027
13739TIP3    H141158   4.976   7.715   0.067
13739TIP3    H241159   5.046   7.722  -0.067
13740TIP3   OH241160   1.454   0.729   3.151
13740TIP3    H141161   1.412   0.769   3.227
13740TIP3    H241162   1.513   0.663   3.189
13741TIP3   OH241163   1.008   3.545   2.334
13741TIP3    H141164   0.994   3.524   2.426
13741TIP3    H241165   0.939   3.607   2.313
13742TIP3   OH241166   7.232   5.816   4.878
13742TIP3    H141167   7.276   5.745   4.830
13742TIP3    H241168   7.161   5.843   4.820
13743TIP3   OH241169   3.910   6.804   1.495
13743TIP3    H141170   3.895   6.739   1.426
13743TIP3    H241171   3.905   6.889   1.450
13744TIP3   OH241172   1.702   6.181   1.062
13744TIP3    H141173   1.653   6.124   1.120
13744TIP3    H241174   1.635   6.228   1.012
13745TIP3   OH241175   4.094   5.986   2.961
13745TIP3    H141176   4.099   5.890   2.968
13745TIP3    H241177   4.176   6.011   2.921
13746TIP3   OH241178   0.073   4.911   1.419
13746TIP3    H141179   0.149   4.939   1.470
13746TIP3    H241180   0.007   4.978   1.435
13747TIP3   OH241181   0.126   3.098   4.289
13747TIP3    H141182   0.154   3.150   4.214
13747TIP3    H241183   0.156   3.009   4.270
13748TIP3   OH241184   4.564   7.768   0.039
13748TIP3    H141185   4.568   7.690  -0.017
13748TIP3    H241186   4.500   7.747   0.106
13749TIP3   OH241187   1.676   7.627   6.338
13749TIP3    H141188   1.602   7.568   6.351
13749TIP3    H241189   1.699   7.657   6.426
13750TIP3   OH241190   3.483   1.193   2.553
13750TIP3    H141191   3.525   1.109   2.534
13750TIP3    H241192   3.433   1.213   2.473
13751TIP3   OH241193   6.550   3.636   1.329
13751TIP3    H141194   6.645   3.646   1.333
13751TIP3    H241195   6.529   3.575   1.399
13752TIP3   OH241196   2.109   2.877   2.025
13752TIP3    H141197   2.066   2.957   1.995
13752TIP3    H241198   2.066   2.858   2.109
13753TIP3   OH241199   8.019   2.821   0.728
13753TIP3    H141200   8.017   2.821   0.632
13753TIP3    H241201   7.996   2.731   0.753
13754TIP3   OH241202   5.882   1.991   3.118
13754TIP3    H141203   5.894   2.086   3.121
13754TIP3    H241204   5.948   1.956   3.178
13755TIP3   OH241205   5.428   5.247   6.230
13755TIP3    H141206   5.493   5.262   6.161
13755TIP3    H241207   5.464   5.293   6.307
13756TIP3   OH241208   0.141   3.716   3.103
13756TIP3    H141209   0.060   3.725   3.154
13756TIP3    H241210   0.138   3.626   3.070
13757TIP3   OH241211   7.269   7.179   2.987
13757TIP3    H141212   7.228   7.096   2.960
13757TIP3    H241213   7.202   7.245   2.969
13758TIP3   OH241214   0.340   7.014   4.943
13758TIP3    H141215   0.362   7.099   4.903
13758TIP3    H241216   0.300   6.964   4.871
13759TIP3   OH241217   1.374   2.167   3.646
13759TIP3    H141218   1.470   2.170   3.652
13759TIP3    H241219   1.354   2.075   3.630
13760TIP3   OH241220   3.881   5.994   4.435
13760TIP3    H141221   3.799   6.044   4.442
13760TIP3    H241222   3.923   6.005   4.520
13761TIP3   OH241223   5.726   1.160   3.531
13761TIP3    H141224   5.762   1.096   3.471
13761TIP3    H241225   5.800   1.216   3.555
13762TIP3   OH241226   4.699   0.547   4.924
13762TIP3    H141227   4.616   0.499   4.920
13762TIP3    H241228   4.766   0.479   4.919
13763TIP3   OH241229   5.797   4.198   6.442
13763TIP3    H141230   5.803   4.286   6.479
13763TIP3    H241231   5.718   4.161   6.481
13764TIP3   OH241232   1.707   3.254   5.452
13764TIP3    H141233   1.719   3.174   5.503
13764TIP3    H241234   1.701   3.323   5.517
13765TIP3   OH241235   6.481   1.390   3.311
13765TIP3    H141236   6.443   1.456   3.253
13765TIP3    H241237   6.521   1.440   3.382
13766TIP3   OH241238   1.667   7.273   4.508
13766TIP3    H141239   1.638   7.257   4.418
13766TIP3    H241240   1.592   7.247   4.562
13767TIP3   OH241241   5.276   7.193   4.519
13767TIP3    H141242   5.291   7.288   4.521
13767TIP3    H241243   5.353   7.158   4.475
13768TIP3   OH241244   3.284   7.175   0.881
13768TIP3    H141245   3.303   7.264   0.910
13768TIP3    H241246   3.363   7.126   0.901
13769TIP3   OH241247   4.456   5.730   5.090
13769TIP3    H141248   4.506   5.650   5.076
13769TIP3    H241249   4.491   5.792   5.026
13770TIP3   OH241250   2.328   4.407   5.680
13770TIP3    H141251   2.338   4.319   5.718
13770TIP3    H241252   2.372   4.465   5.742
13771TIP3   OH241253   6.430   0.286   0.058
13771TIP3    H141254   6.447   0.308  -0.034
13771TIP3    H241255   6.477   0.353   0.107
13772TIP3   OH241256   4.113   3.779   1.563
13772TIP3    H141257   4.166   3.814   1.491
13772TIP3    H241258   4.035   3.744   1.520
13773TIP3   OH241259   0.438   5.411   1.320
13773TIP3    H141260   0.350   5.417   1.281
13773TIP3    H241261   0.496   5.446   1.253
13774TIP3   OH241262   2.785   7.220   4.426
13774TIP3    H141263   2.695   7.188   4.423
13774TIP3    H241264   2.777   7.315   4.414
13775TIP3   OH241265   8.337   4.501   1.199
13775TIP3    H141266   8.245   4.496   1.226
13775TIP3    H241267   8.360   4.593   1.209
13776TIP3   OH241268   0.952   6.685   6.315
13776TIP3    H141269   0.932   6.639   6.233
13776TIP3    H241270   0.872   6.680   6.366
13777TIP3   OH241271   1.527   2.781   1.938
13777TIP3    H141272   1.514   2.835   2.016
13777TIP3    H241273   1.466   2.816   1.874
13778TIP3   OH241274   1.161   1.056   0.359
13778TIP3    H141275   1.194   1.146   0.366
13778TIP3    H241276   1.202   1.010   0.432
13779TIP3   OH241277   3.933   0.205   2.375
13779TIP3    H141278   3.952   0.271   2.441
13779TIP3    H241279   3.840   0.187   2.385
13780TIP3   OH241280   8.171   3.920   1.693
13780TIP3    H141281   8.155   3.846   1.635
13780TIP3    H241282   8.224   3.981   1.642
13781TIP3   OH241283   7.618   5.344   0.996
13781TIP3    H141284   7.545   5.336   0.935
13781TIP3    H241285   7.629   5.438   1.010
13782TIP3   OH241286   1.413   2.746   0.996
13782TIP3    H141287   1.422   2.697   1.077
13782TIP3    H241288   1.379   2.831   1.023
13783TIP3   OH241289   2.890   4.370   0.174
13783TIP3    H141290   2.855   4.387   0.087
13783TIP3    H241291   2.983   4.392   0.168
13784TIP3   OH241292   5.031   2.924   0.285
13784TIP3    H141293   5.112   2.905   0.333
13784TIP3    H241294   4.965   2.871   0.329
13785TIP3   OH241295   5.381   5.515   2.152
13785TIP3    H141296   5.289   5.532   2.130
13785TIP3    H241297   5.397   5.426   2.122
13786TIP3   OH241298   4.322   7.814   4.360
13786TIP3    H141299   4.239   7.770   4.373
13786TIP3    H241300   4.385   7.744   4.344
13787TIP3   OH241301   4.453   4.822   4.290
13787TIP3    H141302   4.480   4.835   4.200
13787TIP3    H241303   4.508   4.750   4.322
13788TIP3   OH241304   2.246   6.018   4.400
13788TIP3    H141305   2.292   5.970   4.469
13788TIP3    H241306   2.215   5.950   4.340
13789TIP3   OH241307   2.170   1.736   4.081
13789TIP3    H141308   2.125   1.695   4.155
13789TIP3    H241309   2.185   1.826   4.109
13790TIP3   OH241310   2.962   1.357   5.976
13790TIP3    H141311   2.885   1.326   6.023
13790TIP3    H241312   2.940   1.447   5.951
13791TIP3   OH241313   4.332   5.707   1.122
13791TIP3    H141314   4.246   5.700   1.163
13791TIP3    H241315   4.355   5.800   1.129
13792TIP3   OH241316   1.706   0.281   6.181
13792TIP3    H141317   1.769   0.352   6.182
13792TIP3    H241318   1.693   0.261   6.088
13793TIP3   OH241319   1.643   6.732   1.448
13793TIP3    H141320   1.708   6.661   1.449
13793TIP3    H241321   1.650   6.771   1.535
13794TIP3   OH241322   0.172   0.395   3.777
13794TIP3    H141323   0.248   0.378   3.721
13794TIP3    H241324   0.128   0.470   3.736
13795TIP3   OH241325   5.268   1.115   2.458
13795TIP3    H141326   5.221   1.118   2.375
13795TIP3    H241327   5.201   1.135   2.524
13796TIP3   OH241328   1.232   5.392   4.240
13796TIP3    H141329   1.231   5.476   4.194
13796TIP3    H241330   1.325   5.371   4.248
13797TIP3   OH241331   3.351   2.963   5.140
13797TIP3    H141332   3.401   2.903   5.085
13797TIP3    H241333   3.301   3.017   5.079
13798TIP3   OH241334   6.264   3.245   4.154
13798TIP3    H141335   6.179   3.222   4.191
13798TIP3    H241336   6.310   3.161   4.148
13799TIP3   OH241337   8.118   4.764   1.235
13799TIP3    H141338   8.069   4.751   1.316
13799TIP3    H241339   8.052   4.761   1.166
13800TIP3   OH241340   0.475   5.480   5.498
13800TIP3    H141341   0.561   5.444   5.522
13800TIP3    H241342   0.414   5.440   5.561
13801TIP3   OH241343   0.633   2.632   0.925
13801TIP3    H141344   0.654   2.720   0.892
13801TIP3    H241345   0.678   2.627   1.009
13802TIP3   OH241346   4.476   0.544   3.601
13802TIP3    H141347   4.412   0.611   3.579
13802TIP3    H241348   4.429   0.462   3.593
13803TIP3   OH241349   4.724   3.654   6.738
13803TIP3    H141350   4.728   3.609   6.653
13803TIP3    H241351   4.687   3.740   6.718
13804TIP3   OH241352   3.429   4.919   3.084
13804TIP3    H141353   3.393   5.001   3.117
13804TIP3    H241354   3.354   4.873   3.046
13805TIP3   OH241355   0.483   3.577   1.348
13805TIP3    H141356   0.502   3.487   1.374
13805TIP3    H241357   0.522   3.632   1.416
13806TIP3   OH241358   5.503   3.012   5.261
13806TIP3    H141359   5.506   3.080   5.194
13806TIP3    H241360   5.479   2.932   5.214
13807TIP3   OH241361   1.098   2.233   4.204
13807TIP3    H141362   1.137   2.290   4.270
13807TIP3    H241363   1.007   2.222   4.231
13808TIP3   OH241364   1.578   4.079   1.231
13808TIP3    H141365   1.612   4.068   1.143
13808TIP3    H241366   1.644   4.039   1.288
13809TIP3   OH241367   3.866   3.499   3.824
13809TIP3    H141368   3.890   3.552   3.900
13809TIP3    H241369   3.781   3.462   3.846
13810TIP3   OH241370   6.414   4.437   2.417
13810TIP3    H141371   6.390   4.396   2.334
13810TIP3    H241372   6.476   4.376   2.457
13811TIP3   OH241373   6.266   0.804   3.338
13811TIP3    H141374   6.211   0.781   3.263
13811TIP3    H241375   6.337   0.740   3.335
13812TIP3   OH241376   0.873   0.719   3.538
13812TIP3    H141377   0.836   0.679   3.617
13812TIP3    H241378   0.875   0.813   3.557
13813TIP3   OH241379   5.856   2.193   0.314
13813TIP3    H141380   5.919   2.132   0.277
13813TIP3    H241381   5.770   2.155   0.292
13814TIP3   OH241382   5.432   6.055   3.655
13814TIP3    H141383   5.378   6.104   3.718
13814TIP3    H241384   5.504   6.114   3.635
13815TIP3   OH241385   5.435   4.487   3.253
13815TIP3    H141386   5.405   4.462   3.166
13815TIP3    H241387   5.530   4.488   3.247
13816TIP3   OH241388   4.527   7.393   4.515
13816TIP3    H141389   4.466   7.329   4.479
13816TIP3    H241390   4.490   7.417   4.600
13817TIP3   OH241391   2.769   0.852   1.666
13817TIP3    H141392   2.825   0.776   1.679
13817TIP3    H241393   2.800   0.918   1.728
13818TIP3   OH241394   6.060   1.447   6.672
13818TIP3    H141395   6.033   1.386   6.603
13818TIP3    H241396   6.156   1.448   6.667
13819TIP3   OH241397   1.486   1.392   1.299
13819TIP3    H141398   1.455   1.330   1.365
13819TIP3    H241399   1.414   1.455   1.290
13820TIP3   OH241400   5.706   6.972   6.625
13820TIP3    H141401   5.614   6.960   6.606
13820TIP3    H241402   5.718   6.932   6.711
13821TIP3   OH241403   5.671   6.886   4.424
13821TIP3    H141404   5.681   6.816   4.489
13821TIP3    H241405   5.714   6.851   4.345
13822TIP3   OH241406   0.542   4.776   1.433
13822TIP3    H141407   0.598   4.699   1.432
13822TIP3    H241408   0.586   4.838   1.374
13823TIP3   OH241409   4.033   1.684   0.442
13823TIP3    H141410   4.123   1.654   0.451
13823TIP3    H241411   4.023   1.702   0.349
13824TIP3   OH241412   7.087   2.138   1.285
13824TIP3    H141413   7.093   2.048   1.319
13824TIP3    H241414   7.122   2.192   1.357
13825TIP3   OH241415   7.558   1.240   4.831
13825TIP3    H141416   7.494   1.294   4.784
13825TIP3    H241417   7.561   1.276   4.919
13826TIP3   OH241418   6.448   4.938   5.168
13826TIP3    H141419   6.499   4.998   5.114
13826TIP3    H241420   6.361   4.977   5.172
13827TIP3   OH241421   7.731   4.237   5.904
13827TIP3    H141422   7.692   4.157   5.941
13827TIP3    H241423   7.724   4.301   5.975
13828TIP3   OH241424   7.288   2.599   1.548
13828TIP3    H141425   7.355   2.535   1.570
13828TIP3    H241426   7.306   2.623   1.457
13829TIP3   OH241427   7.964   4.382   4.545
13829TIP3    H141428   7.935   4.323   4.475
13829TIP3    H241429   7.898   4.372   4.614
13830TIP3   OH241430   6.893   0.071   3.722
13830TIP3    H141431   6.893   0.161   3.756
13830TIP3    H241432   6.803   0.040   3.734
13831TIP3   OH241433   3.205   5.169   4.655
13831TIP3    H141434   3.199   5.088   4.706
13831TIP3    H241435   3.234   5.140   4.569
13832TIP3   OH241436   7.549   2.951   5.212
13832TIP3    H141437   7.585   2.971   5.125
13832TIP3    H241438   7.544   3.036   5.255
13833TIP3   OH241439   1.184   3.313   4.453
13833TIP3    H141440   1.199   3.247   4.520
13833TIP3    H241441   1.145   3.387   4.500
13834TIP3   OH241442   2.538   0.232   4.898
13834TIP3    H141443   2.583   0.159   4.940
13834TIP3    H241444   2.502   0.283   4.970
13835TIP3   OH241445   5.664   6.499   0.468
13835TIP3    H141446   5.682   6.584   0.426
13835TIP3    H241447   5.682   6.513   0.560
13836TIP3   OH241448   1.718   2.624   6.054
13836TIP3    H141449   1.765   2.671   6.123
13836TIP3    H241450   1.718   2.684   5.979
13837TIP3   OH241451   3.798   2.948   6.498
13837TIP3    H141452   3.728   2.983   6.554
13837TIP3    H241453   3.864   2.916   6.560
13838TIP3   OH241454   5.677   6.920   5.048
13838TIP3    H141455   5.592   6.937   5.008
13838TIP3    H241456   5.738   6.914   4.975
13839TIP3   OH241457   2.337   2.793   3.509
13839TIP3    H141458   2.243   2.806   3.495
13839TIP3    H241459   2.347   2.697   3.510
13840TIP3   OH241460   8.389   2.799   4.328
13840TIP3    H141461   8.347   2.879   4.299
13840TIP3    H241462   8.335   2.768   4.400
13841TIP3   OH241463   7.342   3.760   0.873
13841TIP3    H141464   7.349   3.852   0.847
13841TIP3    H241465   7.430   3.724   0.859
13842TIP3   OH241466   1.350   6.992   0.496
13842TIP3    H141467   1.410   7.033   0.558
13842TIP3    H241468   1.323   6.910   0.538
13843TIP3   OH241469   1.175   6.184   2.436
13843TIP3    H141470   1.256   6.201   2.389
13843TIP3    H241471   1.174   6.248   2.507
13844TIP3   OH241472   6.100   2.269   2.498
13844TIP3    H141473   6.175   2.247   2.552
13844TIP3    H241474   6.030   2.211   2.528
13845TIP3   OH241475   7.494   5.757   0.727
13845TIP3    H141476   7.414   5.808   0.739
13845TIP3    H241477   7.537   5.796   0.651
13846TIP3   OH241478   0.798   6.268   1.908
13846TIP3    H141479   0.737   6.330   1.868
13846TIP3    H241480   0.789   6.282   2.002
13847TIP3   OH241481   2.801   2.202   6.766
13847TIP3    H141482   2.814   2.129   6.827
13847TIP3    H241483   2.844   2.173   6.685
13848TIP3   OH241484   6.297   7.096   4.007
13848TIP3    H141485   6.262   7.134   3.926
13848TIP3    H241486   6.334   7.012   3.980
13849TIP3   OH241487   1.924   0.826   4.458
13849TIP3    H141488   1.943   0.918   4.445
13849TIP3    H241489   1.869   0.802   4.384
13850TIP3   OH241490   0.897   1.480   3.270
13850TIP3    H141491   0.960   1.463   3.200
13850TIP3    H241492   0.870   1.394   3.300
13851TIP3   OH241493   6.695   2.077   2.162
13851TIP3    H141494   6.676   2.171   2.169
13851TIP3    H241495   6.610   2.036   2.147
13852TIP3   OH241496   1.101   5.765   0.871
13852TIP3    H141497   1.032   5.705   0.899
13852TIP3    H241498   1.056   5.834   0.824
13853TIP3   OH241499   4.557   4.243   0.289
13853TIP3    H141500   4.534   4.151   0.306
13853TIP3    H241501   4.508   4.265   0.210
13854TIP3   OH241502   2.898   4.911   2.778
13854TIP3    H141503   2.927   4.826   2.745
13854TIP3    H241504   2.826   4.937   2.720
13855TIP3   OH241505   5.250   5.529   0.650
13855TIP3    H141506   5.337   5.569   0.640
13855TIP3    H241507   5.259   5.469   0.724
13856TIP3   OH241508   0.879   3.687   6.709
13856TIP3    H141509   0.795   3.641   6.713
13856TIP3    H241510   0.866   3.756   6.644
13857TIP3   OH241511   3.575   3.898   6.342
13857TIP3    H141512   3.614   3.822   6.385
13857TIP3    H241513   3.481   3.881   6.345
13858TIP3   OH241514   3.052   6.713   1.317
13858TIP3    H141515   3.048   6.681   1.407
13858TIP3    H241516   3.091   6.800   1.324
13859TIP3   OH241517   0.446   0.886   6.264
13859TIP3    H141518   0.514   0.914   6.325
13859TIP3    H241519   0.424   0.797   6.292
13860TIP3   OH241520   0.821   6.279   6.741
13860TIP3    H141521   0.818   6.279   6.837
13860TIP3    H241522   0.826   6.186   6.718
13861TIP3   OH241523   5.796   7.530   2.921
13861TIP3    H141524   5.776   7.489   2.837
13861TIP3    H241525   5.865   7.594   2.901
13862TIP3   OH241526   2.300   0.417   2.575
13862TIP3    H141527   2.256   0.501   2.586
13862TIP3    H241528   2.378   0.437   2.522
13863TIP3   OH241529   0.177   1.021   4.751
13863TIP3    H141530   0.134   1.013   4.836
13863TIP3    H241531   0.218   0.935   4.737
13864TIP3   OH241532   6.595   4.079   0.922
13864TIP3    H141533   6.671   4.043   0.876
13864TIP3    H241534   6.582   4.019   0.996
13865TIP3   OH241535   7.679   3.598   3.042
13865TIP3    H141536   7.612   3.593   2.974
13865TIP3    H241537   7.762   3.607   2.994
13866TIP3   OH241538   7.518   2.350   2.594
13866TIP3    H141539   7.603   2.311   2.572
13866TIP3    H241540   7.539   2.441   2.615
13867TIP3   OH241541   4.175   5.845   5.649
13867TIP3    H141542   4.158   5.919   5.591
13867TIP3    H241543   4.189   5.771   5.589
13868TIP3   OH241544   6.528   3.566   4.338
13868TIP3    H141545   6.566   3.545   4.424
13868TIP3    H241546   6.550   3.658   4.324
13869TIP3   OH241547   3.715   6.630   4.469
13869TIP3    H141548   3.793   6.658   4.516
13869TIP3    H241549   3.706   6.693   4.398
13870TIP3   OH241550   2.227   0.737   1.931
13870TIP3    H141551   2.220   0.820   1.979
13870TIP3    H241552   2.136   0.715   1.910
13871TIP3   OH241553   3.305   2.775   6.115
13871TIP3    H141554   3.251   2.801   6.041
13871TIP3    H241555   3.245   2.772   6.190
13872TIP3   OH241556   3.746   6.163   5.713
13872TIP3    H141557   3.757   6.070   5.735
13872TIP3    H241558   3.757   6.209   5.796
13873TIP3   OH241559   6.384   4.481   3.838
13873TIP3    H141560   6.426   4.537   3.773
13873TIP3    H241561   6.297   4.519   3.850
13874TIP3   OH241562   7.562   3.583   3.419
13874TIP3    H141563   7.534   3.589   3.510
13874TIP3    H241564   7.520   3.505   3.385
13875TIP3   OH241565   5.936   1.136   0.285
13875TIP3    H141566   5.908   1.205   0.345
13875TIP3    H241567   5.994   1.081   0.338
13876TIP3   OH241568   6.153   2.524   6.073
13876TIP3    H141569   6.232   2.549   6.026
13876TIP3    H241570   6.149   2.429   6.065
13877TIP3   OH241571   6.384   2.506   3.733
13877TIP3    H141572   6.342   2.564   3.669
13877TIP3    H241573   6.441   2.564   3.784
13878TIP3   OH241574   1.641   4.718   2.509
13878TIP3    H141575   1.666   4.794   2.561
13878TIP3    H241576   1.695   4.723   2.431
13879TIP3   OH241577   3.473   6.865   5.821
13879TIP3    H141578   3.554   6.833   5.862
13879TIP3    H241579   3.502   6.916   5.746
13880TIP3   OH241580   7.311   2.441   6.339
13880TIP3    H141581   7.252   2.503   6.297
13880TIP3    H241582   7.254   2.387   6.393
13881TIP3   OH241583   2.467   3.414   4.211
13881TIP3    H141584   2.524   3.461   4.272
13881TIP3    H241585   2.511   3.423   4.126
13882TIP3   OH241586   7.647   5.440   1.668
13882TIP3    H141587   7.591   5.512   1.695
13882TIP3    H241588   7.736   5.469   1.690
13883TIP3   OH241589   2.055   5.293   3.726
13883TIP3    H141590   1.964   5.288   3.699
13883TIP3    H241591   2.096   5.353   3.664
13884TIP3   OH241592   6.492   0.277   3.628
13884TIP3    H141593   6.461   0.347   3.571
13884TIP3    H241594   6.587   0.283   3.623
13885TIP3   OH241595   1.375   3.102   2.027
13885TIP3    H141596   1.325   3.097   2.108
13885TIP3    H241597   1.309   3.095   1.958
13886TIP3   OH241598   1.116   4.303   5.580
13886TIP3    H141599   1.179   4.265   5.519
13886TIP3    H241600   1.166   4.369   5.628
13887TIP3   OH241601   1.184   4.098   1.663
13887TIP3    H141602   1.215   4.013   1.693
13887TIP3    H241603   1.137   4.079   1.581
13888TIP3   OH241604   2.188   1.651   4.338
13888TIP3    H141605   2.238   1.687   4.411
13888TIP3    H241606   2.188   1.556   4.353
13889TIP3   OH241607   7.472   5.495   1.370
13889TIP3    H141608   7.467   5.459   1.459
13889TIP3    H241609   7.543   5.446   1.329
13890TIP3   OH241610   5.721   7.856   2.929
13890TIP3    H141611   5.647   7.803   2.900
13890TIP3    H241612   5.744   7.910   2.853
13891TIP3   OH241613   7.456   4.373   5.514
13891TIP3    H141614   7.552   4.376   5.516
13891TIP3    H241615   7.433   4.290   5.556
13892TIP3   OH241616   4.852   6.758   0.480
13892TIP3    H141617   4.828   6.702   0.554
13892TIP3    H241618   4.932   6.719   0.445
13893TIP3   OH241619   3.760   4.567   0.641
13893TIP3    H141620   3.853   4.582   0.626
13893TIP3    H241621   3.757   4.491   0.700
13894TIP3   OH241622   1.961   6.668   4.824
13894TIP3    H141623   1.969   6.574   4.839
13894TIP3    H241624   1.976   6.679   4.730
13895TIP3   OH241625   0.066   7.360   0.386
13895TIP3    H141626   0.085   7.305   0.310
13895TIP3    H241627   0.150   7.368   0.432
13896TIP3   OH241628   6.339   4.852   5.539
13896TIP3    H141629   6.380   4.771   5.508
13896TIP3    H241630   6.246   4.831   5.547
13897TIP3   OH241631   2.608   0.890   3.958
13897TIP3    H141632   2.554   0.812   3.954
13897TIP3    H241633   2.650   0.895   3.872
13898TIP3   OH241634   6.205   3.117   3.765
13898TIP3    H141635   6.160   3.047   3.812
13898TIP3    H241636   6.135   3.167   3.723
13899TIP3   OH241637   8.089   7.763   6.234
13899TIP3    H141638   8.146   7.770   6.158
13899TIP3    H241639   8.050   7.850   6.243
13900TIP3   OH241640   6.571   1.334   0.881
13900TIP3    H141641   6.607   1.370   0.963
13900TIP3    H241642   6.554   1.411   0.827
13901TIP3   OH241643   1.942   7.338   0.818
13901TIP3    H141644   2.037   7.338   0.809
13901TIP3    H241645   1.918   7.245   0.816
13902TIP3   OH241646   0.232   3.865   2.895
13902TIP3    H141647   0.194   3.813   2.965
13902TIP3    H241648   0.311   3.904   2.933
13903TIP3   OH241649   3.477   7.599   5.774
13903TIP3    H141650   3.527   7.657   5.831
13903TIP3    H241651   3.403   7.570   5.827
13904TIP3   OH241652   7.894   1.435   1.181
13904TIP3    H141653   7.962   1.401   1.123
13904TIP3    H241654   7.941   1.461   1.260
13905TIP3   OH241655   5.133   0.210   1.320
13905TIP3    H141656   5.052   0.159   1.329
13905TIP3    H241657   5.177   0.200   1.404
13906TIP3   OH241658   5.595   4.982   1.738
13906TIP3    H141659   5.647   5.055   1.770
13906TIP3    H241660   5.545   4.952   1.814
13907TIP3   OH241661   7.747   3.873   2.081
13907TIP3    H141662   7.823   3.920   2.117
13907TIP3    H241663   7.779   3.784   2.066
13908TIP3   OH241664   6.054   3.587   0.371
13908TIP3    H141665   5.979   3.537   0.338
13908TIP3    H241666   6.030   3.678   0.357
13909TIP3   OH241667   4.025   6.502   4.096
13909TIP3    H141668   4.041   6.461   4.010
13909TIP3    H241669   4.113   6.519   4.131
13910TIP3   OH241670   7.938   0.560   0.513
13910TIP3    H141671   8.010   0.564   0.451
13910TIP3    H241672   7.859   0.568   0.459
13911TIP3   OH241673   7.967   6.613   2.470
13911TIP3    H141674   7.914   6.571   2.403
13911TIP3    H241675   8.013   6.540   2.513
13912TIP3   OH241676   0.789   6.592   5.731
13912TIP3    H141677   0.744   6.618   5.812
13912TIP3    H241678   0.829   6.673   5.699
13913TIP3   OH241679   5.443   1.784   1.163
13913TIP3    H141680   5.506   1.713   1.157
13913TIP3    H241681   5.485   1.858   1.119
13914TIP3   OH241682   1.767   1.753   1.857
13914TIP3    H141683   1.825   1.745   1.933
13914TIP3    H241684   1.705   1.681   1.868
13915TIP3   OH241685   2.691   2.944   5.690
13915TIP3    H141686   2.732   2.863   5.720
13915TIP3    H241687   2.610   2.916   5.648
13916TIP3   OH241688   3.266   1.558   5.137
13916TIP3    H141689   3.356   1.582   5.159
13916TIP3    H241690   3.253   1.473   5.180
13917TIP3   OH241691   0.654   5.100   5.553
13917TIP3    H141692   0.655   5.044   5.631
13917TIP3    H241693   0.602   5.176   5.577
13918TIP3   OH241694   6.476   7.745   3.895
13918TIP3    H141695   6.488   7.668   3.950
13918TIP3    H241696   6.501   7.716   3.807
13919TIP3   OH241697   0.907   4.788   6.430
13919TIP3    H141698   0.912   4.842   6.509
13919TIP3    H241699   0.997   4.779   6.400
13920TIP3   OH241700   2.941   7.609   2.319
13920TIP3    H141701   2.855   7.585   2.354
13920TIP3    H241702   2.952   7.552   2.243
13921TIP3   OH241703   6.171   7.824   1.380
13921TIP3    H141704   6.234   7.807   1.311
13921TIP3    H241705   6.174   7.745   1.435
13922TIP3   OH241706   0.527   1.744   3.793
13922TIP3    H141707   0.577   1.768   3.871
13922TIP3    H241708   0.454   1.692   3.826
13923TIP3   OH241709   3.390   4.852   5.454
13923TIP3    H141710   3.344   4.895   5.527
13923TIP3    H241711   3.365   4.903   5.377
13924TIP3   OH241712   5.229   6.772   2.182
13924TIP3    H141713   5.138   6.798   2.168
13924TIP3    H241714   5.268   6.846   2.228
13925TIP3   OH241715   7.370   4.492   2.344
13925TIP3    H141716   7.328   4.406   2.350
13925TIP3    H241717   7.297   4.553   2.331
13926TIP3   OH241718   5.479   2.535   5.857
13926TIP3    H141719   5.434   2.576   5.783
13926TIP3    H241720   5.539   2.472   5.817
13927TIP3   OH241721   4.982   5.817   1.215
13927TIP3    H141722   4.913   5.876   1.244
13927TIP3    H241723   5.053   5.875   1.187
13928TIP3   OH241724   6.051   0.732   1.466
13928TIP3    H141725   6.076   0.645   1.433
13928TIP3    H241726   6.119   0.754   1.529
13929TIP3   OH241727   8.056   6.332   3.411
13929TIP3    H141728   8.123   6.358   3.348
13929TIP3    H241729   7.974   6.339   3.363
13930TIP3   OH241730   8.046   0.871   0.434
13930TIP3    H141731   8.006   0.876   0.521
13930TIP3    H241732   7.974   0.889   0.373
13931TIP3   OH241733   6.990   1.042   0.750
13931TIP3    H141734   6.992   1.015   0.658
13931TIP3    H241735   6.897   1.056   0.769
13932TIP3   OH241736   1.526   2.715   5.740
13932TIP3    H141737   1.450   2.700   5.796
13932TIP3    H241738   1.489   2.741   5.655
13933TIP3   OH241739   4.534   4.148   5.006
13933TIP3    H141740   4.476   4.160   4.931
13933TIP3    H241741   4.514   4.222   5.064
13934TIP3   OH241742   2.915   5.719   6.576
13934TIP3    H141743   2.966   5.691   6.652
13934TIP3    H241744   2.980   5.745   6.512
13935TIP3   OH241745   4.985   6.114   2.853
13935TIP3    H141746   4.909   6.173   2.854
13935TIP3    H241747   5.059   6.170   2.833
13936TIP3   OH241748   1.885   3.115   0.425
13936TIP3    H141749   1.837   3.109   0.342
13936TIP3    H241750   1.902   3.209   0.436
13937TIP3   OH241751   8.220   6.729   4.048
13937TIP3    H141752   8.291   6.722   3.983
13937TIP3    H241753   8.208   6.823   4.060
13938TIP3   OH241754   7.959   4.248   1.732
13938TIP3    H141755   7.983   4.328   1.778
13938TIP3    H241756   8.001   4.178   1.782
13939TIP3   OH241757   5.627   2.290   1.188
13939TIP3    H141758   5.698   2.271   1.127
13939TIP3    H241759   5.659   2.257   1.272
13940TIP3   OH241760   7.502   1.590   1.099
13940TIP3    H141761   7.588   1.600   1.141
13940TIP3    H241762   7.507   1.507   1.052
13941TIP3   OH241763   5.245   3.591   3.880
13941TIP3    H141764   5.238   3.499   3.853
13941TIP3    H241765   5.158   3.613   3.913
13942TIP3   OH241766   8.418   7.664   3.250
13942TIP3    H141767   8.415   7.620   3.165
13942TIP3    H241768   8.334   7.709   3.257
13943TIP3   OH241769   1.830   0.937   3.174
13943TIP3    H141770   1.790   0.851   3.166
13943TIP3    H241771   1.883   0.946   3.094
13944TIP3   OH241772   7.017   2.315   0.512
13944TIP3    H141773   7.088   2.347   0.456
13944TIP3    H241774   7.015   2.221   0.496
13945TIP3   OH241775   5.736   4.562   3.973
13945TIP3    H141776   5.722   4.555   4.068
13945TIP3    H241777   5.795   4.489   3.953
13946TIP3   OH241778   4.870   0.065   5.311
13946TIP3    H141779   4.856   0.140   5.369
13946TIP3    H241780   4.942   0.091   5.254
13947TIP3   OH241781   4.708   5.565   0.117
13947TIP3    H141782   4.718   5.540   0.025
13947TIP3    H241783   4.775   5.514   0.163
13948TIP3   OH241784   2.859   3.593   1.869
13948TIP3    H141785   2.861   3.501   1.846
13948TIP3    H241786   2.899   3.637   1.794
13949TIP3   OH241787   8.118   4.797   3.554
13949TIP3    H141788   8.185   4.780   3.488
13949TIP3    H241789   8.055   4.854   3.509
13950TIP3   OH241790   4.661   5.938   2.921
13950TIP3    H141791   4.689   5.915   2.833
13950TIP3    H241792   4.739   5.922   2.975
13951TIP3   OH241793   7.716   3.187   2.183
13951TIP3    H141794   7.715   3.270   2.231
13951TIP3    H241795   7.671   3.205   2.101
13952TIP3   OH241796   3.883   2.571   2.215
13952TIP3    H141797   3.791   2.557   2.193
13952TIP3    H241798   3.883   2.647   2.273
13953TIP3   OH241799   0.074   0.797   4.864
13953TIP3    H141800   0.098   0.707   4.885
13953TIP3    H241801   0.035   0.831   4.945
13954TIP3   OH241802   4.614   1.231   0.945
13954TIP3    H141803   4.695   1.189   0.973
13954TIP3    H241804   4.637   1.277   0.864
13955TIP3   OH241805   5.336   4.305   4.302
13955TIP3    H141806   5.426   4.276   4.289
13955TIP3    H241807   5.315   4.355   4.223
13956TIP3   OH241808   0.853   2.118   6.536
13956TIP3    H141809   0.763   2.119   6.502
13956TIP3    H241810   0.900   2.183   6.484
13957TIP3   OH241811   8.055   3.157   2.761
13957TIP3    H141812   8.119   3.202   2.706
13957TIP3    H241813   7.976   3.212   2.754
13958TIP3   OH241814   4.816   3.222   4.742
13958TIP3    H141815   4.801   3.127   4.743
13958TIP3    H241816   4.889   3.234   4.682
13959TIP3   OH241817   1.367   2.943   5.032
13959TIP3    H141818   1.442   2.888   5.010
13959TIP3    H241819   1.373   2.954   5.127
13960TIP3   OH241820   7.029   5.291   6.626
13960TIP3    H141821   6.999   5.282   6.717
13960TIP3    H241822   7.102   5.229   6.619
13961TIP3   OH241823   7.642   3.949   4.763
13961TIP3    H141824   7.721   3.897   4.749
13961TIP3    H241825   7.661   4.001   4.841
13962TIP3   OH241826   7.416   5.031   1.519
13962TIP3    H141827   7.492   4.980   1.488
13962TIP3    H241828   7.377   4.976   1.587
13963TIP3   OH241829   0.482   6.966   3.789
13963TIP3    H141830   0.490   7.023   3.866
13963TIP3    H241831   0.415   6.902   3.815
13964TIP3   OH241832   7.311   6.145   3.140
13964TIP3    H141833   7.281   6.155   3.231
13964TIP3    H241834   7.276   6.061   3.112
13965TIP3   OH241835   7.541   3.658   2.300
13965TIP3    H141836   7.558   3.619   2.214
13965TIP3    H241837   7.627   3.674   2.337
13966TIP3   OH241838   2.512   2.216   2.495
13966TIP3    H141839   2.438   2.269   2.466
13966TIP3    H241840   2.530   2.247   2.584
13967TIP3   OH241841   4.597   0.787   4.595
13967TIP3    H141842   4.533   0.731   4.639
13967TIP3    H241843   4.672   0.788   4.655
13968TIP3   OH241844   6.335   0.474   5.285
13968TIP3    H141845   6.394   0.405   5.257
13968TIP3    H241846   6.354   0.547   5.226
13969TIP3   OH241847   7.697   5.637   2.734
13969TIP3    H141848   7.777   5.590   2.757
13969TIP3    H241849   7.728   5.719   2.695
13970TIP3   OH241850   1.488   0.324   1.096
13970TIP3    H141851   1.421   0.286   1.040
13970TIP3    H241852   1.548   0.368   1.036
13971TIP3   OH241853   6.680   3.950   3.352
13971TIP3    H141854   6.588   3.924   3.350
13971TIP3    H241855   6.691   4.008   3.277
13972TIP3   OH241856   1.047   2.490   2.874
13972TIP3    H141857   0.996   2.412   2.851
13972TIP3    H241858   1.138   2.460   2.870
13973TIP3   OH241859   0.776   6.326   4.378
13973TIP3    H141860   0.814   6.413   4.371
13973TIP3    H241861   0.833   6.279   4.439
13974TIP3   OH241862   5.399   6.231   0.126
13974TIP3    H141863   5.338   6.158   0.113
13974TIP3    H241864   5.443   6.240   0.041
13975TIP3   OH241865   1.678   1.963   3.058
13975TIP3    H141866   1.650   2.007   2.977
13975TIP3    H241867   1.647   2.020   3.128
13976TIP3   OH241868   4.672   6.772   3.690
13976TIP3    H141869   4.741   6.779   3.757
13976TIP3    H241870   4.674   6.857   3.645
13977TIP3   OH241871   4.217   0.987   4.394
13977TIP3    H141872   4.206   0.907   4.343
13977TIP3    H241873   4.309   0.987   4.420
13978TIP3   OH241874   5.511   3.465   6.845
13978TIP3    H141875   5.426   3.421   6.839
13978TIP3    H241876   5.574   3.394   6.838
13979TIP3   OH241877   0.484   1.531   0.368
13979TIP3    H141878   0.494   1.448   0.414
13979TIP3    H241879   0.534   1.594   0.421
13980TIP3   OH241880   2.688   6.510   3.719
13980TIP3    H141881   2.688   6.508   3.623
13980TIP3    H241882   2.772   6.551   3.741
13981TIP3   OH241883   4.428   2.999   3.944
13981TIP3    H141884   4.480   3.070   3.981
13981TIP3    H241885   4.383   2.960   4.018
13982TIP3   OH241886   6.301   6.704   2.497
13982TIP3    H141887   6.281   6.614   2.472
13982TIP3    H241888   6.330   6.746   2.417
13983TIP3   OH241889   4.489   0.416   2.312
13983TIP3    H141890   4.577   0.380   2.327
13983TIP3    H241891   4.488   0.498   2.361
13984TIP3   OH241892   0.175   5.519   3.991
13984TIP3    H141893   0.159   5.516   4.085
13984TIP3    H241894   0.093   5.551   3.954
13985TIP3   OH241895   2.423   0.879   4.200
13985TIP3    H141896   2.451   0.848   4.114
13985TIP3    H241897   2.355   0.817   4.226
13986TIP3   OH241898   0.913   3.970   0.702
13986TIP3    H141899   0.834   4.008   0.663
13986TIP3    H241900   0.956   4.043   0.746
13987TIP3   OH241901   3.783   4.983   3.695
13987TIP3    H141902   3.792   5.064   3.744
13987TIP3    H241903   3.734   4.925   3.753
13988TIP3   OH241904   4.452   0.592   5.244
13988TIP3    H141905   4.536   0.621   5.279
13988TIP3    H241906   4.424   0.663   5.186
13989TIP3   OH241907   3.565   3.796   1.210
13989TIP3    H141908   3.605   3.730   1.153
13989TIP3    H241909   3.502   3.748   1.262
13990TIP3   OH241910   7.166   1.164   4.398
13990TIP3    H141911   7.139   1.072   4.397
13990TIP3    H241912   7.254   1.164   4.361
13991TIP3   OH241913   5.062   0.998   0.145
13991TIP3    H141914   5.069   1.057   0.069
13991TIP3    H241915   5.062   1.057   0.221
13992TIP3   OH241916   5.455   7.854   0.659
13992TIP3    H141917   5.523   7.788   0.672
13992TIP3    H241918   5.374   7.810   0.685
13993TIP3   OH241919   1.764   6.390   1.830
13993TIP3    H141920   1.748   6.449   1.904
13993TIP3    H241921   1.835   6.432   1.782
13994TIP3   OH241922   4.011   6.528   2.745
13994TIP3    H141923   3.934   6.521   2.801
13994TIP3    H241924   3.976   6.536   2.656
13995TIP3   OH241925   3.081   6.076   0.031
13995TIP3    H141926   3.081   5.980   0.027
13995TIP3    H241927   3.075   6.096   0.124
13996TIP3   OH241928   5.489   7.237   3.261
13996TIP3    H141929   5.443   7.316   3.234
13996TIP3    H241930   5.467   7.172   3.194
13997TIP3   OH241931   7.771   6.590   6.369
13997TIP3    H141932   7.710   6.535   6.320
13997TIP3    H241933   7.746   6.680   6.346
13998TIP3   OH241934   1.973   0.393   5.611
13998TIP3    H141935   2.035   0.334   5.655
13998TIP3    H241936   1.942   0.342   5.536
13999TIP3   OH241937   3.706   4.548   2.609
13999TIP3    H141938   3.697   4.627   2.663
13999TIP3    H241939   3.642   4.559   2.539
14000TIP3   OH241940   6.733   6.452   0.246
14000TIP3    H141941   6.828   6.463   0.248
14000TIP3    H241942   6.699   6.540   0.232
14001TIP3   OH241943   7.847   4.663   3.022
14001TIP3    H141944   7.828   4.751   2.990
14001TIP3    H241945   7.908   4.627   2.957
14002TIP3   OH241946   7.382   5.115   4.298
14002TIP3    H141947   7.409   5.024   4.312
14002TIP3    H241948   7.433   5.164   4.363
14003TIP3   OH241949   6.719   4.562   1.486
14003TIP3    H141950   6.726   4.569   1.581
14003TIP3    H241951   6.793   4.612   1.452
14004TIP3   OH241952   7.488   1.070   2.904
14004TIP3    H141953   7.413   1.013   2.886
14004TIP3    H241954   7.449   1.152   2.933
14005TIP3   OH241955   7.925   2.174   6.475
14005TIP3    H141956   7.843   2.139   6.510
14005TIP3    H241957   7.902   2.208   6.388
14006TIP3   OH241958   0.016   5.861   5.048
14006TIP3    H141959   0.092   5.909   5.079
14006TIP3    H241960  -0.014   5.909   4.971
14007TIP3   OH241961   1.606   0.278   3.414
14007TIP3    H141962   1.586   0.370   3.432
14007TIP3    H241963   1.535   0.249   3.358
14008TIP3   OH241964   7.571   7.638   3.950
14008TIP3    H141965   7.664   7.637   3.973
14008TIP3    H241966   7.526   7.645   4.034
14009TIP3   OH241967   3.765   3.339   4.507
14009TIP3    H141968   3.784   3.264   4.451
14009TIP3    H241969   3.778   3.305   4.596
14010TIP3   OH241970   1.981   4.488   3.529
14010TIP3    H141971   1.972   4.470   3.435
14010TIP3    H241972   1.998   4.402   3.568
14011TIP3   OH241973   3.778   2.068   2.749
14011TIP3    H141974   3.843   2.105   2.809
14011TIP3    H241975   3.751   1.986   2.790
14012TIP3   OH241976   7.057   0.065   3.230
14012TIP3    H141977   7.088   0.071   3.140
14012TIP3    H241978   6.964   0.086   3.224
14013TIP3   OH241979   0.543   6.395   3.630
14013TIP3    H141980   0.534   6.339   3.708
14013TIP3    H241981   0.620   6.361   3.584
14014TIP3   OH241982   2.637   4.095   2.643
14014TIP3    H141983   2.560   4.059   2.600
14014TIP3    H241984   2.633   4.062   2.732
14015TIP3   OH241985   6.769   7.196   0.039
14015TIP3    H141986   6.691   7.251   0.042
14015TIP3    H241987   6.829   7.241  -0.020
14016TIP3   OH241988   0.602   2.508   5.357
14016TIP3    H141989   0.515   2.500   5.318
14016TIP3    H241990   0.656   2.447   5.308
14017TIP3   OH241991   0.443   6.797   1.124
14017TIP3    H141992   0.353   6.769   1.110
14017TIP3    H241993   0.436   6.872   1.183
14018TIP3   OH241994   7.944   0.379   2.504
14018TIP3    H141995   7.973   0.453   2.557
14018TIP3    H241996   8.002   0.380   2.428
14019TIP3   OH241997   7.097   7.126   5.129
14019TIP3    H141998   7.077   7.088   5.214
14019TIP3    H241999   7.142   7.057   5.081
14020TIP3   OH242000   3.806   7.467   2.113
14020TIP3    H142001   3.777   7.554   2.140
14020TIP3    H242002   3.857   7.434   2.187
14021TIP3   OH242003   2.879   7.053   0.960
14021TIP3    H142004   2.834   6.971   0.941
14021TIP3    H242005   2.836   7.117   0.904
14022TIP3   OH242006   6.251   0.043   0.037
14022TIP3    H142007   6.234   0.086  -0.047
14022TIP3    H242008   6.310   0.102   0.083
14023TIP3   OH242009   5.576   0.503   5.993
14023TIP3    H142010   5.631   0.505   6.071
14023TIP3    H242011   5.496   0.548   6.019
14024TIP3   OH242012   7.064   6.046   4.648
14024TIP3    H142013   7.029   5.980   4.709
14024TIP3    H242014   7.015   6.126   4.670
14025TIP3   OH242015   1.807   6.995   2.003
14025TIP3    H142016   1.745   7.023   1.936
14025TIP3    H242017   1.785   7.047   2.080
14026TIP3   OH242018   6.587   6.558   6.843
14026TIP3    H142019   6.629   6.476   6.817
14026TIP3    H242020   6.644   6.626   6.808
14027TIP3   OH242021   7.138   6.774   1.536
14027TIP3    H142022   7.224   6.748   1.569
14027TIP3    H242023   7.157   6.835   1.465
14028TIP3   OH242024   7.629   4.552   3.392
14028TIP3    H142025   7.673   4.635   3.373
14028TIP3    H242026   7.566   4.541   3.321
14029TIP3   OH242027   2.710   1.082   3.454
14029TIP3    H142028   2.646   1.126   3.398
14029TIP3    H242029   2.781   1.144   3.462
14030TIP3   OH242030   3.359   1.642   2.508
14030TIP3    H142031   3.374   1.560   2.554
14030TIP3    H242032   3.443   1.688   2.512
14031TIP3   OH242033   1.880   0.166   3.234
14031TIP3    H142034   1.812   0.099   3.243
14031TIP3    H242035   1.858   0.231   3.301
14032TIP3   OH242036   1.072   6.617   4.790
14032TIP3    H142037   1.024   6.687   4.835
14032TIP3    H242038   1.155   6.658   4.764
14033TIP3   OH242039   3.085   6.088   5.292
14033TIP3    H142040   3.131   6.156   5.340
14033TIP3    H242041   3.150   6.052   5.232
14034TIP3   OH242042   0.904   6.950   6.344
14034TIP3    H142043   0.928   6.865   6.307
14034TIP3    H242044   0.970   6.965   6.412
14035TIP3   OH242045   5.444   3.692   4.290
14035TIP3    H142046   5.519   3.664   4.344
14035TIP3    H242047   5.469   3.778   4.257
14036TIP3   OH242048   0.527   0.190   3.324
14036TIP3    H142049   0.576   0.108   3.331
14036TIP3    H242050   0.445   0.173   3.370
14037TIP3   OH242051   4.020   5.246   5.808
14037TIP3    H142052   3.945   5.206   5.764
14037TIP3    H242053   3.982   5.317   5.860
14038TIP3   OH242054   7.885   1.692   2.149
14038TIP3    H142055   7.805   1.741   2.133
14038TIP3    H242056   7.899   1.701   2.244
14039TIP3   OH242057   6.943   5.616   5.843
14039TIP3    H142058   6.868   5.661   5.881
14039TIP3    H242059   6.905   5.543   5.794
14040TIP3   OH242060   6.484   4.107   5.013
14040TIP3    H142061   6.543   4.099   4.937
14040TIP3    H242062   6.534   4.156   5.078
14041TIP3   OH242063   5.382   7.247   2.633
14041TIP3    H142064   5.422   7.172   2.676
14041TIP3    H242065   5.431   7.257   2.551
14042TIP3   OH242066   2.427   6.118   3.528
14042TIP3    H142067   2.431   6.055   3.600
14042TIP3    H242068   2.370   6.188   3.560
14043TIP3   OH242069   7.545   3.195   1.969
14043TIP3    H142070   7.587   3.263   1.916
14043TIP3    H242071   7.497   3.142   1.906
14044TIP3   OH242072   7.499   3.189   5.303
14044TIP3    H142073   7.546   3.263   5.265
14044TIP3    H242074   7.551   3.166   5.381
14045TIP3   OH242075   4.045   5.758   2.737
14045TIP3    H142076   4.042   5.827   2.670
14045TIP3    H242077   4.104   5.792   2.804
14046TIP3   OH242078   1.341   1.692   2.291
14046TIP3    H142079   1.415   1.697   2.351
14046TIP3    H242080   1.294   1.613   2.317
14047TIP3   OH242081   8.297   1.318   2.232
14047TIP3    H142082   8.317   1.336   2.140
14047TIP3    H242083   8.261   1.230   2.232
14048TIP3   OH242084   0.703   6.039   1.482
14048TIP3    H142085   0.715   6.035   1.576
14048TIP3    H242086   0.657   5.958   1.459
14049TIP3   OH242087   2.443   4.927   1.300
14049TIP3    H142088   2.393   4.846   1.295
14049TIP3    H242089   2.513   4.909   1.363
14050TIP3   OH242090   5.392   1.546   4.299
14050TIP3    H142091   5.443   1.497   4.234
14050TIP3    H242092   5.432   1.633   4.300
14051TIP3   OH242093   1.608   3.594   1.152
14051TIP3    H142094   1.535   3.641   1.192
14051TIP3    H242095   1.677   3.596   1.219
14052TIP3   OH242096   2.509   7.563   1.947
14052TIP3    H142097   2.444   7.493   1.954
14052TIP3    H242098   2.483   7.613   1.870
14053TIP3   OH242099   7.133   5.371   2.078
14053TIP3    H142100   7.127   5.299   2.141
14053TIP3    H242101   7.187   5.336   2.007
14054TIP3   OH242102   1.255   7.574   3.652
14054TIP3    H142103   1.328   7.636   3.658
14054TIP3    H242104   1.215   7.594   3.567
14055TIP3   OH242105   7.434   4.661   0.748
14055TIP3    H142106   7.403   4.594   0.687
14055TIP3    H242107   7.509   4.701   0.704
14056TIP3   OH242108   4.821   6.230   6.266
14056TIP3    H142109   4.901   6.282   6.262
14056TIP3    H242110   4.804   6.204   6.176
14057TIP3   OH242111   4.801   2.237   4.842
14057TIP3    H142112   4.776   2.273   4.756
14057TIP3    H242113   4.890   2.269   4.857
14058TIP3   OH242114   6.040   5.108   3.376
14058TIP3    H142115   5.951   5.073   3.382
14058TIP3    H242116   6.064   5.099   3.284
14059TIP3   OH242117   1.921   0.215   2.944
14059TIP3    H142118   1.921   0.135   2.892
14059TIP3    H242119   1.885   0.188   3.029
14060TIP3   OH242120   7.888   7.693   4.089
14060TIP3    H142121   7.894   7.662   4.179
14060TIP3    H242122   7.892   7.613   4.036
14061TIP3   OH242123   4.917   5.348   4.958
14061TIP3    H142124   4.892   5.415   4.895
14061TIP3    H242125   4.930   5.269   4.906
14062TIP3   OH242126   5.122   6.730   2.552
14062TIP3    H142127   5.034   6.704   2.527
14062TIP3    H242128   5.135   6.816   2.512
14063TIP3   OH242129   2.829   7.216   2.443
14063TIP3    H142130   2.789   7.301   2.429
14063TIP3    H242131   2.875   7.197   2.361
14064TIP3   OH242132   5.916   7.531   3.634
14064TIP3    H142133   5.922   7.583   3.554
14064TIP3    H242134   6.001   7.543   3.676
14065TIP3   OH242135   2.501   2.856   5.450
14065TIP3    H142136   2.429   2.856   5.514
14065TIP3    H242137   2.520   2.764   5.435
14066TIP3   OH242138   0.805   1.091   2.056
14066TIP3    H142139   0.843   1.153   1.995
14066TIP3    H242140   0.809   1.135   2.141
14067TIP3   OH242141   6.883   1.745   3.519
14067TIP3    H142142   6.793   1.713   3.511
14067TIP3    H242143   6.934   1.691   3.459
14068TIP3   OH242144   3.248   1.314   6.173
14068TIP3    H142145   3.202   1.398   6.177
14068TIP3    H242146   3.276   1.297   6.263
14069TIP3   OH242147   3.210   6.979   2.606
14069TIP3    H142148   3.222   6.897   2.654
14069TIP3    H242149   3.236   7.048   2.668
14070TIP3   OH242150   5.820   0.331   0.783
14070TIP3    H142151   5.855   0.420   0.775
14070TIP3    H242152   5.762   0.320   0.707
14071TIP3   OH242153   2.530   4.951   1.590
14071TIP3    H142154   2.590   5.013   1.631
14071TIP3    H242155   2.493   4.901   1.664
14072TIP3   OH242156   4.951   0.489   1.721
14072TIP3    H142157   5.022   0.428   1.700
14072TIP3    H242158   4.902   0.445   1.791
14073TIP3   OH242159   3.719   7.292   1.506
14073TIP3    H142160   3.787   7.307   1.441
14073TIP3    H242161   3.638   7.289   1.456
14074TIP3   OH242162   3.954   5.842   4.216
14074TIP3    H142163   3.953   5.870   4.307
14074TIP3    H242164   3.959   5.923   4.165
14075TIP3   OH242165   7.321   5.589   1.970
14075TIP3    H142166   7.364   5.639   2.039
14075TIP3    H242167   7.270   5.523   2.016
14076TIP3   OH242168   5.245   5.295   6.768
14076TIP3    H142169   5.218   5.361   6.704
14076TIP3    H242170   5.165   5.273   6.814
14077TIP3   OH242171   8.426   0.574   3.378
14077TIP3    H142172   8.349   0.606   3.331
14077TIP3    H242173   8.427   0.623   3.460
14078TIP3   OH242174   4.788   0.191   1.618
14078TIP3    H142175   4.694   0.173   1.608
14078TIP3    H242176   4.796   0.224   1.708
14079TIP3   OH242177   3.031   0.913   4.083
14079TIP3    H142178   3.034   0.820   4.103
14079TIP3    H242179   3.010   0.918   3.990
14080TIP3   OH242180   7.461   7.931   0.466
14080TIP3    H142181   7.384   7.918   0.522
14080TIP3    H242182   7.509   7.849   0.472
14081TIP3   OH242183   0.223   7.085   6.279
14081TIP3    H142184   0.280   7.146   6.326
14081TIP3    H242185   0.279   7.049   6.211
14082TIP3   OH242186   7.559   6.720   6.188
14082TIP3    H142187   7.575   6.809   6.218
14082TIP3    H242188   7.477   6.725   6.139
14083TIP3   OH242189   5.753   2.727   0.567
14083TIP3    H142190   5.690   2.675   0.517
14083TIP3    H242191   5.837   2.685   0.553
14084TIP3   OH242192   1.144   4.805   6.728
14084TIP3    H142193   1.062   4.842   6.695
14084TIP3    H242194   1.155   4.844   6.814
14085TIP3   OH242195   0.147   7.147   5.509
14085TIP3    H142196   0.114   7.105   5.588
14085TIP3    H242197   0.158   7.076   5.446
14086TIP3   OH242198   0.264   2.053   1.361
14086TIP3    H142199   0.249   2.125   1.300
14086TIP3    H242200   0.296   1.981   1.305
14087TIP3   OH242201   2.004   6.954   4.925
14087TIP3    H142202   2.096   6.943   4.946
14087TIP3    H242203   1.980   6.874   4.879
14088TIP3   OH242204   3.699   4.301   1.190
14088TIP3    H142205   3.730   4.391   1.181
14088TIP3    H242206   3.767   4.257   1.241
14089TIP3   OH242207   7.334   4.512   5.273
14089TIP3    H142208   7.379   4.586   5.313
14089TIP3    H242209   7.365   4.436   5.322
14090TIP3   OH242210   6.364   3.282   3.895
14090TIP3    H142211   6.357   3.247   3.984
14090TIP3    H242212   6.295   3.236   3.846
14091TIP3   OH242213   6.737   3.979   5.185
14091TIP3    H142214   6.782   4.063   5.171
14091TIP3    H242215   6.711   3.981   5.277
14092TIP3   OH242216   1.242   1.524   1.301
14092TIP3    H142217   1.166   1.470   1.321
14092TIP3    H242218   1.207   1.602   1.259
14093TIP3   OH242219   6.429   4.942   2.117
14093TIP3    H142220   6.416   5.029   2.080
14093TIP3    H242221   6.475   4.957   2.199
14094TIP3   OH242222   3.182   7.507   4.918
14094TIP3    H142223   3.181   7.419   4.955
14094TIP3    H242224   3.094   7.541   4.935
14095TIP3   OH242225   2.077   3.818   3.575
14095TIP3    H142226   2.098   3.767   3.497
14095TIP3    H242227   2.053   3.753   3.641
14096TIP3   OH242228   4.131   1.582   6.104
14096TIP3    H142229   4.218   1.614   6.081
14096TIP3    H242230   4.074   1.617   6.036
14097TIP3   OH242231   3.797   0.612   2.686
14097TIP3    H142232   3.736   0.594   2.758
14097TIP3    H242233   3.832   0.699   2.705
14098TIP3   OH242234   7.026   4.727   2.610
14098TIP3    H142235   7.048   4.816   2.582
14098TIP3    H242236   7.046   4.726   2.704
14099TIP3   OH242237   6.040   7.767   3.885
14099TIP3    H142238   6.111   7.704   3.871
14099TIP3    H242239   6.081   7.839   3.932
14100TIP3   OH242240   7.927   5.490   4.512
14100TIP3    H142241   7.893   5.402   4.531
14100TIP3    H242242   7.938   5.491   4.417
14101TIP3   OH242243   7.168   1.333   3.835
14101TIP3    H142244   7.254   1.292   3.835
14101TIP3    H242245   7.153   1.358   3.744
14102TIP3   OH242246   0.932   3.859   3.147
14102TIP3    H142247   0.893   3.831   3.064
14102TIP3    H242248   0.991   3.787   3.171
14103TIP3   OH242249   2.799   0.338   3.751
14103TIP3    H142250   2.815   0.380   3.836
14103TIP3    H242251   2.704   0.341   3.740
14104TIP3   OH242252   0.692   2.018   3.785
14104TIP3    H142253   0.715   1.937   3.739
14104TIP3    H242254   0.777   2.058   3.807
14105TIP3   OH242255   2.559   0.633   2.272
14105TIP3    H142256   2.527   0.655   2.359
14105TIP3    H242257   2.509   0.688   2.213
14106TIP3   OH242258   2.971   6.987   5.356
14106TIP3    H142259   2.903   6.946   5.409
14106TIP3    H242260   2.955   7.081   5.366
14107TIP3   OH242261   2.991   0.415   5.708
14107TIP3    H142262   2.944   0.343   5.666
14107TIP3    H242263   3.021   0.379   5.791
14108TIP3   OH242264   1.742   5.646   1.645
14108TIP3    H142265   1.837   5.651   1.632
14108TIP3    H242266   1.732   5.589   1.721
14109TIP3   OH242267   5.000   0.735   6.218
14109TIP3    H142268   5.001   0.817   6.169
14109TIP3    H242269   4.924   0.688   6.185
14110TIP3   OH242270   8.182   3.283   2.538
14110TIP3    H142271   8.277   3.271   2.546
14110TIP3    H242272   8.169   3.376   2.556
14111TIP3   OH242273   6.519   1.905   4.391
14111TIP3    H142274   6.463   1.877   4.464
14111TIP3    H242275   6.576   1.830   4.375
14112TIP3   OH242276   6.639   5.724   2.996
14112TIP3    H142277   6.727   5.692   3.016
14112TIP3    H242278   6.613   5.675   2.919
14113TIP3   OH242279   5.623   2.417   3.830
14113TIP3    H142280   5.652   2.385   3.745
14113TIP3    H242281   5.665   2.502   3.840
14114TIP3   OH242282   2.555   4.406   3.124
14114TIP3    H142283   2.625   4.343   3.107
14114TIP3    H242284   2.597   4.475   3.175
14115TIP3   OH242285   7.202   3.708   0.229
14115TIP3    H142286   7.182   3.774   0.296
14115TIP3    H242287   7.165   3.627   0.264
14116TIP3   OH242288   5.456   2.092   4.122
14116TIP3    H142289   5.462   2.170   4.178
14116TIP3    H242290   5.396   2.033   4.169
14117TIP3   OH242291   4.255   3.287   5.211
14117TIP3    H142292   4.317   3.324   5.149
14117TIP3    H242293   4.178   3.265   5.159
14118TIP3   OH242294   6.486   1.291   4.867
14118TIP3    H142295   6.541   1.294   4.945
14118TIP3    H242296   6.409   1.240   4.894
14119TIP3   OH242297   2.952   7.340   4.074
14119TIP3    H142298   3.024   7.329   4.136
14119TIP3    H242299   2.909   7.421   4.102
14120TIP3   OH242300   1.623   7.195   2.927
14120TIP3    H142301   1.574   7.260   2.977
14120TIP3    H242302   1.555   7.138   2.890
14121TIP3   OH242303   2.908   6.734   1.739
14121TIP3    H142304   2.947   6.782   1.812
14121TIP3    H242305   2.982   6.698   1.691
14122TIP3   OH242306   5.689   6.554   2.808
14122TIP3    H142307   5.768   6.608   2.799
14122TIP3    H242308   5.718   6.466   2.781
14123TIP3   OH242309   4.670   3.571   1.098
14123TIP3    H142310   4.691   3.611   1.014
14123TIP3    H242311   4.754   3.543   1.133
14124TIP3   OH242312   3.657   6.160   3.052
14124TIP3    H142313   3.698   6.207   2.980
14124TIP3    H242314   3.578   6.121   3.013
14125TIP3   OH242315   8.329   5.178   0.516
14125TIP3    H142316   8.402   5.239   0.529
14125TIP3    H242317   8.316   5.176   0.422
14126TIP3   OH242318   5.177   2.611   6.096
14126TIP3    H142319   5.152   2.522   6.121
14126TIP3    H242320   5.272   2.613   6.108
14127TIP3   OH242321   8.123   6.303   6.622
14127TIP3    H142322   8.083   6.222   6.653
14127TIP3    H242323   8.056   6.341   6.565
14128TIP3   OH242324   4.972   6.223   4.266
14128TIP3    H142325   4.891   6.175   4.249
14128TIP3    H242326   4.955   6.270   4.348
14129TIP3   OH242327   6.417   0.867   5.816
14129TIP3    H142328   6.322   0.860   5.818
14129TIP3    H242329   6.449   0.777   5.825
14130TIP3   OH242330   0.490   3.810   5.805
14130TIP3    H142331   0.474   3.875   5.873
14130TIP3    H242332   0.585   3.797   5.808
14131TIP3   OH242333   5.044   0.655   0.810
14131TIP3    H142334   5.026   0.615   0.895
14131TIP3    H242335   4.977   0.619   0.752
14132TIP3   OH242336   2.674   3.385   3.773
14132TIP3    H142337   2.658   3.427   3.688
14132TIP3    H242338   2.767   3.363   3.772
14133TIP3   OH242339   4.033   6.868   6.708
14133TIP3    H142340   3.956   6.890   6.761
14133TIP3    H242341   4.092   6.942   6.720
14134TIP3   OH242342   1.614   2.240   3.168
14134TIP3    H142343   1.687   2.208   3.221
14134TIP3    H242344   1.588   2.323   3.209
14135TIP3   OH242345   1.678   5.495   4.970
14135TIP3    H142346   1.625   5.436   4.917
14135TIP3    H242347   1.768   5.468   4.953
14136TIP3   OH242348   8.162   1.023   1.425
14136TIP3    H142349   8.192   0.933   1.430
14136TIP3    H242350   8.201   1.058   1.345
14137TIP3   OH242351   4.164   4.701   5.252
14137TIP3    H142352   4.205   4.663   5.329
14137TIP3    H242353   4.073   4.670   5.256
14138TIP3   OH242354   1.686   1.255   3.439
14138TIP3    H142355   1.623   1.184   3.447
14138TIP3    H242356   1.633   1.332   3.417
14139TIP3   OH242357   6.678   3.346   1.683
14139TIP3    H142358   6.690   3.253   1.700
14139TIP3    H242359   6.660   3.384   1.769
14140TIP3   OH242360   2.688   3.751   2.042
14140TIP3    H142361   2.768   3.704   2.018
14140TIP3    H242362   2.624   3.725   1.975
14141TIP3   OH242363   0.614   0.220   6.215
14141TIP3    H142364   0.570   0.302   6.236
14141TIP3    H242365   0.707   0.243   6.209
14142TIP3   OH242366   5.358   0.977   5.867
14142TIP3    H142367   5.445   0.938   5.858
14142TIP3    H242368   5.333   0.959   5.957
14143TIP3   OH242369   3.239   2.837   3.266
14143TIP3    H142370   3.264   2.826   3.357
14143TIP3    H242371   3.150   2.873   3.270
14144TIP3   OH242372   6.642   6.082   5.635
14144TIP3    H142373   6.560   6.043   5.667
14144TIP3    H242374   6.682   6.120   5.714
14145TIP3   OH242375   6.763   7.425   6.745
14145TIP3    H142376   6.758   7.401   6.837
14145TIP3    H242377   6.847   7.471   6.736
14146TIP3   OH242378   8.038   7.534   1.241
14146TIP3    H142379   8.123   7.491   1.250
14146TIP3    H242380   7.978   7.464   1.220
14147TIP3   OH242381   5.838   3.984   1.053
14147TIP3    H142382   5.925   3.990   1.092
14147TIP3    H242383   5.814   3.891   1.062
14148TIP3   OH242384   6.061   5.963   2.951
14148TIP3    H142385   6.099   5.968   3.039
14148TIP3    H242386   6.038   5.871   2.940
14149TIP3   OH242387   5.957   1.295   3.596
14149TIP3    H142388   5.991   1.384   3.603
14149TIP3    H242389   6.035   1.240   3.589
14150TIP3   OH242390   5.968   2.438   1.336
14150TIP3    H142391   6.052   2.400   1.308
14150TIP3    H242392   5.991   2.495   1.409
14151TIP3   OH242393   7.144   7.760   3.757
14151TIP3    H142394   7.067   7.805   3.791
14151TIP3    H242395   7.199   7.829   3.720
14152TIP3   OH242396   5.905   5.433   2.945
14152TIP3    H142397   5.834   5.495   2.959
14152TIP3    H242398   5.934   5.450   2.855
14153TIP3   OH242399   1.062   5.598   3.602
14153TIP3    H142400   1.125   5.655   3.646
14153TIP3    H242401   1.000   5.574   3.671
14154TIP3   OH242402   6.653   0.117   4.264
14154TIP3    H142403   6.585   0.181   4.287
14154TIP3    H242404   6.652   0.116   4.168
14155TIP3   OH242405   4.158   3.317   4.927
14155TIP3    H142406   4.151   3.367   4.846
14155TIP3    H242407   4.116   3.373   4.993
14156TIP3   OH242408   4.676   7.126   4.734
14156TIP3    H142409   4.712   7.113   4.822
14156TIP3    H242410   4.741   7.088   4.675
14157TIP3   OH242411   2.901   5.108   3.002
14157TIP3    H142412   2.974   5.127   3.061
14157TIP3    H242413   2.939   5.049   2.936
14158TIP3   OH242414   7.364   7.211   6.241
14158TIP3    H142415   7.400   7.268   6.309
14158TIP3    H242416   7.347   7.269   6.167
14159TIP3   OH242417   3.420   2.642   0.172
14159TIP3    H142418   3.404   2.617   0.081
14159TIP3    H242419   3.371   2.724   0.183
14160TIP3   OH242420   2.754   0.624   1.873
14160TIP3    H142421   2.694   0.568   1.923
14160TIP3    H242422   2.834   0.572   1.865
14161TIP3   OH242423   6.135   6.720   2.926
14161TIP3    H142424   6.108   6.733   3.017
14161TIP3    H242425   6.226   6.749   2.924
14162TIP3   OH242426   0.690   4.556   1.416
14162TIP3    H142427   0.768   4.522   1.371
14162TIP3    H242428   0.617   4.508   1.377
14163TIP3   OH242429   8.269   1.685   2.017
14163TIP3    H142430   8.250   1.663   2.108
14163TIP3    H242431   8.294   1.777   2.019
14164TIP3   OH242432   6.167   6.230   5.943
14164TIP3    H142433   6.099   6.281   5.899
14164TIP3    H242434   6.234   6.294   5.965
14165TIP3   OH242435   1.265   5.321   5.836
14165TIP3    H142436   1.245   5.410   5.866
14165TIP3    H242437   1.198   5.267   5.878
14166TIP3   OH242438   6.564   0.891   5.210
14166TIP3    H142439   6.562   0.924   5.120
14166TIP3    H242440   6.651   0.851   5.219
14167TIP3   OH242441   8.021   6.695   3.062
14167TIP3    H142442   8.095   6.702   3.003
14167TIP3    H242443   7.973   6.777   3.051
14168TIP3   OH242444   4.825   3.698   2.251
14168TIP3    H142445   4.773   3.654   2.319
14168TIP3    H242446   4.761   3.718   2.183
14169TIP3   OH242447   6.810   3.178   5.924
14169TIP3    H142448   6.866   3.250   5.894
14169TIP3    H242449   6.871   3.116   5.963
14170TIP3   OH242450   1.359   2.315   3.299
14170TIP3    H142451   1.267   2.292   3.312
14170TIP3    H242452   1.376   2.384   3.363
14171TIP3   OH242453   7.208   1.795   4.316
14171TIP3    H142454   7.115   1.802   4.340
14171TIP3    H242455   7.254   1.786   4.400
14172TIP3   OH242456   5.717   1.273   5.584
14172TIP3    H142457   5.729   1.214   5.510
14172TIP3    H242458   5.705   1.359   5.544
14173TIP3   OH242459   4.530   7.360   0.895
14173TIP3    H142460   4.581   7.396   0.969
14173TIP3    H242461   4.586   7.290   0.861
14174TIP3   OH242462   3.956   6.037   4.017
14174TIP3    H142463   3.927   6.125   4.039
14174TIP3    H242464   3.929   6.024   3.927
14175TIP3   OH242465   2.205   7.359   0.814
14175TIP3    H142466   2.223   7.289   0.751
14175TIP3    H242467   2.290   7.401   0.828
14176TIP3   OH242468   6.246   2.852   2.217
14176TIP3    H142469   6.223   2.784   2.154
14176TIP3    H242470   6.162   2.888   2.246
14177TIP3   OH242471   0.910   0.562   1.983
14177TIP3    H142472   0.909   0.644   1.934
14177TIP3    H242473   0.824   0.523   1.968
14178TIP3   OH242474   3.781   2.871   2.743
14178TIP3    H142475   3.754   2.865   2.651
14178TIP3    H242476   3.720   2.933   2.783
14179TIP3   OH242477   3.878   4.433   4.715
14179TIP3    H142478   3.857   4.501   4.651
14179TIP3    H242479   3.970   4.448   4.737
14180TIP3   OH242480   3.050   5.351   3.751
14180TIP3    H142481   3.108   5.305   3.689
14180TIP3    H242482   2.964   5.350   3.708
14181TIP3   OH242483   3.869   5.647   6.297
14181TIP3    H142484   3.884   5.629   6.390
14181TIP3    H242485   3.841   5.563   6.261
14182TIP3   OH242486   7.059   6.518   6.188
14182TIP3    H142487   6.986   6.457   6.174
14182TIP3    H242488   7.020   6.590   6.238
14183TIP3   OH242489   0.059   6.075   2.938
14183TIP3    H142490  -0.016   6.112   2.893
14183TIP3    H242491   0.023   6.032   3.016
14184TIP3   OH242492   7.031   1.236   1.360
14184TIP3    H142493   6.997   1.167   1.418
14184TIP3    H242494   7.120   1.252   1.393
14185TIP3   OH242495   3.252   1.854   1.253
14185TIP3    H142496   3.228   1.768   1.218
14185TIP3    H242497   3.348   1.853   1.254
14186TIP3   OH242498   0.337   1.381   6.575
14186TIP3    H142499   0.420   1.361   6.619
14186TIP3    H242500   0.336   1.476   6.566
14187TIP3   OH242501   6.417   5.473   0.514
14187TIP3    H142502   6.354   5.454   0.583
14187TIP3    H242503   6.373   5.539   0.460
14188TIP3   OH242504   3.405   7.290   5.117
14188TIP3    H142505   3.453   7.208   5.116
14188TIP3    H242506   3.437   7.338   5.041
14189TIP3   OH242507   3.962   6.586   0.531
14189TIP3    H142508   4.013   6.664   0.506
14189TIP3    H242509   3.894   6.620   0.589
14190TIP3   OH242510   2.656   4.267   4.457
14190TIP3    H142511   2.618   4.290   4.541
14190TIP3    H242512   2.593   4.299   4.392
14191TIP3   OH242513   7.119   1.400   3.600
14191TIP3    H142514   7.116   1.323   3.544
14191TIP3    H242515   7.083   1.470   3.547
14192TIP3   OH242516   7.697   7.113   2.845
14192TIP3    H142517   7.660   7.146   2.763
14192TIP3    H242518   7.647   7.157   2.913
14193TIP3   OH242519   5.638   2.957   4.462
14193TIP3    H142520   5.708   2.991   4.517
14193TIP3    H242521   5.561   3.009   4.486
14194TIP3   OH242522   3.292   4.233   5.842
14194TIP3    H142523   3.332   4.173   5.905
14194TIP3    H242524   3.207   4.255   5.881
14195TIP3   OH242525   2.987   1.508   3.445
14195TIP3    H142526   2.948   1.586   3.484
14195TIP3    H242527   2.963   1.513   3.352
14196TIP3   OH242528   7.095   7.421   2.439
14196TIP3    H142529   7.073   7.508   2.470
14196TIP3    H242530   7.173   7.433   2.385
14197TIP3   OH242531   7.701   0.473   3.536
14197TIP3    H142532   7.647   0.467   3.457
14197TIP3    H242533   7.658   0.416   3.599
14198TIP3   OH242534   6.719   2.556   3.073
14198TIP3    H142535   6.667   2.479   3.096
14198TIP3    H242536   6.727   2.605   3.155
14199TIP3   OH242537   7.072   5.041   2.030
14199TIP3    H142538   7.152   5.086   2.002
14199TIP3    H242539   7.096   4.949   2.036
14200TIP3   OH242540   8.021   1.627   0.321
14200TIP3    H142541   7.943   1.605   0.271
14200TIP3    H242542   8.094   1.591   0.270
14201TIP3   OH242543   8.083   6.227   1.074
14201TIP3    H142544   8.043   6.247   0.990
14201TIP3    H242545   8.102   6.313   1.112
14202TIP3   OH242546   4.944   7.156   6.883
14202TIP3    H142547   4.947   7.062   6.899
14202TIP3    H242548   4.942   7.165   6.788
14203TIP3   OH242549   0.537   4.220   4.686
14203TIP3    H142550   0.603   4.261   4.630
14203TIP3    H242551   0.488   4.294   4.722
14204TIP3   OH242552   1.217   3.561   2.971
14204TIP3    H142553   1.166   3.535   2.895
14204TIP3    H242554   1.246   3.479   3.010
14205TIP3   OH242555   1.862   3.944   2.240
14205TIP3    H142556   1.886   3.862   2.283
14205TIP3    H242557   1.767   3.945   2.239
14206TIP3   OH242558   7.871   7.716   2.369
14206TIP3    H142559   7.911   7.656   2.431
14206TIP3    H242560   7.841   7.660   2.297
14207TIP3   OH242561   4.791   1.387   0.781
14207TIP3    H142562   4.751   1.462   0.737
14207TIP3    H242563   4.826   1.424   0.863
14208TIP3   OH242564   1.388   3.179   2.393
14208TIP3    H142565   1.344   3.236   2.330
14208TIP3    H242566   1.478   3.211   2.395
14209TIP3   OH242567   3.142   4.135   2.355
14209TIP3    H142568   3.172   4.093   2.436
14209TIP3    H242569   3.059   4.091   2.335
14210TIP3   OH242570   4.023   3.539   3.094
14210TIP3    H142571   4.081   3.607   3.128
14210TIP3    H242572   4.033   3.466   3.154
14211TIP3   OH242573   6.752   4.762   1.170
14211TIP3    H142574   6.762   4.790   1.261
14211TIP3    H242575   6.689   4.823   1.132
14212TIP3   OH242576   7.125   6.414   2.033
14212TIP3    H142577   7.153   6.451   1.949
14212TIP3    H242578   7.039   6.376   2.014
14213TIP3   OH242579   3.996   6.765   4.296
14213TIP3    H142580   3.987   6.674   4.269
14213TIP3    H242581   4.088   6.775   4.320
14214TIP3   OH242582   2.321   0.245   4.199
14214TIP3    H142583   2.337   0.268   4.291
14214TIP3    H242584   2.237   0.199   4.201
14215TIP3   OH242585   7.856   4.510   1.792
14215TIP3    H142586   7.879   4.438   1.851
14215TIP3    H242587   7.921   4.505   1.722
14216TIP3   OH242588   7.362   7.754   2.048
14216TIP3    H142589   7.448   7.795   2.039
14216TIP3    H242590   7.380   7.661   2.061
14217TIP3   OH242591   6.842   1.016   3.664
14217TIP3    H142592   6.792   0.951   3.713
14217TIP3    H242593   6.879   1.073   3.730
14218TIP3   OH242594   6.327   5.192   0.132
14218TIP3    H142595   6.370   5.112   0.102
14218TIP3    H242596   6.390   5.229   0.195
14219TIP3   OH242597   5.376   7.068   3.081
14219TIP3    H142598   5.311   7.111   3.026
14219TIP3    H242599   5.344   6.978   3.090
14220TIP3   OH242600   3.063   0.605   2.033
14220TIP3    H142601   3.016   0.526   2.005
14220TIP3    H242602   3.031   0.674   1.975
14221TIP3   OH242603   4.887   0.200   6.623
14221TIP3    H142604   4.960   0.254   6.652
14221TIP3    H242605   4.895   0.199   6.527
14222TIP3   OH242606   1.427   3.839   6.654
14222TIP3    H142607   1.363   3.859   6.585
14222TIP3    H242608   1.488   3.777   6.613
14223TIP3   OH242609   3.392   0.518   4.835
14223TIP3    H142610   3.305   0.557   4.850
14223TIP3    H242611   3.376   0.424   4.828
14224TIP3   OH242612   5.221   5.314   2.935
14224TIP3    H142613   5.176   5.257   2.872
14224TIP3    H242614   5.293   5.261   2.967
14225TIP3   OH242615   8.146   5.992   6.653
14225TIP3    H142616   8.181   5.972   6.740
14225TIP3    H242617   8.212   5.960   6.592
14226TIP3   OH242618   1.707   4.146   1.643
14226TIP3    H142619   1.727   4.087   1.569
14226TIP3    H242620   1.749   4.229   1.620
14227TIP3   OH242621   7.710   4.903   2.041
14227TIP3    H142622   7.698   4.997   2.029
14227TIP3    H242623   7.696   4.866   1.953
14228TIP3   OH242624   7.183   4.195   5.647
14228TIP3    H142625   7.187   4.181   5.553
14228TIP3    H242626   7.184   4.108   5.685
14229TIP3   OH242627   3.693   5.256   3.800
14229TIP3    H142628   3.693   5.311   3.878
14229TIP3    H242629   3.602   5.227   3.792
14230TIP3   OH242630   5.288   5.300   2.569
14230TIP3    H142631   5.318   5.220   2.526
14230TIP3    H242632   5.353   5.366   2.544
14231TIP3   OH242633   0.250   0.892   1.085
14231TIP3    H142634   0.272   0.829   1.017
14231TIP3    H242635   0.294   0.860   1.163
14232TIP3   OH242636   4.515   5.546   1.427
14232TIP3    H142637   4.600   5.510   1.450
14232TIP3    H242638   4.490   5.500   1.347
14233TIP3   OH242639   2.935   2.747   5.394
14233TIP3    H142640   3.026   2.760   5.367
14233TIP3    H242641   2.925   2.652   5.397
14234TIP3   OH242642   2.678   2.272   3.801
14234TIP3    H142643   2.637   2.210   3.741
14234TIP3    H242644   2.648   2.358   3.771
14235TIP3   OH242645   3.244   4.307   1.662
14235TIP3    H142646   3.206   4.386   1.624
14235TIP3    H242647   3.314   4.282   1.601
14236TIP3   OH242648   1.943   7.731   4.016
14236TIP3    H142649   1.873   7.666   4.019
14236TIP3    H242650   1.899   7.813   3.995
14237TIP3   OH242651   4.491   7.232   1.470
14237TIP3    H142652   4.404   7.222   1.432
14237TIP3    H242653   4.525   7.314   1.433
14238TIP3   OH242654   6.945   0.893   4.221
14238TIP3    H142655   6.980   0.893   4.310
14238TIP3    H242656   7.010   0.939   4.169
14239TIP3   OH242657   1.552   7.153   4.278
14239TIP3    H142658   1.460   7.178   4.266
14239TIP3    H242659   1.601   7.214   4.223
14240TIP3   OH242660   7.767   1.799   2.984
14240TIP3    H142661   7.688   1.750   3.007
14240TIP3    H242662   7.743   1.847   2.905
14241TIP3   OH242663   4.032   4.813   6.091
14241TIP3    H142664   4.002   4.724   6.073
14241TIP3    H242665   3.976   4.844   6.162
14242TIP3   OH242666   1.836   0.000   5.101
14242TIP3    H142667   1.746  -0.024   5.078
14242TIP3    H242668   1.828   0.050   5.182
14243TIP3   OH242669   1.925   1.312   3.617
14243TIP3    H142670   1.858   1.248   3.594
14243TIP3    H242671   1.961   1.341   3.533
14244TIP3   OH242672   5.988   1.953   5.124
14244TIP3    H142673   6.079   1.957   5.096
14244TIP3    H242674   5.939   1.987   5.049
14245TIP3   OH242675   0.970   0.994   3.553
14245TIP3    H142676   1.051   0.950   3.528
14245TIP3    H242677   0.995   1.049   3.627
14246TIP3   OH242678   7.379   1.984   6.500
14246TIP3    H142679   7.408   1.975   6.591
14246TIP3    H242680   7.406   1.903   6.458
14247TIP3   OH242681   7.157   0.376   2.547
14247TIP3    H142682   7.155   0.290   2.505
14247TIP3    H242683   7.204   0.432   2.485
14248TIP3   OH242684   3.047   0.914   6.512
14248TIP3    H142685   3.092   0.999   6.503
14248TIP3    H242686   3.031   0.887   6.421
14249TIP3   OH242687   0.603   3.616   4.615
14249TIP3    H142688   0.602   3.570   4.699
14249TIP3    H242689   0.625   3.707   4.637
14250TIP3   OH242690   0.636   4.312   3.387
14250TIP3    H142691   0.597   4.397   3.367
14250TIP3    H242692   0.708   4.332   3.447
14251TIP3   OH242693   6.397   2.710   0.814
14251TIP3    H142694   6.492   2.694   0.814
14251TIP3    H242695   6.357   2.624   0.824
14252TIP3   OH242696   7.977   1.964   6.839
14252TIP3    H142697   7.914   1.983   6.769
14252TIP3    H242698   7.924   1.955   6.918
14253TIP3   OH242699   1.761   6.835   4.098
14253TIP3    H142700   1.825   6.859   4.031
14253TIP3    H242701   1.811   6.835   4.180
14254TIP3   OH242702   4.404   5.225   6.635
14254TIP3    H142703   4.451   5.164   6.579
14254TIP3    H242704   4.460   5.303   6.639
14255TIP3   OH242705   3.891   2.540   3.178
14255TIP3    H142706   3.952   2.568   3.110
14255TIP3    H242707   3.941   2.475   3.229
14256TIP3   OH242708   7.061   3.127   3.620
14256TIP3    H142709   7.095   3.197   3.675
14256TIP3    H242710   7.047   3.054   3.681
14257TIP3   OH242711   8.212   0.055   3.719
14257TIP3    H142712   8.170   0.138   3.740
14257TIP3    H242713   8.258   0.072   3.637
14258TIP3   OH242714   5.122   7.075   4.989
14258TIP3    H142715   5.042   7.099   5.036
14258TIP3    H242716   5.152   7.156   4.948
14259TIP3   OH242717   2.479   2.022   0.038
14259TIP3    H142718   2.539   2.077   0.088
14259TIP3    H242719   2.518   1.934   0.041
14260TIP3   OH242720   3.789   4.162   4.623
14260TIP3    H142721   3.809   4.255   4.614
14260TIP3    H242722   3.824   4.123   4.543
14261TIP3   OH242723   0.922   3.177   6.241
14261TIP3    H142724   0.993   3.231   6.206
14261TIP3    H242725   0.842   3.222   6.214
14262TIP3   OH242726   0.133   5.210   5.327
14262TIP3    H142727   0.222   5.189   5.299
14262TIP3    H242728   0.079   5.196   5.250
14263TIP3   OH242729   5.928   1.980   1.748
14263TIP3    H142730   5.962   2.031   1.822
14263TIP3    H242731   5.859   2.034   1.711
14264TIP3   OH242732   5.804   7.802   3.750
14264TIP3    H142733   5.879   7.802   3.809
14264TIP3    H242734   5.833   7.753   3.674
14265TIP3   OH242735   5.438   7.160   3.533
14265TIP3    H142736   5.376   7.220   3.574
14265TIP3    H242737   5.452   7.195   3.445
14266TIP3   OH242738   2.184   2.038   4.527
14266TIP3    H142739   2.231   1.962   4.562
14266TIP3    H242740   2.132   2.003   4.454
14267TIP3   OH242741   5.847   5.299   6.284
14267TIP3    H142742   5.913   5.320   6.218
14267TIP3    H242743   5.880   5.221   6.328
14268TIP3   OH242744   3.131   5.996   5.635
14268TIP3    H142745   3.175   6.080   5.626
14268TIP3    H242746   3.055   6.013   5.690
14269TIP3   OH242747   0.751   5.077   3.016
14269TIP3    H142748   0.668   5.123   3.008
14269TIP3    H242749   0.742   5.001   2.959
14270TIP3   OH242750   3.937   2.005   6.453
14270TIP3    H142751   4.004   1.941   6.430
14270TIP3    H242752   3.881   2.010   6.375
14271TIP3   OH242753   5.834   5.541   6.092
14271TIP3    H142754   5.909   5.482   6.100
14271TIP3    H242755   5.837   5.571   6.002
14272TIP3   OH242756   6.719   4.335   0.939
14272TIP3    H142757   6.759   4.279   0.872
14272TIP3    H242758   6.655   4.278   0.982
14273TIP3   OH242759   6.515   6.704   5.802
14273TIP3    H142760   6.427   6.721   5.836
14273TIP3    H242761   6.523   6.609   5.802
14274TIP3   OH242762   4.028   4.633   2.496
14274TIP3    H142763   3.936   4.611   2.482
14274TIP3    H242764   4.037   4.640   2.591
14275TIP3   OH242765   3.726   6.038   2.524
14275TIP3    H142766   3.770   6.120   2.546
14275TIP3    H242767   3.633   6.057   2.532
14276TIP3   OH242768   1.377   7.005   3.377
14276TIP3    H142769   1.336   6.923   3.405
14276TIP3    H242770   1.358   7.067   3.447
14277TIP3   OH242771   2.015   7.581   0.912
14277TIP3    H142772   1.965   7.623   0.842
14277TIP3    H242773   1.993   7.489   0.907
14278TIP3   OH242774   0.125   0.046   5.612
14278TIP3    H142775   0.087  -0.023   5.557
14278TIP3    H242776   0.219   0.027   5.611
14279TIP3   OH242777   5.363   0.050   6.810
14279TIP3    H142778   5.336   0.083   6.725
14279TIP3    H242779   5.411  -0.031   6.790
14280TIP3   OH242780   7.744   2.001   6.694
14280TIP3    H142781   7.678   2.006   6.762
14280TIP3    H242782   7.697   2.024   6.613
14281TIP3   OH242783   6.225   0.309   2.715
14281TIP3    H142784   6.178   0.264   2.645
14281TIP3    H242785   6.209   0.402   2.699
14282TIP3   OH242786   5.761   3.650   2.686
14282TIP3    H142787   5.729   3.737   2.712
14282TIP3    H242788   5.799   3.664   2.599
14283TIP3   OH242789   6.296   3.215   4.734
14283TIP3    H142790   6.328   3.299   4.768
14283TIP3    H242791   6.247   3.178   4.807
14284TIP3   OH242792   3.932   7.653   3.442
14284TIP3    H142793   3.933   7.659   3.537
14284TIP3    H242794   3.885   7.731   3.413
14285TIP3   OH242795   4.330   0.117   5.140
14285TIP3    H142796   4.385   0.039   5.138
14285TIP3    H242797   4.392   0.190   5.134
14286TIP3   OH242798   1.595   0.592   4.793
14286TIP3    H142799   1.620   0.661   4.732
14286TIP3    H242800   1.649   0.516   4.766
14287TIP3   OH242801   5.073   0.546   2.015
14287TIP3    H142802   4.981   0.561   1.990
14287TIP3    H242803   5.099   0.469   1.965
14288TIP3   OH242804   1.879   7.407   3.761
14288TIP3    H142805   1.909   7.316   3.759
14288TIP3    H242806   1.927   7.450   3.690
14289TIP3   OH242807   2.838   3.434   2.428
14289TIP3    H142808   2.810   3.517   2.468
14289TIP3    H242809   2.876   3.460   2.344
14290TIP3   OH242810   0.157   7.766   4.012
14290TIP3    H142811   0.071   7.805   4.025
14290TIP3    H242812   0.147   7.710   3.936
14291TIP3   OH242813   5.559   5.017   5.682
14291TIP3    H142814   5.649   5.049   5.686
14291TIP3    H242815   5.561   4.951   5.612
14292TIP3   OH242816   0.823   3.463   2.550
14292TIP3    H142817   0.832   3.376   2.588
14292TIP3    H242818   0.767   3.451   2.474
14293TIP3   OH242819   6.808   2.742   0.548
14293TIP3    H142820   6.741   2.794   0.503
14293TIP3    H242821   6.777   2.652   0.542
14294TIP3   OH242822   2.748   0.730   6.343
14294TIP3    H142823   2.826   0.784   6.337
14294TIP3    H242824   2.729   0.724   6.437
14295TIP3   OH242825   4.113   3.731   3.872
14295TIP3    H142826   4.022   3.710   3.895
14295TIP3    H242827   4.159   3.734   3.955
14296TIP3   OH242828   6.228   3.373   5.106
14296TIP3    H142829   6.294   3.304   5.100
14296TIP3    H242830   6.178   3.352   5.184
14297TIP3   OH242831   2.363   1.104   3.987
14297TIP3    H142832   2.370   1.047   4.063
14297TIP3    H242833   2.270   1.127   3.982
14298TIP3   OH242834   5.568   4.689   6.657
14298TIP3    H142835   5.522   4.771   6.673
14298TIP3    H242836   5.657   4.705   6.689
14299TIP3   OH242837   7.141   3.898   6.824
14299TIP3    H142838   7.163   3.992   6.827
14299TIP3    H242839   7.121   3.876   6.915
14300TIP3   OH242840   2.731   2.818   3.727
14300TIP3    H142841   2.765   2.807   3.816
14300TIP3    H242842   2.653   2.872   3.738
14301TIP3   OH242843   0.882   2.332   3.592
14301TIP3    H142844   0.938   2.254   3.597
14301TIP3    H242845   0.798   2.299   3.561
14302TIP3   OH242846   0.941   6.007   0.815
14302TIP3    H142847   0.876   6.050   0.760
14302TIP3    H242848   0.904   6.012   0.903
14303TIP3   OH242849   0.923   1.285   0.693
14303TIP3    H142850   0.985   1.328   0.634
14303TIP3    H242851   0.955   1.196   0.702
14304TIP3   OH242852   5.694   0.772   4.192
14304TIP3    H142853   5.657   0.684   4.194
14304TIP3    H242854   5.758   0.770   4.121
14305TIP3   OH242855   8.201   5.476   2.986
14305TIP3    H142856   8.269   5.418   3.020
14305TIP3    H242857   8.145   5.494   3.061
14306TIP3   OH242858   6.009   5.884   3.550
14306TIP3    H142859   6.010   5.975   3.523
14306TIP3    H242860   6.034   5.835   3.471
14307TIP3   OH242861   4.262   5.360   4.649
14307TIP3    H142862   4.230   5.449   4.632
14307TIP3    H242863   4.225   5.337   4.734
14308TIP3   OH242864   5.330   0.218   2.106
14308TIP3    H142865   5.374   0.149   2.057
14308TIP3    H242866   5.341   0.297   2.053
14309TIP3   OH242867   6.913   1.553   4.892
14309TIP3    H142868   6.923   1.567   4.798
14309TIP3    H242869   6.827   1.590   4.913
14310TIP3   OH242870   3.055   7.480   2.784
14310TIP3    H142871   3.067   7.551   2.848
14310TIP3    H242872   2.996   7.418   2.828
14311TIP3   OH242873   4.705   0.671   6.383
14311TIP3    H142874   4.619   0.713   6.376
14311TIP3    H242875   4.747   0.714   6.457
14312TIP3   OH242876   6.227   2.417   5.303
14312TIP3    H142877   6.263   2.461   5.380
14312TIP3    H242878   6.159   2.360   5.338
14313TIP3   OH242879   2.662   1.425   0.971
14313TIP3    H142880   2.571   1.435   1.000
14313TIP3    H242881   2.711   1.404   1.051
14314TIP3   OH242882   1.424   1.392   0.161
14314TIP3    H142883   1.412   1.374   0.068
14314TIP3    H242884   1.441   1.487   0.165
14315TIP3   OH242885   3.000   3.488   4.475
14315TIP3    H142886   3.047   3.442   4.544
14315TIP3    H242887   2.918   3.515   4.515
14316TIP3   OH242888   0.967   7.247   2.535
14316TIP3    H142889   0.929   7.282   2.455
14316TIP3    H242890   0.938   7.307   2.604
14317TIP3   OH242891   0.601   5.021   6.477
14317TIP3    H142892   0.514   5.059   6.492
14317TIP3    H242893   0.655   5.095   6.448
14318TIP3   OH242894   6.965   1.660   1.541
14318TIP3    H142895   6.926   1.655   1.453
14318TIP3    H242896   6.934   1.744   1.575
14319TIP3   OH242897   1.409   5.030   2.749
14319TIP3    H142898   1.489   5.006   2.795
14319TIP3    H242899   1.412   4.980   2.668
14320TIP3   OH242900   4.738   0.533   3.637
14320TIP3    H142901   4.740   0.553   3.731
14320TIP3    H242902   4.645   0.533   3.615
14321TIP3   OH242903   4.102   7.021   3.279
14321TIP3    H142904   4.028   7.069   3.240
14321TIP3    H242905   4.071   6.931   3.287
14322TIP3   OH242906   0.870   3.479   0.507
14322TIP3    H142907   0.894   3.472   0.414
14322TIP3    H242908   0.909   3.562   0.535
14323TIP3   OH242909   5.999   1.055   0.585
14323TIP3    H142910   6.050   0.976   0.603
14323TIP3    H242911   6.034   1.120   0.646
14324TIP3   OH242912   6.770   2.015   6.636
14324TIP3    H142913   6.832   2.013   6.708
14324TIP3    H242914   6.737   1.925   6.630
14325TIP3   OH242915   1.119   3.474   1.097
14325TIP3    H142916   1.159   3.475   1.010
14325TIP3    H242917   1.107   3.566   1.119
14326TIP3   OH242918   0.251   7.285   4.856
14326TIP3    H142919   0.235   7.295   4.950
14326TIP3    H242920   0.180   7.335   4.815
14327TIP3   OH242921   0.108   6.728   2.342
14327TIP3    H142922   0.016   6.752   2.338
14327TIP3    H242923   0.107   6.635   2.366
14328TIP3   OH242924   4.064   5.699   0.901
14328TIP3    H142925   3.992   5.665   0.953
14328TIP3    H242926   4.098   5.772   0.952
14329TIP3   OH242927   5.653   1.876   3.223
14329TIP3    H142928   5.719   1.937   3.189
14329TIP3    H242929   5.627   1.823   3.147
14330TIP3   OH242930   3.590   5.541   3.536
14330TIP3    H142931   3.637   5.621   3.510
14330TIP3    H242932   3.575   5.552   3.630
14331TIP3   OH242933   3.998   4.770   2.216
14331TIP3    H142934   3.992   4.676   2.236
14331TIP3    H242935   3.932   4.810   2.273
14332TIP3   OH242936   3.900   3.718   3.300
14332TIP3    H142937   3.843   3.641   3.287
14332TIP3    H242938   3.970   3.687   3.357
14333TIP3   OH242939   3.414  -0.012   3.052
14333TIP3    H142940   3.394   0.080   3.034
14333TIP3    H242941   3.462  -0.010   3.135
14334TIP3   OH242942   3.644   5.986   1.591
14334TIP3    H142943   3.662   6.076   1.620
14334TIP3    H242944   3.701   5.932   1.645
14335TIP3   OH242945   0.970   7.788   0.415
14335TIP3    H142946   1.027   7.861   0.391
14335TIP3    H242947   0.882   7.817   0.391
14336TIP3   OH242948   7.759   0.946   4.839
14336TIP3    H142949   7.711   1.005   4.781
14336TIP3    H242950   7.752   0.860   4.797
14337TIP3   OH242951   0.826   0.246   0.760
14337TIP3    H142952   0.914   0.211   0.747
14337TIP3    H242953   0.768   0.172   0.746
14338TIP3   OH242954   2.599   6.335   0.998
14338TIP3    H142955   2.659   6.405   1.023
14338TIP3    H242956   2.601   6.334   0.903
14339TIP3   OH242957   3.339   6.802   6.521
14339TIP3    H142958   3.276   6.820   6.591
14339TIP3    H242959   3.375   6.888   6.499
14340TIP3   OH242960   0.156   7.863   1.377
14340TIP3    H142961   0.238   7.815   1.363
14340TIP3    H242962   0.088   7.801   1.351
14341TIP3   OH242963   6.003   6.964   4.643
14341TIP3    H142964   6.059   7.029   4.685
14341TIP3    H242965   6.063   6.896   4.613
14342TIP3   OH242966   3.745   2.919   0.842
14342TIP3    H142967   3.731   2.997   0.788
14342TIP3    H242968   3.794   2.951   0.918
14343TIP3   OH242969   7.244   0.278   1.579
14343TIP3    H142970   7.257   0.191   1.619
14343TIP3    H242971   7.297   0.337   1.633
14344TIP3   OH242972   4.310   5.611   6.597
14344TIP3    H142973   4.357   5.590   6.516
14344TIP3    H242974   4.279   5.701   6.584
14345TIP3   OH242975   4.633   7.170   2.385
14345TIP3    H142976   4.548   7.156   2.425
14345TIP3    H242977   4.682   7.224   2.448
14346TIP3   OH242978   7.757   4.054   3.903
14346TIP3    H142979   7.749   4.013   3.817
14346TIP3    H242980   7.822   4.123   3.890
14347TIP3   OH242981   0.565   4.671   5.929
14347TIP3    H142982   0.592   4.685   6.020
14347TIP3    H242983   0.476   4.705   5.925
14348TIP3   OH242984   5.096   4.439   4.890
14348TIP3    H142985   5.012   4.426   4.844
14348TIP3    H242986   5.072   4.481   4.972
14349TIP3   OH242987   1.867   7.721   0.724
14349TIP3    H142988   1.859   7.687   0.634
14349TIP3    H242989   1.777   7.734   0.753
14350TIP3   OH242990   0.728   2.978   1.420
14350TIP3    H142991   0.660   2.942   1.364
14350TIP3    H242992   0.685   2.995   1.503
14351TIP3   OH242993   0.638   6.079   0.903
14351TIP3    H142994   0.560   6.125   0.870
14351TIP3    H242995   0.687   6.147   0.950
14352TIP3   OH242996   6.904   7.844   0.030
14352TIP3    H142997   6.828   7.892  -0.002
14352TIP3    H242998   6.951   7.907   0.084
14353TIP3   OH242999   6.520   1.056   5.642
14353TIP3    H143000   6.497   0.986   5.703
14353TIP3    H243001   6.578   1.114   5.693
14354TIP3   OH243002   4.545   4.431   4.810
14354TIP3    H143003   4.462   4.421   4.857
14354TIP3    H243004   4.565   4.524   4.818
14355TIP3   OH243005   3.062   0.341   3.342
14355TIP3    H143006   2.972   0.344   3.376
14355TIP3    H243007   3.065   0.260   3.292
14356TIP3   OH243008   6.159   6.747   4.845
14356TIP3    H143009   6.226   6.787   4.901
14356TIP3    H243010   6.198   6.747   4.757
14357TIP3   OH243011   3.441   2.659   2.887
14357TIP3    H143012   3.358   2.627   2.921
14357TIP3    H243013   3.463   2.734   2.943
14358TIP3   OH243014   7.174   6.141   6.178
14358TIP3    H143015   7.129   6.106   6.254
14358TIP3    H243016   7.231   6.070   6.148
14359TIP3   OH243017   5.316   4.853   6.793
14359TIP3    H143018   5.299   4.760   6.783
14359TIP3    H243019   5.348   4.880   6.707
14360TIP3   OH243020   3.123   5.764   0.122
14360TIP3    H143021   3.085   5.676   0.126
14360TIP3    H243022   3.216   5.751   0.137
14361TIP3   OH243023   4.614   4.151   5.944
14361TIP3    H143024   4.632   4.064   5.979
14361TIP3    H243025   4.524   4.170   5.969
14362TIP3   OH243026   4.896   3.241   6.192
14362TIP3    H143027   4.813   3.288   6.200
14362TIP3    H243028   4.875   3.164   6.139
14363TIP3   OH243029   3.473   2.876   0.632
14363TIP3    H143030   3.515   2.930   0.699
14363TIP3    H243031   3.533   2.878   0.558
14364TIP3   OH243032   3.598   3.229   4.907
14364TIP3    H143033   3.637   3.196   4.988
14364TIP3    H243034   3.672   3.233   4.846
14365TIP3   OH243035   3.889   0.726   4.519
14365TIP3    H143036   3.806   0.686   4.545
14365TIP3    H243037   3.956   0.663   4.545
14366TIP3   OH243038   0.567   4.067   3.824
14366TIP3    H143039   0.647   4.114   3.801
14366TIP3    H243040   0.504   4.094   3.757
14367TIP3   OH243041   1.741   4.105   4.048
14367TIP3    H143042   1.760   4.161   3.973
14367TIP3    H243043   1.723   4.019   4.009
14368TIP3   OH243044   7.917   4.977   2.213
14368TIP3    H143045   7.913   4.894   2.164
14368TIP3    H243046   7.959   5.038   2.153
14369TIP3   OH243047   2.685   5.188   0.896
14369TIP3    H143048   2.779   5.166   0.902
14369TIP3    H243049   2.645   5.135   0.965
14370TIP3   OH243050   2.190   6.401   2.723
14370TIP3    H143051   2.110   6.352   2.706
14370TIP3    H243052   2.256   6.359   2.667
14371TIP3   OH243053   2.242   2.339   4.323
14371TIP3    H143054   2.294   2.316   4.400
14371TIP3    H243055   2.307   2.369   4.259
14372TIP3   OH243056   7.649   3.605   1.599
14372TIP3    H143057   7.591   3.572   1.530
14372TIP3    H243058   7.733   3.561   1.583
14373TIP3   OH243059   3.549   7.613   1.506
14373TIP3    H143060   3.558   7.596   1.600
14373TIP3    H243061   3.609   7.551   1.465
14374TIP3   OH243062   8.032   5.878   1.432
14374TIP3    H143063   8.074   5.815   1.373
14374TIP3    H243064   8.045   5.841   1.519
14375TIP3   OH243065   0.416   6.249   0.601
14375TIP3    H143066   0.331   6.250   0.646
14375TIP3    H243067   0.477   6.288   0.664
14376TIP3   OH243068   0.048   1.998   0.490
14376TIP3    H143069  -0.029   1.942   0.501
14376TIP3    H243070   0.057   2.008   0.396
14377TIP3   OH243071   1.202   4.767   5.622
14377TIP3    H143072   1.231   4.714   5.696
14377TIP3    H243073   1.195   4.856   5.656
14378TIP3   OH243074   7.333   5.021   0.403
14378TIP3    H143075   7.359   4.947   0.348
14378TIP3    H243076   7.415   5.054   0.440
14379TIP3   OH243077   5.247   7.313   1.463
14379TIP3    H143078   5.306   7.377   1.425
14379TIP3    H243079   5.252   7.329   1.558
14380TIP3   OH243080   6.028   6.060   1.810
14380TIP3    H143081   5.947   6.059   1.862
14380TIP3    H243082   6.001   6.097   1.725
14381TIP3   OH243083   1.970   0.907   1.960
14381TIP3    H143084   2.020   0.890   2.040
14381TIP3    H243085   1.900   0.842   1.961
14382TIP3   OH243086   4.943   7.229   5.437
14382TIP3    H143087   4.849   7.223   5.449
14382TIP3    H243088   4.955   7.310   5.386
14383TIP3   OH243089   1.379   5.063   0.235
14383TIP3    H143090   1.345   5.101   0.154
14383TIP3    H243091   1.308   5.075   0.298
14384TIP3   OH243092   0.972   6.137   1.319
14384TIP3    H143093   0.997   6.054   1.279
14384TIP3    H243094   0.956   6.196   1.245
14385TIP3   OH243095   7.114   4.497   1.048
14385TIP3    H143096   7.048   4.557   1.014
14385TIP3    H243097   7.116   4.425   0.985
14386TIP3   OH243098   3.992   3.476   5.777
14386TIP3    H143099   3.996   3.470   5.873
14386TIP3    H243100   3.941   3.555   5.760
14387TIP3   OH243101   7.684   5.331   3.915
14387TIP3    H143102   7.671   5.293   3.828
14387TIP3    H243103   7.656   5.263   3.976
14388TIP3   OH243104   2.859   2.885   5.098
14388TIP3    H143105   2.845   2.894   5.192
14388TIP3    H243106   2.794   2.821   5.070
14389TIP3   OH243107   6.014   3.543   2.677
14389TIP3    H143108   6.019   3.567   2.585
14389TIP3    H243109   5.941   3.593   2.712
14390TIP3   OH243110   3.018   6.877   0.657
14390TIP3    H143111   3.049   6.965   0.637
14390TIP3    H243112   2.997   6.879   0.750
14391TIP3   OH243113   1.627   6.512   5.551
14391TIP3    H143114   1.604   6.433   5.502
14391TIP3    H243115   1.619   6.583   5.487
14392TIP3   OH243116   7.763   3.332   3.236
14392TIP3    H143117   7.682   3.298   3.199
14392TIP3    H243118   7.761   3.426   3.215
14393TIP3   OH243119   6.950   7.025   2.053
14393TIP3    H143120   6.984   6.937   2.034
14393TIP3    H243121   6.923   7.020   2.145
14394TIP3   OH243122   5.365   3.362   3.098
14394TIP3    H143123   5.395   3.452   3.112
14394TIP3    H243124   5.290   3.371   3.038
14395TIP3   OH243125   1.327   3.984   1.217
14395TIP3    H143126   1.406   4.038   1.225
14395TIP3    H243127   1.257   4.040   1.251
14396TIP3   OH243128   7.972   0.575   3.511
14396TIP3    H143129   8.003   0.551   3.424
14396TIP3    H243130   7.886   0.534   3.518
14397TIP3   OH243131   7.179   0.140   6.488
14397TIP3    H143132   7.264   0.167   6.523
14397TIP3    H243133   7.201   0.080   6.417
14398TIP3   OH243134   1.761   7.699   2.788
14398TIP3    H143135   1.687   7.749   2.752
14398TIP3    H243136   1.733   7.673   2.875
14399TIP3   OH243137   2.746   5.030   3.216
14399TIP3    H143138   2.791   5.055   3.135
14399TIP3    H243139   2.687   5.103   3.234
14400TIP3   OH243140   6.208   1.341   3.380
14400TIP3    H143141   6.236   1.250   3.382
14400TIP3    H243142   6.290   1.391   3.379
14401TIP3   OH243143   4.015   6.430   4.692
14401TIP3    H143144   4.089   6.379   4.658
14401TIP3    H243145   4.024   6.515   4.648
14402TIP3   OH243146   5.244   4.595   2.273
14402TIP3    H143147   5.169   4.551   2.232
14402TIP3    H243148   5.303   4.614   2.201
14403TIP3   OH243149   7.705   0.144   1.470
14403TIP3    H143150   7.679   0.198   1.544
14403TIP3    H243151   7.629   0.088   1.453
14404TIP3   OH243152   8.072   4.428   1.933
14404TIP3    H143153   8.166   4.428   1.914
14404TIP3    H243154   8.066   4.399   2.024
14405TIP3   OH243155   0.869   4.139   0.253
14405TIP3    H143156   0.778   4.111   0.239
14405TIP3    H243157   0.871   4.229   0.220
14406TIP3   OH243158   7.720   2.497   5.763
14406TIP3    H143159   7.662   2.522   5.834
14406TIP3    H243160   7.661   2.474   5.691
14407TIP3   OH243161   3.727   0.496   5.778
14407TIP3    H143162   3.784   0.498   5.855
14407TIP3    H243163   3.734   0.583   5.740
14408TIP3   OH243164   8.322   7.314   1.955
14408TIP3    H143165   8.385   7.382   1.931
14408TIP3    H243166   8.238   7.359   1.959
14409TIP3   OH243167   6.362   1.184   0.779
14409TIP3    H143168   6.435   1.222   0.828
14409TIP3    H243169   6.355   1.237   0.700
14410TIP3   OH243170   4.152   5.700   0.523
14410TIP3    H143171   4.238   5.742   0.527
14410TIP3    H243172   4.098   5.760   0.473
14411TIP3   OH243173   5.395   4.187   1.057
14411TIP3    H143174   5.355   4.271   1.078
14411TIP3    H243175   5.489   4.205   1.057
14412TIP3   OH243176   2.936   3.240   3.841
14412TIP3    H143177   2.937   3.160   3.893
14412TIP3    H243178   2.992   3.301   3.889
14413TIP3   OH243179   7.100   2.306   5.060
14413TIP3    H143180   7.134   2.386   5.101
14413TIP3    H243181   7.163   2.238   5.085
14414TIP3   OH243182   0.172   7.247   0.172
14414TIP3    H143183   0.241   7.193   0.135
14414TIP3    H243184   0.157   7.315   0.107
14415TIP3   OH243185   0.985   6.638   0.807
14415TIP3    H143186   0.958   6.630   0.716
14415TIP3    H243187   1.025   6.553   0.827
14416TIP3   OH243188   8.262   5.975   1.879
14416TIP3    H143189   8.340   6.025   1.852
14416TIP3    H243190   8.232   6.019   1.958
14417TIP3   OH243191   1.052   0.553   0.857
14417TIP3    H143192   1.038   0.477   0.914
14417TIP3    H243193   1.056   0.515   0.769
14418TIP3   OH243194   7.190   4.905   4.762
14418TIP3    H143195   7.114   4.924   4.817
14418TIP3    H243196   7.190   4.974   4.696
14419TIP3   OH243197   0.774   3.824   5.811
14419TIP3    H143198   0.814   3.869   5.737
14419TIP3    H243199   0.819   3.860   5.888
14420TIP3   OH243200   0.829   1.827   4.697
14420TIP3    H143201   0.880   1.862   4.770
14420TIP3    H243202   0.798   1.742   4.728
14421TIP3   OH243203   4.395   3.775   6.167
14421TIP3    H143204   4.339   3.703   6.138
14421TIP3    H243205   4.334   3.847   6.186
14422TIP3   OH243206   6.039   4.244   1.986
14422TIP3    H143207   5.964   4.201   1.946
14422TIP3    H243208   6.089   4.280   1.913
14423TIP3   OH243209   0.317   6.416   2.602
14423TIP3    H143210   0.355   6.501   2.579
14423TIP3    H243211   0.229   6.418   2.566
14424TIP3   OH243212   3.860   4.081   2.410
14424TIP3    H143213   3.898   4.031   2.482
14424TIP3    H243214   3.835   4.014   2.346
14425TIP3   OH243215   4.896   4.072   5.937
14425TIP3    H143216   4.828   4.101   5.876
14425TIP3    H243217   4.959   4.144   5.940
14426TIP3   OH243218   5.369   4.594   0.632
14426TIP3    H143219   5.325   4.585   0.547
14426TIP3    H243220   5.415   4.511   0.643
14427TIP3   OH243221   2.643   0.948   2.220
14427TIP3    H143222   2.610   0.892   2.150
14427TIP3    H243223   2.599   1.033   2.206
14428TIP3   OH243224   1.555   2.182   5.899
14428TIP3    H143225   1.489   2.112   5.903
14428TIP3    H243226   1.578   2.199   5.990
14429TIP3   OH243227   3.377   2.776   2.550
14429TIP3    H143228   3.285   2.749   2.552
14429TIP3    H243229   3.422   2.713   2.607
14430TIP3   OH243230   2.819   1.576   4.048
14430TIP3    H143231   2.794   1.668   4.051
14430TIP3    H243232   2.914   1.576   4.055
14431TIP3   OH243233   1.149   6.496   2.283
14431TIP3    H143234   1.066   6.544   2.286
14431TIP3    H243235   1.207   6.552   2.232
14432TIP3   OH243236   4.043   5.567   2.539
14432TIP3    H143237   3.964   5.513   2.540
14432TIP3    H243238   4.038   5.618   2.620
14433TIP3   OH243239   1.220   3.183   0.622
14433TIP3    H143240   1.137   3.136   0.634
14433TIP3    H243241   1.286   3.114   0.620
14434TIP3   OH243242   4.835   4.977   5.443
14434TIP3    H143243   4.762   5.038   5.453
14434TIP3    H243244   4.816   4.906   5.505
14435TIP3   OH243245   4.551   7.015   2.039
14435TIP3    H143246   4.492   7.080   2.076
14435TIP3    H243247   4.519   7.002   1.950
14436TIP3   OH243248   5.946   6.591   3.993
14436TIP3    H143249   5.858   6.600   3.956
14436TIP3    H243250   6.000   6.562   3.920
14437TIP3   OH243251   0.589   5.220   6.757
14437TIP3    H143252   0.503   5.212   6.798
14437TIP3    H243253   0.634   5.138   6.777
14438TIP3   OH243254   6.704   7.593   4.328
14438TIP3    H143255   6.789   7.580   4.286
14438TIP3    H243256   6.726   7.624   4.416
14439TIP3   OH243257   8.217   7.757   5.288
14439TIP3    H143258   8.198   7.739   5.380
14439TIP3    H243259   8.215   7.671   5.246
14440TIP3   OH243260   4.531   7.293   3.459
14440TIP3    H143261   4.557   7.323   3.372
14440TIP3    H243262   4.452   7.242   3.444
14441TIP3   OH243263   5.249   1.380   3.207
14441TIP3    H143264   5.279   1.311   3.149
14441TIP3    H243265   5.307   1.455   3.188
14442TIP3   OH243266   6.784   5.307   0.999
14442TIP3    H143267   6.778   5.307   1.094
14442TIP3    H243268   6.812   5.219   0.976
14443TIP3   OH243269   2.344   6.583   2.951
14443TIP3    H143270   2.432   6.616   2.934
14443TIP3    H243271   2.327   6.608   3.042
14444TIP3   OH243272   5.829   6.132   2.880
14444TIP3    H143273   5.898   6.070   2.902
14444TIP3    H243274   5.873   6.217   2.877
14445TIP3   OH243275   2.611   7.705   1.544
14445TIP3    H143276   2.654   7.744   1.468
14445TIP3    H243277   2.681   7.657   1.589
14446TIP3   OH243278   7.689   5.995   5.943
14446TIP3    H143279   7.715   6.009   6.034
14446TIP3    H243280   7.768   6.018   5.892
14447TIP3   OH243281   1.188   7.339   3.792
14447TIP3    H143282   1.176   7.423   3.746
14447TIP3    H243283   1.217   7.365   3.880
14448TIP3   OH243284   4.725   4.737   3.010
14448TIP3    H143285   4.722   4.646   3.040
14448TIP3    H243286   4.634   4.766   3.013
14449TIP3   OH243287   2.028   1.409   0.807
14449TIP3    H143288   2.094   1.409   0.876
14449TIP3    H243289   2.002   1.317   0.798
14450TIP3   OH243290   4.491   2.141   2.520
14450TIP3    H143291   4.446   2.090   2.588
14450TIP3    H243292   4.421   2.186   2.473
14451TIP3   OH243293   5.119   4.588   1.277
14451TIP3    H143294   5.054   4.589   1.347
14451TIP3    H243295   5.070   4.615   1.199
14452TIP3   OH243296   5.634   2.268   6.733
14452TIP3    H143297   5.598   2.254   6.820
14452TIP3    H243298   5.642   2.180   6.696
14453TIP3   OH243299   7.117   0.005   0.849
14453TIP3    H143300   7.177   0.078   0.861
14453TIP3    H243301   7.138  -0.055   0.920
14454TIP3   OH243302   0.226   3.008   2.373
14454TIP3    H143303   0.225   2.914   2.391
14454TIP3    H243304   0.133   3.033   2.373
14455TIP3   OH243305   5.897   2.727   4.668
14455TIP3    H143306   5.973   2.711   4.611
14455TIP3    H243307   5.879   2.820   4.658
14456TIP3   OH243308   1.100   6.567   5.420
14456TIP3    H143309   1.193   6.586   5.432
14456TIP3    H243310   1.062   6.651   5.395
14457TIP3   OH243311   1.909   5.733   4.516
14457TIP3    H143312   1.934   5.649   4.553
14457TIP3    H243313   1.848   5.771   4.580
14458TIP3   OH243314   2.027   2.028   1.846
14458TIP3    H143315   2.041   2.120   1.821
14458TIP3    H243316   2.003   2.031   1.938
14459TIP3   OH243317   3.731   6.811   2.634
14459TIP3    H143318   3.672   6.885   2.645
14459TIP3    H243319   3.818   6.851   2.622
14460TIP3   OH243320   0.551   1.606   2.152
14460TIP3    H143321   0.548   1.515   2.122
14460TIP3    H243322   0.515   1.603   2.241
14461TIP3   OH243323   7.741   4.380   2.659
14461TIP3    H143324   7.654   4.397   2.695
14461TIP3    H243325   7.796   4.361   2.735
14462TIP3   OH243326   0.864   2.357   2.677
14462TIP3    H143327   0.787   2.371   2.732
14462TIP3    H243328   0.835   2.296   2.610
14463TIP3   OH243329   5.813   3.334   0.730
14463TIP3    H143330   5.852   3.264   0.782
14463TIP3    H243331   5.888   3.380   0.692
14464TIP3   OH243332   1.952   5.714   0.060
14464TIP3    H143333   1.934   5.734   0.152
14464TIP3    H243334   1.898   5.638   0.040
14465TIP3   OH243335   3.475   6.440   0.659
14465TIP3    H143336   3.505   6.491   0.734
14465TIP3    H243337   3.527   6.472   0.586
14466TIP3   OH243338   1.085   1.214   2.432
14466TIP3    H143339   1.127   1.128   2.440
14466TIP3    H243340   0.996   1.201   2.465
14467TIP3   OH243341   5.562   3.355   2.270
14467TIP3    H143342   5.508   3.288   2.228
14467TIP3    H243343   5.499   3.418   2.305
14468TIP3   OH243344   4.015   0.736   0.897
14468TIP3    H143345   4.087   0.673   0.893
14468TIP3    H243346   3.951   0.702   0.834
14469TIP3   OH243347   2.328   3.715   0.864
14469TIP3    H143348   2.421   3.711   0.887
14469TIP3    H243349   2.322   3.669   0.780
14470TIP3   OH243350   3.222   2.843   0.458
14470TIP3    H143351   3.199   2.750   0.452
14470TIP3    H243352   3.277   2.849   0.536
14471TIP3   OH243353   1.369   5.072   2.385
14471TIP3    H143354   1.319   4.993   2.405
14471TIP3    H243355   1.456   5.055   2.420
14472TIP3   OH243356   8.344   3.451   5.262
14472TIP3    H143357   8.401   3.387   5.219
14472TIP3    H243358   8.375   3.454   5.352
14473TIP3   OH243359   7.571   4.345   6.172
14473TIP3    H143360   7.516   4.337   6.094
14473TIP3    H243361   7.629   4.419   6.153
14474TIP3   OH243362   2.642   0.026   5.063
14474TIP3    H143363   2.634  -0.051   5.119
14474TIP3    H243364   2.710   0.079   5.104
14475TIP3   OH243365   4.481   5.120   3.312
14475TIP3    H143366   4.562   5.075   3.338
14475TIP3    H243367   4.510   5.190   3.254
14476TIP3   OH243368   1.503   6.337   0.948
14476TIP3    H143369   1.496   6.397   0.873
14476TIP3    H243370   1.424   6.283   0.943
14477TIP3   OH243371   1.194   6.708   3.861
14477TIP3    H143372   1.151   6.786   3.827
14477TIP3    H243373   1.141   6.681   3.936
14478TIP3   OH243374   2.422   3.367   3.280
14478TIP3    H143375   2.411   3.413   3.197
14478TIP3    H243376   2.491   3.304   3.264
14479TIP3   OH243377   7.877   7.495   1.498
14479TIP3    H143378   7.912   7.560   1.437
14479TIP3    H243379   7.953   7.443   1.524
14480TIP3   OH243380   5.142   1.397   6.553
14480TIP3    H143381   5.151   1.352   6.637
14480TIP3    H243382   5.146   1.327   6.488
14481TIP3   OH243383   3.874   3.909   1.933
14481TIP3    H143384   3.886   3.902   2.028
14481TIP3    H243385   3.828   3.829   1.908
14482TIP3   OH243386   5.007   2.928   5.269
14482TIP3    H143387   5.080   2.990   5.260
14482TIP3    H243388   4.990   2.924   5.363
14483TIP3   OH243389   0.433   3.320   5.199
14483TIP3    H143390   0.387   3.367   5.268
14483TIP3    H243391   0.419   3.227   5.220
14484TIP3   OH243392   4.781   0.378   1.163
14484TIP3    H143393   4.689   0.373   1.135
14484TIP3    H243394   4.791   0.305   1.225
14485TIP3   OH243395   6.516   3.700   2.800
14485TIP3    H143396   6.513   3.739   2.713
14485TIP3    H243397   6.442   3.638   2.802
14486TIP3   OH243398   6.070   5.711   2.830
14486TIP3    H143399   6.079   5.631   2.777
14486TIP3    H243400   6.112   5.779   2.778
14487TIP3   OH243401   5.758   4.722   0.309
14487TIP3    H143402   5.708   4.761   0.238
14487TIP3    H243403   5.782   4.795   0.365
14488TIP3   OH243404   6.636   0.760   0.591
14488TIP3    H143405   6.725   0.774   0.557
14488TIP3    H243406   6.613   0.672   0.561
14489TIP3   OH243407   6.406   0.662   0.881
14489TIP3    H143408   6.496   0.694   0.888
14489TIP3    H243409   6.391   0.650   0.788
14490TIP3   OH243410   5.091   4.806   4.907
14490TIP3    H143411   5.149   4.863   4.857
14490TIP3    H243412   5.128   4.805   4.995
14491TIP3   OH243413   3.420   6.810   0.666
14491TIP3    H143414   3.440   6.785   0.757
14491TIP3    H243415   3.504   6.840   0.631
14492TIP3   OH243416   1.452   0.785   6.725
14492TIP3    H143417   1.369   0.827   6.703
14492TIP3    H243418   1.485   0.753   6.642
14493TIP3   OH243419   5.092   1.011   2.661
14493TIP3    H143420   5.025   1.067   2.701
14493TIP3    H243421   5.043   0.945   2.612
14494TIP3   OH243422   6.897   6.469   5.048
14494TIP3    H143423   6.846   6.546   5.023
14494TIP3    H243424   6.859   6.441   5.131
14495TIP3   OH243425   3.206   0.545   5.866
14495TIP3    H143426   3.296   0.535   5.836
14495TIP3    H243427   3.153   0.547   5.786
14496TIP3   OH243428   3.496   1.317   6.713
14496TIP3    H143429   3.541   1.285   6.792
14496TIP3    H243430   3.544   1.397   6.689
14497TIP3   OH243431   6.935   2.939   0.719
14497TIP3    H143432   6.894   2.890   0.647
14497TIP3    H243433   6.879   3.016   0.731
14498TIP3   OH243434   3.467   4.734   0.421
14498TIP3    H143435   3.504   4.647   0.439
14498TIP3    H243436   3.378   4.716   0.390
14499TIP3   OH243437   8.367   2.027   1.440
14499TIP3    H143438   8.452   2.060   1.469
14499TIP3    H243439   8.357   2.062   1.351
14500TIP3   OH243440   4.136   1.122   1.091
14500TIP3    H143441   4.051   1.095   1.057
14500TIP3    H243442   4.179   1.163   1.016
14501TIP3   OH243443   3.778   0.022   3.514
14501TIP3    H143444   3.708   0.085   3.532
14501TIP3    H243445   3.840   0.035   3.587
14502TIP3   OH243446   3.252   7.026   3.930
14502TIP3    H143447   3.339   7.052   3.960
14502TIP3    H243448   3.243   7.067   3.844
14503TIP3   OH243449   5.340   3.802   5.797
14503TIP3    H143450   5.435   3.801   5.779
14503TIP3    H243451   5.300   3.810   5.710
14504TIP3   OH243452   0.421   3.583   3.873
14504TIP3    H143453   0.499   3.589   3.818
14504TIP3    H243454   0.393   3.674   3.885
14505TIP3   OH243455   3.087   0.653   4.099
14505TIP3    H143456   3.113   0.598   4.172
14505TIP3    H243457   3.136   0.618   4.024
14506TIP3   OH243458   5.528   2.013   5.490
14506TIP3    H143459   5.455   2.075   5.485
14506TIP3    H243460   5.545   1.989   5.399
14507TIP3   OH243461   7.533   3.651   6.879
14507TIP3    H143462   7.628   3.664   6.882
14507TIP3    H243463   7.520   3.587   6.810
14508TIP3   OH243464   2.179   0.844   3.816
14508TIP3    H143465   2.235   0.812   3.745
14508TIP3    H243466   2.124   0.910   3.775
14509TIP3   OH243467   3.626   4.312   1.777
14509TIP3    H143468   3.600   4.403   1.786
14509TIP3    H243469   3.689   4.298   1.847
14510TIP3   OH243470   5.238   4.033   3.006
14510TIP3    H143471   5.187   4.090   2.949
14510TIP3    H243472   5.175   3.967   3.037
14511TIP3   OH243473   2.187   5.537   5.453
14511TIP3    H143474   2.191   5.461   5.395
14511TIP3    H243475   2.095   5.562   5.454
14512TIP3   OH243476   5.679   1.836   6.815
14512TIP3    H143477   5.620   1.896   6.770
14512TIP3    H243478   5.766   1.875   6.806
14513TIP3   OH243479   0.636   3.506   0.901
14513TIP3    H143480   0.728   3.494   0.878
14513TIP3    H243481   0.595   3.537   0.820
14514TIP3   OH243482   7.881   4.399   3.819
14514TIP3    H143483   7.845   4.453   3.749
14514TIP3    H243484   7.808   4.388   3.881
14515TIP3   OH243485   1.197   3.143   1.481
14515TIP3    H143486   1.289   3.168   1.487
14515TIP3    H243487   1.179   3.144   1.387
14516TIP3   OH243488   2.191   0.805   0.597
14516TIP3    H143489   2.279   0.815   0.632
14516TIP3    H243490   2.172   0.889   0.555
14517TIP3   OH243491   0.475   0.205   5.081
14517TIP3    H143492   0.495   0.116   5.107
14517TIP3    H243493   0.457   0.199   4.987
14518TIP3   OH243494   8.196   4.739   0.814
14518TIP3    H143495   8.231   4.817   0.858
14518TIP3    H243496   8.257   4.669   0.838
14519TIP3   OH243497   4.714   0.387   6.460
14519TIP3    H143498   4.632   0.363   6.504
14519TIP3    H243499   4.730   0.478   6.486
14520TIP3   OH243500   4.744   4.217   4.063
14520TIP3    H143501   4.675   4.228   3.997
14520TIP3    H243502   4.713   4.145   4.118
14521TIP3   OH243503   4.273   2.479   0.469
14521TIP3    H143504   4.355   2.507   0.429
14521TIP3    H243505   4.226   2.560   0.487
14522TIP3   OH243506   1.213   5.052   5.654
14522TIP3    H143507   1.170   5.137   5.657
14522TIP3    H243508   1.297   5.069   5.611
14523TIP3   OH243509   2.680   4.561   5.481
14523TIP3    H143510   2.595   4.545   5.441
14523TIP3    H243511   2.688   4.493   5.548
14524TIP3   OH243512   2.103   0.304   4.926
14524TIP3    H143513   2.117   0.364   4.853
14524TIP3    H243514   2.159   0.229   4.908
14525TIP3   OH243515   2.514   2.470   6.366
14525TIP3    H143516   2.532   2.443   6.456
14525TIP3    H243517   2.595   2.452   6.319
14526TIP3   OH243518   8.125   4.808   4.032
14526TIP3    H143519   8.125   4.902   4.012
14526TIP3    H243520   8.099   4.803   4.124
14527TIP3   OH243521   4.319   7.697   0.417
14527TIP3    H143522   4.336   7.763   0.484
14527TIP3    H243523   4.271   7.628   0.463
14528TIP3   OH243524   5.578   0.065   0.053
14528TIP3    H143525   5.662   0.044   0.012
14528TIP3    H243526   5.600   0.127   0.122
14529TIP3   OH243527   5.144   2.412   0.571
14529TIP3    H143528   5.111   2.493   0.531
14529TIP3    H243529   5.071   2.378   0.621
14530TIP3   OH243530   3.769   0.838   3.765
14530TIP3    H143531   3.679   0.850   3.732
14530TIP3    H243532   3.761   0.846   3.860
14531TIP3   OH243533   2.099   0.093   4.138
14531TIP3    H143534   2.034   0.062   4.201
14531TIP3    H243535   2.065   0.065   4.053
14532TIP3   OH243536   2.101   3.410   6.586
14532TIP3    H143537   2.011   3.435   6.607
14532TIP3    H243538   2.096   3.377   6.496
14533TIP3   OH243539   7.159   1.847   3.423
14533TIP3    H143540   7.104   1.882   3.353
14533TIP3    H243541   7.100   1.837   3.497
14534TIP3   OH243542   6.619   5.610   4.850
14534TIP3    H143543   6.642   5.675   4.784
14534TIP3    H243544   6.532   5.579   4.823
14535TIP3   OH243545   1.312   0.058   1.296
14535TIP3    H143546   1.342   0.141   1.334
14535TIP3    H243547   1.352   0.056   1.209
14536TIP3   OH243548   3.887   4.952   2.777
14536TIP3    H143549   3.810   4.910   2.739
14536TIP3    H243550   3.933   4.990   2.702
14537TIP3   OH243551   7.812   1.946   1.531
14537TIP3    H143552   7.870   1.983   1.464
14537TIP3    H243553   7.871   1.900   1.590
14538TIP3   OH243554   3.149   1.839   5.563
14538TIP3    H143555   3.131   1.897   5.489
14538TIP3    H243556   3.072   1.848   5.619
14539TIP3   OH243557   0.499   1.281   6.116
14539TIP3    H143558   0.414   1.266   6.075
14539TIP3    H243559   0.488   1.251   6.206
14540TIP3   OH243560   6.980   6.532   1.275
14540TIP3    H143561   7.065   6.504   1.308
14540TIP3    H243562   6.998   6.566   1.187
14541TIP3   OH243563   0.667   3.270   2.836
14541TIP3    H143564   0.647   3.179   2.861
14541TIP3    H243565   0.674   3.317   2.919
14542TIP3   OH243566   3.291   6.746   1.043
14542TIP3    H143567   3.255   6.659   1.060
14542TIP3    H243568   3.215   6.798   1.015
14543TIP3   OH243569   2.876   4.514   1.958
14543TIP3    H143570   2.914   4.484   1.876
14543TIP3    H243571   2.897   4.608   1.961
14544TIP3   OH243572   7.905   5.845   6.741
14544TIP3    H143573   7.971   5.871   6.677
14544TIP3    H243574   7.873   5.928   6.778
14545TIP3   OH243575   5.580   4.295   1.563
14545TIP3    H143576   5.510   4.325   1.505
14545TIP3    H243577   5.634   4.237   1.508
14546TIP3   OH243578   2.120   6.115   5.541
14546TIP3    H143579   2.132   6.042   5.481
14546TIP3    H243580   2.039   6.095   5.588
14547TIP3   OH243581   3.928   6.226   2.100
14547TIP3    H143582   3.998   6.232   2.034
14547TIP3    H243583   3.860   6.174   2.057
14548TIP3   OH243584   2.339   6.681   6.366
14548TIP3    H143585   2.342   6.647   6.277
14548TIP3    H243586   2.376   6.611   6.420
14549TIP3   OH243587   2.682   6.254   5.068
14549TIP3    H143588   2.599   6.229   5.026
14549TIP3    H243589   2.739   6.178   5.055
14550TIP3   OH243590   1.796   6.985   3.067
14550TIP3    H143591   1.725   6.995   3.131
14550TIP3    H243592   1.788   7.063   3.012
14551TIP3   OH243593   3.090   6.456   6.109
14551TIP3    H143594   3.127   6.544   6.118
14551TIP3    H243595   3.158   6.398   6.145
14552TIP3   OH243596   7.938   7.239   3.911
14552TIP3    H143597   7.999   7.208   3.844
14552TIP3    H243598   7.863   7.180   3.905
14553TIP3   OH243599   7.362   1.632   0.468
14553TIP3    H143600   7.344   1.556   0.524
14553TIP3    H243601   7.403   1.595   0.390
14554TIP3   OH243602   5.242   0.747   2.104
14554TIP3    H143603   5.205   0.661   2.085
14554TIP3    H243604   5.170   0.795   2.145
14555TIP3   OH243605   3.088   0.298   3.964
14555TIP3    H143606   3.043   0.276   4.046
14555TIP3    H243607   3.143   0.373   3.987
14556TIP3   OH243608   7.432   5.489   6.122
14556TIP3    H143609   7.506   5.498   6.182
14556TIP3    H243610   7.471   5.494   6.035
14557TIP3   OH243611   3.648   7.248   0.648
14557TIP3    H143612   3.723   7.191   0.629
14557TIP3    H243613   3.649   7.314   0.578
14558TIP3   OH243614   1.468   1.135   6.416
14558TIP3    H143615   1.479   1.112   6.324
14558TIP3    H243616   1.373   1.141   6.428
14559TIP3   OH243617   1.244   2.476   6.355
14559TIP3    H143618   1.221   2.486   6.263
14559TIP3    H243619   1.313   2.541   6.370
14560TIP3   OH243620   7.206   6.999   3.334
14560TIP3    H143621   7.168   6.932   3.278
14560TIP3    H243622   7.187   6.970   3.423
14561TIP3   OH243623   7.539   1.455   0.751
14561TIP3    H143624   7.585   1.533   0.784
14561TIP3    H243625   7.520   1.404   0.829
14562TIP3   OH243626   4.219   2.221   4.826
14562TIP3    H143627   4.288   2.262   4.775
14562TIP3    H243628   4.185   2.291   4.882
14563TIP3   OH243629   6.158   6.662   4.138
14563TIP3    H143630   6.087   6.650   4.075
14563TIP3    H243631   6.135   6.741   4.187
14564TIP3   OH243632   6.266   5.649   0.390
14564TIP3    H143633   6.305   5.730   0.356
14564TIP3    H243634   6.255   5.594   0.313
14565TIP3   OH243635   8.233   5.804   3.508
14565TIP3    H143636   8.282   5.774   3.432
14565TIP3    H243637   8.241   5.899   3.507
14566TIP3   OH243638   1.996   7.239   4.245
14566TIP3    H143639   2.028   7.291   4.319
14566TIP3    H243640   2.030   7.284   4.168
14567TIP3   OH243641   7.036   6.851   4.062
14567TIP3    H143642   7.019   6.848   4.156
14567TIP3    H243643   7.113   6.794   4.049
14568TIP3   OH243644   2.003   2.544   1.070
14568TIP3    H143645   1.911   2.567   1.057
14568TIP3    H243646   2.025   2.488   0.996
14569TIP3   OH243647   4.075   0.489   4.479
14569TIP3    H143648   4.053   0.415   4.424
14569TIP3    H243649   4.069   0.456   4.569
14570TIP3   OH243650   3.549   2.286   6.784
14570TIP3    H143651   3.632   2.329   6.804
14570TIP3    H243652   3.567   2.234   6.706
14571TIP3   OH243653   6.616   4.922   5.869
14571TIP3    H143654   6.617   4.995   5.931
14571TIP3    H243655   6.662   4.851   5.914
14572TIP3   OH243656   7.072   7.687   2.234
14572TIP3    H143657   7.025   7.675   2.151
14572TIP3    H243658   7.163   7.666   2.213
14573TIP3   OH243659   1.762   5.873   4.725
14573TIP3    H143660   1.781   5.950   4.671
14573TIP3    H243661   1.780   5.902   4.815
14574TIP3   OH243662   5.795   6.542   3.081
14574TIP3    H143663   5.716   6.550   3.028
14574TIP3    H243664   5.814   6.631   3.111
14575TIP3   OH243665   6.984   0.671   1.350
14575TIP3    H143666   7.029   0.604   1.399
14575TIP3    H243667   7.052   0.715   1.299
14576TIP3   OH243668   6.860   4.132   6.883
14576TIP3    H143669   6.778   4.085   6.869
14576TIP3    H243670   6.912   4.113   6.804
14577TIP3   OH243671   3.301   3.518   4.122
14577TIP3    H143672   3.388   3.548   4.094
14577TIP3    H243673   3.309   3.507   4.216
14578TIP3   OH243674   5.802   1.804   2.590
14578TIP3    H143675   5.829   1.713   2.593
14578TIP3    H243676   5.710   1.801   2.562
14579TIP3   OH243677   7.512   5.756   6.727
14579TIP3    H143678   7.543   5.837   6.768
14579TIP3    H243679   7.427   5.780   6.690
14580TIP3   OH243680   0.488   2.336   3.750
14580TIP3    H143681   0.522   2.359   3.664
14580TIP3    H243682   0.516   2.246   3.764
14581TIP3   OH243683   0.930   2.100   3.911
14581TIP3    H143684   0.986   2.052   3.972
14581TIP3    H243685   0.982   2.178   3.888
14582TIP3   OH243686   1.078   1.197   3.694
14582TIP3    H143687   1.144   1.141   3.735
14582TIP3    H243688   1.086   1.281   3.740
14583TIP3   OH243689   8.357   5.544   0.454
14583TIP3    H143690   8.436   5.489   0.457
14583TIP3    H243691   8.390   5.631   0.434
14584TIP3   OH243692   6.075   3.302   2.568
14584TIP3    H143693   6.012   3.231   2.556
14584TIP3    H243694   6.030   3.365   2.625
14585TIP3   OH243695   1.259   2.901   3.476
14585TIP3    H143696   1.208   2.947   3.409
14585TIP3    H243697   1.218   2.814   3.482
14586TIP3   OH243698   2.865   6.738   4.144
14586TIP3    H143699   2.915   6.698   4.216
14586TIP3    H243700   2.929   6.793   4.099
14587TIP3   OH243701   3.068   5.633   6.216
14587TIP3    H143702   3.117   5.708   6.184
14587TIP3    H243703   2.993   5.626   6.157
14588TIP3   OH243704   5.741   7.134   3.331
14588TIP3    H143705   5.795   7.212   3.346
14588TIP3    H243706   5.652   7.168   3.325
14589TIP3   OH243707   5.537   4.416   4.882
14589TIP3    H143708   5.515   4.502   4.919
14589TIP3    H243709   5.601   4.435   4.813
14590TIP3   OH243710   5.266   6.369   6.674
14590TIP3    H143711   5.349   6.404   6.642
14590TIP3    H243712   5.232   6.318   6.600
14591TIP3   OH243713   3.633   6.602   3.760
14591TIP3    H143714   3.554   6.549   3.768
14591TIP3    H243715   3.664   6.587   3.671
14592TIP3   OH243716   3.706   1.232   4.457
14592TIP3    H143717   3.654   1.154   4.475
14592TIP3    H243718   3.792   1.198   4.431
14593TIP3   OH243719   5.898   3.203   5.165
14593TIP3    H143720   5.957   3.270   5.201
14593TIP3    H243721   5.883   3.143   5.238
14594TIP3   OH243722   6.927   1.025   1.533
14594TIP3    H143723   6.881   0.944   1.509
14594TIP3    H243724   6.902   1.040   1.624
14595TIP3   OH243725   2.806   6.121   0.874
14595TIP3    H143726   2.817   6.213   0.852
14595TIP3    H243727   2.775   6.080   0.793
14596TIP3   OH243728   2.954   1.976   2.906
14596TIP3    H143729   2.993   2.042   2.848
14596TIP3    H243730   2.902   1.921   2.847
14597TIP3   OH243731   3.196   4.506   6.242
14597TIP3    H143732   3.121   4.449   6.262
14597TIP3    H243733   3.193   4.574   6.309
14598TIP3   OH243734   6.582   0.570   6.054
14598TIP3    H143735   6.651   0.635   6.048
14598TIP3    H243736   6.523   0.591   5.982
14599TIP3   OH243737   7.283   1.543   1.249
14599TIP3    H143738   7.366   1.566   1.207
14599TIP3    H243739   7.292   1.450   1.270
14600TIP3   OH243740   4.182   2.680   2.668
14600TIP3    H143741   4.151   2.593   2.693
14600TIP3    H243742   4.275   2.680   2.691
14601TIP3   OH243743   4.675   0.193   0.877
14601TIP3    H143744   4.678   0.145   0.960
14601TIP3    H243745   4.593   0.243   0.881
14602TIP3   OH243746   1.413   5.218   3.495
14602TIP3    H143747   1.476   5.210   3.423
14602TIP3    H243748   1.362   5.296   3.474
14603TIP3   OH243749   3.388   4.220   6.700
14603TIP3    H143750   3.395   4.262   6.614
14603TIP3    H243751   3.296   4.194   6.707
14604TIP3   OH243752   4.826   0.820   1.246
14604TIP3    H143753   4.883   0.775   1.308
14604TIP3    H243754   4.842   0.913   1.261
14605TIP3   OH243755   1.989   5.569   2.545
14605TIP3    H143756   1.982   5.661   2.570
14605TIP3    H243757   1.907   5.530   2.576
14606TIP3   OH243758   4.246   3.975   2.786
14606TIP3    H143759   4.241   4.065   2.754
14606TIP3    H243760   4.305   3.979   2.861
14607TIP3   OH243761   2.862   0.402   2.594
14607TIP3    H143762   2.822   0.390   2.508
14607TIP3    H243763   2.951   0.431   2.575
14608TIP3   OH243764   1.202   3.243   3.506
14608TIP3    H143765   1.115   3.264   3.541
14608TIP3    H243766   1.190   3.158   3.463
14609TIP3   OH243767   5.674   2.732   1.319
14609TIP3    H143768   5.710   2.819   1.302
14609TIP3    H243769   5.696   2.714   1.410
14610TIP3   OH243770   0.538   1.104   4.848
14610TIP3    H143771   0.455   1.135   4.884
14610TIP3    H243772   0.515   1.030   4.792
14611TIP3   OH243773   1.952   6.049   3.863
14611TIP3    H143774   1.999   6.129   3.885
14611TIP3    H243775   1.861   6.066   3.886
14612TIP3   OH243776   4.565   7.491   5.606
14612TIP3    H143777   4.626   7.538   5.662
14612TIP3    H243778   4.482   7.492   5.654
14613TIP3   OH243779   3.469   7.811   6.231
14613TIP3    H143780   3.479   7.810   6.136
14613TIP3    H243781   3.492   7.722   6.258
14614TIP3   OH243782   3.919   4.383   2.627
14614TIP3    H143783   3.914   4.314   2.561
14614TIP3    H243784   3.840   4.436   2.612
14615TIP3   OH243785   5.257   3.334   6.833
14615TIP3    H143786   5.184   3.373   6.784
14615TIP3    H243787   5.232   3.242   6.842
14616TIP3   OH243788   7.726   4.220   0.097
14616TIP3    H143789   7.808   4.218   0.048
14616TIP3    H243790   7.669   4.276   0.044
14617TIP3   OH243791   7.601   2.298   3.268
14617TIP3    H143792   7.645   2.236   3.209
14617TIP3    H243793   7.673   2.352   3.303
14618TIP3   OH243794   2.161   4.878   4.611
14618TIP3    H143795   2.157   4.906   4.520
14618TIP3    H243796   2.161   4.783   4.608
14619TIP3   OH243797   5.083   4.138   4.848
14619TIP3    H143798   5.065   4.097   4.933
14619TIP3    H243799   4.998   4.137   4.804
14620TIP3   OH243800   6.610   3.496   6.132
14620TIP3    H143801   6.654   3.445   6.200
14620TIP3    H243802   6.556   3.432   6.085
14621TIP3   OH243803   6.484   1.505   2.428
14621TIP3    H143804   6.417   1.535   2.367
14621TIP3    H243805   6.562   1.492   2.374
14622TIP3   OH243806   2.004   0.333   1.147
14622TIP3    H143807   2.069   0.354   1.214
14622TIP3    H243808   1.935   0.287   1.194
14623TIP3   OH243809   5.883   4.137   2.680
14623TIP3    H143810   5.815   4.185   2.633
14623TIP3    H243811   5.965   4.183   2.658
14624TIP3   OH243812   4.343   0.265   4.754
14624TIP3    H143813   4.325   0.231   4.666
14624TIP3    H243814   4.332   0.190   4.811
14625TIP3   OH243815   7.315   2.504   5.381
14625TIP3    H143816   7.381   2.569   5.404
14625TIP3    H243817   7.267   2.542   5.307
14626TIP3   OH243818   0.511   0.094   5.973
14626TIP3    H143819   0.521   0.185   5.945
14626TIP3    H243820   0.548   0.092   6.061
14627TIP3   OH243821   6.488   3.243   2.807
14627TIP3    H143822   6.418   3.239   2.872
14627TIP3    H243823   6.559   3.289   2.852
14628TIP3   OH243824   2.122   7.914   4.652
14628TIP3    H143825   2.092   7.906   4.562
14628TIP3    H243826   2.041   7.915   4.704
14629TIP3   OH243827   4.970   3.492   1.825
14629TIP3    H143828   5.045   3.491   1.765
14629TIP3    H243829   4.929   3.407   1.813
14630TIP3   OH243830   2.274   2.312   1.370
14630TIP3    H143831   2.205   2.261   1.414
14630TIP3    H243832   2.356   2.277   1.405
14631TIP3   OH243833   7.356   5.016   3.357
14631TIP3    H143834   7.353   4.928   3.393
14631TIP3    H243835   7.347   5.004   3.262
14632TIP3   OH243836   5.226   5.249   6.007
14632TIP3    H143837   5.275   5.267   6.088
14632TIP3    H243838   5.273   5.175   5.967
14633TIP3   OH243839   6.683   2.832   3.666
14633TIP3    H143840   6.626   2.909   3.678
14633TIP3    H243841   6.754   2.864   3.611
14634TIP3   OH243842   7.954   7.109   1.415
14634TIP3    H143843   7.973   7.165   1.490
14634TIP3    H243844   8.002   7.028   1.432
14635TIP3   OH243845   1.976   3.039   6.167
14635TIP3    H143846   2.042   3.030   6.235
14635TIP3    H243847   2.020   3.088   6.097
14636TIP3   OH243848   3.083   3.750   2.576
14636TIP3    H143849   3.118   3.681   2.520
14636TIP3    H243850   3.120   3.732   2.662
14637TIP3   OH243851   3.645   1.136   3.379
14637TIP3    H143852   3.652   1.068   3.312
14637TIP3    H243853   3.693   1.101   3.454
14638TIP3   OH243854   0.169   1.978   4.525
14638TIP3    H143855   0.181   1.891   4.488
14638TIP3    H243856   0.140   1.963   4.615
14639TIP3   OH243857   5.866   2.548   6.533
14639TIP3    H143858   5.812   2.470   6.517
14639TIP3    H243859   5.934   2.543   6.467
14640TIP3   OH243860   5.269   6.372   1.457
14640TIP3    H143861   5.347   6.322   1.432
14640TIP3    H243862   5.206   6.354   1.387
14641TIP3   OH243863   4.178   5.067   5.996
14641TIP3    H143864   4.174   4.972   5.982
14641TIP3    H243865   4.138   5.104   5.917
14642TIP3   OH243866   7.636   0.913   4.330
14642TIP3    H143867   7.685   0.894   4.250
14642TIP3    H243868   7.645   1.008   4.341
14643TIP3   OH243869   7.329   2.169   2.540
14643TIP3    H143870   7.273   2.226   2.487
14643TIP3    H243871   7.404   2.223   2.562
14644TIP3   OH243872   1.061   2.767   5.749
14644TIP3    H143873   1.011   2.698   5.704
14644TIP3    H243874   1.001   2.799   5.817
14645TIP3   OH243875   2.303   4.935   2.934
14645TIP3    H143876   2.279   4.875   2.863
14645TIP3    H243877   2.395   4.915   2.952
14646TIP3   OH243878   0.070   3.084   4.938
14646TIP3    H143879   0.074   3.150   4.870
14646TIP3    H243880   0.128   3.014   4.907
14647TIP3   OH243881   0.649   7.067   6.408
14647TIP3    H143882   0.736   7.040   6.378
14647TIP3    H243883   0.613   6.988   6.449
14648TIP3   OH243884   2.777   1.935   0.242
14648TIP3    H143885   2.749   1.854   0.198
14648TIP3    H243886   2.821   1.906   0.321
14649TIP3   OH243887   8.201   1.028   2.507
14649TIP3    H143888   8.212   0.935   2.488
14649TIP3    H243889   8.201   1.033   2.602
14650TIP3   OH243890   8.149   6.478   2.630
14650TIP3    H143891   8.157   6.545   2.698
14650TIP3    H243892   8.231   6.484   2.581
14651TIP3   OH243893   5.579   2.271   2.662
14651TIP3    H143894   5.627   2.301   2.740
14651TIP3    H243895   5.546   2.185   2.686
14652TIP3   OH243896   1.806   2.572   3.370
14652TIP3    H143897   1.876   2.508   3.356
14652TIP3    H243898   1.752   2.533   3.438
14653TIP3   OH243899   0.392   2.973   3.979
14653TIP3    H143900   0.361   3.053   4.022
14653TIP3    H243901   0.395   2.908   4.049
14654TIP3   OH243902   2.115   0.803   5.604
14654TIP3    H143903   2.148   0.817   5.515
14654TIP3    H243904   2.186   0.757   5.648
14655TIP3   OH243905   6.537   0.432   1.872
14655TIP3    H143906   6.511   0.407   1.960
14655TIP3    H243907   6.633   0.434   1.875
14656TIP3   OH243908   2.767   5.689   0.429
14656TIP3    H143909   2.718   5.771   0.431
14656TIP3    H243910   2.854   5.714   0.396
14657TIP3   OH243911   1.836   0.425   4.618
14657TIP3    H143912   1.922   0.430   4.658
14657TIP3    H243913   1.852   0.439   4.524
14658TIP3   OH243914   2.877   5.140   2.284
14658TIP3    H143915   2.836   5.083   2.220
14658TIP3    H243916   2.963   5.103   2.298
14659TIP3   OH243917   3.405   5.434   2.917
14659TIP3    H143918   3.463   5.361   2.896
14659TIP3    H243919   3.413   5.494   2.843
14660TIP3   OH243920   0.012   0.360   2.030
14660TIP3    H143921   0.041   0.269   2.038
14660TIP3    H243922  -0.024   0.366   1.941
14661TIP3   OH243923   3.859   2.343   0.605
14661TIP3    H143924   3.937   2.309   0.561
14661TIP3    H243925   3.821   2.266   0.649
14662TIP3   OH243926   5.697   3.296   3.956
14662TIP3    H143927   5.792   3.299   3.951
14662TIP3    H243928   5.678   3.232   4.024
14663TIP3   OH243929   7.371   7.902   6.177
14663TIP3    H143930   7.420   7.983   6.166
14663TIP3    H243931   7.347   7.876   6.088
14664TIP3   OH243932   5.918   0.730   2.688
14664TIP3    H143933   5.986   0.749   2.752
14664TIP3    H243934   5.866   0.661   2.728
14665TIP3   OH243935   3.363   3.382   1.001
14665TIP3    H143936   3.426   3.312   1.015
14665TIP3    H243937   3.405   3.441   0.939
14666TIP3   OH243938   3.772   5.200   5.748
14666TIP3    H143939   3.746   5.269   5.686
14666TIP3    H243940   3.781   5.246   5.832
14667TIP3   OH243941   0.959   4.665   3.277
14667TIP3    H143942   0.988   4.586   3.230
14667TIP3    H243943   0.877   4.639   3.319
14668TIP3   OH243944   1.153   3.091   2.209
14668TIP3    H143945   1.109   3.172   2.183
14668TIP3    H243946   1.113   3.067   2.293
14669TIP3   OH243947   0.608   6.372   3.254
14669TIP3    H143948   0.537   6.308   3.265
14669TIP3    H243949   0.567   6.446   3.209
14670TIP3   OH243950   4.043   5.786   6.743
14670TIP3    H143951   3.994   5.841   6.804
14670TIP3    H243952   4.102   5.846   6.698
14671TIP3   OH243953   4.440   7.505   0.262
14671TIP3    H143954   4.373   7.441   0.287
14671TIP3    H243955   4.428   7.577   0.324
14672TIP3   OH243956   6.305   3.196   6.099
14672TIP3    H143957   6.297   3.108   6.061
14672TIP3    H243958   6.366   3.241   6.042
14673TIP3   OH243959   5.781   1.588   4.270
14673TIP3    H143960   5.837   1.633   4.206
14673TIP3    H243961   5.694   1.625   4.254
14674TIP3   OH243962   3.608   5.491   4.472
14674TIP3    H143963   3.681   5.436   4.446
14674TIP3    H243964   3.609   5.489   4.568
14675TIP3   OH243965   7.037   7.389   0.994
14675TIP3    H143966   7.119   7.345   0.971
14675TIP3    H243967   6.982   7.380   0.917
14676TIP3   OH243968   3.980   4.436   1.763
14676TIP3    H143969   3.981   4.461   1.855
14676TIP3    H243970   3.965   4.341   1.765
14677TIP3   OH243971   0.068   3.473   5.527
14677TIP3    H143972   0.088   3.436   5.613
14677TIP3    H243973   0.094   3.565   5.534
14678TIP3   OH243974   7.549   2.653   5.035
14678TIP3    H143975   7.493   2.580   5.008
14678TIP3    H243976   7.501   2.695   5.106
14679TIP3   OH243977   0.039   1.339   3.313
14679TIP3    H143978   0.107   1.272   3.317
14679TIP3    H243979   0.023   1.363   3.404
14680TIP3   OH243980   5.801   1.597   6.053
14680TIP3    H143981   5.893   1.600   6.027
14680TIP3    H243982   5.757   1.548   5.983
14681TIP3   OH243983   7.491   0.555   1.453
14681TIP3    H143984   7.551   0.556   1.377
14681TIP3    H243985   7.407   0.528   1.416
14682TIP3   OH243986   3.827   7.911   3.790
14682TIP3    H143987   3.788   7.843   3.846
14682TIP3    H243988   3.810   7.993   3.838
14683TIP3   OH243989   4.573   1.258   0.252
14683TIP3    H143990   4.612   1.173   0.271
14683TIP3    H243991   4.627   1.293   0.181
14684TIP3   OH243992   1.414   7.333   5.998
14684TIP3    H143993   1.479   7.395   5.965
14684TIP3    H243994   1.457   7.291   6.073
14685TIP3   OH243995   4.122   0.796   4.868
14685TIP3    H143996   4.217   0.790   4.873
14685TIP3    H243997   4.105   0.837   4.783
14686TIP3   OH243998   4.682   6.756   2.000
14686TIP3    H143999   4.646   6.844   1.993
14686TIP3    H244000   4.648   6.710   1.924
14687TIP3   OH244001   6.984   0.357   5.301
14687TIP3    H144002   6.949   0.446   5.304
14687TIP3    H244003   7.003   0.342   5.209
14688TIP3   OH244004   6.586   2.872   4.891
14688TIP3    H144005   6.538   2.905   4.815
14688TIP3    H244006   6.606   2.950   4.943
14689TIP3   OH244007   0.564   6.963   0.382
14689TIP3    H144008   0.641   7.007   0.418
14689TIP3    H244009   0.508   6.946   0.457
14690TIP3   OH244010   7.664   4.092   0.618
14690TIP3    H144011   7.693   4.115   0.706
14690TIP3    H244012   7.660   4.176   0.572
14691TIP3   OH244013   3.913   1.192   0.425
14691TIP3    H144014   3.967   1.122   0.389
14691TIP3    H244015   3.912   1.175   0.520
14692TIP3   OH244016   4.391   4.292   5.714
14692TIP3    H144017   4.396   4.388   5.712
14692TIP3    H244018   4.311   4.274   5.764
14693TIP3   OH244019   1.874   5.249   1.875
14693TIP3    H144020   1.792   5.234   1.922
14693TIP3    H244021   1.942   5.238   1.942
14694TIP3   OH244022   1.727   0.832   6.496
14694TIP3    H144023   1.667   0.762   6.472
14694TIP3    H244024   1.782   0.844   6.419
14695TIP3   OH244025   0.016   5.691   1.637
14695TIP3    H144026   0.048   5.662   1.723
14695TIP3    H244027   0.087   5.746   1.603
14696TIP3   OH244028   4.324   4.976   4.469
14696TIP3    H144029   4.357   4.932   4.391
14696TIP3    H244030   4.329   5.069   4.448
14697TIP3   OH244031   6.682   5.134   2.015
14697TIP3    H144032   6.617   5.087   1.963
14697TIP3    H244033   6.760   5.080   2.011
14698TIP3   OH244034   7.338   6.458   2.195
14698TIP3    H144035   7.312   6.549   2.208
14698TIP3    H244036   7.267   6.419   2.145
14699TIP3   OH244037   7.007   6.634   3.333
14699TIP3    H144038   6.967   6.692   3.398
14699TIP3    H244039   7.050   6.693   3.271
14700TIP3   OH244040   7.221   0.309   3.703
14700TIP3    H144041   7.270   0.265   3.633
14700TIP3    H244042   7.165   0.371   3.656
14701TIP3   OH244043   1.975   5.143   4.166
14701TIP3    H144044   2.032   5.073   4.135
14701TIP3    H244045   1.887   5.105   4.164
14702TIP3   OH244046   4.272   3.379   1.927
14702TIP3    H144047   4.268   3.293   1.969
14702TIP3    H244048   4.279   3.441   2.000
14703TIP3   OH244049   3.225   1.911   4.998
14703TIP3    H144050   3.244   1.905   5.091
14703TIP3    H244051   3.195   2.002   4.986
14704TIP3   OH244052   6.839   7.138   1.439
14704TIP3    H144053   6.795   7.223   1.435
14704TIP3    H244054   6.781   7.084   1.493
14705TIP3   OH244055   2.988   6.903   6.550
14705TIP3    H144056   3.050   6.968   6.583
14705TIP3    H244057   2.913   6.954   6.519
14706TIP3   OH244058   3.489   2.076   6.013
14706TIP3    H144059   3.574   2.070   6.057
14706TIP3    H244060   3.509   2.069   5.920
14707TIP3   OH244061   5.722   6.401   5.477
14707TIP3    H144062   5.730   6.408   5.573
14707TIP3    H244063   5.634   6.369   5.463
14708TIP3   OH244064   6.524   7.412   0.313
14708TIP3    H144065   6.431   7.423   0.335
14708TIP3    H244066   6.557   7.350   0.379
14709TIP3   OH244067   0.192   1.535   4.499
14709TIP3    H144068   0.258   1.576   4.555
14709TIP3    H244069   0.235   1.458   4.462
14710TIP3   OH244070   5.371   4.754   4.295
14710TIP3    H144071   5.304   4.687   4.307
14710TIP3    H244072   5.337   4.830   4.343
14711TIP3   OH244073   8.034   3.271   0.890
14711TIP3    H144074   8.051   3.244   0.980
14711TIP3    H244075   8.056   3.364   0.888
14712TIP3   OH244076   4.571   0.065   0.182
14712TIP3    H144077   4.511   0.110   0.241
14712TIP3    H244078   4.642   0.128   0.168
14713TIP3   OH244079   4.006   3.487   4.447
14713TIP3    H144080   4.021   3.499   4.353
14713TIP3    H244081   3.930   3.429   4.452
14714TIP3   OH244082   4.175   7.287   1.684
14714TIP3    H144083   4.221   7.251   1.607
14714TIP3    H244084   4.093   7.237   1.687
14715TIP3   OH244085   3.109   3.707   4.964
14715TIP3    H144086   3.162   3.726   4.886
14715TIP3    H244087   3.170   3.717   5.037
14716TIP3   OH244088   7.532   2.862   1.975
14716TIP3    H144089   7.458   2.909   1.938
14716TIP3    H244090   7.528   2.881   2.069
14717TIP3   OH244091   5.739   3.250   2.566
14717TIP3    H144092   5.738   3.271   2.473
14717TIP3    H244093   5.786   3.166   2.571
14718TIP3   OH244094   5.346   2.133   0.541
14718TIP3    H144095   5.272   2.156   0.597
14718TIP3    H244096   5.416   2.191   0.569
14719TIP3   OH244097   5.870   7.299   5.605
14719TIP3    H144098   5.923   7.284   5.527
14719TIP3    H244099   5.806   7.228   5.605
14720TIP3   OH244100   2.617   3.193   2.885
14720TIP3    H144101   2.648   3.102   2.888
14720TIP3    H244102   2.530   3.187   2.845
14721TIP3   OH244103   6.111   6.352   3.248
14721TIP3    H144104   6.176   6.348   3.318
14721TIP3    H244105   6.154   6.313   3.172
14722TIP3   OH244106   0.939   3.289   5.538
14722TIP3    H144107   1.008   3.240   5.582
14722TIP3    H244108   0.954   3.380   5.564
14723TIP3   OH244109   4.843   0.364   0.710
14723TIP3    H144110   4.858   0.333   0.621
14723TIP3    H244111   4.781   0.301   0.747
14724TIP3   OH244112   1.786   3.716   3.380
14724TIP3    H144113   1.707   3.725   3.327
14724TIP3    H244114   1.782   3.626   3.412
14725TIP3   OH244115   4.414   5.150   0.044
14725TIP3    H144116   4.374   5.215   0.101
14725TIP3    H244117   4.363   5.070   0.058
14726TIP3   OH244118   3.913   6.335   4.304
14726TIP3    H144119   3.859   6.334   4.383
14726TIP3    H244120   3.945   6.425   4.299
14727TIP3   OH244121   5.163   7.169   0.711
14727TIP3    H144122   5.241   7.163   0.655
14727TIP3    H244123   5.091   7.182   0.649
14728TIP3   OH244124   3.905   4.429   1.487
14728TIP3    H144125   3.986   4.379   1.478
14728TIP3    H244126   3.889   4.432   1.581
14729TIP3   OH244127   7.124   4.423   5.061
14729TIP3    H144128   7.173   4.341   5.051
14729TIP3    H244129   7.158   4.461   5.142
14730TIP3   OH244130   3.385   0.942   3.246
14730TIP3    H144131   3.476   0.973   3.249
14730TIP3    H244132   3.368   0.929   3.153
14731TIP3   OH244133   7.856   5.765   1.974
14731TIP3    H144134   7.928   5.804   1.925
14731TIP3    H244135   7.886   5.676   1.994
14732TIP3   OH244136   1.615   6.359   6.838
14732TIP3    H144137   1.656   6.331   6.920
14732TIP3    H244138   1.663   6.311   6.770
14733TIP3   OH244139   3.938   7.494   5.789
14733TIP3    H144140   3.872   7.441   5.745
14733TIP3    H244141   3.997   7.429   5.830
14734TIP3   OH244142   1.955   0.422   5.131
14734TIP3    H144143   1.963   0.511   5.096
14734TIP3    H244144   2.022   0.373   5.085
14735TIP3   OH244145   6.839   2.501   4.319
14735TIP3    H144146   6.749   2.500   4.351
14735TIP3    H244147   6.892   2.492   4.398
14736TIP3   OH244148   6.705   2.478   5.931
14736TIP3    H144149   6.722   2.505   6.021
14736TIP3    H244150   6.652   2.550   5.894
14737TIP3   OH244151   1.801   7.532   1.857
14737TIP3    H144152   1.730   7.581   1.815
14737TIP3    H244153   1.803   7.449   1.810
14738TIP3   OH244154   3.947   2.268   4.915
14738TIP3    H144155   3.902   2.242   4.834
14738TIP3    H244156   3.884   2.248   4.984
14739TIP3   OH244157   0.093   7.882   0.259
14739TIP3    H144158   0.181   7.852   0.239
14739TIP3    H244159   0.054   7.810   0.308
14740TIP3   OH244160   3.504   1.768   6.765
14740TIP3    H144161   3.529   1.850   6.807
14740TIP3    H244162   3.567   1.704   6.797
14741TIP3   OH244163   8.274   2.569   1.396
14741TIP3    H144164   8.296   2.505   1.464
14741TIP3    H244165   8.356   2.581   1.348
14742TIP3   OH244166   4.472   3.207   2.058
14742TIP3    H144167   4.514   3.290   2.080
14742TIP3    H244168   4.432   3.178   2.140
14743TIP3   OH244169   3.131   0.044   6.199
14743TIP3    H144170   3.173   0.085   6.274
14743TIP3    H244171   3.072   0.112   6.164
14744TIP3   OH244172   0.580   2.414   3.502
14744TIP3    H144173   0.615   2.342   3.450
14744TIP3    H244174   0.604   2.493   3.453
14745TIP3   OH244175   7.500   5.954   5.232
14745TIP3    H144176   7.450   5.974   5.311
14745TIP3    H244177   7.440   5.976   5.160
14746TIP3   OH244178   6.706   0.704   0.854
14746TIP3    H144179   6.696   0.740   0.766
14746TIP3    H244180   6.692   0.610   0.843
14747TIP3   OH244181   3.549   0.359   0.109
14747TIP3    H144182   3.539   0.448   0.145
14747TIP3    H244183   3.460   0.332   0.086
14748TIP3   OH244184   0.305   4.682   4.638
14748TIP3    H144185   0.320   4.761   4.691
14748TIP3    H244186   0.231   4.704   4.583
14749TIP3   OH244187   3.238   5.113   1.552
14749TIP3    H144188   3.222   5.110   1.458
14749TIP3    H244189   3.159   5.151   1.589
14750TIP3   OH244190   5.560   7.933   1.716
14750TIP3    H144191   5.596   7.914   1.630
14750TIP3    H244192   5.624   7.897   1.778
14751TIP3   OH244193   6.711   4.993   2.862
14751TIP3    H144194   6.650   4.983   2.789
14751TIP3    H244195   6.780   5.050   2.829
14752TIP3   OH244196   1.717   0.425   1.855
14752TIP3    H144197   1.778   0.370   1.805
14752TIP3    H244198   1.658   0.362   1.897
14753TIP3   OH244199   1.481   1.707   3.642
14753TIP3    H144200   1.537   1.738   3.714
14753TIP3    H244201   1.400   1.758   3.651
14754TIP3   OH244202   3.737   2.846   2.468
14754TIP3    H144203   3.818   2.798   2.449
14754TIP3    H244204   3.733   2.912   2.399
14755TIP3   OH244205   6.177   5.122   3.750
14755TIP3    H144206   6.123   5.194   3.715
14755TIP3    H244207   6.188   5.143   3.842
14756TIP3   OH244208   6.545   5.112   4.106
14756TIP3    H144209   6.512   5.178   4.167
14756TIP3    H244210   6.627   5.081   4.145
14757TIP3   OH244211   6.987   6.469   4.103
14757TIP3    H144212   6.977   6.377   4.077
14757TIP3    H244213   7.009   6.514   4.021
14758TIP3   OH244214   2.434   7.887   5.398
14758TIP3    H144215   2.369   7.850   5.339
14758TIP3    H244216   2.383   7.933   5.465
14759TIP3   OH244217   8.265   0.139   6.576
14759TIP3    H144218   8.287   0.213   6.632
14759TIP3    H244219   8.183   0.105   6.612
14760TIP3   OH244220   2.249   6.899   4.820
14760TIP3    H144221   2.299   6.979   4.834
14760TIP3    H244222   2.306   6.830   4.854
14761TIP3   OH244223   4.901   5.892   3.058
14761TIP3    H144224   4.960   5.818   3.047
14761TIP3    H244225   4.941   5.963   3.008
14762TIP3   OH244226   2.058   3.286   6.852
14762TIP3    H144227   2.061   3.328   6.767
14762TIP3    H244228   1.967   3.296   6.881
14763TIP3   OH244229   6.835   2.996   0.344
14763TIP3    H144230   6.756   2.945   0.360
14763TIP3    H244231   6.818   3.081   0.383
14764TIP3   OH244232   1.581   3.633   3.838
14764TIP3    H144233   1.634   3.703   3.876
14764TIP3    H244234   1.494   3.671   3.830
14765TIP3   OH244235   1.365   2.501   5.138
14765TIP3    H144236   1.390   2.571   5.079
14765TIP3    H244237   1.318   2.438   5.084
14766TIP3   OH244238   0.506   1.120   0.737
14766TIP3    H144239   0.564   1.108   0.812
14766TIP3    H244240   0.487   1.214   0.736
14767TIP3   OH244241   0.142   2.436   3.815
14767TIP3    H144242   0.165   2.344   3.829
14767TIP3    H244243   0.140   2.446   3.720
14768TIP3   OH244244   7.289   3.214   3.055
14768TIP3    H144245   7.209   3.264   3.039
14768TIP3    H244246   7.330   3.205   2.969
14769TIP3   OH244247   6.063   2.572   1.570
14769TIP3    H144248   6.015   2.570   1.653
14769TIP3    H244249   6.083   2.665   1.557
14770TIP3   OH244250   4.255   1.621   1.768
14770TIP3    H144251   4.167   1.592   1.791
14770TIP3    H244252   4.285   1.557   1.703
14771TIP3   OH244253   0.454   6.230   6.789
14771TIP3    H144254   0.395   6.288   6.838
14771TIP3    H244255   0.402   6.202   6.714
14772TIP3   OH244256   2.131   6.963   5.231
14772TIP3    H144257   2.146   6.942   5.323
14772TIP3    H244258   2.036   6.952   5.219
14773TIP3   OH244259   2.706   6.102   3.399
14773TIP3    H144260   2.710   6.056   3.315
14773TIP3    H244261   2.612   6.117   3.413
14774TIP3   OH244262   6.041   2.081   6.582
14774TIP3    H144263   6.043   1.987   6.567
14774TIP3    H244264   6.093   2.118   6.511
14775TIP3   OH244265   7.918   6.155   3.043
14775TIP3    H144266   7.912   6.148   2.948
14775TIP3    H244267   7.832   6.129   3.075
14776TIP3   OH244268   6.997   2.573   0.693
14776TIP3    H144269   6.925   2.635   0.678
14776TIP3    H244270   6.991   2.553   0.786
14777TIP3   OH244271   7.653   3.826   5.199
14777TIP3    H144272   7.584   3.784   5.250
14777TIP3    H244273   7.708   3.754   5.169
14778TIP3   OH244274   3.481   6.341   3.910
14778TIP3    H144275   3.486   6.295   3.994
14778TIP3    H244276   3.571   6.342   3.878
14779TIP3   OH244277   1.501   3.335   0.641
14779TIP3    H144278   1.505   3.334   0.736
14779TIP3    H244279   1.498   3.243   0.615
14780TIP3   OH244280   0.352   5.551   6.013
14780TIP3    H144281   0.299   5.474   5.992
14780TIP3    H244282   0.373   5.541   6.106
14781TIP3   OH244283   4.828   5.150   2.551
14781TIP3    H144284   4.795   5.064   2.577
14781TIP3    H244285   4.921   5.148   2.576
14782TIP3   OH244286   0.043   4.237   0.096
14782TIP3    H144287   0.061   4.160   0.043
14782TIP3    H244288   0.099   4.226   0.174
14783TIP3   OH244289   1.530   4.985   3.584
14783TIP3    H144290   1.492   5.071   3.564
14783TIP3    H244291   1.456   4.932   3.611
14784TIP3   OH244292   4.017   4.192   4.137
14784TIP3    H144293   4.106   4.200   4.104
14784TIP3    H244294   4.007   4.264   4.199
14785TIP3   OH244295   5.239   4.154   2.191
14785TIP3    H144296   5.300   4.227   2.203
14785TIP3    H244297   5.205   4.165   2.103
14786TIP3   OH244298   5.239   0.659   6.007
14786TIP3    H144299   5.248   0.571   6.043
14786TIP3    H244300   5.180   0.648   5.932
14787TIP3   OH244301   7.968   6.995   0.727
14787TIP3    H144302   8.028   7.005   0.653
14787TIP3    H244303   7.979   7.075   0.778
14788TIP3   OH244304   6.194   6.207   2.059
14788TIP3    H144305   6.159   6.207   1.970
14788TIP3    H244306   6.179   6.118   2.091
14789TIP3   OH244307   1.852   2.521   6.769
14789TIP3    H144308   1.861   2.516   6.864
14789TIP3    H244309   1.830   2.612   6.751
14790TIP3   OH244310   1.691   1.495   6.598
14790TIP3    H144311   1.660   1.585   6.610
14790TIP3    H244312   1.620   1.441   6.634
14791TIP3   OH244313   1.918   1.174   6.327
14791TIP3    H144314   1.860   1.117   6.377
14791TIP3    H244315   1.861   1.244   6.295
14792TIP3   OH244316   3.828   6.549   1.625
14792TIP3    H144317   3.745   6.544   1.578
14792TIP3    H244318   3.819   6.626   1.682
14793TIP3   OH244319   6.843   5.564   3.069
14793TIP3    H144320   6.871   5.482   3.111
14793TIP3    H244321   6.924   5.602   3.036
14794TIP3   OH244322   7.167   5.992   6.398
14794TIP3    H144323   7.096   5.961   6.454
14794TIP3    H244324   7.237   5.928   6.409
14795TIP3   OH244325   0.661   6.806   3.631
14795TIP3    H144326   0.592   6.740   3.625
14795TIP3    H244327   0.630   6.868   3.696
14796TIP3   OH244328   7.200   4.201   3.143
14796TIP3    H144329   7.257   4.124   3.148
14796TIP3    H244330   7.224   4.243   3.060
14797TIP3   OH244331   2.645   2.677   6.638
14797TIP3    H144332   2.698   2.668   6.717
14797TIP3    H244333   2.602   2.592   6.628
14798TIP3   OH244334   3.324   7.884   2.731
14798TIP3    H144335   3.409   7.921   2.708
14798TIP3    H244336   3.302   7.924   2.815
14799TIP3   OH244337   0.820   2.428   4.990
14799TIP3    H144338   0.908   2.407   4.959
14799TIP3    H244339   0.820   2.398   5.081
14800TIP3   OH244340   2.558   4.517   6.614
14800TIP3    H144341   2.475   4.545   6.573
14800TIP3    H244342   2.543   4.530   6.708
14801TIP3   OH244343   0.066   1.307   6.605
14801TIP3    H144344   0.158   1.329   6.622
14801TIP3    H244345   0.017   1.355   6.671
14802TIP3   OH244346   0.869   4.050   5.687
14802TIP3    H144347   0.813   4.083   5.617
14802TIP3    H244348   0.891   4.127   5.739
14803TIP3   OH244349   6.516   5.801   3.883
14803TIP3    H144350   6.607   5.780   3.903
14803TIP3    H244351   6.466   5.728   3.922
14804TIP3   OH244352   5.924   4.352   3.912
14804TIP3    H144353   6.016   4.335   3.931
14804TIP3    H244354   5.897   4.279   3.856
14805TIP3   OH244355   1.359   1.021   1.292
14805TIP3    H144356   1.365   1.087   1.361
14805TIP3    H244357   1.334   0.941   1.337
14806TIP3   OH244358   2.399   1.146   2.425
14806TIP3    H144359   2.480   1.193   2.405
14806TIP3    H244360   2.330   1.212   2.417
14807TIP3   OH244361   5.704   7.571   1.178
14807TIP3    H144362   5.777   7.590   1.237
14807TIP3    H244363   5.640   7.640   1.195
14808TIP3   OH244364   7.940   7.071   3.206
14808TIP3    H144365   7.911   7.023   3.128
14808TIP3    H244366   7.952   7.003   3.272
14809TIP3   OH244367   3.039   4.527   1.709
14809TIP3    H144368   2.989   4.605   1.683
14809TIP3    H244369   3.125   4.539   1.667
14810TIP3   OH244370   1.978   7.463   0.376
14810TIP3    H144371   2.041   7.429   0.438
14810TIP3    H244372   2.003   7.425   0.292
14811TIP3   OH244373   5.391   0.178   5.626
14811TIP3    H144374   5.297   0.160   5.627
14811TIP3    H244375   5.431   0.091   5.626
14812TIP3   OH244376   4.085   4.106   0.286
14812TIP3    H144377   4.114   4.099   0.377
14812TIP3    H244378   4.081   4.015   0.256
14813TIP3   OH244379   7.523   1.483   2.454
14813TIP3    H144380   7.579   1.485   2.376
14813TIP3    H244381   7.525   1.391   2.482
14814TIP3   OH244382   8.244   1.389   4.359
14814TIP3    H144383   8.241   1.293   4.360
14814TIP3    H244384   8.328   1.411   4.400
14815TIP3   OH244385   1.314   7.396   1.303
14815TIP3    H144386   1.386   7.334   1.300
14815TIP3    H244387   1.339   7.464   1.239
14816TIP3   OH244388   5.723   4.498   5.225
14816TIP3    H144389   5.781   4.536   5.291
14816TIP3    H244390   5.681   4.574   5.184
14817TIP3   OH244391   2.491   7.177   4.910
14817TIP3    H144392   2.422   7.175   4.976
14817TIP3    H244393   2.478   7.260   4.865
14818TIP3   OH244394   5.269   7.551   0.145
14818TIP3    H144395   5.224   7.635   0.131
14818TIP3    H244396   5.198   7.486   0.146
14819TIP3   OH244397   2.506   2.997   2.432
14819TIP3    H144398   2.576   2.984   2.496
14819TIP3    H244399   2.529   3.079   2.387
14820TIP3   OH244400   7.942   7.717   5.494
14820TIP3    H144401   7.903   7.709   5.407
14820TIP3    H244402   7.873   7.689   5.554
14821TIP3   OH244403   2.914   7.655   5.820
14821TIP3    H144404   3.001   7.651   5.782
14821TIP3    H244405   2.858   7.689   5.751
14822TIP3   OH244406   6.627   0.854   3.500
14822TIP3    H144407   6.603   0.944   3.519
14822TIP3    H244408   6.703   0.861   3.442
14823TIP3   OH244409   2.260   5.650   1.680
14823TIP3    H144410   2.336   5.665   1.736
14823TIP3    H244411   2.260   5.556   1.663
14824TIP3   OH244412   6.799   2.097   1.859
14824TIP3    H144413   6.809   2.066   1.949
14824TIP3    H244414   6.851   2.036   1.806
14825TIP3   OH244415   6.664   0.862   6.046
14825TIP3    H144416   6.568   0.863   6.040
14825TIP3    H244417   6.684   0.928   6.111
14826TIP3   OH244418   2.540   1.629   5.197
14826TIP3    H144419   2.579   1.543   5.212
14826TIP3    H244420   2.508   1.626   5.107
14827TIP3   OH244421   5.800   4.696   6.767
14827TIP3    H144422   5.814   4.601   6.768
14827TIP3    H244423   5.855   4.729   6.838
14828TIP3   OH244424   5.476   0.525   2.222
14828TIP3    H144425   5.569   0.522   2.244
14828TIP3    H244426   5.472   0.497   2.130
14829TIP3   OH244427   5.778   1.580   3.356
14829TIP3    H144428   5.855   1.537   3.319
14829TIP3    H244429   5.752   1.643   3.289
14830TIP3   OH244430   5.227   4.303   6.539
14830TIP3    H144431   5.280   4.371   6.497
14830TIP3    H244432   5.159   4.351   6.586
14831TIP3   OH244433   6.990   3.959   0.563
14831TIP3    H144434   6.961   4.000   0.481
14831TIP3    H244435   7.069   4.009   0.587
14832TIP3   OH244436   8.191   3.571   5.814
14832TIP3    H144437   8.275   3.528   5.832
14832TIP3    H244438   8.134   3.542   5.886
14833TIP3   OH244439   0.779   0.761   0.914
14833TIP3    H144440   0.818   0.745   0.999
14833TIP3    H244441   0.763   0.674   0.878
14834TIP3   OH244442   4.284   3.636   0.187
14834TIP3    H144443   4.359   3.619   0.244
14834TIP3    H244444   4.237   3.553   0.182
14835TIP3   OH244445   5.329   5.191   3.856
14835TIP3    H144446   5.416   5.221   3.882
14835TIP3    H244447   5.332   5.188   3.760
14836TIP3   OH244448   0.742   6.918   5.287
14836TIP3    H144449   0.710   6.895   5.200
14836TIP3    H244450   0.772   7.008   5.279
14837TIP3   OH244451   8.235   3.284   0.106
14837TIP3    H144452   8.227   3.201   0.058
14837TIP3    H244453   8.152   3.328   0.090
14838TIP3   OH244454   1.861   5.734   4.234
14838TIP3    H144455   1.883   5.733   4.328
14838TIP3    H244456   1.784   5.790   4.228
14839TIP3   OH244457   0.201   2.219   0.613
14839TIP3    H144458   0.289   2.184   0.624
14839TIP3    H244459   0.145   2.142   0.605
14840TIP3   OH244460   4.742   2.933   4.119
14840TIP3    H144461   4.657   2.898   4.146
14840TIP3    H244462   4.720   3.010   4.066
14841TIP3   OH244463   3.774   2.535   6.179
14841TIP3    H144464   3.785   2.507   6.270
14841TIP3    H244465   3.711   2.607   6.184
14842TIP3   OH244466   7.889   7.744   3.225
14842TIP3    H144467   7.813   7.697   3.261
14842TIP3    H244468   7.854   7.829   3.198
14843TIP3   OH244469   4.690   1.411   3.227
14843TIP3    H144470   4.752   1.476   3.194
14843TIP3    H244471   4.613   1.421   3.171
14844TIP3   OH244472   6.377   5.310   3.576
14844TIP3    H144473   6.358   5.222   3.607
14844TIP3    H244474   6.445   5.298   3.510
14845TIP3   OH244475   0.484   4.339   1.302
14845TIP3    H144476   0.515   4.294   1.224
14845TIP3    H244477   0.411   4.393   1.272
14846TIP3   OH244478   4.475   7.640   6.545
14846TIP3    H144479   4.532   7.673   6.614
14846TIP3    H244480   4.392   7.686   6.557
14847TIP3   OH244481   5.264   3.026   1.803
14847TIP3    H144482   5.214   3.036   1.884
14847TIP3    H244483   5.234   3.097   1.747
14848TIP3   OH244484   0.111   3.053   0.053
14848TIP3    H144485   0.073   2.983   0.000
14848TIP3    H244486   0.074   3.040   0.141
14849TIP3   OH244487   2.351   7.097   1.379
14849TIP3    H144488   2.347   7.184   1.340
14849TIP3    H244489   2.365   7.113   1.472
14850TIP3   OH244490   0.998   4.000   6.414
14850TIP3    H144491   0.954   4.076   6.377
14850TIP3    H244492   0.928   3.952   6.459
14851TIP3   OH244493   2.395   1.741   2.255
14851TIP3    H144494   2.432   1.653   2.248
14851TIP3    H244495   2.396   1.775   2.166
14852TIP3   OH244496   4.274   2.282   2.445
14852TIP3    H144497   4.240   2.294   2.534
14852TIP3    H244498   4.215   2.219   2.405
14853TIP3   OH244499   2.271   4.605   4.649
14853TIP3    H144500   2.235   4.579   4.734
14853TIP3    H244501   2.365   4.606   4.662
14854TIP3   OH244502   6.269   6.808   0.771
14854TIP3    H144503   6.200   6.753   0.734
14854TIP3    H244504   6.233   6.896   0.768
14855TIP3   OH244505   3.962   4.390   0.419
14855TIP3    H144506   4.048   4.349   0.431
14855TIP3    H244507   3.967   4.471   0.470
14856TIP3   OH244508   4.285   5.519   0.892
14856TIP3    H144509   4.349   5.571   0.941
14856TIP3    H244510   4.208   5.576   0.886
14857TIP3   OH244511   1.250   7.318   0.535
14857TIP3    H144512   1.339   7.290   0.512
14857TIP3    H244513   1.222   7.256   0.603
14858TIP3   OH244514   7.933   0.293   3.533
14858TIP3    H144515   8.017   0.289   3.487
14858TIP3    H244516   7.875   0.339   3.473
14859TIP3   OH244517   7.049   1.873   1.046
14859TIP3    H144518   7.052   1.808   0.976
14859TIP3    H244519   7.102   1.835   1.116
14860TIP3   OH244520   7.199   3.918   5.422
14860TIP3    H144521   7.231   3.844   5.473
14860TIP3    H244522   7.279   3.968   5.401
14861TIP3   OH244523   3.454   5.621   1.984
14861TIP3    H144524   3.389   5.582   1.926
14861TIP3    H244525   3.538   5.587   1.953
14862TIP3   OH244526   6.799   6.888   4.466
14862TIP3    H144527   6.888   6.899   4.434
14862TIP3    H244528   6.744   6.903   4.389
14863TIP3   OH244529   1.800   1.825   2.283
14863TIP3    H144530   1.707   1.835   2.263
14863TIP3    H244531   1.803   1.814   2.378
14864TIP3   OH244532   3.294   3.219   4.528
14864TIP3    H144533   3.325   3.164   4.456
14864TIP3    H244534   3.284   3.159   4.601
14865TIP3   OH244535   4.215   7.721   6.674
14865TIP3    H144536   4.132   7.673   6.674
14865TIP3    H244537   4.219   7.762   6.761
14866TIP3   OH244538   3.674   2.295   4.725
14866TIP3    H144539   3.667   2.234   4.799
14866TIP3    H244540   3.620   2.370   4.751
14867TIP3   OH244541   6.445   0.876   6.402
14867TIP3    H144542   6.416   0.832   6.323
14867TIP3    H244543   6.430   0.812   6.472
14868TIP3   OH244544   4.798   7.862   3.186
14868TIP3    H144545   4.716   7.838   3.230
14868TIP3    H244546   4.865   7.856   3.254
14869TIP3   OH244547   3.428   5.873   1.743
14869TIP3    H144548   3.388   5.954   1.774
14869TIP3    H244549   3.513   5.870   1.787
14870TIP3   OH244550   6.810   3.602   1.252
14870TIP3    H144551   6.763   3.566   1.177
14870TIP3    H244552   6.901   3.576   1.238
14871TIP3   OH244553   7.220   3.928   6.272
14871TIP3    H144554   7.178   3.969   6.348
14871TIP3    H244555   7.257   3.847   6.307
14872TIP3   OH244556   2.017   2.708   3.230
14872TIP3    H144557   2.049   2.765   3.300
14872TIP3    H244558   1.935   2.673   3.264
14873TIP3   OH244559   4.710   4.745   2.266
14873TIP3    H144560   4.783   4.773   2.321
14873TIP3    H244561   4.645   4.814   2.277
14874TIP3   OH244562   0.765   4.635   4.155
14874TIP3    H144563   0.746   4.572   4.225
14874TIP3    H244564   0.719   4.715   4.181
14875TIP3   OH244565   8.037   0.837   2.902
14875TIP3    H144566   8.106   0.775   2.878
14875TIP3    H244567   7.971   0.826   2.834
14876TIP3   OH244568   6.398   0.683   1.839
14876TIP3    H144569   6.460   0.614   1.860
14876TIP3    H244570   6.451   0.763   1.837
14877TIP3   OH244571   0.924   1.181   3.128
14877TIP3    H144572   1.011   1.176   3.168
14877TIP3    H244573   0.889   1.092   3.136
14878TIP3   OH244574   7.295   4.322   2.883
14878TIP3    H144575   7.234   4.361   2.821
14878TIP3    H244576   7.296   4.229   2.863
14879TIP3   OH244577   6.694   7.639   0.317
14879TIP3    H144578   6.641   7.562   0.299
14879TIP3    H244579   6.632   7.712   0.317
14880TIP3   OH244580   6.320   3.910   5.985
14880TIP3    H144581   6.407   3.882   5.957
14880TIP3    H244582   6.292   3.972   5.918
14881TIP3   OH244583   2.594   6.976   5.428
14881TIP3    H144584   2.614   7.070   5.423
14881TIP3    H244585   2.588   6.949   5.336
14882TIP3   OH244586   6.375   6.790   5.497
14882TIP3    H144587   6.384   6.700   5.529
14882TIP3    H244588   6.324   6.782   5.416
14883TIP3   OH244589   0.106   1.634   1.910
14883TIP3    H144590   0.082   1.653   1.819
14883TIP3    H244591   0.025   1.648   1.960
14884TIP3   OH244592   3.063   7.683   3.007
14884TIP3    H144593   3.006   7.654   3.078
14884TIP3    H244594   3.027   7.767   2.980
14885TIP3   OH244595   7.341   6.457   4.474
14885TIP3    H144596   7.384   6.521   4.530
14885TIP3    H244597   7.248   6.468   4.492
14886TIP3   OH244598   7.926   1.338   3.696
14886TIP3    H144599   7.892   1.383   3.774
14886TIP3    H244600   7.877   1.257   3.692
14887TIP3   OH244601   0.406   2.978   2.981
14887TIP3    H144602   0.328   2.962   3.034
14887TIP3    H244603   0.447   3.054   3.021
14888TIP3   OH244604   1.473   1.529   4.879
14888TIP3    H144605   1.470   1.442   4.839
14888TIP3    H244606   1.409   1.580   4.829
14889TIP3   OH244607   0.157   3.398   5.771
14889TIP3    H144608   0.187   3.335   5.837
14889TIP3    H244609   0.180   3.483   5.807
14890TIP3   OH244610   1.506   5.630   3.446
14890TIP3    H144611   1.588   5.584   3.428
14890TIP3    H244612   1.530   5.723   3.441
14891TIP3   OH244613   3.259   2.446   4.491
14891TIP3    H144614   3.316   2.461   4.566
14891TIP3    H244615   3.279   2.356   4.464
14892TIP3   OH244616   6.918   5.921   1.939
14892TIP3    H144617   6.968   5.969   1.873
14892TIP3    H244618   6.935   5.829   1.919
14893TIP3   OH244619   6.075   4.744   4.245
14893TIP3    H144620   6.159   4.778   4.274
14893TIP3    H244621   6.050   4.680   4.311
14894TIP3   OH244622   5.931   5.444   6.482
14894TIP3    H144623   5.981   5.366   6.507
14894TIP3    H244624   5.893   5.422   6.397
14895TIP3   OH244625   1.974   0.800   1.456
14895TIP3    H144626   2.047   0.757   1.499
14895TIP3    H244627   1.979   0.770   1.365
14896TIP3   OH244628   0.874   5.775   0.099
14896TIP3    H144629   0.969   5.771   0.106
14896TIP3    H244630   0.856   5.768   0.006
14897TIP3   OH244631   2.456   2.072   4.175
14897TIP3    H144632   2.379   2.016   4.164
14897TIP3    H244633   2.491   2.082   4.086
14898TIP3   OH244634   6.858   5.906   6.354
14898TIP3    H144635   6.907   5.886   6.274
14898TIP3    H244636   6.865   6.001   6.363
14899TIP3   OH244637   1.522   5.645   4.085
14899TIP3    H144638   1.532   5.740   4.088
14899TIP3    H244639   1.606   5.614   4.050
14900TIP3   OH244640   2.023   5.762   1.305
14900TIP3    H144641   1.998   5.671   1.288
14900TIP3    H244642   1.940   5.810   1.304
14901TIP3   OH244643   3.768   3.353   0.545
14901TIP3    H144644   3.762   3.428   0.486
14901TIP3    H244645   3.730   3.384   0.627
14902TIP3   OH244646   2.573   3.760   1.783
14902TIP3    H144647   2.501   3.819   1.807
14902TIP3    H244648   2.642   3.818   1.751
14903TIP3   OH244649   5.507   6.160   1.390
14903TIP3    H144650   5.486   6.146   1.482
14903TIP3    H244651   5.602   6.147   1.385
14904TIP3   OH244652   3.734   4.815   1.414
14904TIP3    H144653   3.796   4.888   1.406
14904TIP3    H244654   3.742   4.787   1.505
14905TIP3   OH244655   0.142   6.162   2.631
14905TIP3    H144656   0.229   6.202   2.624
14905TIP3    H244657   0.082   6.231   2.604
14906TIP3   OH244658   1.402   2.311   0.322
14906TIP3    H144659   1.474   2.248   0.317
14906TIP3    H244660   1.385   2.319   0.416
14907TIP3   OH244661   3.416   3.274   5.895
14907TIP3    H144662   3.440   3.199   5.840
14907TIP3    H244663   3.322   3.266   5.906
14908TIP3   OH244664   6.991   7.394   0.343
14908TIP3    H144665   7.049   7.330   0.302
14908TIP3    H244666   7.007   7.475   0.295
14909TIP3   OH244667   4.747   0.488   2.514
14909TIP3    H144668   4.729   0.581   2.502
14909TIP3    H244669   4.746   0.475   2.609
14910TIP3   OH244670   7.009   2.887   3.739
14910TIP3    H144671   7.083   2.874   3.798
14910TIP3    H244672   7.021   2.821   3.671
14911TIP3   OH244673   4.814   1.438   6.719
14911TIP3    H144674   4.814   1.482   6.633
14911TIP3    H244675   4.721   1.424   6.738
14912TIP3   OH244676   7.740   4.964   3.762
14912TIP3    H144677   7.653   4.956   3.722
14912TIP3    H244678   7.785   5.029   3.708
14913TIP3   OH244679   4.050   0.791   5.761
14913TIP3    H144680   4.080   0.792   5.852
14913TIP3    H244681   4.005   0.875   5.750
14914TIP3   OH244682   8.041   1.604   0.606
14914TIP3    H144683   8.035   1.617   0.511
14914TIP3    H244684   7.994   1.679   0.643
14915TIP3   OH244685   1.800   0.874   0.349
14915TIP3    H144686   1.863   0.845   0.283
14915TIP3    H244687   1.792   0.968   0.334
14916TIP3   OH244688   0.884  -0.011   5.132
14916TIP3    H144689   0.895   0.080   5.159
14916TIP3    H244690   0.959  -0.027   5.075
14917TIP3   OH244691   1.907   6.735   6.386
14917TIP3    H144692   1.833   6.708   6.440
14917TIP3    H244693   1.982   6.735   6.446
14918TIP3   OH244694   0.827   3.923   1.473
14918TIP3    H144695   0.910   3.969   1.463
14918TIP3    H244696   0.774   3.951   1.399
14919TIP3   OH244697   0.559   1.168   6.365
14919TIP3    H144698   0.611   1.090   6.386
14919TIP3    H244699   0.570   1.224   6.442
14920TIP3   OH244700   4.230   3.585   2.097
14920TIP3    H144701   4.224   3.663   2.041
14920TIP3    H244702   4.185   3.609   2.178
14921TIP3   OH244703   5.910   5.271   4.868
14921TIP3    H144704   5.964   5.215   4.924
14921TIP3    H244705   5.885   5.215   4.795
14922TIP3   OH244706   1.823   0.922   1.687
14922TIP3    H144707   1.887   0.947   1.754
14922TIP3    H244708   1.876   0.905   1.609
14923TIP3   OH244709   5.922   7.630   1.772
14923TIP3    H144710   5.983   7.585   1.831
14923TIP3    H244711   5.908   7.568   1.701
14924TIP3   OH244712   5.915   5.485   2.679
14924TIP3    H144713   5.870   5.549   2.623
14924TIP3    H244714   5.922   5.407   2.624
14925TIP3   OH244715   0.278   2.337   0.896
14925TIP3    H144716   0.248   2.281   0.824
14925TIP3    H244717   0.373   2.329   0.895
14926TIP3   OH244718   5.218   1.860   2.903
14926TIP3    H144719   5.225   1.829   2.993
14926TIP3    H244720   5.123   1.860   2.886
14927TIP3   OH244721   5.788   6.311   1.300
14927TIP3    H144722   5.803   6.240   1.364
14927TIP3    H244723   5.737   6.270   1.230
14928TIP3   OH244724   5.077   3.663   2.626
14928TIP3    H144725   5.039   3.605   2.560
14928TIP3    H244726   5.141   3.609   2.672
14929TIP3   OH244727   2.285   4.069   0.217
14929TIP3    H144728   2.368   4.065   0.169
14929TIP3    H244729   2.252   4.157   0.199
14930TIP3   OH244730   0.397   4.065   4.144
14930TIP3    H144731   0.427   4.145   4.101
14930TIP3    H244732   0.303   4.061   4.125
14931TIP3   OH244733   1.151   4.865   6.156
14931TIP3    H144734   1.161   4.873   6.061
14931TIP3    H244735   1.075   4.919   6.177
14932TIP3   OH244736   0.164   2.723   2.375
14932TIP3    H144737   0.253   2.694   2.395
14932TIP3    H244738   0.142   2.677   2.294
14933TIP3   OH244739   6.018   1.285   1.825
14933TIP3    H144740   6.028   1.379   1.834
14933TIP3    H244741   6.098   1.255   1.782
14934TIP3   OH244742   1.761   7.074   4.975
14934TIP3    H144743   1.737   7.073   5.068
14934TIP3    H244744   1.852   7.046   4.973
14935TIP3   OH244745   3.935   0.787   6.649
14935TIP3    H144746   3.907   0.791   6.740
14935TIP3    H244747   3.866   0.738   6.605
14936TIP3   OH244748   2.025   3.145   2.338
14936TIP3    H144749   2.029   3.231   2.379
14936TIP3    H244750   2.005   3.162   2.246
14937TIP3   OH244751   7.828   3.069   4.975
14937TIP3    H144752   7.918   3.091   4.953
14937TIP3    H244753   7.834   2.981   5.012
14938TIP3   OH244754   8.153   0.007   1.027
14938TIP3    H144755   8.196   0.085   0.993
14938TIP3    H244756   8.161   0.015   1.122
14939TIP3   OH244757   7.636   7.247   5.255
14939TIP3    H144758   7.587   7.280   5.180
14939TIP3    H244759   7.588   7.279   5.332
14940TIP3   OH244760   7.311   1.600   0.886
14940TIP3    H144761   7.215   1.605   0.884
14940TIP3    H244762   7.333   1.614   0.978
14941TIP3   OH244763  -0.006   1.911   3.414
14941TIP3    H144764   0.087   1.887   3.410
14941TIP3    H244765  -0.016   1.951   3.501
14942TIP3   OH244766   4.265   0.470   6.601
14942TIP3    H144767   4.230   0.449   6.688
14942TIP3    H244768   4.279   0.565   6.603
14943TIP3   OH244769   0.773   3.881   6.525
14943TIP3    H144770   0.728   3.887   6.440
14943TIP3    H244771   0.743   3.958   6.573
14944TIP3   OH244772   2.668   2.544   2.850
14944TIP3    H144773   2.637   2.593   2.774
14944TIP3    H244774   2.596   2.547   2.912
14945TIP3   OH244775   1.979   7.379   5.363
14945TIP3    H144776   1.904   7.351   5.415
14945TIP3    H244777   2.045   7.311   5.376
14946TIP3   OH244778   3.195   5.132   3.985
14946TIP3    H144779   3.112   5.109   4.027
14946TIP3    H244780   3.194   5.228   3.981
14947TIP3   OH244781   2.182   6.404   0.985
14947TIP3    H144782   2.118   6.385   1.053
14947TIP3    H244783   2.258   6.438   1.032
14948TIP3   OH244784   0.409   0.975   0.281
14948TIP3    H144785   0.428   1.030   0.205
14948TIP3    H244786   0.495   0.948   0.313
14949TIP3   OH244787   7.872   2.248   1.249
14949TIP3    H144788   7.886   2.153   1.244
14949TIP3    H244789   7.958   2.283   1.274
14950TIP3   OH244790   6.922   7.540   1.732
14950TIP3    H144791   6.864   7.465   1.718
14950TIP3    H244792   6.971   7.548   1.650
14951TIP3   OH244793   8.033   3.653   6.352
14951TIP3    H144794   8.085   3.689   6.423
14951TIP3    H244795   8.075   3.570   6.330
14952TIP3   OH244796   0.480   4.072   3.381
14952TIP3    H144797   0.438   4.098   3.463
14952TIP3    H244798   0.537   4.146   3.359
14953TIP3   OH244799   0.911   2.955   5.488
14953TIP3    H144800   0.860   2.874   5.477
14953TIP3    H244801   0.902   2.975   5.581
14954TIP3   OH244802   5.284   5.039   2.818
14954TIP3    H144803   5.291   5.031   2.722
14954TIP3    H244804   5.223   4.970   2.843
14955TIP3   OH244805   0.771   4.898   3.503
14955TIP3    H144806   0.683   4.889   3.466
14955TIP3    H244807   0.761   4.876   3.595
14956TIP3   OH244808   1.416   4.893   4.703
14956TIP3    H144809   1.367   4.939   4.635
14956TIP3    H244810   1.499   4.871   4.662
14957TIP3   OH244811   1.038   4.155   6.092
14957TIP3    H144812   1.009   4.193   6.009
14957TIP3    H244813   0.963   4.167   6.151
14958TIP3   OH244814   6.448   4.017   6.730
14958TIP3    H144815   6.452   4.111   6.714
14958TIP3    H244816   6.382   4.007   6.799
14959TIP3   OH244817   7.525   0.767   3.888
14959TIP3    H144818   7.528   0.739   3.979
14959TIP3    H244819   7.608   0.812   3.874
14960TIP3   OH244820   3.356   5.003   5.238
14960TIP3    H144821   3.281   5.058   5.261
14960TIP3    H244822   3.414   5.062   5.190
14961TIP3   OH244823   5.397   6.413   1.095
14961TIP3    H144824   5.392   6.318   1.102
14961TIP3    H244825   5.329   6.435   1.031
14962TIP3   OH244826   6.746   2.138   4.992
14962TIP3    H144827   6.687   2.201   4.950
14962TIP3    H244828   6.785   2.090   4.919
14963TIP3   OH244829   3.410   2.355   5.320
14963TIP3    H144830   3.373   2.283   5.270
14963TIP3    H244831   3.435   2.420   5.253
14964TIP3   OH244832   3.521   7.893   1.419
14964TIP3    H144833   3.540   7.819   1.476
14964TIP3    H244834   3.601   7.904   1.367
14965TIP3   OH244835   2.801   2.279   2.343
14965TIP3    H144836   2.749   2.244   2.271
14965TIP3    H244837   2.891   2.257   2.320
14966TIP3   OH244838   4.233   1.931   2.184
14966TIP3    H144839   4.176   1.923   2.107
14966TIP3    H244840   4.270   2.019   2.177
14967TIP3   OH244841   3.632   4.246   2.072
14967TIP3    H144842   3.655   4.167   2.122
14967TIP3    H244843   3.571   4.215   2.005
14968TIP3   OH244844   1.749   3.197   6.131
14968TIP3    H144845   1.810   3.123   6.131
14968TIP3    H244846   1.803   3.273   6.152
14969TIP3   OH244847   6.510   6.679   4.530
14969TIP3    H144848   6.464   6.595   4.524
14969TIP3    H244849   6.601   6.658   4.511
14970TIP3   OH244850   7.058   7.431   3.078
14970TIP3    H144851   7.004   7.506   3.103
14970TIP3    H244852   7.022   7.358   3.127
14971TIP3   OH244853   6.204   0.039   4.231
14971TIP3    H144854   6.188   0.113   4.172
14971TIP3    H244855   6.117   0.002   4.247
14972TIP3   OH244856   5.200   3.938   3.890
14972TIP3    H144857   5.211   4.020   3.938
14972TIP3    H244858   5.144   3.961   3.816
14973TIP3   OH244859   8.405   3.898   4.713
14973TIP3    H144860   8.328   3.922   4.662
14973TIP3    H244861   8.399   3.803   4.722
14974TIP3   OH244862   4.258   1.827   0.836
14974TIP3    H144863   4.261   1.916   0.801
14974TIP3    H244864   4.343   1.815   0.879
14975TIP3   OH244865   7.937   7.162   2.643
14975TIP3    H144866   7.936   7.069   2.621
14975TIP3    H244867   7.919   7.164   2.737
14976TIP3   OH244868   1.029   6.498   4.315
14976TIP3    H144869   1.075   6.576   4.345
14976TIP3    H244870   1.062   6.428   4.371
14977TIP3   OH244871   5.030   2.658   2.718
14977TIP3    H144872   5.087   2.734   2.715
14977TIP3    H244873   5.071   2.594   2.660
14978TIP3   OH244874   1.124   1.417   6.559
14978TIP3    H144875   1.193   1.443   6.620
14978TIP3    H244876   1.128   1.483   6.490
14979TIP3   OH244877   4.501   7.725   4.763
14979TIP3    H144878   4.527   7.807   4.805
14979TIP3    H244879   4.582   7.673   4.760
14980TIP3   OH244880   1.664   7.112   3.729
14980TIP3    H144881   1.759   7.109   3.742
14980TIP3    H244882   1.652   7.146   3.641
14981TIP3   OH244883   0.661   5.343   0.388
14981TIP3    H144884   0.699   5.257   0.406
14981TIP3    H244885   0.656   5.348   0.293
14982TIP3   OH244886   1.557   1.465   2.515
14982TIP3    H144887   1.502   1.534   2.553
14982TIP3    H244888   1.578   1.408   2.589
14983TIP3   OH244889   6.145   2.840   4.842
14983TIP3    H144890   6.093   2.917   4.865
14983TIP3    H244891   6.212   2.872   4.782
14984TIP3   OH244892   1.574   1.726   5.369
14984TIP3    H144893   1.530   1.669   5.306
14984TIP3    H244894   1.603   1.666   5.438
14985TIP3   OH244895   4.908   4.844   4.723
14985TIP3    H144896   4.958   4.837   4.805
14985TIP3    H244897   4.918   4.935   4.696
14986TIP3   OH244898   8.071   3.177   4.879
14986TIP3    H144899   8.125   3.233   4.934
14986TIP3    H244900   8.097   3.199   4.790
14987TIP3   OH244901   5.940   0.487   3.307
14987TIP3    H144902   5.979   0.498   3.393
14987TIP3    H244903   6.005   0.437   3.257
14988TIP3   OH244904   1.590   2.123   0.272
14988TIP3    H144905   1.585   2.075   0.355
14988TIP3    H244906   1.582   2.056   0.205
14989TIP3   OH244907   3.784   5.547   3.310
14989TIP3    H144908   3.765   5.631   3.353
14989TIP3    H244909   3.698   5.512   3.287
14990TIP3   OH244910   4.398   7.065   4.732
14990TIP3    H144911   4.493   7.078   4.736
14990TIP3    H244912   4.367   7.136   4.676
14991TIP3   OH244913   2.002   4.805   0.094
14991TIP3    H144914   2.033   4.786   0.005
14991TIP3    H244915   2.064   4.870   0.127
14992TIP3   OH244916   2.032   6.878   3.209
14992TIP3    H144917   1.960   6.919   3.161
14992TIP3    H244918   2.006   6.786   3.216
14993TIP3   OH244919   6.872   1.716   1.942
14993TIP3    H144920   6.940   1.770   1.903
14993TIP3    H244921   6.916   1.667   2.012
14994TIP3   OH244922   3.559   7.823   1.902
14994TIP3    H144923   3.574   7.740   1.858
14994TIP3    H244924   3.645   7.848   1.937
14995TIP3   OH244925   1.482   5.276   4.867
14995TIP3    H144926   1.443   5.224   4.796
14995TIP3    H244927   1.516   5.212   4.929
14996TIP3   OH244928   1.310   6.446   0.188
14996TIP3    H144929   1.285   6.527   0.232
14996TIP3    H244930   1.239   6.428   0.127
14997TIP3   OH244931   6.381   5.472   5.682
14997TIP3    H144932   6.443   5.399   5.694
14997TIP3    H244933   6.303   5.431   5.646
14998TIP3   OH244934   4.598   2.961   6.171
14998TIP3    H144935   4.565   2.876   6.143
14998TIP3    H244936   4.671   2.979   6.113
14999TIP3   OH244937   0.243   0.359   1.103
14999TIP3    H144938   0.184   0.293   1.140
14999TIP3    H244939   0.261   0.328   1.014
15000TIP3   OH244940   5.731   1.793   3.814
15000TIP3    H144941   5.737   1.698   3.800
15000TIP3    H244942   5.665   1.803   3.883
15001TIP3   OH244943   4.214   3.088   1.362
15001TIP3    H144944   4.148   3.031   1.324
15001TIP3    H244945   4.203   3.171   1.316
15002TIP3   OH244946   0.916   2.603   0.729
15002TIP3    H144947   0.877   2.608   0.642
15002TIP3    H244948   0.842   2.610   0.789
15003TIP3   OH244949   4.389   0.664   2.062
15003TIP3    H144950   4.442   0.698   1.990
15003TIP3    H244951   4.322   0.611   2.019
15004TIP3   OH244952   3.838   1.270   0.708
15004TIP3    H144953   3.891   1.288   0.785
15004TIP3    H244954   3.835   1.354   0.661
15005TIP3   OH244955   1.498   0.367   3.012
15005TIP3    H144956   1.538   0.289   3.050
15005TIP3    H244957   1.507   0.355   2.918
15006TIP3   OH244958   6.447   5.289   4.936
15006TIP3    H144959   6.387   5.308   4.864
15006TIP3    H244960   6.407   5.333   5.011
15007TIP3   OH244961   0.036   5.491   1.444
15007TIP3    H144962   0.073   5.420   1.496
15007TIP3    H244963   0.024   5.563   1.505
15008TIP3   OH244964   6.259   6.326   2.993
15008TIP3    H144965   6.185   6.348   2.936
15008TIP3    H244966   6.335   6.364   2.949
15009TIP3   OH244967   0.353   2.206   5.572
15009TIP3    H144968   0.324   2.247   5.490
15009TIP3    H244969   0.434   2.252   5.594
15010TIP3   OH244970   2.188   5.881   5.369
15010TIP3    H144971   2.234   5.804   5.336
15010TIP3    H244972   2.172   5.934   5.291
15011TIP3   OH244973   6.941   5.854   0.727
15011TIP3    H144974   7.002   5.780   0.730
15011TIP3    H244975   6.919   5.863   0.634
15012TIP3   OH244976   6.708   7.668   2.724
15012TIP3    H144977   6.760   7.707   2.794
15012TIP3    H244978   6.670   7.742   2.677
15013TIP3   OH244979   7.474   7.329   5.014
15013TIP3    H144980   7.520   7.390   4.956
15013TIP3    H244981   7.420   7.385   5.070
15014TIP3   OH244982   7.613   0.857   1.384
15014TIP3    H144983   7.622   0.912   1.462
15014TIP3    H244984   7.689   0.881   1.330
15015TIP3   OH244985   5.256   1.917   4.811
15015TIP3    H144986   5.164   1.937   4.829
15015TIP3    H244987   5.273   1.837   4.861
15016TIP3   OH244988   3.823   0.081   6.817
15016TIP3    H144989   3.803   0.080   6.910
15016TIP3    H244990   3.740   0.100   6.774
15017TIP3   OH244991   2.779   1.091   3.740
15017TIP3    H144992   2.748   1.093   3.650
15017TIP3    H244993   2.732   1.162   3.784
15018TIP3   OH244994   0.563   1.824   1.963
15018TIP3    H144995   0.475   1.850   1.936
15018TIP3    H244996   0.550   1.764   2.036
15019TIP3   OH244997   0.759   1.373   3.666
15019TIP3    H144998   0.804   1.316   3.604
15019TIP3    H244999   0.667   1.348   3.661
15020TIP3   OH245000   1.507   7.264   0.485
15020TIP3    H145001   1.568   7.336   0.497
15020TIP3    H245002   1.528   7.229   0.398
15021TIP3   OH245003   2.439   4.199   5.471
15021TIP3    H145004   2.447   4.283   5.427
15021TIP3    H245005   2.480   4.213   5.557
15022TIP3   OH245006   6.575   1.446   1.365
15022TIP3    H145007   6.577   1.384   1.438
15022TIP3    H245008   6.485   1.440   1.331
15023TIP3   OH245009   6.171   4.990   0.247
15023TIP3    H145010   6.077   5.005   0.239
15023TIP3    H245011   6.210   5.077   0.245
15024TIP3   OH245012   0.955   0.219   5.277
15024TIP3    H145013   1.032   0.275   5.269
15024TIP3    H245014   0.956   0.189   5.368
15025TIP3   OH245015   8.000   0.027   4.709
15025TIP3    H145016   7.951   0.087   4.766
15025TIP3    H245017   7.934  -0.007   4.648
15026TIP3   OH245018   7.387   5.797   0.065
15026TIP3    H145019   7.478   5.817   0.089
15026TIP3    H245020   7.369   5.714   0.109
15027TIP3   OH245021   0.810   3.750   2.935
15027TIP3    H145022   0.781   3.770   2.846
15027TIP3    H245023   0.760   3.672   2.960
15028TIP3   OH245024   5.702   2.485   4.212
15028TIP3    H145025   5.693   2.574   4.180
15028TIP3    H245026   5.617   2.444   4.196
15029TIP3   OH245027   6.256   1.225   6.231
15029TIP3    H145028   6.308   1.157   6.188
15029TIP3    H245029   6.212   1.271   6.160
15030TIP3   OH245030   5.509   0.802   3.006
15030TIP3    H145031   5.435   0.805   2.945
15030TIP3    H245032   5.584   0.830   2.954
15031TIP3   OH245033   8.018   1.250   2.518
15031TIP3    H145034   8.096   1.206   2.483
15031TIP3    H245035   8.003   1.209   2.603
15032TIP3   OH245036   3.007   0.991   0.827
15032TIP3    H145037   3.079   1.040   0.788
15032TIP3    H245038   2.965   1.052   0.887
15033TIP3   OH245039   7.422   7.514   3.732
15033TIP3    H145040   7.465   7.575   3.793
15033TIP3    H245041   7.392   7.570   3.660
15034TIP3   OH245042   3.907   6.077   1.750
15034TIP3    H145043   3.839   6.072   1.817
15034TIP3    H245044   3.942   6.165   1.758
15035TIP3   OH245045   4.101   6.004   0.602
15035TIP3    H145046   4.151   6.038   0.528
15035TIP3    H245047   4.168   5.984   0.668
15036TIP3   OH245048   1.204   4.052   4.294
15036TIP3    H145049   1.187   4.146   4.289
15036TIP3    H245050   1.134   4.012   4.242
15037TIP3   OH245051   6.559   4.086   6.488
15037TIP3    H145052   6.511   4.121   6.413
15037TIP3    H245053   6.496   4.085   6.560
15038TIP3   OH245054   6.660   7.825   6.149
15038TIP3    H145055   6.599   7.758   6.182
15038TIP3    H245056   6.731   7.775   6.109
15039TIP3   OH245057   8.219   3.759   5.630
15039TIP3    H145058   8.146   3.819   5.637
15039TIP3    H245059   8.200   3.690   5.694
15040TIP3   OH245060   7.774   2.292   2.513
15040TIP3    H145061   7.798   2.384   2.499
15040TIP3    H245062   7.847   2.255   2.562
15041TIP3   OH245063   4.319   0.345   6.314
15041TIP3    H145064   4.317   0.347   6.409
15041TIP3    H245065   4.332   0.252   6.293
15042TIP3   OH245066   0.373   4.178   0.616
15042TIP3    H145067   0.277   4.173   0.616
15042TIP3    H245068   0.401   4.088   0.598
15043TIP3   OH245069   5.912   6.988   3.010
15043TIP3    H145070   6.007   7.001   3.012
15043TIP3    H245071   5.898   6.912   3.067
15044TIP3   OH245072   4.778   6.056   5.792
15044TIP3    H145073   4.802   6.108   5.715
15044TIP3    H245074   4.825   5.974   5.782
15045TIP3   OH245075   7.746   3.672   4.122
15045TIP3    H145076   7.698   3.691   4.203
15045TIP3    H245077   7.814   3.740   4.118
15046TIP3   OH245078   6.042   0.266   3.707
15046TIP3    H145079   6.125   0.242   3.747
15046TIP3    H245080   5.989   0.187   3.712
15047TIP3   OH245081   6.939   5.928   0.151
15047TIP3    H145082   6.856   5.915   0.197
15047TIP3    H245083   7.003   5.943   0.221
15048TIP3   OH245084   2.721   1.820   3.546
15048TIP3    H145085   2.684   1.785   3.627
15048TIP3    H245086   2.808   1.851   3.571
15049TIP3   OH245087   3.141   2.994   6.401
15049TIP3    H145088   3.179   3.072   6.441
15049TIP3    H245089   3.061   3.025   6.358
15050TIP3   OH245090   4.964   1.619   3.739
15050TIP3    H145091   5.055   1.606   3.767
15050TIP3    H245092   4.934   1.531   3.717
15051TIP3   OH245093   3.143   3.970   5.599
15051TIP3    H145094   3.196   4.039   5.560
15051TIP3    H245095   3.076   3.951   5.533
15052TIP3   OH245096   4.328   7.691   5.437
15052TIP3    H145097   4.259   7.636   5.401
15052TIP3    H245098   4.404   7.673   5.382
15053TIP3   OH245099   4.076   6.262   0.231
15053TIP3    H145100   4.042   6.284   0.145
15053TIP3    H245101   4.003   6.278   0.291
15054TIP3   OH245102   3.485   4.701   1.346
15054TIP3    H145103   3.560   4.753   1.375
15054TIP3    H245104   3.497   4.694   1.251
15055TIP3   OH245105   0.501   1.345   1.760
15055TIP3    H145106   0.532   1.264   1.800
15055TIP3    H245107   0.518   1.334   1.666
15056TIP3   OH245108   3.524   3.793   3.125
15056TIP3    H145109   3.458   3.725   3.140
15056TIP3    H245110   3.483   3.852   3.062
15057TIP3   OH245111   6.742   5.463   6.379
15057TIP3    H145112   6.759   5.413   6.300
15057TIP3    H245113   6.716   5.550   6.348
15058TIP3   OH245114   2.703   6.843   0.575
15058TIP3    H145115   2.778   6.857   0.633
15058TIP3    H245116   2.627   6.855   0.632
15059TIP3   OH245117   0.229   0.677   1.478
15059TIP3    H145118   0.192   0.735   1.545
15059TIP3    H245119   0.270   0.737   1.415
15060TIP3   OH245120   3.955   2.232   6.066
15060TIP3    H145121   3.963   2.236   5.970
15060TIP3    H245122   3.936   2.322   6.092
15061TIP3   OH245123   3.958   2.838   4.802
15061TIP3    H145124   3.880   2.784   4.815
15061TIP3    H245125   3.983   2.866   4.891
15062TIP3   OH245126   1.020   4.042   3.615
15062TIP3    H145127   0.946   3.982   3.617
15062TIP3    H245128   1.058   4.030   3.528
15063TIP3   OH245129   0.862   4.444   1.216
15063TIP3    H145130   0.931   4.392   1.256
15063TIP3    H245131   0.906   4.492   1.146
15064TIP3   OH245132   0.839   6.461   3.053
15064TIP3    H145133   0.792   6.451   3.136
15064TIP3    H245134   0.774   6.497   2.993
15065TIP3   OH245135   4.690   0.438   2.838
15065TIP3    H145136   4.636   0.411   2.764
15065TIP3    H245137   4.754   0.367   2.848
15066TIP3   OH245138   0.778   7.666   4.054
15066TIP3    H145139   0.749   7.663   3.962
15066TIP3    H245140   0.873   7.654   4.050
15067TIP3   OH245141   0.447   0.877   4.755
15067TIP3    H145142   0.487   0.819   4.691
15067TIP3    H245143   0.424   0.820   4.828
15068TIP3   OH245144   2.033   6.995   2.729
15068TIP3    H145145   2.029   7.087   2.757
15068TIP3    H245146   1.943   6.973   2.705
15069TIP3   OH245147   7.771   4.222   1.986
15069TIP3    H145148   7.832   4.176   1.927
15069TIP3    H245149   7.789   4.185   2.072
15070TIP3   OH245150   0.324   7.923   0.634
15070TIP3    H145151   0.346   7.837   0.599
15070TIP3    H245152   0.238   7.911   0.676
15071TIP3   OH245153   7.255   0.675   6.250
15071TIP3    H145154   7.227   0.670   6.158
15071TIP3    H245155   7.204   0.608   6.294
15072TIP3   OH245156   2.397   4.645   1.717
15072TIP3    H145157   2.397   4.667   1.810
15072TIP3    H245158   2.335   4.707   1.678
15073TIP3   OH245159   7.556   6.826   1.998
15073TIP3    H145160   7.528   6.850   1.909
15073TIP3    H245161   7.554   6.730   1.999
15074TIP3   OH245162   3.448   4.423   2.126
15074TIP3    H145163   3.532   4.376   2.119
15074TIP3    H245164   3.423   4.440   2.036
15075TIP3   OH245165   3.755   3.164   3.193
15075TIP3    H145166   3.757   3.075   3.156
15075TIP3    H245167   3.738   3.150   3.286
15076TIP3   OH245168   2.840   7.780   4.354
15076TIP3    H145169   2.776   7.805   4.420
15076TIP3    H245170   2.919   7.760   4.404
15077TIP3   OH245171   6.510   2.597   0.178
15077TIP3    H145172   6.470   2.638   0.255
15077TIP3    H245173   6.472   2.644   0.104
15078TIP3   OH245174   1.995   1.146   0.746
15078TIP3    H145175   1.920   1.097   0.781
15078TIP3    H245176   2.020   1.099   0.667
15079TIP3   OH245177   3.683   0.393   5.318
15079TIP3    H145178   3.598   0.428   5.290
15079TIP3    H245179   3.663   0.342   5.396
15080TIP3   OH245180   5.718   4.858   5.961
15080TIP3    H145181   5.633   4.824   5.990
15080TIP3    H245182   5.779   4.786   5.979
15081TIP3   OH245183   0.490   7.883   4.771
15081TIP3    H145184   0.575   7.841   4.785
15081TIP3    H245185   0.458   7.847   4.689
15082TIP3   OH245186   6.622   6.750   6.523
15082TIP3    H145187   6.679   6.718   6.593
15082TIP3    H245188   6.533   6.732   6.554
15083TIP3   OH245189   4.554   6.391   5.601
15083TIP3    H145190   4.594   6.451   5.537
15083TIP3    H245191   4.555   6.440   5.683
15084TIP3   OH245192   8.225   7.689   6.745
15084TIP3    H145193   8.157   7.714   6.682
15084TIP3    H245194   8.307   7.706   6.699
15085TIP3   OH245195   8.057   4.818   0.051
15085TIP3    H145196   8.077   4.766   0.128
15085TIP3    H245197   7.992   4.766   0.003
15086TIP3   OH245198   8.399   4.910   6.396
15086TIP3    H145199   8.422   4.830   6.349
15086TIP3    H245200   8.310   4.894   6.429
15087TIP3   OH245201   8.152   6.056   3.172
15087TIP3    H145202   8.060   6.058   3.146
15087TIP3    H245203   8.150   6.028   3.264
15088TIP3   OH245204   6.961   4.967   6.858
15088TIP3    H145205   6.975   5.059   6.878
15088TIP3    H245206   7.045   4.935   6.827
15089TIP3   OH245207   8.222   7.628   2.636
15089TIP3    H145208   8.292   7.580   2.591
15089TIP3    H245209   8.148   7.567   2.636
15090TIP3   OH245210   8.326   2.766   3.564
15090TIP3    H145211   8.271   2.841   3.583
15090TIP3    H245212   8.282   2.721   3.492
15091TIP3   OH245213   4.852   2.002   1.260
15091TIP3    H145214   4.856   1.913   1.295
15091TIP3    H245215   4.942   2.034   1.267
15092TIP3   OH245216   0.423   7.055   0.790
15092TIP3    H145217   0.410   7.149   0.780
15092TIP3    H245218   0.384   7.033   0.874
15093TIP3   OH245219   7.466   1.540   5.516
15093TIP3    H145220   7.370   1.539   5.524
15093TIP3    H245221   7.497   1.542   5.607
15094TIP3   OH245222   3.990   6.422   5.011
15094TIP3    H145223   3.949   6.341   5.040
15094TIP3    H245224   3.939   6.491   5.053
15095TIP3   OH245225   1.249   6.174   6.265
15095TIP3    H145226   1.299   6.244   6.224
15095TIP3    H245227   1.185   6.148   6.198
15096TIP3   OH245228   4.741   0.011   2.121
15096TIP3    H145229   4.647   0.024   2.115
15096TIP3    H245230   4.779   0.098   2.107
15097TIP3   OH245231   2.814   7.874   2.749
15097TIP3    H145232   2.797   7.948   2.691
15097TIP3    H245233   2.850   7.806   2.692
15098TIP3   OH245234   6.342   4.293   4.840
15098TIP3    H145235   6.404   4.234   4.884
15098TIP3    H245236   6.288   4.235   4.786
15099TIP3   OH245237   5.067   1.074   3.375
15099TIP3    H145238   5.135   1.025   3.329
15099TIP3    H245239   5.114   1.148   3.415
15100TIP3   OH245240   6.786   6.736   6.766
15100TIP3    H145241   6.744   6.809   6.813
15100TIP3    H245242   6.866   6.719   6.815
15101TIP3   OH245243   8.246   4.015   6.365
15101TIP3    H145244   8.305   4.077   6.408
15101TIP3    H245245   8.170   4.010   6.424
15102TIP3   OH245246   1.250   5.861   3.344
15102TIP3    H145247   1.219   5.951   3.352
15102TIP3    H245248   1.267   5.849   3.251
15103TIP3   OH245249   0.673   2.054   4.072
15103TIP3    H145250   0.633   2.141   4.082
15103TIP3    H245251   0.662   2.034   3.979
15104TIP3   OH245252   1.158   3.087   1.824
15104TIP3    H145253   1.102   3.057   1.896
15104TIP3    H245254   1.103   3.145   1.773
15105TIP3   OH245255   3.815   3.607   5.460
15105TIP3    H145256   3.731   3.582   5.497
15105TIP3    H245257   3.866   3.638   5.536
15106TIP3   OH245258   4.480   6.930   3.469
15106TIP3    H145259   4.441   6.845   3.492
15106TIP3    H245260   4.405   6.984   3.444
15107TIP3   OH245261   3.030   4.519   0.879
15107TIP3    H145262   3.034   4.564   0.794
15107TIP3    H245263   3.099   4.453   0.875
15108TIP3   OH245264   3.614   0.770   1.207
15108TIP3    H145265   3.575   0.791   1.292
15108TIP3    H245266   3.706   0.752   1.227
15109TIP3   OH245267   0.584   3.564   0.384
15109TIP3    H145268   0.630   3.496   0.335
15109TIP3    H245269   0.500   3.525   0.407
15110TIP3   OH245270   2.683   7.139   5.123
15110TIP3    H145271   2.664   7.045   5.132
15110TIP3    H245272   2.652   7.161   5.036
15111TIP3   OH245273   0.697   0.368   4.922
15111TIP3    H145274   0.688   0.427   4.997
15111TIP3    H245275   0.625   0.305   4.932
15112TIP3   OH245276   4.207   2.088   6.163
15112TIP3    H145277   4.120   2.127   6.151
15112TIP3    H245278   4.267   2.149   6.120
15113TIP3   OH245279   5.465   6.288   5.526
15113TIP3    H145280   5.425   6.220   5.472
15113TIP3    H245281   5.391   6.335   5.565
15114TIP3   OH245282   3.329   6.530   6.419
15114TIP3    H145283   3.266   6.600   6.434
15114TIP3    H245284   3.296   6.484   6.342
15115TIP3   OH245285   4.366   1.368   1.752
15115TIP3    H145286   4.367   1.299   1.818
15115TIP3    H245287   4.326   1.327   1.676
15116TIP3   OH245288   0.851   2.324   1.093
15116TIP3    H145289   0.768   2.276   1.084
15116TIP3    H245290   0.917   2.264   1.060
15117TIP3   OH245291   7.834   1.346   6.862
15117TIP3    H145292   7.871   1.423   6.819
15117TIP3    H245293   7.897   1.276   6.845
15118TIP3   OH245294   8.014   4.709   0.622
15118TIP3    H145295   8.064   4.646   0.569
15118TIP3    H245296   8.069   4.723   0.699
15119TIP3   OH245297   6.780   7.053   5.374
15119TIP3    H145298   6.780   7.004   5.457
15119TIP3    H245299   6.862   7.027   5.332
15120TIP3   OH245300   3.736   6.899   1.012
15120TIP3    H145301   3.674   6.839   1.054
15120TIP3    H245302   3.812   6.900   1.070
15121TIP3   OH245303   2.154   7.912   3.795
15121TIP3    H145304   2.217   7.972   3.755
15121TIP3    H245305   2.204   7.833   3.814
15122TIP3   OH245306   5.969   1.619   6.251
15122TIP3    H145307   5.888   1.654   6.214
15122TIP3    H245308   6.030   1.617   6.178
15123TIP3   OH245309   3.808   5.143   1.450
15123TIP3    H145310   3.815   5.210   1.518
15123TIP3    H245311   3.894   5.141   1.409
15124TIP3   OH245312   4.355   0.773   5.043
15124TIP3    H145313   4.413   0.841   5.076
15124TIP3    H245314   4.267   0.807   5.059
15125TIP3   OH245315   2.045   2.391   3.501
15125TIP3    H145316   2.021   2.431   3.584
15125TIP3    H245317   2.031   2.297   3.514
15126TIP3   OH245318   2.845   3.921   6.512
15126TIP3    H145319   2.911   3.990   6.517
15126TIP3    H245320   2.772   3.954   6.565
15127TIP3   OH245321   5.240   7.808   0.811
15127TIP3    H145322   5.154   7.843   0.837
15127TIP3    H245323   5.300   7.843   0.877
15128TIP3   OH245324   2.082   2.247   4.662
15128TIP3    H145325   2.091   2.167   4.610
15128TIP3    H245326   2.097   2.318   4.600
15129TIP3   OH245327   0.217   0.045   4.132
15129TIP3    H145328   0.227   0.087   4.217
15129TIP3    H245329   0.123   0.046   4.115
15130TIP3   OH245330   5.622   3.650   1.621
15130TIP3    H145331   5.659   3.701   1.549
15130TIP3    H245332   5.529   3.641   1.599
15131TIP3   OH245333   6.656   5.184   1.269
15131TIP3    H145334   6.696   5.240   1.335
15131TIP3    H245335   6.571   5.224   1.251
15132TIP3   OH245336   7.137   3.078   1.394
15132TIP3    H145337   7.060   3.111   1.348
15132TIP3    H245338   7.167   3.003   1.342
15133TIP3   OH245339   7.044   4.422   6.160
15133TIP3    H145340   6.973   4.361   6.176
15133TIP3    H245341   7.114   4.368   6.123
15134TIP3   OH245342   4.843   7.087   5.209
15134TIP3    H145343   4.899   7.110   5.284
15134TIP3    H245344   4.791   7.013   5.241
15135TIP3   OH245345   1.484   7.604   0.635
15135TIP3    H145346   1.555   7.542   0.652
15135TIP3    H245347   1.496   7.631   0.545
15136TIP3   OH245348   3.154   7.773   3.954
15136TIP3    H145349   3.061   7.782   3.935
15136TIP3    H245350   3.161   7.796   4.047
15137TIP3   OH245351   6.818   4.149   3.904
15137TIP3    H145352   6.876   4.203   3.957
15137TIP3    H245353   6.736   4.198   3.900
15138TIP3   OH245354   2.864   7.660   1.701
15138TIP3    H145355   2.901   7.708   1.775
15138TIP3    H245356   2.875   7.568   1.724
15139TIP3   OH245357   5.248   6.043   6.623
15139TIP3    H145358   5.255   6.082   6.710
15139TIP3    H245359   5.333   6.001   6.609
15140TIP3   OH245360   6.167   2.288   1.224
15140TIP3    H145361   6.247   2.243   1.249
15140TIP3    H245362   6.139   2.245   1.143
15141TIP3   OH245363   5.059   4.325   6.315
15141TIP3    H145364   5.102   4.295   6.395
15141TIP3    H245365   5.041   4.418   6.330
15142TIP3   OH245366   1.317   7.216   1.904
15142TIP3    H145367   1.326   7.170   1.821
15142TIP3    H245368   1.370   7.295   1.894
15143TIP3   OH245369   5.694   0.670   5.201
15143TIP3    H145370   5.628   0.721   5.250
15143TIP3    H245371   5.754   0.638   5.268
15144TIP3   OH245372   2.892   3.491   0.468
15144TIP3    H145373   2.861   3.524   0.552
15144TIP3    H245374   2.930   3.406   0.488
15145TIP3   OH245375   5.044   2.308   4.197
15145TIP3    H145376   5.070   2.220   4.172
15145TIP3    H245377   4.950   2.302   4.213
15146TIP3   OH245378   2.146   4.783   1.013
15146TIP3    H145379   2.164   4.864   1.062
15146TIP3    H245380   2.211   4.721   1.045
15147TIP3   OH245381   1.887   2.310   1.262
15147TIP3    H145382   1.901   2.401   1.286
15147TIP3    H245383   1.925   2.302   1.174
15148TIP3   OH245384   1.471   3.885   4.848
15148TIP3    H145385   1.457   3.839   4.931
15148TIP3    H245386   1.441   3.825   4.781
15149TIP3   OH245387   5.442   6.873   0.922
15149TIP3    H145388   5.427   6.818   0.845
15149TIP3    H245389   5.364   6.861   0.976
15150TIP3   OH245390   7.571   4.496   3.960
15150TIP3    H145391   7.571   4.473   4.053
15150TIP3    H245392   7.619   4.578   3.955
15151TIP3   OH245393   3.848   3.109   3.773
15151TIP3    H145394   3.854   3.096   3.868
15151TIP3    H245395   3.853   3.021   3.736
15152TIP3   OH245396   4.676   5.518   4.142
15152TIP3    H145397   4.646   5.560   4.061
15152TIP3    H245398   4.629   5.435   4.144
15153TIP3   OH245399   3.798   0.586   1.830
15153TIP3    H145400   3.751   0.509   1.797
15153TIP3    H245401   3.891   0.566   1.815
15154TIP3   OH245402   6.917   5.313   5.265
15154TIP3    H145403   6.886   5.331   5.176
15154TIP3    H245404   6.946   5.398   5.298
15155TIP3   OH245405   0.304   2.718   4.827
15155TIP3    H145406   0.345   2.645   4.781
15155TIP3    H245407   0.343   2.796   4.788
15156TIP3   OH245408   5.549   7.768   2.686
15156TIP3    H145409   5.614   7.838   2.681
15156TIP3    H245410   5.556   7.722   2.603
15157TIP3   OH245411   4.239   6.724   5.228
15157TIP3    H145412   4.157   6.773   5.237
15157TIP3    H245413   4.292   6.777   5.168
15158TIP3   OH245414   6.121   0.118   1.284
15158TIP3    H145415   6.153   0.102   1.194
15158TIP3    H245416   6.192   0.085   1.340
15159TIP3   OH245417   4.018   2.854   6.649
15159TIP3    H145418   4.002   2.804   6.729
15159TIP3    H245419   4.097   2.905   6.667
15160TIP3   OH245420   6.398   3.789   0.706
15160TIP3    H145421   6.466   3.787   0.773
15160TIP3    H245422   6.442   3.827   0.629
15161TIP3   OH245423   2.574   1.452   4.009
15161TIP3    H145424   2.660   1.493   4.024
15161TIP3    H245425   2.548   1.419   4.095
15162TIP3   OH245426   6.784   1.729   2.802
15162TIP3    H145427   6.719   1.783   2.759
15162TIP3    H245428   6.827   1.681   2.731
15163TIP3   OH245429   0.637   5.318   2.294
15163TIP3    H145430   0.671   5.278   2.374
15163TIP3    H245431   0.571   5.256   2.262
15164TIP3   OH245432   7.948   7.303   6.718
15164TIP3    H145433   8.027   7.258   6.687
15164TIP3    H245434   7.973   7.395   6.725
15165TIP3   OH245435   7.194   3.562   3.373
15165TIP3    H145436   7.105   3.576   3.342
15165TIP3    H245437   7.227   3.651   3.390
15166TIP3   OH245438   7.643   6.688   4.791
15166TIP3    H145439   7.706   6.655   4.726
15166TIP3    H245440   7.660   6.637   4.869
15167TIP3   OH245441   5.201   4.106   2.490
15167TIP3    H145442   5.249   4.025   2.507
15167TIP3    H245443   5.219   4.126   2.398
15168TIP3   OH245444   7.720   1.218   4.352
15168TIP3    H145445   7.727   1.296   4.298
15168TIP3    H245446   7.799   1.217   4.405
15169TIP3   OH245447   5.646   2.146   3.355
15169TIP3    H145448   5.652   2.050   3.358
15169TIP3    H245449   5.599   2.169   3.435
15170TIP3   OH245450   0.207   7.470   4.205
15170TIP3    H145451   0.237   7.556   4.175
15170TIP3    H245452   0.224   7.412   4.131
15171TIP3   OH245453   0.404   7.367   1.313
15171TIP3    H145454   0.403   7.451   1.359
15171TIP3    H245455   0.462   7.312   1.366
15172TIP3   OH245456   3.313   0.939   2.476
15172TIP3    H145457   3.371   0.887   2.420
15172TIP3    H245458   3.334   0.910   2.565
15173TIP3   OH245459   2.153   7.090   1.009
15173TIP3    H145460   2.140   7.051   0.922
15173TIP3    H245461   2.234   7.139   1.001
15174TIP3   OH245462   6.787   5.311   0.287
15174TIP3    H145463   6.874   5.290   0.251
15174TIP3    H245464   6.788   5.273   0.375
15175TIP3   OH245465   1.181   5.043   2.888
15175TIP3    H145466   1.101   5.069   2.843
15175TIP3    H245467   1.246   5.035   2.818
15176TIP3   OH245468   0.630   4.325   0.337
15176TIP3    H145469   0.560   4.259   0.339
15176TIP3    H245470   0.626   4.362   0.249
15177TIP3   OH245471   1.520   1.908   2.169
15177TIP3    H145472   1.514   1.974   2.100
15177TIP3    H245473   1.473   1.832   2.134
15178TIP3   OH245474   2.722   4.856   5.450
15178TIP3    H145475   2.720   4.760   5.454
15178TIP3    H245476   2.630   4.882   5.441
15179TIP3   OH245477   6.951   4.926   0.324
15179TIP3    H145478   6.994   4.997   0.275
15179TIP3    H245479   6.994   4.928   0.410
15180TIP3   OH245480   1.947   6.318   5.962
15180TIP3    H145481   2.023   6.369   5.987
15180TIP3    H245482   1.912   6.361   5.884
15181TIP3   OH245483   4.556   3.247   3.748
15181TIP3    H145484   4.515   3.161   3.757
15181TIP3    H245485   4.565   3.259   3.654
15182TIP3   OH245486   7.529   5.238   0.538
15182TIP3    H145487   7.574   5.256   0.456
15182TIP3    H245488   7.454   5.298   0.539
15183TIP3   OH245489   0.497   7.513   4.089
15183TIP3    H145490   0.571   7.454   4.106
15183TIP3    H245491   0.495   7.522   3.994
15184TIP3   OH245492   6.745   4.587   5.880
15184TIP3    H145493   6.700   4.574   5.796
15184TIP3    H245494   6.738   4.502   5.924
15185TIP3   OH245495   5.117   3.257   0.650
15185TIP3    H145496   5.107   3.172   0.694
15185TIP3    H245497   5.159   3.312   0.716
15186TIP3   OH245498   5.421   4.688   2.979
15186TIP3    H145499   5.390   4.599   2.963
15186TIP3    H245500   5.398   4.705   3.071
15187TIP3   OH245501   2.369   2.917   2.050
15187TIP3    H145502   2.392   2.831   2.017
15187TIP3    H245503   2.274   2.925   2.036
15188TIP3   OH245504   6.210   0.185   5.623
15188TIP3    H145505   6.207   0.158   5.531
15188TIP3    H245506   6.126   0.157   5.658
15189TIP3   OH245507   2.063   1.220   3.918
15189TIP3    H145508   2.060   1.304   3.964
15189TIP3    H245509   2.080   1.243   3.827
15190TIP3   OH245510   5.628   4.893   6.349
15190TIP3    H145511   5.640   4.805   6.314
15190TIP3    H245512   5.674   4.950   6.287
15191TIP3   OH245513   6.323   4.554   5.479
15191TIP3    H145514   6.253   4.508   5.525
15191TIP3    H245515   6.286   4.574   5.393
15192TIP3   OH245516   3.773   4.078   6.407
15192TIP3    H145517   3.858   4.035   6.401
15192TIP3    H245518   3.711   4.015   6.371
15193TIP3   OH245519   0.157   0.530   2.654
15193TIP3    H145520   0.195   0.557   2.738
15193TIP3    H245521   0.227   0.547   2.591
15194TIP3   OH245522   8.304   7.868   4.043
15194TIP3    H145523   8.214   7.875   4.073
15194TIP3    H245524   8.345   7.950   4.070
15195TIP3   OH245525   0.324   3.966   1.579
15195TIP3    H145526   0.295   4.000   1.494
15195TIP3    H245527   0.399   4.021   1.602
15196TIP3   OH245528   5.324   0.896   3.280
15196TIP3    H145529   5.405   0.939   3.252
15196TIP3    H245530   5.339   0.803   3.263
15197TIP3   OH245531   1.276   0.295   0.898
15197TIP3    H145532   1.261   0.308   0.804
15197TIP3    H245533   1.190   0.311   0.938
15198TIP3   OH245534   2.765   7.588   0.540
15198TIP3    H145535   2.790   7.598   0.448
15198TIP3    H245536   2.833   7.532   0.577
15199TIP3   OH245537   7.708   5.314   2.572
15199TIP3    H145538   7.739   5.249   2.509
15199TIP3    H245539   7.717   5.270   2.657
15200TIP3   OH245540   5.728   6.112   5.380
15200TIP3    H145541   5.769   6.148   5.459
15200TIP3    H245542   5.676   6.185   5.345
15201TIP3   OH245543   1.042   7.327   2.847
15201TIP3    H145544   0.952   7.352   2.868
15201TIP3    H245545   1.093   7.353   2.924
15202TIP3   OH245546   8.354   6.280   3.155
15202TIP3    H145547   8.259   6.290   3.151
15202TIP3    H245548   8.377   6.233   3.076
15203TIP3   OH245549   5.836   5.093   5.686
15203TIP3    H145550   5.890   5.168   5.714
15203TIP3    H245551   5.897   5.035   5.642
15204TIP3   OH245552   8.384   0.941   6.368
15204TIP3    H145553   8.325   0.975   6.301
15204TIP3    H245554   8.469   0.977   6.345
15205TIP3   OH245555   5.587   1.912   2.121
15205TIP3    H145556   5.611   1.851   2.051
15205TIP3    H245557   5.494   1.895   2.137
15206TIP3   OH245558   7.154   1.609   1.855
15206TIP3    H145559   7.247   1.588   1.845
15206TIP3    H245560   7.146   1.698   1.820
15207TIP3   OH245561   0.366   0.769   5.671
15207TIP3    H145562   0.308   0.767   5.748
15207TIP3    H245563   0.309   0.750   5.597
15208TIP3   OH245564   6.650   6.260   2.114
15208TIP3    H145565   6.569   6.261   2.064
15208TIP3    H245566   6.719   6.275   2.049
15209TIP3   OH245567   1.443   7.600   4.728
15209TIP3    H145568   1.449   7.587   4.823
15209TIP3    H245569   1.354   7.632   4.714
15210TIP3   OH245570   3.664   0.957   4.562
15210TIP3    H145571   3.701   1.000   4.639
15210TIP3    H245572   3.716   0.878   4.551
15211TIP3   OH245573   0.051   7.577   3.811
15211TIP3    H145574  -0.020   7.583   3.875
15211TIP3    H245575   0.032   7.647   3.748
15212TIP3   OH245576   1.315   6.042   2.052
15212TIP3    H145577   1.257   6.023   1.978
15212TIP3    H245578   1.276   5.995   2.126
15213TIP3   OH245579   0.219   2.237   1.699
15213TIP3    H145580   0.256   2.317   1.735
15213TIP3    H245581   0.295   2.184   1.674
15214TIP3   OH245582   1.444   5.244   1.524
15214TIP3    H145583   1.513   5.182   1.549
15214TIP3    H245584   1.427   5.295   1.603
15215TIP3   OH245585   5.123   0.113   2.972
15215TIP3    H145586   5.098   0.057   3.045
15215TIP3    H245587   5.212   0.142   2.993
15216TIP3   OH245588   6.721   0.972   5.448
15216TIP3    H145589   6.675   0.971   5.364
15216TIP3    H245590   6.662   1.018   5.508
15217TIP3   OH245591   6.901   3.429   5.821
15217TIP3    H145592   6.836   3.472   5.766
15217TIP3    H245593   6.980   3.482   5.811
15218TIP3   OH245594   3.775   6.312   3.829
15218TIP3    H145595   3.761   6.271   3.915
15218TIP3    H245596   3.784   6.238   3.769
15219TIP3   OH245597   4.664   5.195   1.701
15219TIP3    H145598   4.746   5.145   1.701
15219TIP3    H245599   4.687   5.278   1.743
15220TIP3   OH245600   1.324   2.862   2.196
15220TIP3    H145601   1.315   2.797   2.266
15220TIP3    H245602   1.269   2.935   2.223
15221TIP3   OH245603   3.539   4.864   1.118
15221TIP3    H145604   3.558   4.947   1.163
15221TIP3    H245605   3.599   4.862   1.044
15222TIP3   OH245606   5.658   3.006   5.666
15222TIP3    H145607   5.712   3.059   5.608
15222TIP3    H245608   5.720   2.952   5.714
15223TIP3   OH245609   0.829   5.655   0.612
15223TIP3    H145610   0.798   5.573   0.651
15223TIP3    H245611   0.826   5.638   0.517
15224TIP3   OH245612   0.314   4.911   3.015
15224TIP3    H145613   0.265   4.987   2.982
15224TIP3    H245614   0.365   4.881   2.939
15225TIP3   OH245615   1.434   5.136   1.262
15225TIP3    H145616   1.458   5.178   1.344
15225TIP3    H245617   1.377   5.063   1.287
15226TIP3   OH245618   2.025   4.319   6.306
15226TIP3    H145619   2.073   4.317   6.389
15226TIP3    H245620   2.054   4.240   6.260
15227TIP3   OH245621   2.312   0.562   0.785
15227TIP3    H145622   2.233   0.546   0.734
15227TIP3    H245623   2.329   0.480   0.831
15228TIP3   OH245624   2.126   1.010   1.738
15228TIP3    H145625   2.137   1.105   1.745
15228TIP3    H245626   2.058   0.989   1.802
15229TIP3   OH245627   5.504   2.096   2.910
15229TIP3    H145628   5.595   2.069   2.897
15229TIP3    H245629   5.509   2.162   2.980
15230TIP3   OH245630   0.015   3.278   6.417
15230TIP3    H145631   0.052   3.218   6.352
15230TIP3    H245632   0.054   3.251   6.500
15231TIP3   OH245633   1.974   0.738   2.962
15231TIP3    H145634   2.009   0.658   2.923
15231TIP3    H245635   1.880   0.735   2.943
15232TIP3   OH245636   3.134   7.076   6.724
15232TIP3    H145637   3.203   7.019   6.759
15232TIP3    H245638   3.056   7.053   6.774
15233TIP3   OH245639   1.694   2.892   3.818
15233TIP3    H145640   1.733   2.844   3.891
15233TIP3    H245641   1.611   2.848   3.801
15234TIP3   OH245642   2.073   2.797   1.200
15234TIP3    H145643   2.087   2.844   1.118
15234TIP3    H245644   2.027   2.717   1.174
15235TIP3   OH245645   6.362   5.510   6.122
15235TIP3    H145646   6.348   5.505   6.028
15235TIP3    H245647   6.415   5.433   6.143
15236TIP3   OH245648   4.021   5.280   0.928
15236TIP3    H145649   3.989   5.193   0.952
15236TIP3    H245650   4.088   5.263   0.862
15237TIP3   OH245651   4.008   1.607   3.291
15237TIP3    H145652   4.029   1.700   3.292
15237TIP3    H245653   3.948   1.595   3.365
15238TIP3   OH245654   3.111   6.860   5.872
15238TIP3    H145655   3.034   6.858   5.930
15238TIP3    H245656   3.182   6.824   5.925
15239TIP3   OH245657   4.696   0.759   2.868
15239TIP3    H145658   4.728   0.670   2.856
15239TIP3    H245659   4.709   0.777   2.962
15240TIP3   OH245660   0.345   1.787   2.350
15240TIP3    H145661   0.368   1.834   2.270
15240TIP3    H245662   0.285   1.718   2.322
15241TIP3   OH245663   3.057   2.744   0.694
15241TIP3    H145664   3.101   2.745   0.608
15241TIP3    H245665   2.996   2.818   0.690
15242TIP3   OH245666   5.962   2.269   1.691
15242TIP3    H145667   5.967   2.224   1.775
15242TIP3    H245668   5.938   2.359   1.714
15243TIP3   OH245669   5.957   7.273   3.498
15243TIP3    H145670   5.950   7.361   3.534
15243TIP3    H245671   6.002   7.285   3.414
15244TIP3   OH245672   8.124   4.118   6.794
15244TIP3    H145673   8.203   4.071   6.821
15244TIP3    H245674   8.155   4.206   6.773
15245TIP3   OH245675   2.942   2.101   0.818
15245TIP3    H145676   2.905   2.170   0.762
15245TIP3    H245677   3.032   2.128   0.833
15246TIP3   OH245678   0.668   2.041   2.672
15246TIP3    H145679   0.751   2.063   2.713
15246TIP3    H245680   0.678   1.949   2.646
15247TIP3   OH245681   2.275   3.600   6.525
15247TIP3    H145682   2.200   3.548   6.554
15247TIP3    H245683   2.281   3.583   6.431
15248TIP3   OH245684   2.667   1.525   2.056
15248TIP3    H145685   2.756   1.560   2.056
15248TIP3    H245686   2.640   1.528   2.148
15249TIP3   OH245687   2.044   7.919   0.819
15249TIP3    H145688   1.986   7.994   0.806
15249TIP3    H245689   2.007   7.850   0.763
15250TIP3   OH245690   0.222   4.408   0.795
15250TIP3    H145691   0.277   4.343   0.840
15250TIP3    H245692   0.283   4.453   0.736
15251TIP3   OH245693   1.813   3.975   5.295
15251TIP3    H145694   1.885   3.941   5.347
15251TIP3    H245695   1.739   3.918   5.314
15252TIP3   OH245696   7.704   6.168   1.185
15252TIP3    H145697   7.664   6.210   1.261
15252TIP3    H245698   7.738   6.085   1.219
15253TIP3   OH245699   7.235   7.269   3.364
15253TIP3    H145700   7.255   7.178   3.388
15253TIP3    H245701   7.155   7.262   3.311
15254TIP3   OH245702   3.860   7.303   3.863
15254TIP3    H145703   3.948   7.272   3.843
15254TIP3    H245704   3.843   7.274   3.953
15255TIP3   OH245705   6.450   4.288   2.977
15255TIP3    H145706   6.358   4.275   2.956
15255TIP3    H245707   6.476   4.208   3.023
15256TIP3   OH245708   4.415   2.943   5.466
15256TIP3    H145709   4.474   3.016   5.485
15256TIP3    H245710   4.465   2.865   5.489
15257TIP3   OH245711   7.074   0.478   6.156
15257TIP3    H145712   7.022   0.397   6.147
15257TIP3    H245713   7.152   0.461   6.104
15258TIP3   OH245714   5.948   7.700   0.460
15258TIP3    H145715   5.957   7.639   0.387
15258TIP3    H245716   6.038   7.711   0.492
15259TIP3   OH245717   5.122   6.090   3.943
15259TIP3    H145718   5.144   6.022   4.005
15259TIP3    H245719   5.046   6.056   3.896
15260TIP3   OH245720   3.309   1.813   1.692
15260TIP3    H145721   3.275   1.807   1.781
15260TIP3    H245722   3.231   1.812   1.637
15261TIP3   OH245723   2.561   6.559   2.380
15261TIP3    H145724   2.607   6.478   2.400
15261TIP3    H245725   2.630   6.625   2.373
15262TIP3   OH245726   1.338   6.660   2.143
15262TIP3    H145727   1.305   6.674   2.054
15262TIP3    H245728   1.406   6.726   2.154
15263TIP3   OH245729   5.246   3.904   0.248
15263TIP3    H145730   5.246   3.994   0.280
15263TIP3    H245731   5.335   3.889   0.217
15264TIP3   OH245732   7.736   2.809   1.344
15264TIP3    H145733   7.772   2.781   1.260
15264TIP3    H245734   7.678   2.738   1.371
15265TIP3   OH245735   7.557   0.853   5.571
15265TIP3    H145736   7.521   0.845   5.659
15265TIP3    H245737   7.615   0.930   5.575
15266TIP3   OH245738   2.634   2.145   1.122
15266TIP3    H145739   2.728   2.129   1.128
15266TIP3    H245740   2.627   2.238   1.102
15267TIP3   OH245741   5.365   5.671   5.157
15267TIP3    H145742   5.390   5.580   5.140
15267TIP3    H245743   5.273   5.676   5.131
15268TIP3   OH245744   2.546   3.911   0.869
15268TIP3    H145745   2.589   3.834   0.908
15268TIP3    H245746   2.585   3.986   0.914
15269TIP3   OH245747   8.206   4.263   6.172
15269TIP3    H145748   8.261   4.238   6.098
15269TIP3    H245749   8.131   4.204   6.167
15270TIP3   OH245750   6.215   0.393   1.140
15270TIP3    H145751   6.252   0.477   1.113
15270TIP3    H245752   6.162   0.364   1.066
15271TIP3   OH245753   2.344   7.560   4.136
15271TIP3    H145754   2.427   7.602   4.114
15271TIP3    H245755   2.314   7.605   4.214
15272TIP3   OH245756   6.778   7.214   5.679
15272TIP3    H145757   6.753   7.195   5.769
15272TIP3    H245758   6.701   7.257   5.641
15273TIP3   OH245759   4.249   6.703   4.161
15273TIP3    H145760   4.204   6.787   4.164
15273TIP3    H245761   4.320   6.716   4.098
15274TIP3   OH245762   7.006   0.845   3.521
15274TIP3    H145763   6.948   0.884   3.587
15274TIP3    H245764   7.067   0.792   3.572
15275TIP3   OH245765   0.941   3.031   1.034
15275TIP3    H145766   0.888   3.103   1.001
15275TIP3    H245767   0.879   2.974   1.079
15276TIP3   OH245768   4.875   2.628   2.971
15276TIP3    H145769   4.842   2.539   2.959
15276TIP3    H245770   4.945   2.637   2.907
15277TIP3   OH245771   1.719   6.548   6.093
15277TIP3    H145772   1.709   6.532   6.187
15277TIP3    H245773   1.759   6.468   6.059
15278TIP3   OH245774   3.082   2.516   0.192
15278TIP3    H145775   3.145   2.461   0.145
15278TIP3    H245776   2.997   2.488   0.160
15279TIP3   OH245777   3.325   3.925   6.705
15279TIP3    H145778   3.384   3.865   6.659
15279TIP3    H245779   3.357   4.012   6.682
15280TIP3   OH245780   0.317   3.195   1.056
15280TIP3    H145781   0.251   3.261   1.036
15280TIP3    H245782   0.386   3.243   1.102
15281TIP3   OH245783   7.297   0.589   1.110
15281TIP3    H145784   7.336   0.629   1.033
15281TIP3    H245785   7.203   0.589   1.092
15282TIP3   OH245786   5.968   5.835   6.821
15282TIP3    H145787   6.058   5.855   6.795
15282TIP3    H245788   5.932   5.786   6.748
15283TIP3   OH245789   7.665   1.323   2.793
15283TIP3    H145790   7.701   1.255   2.736
15283TIP3    H245791   7.571   1.307   2.794
15284TIP3   OH245792   2.940   3.449   6.598
15284TIP3    H145793   2.948   3.479   6.507
15284TIP3    H245794   2.975   3.520   6.650
15285TIP3   OH245795   7.116   5.434   0.063
15285TIP3    H145796   7.205   5.465   0.076
15285TIP3    H245797   7.064   5.513   0.053
15286TIP3   OH245798   5.159   6.247   5.978
15286TIP3    H145799   5.117   6.303   5.912
15286TIP3    H245800   5.203   6.179   5.926
15287TIP3   OH245801   1.952   7.136   3.730
15287TIP3    H145802   1.977   7.102   3.644
15287TIP3    H245803   2.034   7.142   3.778
15288TIP3   OH245804   7.579   3.689   4.364
15288TIP3    H145805   7.544   3.664   4.450
15288TIP3    H245806   7.501   3.709   4.312
15289TIP3   OH245807   4.962   3.824   4.003
15289TIP3    H145808   5.052   3.851   3.982
15289TIP3    H245809   4.968   3.730   4.015
15290TIP3   OH245810   5.443   3.213   5.087
15290TIP3    H145811   5.511   3.278   5.104
15290TIP3    H245812   5.361   3.260   5.098
15291TIP3   OH245813   1.388   3.123   2.694
15291TIP3    H145814   1.318   3.154   2.636
15291TIP3    H245815   1.465   3.172   2.666
15292TIP3   OH245816   7.914   2.451   6.863
15292TIP3    H145817   7.929   2.379   6.803
15292TIP3    H245818   7.824   2.439   6.893
15293TIP3   OH245819   5.107   5.115   2.589
15293TIP3    H145820   5.159   5.196   2.588
15293TIP3    H245821   5.168   5.047   2.560
15294TIP3   OH245822   1.425   2.691   6.460
15294TIP3    H145823   1.517   2.682   6.483
15294TIP3    H245824   1.412   2.785   6.447
15295TIP3   OH245825   3.372   7.151   4.827
15295TIP3    H145826   3.457   7.109   4.815
15295TIP3    H245827   3.361   7.205   4.749
15296TIP3   OH245828   0.952   5.597   4.316
15296TIP3    H145829   0.999   5.574   4.397
15296TIP3    H245830   0.901   5.518   4.295
15297TIP3   OH245831   3.914   3.147   2.686
15297TIP3    H145832   3.871   3.186   2.763
15297TIP3    H245833   3.939   3.059   2.715
15298TIP3   OH245834   0.616   4.304   3.974
15298TIP3    H145835   0.708   4.301   4.002
15298TIP3    H245836   0.595   4.214   3.952
15299TIP3   OH245837   5.624   3.345   4.795
15299TIP3    H145838   5.605   3.438   4.782
15299TIP3    H245839   5.578   3.301   4.723
15300TIP3   OH245840   3.581   1.711   3.565
15300TIP3    H145841   3.626   1.645   3.617
15300TIP3    H245842   3.529   1.760   3.628
15301TIP3   OH245843   0.026   6.930   6.359
15301TIP3    H145844   0.081   6.977   6.296
15301TIP3    H245845   0.047   6.970   6.443
15302TIP3   OH245846   2.044   4.081   6.194
15302TIP3    H145847   2.096   4.041   6.263
15302TIP3    H245848   1.993   4.010   6.157
15303TIP3   OH245849   1.488   7.209   5.658
15303TIP3    H145850   1.555   7.190   5.723
15303TIP3    H245851   1.406   7.209   5.707
15304TIP3   OH245852   2.008   4.138   5.458
15304TIP3    H145853   1.960   4.137   5.541
15304TIP3    H245854   1.941   4.153   5.392
15305TIP3   OH245855   4.513   2.613   3.038
15305TIP3    H145856   4.434   2.590   3.086
15305TIP3    H245857   4.570   2.536   3.048
15306TIP3   OH245858   1.834   7.604   4.401
15306TIP3    H145859   1.904   7.539   4.399
15306TIP3    H245860   1.806   7.606   4.493
15307TIP3   OH245861   3.047   5.743   6.815
15307TIP3    H145862   3.048   5.828   6.771
15307TIP3    H245863   3.060   5.763   6.907
15308TIP3   OH245864   4.146   3.295   2.858
15308TIP3    H145865   4.073   3.297   2.919
15308TIP3    H245866   4.129   3.219   2.802
15309TIP3   OH245867   1.724   3.474   5.009
15309TIP3    H145868   1.796   3.523   4.968
15309TIP3    H245869   1.750   3.466   5.101
15310TIP3   OH245870   0.144   0.799   6.574
15310TIP3    H145871   0.151   0.893   6.585
15310TIP3    H245872   0.101   0.768   6.654
15311TIP3   OH245873   1.418   2.240   5.664
15311TIP3    H145874   1.469   2.205   5.737
15311TIP3    H245875   1.375   2.164   5.625
15312TIP3   OH245876   0.177   0.787   2.473
15312TIP3    H145877   0.230   0.710   2.492
15312TIP3    H245878   0.227   0.836   2.407
15313TIP3   OH245879   4.954   4.710   4.300
15313TIP3    H145880   4.990   4.653   4.368
15313TIP3    H245881   4.978   4.667   4.217
15314TIP3   OH245882   5.442   3.659   2.453
15314TIP3    H145883   5.384   3.604   2.400
15314TIP3    H245884   5.477   3.600   2.520
15315TIP3   OH245885   3.582   0.897   0.954
15315TIP3    H145886   3.572   0.882   1.048
15315TIP3    H245887   3.616   0.986   0.948
15316TIP3   OH245888   7.706   7.512   5.497
15316TIP3    H145889   7.627   7.458   5.484
15316TIP3    H245890   7.779   7.453   5.478
15317TIP3   OH245891   7.560   0.992   5.062
15317TIP3    H145892   7.622   1.027   4.998
15317TIP3    H245893   7.586   0.900   5.071
15318TIP3   OH245894   7.717   2.747   6.322
15318TIP3    H145895   7.674   2.832   6.330
15318TIP3    H245896   7.787   2.761   6.259
15319TIP3   OH245897   7.310   1.285   1.307
15319TIP3    H145898   7.295   1.210   1.249
15319TIP3    H245899   7.400   1.274   1.337
15320TIP3   OH245900   2.096   7.470   3.582
15320TIP3    H145901   2.130   7.381   3.571
15320TIP3    H245902   2.093   7.506   3.493
15321TIP3   OH245903   3.193   7.805   5.404
15321TIP3    H145904   3.118   7.798   5.344
15321TIP3    H245905   3.214   7.898   5.405
15322TIP3   OH245906   7.312   0.920   3.812
15322TIP3    H145907   7.337   0.995   3.759
15322TIP3    H245908   7.394   0.881   3.841
15323TIP3   OH245909   6.840   2.003   1.162
15323TIP3    H145910   6.911   1.952   1.123
15323TIP3    H245911   6.882   2.084   1.192
15324TIP3   OH245912   6.177   4.552   3.662
15324TIP3    H145913   6.174   4.460   3.687
15324TIP3    H245914   6.178   4.599   3.746
15325TIP3   OH245915   1.832   4.237   3.236
15325TIP3    H145916   1.872   4.324   3.237
15325TIP3    H245917   1.840   4.208   3.145
15326TIP3   OH245918   2.067   4.737   3.795
15326TIP3    H145919   2.072   4.646   3.824
15326TIP3    H245920   1.975   4.750   3.771
15327TIP3   OH245921   0.053   3.018   0.345
15327TIP3    H145922   0.114   3.089   0.325
15327TIP3    H245923   0.049   3.017   0.441
15328TIP3   OH245924   4.214   3.245   2.253
15328TIP3    H145925   4.189   3.338   2.255
15328TIP3    H245926   4.187   3.212   2.339
15329TIP3   OH245927   3.921   2.649   5.161
15329TIP3    H145928   4.000   2.693   5.193
15329TIP3    H245929   3.943   2.621   5.073
15330TIP3   OH245930   1.063   7.256   5.673
15330TIP3    H145931   1.087   7.238   5.764
15330TIP3    H245932   1.008   7.334   5.677
15331TIP3   OH245933   1.313   5.534   4.864
15331TIP3    H145934   1.347   5.564   4.948
15331TIP3    H245935   1.312   5.439   4.871
15332TIP3   OH245936   2.944   2.189   4.016
15332TIP3    H145937   2.890   2.151   4.086
15332TIP3    H245938   3.008   2.120   3.995
15333TIP3   OH245939   4.920   7.323   5.008
15333TIP3    H145940   4.969   7.347   5.087
15333TIP3    H245941   4.986   7.308   4.941
15334TIP3   OH245942   4.982   2.127   2.663
15334TIP3    H145943   4.910   2.177   2.625
15334TIP3    H245944   4.941   2.072   2.730
15335TIP3   OH245945   2.331   7.879   5.868
15335TIP3    H145946   2.286   7.947   5.919
15335TIP3    H245947   2.301   7.797   5.905
15336TIP3   OH245948   7.607   7.327   3.294
15336TIP3    H145949   7.582   7.283   3.213
15336TIP3    H245950   7.571   7.272   3.363
15337TIP3   OH245951   8.421   2.209   2.447
15337TIP3    H145952   8.329   2.224   2.426
15337TIP3    H245953   8.423   2.122   2.486
15338TIP3   OH245954   3.342   2.308   3.894
15338TIP3    H145955   3.409   2.338   3.955
15338TIP3    H245956   3.391   2.273   3.819
15339TIP3   OH245957   0.219   0.192   1.349
15339TIP3    H145958   0.266   0.140   1.284
15339TIP3    H245959   0.275   0.268   1.364
15340TIP3   OH245960   0.827   2.797   5.930
15340TIP3    H145961   0.832   2.702   5.919
15340TIP3    H245962   0.833   2.811   6.025
15341TIP3   OH245963   6.867   1.213   4.489
15341TIP3    H145964   6.863   1.301   4.527
15341TIP3    H245965   6.791   1.208   4.431
15342TIP3   OH245966   1.854   3.182   5.100
15342TIP3    H145967   1.929   3.237   5.122
15342TIP3    H245968   1.793   3.242   5.056
15343TIP3   OH245969   7.271   5.613   5.548
15343TIP3    H145970   7.244   5.617   5.640
15343TIP3    H245971   7.327   5.691   5.536
15344TIP3   OH245972   7.298   6.329   3.930
15344TIP3    H145973   7.370   6.371   3.884
15344TIP3    H245974   7.332   6.244   3.956
15345TIP3   OH245975   1.598   2.681   3.208
15345TIP3    H145976   1.639   2.661   3.124
15345TIP3    H245977   1.671   2.685   3.270
15346TIP3   OH245978   4.849   2.617   1.546
15346TIP3    H145979   4.886   2.652   1.627
15346TIP3    H245980   4.758   2.597   1.569
15347TIP3   OH245981   3.201   2.253   0.139
15347TIP3    H145982   3.177   2.241   0.231
15347TIP3    H245983   3.294   2.230   0.135
15348TIP3   OH245984   4.315   0.836   6.787
15348TIP3    H145985   4.249   0.775   6.820
15348TIP3    H245986   4.291   0.851   6.695
15349TIP3   OH245987   0.851   7.233   3.354
15349TIP3    H145988   0.757   7.221   3.341
15349TIP3    H245989   0.869   7.322   3.322
15350TIP3   OH245990   1.487   2.979   6.799
15350TIP3    H145991   1.451   3.067   6.789
15350TIP3    H245992   1.491   2.944   6.710
15351TIP3   OH245993   5.593   6.068   2.214
15351TIP3    H145994   5.569   6.156   2.243
15351TIP3    H245995   5.580   6.013   2.292
15352TIP3   OH245996   3.534   7.059   6.763
15352TIP3    H145997   3.592   7.135   6.759
15352TIP3    H245998   3.485   7.062   6.680
15353TIP3   OH245999   2.805   4.639   0.036
15353TIP3    H146000   2.811   4.647   0.131
15353TIP3    H246001   2.742   4.706   0.009
15354TIP3   OH246002   4.377   1.749   2.347
15354TIP3    H146003   4.364   1.809   2.274
15354TIP3    H246004   4.298   1.757   2.400
15355TIP3   OH246005   3.844   6.354   3.548
15355TIP3    H146006   3.838   6.345   3.643
15355TIP3    H246007   3.789   6.430   3.527
15356TIP3   OH246008   7.080   2.007   6.526
15356TIP3    H146009   7.016   1.948   6.485
15356TIP3    H246010   7.158   1.953   6.538
15357TIP3   OH246011   5.176   4.766   1.550
15357TIP3    H146012   5.213   4.703   1.488
15357TIP3    H246013   5.096   4.796   1.509
15358TIP3   OH246014   3.898   2.590   0.398
15358TIP3    H146015   3.839   2.595   0.322
15358TIP3    H246016   3.841   2.563   0.470
15359TIP3   OH246017   8.308   5.045   4.403
15359TIP3    H146018   8.345   5.106   4.467
15359TIP3    H246019   8.285   4.967   4.455
15360TIP3   OH246020   3.621   2.057   5.330
15360TIP3    H146021   3.547   2.046   5.390
15360TIP3    H246022   3.616   2.149   5.303
15361TIP3   OH246023   7.301   3.188   5.123
15361TIP3    H146024   7.368   3.187   5.191
15361TIP3    H246025   7.276   3.096   5.111
15362TIP3   OH246026   5.882   5.056   2.102
15362TIP3    H146027   5.904   4.979   2.154
15362TIP3    H246028   5.789   5.072   2.120
15363TIP3   OH246029   1.691   3.522   0.544
15363TIP3    H146030   1.642   3.448   0.582
15363TIP3    H246031   1.752   3.481   0.482
15364TIP3   OH246032   3.578   2.306   1.170
15364TIP3    H146033   3.565   2.400   1.180
15364TIP3    H246034   3.510   2.266   1.223
15365TIP3   OH246035   0.608   4.800   4.305
15365TIP3    H146036   0.625   4.764   4.392
15365TIP3    H246037   0.527   4.759   4.277
15366TIP3   OH246038   7.145   6.222   3.698
15366TIP3    H146039   7.109   6.147   3.746
15366TIP3    H246040   7.189   6.275   3.764
15367TIP3   OH246041   3.005   3.583   0.764
15367TIP3    H146042   3.041   3.503   0.803
15367TIP3    H246043   2.962   3.627   0.837
15368TIP3   OH246044   2.105   0.223   3.863
15368TIP3    H146045   2.196   0.236   3.892
15368TIP3    H246046   2.100   0.129   3.842
15369TIP3   OH246047   7.090   2.902   0.270
15369TIP3    H146048   6.998   2.913   0.294
15369TIP3    H246049   7.087   2.855   0.186
15370TIP3   OH246050   5.356   5.994   4.793
15370TIP3    H146051   5.267   5.977   4.824
15370TIP3    H246052   5.391   6.057   4.856
15371TIP3   OH246053   1.312   5.556   5.425
15371TIP3    H146054   1.310   5.645   5.390
15371TIP3    H246055   1.371   5.509   5.366
   8.40168   7.92117   6.85994   0.00000   0.00000  -2.80056   0.00000  -2.80056  -3.96059
