PSF EXT CMAP XPLOR

         3 !NTITLE
* GENERATED BY CHARMM-GUI (HTTP://WWW.CHARMM-GUI.ORG) V3.7 ON JUN, 13. 2026. JOB
* READ PDB, MANIPULATE STRUCTURE IF NEEDED, AND GENERATE TOPOLOGY FILE          
*  DATE:     6/13/26      8:35:29      CREATED BY USER: charmm-gui              

       201 !NATOM
         1 PROA     1        GLY      N        NH3     -0.300000       14.0070           0
         2 PROA     1        GLY      HT1      HC       0.330000       1.00800           0
         3 PROA     1        GLY      HT2      HC       0.330000       1.00800           0
         4 PROA     1        GLY      HT3      HC       0.330000       1.00800           0
         5 PROA     1        GLY      CA       CT2      0.130000       12.0110           0
         6 PROA     1        GLY      HA1      HB2      0.900000E-01   1.00800           0
         7 PROA     1        GLY      HA2      HB2      0.900000E-01   1.00800           0
         8 PROA     1        GLY      C        C        0.510000       12.0110           0
         9 PROA     1        GLY      O        O       -0.510000       15.9994           0
        10 PROA     2        PRO      N        N       -0.290000       14.0070           0
        11 PROA     2        PRO      CD       CP3       0.00000       12.0110           0
        12 PROA     2        PRO      HD1      HA2      0.900000E-01   1.00800           0
        13 PROA     2        PRO      HD2      HA2      0.900000E-01   1.00800           0
        14 PROA     2        PRO      CA       CP1      0.200000E-01   12.0110           0
        15 PROA     2        PRO      HA       HB1      0.900000E-01   1.00800           0
        16 PROA     2        PRO      CB       CP2     -0.180000       12.0110           0
        17 PROA     2        PRO      HB1      HA2      0.900000E-01   1.00800           0
        18 PROA     2        PRO      HB2      HA2      0.900000E-01   1.00800           0
        19 PROA     2        PRO      CG       CP2     -0.180000       12.0110           0
        20 PROA     2        PRO      HG1      HA2      0.900000E-01   1.00800           0
        21 PROA     2        PRO      HG2      HA2      0.900000E-01   1.00800           0
        22 PROA     2        PRO      C        C        0.510000       12.0110           0
        23 PROA     2        PRO      O        O       -0.510000       15.9994           0
        24 PROA     3        GLY      N        NH1     -0.470000       14.0070           0
        25 PROA     3        GLY      HN       H        0.310000       1.00800           0
        26 PROA     3        GLY      CA       CT2     -0.200000E-01   12.0110           0
        27 PROA     3        GLY      HA1      HB2      0.900000E-01   1.00800           0
        28 PROA     3        GLY      HA2      HB2      0.900000E-01   1.00800           0
        29 PROA     3        GLY      C        C        0.510000       12.0110           0
        30 PROA     3        GLY      O        O       -0.510000       15.9994           0
        31 PROA     4        ASP      N        NH1     -0.470000       14.0070           0
        32 PROA     4        ASP      HN       H        0.310000       1.00800           0
        33 PROA     4        ASP      CA       CT1      0.700000E-01   12.0110           0
        34 PROA     4        ASP      HA       HB1      0.900000E-01   1.00800           0
        35 PROA     4        ASP      CB       CT2A    -0.280000       12.0110           0
        36 PROA     4        ASP      HB1      HA2      0.900000E-01   1.00800           0
        37 PROA     4        ASP      HB2      HA2      0.900000E-01   1.00800           0
        38 PROA     4        ASP      CG       CC       0.620000       12.0110           0
        39 PROA     4        ASP      OD1      OC      -0.760000       15.9994           0
        40 PROA     4        ASP      OD2      OC      -0.760000       15.9994           0
        41 PROA     4        ASP      C        C        0.510000       12.0110           0
        42 PROA     4        ASP      O        O       -0.510000       15.9994           0
        43 PROA     5        PRO      N        N       -0.290000       14.0070           0
        44 PROA     5        PRO      CD       CP3       0.00000       12.0110           0
        45 PROA     5        PRO      HD1      HA2      0.900000E-01   1.00800           0
        46 PROA     5        PRO      HD2      HA2      0.900000E-01   1.00800           0
        47 PROA     5        PRO      CA       CP1      0.200000E-01   12.0110           0
        48 PROA     5        PRO      HA       HB1      0.900000E-01   1.00800           0
        49 PROA     5        PRO      CB       CP2     -0.180000       12.0110           0
        50 PROA     5        PRO      HB1      HA2      0.900000E-01   1.00800           0
        51 PROA     5        PRO      HB2      HA2      0.900000E-01   1.00800           0
        52 PROA     5        PRO      CG       CP2     -0.180000       12.0110           0
        53 PROA     5        PRO      HG1      HA2      0.900000E-01   1.00800           0
        54 PROA     5        PRO      HG2      HA2      0.900000E-01   1.00800           0
        55 PROA     5        PRO      C        C        0.510000       12.0110           0
        56 PROA     5        PRO      O        O       -0.510000       15.9994           0
        57 PROA     6        GLY      N        NH1     -0.470000       14.0070           0
        58 PROA     6        GLY      HN       H        0.310000       1.00800           0
        59 PROA     6        GLY      CA       CT2     -0.200000E-01   12.0110           0
        60 PROA     6        GLY      HA1      HB2      0.900000E-01   1.00800           0
        61 PROA     6        GLY      HA2      HB2      0.900000E-01   1.00800           0
        62 PROA     6        GLY      C        C        0.510000       12.0110           0
        63 PROA     6        GLY      O        O       -0.510000       15.9994           0
        64 PROA     7        SER      N        NH1     -0.470000       14.0070           0
        65 PROA     7        SER      HN       H        0.310000       1.00800           0
        66 PROA     7        SER      CA       CT1      0.700000E-01   12.0110           0
        67 PROA     7        SER      HA       HB1      0.900000E-01   1.00800           0
        68 PROA     7        SER      CB       CT2      0.500000E-01   12.0110           0
        69 PROA     7        SER      HB1      HA2      0.900000E-01   1.00800           0
        70 PROA     7        SER      HB2      HA2      0.900000E-01   1.00800           0
        71 PROA     7        SER      OG       OH1     -0.660000       15.9994           0
        72 PROA     7        SER      HG1      H        0.430000       1.00800           0
        73 PROA     7        SER      C        C        0.510000       12.0110           0
        74 PROA     7        SER      O        O       -0.510000       15.9994           0
        75 PROA     8        GLY      N        NH1     -0.470000       14.0070           0
        76 PROA     8        GLY      HN       H        0.310000       1.00800           0
        77 PROA     8        GLY      CA       CT2     -0.200000E-01   12.0110           0
        78 PROA     8        GLY      HA1      HB2      0.900000E-01   1.00800           0
        79 PROA     8        GLY      HA2      HB2      0.900000E-01   1.00800           0
        80 PROA     8        GLY      C        C        0.510000       12.0110           0
        81 PROA     8        GLY      O        O       -0.510000       15.9994           0
        82 PROA     9        PRO      N        N       -0.290000       14.0070           0
        83 PROA     9        PRO      CD       CP3       0.00000       12.0110           0
        84 PROA     9        PRO      HD1      HA2      0.900000E-01   1.00800           0
        85 PROA     9        PRO      HD2      HA2      0.900000E-01   1.00800           0
        86 PROA     9        PRO      CA       CP1      0.200000E-01   12.0110           0
        87 PROA     9        PRO      HA       HB1      0.900000E-01   1.00800           0
        88 PROA     9        PRO      CB       CP2     -0.180000       12.0110           0
        89 PROA     9        PRO      HB1      HA2      0.900000E-01   1.00800           0
        90 PROA     9        PRO      HB2      HA2      0.900000E-01   1.00800           0
        91 PROA     9        PRO      CG       CP2     -0.180000       12.0110           0
        92 PROA     9        PRO      HG1      HA2      0.900000E-01   1.00800           0
        93 PROA     9        PRO      HG2      HA2      0.900000E-01   1.00800           0
        94 PROA     9        PRO      C        C        0.510000       12.0110           0
        95 PROA     9        PRO      O        O       -0.510000       15.9994           0
        96 PROA     10       GLY      N        NH1     -0.470000       14.0070           0
        97 PROA     10       GLY      HN       H        0.310000       1.00800           0
        98 PROA     10       GLY      CA       CT2     -0.200000E-01   12.0110           0
        99 PROA     10       GLY      HA1      HB2      0.900000E-01   1.00800           0
       100 PROA     10       GLY      HA2      HB2      0.900000E-01   1.00800           0
       101 PROA     10       GLY      C        C        0.510000       12.0110           0
       102 PROA     10       GLY      O        O       -0.510000       15.9994           0
       103 PROA     11       ASP      N        NH1     -0.470000       14.0070           0
       104 PROA     11       ASP      HN       H        0.310000       1.00800           0
       105 PROA     11       ASP      CA       CT1      0.700000E-01   12.0110           0
       106 PROA     11       ASP      HA       HB1      0.900000E-01   1.00800           0
       107 PROA     11       ASP      CB       CT2A    -0.280000       12.0110           0
       108 PROA     11       ASP      HB1      HA2      0.900000E-01   1.00800           0
       109 PROA     11       ASP      HB2      HA2      0.900000E-01   1.00800           0
       110 PROA     11       ASP      CG       CC       0.620000       12.0110           0
       111 PROA     11       ASP      OD1      OC      -0.760000       15.9994           0
       112 PROA     11       ASP      OD2      OC      -0.760000       15.9994           0
       113 PROA     11       ASP      C        C        0.510000       12.0110           0
       114 PROA     11       ASP      O        O       -0.510000       15.9994           0
       115 PROA     12       PRO      N        N       -0.290000       14.0070           0
       116 PROA     12       PRO      CD       CP3       0.00000       12.0110           0
       117 PROA     12       PRO      HD1      HA2      0.900000E-01   1.00800           0
       118 PROA     12       PRO      HD2      HA2      0.900000E-01   1.00800           0
       119 PROA     12       PRO      CA       CP1      0.200000E-01   12.0110           0
       120 PROA     12       PRO      HA       HB1      0.900000E-01   1.00800           0
       121 PROA     12       PRO      CB       CP2     -0.180000       12.0110           0
       122 PROA     12       PRO      HB1      HA2      0.900000E-01   1.00800           0
       123 PROA     12       PRO      HB2      HA2      0.900000E-01   1.00800           0
       124 PROA     12       PRO      CG       CP2     -0.180000       12.0110           0
       125 PROA     12       PRO      HG1      HA2      0.900000E-01   1.00800           0
       126 PROA     12       PRO      HG2      HA2      0.900000E-01   1.00800           0
       127 PROA     12       PRO      C        C        0.510000       12.0110           0
       128 PROA     12       PRO      O        O       -0.510000       15.9994           0
       129 PROA     13       GLY      N        NH1     -0.470000       14.0070           0
       130 PROA     13       GLY      HN       H        0.310000       1.00800           0
       131 PROA     13       GLY      CA       CT2     -0.200000E-01   12.0110           0
       132 PROA     13       GLY      HA1      HB2      0.900000E-01   1.00800           0
       133 PROA     13       GLY      HA2      HB2      0.900000E-01   1.00800           0
       134 PROA     13       GLY      C        C        0.510000       12.0110           0
       135 PROA     13       GLY      O        O       -0.510000       15.9994           0
       136 PROA     14       SER      N        NH1     -0.470000       14.0070           0
       137 PROA     14       SER      HN       H        0.310000       1.00800           0
       138 PROA     14       SER      CA       CT1      0.700000E-01   12.0110           0
       139 PROA     14       SER      HA       HB1      0.900000E-01   1.00800           0
       140 PROA     14       SER      CB       CT2      0.500000E-01   12.0110           0
       141 PROA     14       SER      HB1      HA2      0.900000E-01   1.00800           0
       142 PROA     14       SER      HB2      HA2      0.900000E-01   1.00800           0
       143 PROA     14       SER      OG       OH1     -0.660000       15.9994           0
       144 PROA     14       SER      HG1      H        0.430000       1.00800           0
       145 PROA     14       SER      C        C        0.510000       12.0110           0
       146 PROA     14       SER      O        O       -0.510000       15.9994           0
       147 PROA     15       GLY      N        NH1     -0.470000       14.0070           0
       148 PROA     15       GLY      HN       H        0.310000       1.00800           0
       149 PROA     15       GLY      CA       CT2     -0.200000E-01   12.0110           0
       150 PROA     15       GLY      HA1      HB2      0.900000E-01   1.00800           0
       151 PROA     15       GLY      HA2      HB2      0.900000E-01   1.00800           0
       152 PROA     15       GLY      C        C        0.510000       12.0110           0
       153 PROA     15       GLY      O        O       -0.510000       15.9994           0
       154 PROA     16       PRO      N        N       -0.290000       14.0070           0
       155 PROA     16       PRO      CD       CP3       0.00000       12.0110           0
       156 PROA     16       PRO      HD1      HA2      0.900000E-01   1.00800           0
       157 PROA     16       PRO      HD2      HA2      0.900000E-01   1.00800           0
       158 PROA     16       PRO      CA       CP1      0.200000E-01   12.0110           0
       159 PROA     16       PRO      HA       HB1      0.900000E-01   1.00800           0
       160 PROA     16       PRO      CB       CP2     -0.180000       12.0110           0
       161 PROA     16       PRO      HB1      HA2      0.900000E-01   1.00800           0
       162 PROA     16       PRO      HB2      HA2      0.900000E-01   1.00800           0
       163 PROA     16       PRO      CG       CP2     -0.180000       12.0110           0
       164 PROA     16       PRO      HG1      HA2      0.900000E-01   1.00800           0
       165 PROA     16       PRO      HG2      HA2      0.900000E-01   1.00800           0
       166 PROA     16       PRO      C        C        0.510000       12.0110           0
       167 PROA     16       PRO      O        O       -0.510000       15.9994           0
       168 PROA     17       GLY      N        NH1     -0.470000       14.0070           0
       169 PROA     17       GLY      HN       H        0.310000       1.00800           0
       170 PROA     17       GLY      CA       CT2     -0.200000E-01   12.0110           0
       171 PROA     17       GLY      HA1      HB2      0.900000E-01   1.00800           0
       172 PROA     17       GLY      HA2      HB2      0.900000E-01   1.00800           0
       173 PROA     17       GLY      C        C        0.510000       12.0110           0
       174 PROA     17       GLY      O        O       -0.510000       15.9994           0
       175 PROA     18       ASP      N        NH1     -0.470000       14.0070           0
       176 PROA     18       ASP      HN       H        0.310000       1.00800           0
       177 PROA     18       ASP      CA       CT1      0.700000E-01   12.0110           0
       178 PROA     18       ASP      HA       HB1      0.900000E-01   1.00800           0
       179 PROA     18       ASP      CB       CT2A    -0.280000       12.0110           0
       180 PROA     18       ASP      HB1      HA2      0.900000E-01   1.00800           0
       181 PROA     18       ASP      HB2      HA2      0.900000E-01   1.00800           0
       182 PROA     18       ASP      CG       CC       0.620000       12.0110           0
       183 PROA     18       ASP      OD1      OC      -0.760000       15.9994           0
       184 PROA     18       ASP      OD2      OC      -0.760000       15.9994           0
       185 PROA     18       ASP      C        C        0.510000       12.0110           0
       186 PROA     18       ASP      O        O       -0.510000       15.9994           0
       187 PROA     19       PRO      N        N       -0.290000       14.0070           0
       188 PROA     19       PRO      CD       CP3       0.00000       12.0110           0
       189 PROA     19       PRO      HD1      HA2      0.900000E-01   1.00800           0
       190 PROA     19       PRO      HD2      HA2      0.900000E-01   1.00800           0
       191 PROA     19       PRO      CA       CP1      0.200000E-01   12.0110           0
       192 PROA     19       PRO      HA       HB1      0.900000E-01   1.00800           0
       193 PROA     19       PRO      CB       CP2     -0.180000       12.0110           0
       194 PROA     19       PRO      HB1      HA2      0.900000E-01   1.00800           0
       195 PROA     19       PRO      HB2      HA2      0.900000E-01   1.00800           0
       196 PROA     19       PRO      CG       CP2     -0.180000       12.0110           0
       197 PROA     19       PRO      HG1      HA2      0.900000E-01   1.00800           0
       198 PROA     19       PRO      HG2      HA2      0.900000E-01   1.00800           0
       199 PROA     19       PRO      C        CC       0.340000       12.0110           0
       200 PROA     19       PRO      OT1      OC      -0.670000       15.9994           0
       201 PROA     19       PRO      OT2      OC      -0.670000       15.9994           0

       206 !NBOND: bonds
         2         1         3         1         4         1         1         5
         8         5         8        10         5         6         5         7
         9         8        22        14        22        24        10        14
        14        16        16        19        19        11        10        11
        15        14        20        19        21        19        12        11
        13        11        17        16        18        16        23        22
        24        25        24        26        29        26        29        31
        26        27        26        28        30        29        35        33
        38        35        40        38        31        32        31        33
        41        33        41        43        33        34        35        36
        35        37        42        41        38        39        55        47
        55        57        43        47        47        49        49        52
        52        44        43        44        48        47        53        52
        54        52        45        44        46        44        50        49
        51        49        56        55        57        58        57        59
        62        59        62        64        59        60        59        61
        63        62        68        66        71        68        64        65
        64        66        73        66        73        75        66        67
        68        69        68        70        71        72        74        73
        75        76        75        77        80        77        80        82
        77        78        77        79        81        80        94        86
        94        96        82        86        86        88        88        91
        91        83        82        83        87        86        92        91
        93        91        84        83        85        83        89        88
        90        88        95        94        96        97        96        98
       101        98       101       103        98        99        98       100
       102       101       107       105       110       107       112       110
       103       104       103       105       113       105       113       115
       105       106       107       108       107       109       114       113
       110       111       127       119       127       129       115       119
       119       121       121       124       124       116       115       116
       120       119       125       124       126       124       117       116
       118       116       122       121       123       121       128       127
       129       130       129       131       134       131       134       136
       131       132       131       133       135       134       140       138
       143       140       136       137       136       138       145       138
       145       147       138       139       140       141       140       142
       143       144       146       145       147       148       147       149
       152       149       152       154       149       150       149       151
       153       152       166       158       166       168       154       158
       158       160       160       163       163       155       154       155
       159       158       164       163       165       163       156       155
       157       155       161       160       162       160       167       166
       168       169       168       170       173       170       173       175
       170       171       170       172       174       173       179       177
       182       179       184       182       175       176       175       177
       185       177       185       187       177       178       179       180
       179       181       186       185       182       183       199       191
       187       191       191       193       193       196       196       188
       187       188       192       191       197       196       198       196
       189       188       190       188       194       193       195       193
       199       201       199       200

       380 !NTHETA: angles
         2         1         3         2         1         4         2         1         5
         3         1         4         3         1         5         4         1         5
         1         5         6         1         5         7         1         5         8
         6         5         7         6         5         8         7         5         8
         5         8         9         5         8        10         9         8        10
         8        10        11         8        10        14        11        10        14
        10        11        12        10        11        13        10        11        19
        12        11        13        12        11        19        13        11        19
        10        14        15        10        14        16        10        14        22
        15        14        16        15        14        22        16        14        22
        14        16        17        14        16        18        14        16        19
        17        16        18        17        16        19        18        16        19
        11        19        16        11        19        20        11        19        21
        16        19        20        16        19        21        20        19        21
        14        22        23        14        22        24        23        22        24
        22        24        25        22        24        26        25        24        26
        24        26        27        24        26        28        24        26        29
        27        26        28        27        26        29        28        26        29
        26        29        30        26        29        31        30        29        31
        29        31        32        29        31        33        32        31        33
        31        33        34        31        33        35        31        33        41
        34        33        35        34        33        41        35        33        41
        33        35        36        33        35        37        33        35        38
        36        35        37        36        35        38        37        35        38
        35        38        39        35        38        40        39        38        40
        33        41        42        33        41        43        42        41        43
        41        43        44        41        43        47        44        43        47
        43        44        45        43        44        46        43        44        52
        45        44        46        45        44        52        46        44        52
        43        47        48        43        47        49        43        47        55
        48        47        49        48        47        55        49        47        55
        47        49        50        47        49        51        47        49        52
        50        49        51        50        49        52        51        49        52
        44        52        49        44        52        53        44        52        54
        49        52        53        49        52        54        53        52        54
        47        55        56        47        55        57        56        55        57
        55        57        58        55        57        59        58        57        59
        57        59        60        57        59        61        57        59        62
        60        59        61        60        59        62        61        59        62
        59        62        63        59        62        64        63        62        64
        62        64        65        62        64        66        65        64        66
        64        66        67        64        66        68        64        66        73
        67        66        68        67        66        73        68        66        73
        66        68        69        66        68        70        66        68        71
        69        68        70        69        68        71        70        68        71
        68        71        72        66        73        74        66        73        75
        74        73        75        73        75        76        73        75        77
        76        75        77        75        77        78        75        77        79
        75        77        80        78        77        79        78        77        80
        79        77        80        77        80        81        77        80        82
        81        80        82        80        82        83        80        82        86
        83        82        86        82        83        84        82        83        85
        82        83        91        84        83        85        84        83        91
        85        83        91        82        86        87        82        86        88
        82        86        94        87        86        88        87        86        94
        88        86        94        86        88        89        86        88        90
        86        88        91        89        88        90        89        88        91
        90        88        91        83        91        88        83        91        92
        83        91        93        88        91        92        88        91        93
        92        91        93        86        94        95        86        94        96
        95        94        96        94        96        97        94        96        98
        97        96        98        96        98        99        96        98       100
        96        98       101        99        98       100        99        98       101
       100        98       101        98       101       102        98       101       103
       102       101       103       101       103       104       101       103       105
       104       103       105       103       105       106       103       105       107
       103       105       113       106       105       107       106       105       113
       107       105       113       105       107       108       105       107       109
       105       107       110       108       107       109       108       107       110
       109       107       110       107       110       111       107       110       112
       111       110       112       105       113       114       105       113       115
       114       113       115       113       115       116       113       115       119
       116       115       119       115       116       117       115       116       118
       115       116       124       117       116       118       117       116       124
       118       116       124       115       119       120       115       119       121
       115       119       127       120       119       121       120       119       127
       121       119       127       119       121       122       119       121       123
       119       121       124       122       121       123       122       121       124
       123       121       124       116       124       121       116       124       125
       116       124       126       121       124       125       121       124       126
       125       124       126       119       127       128       119       127       129
       128       127       129       127       129       130       127       129       131
       130       129       131       129       131       132       129       131       133
       129       131       134       132       131       133       132       131       134
       133       131       134       131       134       135       131       134       136
       135       134       136       134       136       137       134       136       138
       137       136       138       136       138       139       136       138       140
       136       138       145       139       138       140       139       138       145
       140       138       145       138       140       141       138       140       142
       138       140       143       141       140       142       141       140       143
       142       140       143       140       143       144       138       145       146
       138       145       147       146       145       147       145       147       148
       145       147       149       148       147       149       147       149       150
       147       149       151       147       149       152       150       149       151
       150       149       152       151       149       152       149       152       153
       149       152       154       153       152       154       152       154       155
       152       154       158       155       154       158       154       155       156
       154       155       157       154       155       163       156       155       157
       156       155       163       157       155       163       154       158       159
       154       158       160       154       158       166       159       158       160
       159       158       166       160       158       166       158       160       161
       158       160       162       158       160       163       161       160       162
       161       160       163       162       160       163       155       163       160
       155       163       164       155       163       165       160       163       164
       160       163       165       164       163       165       158       166       167
       158       166       168       167       166       168       166       168       169
       166       168       170       169       168       170       168       170       171
       168       170       172       168       170       173       171       170       172
       171       170       173       172       170       173       170       173       174
       170       173       175       174       173       175       173       175       176
       173       175       177       176       175       177       175       177       178
       175       177       179       175       177       185       178       177       179
       178       177       185       179       177       185       177       179       180
       177       179       181       177       179       182       180       179       181
       180       179       182       181       179       182       179       182       183
       179       182       184       183       182       184       177       185       186
       177       185       187       186       185       187       185       187       188
       185       187       191       188       187       191       187       188       189
       187       188       190       187       188       196       189       188       190
       189       188       196       190       188       196       187       191       192
       187       191       193       187       191       199       192       191       193
       192       191       199       193       191       199       191       193       194
       191       193       195       191       193       196       194       193       195
       194       193       196       195       193       196       188       196       193
       188       196       197       188       196       198       193       196       197
       193       196       198       197       196       198       191       199       200
       191       199       201       200       199       201

       570 !NPHI: dihedrals
         1         5         8         9         1         5         8        10
         2         1         5         6         2         1         5         7
         2         1         5         8         3         1         5         6
         3         1         5         7         3         1         5         8
         4         1         5         6         4         1         5         7
         4         1         5         8         5         8        10        11
         5         8        10        14         6         5         8         9
         6         5         8        10         7         5         8         9
         7         5         8        10         8        10        11        12
         8        10        11        13         8        10        11        19
         8        10        14        15         8        10        14        16
         8        10        14        22         9         8        10        11
         9         8        10        14        10        11        19        16
        10        11        19        20        10        11        19        21
        10        14        16        17        10        14        16        18
        10        14        16        19        10        14        22        23
        10        14        22        24        11        10        14        15
        11        10        14        16        11        10        14        22
        11        19        16        14        11        19        16        17
        11        19        16        18        12        11        10        14
        12        11        19        16        12        11        19        20
        12        11        19        21        13        11        10        14
        13        11        19        16        13        11        19        20
        13        11        19        21        14        10        11        19
        14        16        19        20        14        16        19        21
        14        22        24        25        14        22        24        26
        15        14        16        17        15        14        16        18
        15        14        16        19        15        14        22        23
        15        14        22        24        16        14        22        23
        16        14        22        24        17        16        14        22
        17        16        19        20        17        16        19        21
        18        16        14        22        18        16        19        20
        18        16        19        21        19        16        14        22
        22        24        26        27        22        24        26        28
        22        24        26        29        23        22        24        25
        23        22        24        26        24        26        29        30
        24        26        29        31        25        24        26        27
        25        24        26        28        25        24        26        29
        26        29        31        32        26        29        31        33
        27        26        29        30        27        26        29        31
        28        26        29        30        28        26        29        31
        29        31        33        34        29        31        33        35
        29        31        33        41        30        29        31        32
        30        29        31        33        31        33        35        36
        31        33        35        37        31        33        35        38
        31        33        41        42        31        33        41        43
        32        31        33        34        32        31        33        35
        32        31        33        41        33        35        38        39
        33        35        38        40        33        41        43        44
        33        41        43        47        34        33        35        36
        34        33        35        37        34        33        35        38
        34        33        41        42        34        33        41        43
        35        33        41        42        35        33        41        43
        36        35        33        41        36        35        38        39
        36        35        38        40        37        35        33        41
        37        35        38        39        37        35        38        40
        38        35        33        41        41        43        44        45
        41        43        44        46        41        43        44        52
        41        43        47        48        41        43        47        49
        41        43        47        55        42        41        43        44
        42        41        43        47        43        44        52        49
        43        44        52        53        43        44        52        54
        43        47        49        50        43        47        49        51
        43        47        49        52        43        47        55        56
        43        47        55        57        44        43        47        48
        44        43        47        49        44        43        47        55
        44        52        49        47        44        52        49        50
        44        52        49        51        45        44        43        47
        45        44        52        49        45        44        52        53
        45        44        52        54        46        44        43        47
        46        44        52        49        46        44        52        53
        46        44        52        54        47        43        44        52
        47        49        52        53        47        49        52        54
        47        55        57        58        47        55        57        59
        48        47        49        50        48        47        49        51
        48        47        49        52        48        47        55        56
        48        47        55        57        49        47        55        56
        49        47        55        57        50        49        47        55
        50        49        52        53        50        49        52        54
        51        49        47        55        51        49        52        53
        51        49        52        54        52        49        47        55
        55        57        59        60        55        57        59        61
        55        57        59        62        56        55        57        58
        56        55        57        59        57        59        62        63
        57        59        62        64        58        57        59        60
        58        57        59        61        58        57        59        62
        59        62        64        65        59        62        64        66
        60        59        62        63        60        59        62        64
        61        59        62        63        61        59        62        64
        62        64        66        67        62        64        66        68
        62        64        66        73        63        62        64        65
        63        62        64        66        64        66        68        69
        64        66        68        70        64        66        68        71
        64        66        73        74        64        66        73        75
        65        64        66        67        65        64        66        68
        65        64        66        73        66        68        71        72
        66        73        75        76        66        73        75        77
        67        66        68        69        67        66        68        70
        67        66        68        71        67        66        73        74
        67        66        73        75        68        66        73        74
        68        66        73        75        69        68        66        73
        69        68        71        72        70        68        66        73
        70        68        71        72        71        68        66        73
        73        75        77        78        73        75        77        79
        73        75        77        80        74        73        75        76
        74        73        75        77        75        77        80        81
        75        77        80        82        76        75        77        78
        76        75        77        79        76        75        77        80
        77        80        82        83        77        80        82        86
        78        77        80        81        78        77        80        82
        79        77        80        81        79        77        80        82
        80        82        83        84        80        82        83        85
        80        82        83        91        80        82        86        87
        80        82        86        88        80        82        86        94
        81        80        82        83        81        80        82        86
        82        83        91        88        82        83        91        92
        82        83        91        93        82        86        88        89
        82        86        88        90        82        86        88        91
        82        86        94        95        82        86        94        96
        83        82        86        87        83        82        86        88
        83        82        86        94        83        91        88        86
        83        91        88        89        83        91        88        90
        84        83        82        86        84        83        91        88
        84        83        91        92        84        83        91        93
        85        83        82        86        85        83        91        88
        85        83        91        92        85        83        91        93
        86        82        83        91        86        88        91        92
        86        88        91        93        86        94        96        97
        86        94        96        98        87        86        88        89
        87        86        88        90        87        86        88        91
        87        86        94        95        87        86        94        96
        88        86        94        95        88        86        94        96
        89        88        86        94        89        88        91        92
        89        88        91        93        90        88        86        94
        90        88        91        92        90        88        91        93
        91        88        86        94        94        96        98        99
        94        96        98       100        94        96        98       101
        95        94        96        97        95        94        96        98
        96        98       101       102        96        98       101       103
        97        96        98        99        97        96        98       100
        97        96        98       101        98       101       103       104
        98       101       103       105        99        98       101       102
        99        98       101       103       100        98       101       102
       100        98       101       103       101       103       105       106
       101       103       105       107       101       103       105       113
       102       101       103       104       102       101       103       105
       103       105       107       108       103       105       107       109
       103       105       107       110       103       105       113       114
       103       105       113       115       104       103       105       106
       104       103       105       107       104       103       105       113
       105       107       110       111       105       107       110       112
       105       113       115       116       105       113       115       119
       106       105       107       108       106       105       107       109
       106       105       107       110       106       105       113       114
       106       105       113       115       107       105       113       114
       107       105       113       115       108       107       105       113
       108       107       110       111       108       107       110       112
       109       107       105       113       109       107       110       111
       109       107       110       112       110       107       105       113
       113       115       116       117       113       115       116       118
       113       115       116       124       113       115       119       120
       113       115       119       121       113       115       119       127
       114       113       115       116       114       113       115       119
       115       116       124       121       115       116       124       125
       115       116       124       126       115       119       121       122
       115       119       121       123       115       119       121       124
       115       119       127       128       115       119       127       129
       116       115       119       120       116       115       119       121
       116       115       119       127       116       124       121       119
       116       124       121       122       116       124       121       123
       117       116       115       119       117       116       124       121
       117       116       124       125       117       116       124       126
       118       116       115       119       118       116       124       121
       118       116       124       125       118       116       124       126
       119       115       116       124       119       121       124       125
       119       121       124       126       119       127       129       130
       119       127       129       131       120       119       121       122
       120       119       121       123       120       119       121       124
       120       119       127       128       120       119       127       129
       121       119       127       128       121       119       127       129
       122       121       119       127       122       121       124       125
       122       121       124       126       123       121       119       127
       123       121       124       125       123       121       124       126
       124       121       119       127       127       129       131       132
       127       129       131       133       127       129       131       134
       128       127       129       130       128       127       129       131
       129       131       134       135       129       131       134       136
       130       129       131       132       130       129       131       133
       130       129       131       134       131       134       136       137
       131       134       136       138       132       131       134       135
       132       131       134       136       133       131       134       135
       133       131       134       136       134       136       138       139
       134       136       138       140       134       136       138       145
       135       134       136       137       135       134       136       138
       136       138       140       141       136       138       140       142
       136       138       140       143       136       138       145       146
       136       138       145       147       137       136       138       139
       137       136       138       140       137       136       138       145
       138       140       143       144       138       145       147       148
       138       145       147       149       139       138       140       141
       139       138       140       142       139       138       140       143
       139       138       145       146       139       138       145       147
       140       138       145       146       140       138       145       147
       141       140       138       145       141       140       143       144
       142       140       138       145       142       140       143       144
       143       140       138       145       145       147       149       150
       145       147       149       151       145       147       149       152
       146       145       147       148       146       145       147       149
       147       149       152       153       147       149       152       154
       148       147       149       150       148       147       149       151
       148       147       149       152       149       152       154       155
       149       152       154       158       150       149       152       153
       150       149       152       154       151       149       152       153
       151       149       152       154       152       154       155       156
       152       154       155       157       152       154       155       163
       152       154       158       159       152       154       158       160
       152       154       158       166       153       152       154       155
       153       152       154       158       154       155       163       160
       154       155       163       164       154       155       163       165
       154       158       160       161       154       158       160       162
       154       158       160       163       154       158       166       167
       154       158       166       168       155       154       158       159
       155       154       158       160       155       154       158       166
       155       163       160       158       155       163       160       161
       155       163       160       162       156       155       154       158
       156       155       163       160       156       155       163       164
       156       155       163       165       157       155       154       158
       157       155       163       160       157       155       163       164
       157       155       163       165       158       154       155       163
       158       160       163       164       158       160       163       165
       158       166       168       169       158       166       168       170
       159       158       160       161       159       158       160       162
       159       158       160       163       159       158       166       167
       159       158       166       168       160       158       166       167
       160       158       166       168       161       160       158       166
       161       160       163       164       161       160       163       165
       162       160       158       166       162       160       163       164
       162       160       163       165       163       160       158       166
       166       168       170       171       166       168       170       172
       166       168       170       173       167       166       168       169
       167       166       168       170       168       170       173       174
       168       170       173       175       169       168       170       171
       169       168       170       172       169       168       170       173
       170       173       175       176       170       173       175       177
       171       170       173       174       171       170       173       175
       172       170       173       174       172       170       173       175
       173       175       177       178       173       175       177       179
       173       175       177       185       174       173       175       176
       174       173       175       177       175       177       179       180
       175       177       179       181       175       177       179       182
       175       177       185       186       175       177       185       187
       176       175       177       178       176       175       177       179
       176       175       177       185       177       179       182       183
       177       179       182       184       177       185       187       188
       177       185       187       191       178       177       179       180
       178       177       179       181       178       177       179       182
       178       177       185       186       178       177       185       187
       179       177       185       186       179       177       185       187
       180       179       177       185       180       179       182       183
       180       179       182       184       181       179       177       185
       181       179       182       183       181       179       182       184
       182       179       177       185       185       187       188       189
       185       187       188       190       185       187       188       196
       185       187       191       192       185       187       191       193
       185       187       191       199       186       185       187       188
       186       185       187       191       187       188       196       193
       187       188       196       197       187       188       196       198
       187       191       193       194       187       191       193       195
       187       191       193       196       187       191       199       200
       187       191       199       201       188       187       191       192
       188       187       191       193       188       187       191       199
       188       196       193       191       188       196       193       194
       188       196       193       195       189       188       187       191
       189       188       196       193       189       188       196       197
       189       188       196       198       190       188       187       191
       190       188       196       193       190       188       196       197
       190       188       196       198       191       187       188       196
       191       193       196       197       191       193       196       198
       192       191       193       194       192       191       193       195
       192       191       193       196       192       191       199       200
       192       191       199       201       193       191       199       200
       193       191       199       201       194       193       191       199
       194       193       196       197       194       193       196       198
       195       193       191       199       195       193       196       197
       195       193       196       198       196       193       191       199

        40 !NIMPHI: impropers
         8         5        10         9        10         8        14        11
        22        14        24        23        24        22        26        25
        29        26        31        30        31        29        33        32
        41        33        43        42        38        35        40        39
        43        41        47        44        55        47        57        56
        57        55        59        58        62        59        64        63
        64        62        66        65        73        66        75        74
        75        73        77        76        80        77        82        81
        82        80        86        83        94        86        96        95
        96        94        98        97       101        98       103       102
       103       101       105       104       113       105       115       114
       110       107       112       111       115       113       119       116
       127       119       129       128       129       127       131       130
       134       131       136       135       136       134       138       137
       145       138       147       146       147       145       149       148
       152       149       154       153       154       152       158       155
       166       158       168       167       168       166       170       169
       173       170       175       174       175       173       177       176
       185       177       187       186       182       179       184       183
       187       185       191       188       199       191       201       200

        17 !NDON: donors
         1         2         1         3         1         4        24        25
        31        32        57        58        64        65        71        72
        75        76        96        97       103       104       129       130
       136       137       143       144       147       148       168       169
       175       176

        28 !NACC: acceptors
         9         8        23        22        30        29        39        38
        40        38        42        41        56        55        63        62
        71         0        74        73        81        80        95        94
       102       101       111       110       112       110       114       113
       128       127       135       134       143         0       146       145
       153       152       167       166       174       173       183       182
       184       182       186       185       200       199       201       199

         0 !NNB

         0         0         0         0         0         0         0         0
         0         0         0         0         0         0         0         0
         0         0         0         0         0         0         0         0
         0         0         0         0         0         0         0         0
         0         0         0         0         0         0         0         0
         0         0         0         0         0         0         0         0
         0         0         0         0         0         0         0         0
         0         0         0         0         0         0         0         0
         0         0         0         0         0         0         0         0
         0         0         0         0         0         0         0         0
         0         0         0         0         0         0         0         0
         0         0         0         0         0         0         0         0
         0         0         0         0         0         0         0         0
         0         0         0         0         0         0         0         0
         0         0         0         0         0         0         0         0
         0         0         0         0         0         0         0         0
         0         0         0         0         0         0         0         0
         0         0         0         0         0         0         0         0
         0         0         0         0         0         0         0         0
         0         0         0         0         0         0         0         0
         0         0         0         0         0         0         0         0
         0         0         0         0         0         0         0         0
         0         0         0         0         0         0         0         0
         0         0         0         0         0         0         0         0
         0         0         0         0         0         0         0         0
         0

        55         0 !NGRP NST2
         0         2         0         7         1         0         9         1         0
        15         1         0        18         1         0        21         1         0
        23         1         0        28         1         0        30         1         0
        34         2         0        40         1         0        42         1         0
        48         1         0        51         1         0        54         1         0
        56         1         0        61         1         0        63         1         0
        67         1         0        72         1         0        74         1         0
        79         1         0        81         1         0        87         1         0
        90         1         0        93         1         0        95         1         0
       100         1         0       102         1         0       106         2         0
       112         1         0       114         1         0       120         1         0
       123         1         0       126         1         0       128         1         0
       133         1         0       135         1         0       139         1         0
       144         1         0       146         1         0       151         1         0
       153         1         0       159         1         0       162         1         0
       165         1         0       167         1         0       172         1         0
       174         1         0       178         2         0       184         1         0
       186         1         0       192         1         0       195         1         0
       198         2         0

         0         0 !NUMLP NUMLPH

        17 !NCRTERM: cross-terms
         8        10        14        22        10        14        22        24
        22        24        26        29        24        26        29        31
        29        31        33        41        31        33        41        43
        41        43        47        55        43        47        55        57
        55        57        59        62        57        59        62        64
        62        64        66        73        64        66        73        75
        73        75        77        80        75        77        80        82
        80        82        86        94        82        86        94        96
        94        96        98       101        96        98       101       103
       101       103       105       113       103       105       113       115
       113       115       119       127       115       119       127       129
       127       129       131       134       129       131       134       136
       134       136       138       145       136       138       145       147
       145       147       149       152       147       149       152       154
       152       154       158       166       154       158       166       168
       166       168       170       173       168       170       173       175
       173       175       177       185       175       177       185       187
