Title t=  46.00000 step= 23000
44434
    1GLY      N    1   4.128   4.085   5.270
    1GLY    HT1    2   4.120   4.122   5.173
    1GLY    HT2    3   4.190   4.001   5.271
    1GLY    HT3    4   4.179   4.155   5.328
    1GLY     CA    5   3.994   4.055   5.321
    1GLY    HA1    6   3.956   4.154   5.340
    1GLY    HA2    7   4.007   3.992   5.408
    1GLY      C    8   3.899   4.001   5.223
    1GLY      O    9   3.944   3.966   5.111
    2PRO      N   10   3.767   3.992   5.245
    2PRO     CD   11   3.706   3.994   5.381
    2PRO    HD1   12   3.693   4.098   5.417
    2PRO    HD2   13   3.769   3.930   5.447
    2PRO     CA   14   3.670   3.951   5.133
    2PRO     HA   15   3.673   3.846   5.108
    2PRO     CB   16   3.536   3.974   5.210
    2PRO    HB1   17   3.460   3.912   5.158
    2PRO    HB2   18   3.512   4.082   5.217
    2PRO     CG   19   3.574   3.922   5.349
    2PRO    HG1   20   3.501   3.949   5.429
    2PRO    HG2   21   3.593   3.813   5.338
    2PRO      C   22   3.686   4.028   4.992
    2PRO      O   23   3.728   4.144   4.989
    3GLY      N   24   3.661   3.958   4.878
    3GLY     HN   25   3.647   3.860   4.883
    3GLY     CA   26   3.671   4.014   4.746
    3GLY    HA1   27   3.700   4.118   4.748
    3GLY    HA2   28   3.579   4.008   4.689
    3GLY      C   29   3.784   3.953   4.668
    3GLY      O   30   3.876   3.897   4.727
    4ASP      N   31   3.772   3.962   4.533
    4ASP     HN   32   3.689   3.999   4.492
    4ASP     CA   33   3.871   3.900   4.444
    4ASP     HA   34   3.902   3.804   4.482
    4ASP     CB   35   3.811   3.872   4.303
    4ASP    HB1   36   3.887   3.834   4.230
    4ASP    HB2   37   3.771   3.965   4.258
    4ASP     CG   38   3.697   3.772   4.313
    4ASP    OD1   39   3.712   3.672   4.379
    4ASP    OD2   40   3.595   3.786   4.239
    4ASP      C   41   3.996   3.992   4.425
    4ASP      O   42   3.978   4.113   4.440
    5PRO      N   43   4.120   3.940   4.390
    5PRO     CD   44   4.142   3.796   4.379
    5PRO    HD1   45   4.102   3.777   4.277
    5PRO    HD2   46   4.087   3.726   4.445
    5PRO     CA   47   4.237   4.017   4.344
    5PRO     HA   48   4.278   4.057   4.436
    5PRO     CB   49   4.327   3.915   4.296
    5PRO    HB1   50   4.436   3.939   4.305
    5PRO    HB2   51   4.306   3.893   4.189
    5PRO     CG   52   4.295   3.791   4.383
    5PRO    HG1   53   4.345   3.700   4.344
    5PRO    HG2   54   4.326   3.811   4.488
    5PRO      C   55   4.212   4.131   4.251
    5PRO      O   56   4.127   4.128   4.164
    6GLY      N   57   4.295   4.236   4.270
    6GLY     HN   58   4.375   4.219   4.327
    6GLY     CA   59   4.307   4.357   4.185
    6GLY    HA1   60   4.376   4.423   4.237
    6GLY    HA2   61   4.211   4.405   4.180
    6GLY      C   62   4.362   4.328   4.048
    6GLY      O   63   4.419   4.225   4.020
    7SER      N   64   4.348   4.426   3.955
    7SER     HN   65   4.310   4.516   3.978
    7SER     CA   66   4.388   4.413   3.813
    7SER     HA   67   4.345   4.322   3.774
    7SER     CB   68   4.343   4.534   3.723
    7SER    HB1   69   4.356   4.511   3.615
    7SER    HB2   70   4.412   4.621   3.732
    7SER     OG   71   4.210   4.589   3.754
    7SER    HG1   72   4.141   4.523   3.750
    7SER      C   73   4.535   4.391   3.798
    7SER      O   74   4.626   4.443   3.867
    8GLY      N   75   4.575   4.311   3.702
    8GLY     HN   76   4.504   4.281   3.640
    8GLY     CA   77   4.716   4.284   3.659
    8GLY    HA1   78   4.711   4.221   3.571
    8GLY    HA2   79   4.768   4.260   3.751
    8GLY      C   80   4.772   4.415   3.601
    8GLY      O   81   4.697   4.497   3.545
    9ASN      N   82   4.904   4.429   3.604
    9ASN     HN   83   4.956   4.356   3.648
    9ASN     CA   84   4.978   4.544   3.550
    9ASN     HA   85   4.907   4.626   3.555
    9ASN     CB   86   5.114   4.562   3.626
    9ASN    HB1   87   5.166   4.464   3.624
    9ASN    HB2   88   5.103   4.591   3.733
    9ASN     CG   89   5.202   4.675   3.560
    9ASN    OD1   90   5.304   4.661   3.490
    9ASN    ND2   91   5.143   4.799   3.582
    9ASN   HD21   92   5.190   4.881   3.550
    9ASN   HD22   93   5.045   4.797   3.603
    9ASN      C   94   5.005   4.512   3.401
    9ASN      O   95   5.065   4.407   3.372
   10PRO      N   96   4.970   4.590   3.306
   10PRO     CD   97   4.884   4.708   3.321
   10PRO    HD1   98   4.941   4.798   3.354
   10PRO    HD2   99   4.793   4.684   3.379
   10PRO     CA  100   4.979   4.553   3.168
   10PRO     HA  101   4.902   4.477   3.159
   10PRO     CB  102   4.926   4.667   3.095
   10PRO    HB1  103   4.890   4.656   2.991
   10PRO    HB2  104   5.008   4.742   3.085
   10PRO     CG  105   4.822   4.735   3.183
   10PRO    HG1  106   4.811   4.845   3.170
   10PRO    HG2  107   4.727   4.678   3.170
   10PRO      C  108   5.112   4.507   3.110
   10PRO      O  109   5.216   4.552   3.157
   11GLY      N  110   5.111   4.415   3.006
   11GLY     HN  111   5.026   4.378   2.970
   11GLY     CA  112   5.240   4.353   2.958
   11GLY    HA1  113   5.213   4.306   2.865
   11GLY    HA2  114   5.277   4.283   3.031
   11GLY      C  115   5.356   4.438   2.906
   11GLY      O  116   5.335   4.555   2.864
   12SER      N  117   5.474   4.383   2.909
   12SER     HN  118   5.477   4.295   2.956
   12SER     CA  119   5.601   4.438   2.867
   12SER     HA  120   5.629   4.508   2.945
   12SER     CB  121   5.710   4.329   2.867
   12SER    HB1  122   5.803   4.380   2.833
   12SER    HB2  123   5.684   4.241   2.803
   12SER     OG  124   5.740   4.276   3.001
   12SER    HG1  125   5.785   4.351   3.041
   12SER      C  126   5.593   4.514   2.734
   12SER      O  127   5.557   4.447   2.636
   13GLY      N  128   5.621   4.646   2.728
   13GLY     HN  129   5.639   4.701   2.808
   13GLY     CA  130   5.608   4.719   2.600
   13GLY    HA1  131   5.626   4.825   2.611
   13GLY    HA2  132   5.507   4.714   2.563
   13GLY      C  133   5.703   4.672   2.496
   13GLY      O  134   5.813   4.627   2.526
   14ASP      N  135   5.662   4.698   2.370
   14ASP     HN  136   5.567   4.727   2.357
   14ASP     CA  137   5.731   4.701   2.243
   14ASP     HA  138   5.769   4.602   2.223
   14ASP     CB  139   5.634   4.750   2.133
   14ASP    HB1  140   5.677   4.749   2.031
   14ASP    HB2  141   5.594   4.850   2.160
   14ASP     CG  142   5.506   4.664   2.128
   14ASP    OD1  143   5.401   4.706   2.068
   14ASP    OD2  144   5.504   4.544   2.175
   14ASP      C  145   5.847   4.803   2.241
   14ASP      O  146   5.848   4.889   2.330
   15PRO      N  147   5.944   4.792   2.148
   15PRO     CD  148   5.966   4.663   2.080
   15PRO    HD1  149   5.883   4.615   2.023
   15PRO    HD2  150   6.003   4.597   2.161
   15PRO     CA  151   6.063   4.877   2.144
   15PRO     HA  152   6.100   4.893   2.244
   15PRO     CB  153   6.171   4.795   2.062
   15PRO    HB1  154   6.231   4.737   2.134
   15PRO    HB2  155   6.236   4.864   2.004
   15PRO     CG  156   6.085   4.688   1.989
   15PRO    HG1  157   6.047   4.732   1.895
   15PRO    HG2  158   6.141   4.593   1.972
   15PRO      C  159   6.031   5.006   2.078
   15PRO    OT1  160   6.000   5.013   1.956
   15PRO    OT2  161   6.030   5.110   2.151
   16LIT    LIT  162   3.518   3.631   4.277
   17LIT    LIT  163   6.345   3.759   2.236
   18LIT    LIT  164   4.965   1.170   1.203
   19LIT    LIT  165   3.772   4.945   3.917
   20LIT    LIT  166   5.792   6.840   4.011
   21LIT    LIT  167   2.030   2.136   3.859
   22LIT    LIT  168   5.919   1.066   6.450
   23LIT    LIT  169   6.692   6.320   5.897
   24LIT    LIT  170   2.916   0.717   3.353
   25LIT    LIT  171   6.322   0.061   4.305
   26LIT    LIT  172   2.095   3.636   3.811
   27LIT    LIT  173   0.563   1.381   4.715
   28LIT    LIT  174   5.614   1.925   2.279
   29LIT    LIT  175   6.892   0.272   3.088
   30LIT    LIT  176   6.308   7.420   6.186
   31LIT    LIT  177   1.615   0.080   1.960
   32LIT    LIT  178   1.002   1.309   4.878
   33LIT    LIT  179   1.920   7.166   1.052
   34LIT    LIT  180   4.826   5.047   5.533
   35LIT    LIT  181   5.716   4.325   0.653
   36LIT    LIT  182   6.108   0.288   1.477
   37LIT    LIT  183   1.430   4.623   0.161
   38LIT    LIT  184   4.403   5.275   4.660
   39LIT    LIT  185   3.338   2.369   4.993
   40LIT    LIT  186   7.890   6.027   2.527
   41LIT    LIT  187   5.978   5.204   1.991
   42LIT    LIT  188   4.494   5.917   0.733
   43LIT    LIT  189   1.854   1.321   1.838
   44LIT    LIT  190   0.586   0.964   1.167
   45LIT    LIT  191   2.158   2.726   1.513
   46LIT    LIT  192   4.526   3.811   0.273
   47LIT    LIT  193   4.144   1.023   0.890
   48LIT    LIT  194   0.272   4.772   5.044
   49LIT    LIT  195   5.310   4.535   2.124
   50LIT    LIT  196   4.519   0.632   2.522
   51LIT    LIT  197   4.172   3.128   5.479
   52LIT    LIT  198   7.558   1.505   6.692
   53LIT    LIT  199   1.810   5.867   1.643
   54LIT    LIT  200   4.294   0.150   4.360
   55LIT    LIT  201   2.051   0.254   5.590
   56LIT    LIT  202   6.136   7.795   4.181
   57LIT    LIT  203   0.245   1.057   2.930
   58LIT    LIT  204   7.690   3.519   0.911
   59LIT    LIT  205   3.436   5.324   1.816
   60CLA    CLA  206   7.094   6.631   2.180
   61CLA    CLA  207   7.987   5.750   5.270
   62CLA    CLA  208   6.765   5.132   2.034
   63CLA    CLA  209   1.118   1.795   1.073
   64CLA    CLA  210   1.334   2.232   4.089
   65CLA    CLA  211   3.578   1.625   1.598
   66CLA    CLA  212   3.016   3.217   5.274
   67CLA    CLA  213   8.237   0.495   6.632
   68CLA    CLA  214   7.464   1.034   4.206
   69CLA    CLA  215   6.973   7.260   5.990
   70CLA    CLA  216   3.013   4.528   1.592
   71CLA    CLA  217   3.509   2.148   2.493
   72CLA    CLA  218   0.724   2.532   1.833
   73CLA    CLA  219   3.764   5.321   4.054
   74CLA    CLA  220   3.073   5.511   1.450
   75CLA    CLA  221   4.406   3.023   3.663
   76CLA    CLA  222   3.223   5.372   4.710
   77CLA    CLA  223   4.394   4.654   6.056
   78CLA    CLA  224   6.881   1.657   0.583
   79CLA    CLA  225   0.886   0.076   1.417
   80CLA    CLA  226   2.473   7.543   1.543
   81CLA    CLA  227   0.108   1.143   3.093
   82CLA    CLA  228   1.988   4.928   0.090
   83CLA    CLA  229   6.574   3.728   3.702
   84CLA    CLA  230   4.633   2.207   6.581
   85CLA    CLA  231   1.237   4.050   6.622
   86CLA    CLA  232   6.573   2.955   2.193
   87CLA    CLA  233   0.005   1.819   3.058
   88CLA    CLA  234   1.334   7.398   0.968
   89CLA    CLA  235  -0.006   2.464   6.144
   90CLA    CLA  236   3.847   1.275   3.222
   91CLA    CLA  237   4.884   0.752   2.243
   92CLA    CLA  238   1.989   3.350   6.483
   93CLA    CLA  239   4.715   2.194   3.853
   94CLA    CLA  240   3.721   4.678   5.519
   95CLA    CLA  241   7.900   3.640   0.913
   96CLA    CLA  242   6.139   0.215   4.353
   97CLA    CLA  243   4.753   3.790   3.244
   98CLA    CLA  244   0.554   4.437   6.444
   99CLA    CLA  245   1.620   0.140   6.658
  100CLA    CLA  246   1.770   5.906   2.273
  101CLA    CLA  247   4.494   1.933   1.125
  102TIP3   OH2  248   3.010   3.935   1.349
  102TIP3    H1  249   3.065   3.864   1.317
  102TIP3    H2  250   2.933   3.891   1.385
  103TIP3   OH2  251   6.756   0.747   3.335
  103TIP3    H1  252   6.676   0.696   3.344
  103TIP3    H2  253   6.734   0.832   3.373
  104TIP3   OH2  254   1.706   5.059   0.123
  104TIP3    H1  255   1.672   5.048   0.034
  104TIP3    H2  256   1.793   5.018   0.120
  105TIP3   OH2  257   1.503   7.344   2.104
  105TIP3    H1  258   1.467   7.364   2.190
  105TIP3    H2  259   1.561   7.269   2.118
  106TIP3   OH2  260   4.353   1.733   0.136
  106TIP3    H1  261   4.432   1.753   0.086
  106TIP3    H2  262   4.372   1.765   0.224
  107TIP3   OH2  263   6.214   6.286   6.518
  107TIP3    H1  264   6.202   6.202   6.561
  107TIP3    H2  265   6.151   6.286   6.446
  108TIP3   OH2  266   1.606   5.621   5.276
  108TIP3    H1  267   1.535   5.665   5.229
  108TIP3    H2  268   1.638   5.686   5.338
  109TIP3   OH2  269   4.269   2.022   0.576
  109TIP3    H1  270   4.216   2.018   0.496
  109TIP3    H2  271   4.333   2.092   0.558
  110TIP3   OH2  272   5.719   1.160   2.651
  110TIP3    H1  273   5.746   1.237   2.701
  110TIP3    H2  274   5.787   1.150   2.584
  111TIP3   OH2  275   6.761   2.737   5.758
  111TIP3    H1  276   6.768   2.829   5.785
  111TIP3    H2  277   6.834   2.693   5.803
  112TIP3   OH2  278   7.833   5.255   3.759
  112TIP3    H1  279   7.791   5.169   3.761
  112TIP3    H2  280   7.884   5.255   3.679
  113TIP3   OH2  281   5.635   1.052   0.097
  113TIP3    H1  282   5.697   1.111   0.054
  113TIP3    H2  283   5.689   0.996   0.152
  114TIP3   OH2  284   6.821   1.171   3.080
  114TIP3    H1  285   6.824   1.263   3.108
  114TIP3    H2  286   6.728   1.150   3.078
  115TIP3   OH2  287   0.369   7.727   0.952
  115TIP3    H1  288   0.308   7.758   1.020
  115TIP3    H2  289   0.439   7.683   1.001
  116TIP3   OH2  290   2.938   3.147   2.511
  116TIP3    H1  291   2.940   3.157   2.607
  116TIP3    H2  292   3.021   3.106   2.489
  117TIP3   OH2  293   3.708   4.577   4.436
  117TIP3    H1  294   3.748   4.646   4.489
  117TIP3    H2  295   3.778   4.547   4.378
  118TIP3   OH2  296   1.196   3.593   0.816
  118TIP3    H1  297   1.185   3.611   0.723
  118TIP3    H2  298   1.289   3.572   0.825
  119TIP3   OH2  299   2.231   4.496   0.644
  119TIP3    H1  300   2.319   4.476   0.615
  119TIP3    H2  301   2.238   4.581   0.689
  120TIP3   OH2  302   2.696   2.461   5.436
  120TIP3    H1  303   2.664   2.402   5.368
  120TIP3    H2  304   2.722   2.540   5.389
  121TIP3   OH2  305   6.484   2.178   5.009
  121TIP3    H1  306   6.442   2.246   5.062
  121TIP3    H2  307   6.573   2.209   4.996
  122TIP3   OH2  308   1.199   5.559   1.348
  122TIP3    H1  309   1.267   5.608   1.395
  122TIP3    H2  310   1.125   5.556   1.409
  123TIP3   OH2  311   7.479   7.178   2.211
  123TIP3    H1  312   7.413   7.180   2.280
  123TIP3    H2  313   7.555   7.136   2.251
  124TIP3   OH2  314   0.794   6.295   2.431
  124TIP3    H1  315   0.850   6.290   2.354
  124TIP3    H2  316   0.854   6.320   2.502
  125TIP3   OH2  317   6.651   4.939   5.300
  125TIP3    H1  318   6.705   4.861   5.293
  125TIP3    H2  319   6.705   5.002   5.348
  126TIP3   OH2  320   0.256   6.088   5.624
  126TIP3    H1  321   0.346   6.090   5.657
  126TIP3    H2  322   0.225   6.000   5.644
  127TIP3   OH2  323   7.026   1.333   4.234
  127TIP3    H1  324   6.965   1.329   4.308
  127TIP3    H2  325   6.970   1.328   4.157
  128TIP3   OH2  326   3.846   7.489   2.258
  128TIP3    H1  327   3.754   7.487   2.286
  128TIP3    H2  328   3.853   7.569   2.205
  129TIP3   OH2  329   4.646   7.796   4.996
  129TIP3    H1  330   4.612   7.883   4.976
  129TIP3    H2  331   4.740   7.802   4.976
  130TIP3   OH2  332   1.427   4.984   6.606
  130TIP3    H1  333   1.495   5.040   6.568
  130TIP3    H2  334   1.472   4.936   6.676
  131TIP3   OH2  335   0.128   2.743   0.430
  131TIP3    H1  336   0.100   2.774   0.343
  131TIP3    H2  337   0.114   2.818   0.487
  132TIP3   OH2  338   1.464   5.400   5.340
  132TIP3    H1  339   1.475   5.400   5.435
  132TIP3    H2  340   1.529   5.463   5.309
  133TIP3   OH2  341   5.550   5.191   5.807
  133TIP3    H1  342   5.632   5.208   5.760
  133TIP3    H2  343   5.577   5.183   5.899
  134TIP3   OH2  344   6.412   3.007   3.658
  134TIP3    H1  345   6.317   3.014   3.650
  134TIP3    H2  346   6.444   3.096   3.647
  135TIP3   OH2  347   7.679   1.066   5.081
  135TIP3    H1  348   7.693   1.106   5.167
  135TIP3    H2  349   7.731   1.120   5.021
  136TIP3   OH2  350   4.449   5.566   4.392
  136TIP3    H1  351   4.404   5.538   4.312
  136TIP3    H2  352   4.442   5.661   4.392
  137TIP3   OH2  353   2.127   2.191   4.729
  137TIP3    H1  354   2.087   2.161   4.810
  137TIP3    H2  355   2.207   2.236   4.757
  138TIP3   OH2  356   3.163   7.522   4.940
  138TIP3    H1  357   3.213   7.578   4.998
  138TIP3    H2  358   3.143   7.577   4.864
  139TIP3   OH2  359   4.630   4.506   5.168
  139TIP3    H1  360   4.587   4.483   5.251
  139TIP3    H2  361   4.706   4.449   5.163
  140TIP3   OH2  362   0.898   6.609   4.581
  140TIP3    H1  363   0.908   6.578   4.670
  140TIP3    H2  364   0.915   6.533   4.526
  141TIP3   OH2  365   4.105   6.345   1.333
  141TIP3    H1  366   4.094   6.292   1.412
  141TIP3    H2  367   4.181   6.400   1.350
  142TIP3   OH2  368   1.411   2.962   3.680
  142TIP3    H1  369   1.392   3.046   3.639
  142TIP3    H2  370   1.340   2.904   3.652
  143TIP3   OH2  371   4.604   2.873   2.845
  143TIP3    H1  372   4.587   2.780   2.828
  143TIP3    H2  373   4.531   2.901   2.901
  144TIP3   OH2  374   6.521   6.760   4.056
  144TIP3    H1  375   6.507   6.831   3.994
  144TIP3    H2  376   6.537   6.804   4.140
  145TIP3   OH2  377   0.635   1.160   6.761
  145TIP3    H1  378   0.589   1.197   6.685
  145TIP3    H2  379   0.726   1.156   6.734
  146TIP3   OH2  380   4.423   0.904   2.224
  146TIP3    H1  381   4.328   0.897   2.221
  146TIP3    H2  382   4.450   0.897   2.132
  147TIP3   OH2  383   3.670   0.324   3.490
  147TIP3    H1  384   3.661   0.274   3.571
  147TIP3    H2  385   3.747   0.379   3.504
  148TIP3   OH2  386   4.066   0.869   5.224
  148TIP3    H1  387   3.990   0.924   5.240
  148TIP3    H2  388   4.080   0.874   5.129
  149TIP3   OH2  389   1.643   0.399   6.006
  149TIP3    H1  390   1.687   0.479   5.978
  149TIP3    H2  391   1.570   0.388   5.945
  150TIP3   OH2  392   7.187   1.346   5.931
  150TIP3    H1  393   7.209   1.283   5.863
  150TIP3    H2  394   7.098   1.321   5.958
  151TIP3   OH2  395   6.146   6.584   2.813
  151TIP3    H1  396   6.051   6.581   2.803
  151TIP3    H2  397   6.179   6.536   2.737
  152TIP3   OH2  398   4.958   2.790   5.519
  152TIP3    H1  399   5.043   2.747   5.511
  152TIP3    H2  400   4.959   2.829   5.606
  153TIP3   OH2  401   7.318   3.726   0.740
  153TIP3    H1  402   7.236   3.775   0.745
  153TIP3    H2  403   7.307   3.657   0.806
  154TIP3   OH2  404   2.954   0.068   1.475
  154TIP3    H1  405   3.012   0.118   1.533
  154TIP3    H2  406   2.949  -0.019   1.516
  155TIP3   OH2  407   1.380   7.538   1.359
  155TIP3    H1  408   1.455   7.479   1.350
  155TIP3    H2  409   1.413   7.611   1.411
  156TIP3   OH2  410   7.425   6.968   6.606
  156TIP3    H1  411   7.427   6.890   6.550
  156TIP3    H2  412   7.364   7.027   6.561
  157TIP3   OH2  413   7.486   5.752   0.386
  157TIP3    H1  414   7.543   5.767   0.310
  157TIP3    H2  415   7.407   5.802   0.366
  158TIP3   OH2  416   3.183   5.762   5.197
  158TIP3    H1  417   3.136   5.816   5.134
  158TIP3    H2  418   3.208   5.684   5.148
  159TIP3   OH2  419   0.856   4.690   5.401
  159TIP3    H1  420   0.901   4.754   5.347
  159TIP3    H2  421   0.845   4.734   5.486
  160TIP3   OH2  422   1.930   3.059   3.286
  160TIP3    H1  423   1.919   3.145   3.245
  160TIP3    H2  424   1.940   2.999   3.213
  161TIP3   OH2  425   8.308   6.960   5.299
  161TIP3    H1  426   8.232   6.987   5.350
  161TIP3    H2  427   8.356   6.901   5.356
  162TIP3   OH2  428   0.067   5.554   4.323
  162TIP3    H1  429   0.038   5.471   4.286
  162TIP3    H2  430   0.069   5.614   4.249
  163TIP3   OH2  431   3.189   3.104   1.579
  163TIP3    H1  432   3.262   3.110   1.517
  163TIP3    H2  433   3.126   3.170   1.548
  164TIP3   OH2  434   3.199   5.198   0.448
  164TIP3    H1  435   3.216   5.220   0.356
  164TIP3    H2  436   3.217   5.104   0.453
  165TIP3   OH2  437   3.972   0.587   1.366
  165TIP3    H1  438   3.974   0.511   1.424
  165TIP3    H2  439   4.061   0.591   1.329
  166TIP3   OH2  440   7.945   2.831   6.570
  166TIP3    H1  441   7.914   2.883   6.644
  166TIP3    H2  442   8.020   2.880   6.536
  167TIP3   OH2  443   0.899   0.619   1.795
  167TIP3    H1  444   0.926   0.561   1.724
  167TIP3    H2  445   0.804   0.628   1.784
  168TIP3   OH2  446   4.592   1.542   3.640
  168TIP3    H1  447   4.544   1.521   3.720
  168TIP3    H2  448   4.584   1.637   3.631
  169TIP3   OH2  449   4.065   7.048   6.097
  169TIP3    H1  450   4.007   7.106   6.146
  169TIP3    H2  451   4.041   7.061   6.005
  170TIP3   OH2  452   5.758   0.512   0.357
  170TIP3    H1  453   5.841   0.541   0.319
  170TIP3    H2  454   5.719   0.457   0.289
  171TIP3   OH2  455   7.270   4.512   1.046
  171TIP3    H1  456   7.332   4.444   1.018
  171TIP3    H2  457   7.194   4.464   1.078
  172TIP3   OH2  458   7.956   0.091   6.765
  172TIP3    H1  459   7.918   0.027   6.704
  172TIP3    H2  460   7.904   0.083   6.844
  173TIP3   OH2  461   2.740   1.240   1.919
  173TIP3    H1  462   2.649   1.234   1.950
  173TIP3    H2  463   2.792   1.199   1.988
  174TIP3   OH2  464   5.597   1.619   5.487
  174TIP3    H1  465   5.555   1.554   5.544
  174TIP3    H2  466   5.566   1.597   5.399
  175TIP3   OH2  467   4.284   1.248   4.374
  175TIP3    H1  468   4.338   1.189   4.322
  175TIP3    H2  469   4.233   1.191   4.431
  176TIP3   OH2  470   3.654   1.436   4.894
  176TIP3    H1  471   3.746   1.456   4.911
  176TIP3    H2  472   3.630   1.494   4.822
  177TIP3   OH2  473   4.121   7.136   4.330
  177TIP3    H1  474   4.129   7.041   4.337
  177TIP3    H2  475   4.096   7.165   4.417
  178TIP3   OH2  476   6.599   4.021   6.064
  178TIP3    H1  477   6.598   3.944   6.008
  178TIP3    H2  478   6.664   4.079   6.024
  179TIP3   OH2  479   4.068   4.926   3.217
  179TIP3    H1  480   4.039   4.997   3.161
  179TIP3    H2  481   4.145   4.890   3.173
  180TIP3   OH2  482   4.822   4.061   4.701
  180TIP3    H1  483   4.751   4.007   4.667
  180TIP3    H2  484   4.861   4.102   4.623
  181TIP3   OH2  485   2.471   5.274   3.577
  181TIP3    H1  486   2.378   5.293   3.589
  181TIP3    H2  487   2.478   5.179   3.583
  182TIP3   OH2  488   7.852   3.068   4.320
  182TIP3    H1  489   7.836   3.076   4.414
  182TIP3    H2  490   7.767   3.045   4.282
  183TIP3   OH2  491   7.158   2.800   3.148
  183TIP3    H1  492   7.143   2.836   3.061
  183TIP3    H2  493   7.098   2.849   3.205
  184TIP3   OH2  494   5.193   2.344   3.961
  184TIP3    H1  495   5.261   2.317   3.898
  184TIP3    H2  496   5.127   2.276   3.956
  185TIP3   OH2  497   3.589   5.511   5.711
  185TIP3    H1  498   3.615   5.550   5.628
  185TIP3    H2  499   3.660   5.534   5.771
  186TIP3   OH2  500   2.061   2.109   3.135
  186TIP3    H1  501   2.053   2.018   3.104
  186TIP3    H2  502   2.057   2.162   3.055
  187TIP3   OH2  503   0.655   6.141   2.197
  187TIP3    H1  504   0.609   6.225   2.200
  187TIP3    H2  505   0.747   6.164   2.214
  188TIP3   OH2  506   4.725   1.363   5.899
  188TIP3    H1  507   4.665   1.354   5.825
  188TIP3    H2  508   4.697   1.295   5.960
  189TIP3   OH2  509   4.152   0.925   1.052
  189TIP3    H1  510   4.179   0.839   1.085
  189TIP3    H2  511   4.146   0.980   1.130
  190TIP3   OH2  512   1.285   6.538   3.115
  190TIP3    H1  513   1.226   6.463   3.109
  190TIP3    H2  514   1.265   6.579   3.199
  191TIP3   OH2  515   1.154   2.278   4.697
  191TIP3    H1  516   1.211   2.201   4.688
  191TIP3    H2  517   1.214   2.349   4.718
  192TIP3   OH2  518   5.899   1.973   0.734
  192TIP3    H1  519   5.907   2.047   0.674
  192TIP3    H2  520   5.942   2.002   0.814
  193TIP3   OH2  521   1.010   6.434   5.958
  193TIP3    H1  522   1.106   6.440   5.962
  193TIP3    H2  523   0.979   6.508   6.010
  194TIP3   OH2  524   7.232   7.025   0.557
  194TIP3    H1  525   7.277   6.945   0.584
  194TIP3    H2  526   7.281   7.056   0.481
  195TIP3   OH2  527   1.366   0.207   4.286
  195TIP3    H1  528   1.321   0.291   4.284
  195TIP3    H2  529   1.458   0.229   4.273
  196TIP3   OH2  530   7.236   5.888   4.024
  196TIP3    H1  531   7.157   5.858   3.979
  196TIP3    H2  532   7.240   5.835   4.104
  197TIP3   OH2  533   6.845   5.743   2.295
  197TIP3    H1  534   6.886   5.763   2.380
  197TIP3    H2  535   6.798   5.822   2.271
  198TIP3   OH2  536   5.092   5.979   3.780
  198TIP3    H1  537   5.017   5.936   3.822
  198TIP3    H2  538   5.055   6.020   3.702
  199TIP3   OH2  539   0.261   5.653   2.576
  199TIP3    H1  540   0.284   5.647   2.483
  199TIP3    H2  541   0.328   5.711   2.613
  200TIP3   OH2  542   4.030   0.418   5.269
  200TIP3    H1  543   4.090   0.374   5.208
  200TIP3    H2  544   3.989   0.347   5.317
  201TIP3   OH2  545   1.682   7.086   2.729
  201TIP3    H1  546   1.645   6.998   2.722
  201TIP3    H2  547   1.773   7.073   2.755
  202TIP3   OH2  548   7.936   2.917   4.790
  202TIP3    H1  549   8.030   2.899   4.782
  202TIP3    H2  550   7.924   2.938   4.883
  203TIP3   OH2  551   7.968   0.906   3.660
  203TIP3    H1  552   8.056   0.940   3.644
  203TIP3    H2  553   7.957   0.911   3.755
  204TIP3   OH2  554   4.261   0.206   1.472
  204TIP3    H1  555   4.266   0.180   1.380
  204TIP3    H2  556   4.167   0.220   1.487
  205TIP3   OH2  557   3.404   3.105   2.986
  205TIP3    H1  558   3.404   3.028   2.930
  205TIP3    H2  559   3.459   3.081   3.061
  206TIP3   OH2  560   1.974   5.721   0.221
  206TIP3    H1  561   1.891   5.766   0.208
  206TIP3    H2  562   2.029   5.751   0.148
  207TIP3   OH2  563   3.986   1.594   5.918
  207TIP3    H1  564   3.995   1.530   5.989
  207TIP3    H2  565   3.933   1.550   5.852
  208TIP3   OH2  566   3.179   0.637   2.343
  208TIP3    H1  567   3.099   0.584   2.349
  208TIP3    H2  568   3.226   0.617   2.424
  209TIP3   OH2  569   3.353   5.837   4.061
  209TIP3    H1  570   3.383   5.763   4.114
  209TIP3    H2  571   3.366   5.914   4.116
  210TIP3   OH2  572   4.756   0.699   5.772
  210TIP3    H1  573   4.704   0.620   5.785
  210TIP3    H2  574   4.803   0.684   5.690
  211TIP3   OH2  575   3.171   2.112   4.697
  211TIP3    H1  576   3.201   2.084   4.784
  211TIP3    H2  577   3.137   2.200   4.710
  212TIP3   OH2  578   3.520   3.896   0.635
  212TIP3    H1  579   3.565   3.835   0.693
  212TIP3    H2  580   3.471   3.954   0.693
  213TIP3   OH2  581   7.654   2.085   1.721
  213TIP3    H1  582   7.579   2.143   1.737
  213TIP3    H2  583   7.673   2.096   1.628
  214TIP3   OH2  584   3.413   1.222   5.895
  214TIP3    H1  585   3.448   1.310   5.881
  214TIP3    H2  586   3.379   1.196   5.810
  215TIP3   OH2  587   5.305   7.267   5.444
  215TIP3    H1  588   5.267   7.349   5.475
  215TIP3    H2  589   5.399   7.286   5.437
  216TIP3   OH2  590   6.291   7.516   5.392
  216TIP3    H1  591   6.354   7.584   5.415
  216TIP3    H2  592   6.344   7.439   5.372
  217TIP3   OH2  593   7.585   5.163   4.954
  217TIP3    H1  594   7.506   5.217   4.948
  217TIP3    H2  595   7.635   5.201   5.026
  218TIP3   OH2  596   5.743   1.042   1.871
  218TIP3    H1  597   5.667   1.053   1.813
  218TIP3    H2  598   5.745   1.122   1.923
  219TIP3   OH2  599   0.876   6.407   4.072
  219TIP3    H1  600   0.885   6.445   4.159
  219TIP3    H2  601   0.923   6.467   4.014
  220TIP3   OH2  602   2.339   2.754   2.376
  220TIP3    H1  603   2.404   2.688   2.400
  220TIP3    H2  604   2.388   2.836   2.370
  221TIP3   OH2  605   5.686   2.855   4.513
  221TIP3    H1  606   5.699   2.916   4.586
  221TIP3    H2  607   5.723   2.899   4.437
  222TIP3   OH2  608   3.361   2.615   3.831
  222TIP3    H1  609   3.266   2.607   3.833
  222TIP3    H2  610   3.392   2.532   3.867
  223TIP3   OH2  611   1.238   0.636   2.050
  223TIP3    H1  612   1.276   0.720   2.024
  223TIP3    H2  613   1.275   0.573   1.989
  224TIP3   OH2  614   1.677   2.335   2.817
  224TIP3    H1  615   1.635   2.422   2.815
  224TIP3    H2  616   1.605   2.274   2.803
  225TIP3   OH2  617   7.113   1.519   0.362
  225TIP3    H1  618   7.197   1.549   0.328
  225TIP3    H2  619   7.120   1.529   0.457
  226TIP3   OH2  620   5.096   3.621   4.124
  226TIP3    H1  621   5.050   3.695   4.087
  226TIP3    H2  622   5.107   3.560   4.051
  227TIP3   OH2  623   0.218   6.605   0.480
  227TIP3    H1  624   0.196   6.621   0.388
  227TIP3    H2  625   0.313   6.613   0.484
  228TIP3   OH2  626   7.460   0.379   4.571
  228TIP3    H1  627   7.530   0.362   4.633
  228TIP3    H2  628   7.503   0.422   4.497
  229TIP3   OH2  629   7.279   0.223   4.930
  229TIP3    H1  630   7.231   0.300   4.900
  229TIP3    H2  631   7.294   0.238   5.023
  230TIP3   OH2  632   2.380   3.998   4.961
  230TIP3    H1  633   2.427   4.037   5.035
  230TIP3    H2  634   2.435   3.924   4.934
  231TIP3   OH2  635   4.026   0.465   2.432
  231TIP3    H1  636   3.971   0.477   2.510
  231TIP3    H2  637   4.042   0.371   2.429
  232TIP3   OH2  638   1.870   7.224   5.911
  232TIP3    H1  639   1.797   7.169   5.884
  232TIP3    H2  640   1.868   7.298   5.850
  233TIP3   OH2  641   7.504   4.984   3.929
  233TIP3    H1  642   7.450   4.986   4.009
  233TIP3    H2  643   7.465   4.914   3.876
  234TIP3   OH2  644   4.797   2.554   6.230
  234TIP3    H1  645   4.887   2.534   6.206
  234TIP3    H2  646   4.777   2.635   6.185
  235TIP3   OH2  647   6.719   6.444   1.476
  235TIP3    H1  648   6.805   6.486   1.482
  235TIP3    H2  649   6.678   6.485   1.400
  236TIP3   OH2  650   3.226   7.082   6.587
  236TIP3    H1  651   3.258   7.167   6.619
  236TIP3    H2  652   3.305   7.029   6.579
  237TIP3   OH2  653   1.627   2.938   5.400
  237TIP3    H1  654   1.554   2.879   5.382
  237TIP3    H2  655   1.703   2.881   5.406
  238TIP3   OH2  656   7.411   1.063   2.330
  238TIP3    H1  657   7.413   1.095   2.420
  238TIP3    H2  658   7.447   0.975   2.335
  239TIP3   OH2  659   4.064   7.083   0.833
  239TIP3    H1  660   4.157   7.073   0.811
  239TIP3    H2  661   4.047   7.015   0.898
  240TIP3   OH2  662   4.283   3.350   5.922
  240TIP3    H1  663   4.187   3.352   5.915
  240TIP3    H2  664   4.307   3.262   5.895
  241TIP3   OH2  665   7.570   2.960   1.065
  241TIP3    H1  666   7.644   2.936   1.009
  241TIP3    H2  667   7.605   2.956   1.154
  242TIP3   OH2  668   7.657   3.056   1.368
  242TIP3    H1  669   7.649   3.104   1.450
  242TIP3    H2  670   7.593   2.985   1.375
  243TIP3   OH2  671   2.095   0.242   2.385
  243TIP3    H1  672   2.178   0.287   2.368
  243TIP3    H2  673   2.120   0.153   2.410
  244TIP3   OH2  674   5.508   4.705   5.107
  244TIP3    H1  675   5.577   4.702   5.042
  244TIP3    H2  676   5.552   4.730   5.188
  245TIP3   OH2  677   7.546   6.360   3.659
  245TIP3    H1  678   7.484   6.339   3.729
  245TIP3    H2  679   7.631   6.335   3.694
  246TIP3   OH2  680   1.857   1.216   4.299
  246TIP3    H1  681   1.821   1.196   4.386
  246TIP3    H2  682   1.792   1.182   4.238
  247TIP3   OH2  683   1.693   0.879   5.039
  247TIP3    H1  684   1.719   0.937   4.967
  247TIP3    H2  685   1.650   0.805   4.996
  248TIP3   OH2  686   1.744   4.880   3.905
  248TIP3    H1  687   1.678   4.928   3.955
  248TIP3    H2  688   1.787   4.824   3.969
  249TIP3   OH2  689   5.969   0.174   0.236
  249TIP3    H1  690   5.947   0.253   0.186
  249TIP3    H2  691   5.917   0.180   0.316
  250TIP3   OH2  692   1.172   6.258   2.594
  250TIP3    H1  693   1.133   6.201   2.660
  250TIP3    H2  694   1.249   6.211   2.564
  251TIP3   OH2  695   3.645   2.624   0.071
  251TIP3    H1  696   3.677   2.569   0.000
  251TIP3    H2  697   3.557   2.650   0.043
  252TIP3   OH2  698   4.415   0.514   0.892
  252TIP3    H1  699   4.510   0.508   0.888
  252TIP3    H2  700   4.386   0.488   0.805
  253TIP3   OH2  701   6.385   2.744   2.062
  253TIP3    H1  702   6.445   2.796   2.116
  253TIP3    H2  703   6.358   2.672   2.119
  254TIP3   OH2  704   7.419   6.555   2.907
  254TIP3    H1  705   7.486   6.623   2.910
  254TIP3    H2  706   7.468   6.472   2.909
  255TIP3   OH2  707   8.056   5.518   3.691
  255TIP3    H1  708   7.995   5.488   3.758
  255TIP3    H2  709   8.108   5.586   3.734
  256TIP3   OH2  710   7.415   0.344   3.706
  256TIP3    H1  711   7.503   0.313   3.686
  256TIP3    H2  712   7.387   0.291   3.781
  257TIP3   OH2  713   4.242   2.345   5.147
  257TIP3    H1  714   4.178   2.370   5.214
  257TIP3    H2  715   4.322   2.327   5.196
  258TIP3   OH2  716   2.744   4.386   2.585
  258TIP3    H1  717   2.711   4.339   2.509
  258TIP3    H2  718   2.809   4.446   2.550
  259TIP3   OH2  719   5.066   4.765   0.361
  259TIP3    H1  720   5.088   4.726   0.276
  259TIP3    H2  721   5.028   4.850   0.339
  260TIP3   OH2  722   2.012   1.235   1.552
  260TIP3    H1  723   2.092   1.261   1.598
  260TIP3    H2  724   2.043   1.203   1.467
  261TIP3   OH2  725   7.336   0.726   0.469
  261TIP3    H1  726   7.334   0.815   0.435
  261TIP3    H2  727   7.386   0.676   0.405
  262TIP3   OH2  728   3.327   6.850   1.188
  262TIP3    H1  729   3.265   6.858   1.116
  262TIP3    H2  730   3.375   6.933   1.188
  263TIP3   OH2  731   3.599   4.659   4.180
  263TIP3    H1  732   3.538   4.725   4.214
  263TIP3    H2  733   3.590   4.585   4.241
  264TIP3   OH2  734   5.697   3.039   4.959
  264TIP3    H1  735   5.603   3.021   4.960
  264TIP3    H2  736   5.705   3.130   4.988
  265TIP3   OH2  737   2.576   2.460   3.442
  265TIP3    H1  738   2.594   2.373   3.476
  265TIP3    H2  739   2.646   2.515   3.477
  266TIP3   OH2  740   6.602   0.679   2.198
  266TIP3    H1  741   6.609   0.753   2.258
  266TIP3    H2  742   6.692   0.659   2.172
  267TIP3   OH2  743   1.075   4.477   4.757
  267TIP3    H1  744   1.023   4.421   4.700
  267TIP3    H2  745   1.041   4.461   4.845
  268TIP3   OH2  746   8.198   6.873   4.268
  268TIP3    H1  747   8.212   6.888   4.174
  268TIP3    H2  748   8.166   6.957   4.302
  269TIP3   OH2  749   5.704   3.749   2.101
  269TIP3    H1  750   5.708   3.805   2.023
  269TIP3    H2  751   5.723   3.808   2.174
  270TIP3   OH2  752   4.961   2.827   0.589
  270TIP3    H1  753   4.887   2.771   0.612
  270TIP3    H2  754   5.017   2.773   0.533
  271TIP3   OH2  755   5.838   3.821   4.056
  271TIP3    H1  756   5.931   3.840   4.068
  271TIP3    H2  757   5.834   3.772   3.974
  272TIP3   OH2  758   4.028   0.158   6.307
  272TIP3    H1  759   4.118   0.131   6.326
  272TIP3    H2  760   3.974   0.087   6.341
  273TIP3   OH2  761   3.396   1.001   2.276
  273TIP3    H1  762   3.434   1.079   2.314
  273TIP3    H2  763   3.449   0.983   2.198
  274TIP3   OH2  764   1.680   5.999   0.428
  274TIP3    H1  765   1.713   5.913   0.455
  274TIP3    H2  766   1.692   6.000   0.333
  275TIP3   OH2  767   2.037   2.692   4.107
  275TIP3    H1  768   1.988   2.750   4.166
  275TIP3    H2  769   1.991   2.698   4.024
  276TIP3   OH2  770   3.274   0.163   0.380
  276TIP3    H1  771   3.312   0.227   0.440
  276TIP3    H2  772   3.328   0.085   0.390
  277TIP3   OH2  773   1.041   0.607   4.553
  277TIP3    H1  774   1.122   0.556   4.560
  277TIP3    H2  775   1.046   0.649   4.468
  278TIP3   OH2  776   7.107   1.825   0.253
  278TIP3    H1  777   7.032   1.768   0.233
  278TIP3    H2  778   7.102   1.894   0.187
  279TIP3   OH2  779   2.166   1.680   3.017
  279TIP3    H1  780   2.170   1.602   2.962
  279TIP3    H2  781   2.232   1.739   2.981
  280TIP3   OH2  782   2.410   0.868   5.061
  280TIP3    H1  783   2.400   0.870   5.156
  280TIP3    H2  784   2.344   0.806   5.031
  281TIP3   OH2  785   3.127   5.106   0.893
  281TIP3    H1  786   3.191   5.143   0.954
  281TIP3    H2  787   3.111   5.177   0.830
  282TIP3   OH2  788   3.805   0.088   2.009
  282TIP3    H1  789   3.854   0.011   2.039
  282TIP3    H2  790   3.728   0.051   1.965
  283TIP3   OH2  791   5.686   1.665   0.147
  283TIP3    H1  792   5.742   1.742   0.146
  283TIP3    H2  793   5.725   1.606   0.083
  284TIP3   OH2  794   7.925   6.694   1.518
  284TIP3    H1  795   7.862   6.692   1.446
  284TIP3    H2  796   7.960   6.605   1.523
  285TIP3   OH2  797   5.732   7.672   6.169
  285TIP3    H1  798   5.766   7.651   6.257
  285TIP3    H2  799   5.683   7.753   6.182
  286TIP3   OH2  800   6.420   7.098   2.612
  286TIP3    H1  801   6.474   7.077   2.536
  286TIP3    H2  802   6.331   7.101   2.578
  287TIP3   OH2  803   5.708   1.382   5.682
  287TIP3    H1  804   5.619   1.397   5.714
  287TIP3    H2  805   5.751   1.468   5.689
  288TIP3   OH2  806   7.378   5.544   4.411
  288TIP3    H1  807   7.369   5.449   4.397
  288TIP3    H2  808   7.457   5.552   4.465
  289TIP3   OH2  809   5.022   5.823   2.063
  289TIP3    H1  810   5.109   5.833   2.025
  289TIP3    H2  811   4.971   5.895   2.025
  290TIP3   OH2  812   6.491   6.467   3.444
  290TIP3    H1  813   6.456   6.450   3.356
  290TIP3    H2  814   6.476   6.386   3.493
  291TIP3   OH2  815   5.552   5.296   0.453
  291TIP3    H1  816   5.572   5.361   0.386
  291TIP3    H2  817   5.470   5.256   0.425
  292TIP3   OH2  818   2.950   7.512   2.069
  292TIP3    H1  819   2.920   7.436   2.019
  292TIP3    H2  820   2.908   7.504   2.154
  293TIP3   OH2  821   0.959   6.503   2.277
  293TIP3    H1  822   0.935   6.468   2.191
  293TIP3    H2  823   1.022   6.573   2.258
  294TIP3   OH2  824   8.222   4.784   0.370
  294TIP3    H1  825   8.278   4.756   0.442
  294TIP3    H2  826   8.279   4.841   0.316
  295TIP3   OH2  827   6.855   6.372   4.195
  295TIP3    H1  828   6.879   6.402   4.283
  295TIP3    H2  829   6.800   6.442   4.160
  296TIP3   OH2  830   6.299   0.048   4.681
  296TIP3    H1  831   6.349  -0.010   4.740
  296TIP3    H2  832   6.336   0.135   4.695
  297TIP3   OH2  833   5.321   4.917   6.307
  297TIP3    H1  834   5.330   4.822   6.299
  297TIP3    H2  835   5.255   4.929   6.375
  298TIP3   OH2  836   0.034   0.473   6.088
  298TIP3    H1  837   0.043   0.562   6.123
  298TIP3    H2  838  -0.034   0.432   6.141
  299TIP3   OH2  839   2.689   4.280   0.690
  299TIP3    H1  840   2.645   4.216   0.633
  299TIP3    H2  841   2.712   4.230   0.768
  300TIP3   OH2  842   2.790   6.973   3.630
  300TIP3    H1  843   2.819   7.026   3.704
  300TIP3    H2  844   2.761   6.891   3.668
  301TIP3   OH2  845   5.932   3.312   3.121
  301TIP3    H1  846   5.959   3.396   3.084
  301TIP3    H2  847   5.992   3.298   3.195
  302TIP3   OH2  848   2.763   7.485   3.147
  302TIP3    H1  849   2.849   7.484   3.190
  302TIP3    H2  850   2.778   7.440   3.064
  303TIP3   OH2  851   6.523   6.214   5.230
  303TIP3    H1  852   6.465   6.231   5.156
  303TIP3    H2  853   6.464   6.205   5.305
  304TIP3   OH2  854   5.038   3.680   0.200
  304TIP3    H1  855   5.053   3.585   0.198
  304TIP3    H2  856   5.007   3.698   0.288
  305TIP3   OH2  857   7.401   3.385   1.910
  305TIP3    H1  858   7.416   3.339   1.828
  305TIP3    H2  859   7.450   3.467   1.901
  306TIP3   OH2  860   6.162   1.143   0.352
  306TIP3    H1  861   6.212   1.196   0.290
  306TIP3    H2  862   6.228   1.105   0.410
  307TIP3   OH2  863   5.774   2.641   4.378
  307TIP3    H1  864   5.703   2.638   4.314
  307TIP3    H2  865   5.742   2.700   4.446
  308TIP3   OH2  866   6.518   4.088   6.305
  308TIP3    H1  867   6.588   4.134   6.352
  308TIP3    H2  868   6.559   4.059   6.223
  309TIP3   OH2  869   5.640   1.019   3.923
  309TIP3    H1  870   5.584   1.048   3.995
  309TIP3    H2  871   5.614   1.073   3.849
  310TIP3   OH2  872   6.221   6.786   1.400
  310TIP3    H1  873   6.226   6.749   1.312
  310TIP3    H2  874   6.164   6.863   1.391
  311TIP3   OH2  875   4.895   6.912   0.804
  311TIP3    H1  876   4.833   6.917   0.877
  311TIP3    H2  877   4.908   7.003   0.777
  312TIP3   OH2  878   7.860   0.016   0.372
  312TIP3    H1  879   7.775   0.008   0.329
  312TIP3    H2  880   7.854   0.096   0.423
  313TIP3   OH2  881   3.865   2.898   0.204
  313TIP3    H1  882   3.804   2.837   0.245
  313TIP3    H2  883   3.810   2.964   0.163
  314TIP3   OH2  884   0.579   6.431   1.001
  314TIP3    H1  885   0.512   6.390   1.055
  314TIP3    H2  886   0.541   6.515   0.974
  315TIP3   OH2  887   6.686   7.206   6.733
  315TIP3    H1  888   6.756   7.192   6.669
  315TIP3    H2  889   6.616   7.147   6.706
  316TIP3   OH2  890   5.299   0.556   1.985
  316TIP3    H1  891   5.295   0.650   2.004
  316TIP3    H2  892   5.297   0.514   2.070
  317TIP3   OH2  893   7.505   7.242   1.218
  317TIP3    H1  894   7.432   7.249   1.156
  317TIP3    H2  895   7.463   7.224   1.302
  318TIP3   OH2  896   0.214   1.359   4.080
  318TIP3    H1  897   0.212   1.292   4.012
  318TIP3    H2  898   0.224   1.441   4.032
  319TIP3   OH2  899   5.382   1.186   0.064
  319TIP3    H1  900   5.467   1.145   0.083
  319TIP3    H2  901   5.370   1.172  -0.030
  320TIP3   OH2  902   2.915   2.170   1.797
  320TIP3    H1  903   2.844   2.211   1.847
  320TIP3    H2  904   2.994   2.215   1.827
  321TIP3   OH2  905   7.780   3.832   2.428
  321TIP3    H1  906   7.767   3.744   2.464
  321TIP3    H2  907   7.870   3.831   2.394
  322TIP3   OH2  908   4.994   0.899   4.426
  322TIP3    H1  909   5.031   0.856   4.503
  322TIP3    H2  910   4.901   0.907   4.446
  323TIP3   OH2  911   5.463   5.125   2.381
  323TIP3    H1  912   5.432   5.113   2.471
  323TIP3    H2  913   5.410   5.198   2.348
  324TIP3   OH2  914   0.747   2.259   0.038
  324TIP3    H1  915   0.725   2.270   0.130
  324TIP3    H2  916   0.739   2.165   0.021
  325TIP3   OH2  917   0.331   5.515   5.347
  325TIP3    H1  918   0.295   5.583   5.290
  325TIP3    H2  919   0.399   5.560   5.397
  326TIP3   OH2  920   6.183   1.415   2.926
  326TIP3    H1  921   6.139   1.372   2.999
  326TIP3    H2  922   6.139   1.382   2.848
  327TIP3   OH2  923   8.130   0.176   2.510
  327TIP3    H1  924   8.160   0.265   2.532
  327TIP3    H2  925   8.198   0.119   2.544
  328TIP3   OH2  926   1.141   1.420   2.237
  328TIP3    H1  927   1.202   1.479   2.192
  328TIP3    H2  928   1.057   1.465   2.233
  329TIP3   OH2  929   7.615   3.592   6.115
  329TIP3    H1  930   7.562   3.543   6.052
  329TIP3    H2  931   7.572   3.677   6.121
  330TIP3   OH2  932   4.547   3.587   3.345
  330TIP3    H1  933   4.470   3.641   3.361
  330TIP3    H2  934   4.601   3.638   3.285
  331TIP3   OH2  935   1.109   5.021   5.383
  331TIP3    H1  936   1.094   5.058   5.470
  331TIP3    H2  937   1.159   5.088   5.336
  332TIP3   OH2  938   7.805   6.092   1.765
  332TIP3    H1  939   7.788   6.178   1.727
  332TIP3    H2  940   7.847   6.110   1.849
  333TIP3   OH2  941   8.001   6.431   1.449
  333TIP3    H1  942   8.095   6.423   1.432
  333TIP3    H2  943   7.959   6.391   1.373
  334TIP3   OH2  944   4.653   0.197   3.575
  334TIP3    H1  945   4.733   0.146   3.562
  334TIP3    H2  946   4.667   0.277   3.524
  335TIP3   OH2  947   8.031   5.297   3.554
  335TIP3    H1  948   8.030   5.377   3.607
  335TIP3    H2  949   8.110   5.304   3.501
  336TIP3   OH2  950   6.372   1.596   5.539
  336TIP3    H1  951   6.385   1.584   5.633
  336TIP3    H2  952   6.277   1.592   5.528
  337TIP3   OH2  953   1.528   3.776   0.539
  337TIP3    H1  954   1.447   3.726   0.550
  337TIP3    H2  955   1.581   3.753   0.616
  338TIP3   OH2  956   0.416   5.659   2.367
  338TIP3    H1  957   0.483   5.592   2.382
  338TIP3    H2  958   0.461   5.727   2.317
  339TIP3   OH2  959   4.518   6.231   2.154
  339TIP3    H1  960   4.459   6.157   2.164
  339TIP3    H2  961   4.482   6.299   2.212
  340TIP3   OH2  962   6.239   4.239   4.106
  340TIP3    H1  963   6.244   4.241   4.202
  340TIP3    H2  964   6.271   4.325   4.079
  341TIP3   OH2  965   2.504   1.473   1.633
  341TIP3    H1  966   2.573   1.523   1.678
  341TIP3    H2  967   2.541   1.385   1.625
  342TIP3   OH2  968   3.993   2.192   2.345
  342TIP3    H1  969   3.959   2.105   2.365
  342TIP3    H2  970   3.918   2.250   2.354
  343TIP3   OH2  971   0.570   2.716   0.069
  343TIP3    H1  972   0.581   2.622   0.086
  343TIP3    H2  973   0.544   2.753   0.154
  344TIP3   OH2  974   3.841   2.631   2.941
  344TIP3    H1  975   3.786   2.552   2.942
  344TIP3    H2  976   3.782   2.701   2.914
  345TIP3   OH2  977   8.087   0.375   4.806
  345TIP3    H1  978   8.182   0.385   4.814
  345TIP3    H2  979   8.070   0.282   4.824
  346TIP3   OH2  980   3.514   1.344   6.434
  346TIP3    H1  981   3.426   1.334   6.398
  346TIP3    H2  982   3.511   1.427   6.482
  347TIP3   OH2  983   4.505   2.613   2.811
  347TIP3    H1  984   4.461   2.534   2.841
  347TIP3    H2  985   4.584   2.582   2.767
  348TIP3   OH2  986   7.684   0.228   3.873
  348TIP3    H1  987   7.684   0.271   3.958
  348TIP3    H2  988   7.743   0.154   3.883
  349TIP3   OH2  989   0.573   4.655   2.941
  349TIP3    H1  990   0.496   4.676   2.993
  349TIP3    H2  991   0.569   4.713   2.866
  350TIP3   OH2  992   1.607   2.028   5.074
  350TIP3    H1  993   1.531   2.081   5.051
  350TIP3    H2  994   1.587   1.941   5.038
  351TIP3   OH2  995   0.659   6.754   4.537
  351TIP3    H1  996   0.619   6.754   4.624
  351TIP3    H2  997   0.749   6.725   4.552
  352TIP3   OH2  998   0.682   1.970   0.014
  352TIP3    H1  999   0.630   1.947   0.091
  352TIP3    H2 1000   0.683   1.890  -0.039
  353TIP3   OH2 1001   6.547   7.297   1.734
  353TIP3    H1 1002   6.455   7.314   1.717
  353TIP3    H2 1003   6.551   7.279   1.828
  354TIP3   OH2 1004   7.838   1.322   4.107
  354TIP3    H1 1005   7.913   1.363   4.150
  354TIP3    H2 1006   7.869   1.300   4.020
  355TIP3   OH2 1007   0.832   0.194   0.904
  355TIP3    H1 1008   0.867   0.283   0.908
  355TIP3    H2 1009   0.754   0.196   0.960
  356TIP3   OH2 1010   2.681   2.360   2.236
  356TIP3    H1 1011   2.706   2.267   2.242
  356TIP3    H2 1012   2.591   2.358   2.205
  357TIP3   OH2 1013   3.110   2.156   3.094
  357TIP3    H1 1014   3.169   2.103   3.148
  357TIP3    H2 1015   3.168   2.202   3.032
  358TIP3   OH2 1016   0.539   7.310   3.687
  358TIP3    H1 1017   0.512   7.288   3.776
  358TIP3    H2 1018   0.626   7.272   3.677
  359TIP3   OH2 1019   0.562   2.065   5.676
  359TIP3    H1 1020   0.539   1.979   5.711
  359TIP3    H2 1021   0.640   2.091   5.725
  360TIP3   OH2 1022   3.601   2.837   3.237
  360TIP3    H1 1023   3.688   2.865   3.208
  360TIP3    H2 1024   3.558   2.918   3.263
  361TIP3   OH2 1025   3.648   3.283   0.661
  361TIP3    H1 1026   3.712   3.347   0.692
  361TIP3    H2 1027   3.583   3.334   0.613
  362TIP3   OH2 1028   4.919   2.701   3.786
  362TIP3    H1 1029   4.844   2.643   3.772
  362TIP3    H2 1030   4.995   2.643   3.782
  363TIP3   OH2 1031   4.849   4.817   5.201
  363TIP3    H1 1032   4.930   4.782   5.164
  363TIP3    H2 1033   4.787   4.818   5.129
  364TIP3   OH2 1034   2.359   0.915   0.957
  364TIP3    H1 1035   2.354   1.006   0.987
  364TIP3    H2 1036   2.380   0.922   0.864
  365TIP3   OH2 1037   2.758   6.633   2.309
  365TIP3    H1 1038   2.851   6.619   2.291
  365TIP3    H2 1039   2.742   6.584   2.390
  366TIP3   OH2 1040   1.969   2.257   6.004
  366TIP3    H1 1041   2.058   2.291   6.012
  366TIP3    H2 1042   1.917   2.331   5.973
  367TIP3   OH2 1043   1.826   6.052   5.496
  367TIP3    H1 1044   1.879   6.014   5.567
  367TIP3    H2 1045   1.841   6.146   5.502
  368TIP3   OH2 1046   0.280   4.053   5.828
  368TIP3    H1 1047   0.232   4.101   5.896
  368TIP3    H2 1048   0.372   4.077   5.842
  369TIP3   OH2 1049   3.101   4.637   2.750
  369TIP3    H1 1050   3.167   4.635   2.680
  369TIP3    H2 1051   3.105   4.549   2.788
  370TIP3   OH2 1052   8.061   2.965   0.520
  370TIP3    H1 1053   8.113   2.975   0.599
  370TIP3    H2 1054   8.042   2.871   0.516
  371TIP3   OH2 1055   5.279   2.581   3.228
  371TIP3    H1 1056   5.207   2.642   3.213
  371TIP3    H2 1057   5.348   2.609   3.168
  372TIP3   OH2 1058   1.859   2.444   1.313
  372TIP3    H1 1059   1.933   2.386   1.293
  372TIP3    H2 1060   1.788   2.412   1.258
  373TIP3   OH2 1061   2.344   0.224   4.505
  373TIP3    H1 1062   2.412   0.169   4.466
  373TIP3    H2 1063   2.390   0.300   4.539
  374TIP3   OH2 1064   3.830   1.664   4.185
  374TIP3    H1 1065   3.844   1.569   4.192
  374TIP3    H2 1066   3.834   1.681   4.091
  375TIP3   OH2 1067   1.124   1.243   1.455
  375TIP3    H1 1068   1.183   1.260   1.381
  375TIP3    H2 1069   1.182   1.218   1.527
  376TIP3   OH2 1070   8.125   7.673   1.469
  376TIP3    H1 1071   8.138   7.578   1.462
  376TIP3    H2 1072   8.041   7.682   1.513
  377TIP3   OH2 1073   6.975   1.261   3.963
  377TIP3    H1 1074   6.988   1.200   3.891
  377TIP3    H2 1075   6.918   1.329   3.926
  378TIP3   OH2 1076   3.869   0.876   5.832
  378TIP3    H1 1077   3.944   0.822   5.808
  378TIP3    H2 1078   3.900   0.927   5.907
  379TIP3   OH2 1079   2.947   1.595   3.890
  379TIP3    H1 1080   2.931   1.662   3.957
  379TIP3    H2 1081   2.870   1.600   3.833
  380TIP3   OH2 1082   4.506   4.518   3.345
  380TIP3    H1 1083   4.563   4.481   3.278
  380TIP3    H2 1084   4.561   4.520   3.424
  381TIP3   OH2 1085   5.692   3.307   5.387
  381TIP3    H1 1086   5.644   3.336   5.465
  381TIP3    H2 1087   5.712   3.215   5.404
  382TIP3   OH2 1088   1.327   6.168   4.467
  382TIP3    H1 1089   1.308   6.260   4.487
  382TIP3    H2 1090   1.272   6.148   4.391
  383TIP3   OH2 1091   1.209   7.750   5.584
  383TIP3    H1 1092   1.280   7.690   5.560
  383TIP3    H2 1093   1.133   7.718   5.535
  384TIP3   OH2 1094   4.159   1.770   6.088
  384TIP3    H1 1095   4.110   1.700   6.044
  384TIP3    H2 1096   4.101   1.798   6.159
  385TIP3   OH2 1097   6.165   7.458   6.044
  385TIP3    H1 1098   6.098   7.415   5.991
  385TIP3    H2 1099   6.145   7.551   6.037
  386TIP3   OH2 1100   2.418   4.955   1.017
  386TIP3    H1 1101   2.477   5.026   0.991
  386TIP3    H2 1102   2.426   4.891   0.946
  387TIP3   OH2 1103   3.464   2.073   0.910
  387TIP3    H1 1104   3.486   2.157   0.950
  387TIP3    H2 1105   3.373   2.084   0.881
  388TIP3   OH2 1106   1.596   2.534   3.683
  388TIP3    H1 1107   1.604   2.453   3.733
  388TIP3    H2 1108   1.686   2.554   3.655
  389TIP3   OH2 1109   7.797   2.155   3.570
  389TIP3    H1 1110   7.890   2.144   3.591
  389TIP3    H2 1111   7.753   2.150   3.655
  390TIP3   OH2 1112   3.625   2.941   4.856
  390TIP3    H1 1113   3.708   2.901   4.831
  390TIP3    H2 1114   3.649   3.029   4.885
  391TIP3   OH2 1115   7.774   7.805   4.048
  391TIP3    H1 1116   7.801   7.723   4.089
  391TIP3    H2 1117   7.687   7.787   4.012
  392TIP3   OH2 1118   7.235   1.898   0.475
  392TIP3    H1 1119   7.180   1.879   0.400
  392TIP3    H2 1120   7.211   1.832   0.540
  393TIP3   OH2 1121   1.234   6.808   6.070
  393TIP3    H1 1122   1.246   6.901   6.091
  393TIP3    H2 1123   1.185   6.808   5.988
  394TIP3   OH2 1124   2.353   5.401   6.090
  394TIP3    H1 1125   2.376   5.315   6.125
  394TIP3    H2 1126   2.272   5.425   6.137
  395TIP3   OH2 1127   8.273   2.524   6.621
  395TIP3    H1 1128   8.300   2.434   6.641
  395TIP3    H2 1129   8.247   2.560   6.705
  396TIP3   OH2 1130   5.829   6.292   5.356
  396TIP3    H1 1131   5.743   6.295   5.314
  396TIP3    H2 1132   5.891   6.300   5.283
  397TIP3   OH2 1133   7.659   0.532   6.111
  397TIP3    H1 1134   7.700   0.523   6.026
  397TIP3    H2 1135   7.731   0.523   6.174
  398TIP3   OH2 1136   6.722   6.752   2.905
  398TIP3    H1 1137   6.761   6.665   2.915
  398TIP3    H2 1138   6.780   6.797   2.843
  399TIP3   OH2 1139   6.970   2.962   3.249
  399TIP3    H1 1140   6.892   2.914   3.278
  399TIP3    H2 1141   6.936   3.030   3.191
  400TIP3   OH2 1142   4.653   7.730   2.614
  400TIP3    H1 1143   4.739   7.770   2.625
  400TIP3    H2 1144   4.643   7.719   2.520
  401TIP3   OH2 1145   1.472   7.115   3.777
  401TIP3    H1 1146   1.537   7.158   3.722
  401TIP3    H2 1147   1.437   7.184   3.833
  402TIP3   OH2 1148   3.413   7.502   0.077
  402TIP3    H1 1149   3.478   7.432   0.081
  402TIP3    H2 1150   3.382   7.512   0.167
  403TIP3   OH2 1151   7.669   0.825   3.768
  403TIP3    H1 1152   7.653   0.891   3.701
  403TIP3    H2 1153   7.760   0.837   3.793
  404TIP3   OH2 1154   4.100   6.840   1.939
  404TIP3    H1 1155   4.039   6.856   1.867
  404TIP3    H2 1156   4.098   6.922   1.990
  405TIP3   OH2 1157   1.126   0.169   6.200
  405TIP3    H1 1158   1.056   0.144   6.260
  405TIP3    H2 1159   1.095   0.138   6.114
  406TIP3   OH2 1160   1.399   7.147   1.394
  406TIP3    H1 1161   1.384   7.200   1.472
  406TIP3    H2 1162   1.437   7.066   1.427
  407TIP3   OH2 1163   1.090   3.630   2.705
  407TIP3    H1 1164   1.025   3.642   2.635
  407TIP3    H2 1165   1.166   3.592   2.662
  408TIP3   OH2 1166   6.894   6.497   1.761
  408TIP3    H1 1167   6.956   6.569   1.779
  408TIP3    H2 1168   6.817   6.519   1.813
  409TIP3   OH2 1169   7.977   5.163   1.459
  409TIP3    H1 1170   7.929   5.236   1.497
  409TIP3    H2 1171   8.057   5.202   1.423
  410TIP3   OH2 1172   0.424   6.510   0.289
  410TIP3    H1 1173   0.424   6.414   0.284
  410TIP3    H2 1174   0.421   6.539   0.197
  411TIP3   OH2 1175   2.368   1.003   3.027
  411TIP3    H1 1176   2.386   0.965   3.113
  411TIP3    H2 1177   2.454   1.025   2.992
  412TIP3   OH2 1178   7.221   5.133   4.449
  412TIP3    H1 1179   7.290   5.114   4.512
  412TIP3    H2 1180   7.265   5.183   4.380
  413TIP3   OH2 1181   2.706   0.815   4.174
  413TIP3    H1 1182   2.657   0.827   4.255
  413TIP3    H2 1183   2.774   0.882   4.178
  414TIP3   OH2 1184   2.070   0.238   0.113
  414TIP3    H1 1185   2.083   0.230   0.207
  414TIP3    H2 1186   2.013   0.314   0.103
  415TIP3   OH2 1187   6.975   7.350   0.893
  415TIP3    H1 1188   7.047   7.393   0.847
  415TIP3    H2 1189   6.954   7.409   0.966
  416TIP3   OH2 1190   1.201   5.516   0.429
  416TIP3    H1 1191   1.290   5.507   0.394
  416TIP3    H2 1192   1.197   5.454   0.501
  417TIP3   OH2 1193   2.773   2.543   0.593
  417TIP3    H1 1194   2.795   2.478   0.660
  417TIP3    H2 1195   2.798   2.627   0.631
  418TIP3   OH2 1196   7.838   3.925   3.044
  418TIP3    H1 1197   7.900   3.985   3.087
  418TIP3    H2 1198   7.770   3.983   3.009
  419TIP3   OH2 1199   7.091   2.991   6.281
  419TIP3    H1 1200   7.139   3.060   6.328
  419TIP3    H2 1201   7.027   3.038   6.229
  420TIP3   OH2 1202   3.133   5.971   0.279
  420TIP3    H1 1203   3.162   6.028   0.350
  420TIP3    H2 1204   3.077   5.906   0.321
  421TIP3   OH2 1205   2.745   3.384   5.365
  421TIP3    H1 1206   2.808   3.323   5.326
  421TIP3    H2 1207   2.798   3.456   5.398
  422TIP3   OH2 1208   1.600   5.225   6.025
  422TIP3    H1 1209   1.639   5.139   6.006
  422TIP3    H2 1210   1.557   5.213   6.110
  423TIP3   OH2 1211   1.551   7.711   2.162
  423TIP3    H1 1212   1.476   7.742   2.112
  423TIP3    H2 1213   1.530   7.620   2.184
  424TIP3   OH2 1214   5.081   2.442   6.590
  424TIP3    H1 1215   5.066   2.363   6.539
  424TIP3    H2 1216   5.009   2.500   6.567
  425TIP3   OH2 1217   7.437   0.545   2.221
  425TIP3    H1 1218   7.525   0.513   2.202
  425TIP3    H2 1219   7.381   0.468   2.211
  426TIP3   OH2 1220   4.015   5.896   0.953
  426TIP3    H1 1221   4.080   5.939   0.897
  426TIP3    H2 1222   3.938   5.952   0.948
  427TIP3   OH2 1223   4.869   3.202   2.834
  427TIP3    H1 1224   4.819   3.173   2.910
  427TIP3    H2 1225   4.925   3.127   2.812
  428TIP3   OH2 1226   8.099   2.578   0.607
  428TIP3    H1 1227   8.081   2.488   0.632
  428TIP3    H2 1228   8.143   2.571   0.522
  429TIP3   OH2 1229   6.801   4.158   4.755
  429TIP3    H1 1230   6.888   4.192   4.732
  429TIP3    H2 1231   6.740   4.215   4.708
  430TIP3   OH2 1232   6.168   5.492   2.196
  430TIP3    H1 1233   6.137   5.417   2.248
  430TIP3    H2 1234   6.259   5.504   2.223
  431TIP3   OH2 1235   4.898   5.016   2.981
  431TIP3    H1 1236   4.858   5.100   2.959
  431TIP3    H2 1237   4.959   5.037   3.052
  432TIP3   OH2 1238   2.098   4.336   3.766
  432TIP3    H1 1239   2.008   4.311   3.790
  432TIP3    H2 1240   2.088   4.417   3.716
  433TIP3   OH2 1241   6.843   7.390   3.278
  433TIP3    H1 1242   6.862   7.394   3.372
  433TIP3    H2 1243   6.864   7.300   3.253
  434TIP3   OH2 1244   2.753   4.878   1.929
  434TIP3    H1 1245   2.793   4.877   1.841
  434TIP3    H2 1246   2.787   4.800   1.972
  435TIP3   OH2 1247   6.491   1.607   4.179
  435TIP3    H1 1248   6.570   1.650   4.212
  435TIP3    H2 1249   6.453   1.564   4.255
  436TIP3   OH2 1250   6.105   6.416   4.928
  436TIP3    H1 1251   6.054   6.390   4.851
  436TIP3    H2 1252   6.100   6.511   4.929
  437TIP3   OH2 1253   5.288   1.617   2.921
  437TIP3    H1 1254   5.334   1.536   2.900
  437TIP3    H2 1255   5.329   1.683   2.865
  438TIP3   OH2 1256   1.365   2.593   1.348
  438TIP3    H1 1257   1.429   2.531   1.313
  438TIP3    H2 1258   1.417   2.667   1.378
  439TIP3   OH2 1259   1.122   0.388   5.999
  439TIP3    H1 1260   1.125   0.342   6.082
  439TIP3    H2 1261   1.078   0.471   6.018
  440TIP3   OH2 1262   7.626   4.861   1.187
  440TIP3    H1 1263   7.634   4.830   1.277
  440TIP3    H2 1264   7.566   4.935   1.193
  441TIP3   OH2 1265   6.428   3.582   0.047
  441TIP3    H1 1266   6.369   3.521   0.002
  441TIP3    H2 1267   6.507   3.531   0.064
  442TIP3   OH2 1268   4.389   7.618   0.961
  442TIP3    H1 1269   4.416   7.607   0.870
  442TIP3    H2 1270   4.464   7.663   1.002
  443TIP3   OH2 1271   2.922   3.758   3.585
  443TIP3    H1 1272   2.996   3.763   3.525
  443TIP3    H2 1273   2.849   3.729   3.531
  444TIP3   OH2 1274   7.034   7.399   2.763
  444TIP3    H1 1275   7.012   7.333   2.828
  444TIP3    H2 1276   6.952   7.447   2.749
  445TIP3   OH2 1277   3.636   6.738   1.419
  445TIP3    H1 1278   3.592   6.819   1.394
  445TIP3    H2 1279   3.723   6.765   1.449
  446TIP3   OH2 1280   7.453   6.053   0.181
  446TIP3    H1 1281   7.451   6.080   0.273
  446TIP3    H2 1282   7.506   5.974   0.180
  447TIP3   OH2 1283   7.029   7.296   4.133
  447TIP3    H1 1284   6.977   7.375   4.150
  447TIP3    H2 1285   7.109   7.329   4.093
  448TIP3   OH2 1286   1.854   1.236   3.361
  448TIP3    H1 1287   1.760   1.242   3.343
  448TIP3    H2 1288   1.895   1.266   3.280
  449TIP3   OH2 1289   4.772   7.048   6.277
  449TIP3    H1 1290   4.729   7.055   6.192
  449TIP3    H2 1291   4.744   7.127   6.325
  450TIP3   OH2 1292   6.958   0.280   1.452
  450TIP3    H1 1293   7.004   0.358   1.422
  450TIP3    H2 1294   6.937   0.232   1.372
  451TIP3   OH2 1295   1.472   2.125   6.469
  451TIP3    H1 1296   1.457   2.114   6.563
  451TIP3    H2 1297   1.448   2.041   6.431
  452TIP3   OH2 1298   6.292   2.652   3.332
  452TIP3    H1 1299   6.320   2.562   3.321
  452TIP3    H2 1300   6.199   2.651   3.310
  453TIP3   OH2 1301   1.847   4.142   3.569
  453TIP3    H1 1302   1.813   4.200   3.500
  453TIP3    H2 1303   1.849   4.055   3.529
  454TIP3   OH2 1304   1.422   7.340   5.928
  454TIP3    H1 1305   1.469   7.265   5.965
  454TIP3    H2 1306   1.491   7.394   5.888
  455TIP3   OH2 1307   2.971   5.240   5.066
  455TIP3    H1 1308   2.924   5.292   5.130
  455TIP3    H2 1309   2.902   5.202   5.011
  456TIP3   OH2 1310   6.637   6.362   5.474
  456TIP3    H1 1311   6.570   6.322   5.530
  456TIP3    H2 1312   6.588   6.423   5.419
  457TIP3   OH2 1313   7.198   7.281   2.050
  457TIP3    H1 1314   7.193   7.246   2.139
  457TIP3    H2 1315   7.195   7.203   1.994
  458TIP3   OH2 1316   0.111   6.160   0.108
  458TIP3    H1 1317   0.051   6.234   0.115
  458TIP3    H2 1318   0.080   6.097   0.173
  459TIP3   OH2 1319   7.403   4.914   1.425
  459TIP3    H1 1320   7.396   4.903   1.330
  459TIP3    H2 1321   7.451   4.996   1.436
  460TIP3   OH2 1322   1.794   2.465   6.597
  460TIP3    H1 1323   1.807   2.496   6.507
  460TIP3    H2 1324   1.775   2.545   6.647
  461TIP3   OH2 1325   7.413   2.477   3.789
  461TIP3    H1 1326   7.444   2.434   3.709
  461TIP3    H2 1327   7.490   2.519   3.825
  462TIP3   OH2 1328   6.474   1.505   2.930
  462TIP3    H1 1329   6.526   1.574   2.890
  462TIP3    H2 1330   6.421   1.470   2.858
  463TIP3   OH2 1331   2.889   1.905   4.935
  463TIP3    H1 1332   2.974   1.921   4.976
  463TIP3    H2 1333   2.882   1.810   4.931
  464TIP3   OH2 1334   5.183   1.257   5.713
  464TIP3    H1 1335   5.256   1.200   5.689
  464TIP3    H2 1336   5.196   1.274   5.806
  465TIP3   OH2 1337   3.197   2.473   2.347
  465TIP3    H1 1338   3.201   2.553   2.294
  465TIP3    H2 1339   3.286   2.462   2.382
  466TIP3   OH2 1340   0.975   5.879   6.667
  466TIP3    H1 1341   0.931   5.928   6.736
  466TIP3    H2 1342   1.005   5.946   6.605
  467TIP3   OH2 1343   0.485   4.106   0.378
  467TIP3    H1 1344   0.475   4.070   0.466
  467TIP3    H2 1345   0.402   4.151   0.361
  468TIP3   OH2 1346   3.051   1.795   4.534
  468TIP3    H1 1347   3.061   1.878   4.487
  468TIP3    H2 1348   3.012   1.736   4.469
  469TIP3   OH2 1349   1.233   3.330   5.530
  469TIP3    H1 1350   1.160   3.392   5.535
  469TIP3    H2 1351   1.280   3.342   5.613
  470TIP3   OH2 1352   3.651   4.355   3.755
  470TIP3    H1 1353   3.609   4.429   3.711
  470TIP3    H2 1354   3.611   4.355   3.843
  471TIP3   OH2 1355   0.258   5.172   0.815
  471TIP3    H1 1356   0.353   5.183   0.804
  471TIP3    H2 1357   0.237   5.094   0.764
  472TIP3   OH2 1358   4.940   5.976   6.733
  472TIP3    H1 1359   4.993   5.896   6.726
  472TIP3    H2 1360   5.000   6.041   6.770
  473TIP3   OH2 1361   3.047   1.462   2.525
  473TIP3    H1 1362   2.979   1.528   2.532
  473TIP3    H2 1363   3.045   1.435   2.433
  474TIP3   OH2 1364   4.849   7.326   3.379
  474TIP3    H1 1365   4.830   7.239   3.344
  474TIP3    H2 1366   4.940   7.342   3.353
  475TIP3   OH2 1367   2.595   3.397   0.647
  475TIP3    H1 1368   2.569   3.484   0.617
  475TIP3    H2 1369   2.540   3.380   0.724
  476TIP3   OH2 1370   1.748   7.326   0.622
  476TIP3    H1 1371   1.666   7.369   0.644
  476TIP3    H2 1372   1.747   7.244   0.673
  477TIP3   OH2 1373   3.977   6.020   6.185
  477TIP3    H1 1374   3.958   6.091   6.124
  477TIP3    H2 1375   4.071   6.007   6.177
  478TIP3   OH2 1376   6.704   6.768   1.433
  478TIP3    H1 1377   6.671   6.743   1.519
  478TIP3    H2 1378   6.772   6.833   1.451
  479TIP3   OH2 1379   1.474   0.059   1.818
  479TIP3    H1 1380   1.404  -0.003   1.837
  479TIP3    H2 1381   1.483   0.056   1.723
  480TIP3   OH2 1382   0.782   7.740   4.158
  480TIP3    H1 1383   0.807   7.736   4.251
  480TIP3    H2 1384   0.763   7.833   4.142
  481TIP3   OH2 1385   6.215   3.575   3.078
  481TIP3    H1 1386   6.174   3.606   3.158
  481TIP3    H2 1387   6.144   3.534   3.028
  482TIP3   OH2 1388   5.548   4.901   5.337
  482TIP3    H1 1389   5.535   4.996   5.340
  482TIP3    H2 1390   5.643   4.889   5.343
  483TIP3   OH2 1391   3.010   2.024   5.494
  483TIP3    H1 1392   3.053   2.035   5.579
  483TIP3    H2 1393   2.990   1.931   5.489
  484TIP3   OH2 1394   4.270   1.804   3.192
  484TIP3    H1 1395   4.234   1.722   3.226
  484TIP3    H2 1396   4.210   1.830   3.123
  485TIP3   OH2 1397   6.710   4.703   2.887
  485TIP3    H1 1398   6.737   4.786   2.847
  485TIP3    H2 1399   6.634   4.676   2.837
  486TIP3   OH2 1400   3.408   7.450   4.838
  486TIP3    H1 1401   3.374   7.390   4.771
  486TIP3    H2 1402   3.332   7.467   4.894
  487TIP3   OH2 1403   3.574   4.100   3.503
  487TIP3    H1 1404   3.548   4.192   3.503
  487TIP3    H2 1405   3.623   4.089   3.421
  488TIP3   OH2 1406   3.630   1.129   4.215
  488TIP3    H1 1407   3.591   1.211   4.245
  488TIP3    H2 1408   3.568   1.095   4.151
  489TIP3   OH2 1409   8.014   4.095   3.129
  489TIP3    H1 1410   8.068   4.171   3.111
  489TIP3    H2 1411   8.046   4.061   3.212
  490TIP3   OH2 1412   7.606   3.613   3.289
  490TIP3    H1 1413   7.645   3.639   3.205
  490TIP3    H2 1414   7.681   3.604   3.348
  491TIP3   OH2 1415   4.819   0.775   1.104
  491TIP3    H1 1416   4.736   0.769   1.153
  491TIP3    H2 1417   4.797   0.825   1.025
  492TIP3   OH2 1418   0.387   6.407   6.722
  492TIP3    H1 1419   0.323   6.450   6.666
  492TIP3    H2 1420   0.463   6.465   6.719
  493TIP3   OH2 1421   2.586   5.660   4.532
  493TIP3    H1 1422   2.676   5.629   4.531
  493TIP3    H2 1423   2.555   5.640   4.620
  494TIP3   OH2 1424   4.721   2.475   3.414
  494TIP3    H1 1425   4.712   2.541   3.482
  494TIP3    H2 1426   4.689   2.519   3.334
  495TIP3   OH2 1427   1.909   0.570   1.470
  495TIP3    H1 1428   1.826   0.607   1.439
  495TIP3    H2 1429   1.973   0.594   1.402
  496TIP3   OH2 1430   3.896   1.263   5.492
  496TIP3    H1 1431   3.837   1.316   5.438
  496TIP3    H2 1432   3.979   1.262   5.443
  497TIP3   OH2 1433   2.449   4.214   3.786
  497TIP3    H1 1434   2.543   4.220   3.769
  497TIP3    H2 1435   2.440   4.236   3.879
  498TIP3   OH2 1436   5.237   3.431   5.914
  498TIP3    H1 1437   5.265   3.390   5.832
  498TIP3    H2 1438   5.226   3.358   5.975
  499TIP3   OH2 1439   3.361   4.908   0.966
  499TIP3    H1 1440   3.410   4.937   1.043
  499TIP3    H2 1441   3.297   4.977   0.951
  500TIP3   OH2 1442   1.036   0.418   0.950
  500TIP3    H1 1443   1.127   0.405   0.977
  500TIP3    H2 1444   0.986   0.413   1.031
  501TIP3   OH2 1445   3.212   1.050   5.247
  501TIP3    H1 1446   3.217   0.963   5.207
  501TIP3    H2 1447   3.246   1.037   5.336
  502TIP3   OH2 1448   0.123   3.293   3.488
  502TIP3    H1 1449   0.202   3.315   3.438
  502TIP3    H2 1450   0.089   3.215   3.445
  503TIP3   OH2 1451   2.827   4.715   6.195
  503TIP3    H1 1452   2.871   4.773   6.257
  503TIP3    H2 1453   2.858   4.745   6.109
  504TIP3   OH2 1454   4.753   1.869   3.415
  504TIP3    H1 1455   4.793   1.948   3.379
  504TIP3    H2 1456   4.715   1.825   3.339
  505TIP3   OH2 1457   3.346   4.525   5.094
  505TIP3    H1 1458   3.358   4.619   5.078
  505TIP3    H2 1459   3.391   4.510   5.177
  506TIP3   OH2 1460   2.977   7.299   4.876
  506TIP3    H1 1461   2.933   7.223   4.916
  506TIP3    H2 1462   2.970   7.368   4.942
  507TIP3   OH2 1463   4.521   3.648   5.342
  507TIP3    H1 1464   4.549   3.738   5.321
  507TIP3    H2 1465   4.578   3.621   5.414
  508TIP3   OH2 1466   1.723   6.471   0.455
  508TIP3    H1 1467   1.793   6.424   0.410
  508TIP3    H2 1468   1.649   6.468   0.394
  509TIP3   OH2 1469   3.947   0.643   5.383
  509TIP3    H1 1470   3.992   0.714   5.337
  509TIP3    H2 1471   3.973   0.563   5.336
  510TIP3   OH2 1472   5.224   3.898   0.657
  510TIP3    H1 1473   5.158   3.902   0.726
  510TIP3    H2 1474   5.306   3.916   0.702
  511TIP3   OH2 1475   3.923   3.200   6.323
  511TIP3    H1 1476   3.986   3.219   6.392
  511TIP3    H2 1477   3.841   3.239   6.353
  512TIP3   OH2 1478   8.138   4.883   2.554
  512TIP3    H1 1479   8.191   4.896   2.475
  512TIP3    H2 1480   8.050   4.866   2.521
  513TIP3   OH2 1481   0.137   3.958   0.823
  513TIP3    H1 1482   0.138   3.881   0.765
  513TIP3    H2 1483   0.113   3.922   0.909
  514TIP3   OH2 1484   4.947   5.068   1.125
  514TIP3    H1 1485   4.952   5.150   1.075
  514TIP3    H2 1486   4.854   5.056   1.144
  515TIP3   OH2 1487   6.098   5.499   5.935
  515TIP3    H1 1488   6.046   5.428   5.895
  515TIP3    H2 1489   6.157   5.454   5.995
  516TIP3   OH2 1490   4.813   0.824   6.289
  516TIP3    H1 1491   4.732   0.876   6.282
  516TIP3    H2 1492   4.829   0.794   6.200
  517TIP3   OH2 1493   0.138   2.837   3.031
  517TIP3    H1 1494   0.194   2.913   3.014
  517TIP3    H2 1495   0.136   2.789   2.948
  518TIP3   OH2 1496   0.561   6.401   2.184
  518TIP3    H1 1497   0.521   6.478   2.144
  518TIP3    H2 1498   0.647   6.395   2.143
  519TIP3   OH2 1499   0.193   1.080   5.839
  519TIP3    H1 1500   0.288   1.079   5.839
  519TIP3    H2 1501   0.167   1.023   5.912
  520TIP3   OH2 1502   6.986   3.658   0.765
  520TIP3    H1 1503   6.902   3.671   0.808
  520TIP3    H2 1504   7.018   3.747   0.748
  521TIP3   OH2 1505   3.083   2.714   1.085
  521TIP3    H1 1506   3.148   2.682   1.023
  521TIP3    H2 1507   3.079   2.648   1.154
  522TIP3   OH2 1508   2.123   3.033   2.205
  522TIP3    H1 1509   2.079   2.969   2.148
  522TIP3    H2 1510   2.094   3.118   2.172
  523TIP3   OH2 1511   3.203   1.402   1.899
  523TIP3    H1 1512   3.108   1.415   1.900
  523TIP3    H2 1513   3.224   1.376   1.809
  524TIP3   OH2 1514   2.332   4.260   1.211
  524TIP3    H1 1515   2.238   4.281   1.203
  524TIP3    H2 1516   2.364   4.320   1.278
  525TIP3   OH2 1517   8.160   1.497   2.478
  525TIP3    H1 1518   8.117   1.412   2.489
  525TIP3    H2 1519   8.190   1.520   2.565
  526TIP3   OH2 1520   2.256   5.587   3.671
  526TIP3    H1 1521   2.313   5.586   3.748
  526TIP3    H2 1522   2.204   5.667   3.681
  527TIP3   OH2 1523   3.738   6.059   5.851
  527TIP3    H1 1524   3.665   5.999   5.870
  527TIP3    H2 1525   3.705   6.115   5.781
  528TIP3   OH2 1526   0.300   0.815   5.446
  528TIP3    H1 1527   0.256   0.736   5.417
  528TIP3    H2 1528   0.392   0.790   5.454
  529TIP3   OH2 1529   6.330   0.366   4.554
  529TIP3    H1 1530   6.404   0.307   4.565
  529TIP3    H2 1531   6.276   0.324   4.487
  530TIP3   OH2 1532   4.999   6.044   5.867
  530TIP3    H1 1533   4.947   6.116   5.901
  530TIP3    H2 1534   5.020   6.069   5.777
  531TIP3   OH2 1535   1.638   0.681   0.668
  531TIP3    H1 1536   1.717   0.728   0.644
  531TIP3    H2 1537   1.569   0.748   0.668
  532TIP3   OH2 1538   2.052   5.331   5.298
  532TIP3    H1 1539   2.093   5.266   5.355
  532TIP3    H2 1540   2.124   5.363   5.244
  533TIP3   OH2 1541   7.735   6.001   3.993
  533TIP3    H1 1542   7.721   5.989   3.899
  533TIP3    H2 1543   7.790   6.079   3.999
  534TIP3   OH2 1544   7.091   6.878   3.723
  534TIP3    H1 1545   7.019   6.827   3.686
  534TIP3    H2 1546   7.079   6.871   3.818
  535TIP3   OH2 1547   5.078   2.485   3.708
  535TIP3    H1 1548   5.124   2.499   3.626
  535TIP3    H2 1549   4.996   2.443   3.683
  536TIP3   OH2 1550   4.068   1.420   4.319
  536TIP3    H1 1551   4.153   1.381   4.340
  536TIP3    H2 1552   4.024   1.353   4.267
  537TIP3   OH2 1553   4.606   2.422   1.092
  537TIP3    H1 1554   4.524   2.388   1.128
  537TIP3    H2 1555   4.580   2.475   1.017
  538TIP3   OH2 1556   8.133   7.533   2.298
  538TIP3    H1 1557   8.200   7.492   2.353
  538TIP3    H2 1558   8.129   7.478   2.220
  539TIP3   OH2 1559   0.740   0.911   3.815
  539TIP3    H1 1560   0.774   0.913   3.726
  539TIP3    H2 1561   0.812   0.877   3.868
  540TIP3   OH2 1562   4.670   4.822   2.908
  540TIP3    H1 1563   4.661   4.811   2.813
  540TIP3    H2 1564   4.698   4.912   2.919
  541TIP3   OH2 1565   3.714   1.440   5.334
  541TIP3    H1 1566   3.644   1.375   5.333
  541TIP3    H2 1567   3.670   1.524   5.346
  542TIP3   OH2 1568   2.696   5.337   5.132
  542TIP3    H1 1569   2.691   5.343   5.228
  542TIP3    H2 1570   2.608   5.359   5.102
  543TIP3   OH2 1571   8.110   0.737   6.481
  543TIP3    H1 1572   8.114   0.641   6.484
  543TIP3    H2 1573   8.083   0.756   6.391
  544TIP3   OH2 1574   5.699   0.956   4.600
  544TIP3    H1 1575   5.763   0.892   4.567
  544TIP3    H2 1576   5.725   0.971   4.691
  545TIP3   OH2 1577   4.066   7.254   1.807
  545TIP3    H1 1578   3.985   7.208   1.785
  545TIP3    H2 1579   4.082   7.312   1.733
  546TIP3   OH2 1580   7.563   1.617   4.668
  546TIP3    H1 1581   7.549   1.706   4.702
  546TIP3    H2 1582   7.476   1.581   4.659
  547TIP3   OH2 1583   7.466   4.926   5.303
  547TIP3    H1 1584   7.542   4.873   5.328
  547TIP3    H2 1585   7.393   4.884   5.348
  548TIP3   OH2 1586   2.366   6.368   6.526
  548TIP3    H1 1587   2.429   6.342   6.594
  548TIP3    H2 1588   2.383   6.461   6.512
  549TIP3   OH2 1589   4.085   2.666   4.502
  549TIP3    H1 1590   4.116   2.654   4.412
  549TIP3    H2 1591   4.083   2.761   4.514
  550TIP3   OH2 1592   8.195   3.759   3.483
  550TIP3    H1 1593   8.234   3.674   3.462
  550TIP3    H2 1594   8.111   3.738   3.524
  551TIP3   OH2 1595   7.205   3.639   5.590
  551TIP3    H1 1596   7.193   3.581   5.665
  551TIP3    H2 1597   7.130   3.620   5.533
  552TIP3   OH2 1598   1.651   2.381   4.574
  552TIP3    H1 1599   1.590   2.453   4.590
  552TIP3    H2 1600   1.702   2.410   4.498
  553TIP3   OH2 1601   2.458   1.520   2.339
  553TIP3    H1 1602   2.364   1.501   2.343
  553TIP3    H2 1603   2.462   1.614   2.322
  554TIP3   OH2 1604   5.916   5.316   5.840
  554TIP3    H1 1605   5.914   5.252   5.911
  554TIP3    H2 1606   5.851   5.283   5.777
  555TIP3   OH2 1607   8.209   7.754   2.040
  555TIP3    H1 1608   8.140   7.708   2.089
  555TIP3    H2 1609   8.193   7.847   2.060
  556TIP3   OH2 1610   1.760   4.085   5.811
  556TIP3    H1 1611   1.724   4.143   5.742
  556TIP3    H2 1612   1.811   4.143   5.866
  557TIP3   OH2 1613   3.166   0.434   0.621
  557TIP3    H1 1614   3.082   0.389   0.635
  557TIP3    H2 1615   3.229   0.364   0.605
  558TIP3   OH2 1616   8.005   5.812   6.600
  558TIP3    H1 1617   7.971   5.870   6.532
  558TIP3    H2 1618   7.944   5.738   6.601
  559TIP3   OH2 1619   0.726   3.487   1.659
  559TIP3    H1 1620   0.753   3.457   1.746
  559TIP3    H2 1621   0.637   3.453   1.648
  560TIP3   OH2 1622   8.207   0.560   1.819
  560TIP3    H1 1623   8.159   0.634   1.857
  560TIP3    H2 1624   8.139   0.496   1.797
  561TIP3   OH2 1625   5.484   2.184   1.433
  561TIP3    H1 1626   5.492   2.280   1.433
  561TIP3    H2 1627   5.467   2.162   1.525
  562TIP3   OH2 1628   3.311   0.639   2.631
  562TIP3    H1 1629   3.362   0.597   2.561
  562TIP3    H2 1630   3.366   0.634   2.708
  563TIP3   OH2 1631   7.139   0.003   2.031
  563TIP3    H1 1632   7.076   0.068   2.000
  563TIP3    H2 1633   7.210   0.005   1.967
  564TIP3   OH2 1634   4.085   5.861   4.695
  564TIP3    H1 1635   4.013   5.879   4.635
  564TIP3    H2 1636   4.052   5.889   4.781
  565TIP3   OH2 1637   5.944   0.561   1.208
  565TIP3    H1 1638   5.960   0.630   1.144
  565TIP3    H2 1639   5.869   0.592   1.259
  566TIP3   OH2 1640   7.081   3.479   3.386
  566TIP3    H1 1641   7.162   3.492   3.435
  566TIP3    H2 1642   7.011   3.499   3.449
  567TIP3   OH2 1643   2.633   3.114   0.860
  567TIP3    H1 1644   2.698   3.177   0.892
  567TIP3    H2 1645   2.553   3.165   0.849
  568TIP3   OH2 1646   7.423   2.945   1.846
  568TIP3    H1 1647   7.376   2.996   1.780
  568TIP3    H2 1648   7.365   2.871   1.865
  569TIP3   OH2 1649   3.140   3.452   3.559
  569TIP3    H1 1650   3.095   3.429   3.640
  569TIP3    H2 1651   3.081   3.424   3.489
  570TIP3   OH2 1652   5.094   4.828   0.017
  570TIP3    H1 1653   5.113   4.915  -0.017
  570TIP3    H2 1654   5.180   4.786   0.024
  571TIP3   OH2 1655   7.835   2.756   5.498
  571TIP3    H1 1656   7.810   2.749   5.590
  571TIP3    H2 1657   7.788   2.685   5.455
  572TIP3   OH2 1658   4.962   0.586   1.224
  572TIP3    H1 1659   4.915   0.653   1.173
  572TIP3    H2 1660   4.983   0.630   1.306
  573TIP3   OH2 1661   2.605   1.718   3.487
  573TIP3    H1 1662   2.683   1.729   3.431
  573TIP3    H2 1663   2.532   1.716   3.425
  574TIP3   OH2 1664   5.023   3.238   3.812
  574TIP3    H1 1665   4.994   3.153   3.779
  574TIP3    H2 1666   5.012   3.232   3.907
  575TIP3   OH2 1667   0.682   2.193   1.212
  575TIP3    H1 1668   0.684   2.128   1.282
  575TIP3    H2 1669   0.774   2.203   1.186
  576TIP3   OH2 1670   2.666   6.988   2.259
  576TIP3    H1 1671   2.633   6.906   2.295
  576TIP3    H2 1672   2.587   7.042   2.246
  577TIP3   OH2 1673   4.349   2.385   2.596
  577TIP3    H1 1674   4.365   2.465   2.545
  577TIP3    H2 1675   4.388   2.315   2.543
  578TIP3   OH2 1676   7.652   1.652   2.400
  578TIP3    H1 1677   7.666   1.560   2.377
  578TIP3    H2 1678   7.633   1.695   2.317
  579TIP3   OH2 1679   3.701   4.596   2.053
  579TIP3    H1 1680   3.636   4.666   2.050
  579TIP3    H2 1681   3.657   4.524   2.098
  580TIP3   OH2 1682   4.647   0.476   0.615
  580TIP3    H1 1683   4.684   0.422   0.685
  580TIP3    H2 1684   4.552   0.464   0.623
  581TIP3   OH2 1685   5.450   1.058   1.750
  581TIP3    H1 1686   5.496   1.101   1.678
  581TIP3    H2 1687   5.403   0.985   1.710
  582TIP3   OH2 1688   7.167   4.240   2.695
  582TIP3    H1 1689   7.217   4.320   2.677
  582TIP3    H2 1690   7.111   4.230   2.619
  583TIP3   OH2 1691   1.870   7.694   6.254
  583TIP3    H1 1692   1.810   7.680   6.327
  583TIP3    H2 1693   1.903   7.783   6.267
  584TIP3   OH2 1694   3.055   7.724   5.920
  584TIP3    H1 1695   3.066   7.779   5.998
  584TIP3    H2 1696   3.065   7.634   5.953
  585TIP3   OH2 1697   4.207   1.517   0.025
  585TIP3    H1 1698   4.139   1.552  -0.032
  585TIP3    H2 1699   4.252   1.594   0.060
  586TIP3   OH2 1700   1.008   1.325   0.824
  586TIP3    H1 1701   0.948   1.393   0.854
  586TIP3    H2 1702   1.040   1.357   0.740
  587TIP3   OH2 1703   6.421   3.157   6.746
  587TIP3    H1 1704   6.459   3.243   6.766
  587TIP3    H2 1705   6.496   3.099   6.740
  588TIP3   OH2 1706   3.354   0.494   3.985
  588TIP3    H1 1707   3.411   0.450   4.048
  588TIP3    H2 1708   3.303   0.555   4.038
  589TIP3   OH2 1709   5.307   2.419   2.316
  589TIP3    H1 1710   5.383   2.474   2.294
  589TIP3    H2 1711   5.232   2.470   2.286
  590TIP3   OH2 1712   7.691   4.188   0.232
  590TIP3    H1 1713   7.640   4.145   0.301
  590TIP3    H2 1714   7.763   4.128   0.215
  591TIP3   OH2 1715   6.611   6.050   4.172
  591TIP3    H1 1716   6.541   5.988   4.151
  591TIP3    H2 1717   6.589   6.129   4.123
  592TIP3   OH2 1718   4.957   3.889   6.157
  592TIP3    H1 1719   4.915   3.948   6.221
  592TIP3    H2 1720   4.908   3.807   6.166
  593TIP3   OH2 1721   4.385   3.848   1.620
  593TIP3    H1 1722   4.326   3.774   1.609
  593TIP3    H2 1723   4.473   3.810   1.622
  594TIP3   OH2 1724   4.454   0.915   0.183
  594TIP3    H1 1725   4.372   0.965   0.178
  594TIP3    H2 1726   4.492   0.940   0.267
  595TIP3   OH2 1727   7.876   4.429   0.190
  595TIP3    H1 1728   7.823   4.508   0.186
  595TIP3    H2 1729   7.814   4.357   0.175
  596TIP3   OH2 1730   8.168   1.740   0.160
  596TIP3    H1 1731   8.111   1.783   0.224
  596TIP3    H2 1732   8.255   1.739   0.202
  597TIP3   OH2 1733   8.103   0.757   0.871
  597TIP3    H1 1734   8.098   0.851   0.886
  597TIP3    H2 1735   8.012   0.730   0.859
  598TIP3   OH2 1736   2.298   1.358   5.545
  598TIP3    H1 1737   2.229   1.336   5.482
  598TIP3    H2 1738   2.358   1.416   5.497
  599TIP3   OH2 1739   8.034   3.643   2.757
  599TIP3    H1 1740   7.959   3.591   2.786
  599TIP3    H2 1741   8.061   3.693   2.834
  600TIP3   OH2 1742   4.354   6.553   4.458
  600TIP3    H1 1743   4.322   6.572   4.546
  600TIP3    H2 1744   4.371   6.459   4.459
  601TIP3   OH2 1745   1.182   1.204   4.468
  601TIP3    H1 1746   1.163   1.122   4.423
  601TIP3    H2 1747   1.265   1.188   4.514
  602TIP3   OH2 1748   1.822   4.069   1.306
  602TIP3    H1 1749   1.904   4.086   1.351
  602TIP3    H2 1750   1.842   4.079   1.213
  603TIP3   OH2 1751   3.126   7.148   2.942
  603TIP3    H1 1752   3.189   7.088   2.982
  603TIP3    H2 1753   3.052   7.092   2.916
  604TIP3   OH2 1754   1.328   7.078   6.322
  604TIP3    H1 1755   1.288   7.100   6.237
  604TIP3    H2 1756   1.421   7.072   6.303
  605TIP3   OH2 1757   6.239   3.086   4.565
  605TIP3    H1 1758   6.244   3.059   4.473
  605TIP3    H2 1759   6.283   3.016   4.613
  606TIP3   OH2 1760   8.117   7.017   5.028
  606TIP3    H1 1761   8.169   7.093   5.054
  606TIP3    H2 1762   8.177   6.943   5.037
  607TIP3   OH2 1763   3.820   1.575   3.293
  607TIP3    H1 1764   3.842   1.647   3.233
  607TIP3    H2 1765   3.845   1.496   3.245
  608TIP3   OH2 1766   7.297   3.328   2.270
  608TIP3    H1 1767   7.316   3.236   2.249
  608TIP3    H2 1768   7.318   3.336   2.363
  609TIP3   OH2 1769   0.551   3.491   0.882
  609TIP3    H1 1770   0.547   3.578   0.841
  609TIP3    H2 1771   0.461   3.474   0.911
  610TIP3   OH2 1772   5.101   3.627   3.060
  610TIP3    H1 1773   5.083   3.628   3.154
  610TIP3    H2 1774   5.060   3.547   3.028
  611TIP3   OH2 1775   2.678   1.437   5.443
  611TIP3    H1 1776   2.733   1.511   5.416
  611TIP3    H2 1777   2.700   1.368   5.380
  612TIP3   OH2 1778   2.707   1.875   1.656
  612TIP3    H1 1779   2.795   1.897   1.628
  612TIP3    H2 1780   2.667   1.959   1.679
  613TIP3   OH2 1781   2.887   1.093   1.595
  613TIP3    H1 1782   2.947   1.079   1.668
  613TIP3    H2 1783   2.908   1.180   1.562
  614TIP3   OH2 1784   3.599   7.701   4.905
  614TIP3    H1 1785   3.523   7.657   4.944
  614TIP3    H2 1786   3.665   7.632   4.897
  615TIP3   OH2 1787   0.682   1.297   4.192
  615TIP3    H1 1788   0.775   1.313   4.182
  615TIP3    H2 1789   0.660   1.237   4.120
  616TIP3   OH2 1790   7.599   7.549   4.566
  616TIP3    H1 1791   7.655   7.592   4.631
  616TIP3    H2 1792   7.527   7.511   4.617
  617TIP3   OH2 1793   3.726   1.373   1.584
  617TIP3    H1 1794   3.814   1.388   1.619
  617TIP3    H2 1795   3.681   1.457   1.594
  618TIP3   OH2 1796   1.460   2.007   5.665
  618TIP3    H1 1797   1.519   2.057   5.609
  618TIP3    H2 1798   1.512   1.986   5.743
  619TIP3   OH2 1799   4.504   7.260   1.035
  619TIP3    H1 1800   4.440   7.311   0.986
  619TIP3    H2 1801   4.482   7.169   1.015
  620TIP3   OH2 1802   8.100   0.369   5.446
  620TIP3    H1 1803   8.173   0.368   5.508
  620TIP3    H2 1804   8.058   0.454   5.461
  621TIP3   OH2 1805   8.231   4.022   6.208
  621TIP3    H1 1806   8.266   3.945   6.163
  621TIP3    H2 1807   8.155   3.990   6.257
  622TIP3   OH2 1808   8.187   6.807   0.868
  622TIP3    H1 1809   8.138   6.737   0.826
  622TIP3    H2 1810   8.136   6.828   0.947
  623TIP3   OH2 1811   6.095   7.771   0.866
  623TIP3    H1 1812   6.024   7.809   0.917
  623TIP3    H2 1813   6.162   7.749   0.931
  624TIP3   OH2 1814   1.883   3.557   0.392
  624TIP3    H1 1815   1.943   3.482   0.388
  624TIP3    H2 1816   1.905   3.602   0.473
  625TIP3   OH2 1817   2.332   7.533   0.690
  625TIP3    H1 1818   2.260   7.509   0.632
  625TIP3    H2 1819   2.335   7.462   0.755
  626TIP3   OH2 1820   0.337   7.633   5.635
  626TIP3    H1 1821   0.386   7.706   5.673
  626TIP3    H2 1822   0.349   7.642   5.541
  627TIP3   OH2 1823   2.733   1.616   1.716
  627TIP3    H1 1824   2.742   1.710   1.702
  627TIP3    H2 1825   2.779   1.576   1.642
  628TIP3   OH2 1826   0.794   7.338   1.973
  628TIP3    H1 1827   0.737   7.273   2.014
  628TIP3    H2 1828   0.883   7.305   1.989
  629TIP3   OH2 1829   5.260   0.213   3.023
  629TIP3    H1 1830   5.228   0.126   3.045
  629TIP3    H2 1831   5.249   0.219   2.928
  630TIP3   OH2 1832   4.450   1.233   3.572
  630TIP3    H1 1833   4.426   1.247   3.664
  630TIP3    H2 1834   4.483   1.143   3.570
  631TIP3   OH2 1835   3.693   3.213   4.959
  631TIP3    H1 1836   3.715   3.205   5.052
  631TIP3    H2 1837   3.747   3.285   4.927
  632TIP3   OH2 1838   2.493   0.339   5.648
  632TIP3    H1 1839   2.514   0.264   5.593
  632TIP3    H2 1840   2.526   0.415   5.599
  633TIP3   OH2 1841   0.952   0.275   5.806
  633TIP3    H1 1842   0.900   0.349   5.774
  633TIP3    H2 1843   1.019   0.315   5.861
  634TIP3   OH2 1844   3.851   5.419   5.053
  634TIP3    H1 1845   3.927   5.455   5.006
  634TIP3    H2 1846   3.815   5.353   4.994
  635TIP3   OH2 1847   3.352   6.475   5.068
  635TIP3    H1 1848   3.262   6.502   5.051
  635TIP3    H2 1849   3.344   6.392   5.114
  636TIP3   OH2 1850   2.259   2.788   3.901
  636TIP3    H1 1851   2.347   2.755   3.883
  636TIP3    H2 1852   2.200   2.726   3.859
  637TIP3   OH2 1853   0.463   1.675   5.039
  637TIP3    H1 1854   0.554   1.645   5.036
  637TIP3    H2 1855   0.440   1.670   5.132
  638TIP3   OH2 1856   4.015   6.432   3.401
  638TIP3    H1 1857   3.997   6.431   3.307
  638TIP3    H2 1858   4.106   6.401   3.408
  639TIP3   OH2 1859   7.830   6.174   2.034
  639TIP3    H1 1860   7.815   6.266   2.055
  639TIP3    H2 1861   7.756   6.128   2.074
  640TIP3   OH2 1862   3.812   4.294   4.548
  640TIP3    H1 1863   3.856   4.221   4.503
  640TIP3    H2 1864   3.839   4.372   4.499
  641TIP3   OH2 1865   6.612   0.178   0.678
  641TIP3    H1 1866   6.556   0.120   0.729
  641TIP3    H2 1867   6.665   0.224   0.744
  642TIP3   OH2 1868   3.779   4.454   1.825
  642TIP3    H1 1869   3.863   4.499   1.817
  642TIP3    H2 1870   3.749   4.475   1.914
  643TIP3   OH2 1871   5.654   0.605   3.483
  643TIP3    H1 1872   5.581   0.577   3.427
  643TIP3    H2 1873   5.682   0.524   3.526
  644TIP3   OH2 1874   5.687   6.307   4.822
  644TIP3    H1 1875   5.710   6.247   4.893
  644TIP3    H2 1876   5.608   6.351   4.852
  645TIP3   OH2 1877   1.417   7.540   5.473
  645TIP3    H1 1878   1.497   7.592   5.458
  645TIP3    H2 1879   1.434   7.458   5.428
  646TIP3   OH2 1880   0.604   0.712   0.554
  646TIP3    H1 1881   0.539   0.782   0.548
  646TIP3    H2 1882   0.609   0.676   0.466
  647TIP3   OH2 1883   7.149   2.033   6.219
  647TIP3    H1 1884   7.234   2.077   6.229
  647TIP3    H2 1885   7.169   1.952   6.173
  648TIP3   OH2 1886   3.306   6.627   5.950
  648TIP3    H1 1887   3.304   6.561   6.019
  648TIP3    H2 1888   3.372   6.690   5.980
  649TIP3   OH2 1889   7.081   2.258   1.832
  649TIP3    H1 1890   7.064   2.340   1.879
  649TIP3    H2 1891   7.005   2.203   1.852
  650TIP3   OH2 1892   1.141   2.111   1.133
  650TIP3    H1 1893   1.216   2.140   1.184
  650TIP3    H2 1894   1.152   2.016   1.126
  651TIP3   OH2 1895   5.925   4.232   4.345
  651TIP3    H1 1896   5.868   4.292   4.393
  651TIP3    H2 1897   5.995   4.211   4.407
  652TIP3   OH2 1898   7.427   6.744   6.471
  652TIP3    H1 1899   7.477   6.723   6.392
  652TIP3    H2 1900   7.417   6.660   6.516
  653TIP3   OH2 1901   6.644   1.664   5.131
  653TIP3    H1 1902   6.550   1.656   5.146
  653TIP3    H2 1903   6.671   1.740   5.181
  654TIP3   OH2 1904   2.729   0.987   2.479
  654TIP3    H1 1905   2.737   1.082   2.481
  654TIP3    H2 1906   2.817   0.955   2.497
  655TIP3   OH2 1907   0.809   5.001   1.103
  655TIP3    H1 1908   0.857   4.919   1.098
  655TIP3    H2 1909   0.737   4.984   1.164
  656TIP3   OH2 1910   1.597   3.588   2.586
  656TIP3    H1 1911   1.523   3.648   2.584
  656TIP3    H2 1912   1.634   3.597   2.674
  657TIP3   OH2 1913   5.545   3.907   3.720
  657TIP3    H1 1914   5.575   3.997   3.728
  657TIP3    H2 1915   5.585   3.876   3.638
  658TIP3   OH2 1916   6.733   7.498   5.973
  658TIP3    H1 1917   6.718   7.521   5.881
  658TIP3    H2 1918   6.808   7.439   5.970
  659TIP3   OH2 1919   8.144   5.442   1.710
  659TIP3    H1 1920   8.134   5.482   1.796
  659TIP3    H2 1921   8.175   5.514   1.654
  660TIP3   OH2 1922   0.144   2.656   2.132
  660TIP3    H1 1923   0.210   2.721   2.156
  660TIP3    H2 1924   0.184   2.606   2.062
  661TIP3   OH2 1925   5.756   2.456   1.752
  661TIP3    H1 1926   5.836   2.508   1.755
  661TIP3    H2 1927   5.747   2.431   1.660
  662TIP3   OH2 1928   2.357   6.287   6.258
  662TIP3    H1 1929   2.334   6.310   6.348
  662TIP3    H2 1930   2.380   6.371   6.217
  663TIP3   OH2 1931   4.549   0.139   0.555
  663TIP3    H1 1932   4.497   0.115   0.631
  663TIP3    H2 1933   4.635   0.163   0.590
  664TIP3   OH2 1934   5.523   2.004   4.705
  664TIP3    H1 1935   5.544   2.085   4.752
  664TIP3    H2 1936   5.605   1.954   4.705
  665TIP3   OH2 1937   4.939   0.098   2.224
  665TIP3    H1 1938   4.888   0.039   2.168
  665TIP3    H2 1939   4.899   0.184   2.212
  666TIP3   OH2 1940   7.972   4.658   1.216
  666TIP3    H1 1941   8.061   4.628   1.194
  666TIP3    H2 1942   7.984   4.746   1.250
  667TIP3   OH2 1943   1.514   4.015   6.729
  667TIP3    H1 1944   1.536   3.931   6.690
  667TIP3    H2 1945   1.431   4.040   6.689
  668TIP3   OH2 1946   6.631   0.134   6.670
  668TIP3    H1 1947   6.614   0.052   6.717
  668TIP3    H2 1948   6.643   0.107   6.579
  669TIP3   OH2 1949   8.031   6.975   1.421
  669TIP3    H1 1950   7.968   6.904   1.430
  669TIP3    H2 1951   7.997   7.045   1.476
  670TIP3   OH2 1952   1.354   3.560   1.104
  670TIP3    H1 1953   1.275   3.512   1.130
  670TIP3    H2 1954   1.361   3.547   1.010
  671TIP3   OH2 1955   0.196   0.458   5.282
  671TIP3    H1 1956   0.161   0.393   5.221
  671TIP3    H2 1957   0.283   0.424   5.305
  672TIP3   OH2 1958   3.099   0.515   2.734
  672TIP3    H1 1959   3.156   0.581   2.695
  672TIP3    H2 1960   3.125   0.433   2.691
  673TIP3   OH2 1961   5.945   4.510   5.057
  673TIP3    H1 1962   5.943   4.465   5.142
  673TIP3    H2 1963   6.031   4.489   5.021
  674TIP3   OH2 1964   1.647   0.570   4.470
  674TIP3    H1 1965   1.742   0.564   4.463
  674TIP3    H2 1966   1.621   0.489   4.514
  675TIP3   OH2 1967   2.591   0.334   6.491
  675TIP3    H1 1968   2.633   0.420   6.489
  675TIP3    H2 1969   2.515   0.343   6.433
  676TIP3   OH2 1970   5.554   3.197   5.860
  676TIP3    H1 1971   5.639   3.162   5.885
  676TIP3    H2 1972   5.500   3.120   5.842
  677TIP3   OH2 1973   4.543   4.629   4.696
  677TIP3    H1 1974   4.593   4.685   4.756
  677TIP3    H2 1975   4.592   4.547   4.694
  678TIP3   OH2 1976   2.320   6.847   0.036
  678TIP3    H1 1977   2.330   6.930   0.082
  678TIP3    H2 1978   2.300   6.783   0.105
  679TIP3   OH2 1979   4.032   2.675   1.199
  679TIP3    H1 1980   3.979   2.668   1.279
  679TIP3    H2 1981   4.047   2.584   1.173
  680TIP3   OH2 1982   0.340   3.289   1.979
  680TIP3    H1 1983   0.413   3.263   2.035
  680TIP3    H2 1984   0.261   3.269   2.030
  681TIP3   OH2 1985   3.879   3.476   4.427
  681TIP3    H1 1986   3.826   3.415   4.376
  681TIP3    H2 1987   3.829   3.557   4.429
  682TIP3   OH2 1988   7.930   1.801   1.634
  682TIP3    H1 1989   8.007   1.858   1.634
  682TIP3    H2 1990   7.866   1.846   1.579
  683TIP3   OH2 1991   4.381   1.170   4.651
  683TIP3    H1 1992   4.416   1.128   4.730
  683TIP3    H2 1993   4.454   1.222   4.617
  684TIP3   OH2 1994   6.547   0.179   5.226
  684TIP3    H1 1995   6.478   0.241   5.248
  684TIP3    H2 1996   6.588   0.159   5.311
  685TIP3   OH2 1997   5.475   3.695   5.496
  685TIP3    H1 1998   5.393   3.651   5.477
  685TIP3    H2 1999   5.539   3.655   5.437
  686TIP3   OH2 2000   1.877   2.821   5.122
  686TIP3    H1 2001   1.886   2.757   5.193
  686TIP3    H2 2002   1.961   2.865   5.117
  687TIP3   OH2 2003   5.011   6.695   6.512
  687TIP3    H1 2004   4.965   6.611   6.519
  687TIP3    H2 2005   5.091   6.673   6.464
  688TIP3   OH2 2006   2.910   5.773   4.171
  688TIP3    H1 2007   2.834   5.828   4.192
  688TIP3    H2 2008   2.948   5.750   4.255
  689TIP3   OH2 2009   5.792   4.198   0.208
  689TIP3    H1 2010   5.829   4.264   0.266
  689TIP3    H2 2011   5.850   4.198   0.132
  690TIP3   OH2 2012   7.552   1.674   0.098
  690TIP3    H1 2013   7.621   1.628   0.049
  690TIP3    H2 2014   7.517   1.737   0.035
  691TIP3   OH2 2015   1.237   5.979   4.669
  691TIP3    H1 2016   1.150   6.016   4.655
  691TIP3    H2 2017   1.297   6.047   4.636
  692TIP3   OH2 2018   8.284   3.834   5.967
  692TIP3    H1 2019   8.274   3.765   6.032
  692TIP3    H2 2020   8.196   3.845   5.930
  693TIP3   OH2 2021   2.869   7.264   2.463
  693TIP3    H1 2022   2.820   7.190   2.501
  693TIP3    H2 2023   2.884   7.239   2.372
  694TIP3   OH2 2024   6.851   4.696   1.657
  694TIP3    H1 2025   6.874   4.645   1.734
  694TIP3    H2 2026   6.854   4.787   1.687
  695TIP3   OH2 2027   5.947   5.865   5.568
  695TIP3    H1 2028   5.916   5.775   5.577
  695TIP3    H2 2029   5.886   5.917   5.621
  696TIP3   OH2 2030   4.929   5.095   5.118
  696TIP3    H1 2031   4.988   5.023   5.097
  696TIP3    H2 2032   4.888   5.068   5.200
  697TIP3   OH2 2033   6.693   6.727   6.009
  697TIP3    H1 2034   6.713   6.733   6.103
  697TIP3    H2 2035   6.644   6.807   5.990
  698TIP3   OH2 2036   2.426   3.904   2.984
  698TIP3    H1 2037   2.493   3.870   3.043
  698TIP3    H2 2038   2.474   3.932   2.907
  699TIP3   OH2 2039   2.256   6.666   0.271
  699TIP3    H1 2040   2.259   6.740   0.332
  699TIP3    H2 2041   2.168   6.630   0.281
  700TIP3   OH2 2042   6.564   6.649   5.347
  700TIP3    H1 2043   6.657   6.670   5.345
  700TIP3    H2 2044   6.539   6.642   5.254
  701TIP3   OH2 2045   2.782   3.221   3.680
  701TIP3    H1 2046   2.823   3.244   3.764
  701TIP3    H2 2047   2.688   3.226   3.698
  702TIP3   OH2 2048   2.853   4.635   1.822
  702TIP3    H1 2049   2.917   4.628   1.751
  702TIP3    H2 2050   2.769   4.644   1.776
  703TIP3   OH2 2051   0.265   6.839   5.912
  703TIP3    H1 2052   0.287   6.932   5.916
  703TIP3    H2 2053   0.182   6.832   5.960
  704TIP3   OH2 2054   7.989   1.732   2.311
  704TIP3    H1 2055   7.940   1.675   2.252
  704TIP3    H2 2056   7.956   1.820   2.292
  705TIP3   OH2 2057   6.833   7.703   2.863
  705TIP3    H1 2058   6.852   7.796   2.851
  705TIP3    H2 2059   6.870   7.682   2.949
  706TIP3   OH2 2060   6.323   4.267   1.288
  706TIP3    H1 2061   6.285   4.283   1.374
  706TIP3    H2 2062   6.286   4.336   1.232
  707TIP3   OH2 2063   3.981   2.590   3.157
  707TIP3    H1 2064   3.946   2.622   3.074
  707TIP3    H2 2065   3.937   2.506   3.171
  708TIP3   OH2 2066   1.454   7.107   1.872
  708TIP3    H1 2067   1.465   7.163   1.949
  708TIP3    H2 2068   1.436   7.020   1.907
  709TIP3   OH2 2069   3.001   0.387   3.864
  709TIP3    H1 2070   3.069   0.452   3.884
  709TIP3    H2 2071   2.923   0.439   3.846
  710TIP3   OH2 2072   8.098   1.005   5.915
  710TIP3    H1 2073   8.180   0.960   5.893
  710TIP3    H2 2074   8.036   0.935   5.934
  711TIP3   OH2 2075   5.607   3.478   3.387
  711TIP3    H1 2076   5.524   3.457   3.430
  711TIP3    H2 2077   5.593   3.566   3.350
  712TIP3   OH2 2078   0.107   1.031   0.991
  712TIP3    H1 2079   0.131   0.943   0.962
  712TIP3    H2 2080   0.150   1.089   0.927
  713TIP3   OH2 2081   6.639   7.560   3.056
  713TIP3    H1 2082   6.628   7.648   3.090
  713TIP3    H2 2083   6.727   7.534   3.085
  714TIP3   OH2 2084   3.981   6.705   0.531
  714TIP3    H1 2085   3.971   6.615   0.565
  714TIP3    H2 2086   3.992   6.759   0.609
  715TIP3   OH2 2087   6.218   6.481   2.575
  715TIP3    H1 2088   6.297   6.444   2.537
  715TIP3    H2 2089   6.191   6.548   2.512
  716TIP3   OH2 2090   2.766   1.864   2.069
  716TIP3    H1 2091   2.710   1.929   2.026
  716TIP3    H2 2092   2.747   1.782   2.022
  717TIP3   OH2 2093   1.289   2.905   2.557
  717TIP3    H1 2094   1.230   2.835   2.531
  717TIP3    H2 2095   1.232   2.976   2.586
  718TIP3   OH2 2096   7.055   5.888   1.080
  718TIP3    H1 2097   6.986   5.833   1.045
  718TIP3    H2 2098   7.054   5.873   1.175
  719TIP3   OH2 2099   2.521   0.103   0.390
  719TIP3    H1 2100   2.540   0.118   0.483
  719TIP3    H2 2101   2.482   0.185   0.360
  720TIP3   OH2 2102   2.562   1.314   5.061
  720TIP3    H1 2103   2.648   1.354   5.047
  720TIP3    H2 2104   2.563   1.236   5.005
  721TIP3   OH2 2105   6.911   4.914   3.591
  721TIP3    H1 2106   6.857   4.989   3.615
  721TIP3    H2 2107   6.875   4.884   3.507
  722TIP3   OH2 2108   8.218   3.359   6.472
  722TIP3    H1 2109   8.276   3.320   6.538
  722TIP3    H2 2110   8.269   3.356   6.391
  723TIP3   OH2 2111   0.761   5.489   1.763
  723TIP3    H1 2112   0.828   5.534   1.815
  723TIP3    H2 2113   0.704   5.559   1.731
  724TIP3   OH2 2114   4.114   3.414   0.760
  724TIP3    H1 2115   4.138   3.328   0.794
  724TIP3    H2 2116   4.154   3.476   0.821
  725TIP3   OH2 2117   7.004   5.013   5.294
  725TIP3    H1 2118   6.965   5.051   5.216
  725TIP3    H2 2119   7.044   5.087   5.340
  726TIP3   OH2 2120   2.127   0.889   2.900
  726TIP3    H1 2121   2.095   0.973   2.867
  726TIP3    H2 2122   2.221   0.904   2.915
  727TIP3   OH2 2123   0.790   5.663   5.212
  727TIP3    H1 2124   0.764   5.716   5.136
  727TIP3    H2 2125   0.803   5.575   5.176
  728TIP3   OH2 2126   0.748   6.536   0.206
  728TIP3    H1 2127   0.760   6.630   0.194
  728TIP3    H2 2128   0.799   6.515   0.284
  729TIP3   OH2 2129   1.672   2.527   4.010
  729TIP3    H1 2130   1.740   2.593   4.002
  729TIP3    H2 2131   1.591   2.573   3.990
  730TIP3   OH2 2132   6.608   7.697   2.198
  730TIP3    H1 2133   6.663   7.624   2.225
  730TIP3    H2 2134   6.556   7.661   2.125
  731TIP3   OH2 2135   1.665   7.732   5.926
  731TIP3    H1 2136   1.655   7.687   5.842
  731TIP3    H2 2137   1.644   7.666   5.992
  732TIP3   OH2 2138   3.618   4.652   0.695
  732TIP3    H1 2139   3.694   4.644   0.753
  732TIP3    H2 2140   3.576   4.566   0.699
  733TIP3   OH2 2141   7.346   2.319   2.877
  733TIP3    H1 2142   7.332   2.234   2.919
  733TIP3    H2 2143   7.389   2.373   2.944
  734TIP3   OH2 2144   6.067   5.689   1.080
  734TIP3    H1 2145   6.004   5.645   1.137
  734TIP3    H2 2146   6.148   5.694   1.131
  735TIP3   OH2 2147   1.304   3.207  -0.036
  735TIP3    H1 2148   1.312   3.178   0.055
  735TIP3    H2 2149   1.241   3.279  -0.033
  736TIP3   OH2 2150   7.519   7.321   4.057
  736TIP3    H1 2151   7.577   7.245   4.049
  736TIP3    H2 2152   7.546   7.364   4.138
  737TIP3   OH2 2153   3.584   1.369   4.440
  737TIP3    H1 2154   3.675   1.359   4.466
  737TIP3    H2 2155   3.556   1.452   4.480
  738TIP3   OH2 2156   3.826   5.259   6.258
  738TIP3    H1 2157   3.890   5.188   6.271
  738TIP3    H2 2158   3.842   5.288   6.168
  739TIP3   OH2 2159   3.998   4.898   5.901
  739TIP3    H1 2160   3.985   4.890   5.807
  739TIP3    H2 2161   4.010   4.808   5.932
  740TIP3   OH2 2162   5.557   0.329   5.632
  740TIP3    H1 2163   5.540   0.290   5.546
  740TIP3    H2 2164   5.647   0.359   5.628
  741TIP3   OH2 2165   6.001   2.350   0.167
  741TIP3    H1 2166   5.943   2.275   0.154
  741TIP3    H2 2167   5.976   2.412   0.099
  742TIP3   OH2 2168   4.958   4.216   0.558
  742TIP3    H1 2169   4.955   4.133   0.512
  742TIP3    H2 2170   4.870   4.253   0.547
  743TIP3   OH2 2171   3.419   1.592   3.940
  743TIP3    H1 2172   3.416   1.505   3.899
  743TIP3    H2 2173   3.355   1.644   3.891
  744TIP3   OH2 2174   2.434   5.712   1.755
  744TIP3    H1 2175   2.489   5.674   1.687
  744TIP3    H2 2176   2.394   5.637   1.799
  745TIP3   OH2 2177   0.422   0.194   3.218
  745TIP3    H1 2178   0.444   0.199   3.311
  745TIP3    H2 2179   0.393   0.283   3.196
  746TIP3   OH2 2180   7.732   6.853   0.045
  746TIP3    H1 2181   7.695   6.787  -0.014
  746TIP3    H2 2182   7.736   6.809   0.130
  747TIP3   OH2 2183   5.529   2.150   0.658
  747TIP3    H1 2184   5.552   2.167   0.567
  747TIP3    H2 2185   5.442   2.111   0.654
  748TIP3   OH2 2186   1.826   4.350   1.929
  748TIP3    H1 2187   1.809   4.322   2.019
  748TIP3    H2 2188   1.842   4.268   1.881
  749TIP3   OH2 2189   4.634   5.932   3.387
  749TIP3    H1 2190   4.684   6.012   3.372
  749TIP3    H2 2191   4.688   5.862   3.350
  750TIP3   OH2 2192   7.390   5.763   6.329
  750TIP3    H1 2193   7.315   5.706   6.346
  750TIP3    H2 2194   7.454   5.707   6.286
  751TIP3   OH2 2195   7.109   3.267   2.869
  751TIP3    H1 2196   7.055   3.190   2.850
  751TIP3    H2 2197   7.082   3.295   2.957
  752TIP3   OH2 2198   2.890   7.693   1.169
  752TIP3    H1 2199   2.867   7.709   1.260
  752TIP3    H2 2200   2.925   7.776   1.138
  753TIP3   OH2 2201   4.696   3.326   3.296
  753TIP3    H1 2202   4.680   3.245   3.346
  753TIP3    H2 2203   4.782   3.356   3.325
  754TIP3   OH2 2204   8.044   0.657   2.303
  754TIP3    H1 2205   8.097   0.577   2.306
  754TIP3    H2 2206   7.956   0.628   2.329
  755TIP3   OH2 2207   3.350   0.812   1.210
  755TIP3    H1 2208   3.345   0.837   1.302
  755TIP3    H2 2209   3.415   0.871   1.172
  756TIP3   OH2 2210   5.002   4.432   1.177
  756TIP3    H1 2211   4.965   4.484   1.106
  756TIP3    H2 2212   5.012   4.344   1.140
  757TIP3   OH2 2213   4.789   7.205   0.258
  757TIP3    H1 2214   4.836   7.147   0.197
  757TIP3    H2 2215   4.852   7.274   0.278
  758TIP3   OH2 2216   7.225   0.461   4.664
  758TIP3    H1 2217   7.320   0.454   4.657
  758TIP3    H2 2218   7.193   0.446   4.575
  759TIP3   OH2 2219   3.466   3.300   6.292
  759TIP3    H1 2220   3.394   3.321   6.351
  759TIP3    H2 2221   3.454   3.207   6.272
  760TIP3   OH2 2222   8.204   2.815   2.788
  760TIP3    H1 2223   8.194   2.737   2.843
  760TIP3    H2 2224   8.132   2.808   2.724
  761TIP3   OH2 2225   4.661   0.441   1.997
  761TIP3    H1 2226   4.661   0.536   1.986
  761TIP3    H2 2227   4.568   0.417   1.989
  762TIP3   OH2 2228   6.987   1.610   0.880
  762TIP3    H1 2229   7.041   1.532   0.891
  762TIP3    H2 2230   6.957   1.607   0.789
  763TIP3   OH2 2231   3.433   2.482   4.857
  763TIP3    H1 2232   3.394   2.488   4.770
  763TIP3    H2 2233   3.520   2.520   4.847
  764TIP3   OH2 2234   4.325   0.276   5.336
  764TIP3    H1 2235   4.412   0.242   5.359
  764TIP3    H2 2236   4.275   0.273   5.418
  765TIP3   OH2 2237   1.227   5.870   6.783
  765TIP3    H1 2238   1.291   5.805   6.756
  765TIP3    H2 2239   1.150   5.852   6.729
  766TIP3   OH2 2240   1.508   4.809   1.004
  766TIP3    H1 2241   1.487   4.870   1.075
  766TIP3    H2 2242   1.479   4.854   0.925
  767TIP3   OH2 2243   7.624   5.463   6.462
  767TIP3    H1 2244   7.556   5.519   6.500
  767TIP3    H2 2245   7.643   5.399   6.531
  768TIP3   OH2 2246   0.826   4.790   0.242
  768TIP3    H1 2247   0.748   4.835   0.273
  768TIP3    H2 2248   0.898   4.850   0.263
  769TIP3   OH2 2249   6.995   3.798   1.620
  769TIP3    H1 2250   7.040   3.823   1.701
  769TIP3    H2 2251   6.950   3.717   1.641
  770TIP3   OH2 2252   5.886   1.663   4.560
  770TIP3    H1 2253   5.968   1.613   4.560
  770TIP3    H2 2254   5.865   1.675   4.467
  771TIP3   OH2 2255   4.463   4.913   1.939
  771TIP3    H1 2256   4.420   4.873   1.864
  771TIP3    H2 2257   4.457   4.847   2.008
  772TIP3   OH2 2258   3.635   3.244   4.430
  772TIP3    H1 2259   3.570   3.177   4.408
  772TIP3    H2 2260   3.676   3.267   4.346
  773TIP3   OH2 2261   4.718   1.532   0.691
  773TIP3    H1 2262   4.756   1.620   0.692
  773TIP3    H2 2263   4.728   1.503   0.601
  774TIP3   OH2 2264   0.643   6.393   3.239
  774TIP3    H1 2265   0.602   6.479   3.246
  774TIP3    H2 2266   0.724   6.410   3.189
  775TIP3   OH2 2267   2.180   1.692   5.387
  775TIP3    H1 2268   2.250   1.628   5.395
  775TIP3    H2 2269   2.111   1.647   5.338
  776TIP3   OH2 2270   2.476   4.424   5.932
  776TIP3    H1 2271   2.466   4.458   5.843
  776TIP3    H2 2272   2.554   4.468   5.966
  777TIP3   OH2 2273   5.343   5.882   5.361
  777TIP3    H1 2274   5.375   5.928   5.439
  777TIP3    H2 2275   5.291   5.810   5.395
  778TIP3   OH2 2276   6.125   5.109   4.195
  778TIP3    H1 2277   6.189   5.084   4.129
  778TIP3    H2 2278   6.083   5.188   4.159
  779TIP3   OH2 2279   3.065   6.750   5.877
  779TIP3    H1 2280   3.138   6.694   5.902
  779TIP3    H2 2281   2.990   6.691   5.872
  780TIP3   OH2 2282   6.323   3.483   5.147
  780TIP3    H1 2283   6.316   3.409   5.087
  780TIP3    H2 2284   6.406   3.469   5.192
  781TIP3   OH2 2285   1.439   0.580   1.616
  781TIP3    H1 2286   1.512   0.517   1.622
  781TIP3    H2 2287   1.361   0.528   1.637
  782TIP3   OH2 2288   5.620   2.516   5.442
  782TIP3    H1 2289   5.603   2.585   5.377
  782TIP3    H2 2290   5.691   2.465   5.404
  783TIP3   OH2 2291   1.090   1.133   3.843
  783TIP3    H1 2292   1.053   1.050   3.873
  783TIP3    H2 2293   1.151   1.158   3.913
  784TIP3   OH2 2294   5.557   6.474   2.065
  784TIP3    H1 2295   5.508   6.516   1.994
  784TIP3    H2 2296   5.543   6.531   2.140
  785TIP3   OH2 2297   7.681   4.598   1.129
  785TIP3    H1 2298   7.770   4.628   1.145
  785TIP3    H2 2299   7.626   4.672   1.154
  786TIP3   OH2 2300   0.622   4.339   5.628
  786TIP3    H1 2301   0.603   4.326   5.721
  786TIP3    H2 2302   0.678   4.266   5.604
  787TIP3   OH2 2303   8.138   2.336   5.079
  787TIP3    H1 2304   8.217   2.389   5.087
  787TIP3    H2 2305   8.157   2.275   5.008
  788TIP3   OH2 2306   3.759   5.818   6.139
  788TIP3    H1 2307   3.829   5.883   6.127
  788TIP3    H2 2308   3.789   5.764   6.212
  789TIP3   OH2 2309   6.656   3.947   0.690
  789TIP3    H1 2310   6.593   3.916   0.755
  789TIP3    H2 2311   6.739   3.951   0.738
  790TIP3   OH2 2312   4.413   1.052   4.918
  790TIP3    H1 2313   4.349   1.012   4.977
  790TIP3    H2 2314   4.465   0.978   4.886
  791TIP3   OH2 2315   5.676   4.737   0.825
  791TIP3    H1 2316   5.667   4.660   0.881
  791TIP3    H2 2317   5.617   4.721   0.752
  792TIP3   OH2 2318   1.569   4.276   4.076
  792TIP3    H1 2319   1.628   4.314   4.142
  792TIP3    H2 2320   1.485   4.267   4.122
  793TIP3   OH2 2321   6.440   1.252   6.577
  793TIP3    H1 2322   6.361   1.306   6.571
  793TIP3    H2 2323   6.511   1.315   6.586
  794TIP3   OH2 2324   6.749   2.754   5.466
  794TIP3    H1 2325   6.759   2.849   5.464
  794TIP3    H2 2326   6.730   2.734   5.558
  795TIP3   OH2 2327   1.698   1.070   4.113
  795TIP3    H1 2328   1.718   0.991   4.063
  795TIP3    H2 2329   1.619   1.104   4.072
  796TIP3   OH2 2330   1.061   2.366   5.590
  796TIP3    H1 2331   0.990   2.429   5.579
  796TIP3    H2 2332   1.022   2.293   5.638
  797TIP3   OH2 2333   1.028   7.372   4.824
  797TIP3    H1 2334   1.091   7.401   4.890
  797TIP3    H2 2335   1.053   7.419   4.745
  798TIP3   OH2 2336   5.317   6.162   1.726
  798TIP3    H1 2337   5.287   6.218   1.797
  798TIP3    H2 2338   5.370   6.219   1.670
  799TIP3   OH2 2339   7.127   0.866   5.654
  799TIP3    H1 2340   7.196   0.805   5.681
  799TIP3    H2 2341   7.154   0.896   5.568
  800TIP3   OH2 2342   4.839   6.625   0.160
  800TIP3    H1 2343   4.807   6.665   0.079
  800TIP3    H2 2344   4.773   6.559   0.181
  801TIP3   OH2 2345   2.808   0.678   5.168
  801TIP3    H1 2346   2.835   0.591   5.140
  801TIP3    H2 2347   2.890   0.724   5.187
  802TIP3   OH2 2348   1.350   0.198   5.513
  802TIP3    H1 2349   1.315   0.273   5.561
  802TIP3    H2 2350   1.348   0.225   5.421
  803TIP3   OH2 2351   2.141   5.800   0.858
  803TIP3    H1 2352   2.188   5.746   0.922
  803TIP3    H2 2353   2.138   5.887   0.898
  804TIP3   OH2 2354   1.431   1.301   6.194
  804TIP3    H1 2355   1.473   1.297   6.108
  804TIP3    H2 2356   1.503   1.309   6.256
  805TIP3   OH2 2357   2.004   7.553   5.394
  805TIP3    H1 2358   1.998   7.587   5.305
  805TIP3    H2 2359   2.086   7.504   5.395
  806TIP3   OH2 2360   4.724   1.598   0.280
  806TIP3    H1 2361   4.683   1.571   0.199
  806TIP3    H2 2362   4.786   1.666   0.255
  807TIP3   OH2 2363   1.924   0.703   3.468
  807TIP3    H1 2364   1.847   0.727   3.416
  807TIP3    H2 2365   1.928   0.769   3.537
  808TIP3   OH2 2366   5.657   2.836   1.882
  808TIP3    H1 2367   5.710   2.796   1.950
  808TIP3    H2 2368   5.637   2.923   1.915
  809TIP3   OH2 2369   7.489   4.303   1.450
  809TIP3    H1 2370   7.455   4.307   1.540
  809TIP3    H2 2371   7.462   4.217   1.418
  810TIP3   OH2 2372   3.941   1.615   3.648
  810TIP3    H1 2373   4.036   1.626   3.649
  810TIP3    H2 2374   3.926   1.540   3.591
  811TIP3   OH2 2375   7.035   2.196   2.187
  811TIP3    H1 2376   7.051   2.107   2.157
  811TIP3    H2 2377   7.122   2.237   2.189
  812TIP3   OH2 2378   3.783   1.242   2.357
  812TIP3    H1 2379   3.802   1.220   2.448
  812TIP3    H2 2380   3.688   1.229   2.348
  813TIP3   OH2 2381   2.362   2.806   5.979
  813TIP3    H1 2382   2.405   2.794   5.894
  813TIP3    H2 2383   2.273   2.773   5.966
  814TIP3   OH2 2384   8.283   7.378   4.199
  814TIP3    H1 2385   8.261   7.456   4.250
  814TIP3    H2 2386   8.300   7.311   4.266
  815TIP3   OH2 2387   4.367   6.171   3.357
  815TIP3    H1 2388   4.335   6.223   3.284
  815TIP3    H2 2389   4.425   6.106   3.317
  816TIP3   OH2 2390   6.547   2.122   2.160
  816TIP3    H1 2391   6.619   2.177   2.131
  816TIP3    H2 2392   6.586   2.034   2.168
  817TIP3   OH2 2393   3.153   3.379   5.870
  817TIP3    H1 2394   3.172   3.410   5.781
  817TIP3    H2 2395   3.216   3.308   5.884
  818TIP3   OH2 2396   6.726   3.344   2.047
  818TIP3    H1 2397   6.796   3.286   2.018
  818TIP3    H2 2398   6.731   3.343   2.142
  819TIP3   OH2 2399   3.050   5.804   4.788
  819TIP3    H1 2400   3.108   5.754   4.730
  819TIP3    H2 2401   3.049   5.754   4.870
  820TIP3   OH2 2402   7.905   4.675   2.439
  820TIP3    H1 2403   7.914   4.762   2.478
  820TIP3    H2 2404   7.978   4.668   2.377
  821TIP3   OH2 2405   5.673   5.395   3.053
  821TIP3    H1 2406   5.723   5.434   2.981
  821TIP3    H2 2407   5.585   5.383   3.016
  822TIP3   OH2 2408   1.868   4.304   5.983
  822TIP3    H1 2409   1.948   4.295   5.931
  822TIP3    H2 2410   1.878   4.241   6.053
  823TIP3   OH2 2411   6.123   1.119   3.933
  823TIP3    H1 2412   6.201   1.132   3.878
  823TIP3    H2 2413   6.078   1.203   3.931
  824TIP3   OH2 2414   1.434   6.004   4.966
  824TIP3    H1 2415   1.421   6.089   4.925
  824TIP3    H2 2416   1.453   6.024   5.058
  825TIP3   OH2 2417   3.891   1.065   0.372
  825TIP3    H1 2418   3.905   1.028   0.285
  825TIP3    H2 2419   3.970   1.117   0.389
  826TIP3   OH2 2420   5.728   5.533   3.805
  826TIP3    H1 2421   5.643   5.563   3.835
  826TIP3    H2 2422   5.724   5.539   3.710
  827TIP3   OH2 2423   7.060   2.097   5.306
  827TIP3    H1 2424   6.996   2.167   5.316
  827TIP3    H2 2425   7.030   2.048   5.229
  828TIP3   OH2 2426   3.296   0.931   2.660
  828TIP3    H1 2427   3.317   0.840   2.639
  828TIP3    H2 2428   3.214   0.926   2.710
  829TIP3   OH2 2429   4.135   6.607   6.663
  829TIP3    H1 2430   4.171   6.693   6.686
  829TIP3    H2 2431   4.059   6.628   6.607
  830TIP3   OH2 2432   6.569   0.616   4.689
  830TIP3    H1 2433   6.532   0.688   4.638
  830TIP3    H2 2434   6.600   0.554   4.623
  831TIP3   OH2 2435   3.748   2.861   6.390
  831TIP3    H1 2436   3.820   2.800   6.406
  831TIP3    H2 2437   3.759   2.930   6.456
  832TIP3   OH2 2438   7.626   2.701   3.207
  832TIP3    H1 2439   7.562   2.769   3.227
  832TIP3    H2 2440   7.644   2.712   3.114
  833TIP3   OH2 2441   6.553   2.530   1.996
  833TIP3    H1 2442   6.543   2.539   2.091
  833TIP3    H2 2443   6.623   2.591   1.973
  834TIP3   OH2 2444   0.573   3.764   5.787
  834TIP3    H1 2445   0.566   3.797   5.877
  834TIP3    H2 2446   0.544   3.673   5.793
  835TIP3   OH2 2447   6.975   4.515   0.542
  835TIP3    H1 2448   6.895   4.538   0.495
  835TIP3    H2 2449   7.042   4.573   0.504
  836TIP3   OH2 2450   1.238   0.993   1.841
  836TIP3    H1 2451   1.224   0.967   1.932
  836TIP3    H2 2452   1.168   0.949   1.793
  837TIP3   OH2 2453   0.629   4.818   4.429
  837TIP3    H1 2454   0.607   4.796   4.520
  837TIP3    H2 2455   0.713   4.775   4.414
  838TIP3   OH2 2456   3.850   3.328   5.743
  838TIP3    H1 2457   3.845   3.241   5.783
  838TIP3    H2 2458   3.760   3.360   5.745
  839TIP3   OH2 2459   5.200   6.540   1.362
  839TIP3    H1 2460   5.136   6.528   1.292
  839TIP3    H2 2461   5.281   6.503   1.328
  840TIP3   OH2 2462   7.175   2.212   0.151
  840TIP3    H1 2463   7.267   2.210   0.125
  840TIP3    H2 2464   7.178   2.218   0.247
  841TIP3   OH2 2465   7.205   6.727   2.864
  841TIP3    H1 2466   7.217   6.677   2.945
  841TIP3    H2 2467   7.162   6.667   2.804
  842TIP3   OH2 2468   2.167   6.060   6.318
  842TIP3    H1 2469   2.074   6.084   6.323
  842TIP3    H2 2470   2.205   6.125   6.259
  843TIP3   OH2 2471   7.357   4.647   5.442
  843TIP3    H1 2472   7.335   4.569   5.492
  843TIP3    H2 2473   7.272   4.685   5.419
  844TIP3   OH2 2474   6.736   5.470   0.274
  844TIP3    H1 2475   6.787   5.409   0.327
  844TIP3    H2 2476   6.740   5.433   0.185
  845TIP3   OH2 2477   3.509   4.259   3.992
  845TIP3    H1 2478   3.419   4.283   4.014
  845TIP3    H2 2479   3.500   4.196   3.920
  846TIP3   OH2 2480   3.971   7.715   2.801
  846TIP3    H1 2481   3.912   7.778   2.760
  846TIP3    H2 2482   3.953   7.633   2.755
  847TIP3   OH2 2483   5.857   1.712   3.148
  847TIP3    H1 2484   5.944   1.748   3.129
  847TIP3    H2 2485   5.804   1.739   3.073
  848TIP3   OH2 2486   0.270   3.150   0.002
  848TIP3    H1 2487   0.303   3.200   0.077
  848TIP3    H2 2488   0.334   3.167  -0.068
  849TIP3   OH2 2489   7.846   7.345   2.146
  849TIP3    H1 2490   7.843   7.392   2.230
  849TIP3    H2 2491   7.816   7.409   2.082
  850TIP3   OH2 2492   4.950   2.940   2.787
  850TIP3    H1 2493   4.931   2.895   2.870
  850TIP3    H2 2494   4.924   2.877   2.720
  851TIP3   OH2 2495   6.153   2.120   3.894
  851TIP3    H1 2496   6.111   2.092   3.812
  851TIP3    H2 2497   6.245   2.133   3.869
  852TIP3   OH2 2498   2.044   1.056   5.892
  852TIP3    H1 2499   2.091   1.095   5.965
  852TIP3    H2 2500   2.028   1.129   5.832
  853TIP3   OH2 2501   2.884   4.566   2.437
  853TIP3    H1 2502   2.839   4.617   2.504
  853TIP3    H2 2503   2.894   4.626   2.364
  854TIP3   OH2 2504   4.981   0.331   1.636
  854TIP3    H1 2505   4.888   0.346   1.655
  854TIP3    H2 2506   4.991   0.236   1.639
  855TIP3   OH2 2507   1.634   4.395   0.626
  855TIP3    H1 2508   1.628   4.477   0.674
  855TIP3    H2 2509   1.544   4.372   0.604
  856TIP3   OH2 2510   2.057   6.710   5.774
  856TIP3    H1 2511   2.062   6.735   5.682
  856TIP3    H2 2512   1.993   6.638   5.776
  857TIP3   OH2 2513   6.363   1.167   3.793
  857TIP3    H1 2514   6.455   1.190   3.812
  857TIP3    H2 2515   6.342   1.220   3.716
  858TIP3   OH2 2516   8.170   2.256   4.572
  858TIP3    H1 2517   8.120   2.249   4.654
  858TIP3    H2 2518   8.131   2.191   4.515
  859TIP3   OH2 2519   6.830   7.109   3.185
  859TIP3    H1 2520   6.750   7.071   3.148
  859TIP3    H2 2521   6.843   7.062   3.267
  860TIP3   OH2 2522   6.972   0.996   3.466
  860TIP3    H1 2523   6.887   1.006   3.424
  860TIP3    H2 2524   6.972   0.907   3.501
  861TIP3   OH2 2525   4.452   3.741   0.433
  861TIP3    H1 2526   4.443   3.782   0.519
  861TIP3    H2 2527   4.399   3.661   0.439
  862TIP3   OH2 2528   1.364   6.263   0.881
  862TIP3    H1 2529   1.347   6.231   0.793
  862TIP3    H2 2530   1.283   6.305   0.908
  863TIP3   OH2 2531   4.344   7.468   1.971
  863TIP3    H1 2532   4.254   7.450   1.997
  863TIP3    H2 2533   4.337   7.530   1.898
  864TIP3   OH2 2534   2.570   4.089   2.440
  864TIP3    H1 2535   2.592   3.999   2.465
  864TIP3    H2 2536   2.655   4.129   2.419
  865TIP3   OH2 2537   6.672   0.255   2.277
  865TIP3    H1 2538   6.673   0.320   2.347
  865TIP3    H2 2539   6.737   0.287   2.214
  866TIP3   OH2 2540   0.845   2.334   5.177
  866TIP3    H1 2541   0.804   2.404   5.126
  866TIP3    H2 2542   0.935   2.330   5.144
  867TIP3   OH2 2543   1.719   3.352   3.028
  867TIP3    H1 2544   1.668   3.287   3.077
  867TIP3    H2 2545   1.809   3.340   3.059
  868TIP3   OH2 2546   5.944  -0.021   1.177
  868TIP3    H1 2547   5.937   0.074   1.164
  868TIP3    H2 2548   5.897  -0.038   1.258
  869TIP3   OH2 2549   4.286   0.338   2.218
  869TIP3    H1 2550   4.326   0.276   2.279
  869TIP3    H2 2551   4.330   0.421   2.236
  870TIP3   OH2 2552   5.689   3.230   1.484
  870TIP3    H1 2553   5.682   3.324   1.502
  870TIP3    H2 2554   5.738   3.195   1.558
  871TIP3   OH2 2555   2.534   7.254   4.884
  871TIP3    H1 2556   2.557   7.339   4.846
  871TIP3    H2 2557   2.481   7.276   4.960
  872TIP3   OH2 2558   0.883   7.736   3.539
  872TIP3    H1 2559   0.865   7.829   3.554
  872TIP3    H2 2560   0.888   7.698   3.626
  873TIP3   OH2 2561   5.380   5.662   2.456
  873TIP3    H1 2562   5.453   5.630   2.402
  873TIP3    H2 2563   5.380   5.756   2.443
  874TIP3   OH2 2564   1.565   5.004   1.258
  874TIP3    H1 2565   1.657   5.016   1.282
  874TIP3    H2 2566   1.533   5.093   1.243
  875TIP3   OH2 2567   0.272   2.368   4.680
  875TIP3    H1 2568   0.237   2.408   4.761
  875TIP3    H2 2569   0.367   2.375   4.689
  876TIP3   OH2 2570   0.697   7.779   6.531
  876TIP3    H1 2571   0.648   7.699   6.550
  876TIP3    H2 2572   0.782   7.766   6.574
  877TIP3   OH2 2573   6.436   2.368   5.672
  877TIP3    H1 2574   6.380   2.346   5.746
  877TIP3    H2 2575   6.525   2.349   5.703
  878TIP3   OH2 2576   7.908   6.415   3.423
  878TIP3    H1 2577   7.944   6.502   3.443
  878TIP3    H2 2578   7.813   6.428   3.424
  879TIP3   OH2 2579   1.870   3.015   1.562
  879TIP3    H1 2580   1.861   3.101   1.603
  879TIP3    H2 2581   1.838   3.027   1.473
  880TIP3   OH2 2582   1.916   4.725   5.409
  880TIP3    H1 2583   1.958   4.654   5.458
  880TIP3    H2 2584   1.922   4.801   5.467
  881TIP3   OH2 2585   3.868   1.968   2.089
  881TIP3    H1 2586   3.959   1.985   2.069
  881TIP3    H2 2587   3.868   1.941   2.181
  882TIP3   OH2 2588   0.203   1.657   4.009
  882TIP3    H1 2589   0.279   1.655   3.950
  882TIP3    H2 2590   0.192   1.750   4.030
  883TIP3   OH2 2591   3.746   5.517   3.051
  883TIP3    H1 2592   3.827   5.471   3.030
  883TIP3    H2 2593   3.698   5.456   3.107
  884TIP3   OH2 2594   2.301   2.029   6.606
  884TIP3    H1 2595   2.268   2.118   6.617
  884TIP3    H2 2596   2.306   2.017   6.512
  885TIP3   OH2 2597   7.455   7.578   2.995
  885TIP3    H1 2598   7.500   7.558   2.913
  885TIP3    H2 2599   7.365   7.597   2.968
  886TIP3   OH2 2600   0.764   7.556   0.853
  886TIP3    H1 2601   0.721   7.581   0.935
  886TIP3    H2 2602   0.767   7.461   0.855
  887TIP3   OH2 2603   2.329   2.182   3.101
  887TIP3    H1 2604   2.384   2.239   3.155
  887TIP3    H2 2605   2.247   2.174   3.150
  888TIP3   OH2 2606   5.353   5.348   2.279
  888TIP3    H1 2607   5.362   5.389   2.193
  888TIP3    H2 2608   5.351   5.421   2.341
  889TIP3   OH2 2609   2.570   6.111   1.371
  889TIP3    H1 2610   2.626   6.189   1.363
  889TIP3    H2 2611   2.535   6.117   1.460
  890TIP3   OH2 2612   8.046   2.095   1.565
  890TIP3    H1 2613   8.126   2.090   1.513
  890TIP3    H2 2614   8.076   2.107   1.655
  891TIP3   OH2 2615   0.628   1.204   4.738
  891TIP3    H1 2616   0.695   1.163   4.684
  891TIP3    H2 2617   0.573   1.130   4.767
  892TIP3   OH2 2618   3.638   3.633   4.641
  892TIP3    H1 2619   3.660   3.647   4.549
  892TIP3    H2 2620   3.635   3.538   4.651
  893TIP3   OH2 2621   0.128   1.772   5.380
  893TIP3    H1 2622   0.062   1.703   5.383
  893TIP3    H2 2623   0.146   1.792   5.472
  894TIP3   OH2 2624   4.135   1.586   3.279
  894TIP3    H1 2625   4.076   1.555   3.348
  894TIP3    H2 2626   4.215   1.535   3.292
  895TIP3   OH2 2627   3.704   0.972   6.733
  895TIP3    H1 2628   3.675   0.971   6.642
  895TIP3    H2 2629   3.782   0.918   6.734
  896TIP3   OH2 2630   2.250   3.615   6.255
  896TIP3    H1 2631   2.164   3.579   6.278
  896TIP3    H2 2632   2.234   3.708   6.240
  897TIP3   OH2 2633   7.662   2.791   2.954
  897TIP3    H1 2634   7.751   2.758   2.943
  897TIP3    H2 2635   7.670   2.885   2.937
  898TIP3   OH2 2636   3.893   6.173   5.005
  898TIP3    H1 2637   3.984   6.199   5.021
  898TIP3    H2 2638   3.897   6.079   4.987
  899TIP3   OH2 2639   4.619   3.685   2.669
  899TIP3    H1 2640   4.532   3.667   2.633
  899TIP3    H2 2641   4.654   3.599   2.692
  900TIP3   OH2 2642   5.100   2.987   0.221
  900TIP3    H1 2643   5.045   2.934   0.164
  900TIP3    H2 2644   5.189   2.954   0.208
  901TIP3   OH2 2645   3.466   5.210   5.089
  901TIP3    H1 2646   3.384   5.223   5.041
  901TIP3    H2 2647   3.505   5.297   5.092
  902TIP3   OH2 2648   5.793   4.081   4.647
  902TIP3    H1 2649   5.764   4.168   4.619
  902TIP3    H2 2650   5.861   4.057   4.584
  903TIP3   OH2 2651   3.327   5.657   0.772
  903TIP3    H1 2652   3.256   5.719   0.788
  903TIP3    H2 2653   3.292   5.573   0.800
  904TIP3   OH2 2654   2.185   0.434   2.641
  904TIP3    H1 2655   2.153   0.522   2.664
  904TIP3    H2 2656   2.270   0.429   2.684
  905TIP3   OH2 2657   5.068   5.688   3.075
  905TIP3    H1 2658   5.083   5.596   3.098
  905TIP3    H2 2659   5.104   5.697   2.987
  906TIP3   OH2 2660   5.156   4.992   3.820
  906TIP3    H1 2661   5.206   4.916   3.849
  906TIP3    H2 2662   5.073   4.955   3.789
  907TIP3   OH2 2663   3.748   5.642   4.236
  907TIP3    H1 2664   3.713   5.725   4.267
  907TIP3    H2 2665   3.692   5.619   4.161
  908TIP3   OH2 2666   3.031   2.920   6.740
  908TIP3    H1 2667   2.941   2.938   6.765
  908TIP3    H2 2668   3.049   2.833   6.777
  909TIP3   OH2 2669   4.149   4.686   0.109
  909TIP3    H1 2670   4.097   4.694   0.189
  909TIP3    H2 2671   4.084   4.684   0.038
  910TIP3   OH2 2672   5.738   7.565   5.915
  910TIP3    H1 2673   5.829   7.548   5.890
  910TIP3    H2 2674   5.743   7.599   6.004
  911TIP3   OH2 2675   6.951   3.593   5.455
  911TIP3    H1 2676   6.873   3.574   5.403
  911TIP3    H2 2677   6.975   3.682   5.429
  912TIP3   OH2 2678   2.413   7.619   2.400
  912TIP3    H1 2679   2.456   7.650   2.480
  912TIP3    H2 2680   2.465   7.657   2.329
  913TIP3   OH2 2681   6.098   4.283   2.219
  913TIP3    H1 2682   6.082   4.360   2.274
  913TIP3    H2 2683   6.116   4.318   2.133
  914TIP3   OH2 2684   4.182   5.553   0.376
  914TIP3    H1 2685   4.240   5.537   0.450
  914TIP3    H2 2686   4.139   5.636   0.397
  915TIP3   OH2 2687   2.502   7.276   4.273
  915TIP3    H1 2688   2.548   7.347   4.317
  915TIP3    H2 2689   2.412   7.307   4.265
  916TIP3   OH2 2690   5.849   6.766   2.831
  916TIP3    H1 2691   5.877   6.682   2.793
  916TIP3    H2 2692   5.894   6.771   2.915
  917TIP3   OH2 2693   4.552   2.050   2.050
  917TIP3    H1 2694   4.521   2.019   1.965
  917TIP3    H2 2695   4.494   2.123   2.072
  918TIP3   OH2 2696   0.708   3.729   2.022
  918TIP3    H1 2697   0.726   3.753   1.931
  918TIP3    H2 2698   0.615   3.710   2.024
  919TIP3   OH2 2699   8.185   5.519   1.050
  919TIP3    H1 2700   8.269   5.475   1.062
  919TIP3    H2 2701   8.127   5.477   1.113
  920TIP3   OH2 2702   4.096   6.358   5.853
  920TIP3    H1 2703   4.164   6.421   5.831
  920TIP3    H2 2704   4.120   6.278   5.806
  921TIP3   OH2 2705   0.988   3.209   2.018
  921TIP3    H1 2706   0.988   3.114   2.006
  921TIP3    H2 2707   1.049   3.241   1.953
  922TIP3   OH2 2708   6.389   2.294   1.991
  922TIP3    H1 2709   6.411   2.387   1.993
  922TIP3    H2 2710   6.442   2.256   2.061
  923TIP3   OH2 2711   6.719   2.389   5.483
  923TIP3    H1 2712   6.766   2.337   5.418
  923TIP3    H2 2713   6.769   2.377   5.564
  924TIP3   OH2 2714   5.718   2.072   4.945
  924TIP3    H1 2715   5.781   2.008   4.980
  924TIP3    H2 2716   5.647   2.073   5.010
  925TIP3   OH2 2717   7.301   1.486   4.933
  925TIP3    H1 2718   7.330   1.577   4.930
  925TIP3    H2 2719   7.205   1.492   4.938
  926TIP3   OH2 2720   4.243   6.171   6.111
  926TIP3    H1 2721   4.282   6.230   6.175
  926TIP3    H2 2722   4.170   6.220   6.074
  927TIP3   OH2 2723   7.252   4.247   5.270
  927TIP3    H1 2724   7.200   4.191   5.327
  927TIP3    H2 2725   7.340   4.211   5.274
  928TIP3   OH2 2726   4.862   6.222   6.036
  928TIP3    H1 2727   4.939   6.203   6.090
  928TIP3    H2 2728   4.790   6.177   6.079
  929TIP3   OH2 2729   2.883   6.609   3.022
  929TIP3    H1 2730   2.858   6.619   2.930
  929TIP3    H2 2731   2.804   6.579   3.066
  930TIP3   OH2 2732   7.014   7.477   1.646
  930TIP3    H1 2733   6.978   7.489   1.734
  930TIP3    H2 2734   6.951   7.421   1.601
  931TIP3   OH2 2735   3.380   4.129   0.800
  931TIP3    H1 2736   3.377   4.224   0.813
  931TIP3    H2 2737   3.353   4.092   0.884
  932TIP3   OH2 2738   3.040   3.100   0.187
  932TIP3    H1 2739   3.052   3.057   0.103
  932TIP3    H2 2740   3.117   3.156   0.197
  933TIP3   OH2 2741   2.723   5.866   6.566
  933TIP3    H1 2742   2.691   5.917   6.492
  933TIP3    H2 2743   2.668   5.788   6.568
  934TIP3   OH2 2744   4.798   6.553   6.196
  934TIP3    H1 2745   4.759   6.627   6.242
  934TIP3    H2 2746   4.723   6.506   6.158
  935TIP3   OH2 2747   0.629   6.013   6.514
  935TIP3    H1 2748   0.676   5.943   6.468
  935TIP3    H2 2749   0.618   6.082   6.449
  936TIP3   OH2 2750   4.951   5.319   1.001
  936TIP3    H1 2751   4.909   5.398   0.966
  936TIP3    H2 2752   5.019   5.297   0.938
  937TIP3   OH2 2753   3.826   7.553   1.940
  937TIP3    H1 2754   3.798   7.549   1.849
  937TIP3    H2 2755   3.779   7.482   1.983
  938TIP3   OH2 2756   5.652   2.042   3.778
  938TIP3    H1 2757   5.696   1.960   3.754
  938TIP3    H2 2758   5.694   2.069   3.859
  939TIP3   OH2 2759   0.890   5.025   2.661
  939TIP3    H1 2760   0.932   5.107   2.684
  939TIP3    H2 2761   0.838   5.002   2.738
  940TIP3   OH2 2762   7.843   5.286   3.231
  940TIP3    H1 2763   7.892   5.294   3.313
  940TIP3    H2 2764   7.754   5.315   3.254
  941TIP3   OH2 2765   0.837   6.117   5.374
  941TIP3    H1 2766   0.742   6.105   5.366
  941TIP3    H2 2767   0.874   6.033   5.347
  942TIP3   OH2 2768   4.968   1.549   4.040
  942TIP3    H1 2769   5.031   1.579   4.105
  942TIP3    H2 2770   4.901   1.618   4.038
  943TIP3   OH2 2771   6.166   1.443   4.984
  943TIP3    H1 2772   6.219   1.495   4.924
  943TIP3    H2 2773   6.213   1.449   5.068
  944TIP3   OH2 2774   6.923   2.466   4.690
  944TIP3    H1 2775   6.958   2.487   4.604
  944TIP3    H2 2776   6.855   2.400   4.674
  945TIP3   OH2 2777   7.797   3.724   4.961
  945TIP3    H1 2778   7.765   3.802   4.915
  945TIP3    H2 2779   7.865   3.690   4.903
  946TIP3   OH2 2780   1.056   4.180   2.803
  946TIP3    H1 2781   0.966   4.213   2.805
  946TIP3    H2 2782   1.056   4.114   2.732
  947TIP3   OH2 2783   8.115   5.291   4.575
  947TIP3    H1 2784   8.091   5.210   4.531
  947TIP3    H2 2785   8.049   5.354   4.548
  948TIP3   OH2 2786   0.404   6.139   2.852
  948TIP3    H1 2787   0.352   6.065   2.822
  948TIP3    H2 2788   0.484   6.100   2.888
  949TIP3   OH2 2789   6.443   0.402   4.084
  949TIP3    H1 2790   6.477   0.373   3.999
  949TIP3    H2 2791   6.411   0.491   4.068
  950TIP3   OH2 2792   0.610   4.555   2.243
  950TIP3    H1 2793   0.553   4.506   2.302
  950TIP3    H2 2794   0.637   4.632   2.293
  951TIP3   OH2 2795   6.011   6.242   1.820
  951TIP3    H1 2796   5.951   6.307   1.858
  951TIP3    H2 2797   5.994   6.245   1.726
  952TIP3   OH2 2798   5.427   1.902   4.024
  952TIP3    H1 2799   5.491   1.969   4.046
  952TIP3    H2 2800   5.460   1.823   4.067
  953TIP3   OH2 2801   2.877   1.901   0.945
  953TIP3    H1 2802   2.917   1.867   1.025
  953TIP3    H2 2803   2.919   1.986   0.931
  954TIP3   OH2 2804   1.195   2.247   6.622
  954TIP3    H1 2805   1.104   2.245   6.649
  954TIP3    H2 2806   1.209   2.336   6.589
  955TIP3   OH2 2807   4.237   0.683   4.144
  955TIP3    H1 2808   4.266   0.734   4.220
  955TIP3    H2 2809   4.292   0.714   4.072
  956TIP3   OH2 2810   3.402   5.006   2.509
  956TIP3    H1 2811   3.473   4.988   2.571
  956TIP3    H2 2812   3.326   5.023   2.564
  957TIP3   OH2 2813   7.892   4.054   4.126
  957TIP3    H1 2814   7.933   3.977   4.165
  957TIP3    H2 2815   7.887   4.118   4.197
  958TIP3   OH2 2816   0.800   0.952   0.552
  958TIP3    H1 2817   0.871   0.922   0.496
  958TIP3    H2 2818   0.761   0.872   0.587
  959TIP3   OH2 2819   5.584   6.125   1.995
  959TIP3    H1 2820   5.613   6.215   2.003
  959TIP3    H2 2821   5.604   6.101   1.904
  960TIP3   OH2 2822   3.292   5.757   0.458
  960TIP3    H1 2823   3.303   5.754   0.363
  960TIP3    H2 2824   3.251   5.674   0.481
  961TIP3   OH2 2825   2.594   0.595   1.547
  961TIP3    H1 2826   2.591   0.690   1.544
  961TIP3    H2 2827   2.540   0.571   1.623
  962TIP3   OH2 2828   0.389   4.818   1.763
  962TIP3    H1 2829   0.445   4.889   1.793
  962TIP3    H2 2830   0.432   4.739   1.793
  963TIP3   OH2 2831   4.088   2.698   3.700
  963TIP3    H1 2832   4.037   2.622   3.730
  963TIP3    H2 2833   4.058   2.714   3.611
  964TIP3   OH2 2834   7.422   2.024   6.639
  964TIP3    H1 2835   7.414   1.988   6.551
  964TIP3    H2 2836   7.359   2.097   6.641
  965TIP3   OH2 2837   0.213   1.205   0.809
  965TIP3    H1 2838   0.171   1.205   0.723
  965TIP3    H2 2839   0.302   1.236   0.792
  966TIP3   OH2 2840   5.345   7.760   2.853
  966TIP3    H1 2841   5.361   7.854   2.861
  966TIP3    H2 2842   5.265   7.753   2.801
  967TIP3   OH2 2843   2.131   6.726   4.383
  967TIP3    H1 2844   2.134   6.729   4.287
  967TIP3    H2 2845   2.222   6.729   4.410
  968TIP3   OH2 2846   6.458   2.105   6.426
  968TIP3    H1 2847   6.520   2.082   6.357
  968TIP3    H2 2848   6.512   2.113   6.505
  969TIP3   OH2 2849   0.504   5.192   5.709
  969TIP3    H1 2850   0.483   5.190   5.616
  969TIP3    H2 2851   0.492   5.102   5.738
  970TIP3   OH2 2852   7.014   2.492   4.428
  970TIP3    H1 2853   7.024   2.555   4.356
  970TIP3    H2 2854   7.103   2.468   4.451
  971TIP3   OH2 2855   2.456   3.326   5.329
  971TIP3    H1 2856   2.548   3.352   5.331
  971TIP3    H2 2857   2.428   3.326   5.420
  972TIP3   OH2 2858   5.017   3.175   4.065
  972TIP3    H1 2859   4.988   3.084   4.076
  972TIP3    H2 2860   5.069   3.194   4.142
  973TIP3   OH2 2861   0.111   2.533   0.635
  973TIP3    H1 2862   0.145   2.601   0.577
  973TIP3    H2 2863   0.052   2.579   0.694
  974TIP3   OH2 2864   6.753   1.406   6.032
  974TIP3    H1 2865   6.703   1.410   5.951
  974TIP3    H2 2866   6.824   1.345   6.014
  975TIP3   OH2 2867   2.616   2.032   0.918
  975TIP3    H1 2868   2.673   1.957   0.934
  975TIP3    H2 2869   2.667   2.108   0.945
  976TIP3   OH2 2870   0.197   3.828   2.135
  976TIP3    H1 2871   0.150   3.746   2.119
  976TIP3    H2 2872   0.167   3.855   2.222
  977TIP3   OH2 2873   4.900   2.066   1.207
  977TIP3    H1 2874   4.965   2.066   1.277
  977TIP3    H2 2875   4.826   2.116   1.243
  978TIP3   OH2 2876   1.650   7.795   3.261
  978TIP3    H1 2877   1.654   7.820   3.353
  978TIP3    H2 2878   1.610   7.709   3.261
  979TIP3   OH2 2879   4.082   0.766   6.151
  979TIP3    H1 2880   4.061   0.856   6.123
  979TIP3    H2 2881   3.998   0.731   6.181
  980TIP3   OH2 2882   1.788   0.896   2.357
  980TIP3    H1 2883   1.874   0.910   2.319
  980TIP3    H2 2884   1.796   0.922   2.449
  981TIP3   OH2 2885   5.525   6.081   3.560
  981TIP3    H1 2886   5.453   6.018   3.568
  981TIP3    H2 2887   5.587   6.038   3.501
  982TIP3   OH2 2888   6.422   5.246   1.585
  982TIP3    H1 2889   6.512   5.214   1.583
  982TIP3    H2 2890   6.430   5.341   1.583
  983TIP3   OH2 2891   1.194   7.699   5.918
  983TIP3    H1 2892   1.263   7.755   5.884
  983TIP3    H2 2893   1.125   7.759   5.946
  984TIP3   OH2 2894   7.445   3.033   5.725
  984TIP3    H1 2895   7.417   3.109   5.675
  984TIP3    H2 2896   7.373   2.970   5.715
  985TIP3   OH2 2897   4.473   4.259   5.877
  985TIP3    H1 2898   4.381   4.235   5.890
  985TIP3    H2 2899   4.473   4.355   5.881
  986TIP3   OH2 2900   5.191   1.709   5.058
  986TIP3    H1 2901   5.269   1.707   5.112
  986TIP3    H2 2902   5.179   1.618   5.030
  987TIP3   OH2 2903   4.732   2.748   6.048
  987TIP3    H1 2904   4.733   2.716   5.958
  987TIP3    H2 2905   4.750   2.842   6.040
  988TIP3   OH2 2906   1.458   6.194   0.159
  988TIP3    H1 2907   1.386   6.155   0.208
  988TIP3    H2 2908   1.461   6.285   0.190
  989TIP3   OH2 2909   2.075   5.788   4.002
  989TIP3    H1 2910   2.088   5.755   3.913
  989TIP3    H2 2911   1.981   5.806   4.008
  990TIP3   OH2 2912   7.775   4.097   5.933
  990TIP3    H1 2913   7.720   4.175   5.930
  990TIP3    H2 2914   7.713   4.024   5.931
  991TIP3   OH2 2915   2.820   2.509   0.295
  991TIP3    H1 2916   2.827   2.558   0.377
  991TIP3    H2 2917   2.777   2.427   0.320
  992TIP3   OH2 2918   0.536   2.449   4.682
  992TIP3    H1 2919   0.599   2.449   4.611
  992TIP3    H2 2920   0.569   2.514   4.744
  993TIP3   OH2 2921   7.753   3.906   3.316
  993TIP3    H1 2922   7.799   3.887   3.234
  993TIP3    H2 2923   7.676   3.957   3.288
  994TIP3   OH2 2924   6.942   0.905   3.140
  994TIP3    H1 2925   6.938   0.888   3.234
  994TIP3    H2 2926   6.898   0.989   3.129
  995TIP3   OH2 2927   3.738   7.435   4.877
  995TIP3    H1 2928   3.788   7.386   4.811
  995TIP3    H2 2929   3.654   7.389   4.882
  996TIP3   OH2 2930   6.645   4.371   6.654
  996TIP3    H1 2931   6.602   4.424   6.722
  996TIP3    H2 2932   6.728   4.344   6.694
  997TIP3   OH2 2933   7.393   2.140   5.268
  997TIP3    H1 2934   7.442   2.212   5.308
  997TIP3    H2 2935   7.458   2.071   5.254
  998TIP3   OH2 2936   7.838   3.482   2.868
  998TIP3    H1 2937   7.855   3.394   2.902
  998TIP3    H2 2938   7.758   3.472   2.817
  999TIP3   OH2 2939   6.595   0.531   3.201
  999TIP3    H1 2940   6.552   0.450   3.228
  999TIP3    H2 2941   6.688   0.510   3.199
 1000TIP3   OH2 2942   3.045   7.414   0.722
 1000TIP3    H1 2943   3.133   7.448   0.737
 1000TIP3    H2 2944   3.009   7.402   0.810
 1001TIP3   OH2 2945   6.664   0.143   1.720
 1001TIP3    H1 2946   6.682   0.182   1.635
 1001TIP3    H2 2947   6.587   0.190   1.752
 1002TIP3   OH2 2948   4.558   1.129   6.032
 1002TIP3    H1 2949   4.540   1.173   6.115
 1002TIP3    H2 2950   4.477   1.083   6.011
 1003TIP3   OH2 2951   5.395   4.548   0.407
 1003TIP3    H1 2952   5.436   4.519   0.325
 1003TIP3    H2 2953   5.317   4.493   0.415
 1004TIP3   OH2 2954   7.463   5.269   4.376
 1004TIP3    H1 2955   7.513   5.303   4.303
 1004TIP3    H2 2956   7.502   5.183   4.394
 1005TIP3   OH2 2957   0.758   0.347   5.142
 1005TIP3    H1 2958   0.830   0.325   5.082
 1005TIP3    H2 2959   0.789   0.319   5.228
 1006TIP3   OH2 2960   3.863   4.143   3.895
 1006TIP3    H1 2961   3.866   4.197   3.974
 1006TIP3    H2 2962   3.941   4.088   3.900
 1007TIP3   OH2 2963   2.206   5.580   2.108
 1007TIP3    H1 2964   2.149   5.647   2.145
 1007TIP3    H2 2965   2.255   5.545   2.183
 1008TIP3   OH2 2966   1.100   5.429   0.187
 1008TIP3    H1 2967   1.120   5.405   0.278
 1008TIP3    H2 2968   1.037   5.500   0.194
 1009TIP3   OH2 2969   2.552   1.083   5.445
 1009TIP3    H1 2970   2.622   1.088   5.510
 1009TIP3    H2 2971   2.472   1.067   5.496
 1010TIP3   OH2 2972   7.331   5.275   1.220
 1010TIP3    H1 2973   7.377   5.201   1.179
 1010TIP3    H2 2974   7.365   5.277   1.310
 1011TIP3   OH2 2975   6.262   1.212   5.388
 1011TIP3    H1 2976   6.266   1.284   5.450
 1011TIP3    H2 2977   6.197   1.152   5.425
 1012TIP3   OH2 2978   7.261   3.281   5.687
 1012TIP3    H1 2979   7.232   3.350   5.747
 1012TIP3    H2 2980   7.216   3.299   5.605
 1013TIP3   OH2 2981   6.092   1.860   4.398
 1013TIP3    H1 2982   6.090   1.941   4.348
 1013TIP3    H2 2983   6.051   1.795   4.340
 1014TIP3   OH2 2984   3.046   5.601   5.923
 1014TIP3    H1 2985   3.043   5.674   5.985
 1014TIP3    H2 2986   3.129   5.612   5.877
 1015TIP3   OH2 2987   0.181   0.496   0.505
 1015TIP3    H1 2988   0.173   0.411   0.462
 1015TIP3    H2 2989   0.156   0.560   0.438
 1016TIP3   OH2 2990   4.307   1.758   4.506
 1016TIP3    H1 2991   4.235   1.774   4.445
 1016TIP3    H2 2992   4.381   1.735   4.451
 1017TIP3   OH2 2993   4.665   1.170   4.377
 1017TIP3    H1 2994   4.696   1.252   4.339
 1017TIP3    H2 2995   4.619   1.197   4.457
 1018TIP3   OH2 2996   0.958   0.711   0.468
 1018TIP3    H1 2997   0.942   0.661   0.547
 1018TIP3    H2 2998   1.040   0.676   0.433
 1019TIP3   OH2 2999   1.216   1.759   3.337
 1019TIP3    H1 3000   1.255   1.747   3.250
 1019TIP3    H2 3001   1.289   1.786   3.392
 1020TIP3   OH2 3002   1.059   6.705   0.996
 1020TIP3    H1 3003   1.097   6.790   0.973
 1020TIP3    H2 3004   0.968   6.711   0.967
 1021TIP3   OH2 3005   5.427   0.187   0.219
 1021TIP3    H1 3006   5.368   0.113   0.209
 1021TIP3    H2 3007   5.451   0.187   0.312
 1022TIP3   OH2 3008   4.676   4.285   5.645
 1022TIP3    H1 3009   4.625   4.300   5.725
 1022TIP3    H2 3010   4.731   4.210   5.666
 1023TIP3   OH2 3011   2.408   6.995   5.913
 1023TIP3    H1 3012   2.428   7.085   5.887
 1023TIP3    H2 3013   2.488   6.964   5.956
 1024TIP3   OH2 3014   5.553   4.162   4.369
 1024TIP3    H1 3015   5.489   4.103   4.331
 1024TIP3    H2 3016   5.624   4.165   4.306
 1025TIP3   OH2 3017   0.393   2.928   1.815
 1025TIP3    H1 3018   0.436   2.947   1.732
 1025TIP3    H2 3019   0.391   2.833   1.820
 1026TIP3   OH2 3020   4.819   1.429   3.472
 1026TIP3    H1 3021   4.887   1.477   3.519
 1026TIP3    H2 3022   4.737   1.469   3.501
 1027TIP3   OH2 3023   2.297   4.212   5.991
 1027TIP3    H1 3024   2.351   4.281   5.952
 1027TIP3    H2 3025   2.285   4.238   6.082
 1028TIP3   OH2 3026   6.687   2.270   2.403
 1028TIP3    H1 3027   6.691   2.215   2.325
 1028TIP3    H2 3028   6.767   2.250   2.450
 1029TIP3   OH2 3029   3.605   7.100   6.565
 1029TIP3    H1 3030   3.557   7.017   6.564
 1029TIP3    H2 3031   3.638   7.107   6.654
 1030TIP3   OH2 3032   0.725   2.452   3.552
 1030TIP3    H1 3033   0.815   2.424   3.568
 1030TIP3    H2 3034   0.679   2.434   3.635
 1031TIP3   OH2 3035   2.165   0.100   4.324
 1031TIP3    H1 3036   2.196   0.033   4.264
 1031TIP3    H2 3037   2.243   0.128   4.371
 1032TIP3   OH2 3038   1.448   1.270   5.280
 1032TIP3    H1 3039   1.357   1.291   5.302
 1032TIP3    H2 3040   1.488   1.251   5.365
 1033TIP3   OH2 3041   5.837   2.183   6.313
 1033TIP3    H1 3042   5.748   2.218   6.310
 1033TIP3    H2 3043   5.831   2.107   6.371
 1034TIP3   OH2 3044   6.559   1.149   4.708
 1034TIP3    H1 3045   6.633   1.116   4.759
 1034TIP3    H2 3046   6.506   1.196   4.772
 1035TIP3   OH2 3047   1.939   6.105   0.591
 1035TIP3    H1 3048   1.972   6.015   0.594
 1035TIP3    H2 3049   1.972   6.145   0.672
 1036TIP3   OH2 3050   2.645   5.508   3.247
 1036TIP3    H1 3051   2.619   5.576   3.311
 1036TIP3    H2 3052   2.578   5.440   3.257
 1037TIP3   OH2 3053   6.673   4.418   4.144
 1037TIP3    H1 3054   6.725   4.471   4.084
 1037TIP3    H2 3055   6.657   4.336   4.097
 1038TIP3   OH2 3056   2.400   7.348   6.101
 1038TIP3    H1 3057   2.381   7.285   6.171
 1038TIP3    H2 3058   2.313   7.376   6.070
 1039TIP3   OH2 3059   8.198   6.744   2.791
 1039TIP3    H1 3060   8.232   6.814   2.736
 1039TIP3    H2 3061   8.213   6.664   2.741
 1040TIP3   OH2 3062   7.460   3.512   5.858
 1040TIP3    H1 3063   7.483   3.421   5.880
 1040TIP3    H2 3064   7.480   3.520   5.765
 1041TIP3   OH2 3065   5.047   2.252   1.688
 1041TIP3    H1 3066   4.960   2.290   1.701
 1041TIP3    H2 3067   5.107   2.326   1.696
 1042TIP3   OH2 3068   5.960   7.360   6.685
 1042TIP3    H1 3069   5.887   7.417   6.708
 1042TIP3    H2 3070   5.943   7.279   6.732
 1043TIP3   OH2 3071   3.217   4.616   5.718
 1043TIP3    H1 3072   3.308   4.638   5.738
 1043TIP3    H2 3073   3.221   4.526   5.686
 1044TIP3   OH2 3074   6.024   5.386   4.133
 1044TIP3    H1 3075   6.009   5.392   4.039
 1044TIP3    H2 3076   5.943   5.420   4.173
 1045TIP3   OH2 3077   2.633   1.325   6.781
 1045TIP3    H1 3078   2.625   1.403   6.727
 1045TIP3    H2 3079   2.665   1.257   6.721
 1046TIP3   OH2 3080   4.707   4.005   1.336
 1046TIP3    H1 3081   4.733   3.977   1.248
 1046TIP3    H2 3082   4.626   4.055   1.322
 1047TIP3   OH2 3083   6.238   3.112   0.459
 1047TIP3    H1 3084   6.325   3.094   0.494
 1047TIP3    H2 3085   6.185   3.134   0.536
 1048TIP3   OH2 3086   2.094   4.946   6.800
 1048TIP3    H1 3087   2.121   4.873   6.743
 1048TIP3    H2 3088   2.002   4.960   6.778
 1049TIP3   OH2 3089   2.469   2.235   2.872
 1049TIP3    H1 3090   2.394   2.213   2.817
 1049TIP3    H2 3091   2.436   2.228   2.961
 1050TIP3   OH2 3092   6.198   1.531   2.590
 1050TIP3    H1 3093   6.118   1.581   2.606
 1050TIP3    H2 3094   6.267   1.598   2.584
 1051TIP3   OH2 3095   2.772   2.843   3.078
 1051TIP3    H1 3096   2.755   2.923   3.129
 1051TIP3    H2 3097   2.858   2.814   3.107
 1052TIP3   OH2 3098   2.817   0.372   2.802
 1052TIP3    H1 3099   2.887   0.378   2.737
 1052TIP3    H2 3100   2.857   0.325   2.875
 1053TIP3   OH2 3101   7.333   2.011   0.840
 1053TIP3    H1 3102   7.344   2.000   0.934
 1053TIP3    H2 3103   7.258   2.070   0.831
 1054TIP3   OH2 3104   0.197   0.847   5.997
 1054TIP3    H1 3105   0.253   0.801   6.060
 1054TIP3    H2 3106   0.227   0.815   5.912
 1055TIP3   OH2 3107   7.055   2.803   4.452
 1055TIP3    H1 3108   7.099   2.873   4.500
 1055TIP3    H2 3109   7.109   2.791   4.373
 1056TIP3   OH2 3110   0.562   4.034   3.424
 1056TIP3    H1 3111   0.537   4.082   3.346
 1056TIP3    H2 3112   0.657   4.046   3.430
 1057TIP3   OH2 3113   2.394   6.593   1.107
 1057TIP3    H1 3114   2.478   6.560   1.075
 1057TIP3    H2 3115   2.393   6.569   1.199
 1058TIP3   OH2 3116   6.895   1.342   2.495
 1058TIP3    H1 3117   6.846   1.279   2.441
 1058TIP3    H2 3118   6.981   1.347   2.452
 1059TIP3   OH2 3119   4.270   3.847   5.281
 1059TIP3    H1 3120   4.281   3.771   5.337
 1059TIP3    H2 3121   4.314   3.823   5.199
 1060TIP3   OH2 3122   8.127   3.615   2.263
 1060TIP3    H1 3123   8.188   3.686   2.287
 1060TIP3    H2 3124   8.104   3.574   2.346
 1061TIP3   OH2 3125   6.175   6.738   2.389
 1061TIP3    H1 3126   6.117   6.670   2.356
 1061TIP3    H2 3127   6.116   6.802   2.429
 1062TIP3   OH2 3128   4.199   5.880   5.762
 1062TIP3    H1 3129   4.209   5.785   5.771
 1062TIP3    H2 3130   4.222   5.915   5.848
 1063TIP3   OH2 3131   6.338   4.407   2.651
 1063TIP3    H1 3132   6.246   4.383   2.650
 1063TIP3    H2 3133   6.383   4.328   2.679
 1064TIP3   OH2 3134   1.340   0.971   2.924
 1064TIP3    H1 3135   1.400   0.901   2.898
 1064TIP3    H2 3136   1.372   1.049   2.878
 1065TIP3   OH2 3137   4.308   0.430   0.646
 1065TIP3    H1 3138   4.299   0.467   0.558
 1065TIP3    H2 3139   4.220   0.400   0.669
 1066TIP3   OH2 3140   8.044   1.271   1.489
 1066TIP3    H1 3141   8.138   1.280   1.477
 1066TIP3    H2 3142   8.014   1.358   1.514
 1067TIP3   OH2 3143   7.100   3.895   4.106
 1067TIP3    H1 3144   7.148   3.866   4.029
 1067TIP3    H2 3145   7.130   3.837   4.176
 1068TIP3   OH2 3146   4.764   0.925   0.898
 1068TIP3    H1 3147   4.698   0.878   0.847
 1068TIP3    H2 3148   4.788   0.999   0.842
 1069TIP3   OH2 3149   1.928   4.956   5.586
 1069TIP3    H1 3150   1.855   4.903   5.617
 1069TIP3    H2 3151   1.923   5.036   5.639
 1070TIP3   OH2 3152   7.285   6.903   6.047
 1070TIP3    H1 3153   7.320   6.819   6.075
 1070TIP3    H2 3154   7.323   6.967   6.107
 1071TIP3   OH2 3155   7.918   2.700   5.087
 1071TIP3    H1 3156   7.852   2.646   5.043
 1071TIP3    H2 3157   8.002   2.667   5.055
 1072TIP3   OH2 3158   4.577   2.322   0.809
 1072TIP3    H1 3159   4.540   2.250   0.861
 1072TIP3    H2 3160   4.576   2.289   0.719
 1073TIP3   OH2 3161   6.648   2.230   4.170
 1073TIP3    H1 3162   6.670   2.182   4.090
 1073TIP3    H2 3163   6.676   2.320   4.153
 1074TIP3   OH2 3164   6.861   2.531   6.246
 1074TIP3    H1 3165   6.930   2.465   6.244
 1074TIP3    H2 3166   6.821   2.526   6.160
 1075TIP3   OH2 3167   3.487   1.142   3.299
 1075TIP3    H1 3168   3.546   1.208   3.336
 1075TIP3    H2 3169   3.413   1.193   3.265
 1076TIP3   OH2 3170   5.872   3.073   6.058
 1076TIP3    H1 3171   5.953   3.092   6.106
 1076TIP3    H2 3172   5.885   2.985   6.023
 1077TIP3   OH2 3173   8.062   4.532   4.888
 1077TIP3    H1 3174   7.967   4.521   4.898
 1077TIP3    H2 3175   8.086   4.594   4.957
 1078TIP3   OH2 3176   3.822   4.111   1.565
 1078TIP3    H1 3177   3.756   4.062   1.517
 1078TIP3    H2 3178   3.884   4.140   1.498
 1079TIP3   OH2 3179   2.539   6.843   2.481
 1079TIP3    H1 3180   2.545   6.748   2.471
 1079TIP3    H2 3181   2.630   6.872   2.485
 1080TIP3   OH2 3182   2.958   7.012   5.947
 1080TIP3    H1 3183   2.866   7.006   5.972
 1080TIP3    H2 3184   2.987   6.921   5.942
 1081TIP3   OH2 3185   7.444   2.418   3.124
 1081TIP3    H1 3186   7.421   2.499   3.169
 1081TIP3    H2 3187   7.539   2.411   3.133
 1082TIP3   OH2 3188   5.965   6.616   5.836
 1082TIP3    H1 3189   6.061   6.616   5.836
 1082TIP3    H2 3190   5.941   6.649   5.750
 1083TIP3   OH2 3191   4.248   2.644   6.158
 1083TIP3    H1 3192   4.277   2.558   6.187
 1083TIP3    H2 3193   4.322   2.702   6.177
 1084TIP3   OH2 3194   3.740   0.616   2.248
 1084TIP3    H1 3195   3.784   0.687   2.202
 1084TIP3    H2 3196   3.721   0.551   2.180
 1085TIP3   OH2 3197   5.828   4.150   3.523
 1085TIP3    H1 3198   5.806   4.234   3.483
 1085TIP3    H2 3199   5.761   4.137   3.590
 1086TIP3   OH2 3200   6.814   5.290   2.742
 1086TIP3    H1 3201   6.722   5.282   2.765
 1086TIP3    H2 3202   6.840   5.377   2.773
 1087TIP3   OH2 3203   5.812   5.335   0.068
 1087TIP3    H1 3204   5.790   5.258   0.119
 1087TIP3    H2 3205   5.904   5.325   0.046
 1088TIP3   OH2 3206   5.061   2.454   0.278
 1088TIP3    H1 3207   5.138   2.438   0.223
 1088TIP3    H2 3208   5.054   2.376   0.333
 1089TIP3   OH2 3209   3.633   5.080   3.091
 1089TIP3    H1 3210   3.698   5.016   3.119
 1089TIP3    H2 3211   3.671   5.165   3.115
 1090TIP3   OH2 3212   0.512   5.976   0.949
 1090TIP3    H1 3213   0.561   6.053   0.922
 1090TIP3    H2 3214   0.421   6.006   0.956
 1091TIP3   OH2 3215   3.596   2.832   0.757
 1091TIP3    H1 3216   3.502   2.814   0.764
 1091TIP3    H2 3217   3.602   2.899   0.688
 1092TIP3   OH2 3218   7.636   6.807   1.638
 1092TIP3    H1 3219   7.729   6.821   1.620
 1092TIP3    H2 3220   7.620   6.850   1.722
 1093TIP3   OH2 3221   2.786   0.459   1.304
 1093TIP3    H1 3222   2.838   0.440   1.226
 1093TIP3    H2 3223   2.697   0.473   1.271
 1094TIP3   OH2 3224   0.409   5.159   4.977
 1094TIP3    H1 3225   0.455   5.150   4.893
 1094TIP3    H2 3226   0.397   5.253   4.988
 1095TIP3   OH2 3227   8.175   2.479   2.662
 1095TIP3    H1 3228   8.240   2.503   2.728
 1095TIP3    H2 3229   8.120   2.413   2.705
 1096TIP3   OH2 3230   6.046   6.108   5.419
 1096TIP3    H1 3231   5.978   6.176   5.418
 1096TIP3    H2 3232   5.998   6.026   5.427
 1097TIP3   OH2 3233   6.577   5.634   1.580
 1097TIP3    H1 3234   6.589   5.589   1.497
 1097TIP3    H2 3235   6.658   5.684   1.592
 1098TIP3   OH2 3236   6.289   4.241   6.197
 1098TIP3    H1 3237   6.357   4.190   6.241
 1098TIP3    H2 3238   6.242   4.177   6.143
 1099TIP3   OH2 3239   6.476   3.576   3.261
 1099TIP3    H1 3240   6.531   3.632   3.207
 1099TIP3    H2 3241   6.400   3.556   3.207
 1100TIP3   OH2 3242   5.026   6.964   5.227
 1100TIP3    H1 3243   5.082   6.946   5.152
 1100TIP3    H2 3244   4.996   7.053   5.214
 1101TIP3   OH2 3245   7.638   1.200   0.542
 1101TIP3    H1 3246   7.709   1.262   0.525
 1101TIP3    H2 3247   7.602   1.180   0.455
 1102TIP3   OH2 3248   1.205   0.636   0.343
 1102TIP3    H1 3249   1.255   0.700   0.393
 1102TIP3    H2 3250   1.235   0.647   0.253
 1103TIP3   OH2 3251   0.653   0.861   0.169
 1103TIP3    H1 3252   0.656   0.781   0.221
 1103TIP3    H2 3253   0.729   0.912   0.199
 1104TIP3   OH2 3254   1.516   7.779   5.141
 1104TIP3    H1 3255   1.554   7.691   5.146
 1104TIP3    H2 3256   1.547   7.823   5.221
 1105TIP3   OH2 3257   6.045   6.299   6.311
 1105TIP3    H1 3258   6.005   6.212   6.306
 1105TIP3    H2 3259   5.971   6.360   6.305
 1106TIP3   OH2 3260   6.544   4.211   5.454
 1106TIP3    H1 3261   6.555   4.173   5.541
 1106TIP3    H2 3262   6.461   4.176   5.423
 1107TIP3   OH2 3263   6.377   4.138   4.667
 1107TIP3    H1 3264   6.462   4.101   4.645
 1107TIP3    H2 3265   6.387   4.232   4.653
 1108TIP3   OH2 3266   0.149   6.580   2.358
 1108TIP3    H1 3267   0.108   6.561   2.443
 1108TIP3    H2 3268   0.078   6.619   2.306
 1109TIP3   OH2 3269   7.542   2.273   4.743
 1109TIP3    H1 3270   7.585   2.237   4.820
 1109TIP3    H2 3271   7.449   2.259   4.758
 1110TIP3   OH2 3272   5.040   1.818   3.235
 1110TIP3    H1 3273   4.958   1.768   3.240
 1110TIP3    H2 3274   5.038   1.858   3.148
 1111TIP3   OH2 3275   6.579   3.443   0.530
 1111TIP3    H1 3276   6.666   3.478   0.549
 1111TIP3    H2 3277   6.596   3.361   0.485
 1112TIP3   OH2 3278   5.469   7.286   4.687
 1112TIP3    H1 3279   5.443   7.264   4.597
 1112TIP3    H2 3280   5.389   7.272   4.738
 1113TIP3   OH2 3281   3.982   0.385   4.132
 1113TIP3    H1 3282   3.968   0.473   4.166
 1113TIP3    H2 3283   4.008   0.398   4.041
 1114TIP3   OH2 3284   2.416   4.965   4.298
 1114TIP3    H1 3285   2.445   4.931   4.213
 1114TIP3    H2 3286   2.480   4.930   4.361
 1115TIP3   OH2 3287   5.856   3.156   2.906
 1115TIP3    H1 3288   5.888   3.191   2.989
 1115TIP3    H2 3289   5.793   3.221   2.875
 1116TIP3   OH2 3290   5.743   3.415   6.453
 1116TIP3    H1 3291   5.673   3.364   6.413
 1116TIP3    H2 3292   5.702   3.498   6.477
 1117TIP3   OH2 3293   0.106   7.604   6.776
 1117TIP3    H1 3294   0.056   7.626   6.698
 1117TIP3    H2 3295   0.077   7.517   6.800
 1118TIP3   OH2 3296   6.180   7.172   5.509
 1118TIP3    H1 3297   6.131   7.094   5.538
 1118TIP3    H2 3298   6.269   7.157   5.540
 1119TIP3   OH2 3299   2.009   1.459   5.969
 1119TIP3    H1 3300   2.035   1.551   5.959
 1119TIP3    H2 3301   2.024   1.439   6.061
 1120TIP3   OH2 3302   4.756   3.348   6.736
 1120TIP3    H1 3303   4.777   3.384   6.650
 1120TIP3    H2 3304   4.727   3.423   6.788
 1121TIP3   OH2 3305   5.743   5.790   2.915
 1121TIP3    H1 3306   5.834   5.818   2.926
 1121TIP3    H2 3307   5.728   5.793   2.821
 1122TIP3   OH2 3308   0.947   4.341   5.905
 1122TIP3    H1 3309   1.004   4.403   5.951
 1122TIP3    H2 3310   1.005   4.299   5.841
 1123TIP3   OH2 3311   7.980   4.841   5.495
 1123TIP3    H1 3312   8.038   4.843   5.419
 1123TIP3    H2 3313   7.978   4.749   5.521
 1124TIP3   OH2 3314   7.084   7.754   3.259
 1124TIP3    H1 3315   7.150   7.686   3.269
 1124TIP3    H2 3316   7.090   7.779   3.167
 1125TIP3   OH2 3317   5.936   0.075   2.582
 1125TIP3    H1 3318   5.991   0.064   2.504
 1125TIP3    H2 3319   5.854   0.032   2.559
 1126TIP3   OH2 3320   3.502   3.490   4.415
 1126TIP3    H1 3321   3.551   3.415   4.447
 1126TIP3    H2 3322   3.428   3.498   4.475
 1127TIP3   OH2 3323   2.271   1.917   4.786
 1127TIP3    H1 3324   2.293   2.010   4.799
 1127TIP3    H2 3325   2.260   1.908   4.692
 1128TIP3   OH2 3326   7.487   2.792   6.676
 1128TIP3    H1 3327   7.571   2.770   6.636
 1128TIP3    H2 3328   7.464   2.716   6.729
 1129TIP3   OH2 3329   6.201   1.400   5.666
 1129TIP3    H1 3330   6.219   1.408   5.759
 1129TIP3    H2 3331   6.137   1.470   5.648
 1130TIP3   OH2 3332   2.068   5.775   2.759
 1130TIP3    H1 3333   2.003   5.735   2.700
 1130TIP3    H2 3334   2.092   5.704   2.819
 1131TIP3   OH2 3335   4.571   0.505   5.000
 1131TIP3    H1 3336   4.650   0.532   5.047
 1131TIP3    H2 3337   4.554   0.415   5.031
 1132TIP3   OH2 3338   2.377   2.876   0.287
 1132TIP3    H1 3339   2.407   2.961   0.320
 1132TIP3    H2 3340   2.282   2.879   0.297
 1133TIP3   OH2 3341   1.380   4.045   4.356
 1133TIP3    H1 3342   1.414   4.132   4.334
 1133TIP3    H2 3343   1.396   4.036   4.450
 1134TIP3   OH2 3344   6.341   7.524   5.094
 1134TIP3    H1 3345   6.277   7.505   5.026
 1134TIP3    H2 3346   6.288   7.539   5.173
 1135TIP3   OH2 3347   7.777   1.488   5.497
 1135TIP3    H1 3348   7.773   1.542   5.418
 1135TIP3    H2 3349   7.870   1.480   5.517
 1136TIP3   OH2 3350   0.636   3.897   2.682
 1136TIP3    H1 3351   0.574   3.968   2.698
 1136TIP3    H2 3352   0.685   3.924   2.604
 1137TIP3   OH2 3353   3.444   2.764   1.047
 1137TIP3    H1 3354   3.538   2.759   1.030
 1137TIP3    H2 3355   3.427   2.858   1.057
 1138TIP3   OH2 3356   7.931   1.428   2.824
 1138TIP3    H1 3357   7.910   1.493   2.891
 1138TIP3    H2 3358   7.930   1.477   2.741
 1139TIP3   OH2 3359   2.998   3.850   6.631
 1139TIP3    H1 3360   2.965   3.917   6.571
 1139TIP3    H2 3361   3.084   3.882   6.659
 1140TIP3   OH2 3362   8.291   3.471   1.579
 1140TIP3    H1 3363   8.225   3.434   1.520
 1140TIP3    H2 3364   8.368   3.415   1.567
 1141TIP3   OH2 3365   1.661   3.257   5.147
 1141TIP3    H1 3366   1.645   3.350   5.160
 1141TIP3    H2 3367   1.576   3.216   5.161
 1142TIP3   OH2 3368   2.658   0.833   0.334
 1142TIP3    H1 3369   2.583   0.776   0.317
 1142TIP3    H2 3370   2.619   0.918   0.353
 1143TIP3   OH2 3371   6.937   7.222   2.955
 1143TIP3    H1 3372   6.873   7.207   3.024
 1143TIP3    H2 3373   6.990   7.142   2.952
 1144TIP3   OH2 3374   8.215   0.376   3.911
 1144TIP3    H1 3375   8.160   0.439   3.957
 1144TIP3    H2 3376   8.186   0.380   3.820
 1145TIP3   OH2 3377   0.144   3.119   1.357
 1145TIP3    H1 3378   0.215   3.111   1.421
 1145TIP3    H2 3379   0.180   3.080   1.277
 1146TIP3   OH2 3380   7.741   2.795   6.010
 1146TIP3    H1 3381   7.649   2.770   6.002
 1146TIP3    H2 3382   7.762   2.780   6.102
 1147TIP3   OH2 3383   7.839   2.043   0.752
 1147TIP3    H1 3384   7.823   2.013   0.663
 1147TIP3    H2 3385   7.817   1.967   0.807
 1148TIP3   OH2 3386   2.184   3.823   4.573
 1148TIP3    H1 3387   2.136   3.866   4.644
 1148TIP3    H2 3388   2.161   3.874   4.495
 1149TIP3   OH2 3389   0.640   7.386   4.680
 1149TIP3    H1 3390   0.576   7.378   4.751
 1149TIP3    H2 3391   0.592   7.359   4.602
 1150TIP3   OH2 3392   3.741   4.636   2.379
 1150TIP3    H1 3393   3.811   4.586   2.335
 1150TIP3    H2 3394   3.660   4.600   2.342
 1151TIP3   OH2 3395   4.177   7.506   1.360
 1151TIP3    H1 3396   4.227   7.587   1.360
 1151TIP3    H2 3397   4.232   7.445   1.310
 1152TIP3   OH2 3398   6.396   4.831   0.424
 1152TIP3    H1 3399   6.402   4.797   0.334
 1152TIP3    H2 3400   6.321   4.890   0.423
 1153TIP3   OH2 3401   3.782   2.350   6.363
 1153TIP3    H1 3402   3.702   2.378   6.319
 1153TIP3    H2 3403   3.821   2.432   6.394
 1154TIP3   OH2 3404   1.760   1.230   3.854
 1154TIP3    H1 3405   1.708   1.300   3.893
 1154TIP3    H2 3406   1.798   1.269   3.775
 1155TIP3   OH2 3407   7.747   2.476   1.452
 1155TIP3    H1 3408   7.772   2.420   1.525
 1155TIP3    H2 3409   7.665   2.438   1.420
 1156TIP3   OH2 3410   2.147   1.660   6.443
 1156TIP3    H1 3411   2.109   1.728   6.387
 1156TIP3    H2 3412   2.217   1.622   6.389
 1157TIP3   OH2 3413   0.024   5.484   6.023
 1157TIP3    H1 3414   0.030   5.389   6.034
 1157TIP3    H2 3415  -0.033   5.513   6.094
 1158TIP3   OH2 3416   4.422   1.671   1.265
 1158TIP3    H1 3417   4.487   1.613   1.225
 1158TIP3    H2 3418   4.441   1.757   1.227
 1159TIP3   OH2 3419   3.461   0.122   5.505
 1159TIP3    H1 3420   3.412   0.152   5.428
 1159TIP3    H2 3421   3.540   0.082   5.468
 1160TIP3   OH2 3422   5.603   0.218   2.693
 1160TIP3    H1 3423   5.550   0.296   2.677
 1160TIP3    H2 3424   5.693   0.247   2.681
 1161TIP3   OH2 3425   1.026   0.875   3.875
 1161TIP3    H1 3426   1.079   0.840   3.804
 1161TIP3    H2 3427   1.074   0.851   3.955
 1162TIP3   OH2 3428   1.267   0.010   4.116
 1162TIP3    H1 3429   1.309   0.037   4.197
 1162TIP3    H2 3430   1.336   0.015   4.049
 1163TIP3   OH2 3431   3.174  -0.007   1.696
 1163TIP3    H1 3432   3.195   0.068   1.639
 1163TIP3    H2 3433   3.192  -0.083   1.641
 1164TIP3   OH2 3434   3.575   6.424   2.405
 1164TIP3    H1 3435   3.502   6.365   2.428
 1164TIP3    H2 3436   3.645   6.365   2.376
 1165TIP3   OH2 3437   3.443   2.029   5.724
 1165TIP3    H1 3438   3.459   1.940   5.755
 1165TIP3    H2 3439   3.523   2.076   5.743
 1166TIP3   OH2 3440   6.741   4.214   0.574
 1166TIP3    H1 3441   6.774   4.261   0.651
 1166TIP3    H2 3442   6.695   4.139   0.610
 1167TIP3   OH2 3443   3.982   1.424   6.124
 1167TIP3    H1 3444   3.913   1.364   6.152
 1167TIP3    H2 3445   4.009   1.468   6.204
 1168TIP3   OH2 3446   5.398   7.180   0.027
 1168TIP3    H1 3447   5.417   7.243  -0.043
 1168TIP3    H2 3448   5.303   7.179   0.034
 1169TIP3   OH2 3449   5.588   1.799   5.097
 1169TIP3    H1 3450   5.625   1.740   5.030
 1169TIP3    H2 3451   5.651   1.795   5.169
 1170TIP3   OH2 3452   7.188   3.258   5.281
 1170TIP3    H1 3453   7.140   3.202   5.220
 1170TIP3    H2 3454   7.280   3.249   5.255
 1171TIP3   OH2 3455   6.645   1.326   2.773
 1171TIP3    H1 3456   6.596   1.375   2.707
 1171TIP3    H2 3457   6.596   1.341   2.854
 1172TIP3   OH2 3458   7.127   5.390   1.870
 1172TIP3    H1 3459   7.185   5.337   1.815
 1172TIP3    H2 3460   7.067   5.432   1.807
 1173TIP3   OH2 3461   6.859   5.601   0.646
 1173TIP3    H1 3462   6.780   5.548   0.651
 1173TIP3    H2 3463   6.836   5.674   0.589
 1174TIP3   OH2 3464   6.143   1.725   3.385
 1174TIP3    H1 3465   6.163   1.674   3.307
 1174TIP3    H2 3466   6.116   1.661   3.450
 1175TIP3   OH2 3467   5.960   5.124   3.786
 1175TIP3    H1 3468   5.949   5.079   3.703
 1175TIP3    H2 3469   5.874   5.118   3.828
 1176TIP3   OH2 3470   1.606   3.427   6.144
 1176TIP3    H1 3471   1.625   3.393   6.231
 1176TIP3    H2 3472   1.529   3.378   6.115
 1177TIP3   OH2 3473   5.203   0.062   5.877
 1177TIP3    H1 3474   5.198   0.156   5.891
 1177TIP3    H2 3475   5.134   0.025   5.932
 1178TIP3   OH2 3476   0.673   7.747   3.026
 1178TIP3    H1 3477   0.666   7.687   2.952
 1178TIP3    H2 3478   0.654   7.692   3.103
 1179TIP3   OH2 3479   4.602   3.947   4.564
 1179TIP3    H1 3480   4.665   3.920   4.497
 1179TIP3    H2 3481   4.589   3.869   4.619
 1180TIP3   OH2 3482   0.516   2.644   5.517
 1180TIP3    H1 3483   0.473   2.559   5.527
 1180TIP3    H2 3484   0.566   2.637   5.435
 1181TIP3   OH2 3485   7.523   5.443   1.837
 1181TIP3    H1 3486   7.500   5.353   1.860
 1181TIP3    H2 3487   7.563   5.479   1.916
 1182TIP3   OH2 3488   0.929   3.038   3.263
 1182TIP3    H1 3489   0.902   3.097   3.193
 1182TIP3    H2 3490   0.848   3.015   3.308
 1183TIP3   OH2 3491   7.413   0.948   5.312
 1183TIP3    H1 3492   7.377   0.864   5.282
 1183TIP3    H2 3493   7.393   1.009   5.241
 1184TIP3   OH2 3494   1.978   4.838   6.387
 1184TIP3    H1 3495   1.998   4.930   6.370
 1184TIP3    H2 3496   2.037   4.789   6.329
 1185TIP3   OH2 3497   7.687   0.529   5.235
 1185TIP3    H1 3498   7.705   0.617   5.205
 1185TIP3    H2 3499   7.644   0.540   5.320
 1186TIP3   OH2 3500   7.680   7.695   0.622
 1186TIP3    H1 3501   7.631   7.641   0.684
 1186TIP3    H2 3502   7.744   7.635   0.584
 1187TIP3   OH2 3503   7.376   2.535   1.495
 1187TIP3    H1 3504   7.320   2.466   1.533
 1187TIP3    H2 3505   7.447   2.487   1.453
 1188TIP3   OH2 3506   1.677   4.640   4.655
 1188TIP3    H1 3507   1.659   4.726   4.692
 1188TIP3    H2 3508   1.773   4.638   4.644
 1189TIP3   OH2 3509   6.879   3.173   1.403
 1189TIP3    H1 3510   6.948   3.217   1.453
 1189TIP3    H2 3511   6.860   3.093   1.452
 1190TIP3   OH2 3512   1.671   1.849   0.680
 1190TIP3    H1 3513   1.652   1.837   0.587
 1190TIP3    H2 3514   1.595   1.896   0.715
 1191TIP3   OH2 3515   2.982   1.479   3.076
 1191TIP3    H1 3516   3.051   1.540   3.101
 1191TIP3    H2 3517   2.994   1.404   3.134
 1192TIP3   OH2 3518   4.140   2.030   5.846
 1192TIP3    H1 3519   4.178   1.988   5.923
 1192TIP3    H2 3520   4.049   2.046   5.870
 1193TIP3   OH2 3521   2.456   4.856   4.053
 1193TIP3    H1 3522   2.374   4.841   4.006
 1193TIP3    H2 3523   2.517   4.794   4.014
 1194TIP3   OH2 3524   7.802   2.685   4.652
 1194TIP3    H1 3525   7.812   2.755   4.716
 1194TIP3    H2 3526   7.731   2.631   4.686
 1195TIP3   OH2 3527   1.521   4.196   3.521
 1195TIP3    H1 3528   1.577   4.272   3.508
 1195TIP3    H2 3529   1.531   4.144   3.442
 1196TIP3   OH2 3530   2.204   1.235   3.102
 1196TIP3    H1 3531   2.218   1.274   3.189
 1196TIP3    H2 3532   2.263   1.159   3.100
 1197TIP3   OH2 3533   4.523   1.236   6.277
 1197TIP3    H1 3534   4.518   1.214   6.370
 1197TIP3    H2 3535   4.509   1.331   6.274
 1198TIP3   OH2 3536   3.860   0.134   0.768
 1198TIP3    H1 3537   3.858   0.140   0.864
 1198TIP3    H2 3538   3.800   0.063   0.747
 1199TIP3   OH2 3539   4.475   1.072   1.643
 1199TIP3    H1 3540   4.437   1.002   1.695
 1199TIP3    H2 3541   4.407   1.140   1.640
 1200TIP3   OH2 3542   2.668   2.351   1.243
 1200TIP3    H1 3543   2.601   2.372   1.308
 1200TIP3    H2 3544   2.726   2.427   1.243
 1201TIP3   OH2 3545   3.933   1.807   5.539
 1201TIP3    H1 3546   3.917   1.714   5.555
 1201TIP3    H2 3547   3.867   1.852   5.593
 1202TIP3   OH2 3548   2.481   3.642   5.712
 1202TIP3    H1 3549   2.535   3.588   5.770
 1202TIP3    H2 3550   2.400   3.593   5.701
 1203TIP3   OH2 3551   2.840   1.200   0.544
 1203TIP3    H1 3552   2.779   1.130   0.569
 1203TIP3    H2 3553   2.927   1.161   0.553
 1204TIP3   OH2 3554   5.370   5.436   5.933
 1204TIP3    H1 3555   5.317   5.362   5.965
 1204TIP3    H2 3556   5.460   5.412   5.953
 1205TIP3   OH2 3557   4.013   1.000   5.557
 1205TIP3    H1 3558   3.963   1.076   5.589
 1205TIP3    H2 3559   3.970   0.924   5.596
 1206TIP3   OH2 3560   3.148   1.556   5.583
 1206TIP3    H1 3561   3.092   1.482   5.608
 1206TIP3    H2 3562   3.221   1.516   5.535
 1207TIP3   OH2 3563   7.822   3.820   6.434
 1207TIP3    H1 3564   7.763   3.748   6.414
 1207TIP3    H2 3565   7.811   3.834   6.528
 1208TIP3   OH2 3566   7.851   4.906   2.576
 1208TIP3    H1 3567   7.781   4.843   2.591
 1208TIP3    H2 3568   7.807   4.987   2.553
 1209TIP3   OH2 3569   3.610   5.823   2.813
 1209TIP3    H1 3570   3.569   5.759   2.872
 1209TIP3    H2 3571   3.677   5.773   2.766
 1210TIP3   OH2 3572   5.168   6.334   3.651
 1210TIP3    H1 3573   5.217   6.287   3.718
 1210TIP3    H2 3574   5.176   6.426   3.676
 1211TIP3   OH2 3575   2.966   3.941   5.807
 1211TIP3    H1 3576   2.884   3.951   5.854
 1211TIP3    H2 3577   3.008   3.865   5.847
 1212TIP3   OH2 3578   2.674   5.059   2.125
 1212TIP3    H1 3579   2.730   5.071   2.048
 1212TIP3    H2 3580   2.732   5.077   2.199
 1213TIP3   OH2 3581   3.318   6.857   2.214
 1213TIP3    H1 3582   3.334   6.766   2.237
 1213TIP3    H2 3583   3.339   6.906   2.294
 1214TIP3   OH2 3584   0.125   6.764   4.491
 1214TIP3    H1 3585   0.127   6.854   4.523
 1214TIP3    H2 3586   0.215   6.734   4.498
 1215TIP3   OH2 3587   4.295   3.802   0.822
 1215TIP3    H1 3588   4.259   3.863   0.758
 1215TIP3    H2 3589   4.388   3.795   0.800
 1216TIP3   OH2 3590   0.975   4.280   1.917
 1216TIP3    H1 3591   1.023   4.277   1.834
 1216TIP3    H2 3592   0.947   4.190   1.932
 1217TIP3   OH2 3593   8.144   3.968   3.836
 1217TIP3    H1 3594   8.167   4.036   3.901
 1217TIP3    H2 3595   8.209   3.980   3.766
 1218TIP3   OH2 3596   6.397   1.232   1.944
 1218TIP3    H1 3597   6.308   1.234   1.980
 1218TIP3    H2 3598   6.430   1.144   1.966
 1219TIP3   OH2 3599   8.140   0.976   0.312
 1219TIP3    H1 3600   8.220   0.971   0.259
 1219TIP3    H2 3601   8.171   0.982   0.402
 1220TIP3   OH2 3602   5.835   5.316   2.087
 1220TIP3    H1 3603   5.775   5.332   2.014
 1220TIP3    H2 3604   5.795   5.243   2.135
 1221TIP3   OH2 3605   7.063   6.446   5.475
 1221TIP3    H1 3606   7.024   6.477   5.556
 1221TIP3    H2 3607   7.139   6.503   5.462
 1222TIP3   OH2 3608   1.839   5.766   6.746
 1222TIP3    H1 3609   1.848   5.820   6.825
 1222TIP3    H2 3610   1.841   5.828   6.674
 1223TIP3   OH2 3611   0.743   3.870   4.601
 1223TIP3    H1 3612   0.788   3.876   4.686
 1223TIP3    H2 3613   0.809   3.833   4.542
 1224TIP3   OH2 3614   6.336   6.316   5.024
 1224TIP3    H1 3615   6.256   6.362   4.999
 1224TIP3    H2 3616   6.403   6.349   4.964
 1225TIP3   OH2 3617   3.992   2.180   1.013
 1225TIP3    H1 3618   3.995   2.127   1.092
 1225TIP3    H2 3619   3.997   2.117   0.941
 1226TIP3   OH2 3620   2.692   7.170   3.185
 1226TIP3    H1 3621   2.724   7.080   3.187
 1226TIP3    H2 3622   2.766   7.223   3.217
 1227TIP3   OH2 3623   8.001   7.287   2.550
 1227TIP3    H1 3624   7.968   7.364   2.597
 1227TIP3    H2 3625   7.987   7.214   2.610
 1228TIP3   OH2 3626   7.628   1.436   1.970
 1228TIP3    H1 3627   7.587   1.508   1.922
 1228TIP3    H2 3628   7.566   1.364   1.963
 1229TIP3   OH2 3629   6.243   3.425   5.440
 1229TIP3    H1 3630   6.180   3.463   5.502
 1229TIP3    H2 3631   6.192   3.406   5.362
 1230TIP3   OH2 3632   7.446   6.602   1.249
 1230TIP3    H1 3633   7.434   6.520   1.202
 1230TIP3    H2 3634   7.541   6.617   1.246
 1231TIP3   OH2 3635   6.552   4.098   1.233
 1231TIP3    H1 3636   6.531   4.016   1.278
 1231TIP3    H2 3637   6.479   4.156   1.253
 1232TIP3   OH2 3638   7.829   1.172   6.476
 1232TIP3    H1 3639   7.766   1.163   6.405
 1232TIP3    H2 3640   7.792   1.120   6.548
 1233TIP3   OH2 3641   0.700   3.066   3.407
 1233TIP3    H1 3642   0.676   3.060   3.500
 1233TIP3    H2 3643   0.670   3.152   3.380
 1234TIP3   OH2 3644   3.066   4.174   1.570
 1234TIP3    H1 3645   2.992   4.177   1.509
 1234TIP3    H2 3646   3.112   4.257   1.558
 1235TIP3   OH2 3647   6.514   4.547   0.464
 1235TIP3    H1 3648   6.501   4.616   0.399
 1235TIP3    H2 3649   6.529   4.595   0.546
 1236TIP3   OH2 3650   0.594   5.394   1.065
 1236TIP3    H1 3651   0.616   5.387   1.158
 1236TIP3    H2 3652   0.677   5.416   1.022
 1237TIP3   OH2 3653   0.987   1.299   5.516
 1237TIP3    H1 3654   0.926   1.368   5.491
 1237TIP3    H2 3655   1.061   1.345   5.556
 1238TIP3   OH2 3656   1.790   6.729   1.507
 1238TIP3    H1 3657   1.795   6.754   1.599
 1238TIP3    H2 3658   1.802   6.634   1.506
 1239TIP3   OH2 3659   8.281   2.891   4.496
 1239TIP3    H1 3660   8.285   2.889   4.592
 1239TIP3    H2 3661   8.249   2.804   4.471
 1240TIP3   OH2 3662   2.309   6.507   0.849
 1240TIP3    H1 3663   2.326   6.526   0.941
 1240TIP3    H2 3664   2.224   6.549   0.831
 1241TIP3   OH2 3665   0.839   6.128   1.142
 1241TIP3    H1 3666   0.849   6.042   1.101
 1241TIP3    H2 3667   0.923   6.143   1.187
 1242TIP3   OH2 3668   7.125   0.635   0.255
 1242TIP3    H1 3669   7.090   0.585   0.181
 1242TIP3    H2 3670   7.139   0.570   0.323
 1243TIP3   OH2 3671   3.185   2.593   0.416
 1243TIP3    H1 3672   3.122   2.664   0.401
 1243TIP3    H2 3673   3.151   2.519   0.366
 1244TIP3   OH2 3674   2.320   3.026   2.660
 1244TIP3    H1 3675   2.336   2.939   2.625
 1244TIP3    H2 3676   2.282   3.075   2.587
 1245TIP3   OH2 3677   3.934   5.975   4.482
 1245TIP3    H1 3678   3.931   6.015   4.395
 1245TIP3    H2 3679   3.885   5.893   4.473
 1246TIP3   OH2 3680   1.293   6.258   5.544
 1246TIP3    H1 3681   1.382   6.223   5.545
 1246TIP3    H2 3682   1.242   6.194   5.494
 1247TIP3   OH2 3683   3.941   7.385   5.807
 1247TIP3    H1 3684   3.957   7.473   5.841
 1247TIP3    H2 3685   3.848   7.371   5.820
 1248TIP3   OH2 3686   0.130   5.978   1.939
 1248TIP3    H1 3687   0.093   5.891   1.953
 1248TIP3    H2 3688   0.217   5.974   1.979
 1249TIP3   OH2 3689   7.938   6.569   0.544
 1249TIP3    H1 3690   8.031   6.550   0.541
 1249TIP3    H2 3691   7.914   6.589   0.454
 1250TIP3   OH2 3692   4.752   7.483   3.155
 1250TIP3    H1 3693   4.792   7.448   3.235
 1250TIP3    H2 3694   4.763   7.578   3.162
 1251TIP3   OH2 3695   7.508   3.857   1.379
 1251TIP3    H1 3696   7.434   3.824   1.429
 1251TIP3    H2 3697   7.480   3.851   1.287
 1252TIP3   OH2 3698   0.606   2.587   2.153
 1252TIP3    H1 3699   0.529   2.536   2.180
 1252TIP3    H2 3700   0.600   2.590   2.058
 1253TIP3   OH2 3701   6.653   6.021   5.565
 1253TIP3    H1 3702   6.700   6.000   5.485
 1253TIP3    H2 3703   6.619   6.110   5.551
 1254TIP3   OH2 3704   6.689   3.848   2.459
 1254TIP3    H1 3705   6.726   3.793   2.528
 1254TIP3    H2 3706   6.751   3.840   2.387
 1255TIP3   OH2 3707   3.951   4.598   4.937
 1255TIP3    H1 3708   3.993   4.594   5.023
 1255TIP3    H2 3709   3.992   4.528   4.887
 1256TIP3   OH2 3710   3.087   2.309   4.457
 1256TIP3    H1 3711   3.059   2.357   4.535
 1256TIP3    H2 3712   3.143   2.370   4.409
 1257TIP3   OH2 3713   4.156   3.806   2.372
 1257TIP3    H1 3714   4.214   3.878   2.346
 1257TIP3    H2 3715   4.084   3.810   2.308
 1258TIP3   OH2 3716   0.580   2.956   3.116
 1258TIP3    H1 3717   0.492   2.947   3.081
 1258TIP3    H2 3718   0.587   2.888   3.183
 1259TIP3   OH2 3719   7.932   1.294   0.252
 1259TIP3    H1 3720   7.994   1.260   0.318
 1259TIP3    H2 3721   7.868   1.344   0.303
 1260TIP3   OH2 3722   3.075   2.045   5.781
 1260TIP3    H1 3723   3.143   2.081   5.837
 1260TIP3    H2 3724   3.041   1.969   5.829
 1261TIP3   OH2 3725   5.614   0.745   1.096
 1261TIP3    H1 3726   5.518   0.736   1.097
 1261TIP3    H2 3727   5.639   0.738   1.188
 1262TIP3   OH2 3728   4.237   0.311   5.091
 1262TIP3    H1 3729   4.264   0.230   5.048
 1262TIP3    H2 3730   4.277   0.308   5.178
 1263TIP3   OH2 3731   5.370   0.569   0.784
 1263TIP3    H1 3732   5.319   0.640   0.823
 1263TIP3    H2 3733   5.354   0.577   0.690
 1264TIP3   OH2 3734   4.943   5.471   2.770
 1264TIP3    H1 3735   4.860   5.512   2.747
 1264TIP3    H2 3736   5.006   5.510   2.709
 1265TIP3   OH2 3737   7.922   0.865   3.931
 1265TIP3    H1 3738   7.867   0.893   4.004
 1265TIP3    H2 3739   8.006   0.908   3.946
 1266TIP3   OH2 3740   0.631   0.500   0.736
 1266TIP3    H1 3741   0.654   0.579   0.686
 1266TIP3    H2 3742   0.551   0.468   0.694
 1267TIP3   OH2 3743   5.909   4.037   5.777
 1267TIP3    H1 3744   5.853   4.062   5.851
 1267TIP3    H2 3745   5.997   4.030   5.815
 1268TIP3   OH2 3746   5.410   7.005   3.286
 1268TIP3    H1 3747   5.337   7.023   3.226
 1268TIP3    H2 3748   5.466   6.944   3.237
 1269TIP3   OH2 3749   0.507   4.348   4.990
 1269TIP3    H1 3750   0.489   4.350   5.084
 1269TIP3    H2 3751   0.544   4.434   4.970
 1270TIP3   OH2 3752   3.231   4.089   1.311
 1270TIP3    H1 3753   3.230   4.181   1.336
 1270TIP3    H2 3754   3.145   4.057   1.338
 1271TIP3   OH2 3755   7.619   6.937   4.255
 1271TIP3    H1 3756   7.699   6.908   4.299
 1271TIP3    H2 3757   7.591   7.014   4.305
 1272TIP3   OH2 3758   4.596   0.788   1.252
 1272TIP3    H1 3759   4.564   0.787   1.162
 1272TIP3    H2 3760   4.520   0.763   1.305
 1273TIP3   OH2 3761   0.363   3.025   6.475
 1273TIP3    H1 3762   0.446   3.071   6.467
 1273TIP3    H2 3763   0.327   3.054   6.559
 1274TIP3   OH2 3764   7.966   1.293   2.517
 1274TIP3    H1 3765   7.921   1.251   2.445
 1274TIP3    H2 3766   7.907   1.363   2.546
 1275TIP3   OH2 3767   0.199   0.198   5.426
 1275TIP3    H1 3768   0.124   0.232   5.377
 1275TIP3    H2 3769   0.196   0.104   5.413
 1276TIP3   OH2 3770   5.593   2.724   5.008
 1276TIP3    H1 3771   5.644   2.760   4.935
 1276TIP3    H2 3772   5.509   2.772   5.004
 1277TIP3   OH2 3773   6.686   3.437   4.994
 1277TIP3    H1 3774   6.761   3.451   4.937
 1277TIP3    H2 3775   6.615   3.485   4.953
 1278TIP3   OH2 3776   1.078   1.468   6.214
 1278TIP3    H1 3777   1.164   1.430   6.198
 1278TIP3    H2 3778   1.085   1.557   6.180
 1279TIP3   OH2 3779   0.175   2.045   3.791
 1279TIP3    H1 3780   0.170   1.968   3.734
 1279TIP3    H2 3781   0.264   2.043   3.827
 1280TIP3   OH2 3782   4.178   6.303   2.156
 1280TIP3    H1 3783   4.118   6.279   2.226
 1280TIP3    H2 3784   4.198   6.395   2.171
 1281TIP3   OH2 3785   0.855   6.002   4.998
 1281TIP3    H1 3786   0.898   5.919   5.019
 1281TIP3    H2 3787   0.927   6.064   4.988
 1282TIP3   OH2 3788   6.732   4.881   0.720
 1282TIP3    H1 3789   6.824   4.864   0.736
 1282TIP3    H2 3790   6.720   4.972   0.748
 1283TIP3   OH2 3791   8.170   5.016   3.129
 1283TIP3    H1 3792   8.124   4.932   3.125
 1283TIP3    H2 3793   8.155   5.047   3.218
 1284TIP3   OH2 3794   1.679   1.566   5.461
 1284TIP3    H1 3795   1.645   1.561   5.372
 1284TIP3    H2 3796   1.619   1.626   5.506
 1285TIP3   OH2 3797   6.387   2.762   3.089
 1285TIP3    H1 3798   6.376   2.740   3.182
 1285TIP3    H2 3799   6.377   2.857   3.086
 1286TIP3   OH2 3800   4.885   1.783   1.536
 1286TIP3    H1 3801   4.910   1.727   1.609
 1286TIP3    H2 3802   4.937   1.750   1.462
 1287TIP3   OH2 3803   5.311   6.716  -0.004
 1287TIP3    H1 3804   5.318   6.713   0.091
 1287TIP3    H2 3805   5.226   6.675  -0.024
 1288TIP3   OH2 3806   2.626   7.334   3.728
 1288TIP3    H1 3807   2.649   7.386   3.650
 1288TIP3    H2 3808   2.618   7.245   3.695
 1289TIP3   OH2 3809   3.880   3.520   1.528
 1289TIP3    H1 3810   3.821   3.542   1.455
 1289TIP3    H2 3811   3.953   3.475   1.487
 1290TIP3   OH2 3812   0.160   1.242   6.154
 1290TIP3    H1 3813   0.065   1.233   6.149
 1290TIP3    H2 3814   0.182   1.309   6.089
 1291TIP3   OH2 3815   5.034   1.321   0.171
 1291TIP3    H1 3816   4.955   1.270   0.189
 1291TIP3    H2 3817   5.106   1.260   0.188
 1292TIP3   OH2 3818   5.775   1.572   1.578
 1292TIP3    H1 3819   5.750   1.534   1.662
 1292TIP3    H2 3820   5.702   1.630   1.555
 1293TIP3   OH2 3821   7.718   0.922   2.143
 1293TIP3    H1 3822   7.759   0.962   2.067
 1293TIP3    H2 3823   7.755   0.834   2.147
 1294TIP3   OH2 3824   7.383   2.533   4.895
 1294TIP3    H1 3825   7.385   2.473   4.969
 1294TIP3    H2 3826   7.301   2.513   4.850
 1295TIP3   OH2 3827   1.915   4.733   1.994
 1295TIP3    H1 3828   1.940   4.662   2.054
 1295TIP3    H2 3829   1.986   4.796   2.000
 1296TIP3   OH2 3830   2.474   6.718   1.763
 1296TIP3    H1 3831   2.380   6.704   1.751
 1296TIP3    H2 3832   2.485   6.730   1.857
 1297TIP3   OH2 3833   1.992   6.108   3.332
 1297TIP3    H1 3834   2.027   6.024   3.301
 1297TIP3    H2 3835   2.012   6.170   3.261
 1298TIP3   OH2 3836   1.919   2.954   5.652
 1298TIP3    H1 3837   1.969   2.912   5.722
 1298TIP3    H2 3838   1.912   3.046   5.680
 1299TIP3   OH2 3839   4.186   2.543   4.921
 1299TIP3    H1 3840   4.189   2.494   4.839
 1299TIP3    H2 3841   4.205   2.478   4.989
 1300TIP3   OH2 3842   4.561   1.233   6.560
 1300TIP3    H1 3843   4.615   1.155   6.547
 1300TIP3    H2 3844   4.527   1.225   6.649
 1301TIP3   OH2 3845   0.026   0.062   4.671
 1301TIP3    H1 3846   0.089   0.122   4.712
 1301TIP3    H2 3847  -0.054   0.113   4.661
 1302TIP3   OH2 3848   1.461   5.095   0.473
 1302TIP3    H1 3849   1.465   5.052   0.387
 1302TIP3    H2 3850   1.367   5.097   0.494
 1303TIP3   OH2 3851   0.522   1.268   5.594
 1303TIP3    H1 3852   0.582   1.234   5.527
 1303TIP3    H2 3853   0.462   1.196   5.612
 1304TIP3   OH2 3854   0.346   0.459   2.032
 1304TIP3    H1 3855   0.310   0.548   2.027
 1304TIP3    H2 3856   0.427   0.463   1.980
 1305TIP3   OH2 3857   3.501   0.626   4.801
 1305TIP3    H1 3858   3.423   0.578   4.828
 1305TIP3    H2 3859   3.476   0.719   4.806
 1306TIP3   OH2 3860   3.189   4.582   4.780
 1306TIP3    H1 3861   3.171   4.496   4.742
 1306TIP3    H2 3862   3.271   4.572   4.827
 1307TIP3   OH2 3863   2.539   2.729   0.113
 1307TIP3    H1 3864   2.546   2.796   0.045
 1307TIP3    H2 3865   2.482   2.767   0.180
 1308TIP3   OH2 3866   5.311   0.254   3.374
 1308TIP3    H1 3867   5.398   0.221   3.398
 1308TIP3    H2 3868   5.277   0.190   3.312
 1309TIP3   OH2 3869   6.377   5.551   6.652
 1309TIP3    H1 3870   6.425   5.523   6.730
 1309TIP3    H2 3871   6.333   5.471   6.621
 1310TIP3   OH2 3872   7.938   1.739   4.577
 1310TIP3    H1 3873   7.873   1.674   4.548
 1310TIP3    H2 3874   7.975   1.703   4.656
 1311TIP3   OH2 3875   2.161   2.517   2.899
 1311TIP3    H1 3876   2.188   2.457   2.830
 1311TIP3    H2 3877   2.095   2.468   2.948
 1312TIP3   OH2 3878   3.924   4.742   4.569
 1312TIP3    H1 3879   4.009   4.737   4.611
 1312TIP3    H2 3880   3.943   4.770   4.479
 1313TIP3   OH2 3881   6.821   5.375   3.132
 1313TIP3    H1 3882   6.767   5.307   3.092
 1313TIP3    H2 3883   6.759   5.441   3.161
 1314TIP3   OH2 3884   1.218   6.998   0.194
 1314TIP3    H1 3885   1.152   7.064   0.215
 1314TIP3    H2 3886   1.208   6.982   0.100
 1315TIP3   OH2 3887   1.923   1.984   6.069
 1315TIP3    H1 3888   1.923   1.949   5.980
 1315TIP3    H2 3889   1.952   2.075   6.059
 1316TIP3   OH2 3890   0.883   4.880   5.647
 1316TIP3    H1 3891   0.973   4.908   5.629
 1316TIP3    H2 3892   0.887   4.842   5.735
 1317TIP3   OH2 3893   1.251   1.331   1.966
 1317TIP3    H1 3894   1.345   1.319   1.952
 1317TIP3    H2 3895   1.234   1.289   2.050
 1318TIP3   OH2 3896   7.013   5.283   4.220
 1318TIP3    H1 3897   7.027   5.362   4.272
 1318TIP3    H2 3898   7.080   5.286   4.152
 1319TIP3   OH2 3899   5.374   0.496   4.633
 1319TIP3    H1 3900   5.402   0.553   4.705
 1319TIP3    H2 3901   5.367   0.554   4.557
 1320TIP3   OH2 3902   4.718   7.693   5.317
 1320TIP3    H1 3903   4.772   7.770   5.335
 1320TIP3    H2 3904   4.746   7.664   5.230
 1321TIP3   OH2 3905   2.280   3.558   2.250
 1321TIP3    H1 3906   2.302   3.643   2.211
 1321TIP3    H2 3907   2.329   3.557   2.332
 1322TIP3   OH2 3908   8.140   3.424   2.025
 1322TIP3    H1 3909   8.083   3.362   2.070
 1322TIP3    H2 3910   8.128   3.507   2.072
 1323TIP3   OH2 3911   1.332   6.567   1.935
 1323TIP3    H1 3912   1.325   6.611   2.019
 1323TIP3    H2 3913   1.340   6.638   1.871
 1324TIP3   OH2 3914   5.700   3.405   0.330
 1324TIP3    H1 3915   5.737   3.488   0.301
 1324TIP3    H2 3916   5.737   3.392   0.418
 1325TIP3   OH2 3917   3.875   7.198   3.776
 1325TIP3    H1 3918   3.879   7.129   3.842
 1325TIP3    H2 3919   3.958   7.189   3.728
 1326TIP3   OH2 3920   0.717   5.999   1.953
 1326TIP3    H1 3921   0.808   5.976   1.969
 1326TIP3    H2 3922   0.688   6.040   2.035
 1327TIP3   OH2 3923   3.297   4.221   2.600
 1327TIP3    H1 3924   3.357   4.147   2.592
 1327TIP3    H2 3925   3.342   4.294   2.558
 1328TIP3   OH2 3926   4.627   4.447   6.185
 1328TIP3    H1 3927   4.557   4.481   6.129
 1328TIP3    H2 3928   4.704   4.498   6.160
 1329TIP3   OH2 3929   7.185   6.266   0.676
 1329TIP3    H1 3930   7.096   6.271   0.641
 1329TIP3    H2 3931   7.177   6.297   0.766
 1330TIP3   OH2 3932   3.061   3.375   1.321
 1330TIP3    H1 3933   3.035   3.369   1.413
 1330TIP3    H2 3934   3.113   3.296   1.305
 1331TIP3   OH2 3935   2.581   4.293   2.147
 1331TIP3    H1 3936   2.486   4.285   2.137
 1331TIP3    H2 3937   2.603   4.373   2.100
 1332TIP3   OH2 3938   2.771   7.085   5.368
 1332TIP3    H1 3939   2.838   7.063   5.303
 1332TIP3    H2 3940   2.739   7.000   5.398
 1333TIP3   OH2 3941   4.567   1.578   2.174
 1333TIP3    H1 3942   4.595   1.650   2.118
 1333TIP3    H2 3943   4.647   1.531   2.196
 1334TIP3   OH2 3944   5.772   7.024   0.248
 1334TIP3    H1 3945   5.782   6.953   0.184
 1334TIP3    H2 3946   5.792   7.103   0.199
 1335TIP3   OH2 3947   2.146   1.574   2.422
 1335TIP3    H1 3948   2.171   1.666   2.430
 1335TIP3    H2 3949   2.063   1.575   2.375
 1336TIP3   OH2 3950   0.091   4.231   1.964
 1336TIP3    H1 3951   0.063   4.312   1.922
 1336TIP3    H2 3952   0.178   4.214   1.929
 1337TIP3   OH2 3953   0.301   6.310   5.874
 1337TIP3    H1 3954   0.334   6.234   5.827
 1337TIP3    H2 3955   0.376   6.369   5.879
 1338TIP3   OH2 3956   2.481   0.425   4.613
 1338TIP3    H1 3957   2.448   0.495   4.670
 1338TIP3    H2 3958   2.491   0.467   4.528
 1339TIP3   OH2 3959   5.259   5.718   4.961
 1339TIP3    H1 3960   5.252   5.673   4.877
 1339TIP3    H2 3961   5.279   5.649   5.024
 1340TIP3   OH2 3962   4.509   5.501   5.025
 1340TIP3    H1 3963   4.506   5.575   4.966
 1340TIP3    H2 3964   4.601   5.494   5.051
 1341TIP3   OH2 3965   6.504   5.967   3.902
 1341TIP3    H1 3966   6.418   5.995   3.932
 1341TIP3    H2 3967   6.529   6.033   3.837
 1342TIP3   OH2 3968   6.944   4.582   6.085
 1342TIP3    H1 3969   6.936   4.498   6.038
 1342TIP3    H2 3970   7.001   4.635   6.030
 1343TIP3   OH2 3971   8.266   7.188   6.513
 1343TIP3    H1 3972   8.343   7.245   6.521
 1343TIP3    H2 3973   8.258   7.147   6.599
 1344TIP3   OH2 3974   7.044   0.477   3.521
 1344TIP3    H1 3975   7.094   0.542   3.570
 1344TIP3    H2 3976   7.055   0.396   3.570
 1345TIP3   OH2 3977   5.403   0.400   6.223
 1345TIP3    H1 3978   5.379   0.437   6.138
 1345TIP3    H2 3979   5.406   0.306   6.208
 1346TIP3   OH2 3980   2.768   3.801   2.064
 1346TIP3    H1 3981   2.848   3.829   2.108
 1346TIP3    H2 3982   2.702   3.865   2.090
 1347TIP3   OH2 3983   5.394   1.479   1.846
 1347TIP3    H1 3984   5.342   1.409   1.807
 1347TIP3    H2 3985   5.339   1.557   1.839
 1348TIP3   OH2 3986   1.461   5.504   2.456
 1348TIP3    H1 3987   1.409   5.575   2.493
 1348TIP3    H2 3988   1.451   5.432   2.518
 1349TIP3   OH2 3989   0.163   7.678   4.639
 1349TIP3    H1 3990   0.112   7.744   4.592
 1349TIP3    H2 3991   0.102   7.604   4.649
 1350TIP3   OH2 3992   3.867   4.212   6.039
 1350TIP3    H1 3993   3.871   4.279   6.107
 1350TIP3    H2 3994   3.774   4.210   6.013
 1351TIP3   OH2 3995   7.430   0.407   5.627
 1351TIP3    H1 3996   7.506   0.351   5.645
 1351TIP3    H2 3997   7.464   0.472   5.564
 1352TIP3   OH2 3998   3.608   6.282   5.401
 1352TIP3    H1 3999   3.668   6.354   5.419
 1352TIP3    H2 4000   3.623   6.260   5.309
 1353TIP3   OH2 4001   7.180   6.688   0.390
 1353TIP3    H1 4002   7.250   6.736   0.346
 1353TIP3    H2 4003   7.219   6.605   0.416
 1354TIP3   OH2 4004   0.880   6.965   3.314
 1354TIP3    H1 4005   0.866   6.944   3.406
 1354TIP3    H2 4006   0.909   6.882   3.274
 1355TIP3   OH2 4007   6.063   4.759   5.235
 1355TIP3    H1 4008   5.988   4.818   5.246
 1355TIP3    H2 4009   6.041   4.706   5.158
 1356TIP3   OH2 4010   0.089   6.212   0.822
 1356TIP3    H1 4011   0.132   6.287   0.781
 1356TIP3    H2 4012   0.009   6.248   0.861
 1357TIP3   OH2 4013   1.052   6.178   1.951
 1357TIP3    H1 4014   1.140   6.212   1.967
 1357TIP3    H2 4015   1.030   6.207   1.863
 1358TIP3   OH2 4016   0.569   6.465   1.473
 1358TIP3    H1 4017   0.619   6.527   1.525
 1358TIP3    H2 4018   0.635   6.405   1.437
 1359TIP3   OH2 4019   7.930   5.843   5.727
 1359TIP3    H1 4020   7.954   5.756   5.758
 1359TIP3    H2 4021   8.014   5.888   5.714
 1360TIP3   OH2 4022   1.904   3.443   1.912
 1360TIP3    H1 4023   1.977   3.506   1.906
 1360TIP3    H2 4024   1.833   3.493   1.951
 1361TIP3   OH2 4025   2.094   1.000   6.559
 1361TIP3    H1 4026   2.155   0.927   6.548
 1361TIP3    H2 4027   2.023   0.965   6.612
 1362TIP3   OH2 4028   8.080   6.235   4.486
 1362TIP3    H1 4029   8.007   6.192   4.441
 1362TIP3    H2 4030   8.152   6.233   4.423
 1363TIP3   OH2 4031   3.191   4.055   6.229
 1363TIP3    H1 4032   3.284   4.051   6.250
 1363TIP3    H2 4033   3.187   4.099   6.144
 1364TIP3   OH2 4034   8.103   4.135   4.545
 1364TIP3    H1 4035   8.127   4.043   4.560
 1364TIP3    H2 4036   8.180   4.173   4.503
 1365TIP3   OH2 4037   8.134   2.447   4.033
 1365TIP3    H1 4038   8.203   2.421   3.972
 1365TIP3    H2 4039   8.176   2.509   4.092
 1366TIP3   OH2 4040   4.879   6.211   4.941
 1366TIP3    H1 4041   4.910   6.122   4.957
 1366TIP3    H2 4042   4.810   6.201   4.875
 1367TIP3   OH2 4043   4.355   0.699   6.262
 1367TIP3    H1 4044   4.271   0.732   6.229
 1367TIP3    H2 4045   4.346   0.704   6.357
 1368TIP3   OH2 4046   7.432   1.386   0.200
 1368TIP3    H1 4047   7.389   1.463   0.237
 1368TIP3    H2 4048   7.388   1.372   0.116
 1369TIP3   OH2 4049   7.994   1.113   5.648
 1369TIP3    H1 4050   7.925   1.136   5.711
 1369TIP3    H2 4051   8.062   1.070   5.701
 1370TIP3   OH2 4052   3.363   3.385   3.069
 1370TIP3    H1 4053   3.348   3.296   3.101
 1370TIP3    H2 4054   3.453   3.405   3.093
 1371TIP3   OH2 4055   6.442   7.507   6.568
 1371TIP3    H1 4056   6.469   7.489   6.658
 1371TIP3    H2 4057   6.512   7.561   6.532
 1372TIP3   OH2 4058   2.376   1.113   6.528
 1372TIP3    H1 4059   2.389   1.196   6.481
 1372TIP3    H2 4060   2.367   1.138   6.620
 1373TIP3   OH2 4061   2.978   6.083   0.078
 1373TIP3    H1 4062   3.009   6.165   0.040
 1373TIP3    H2 4063   3.053   6.050   0.128
 1374TIP3   OH2 4064   4.887   5.620   1.128
 1374TIP3    H1 4065   4.833   5.564   1.183
 1374TIP3    H2 4066   4.873   5.588   1.039
 1375TIP3   OH2 4067   0.329   0.814   3.413
 1375TIP3    H1 4068   0.268   0.814   3.338
 1375TIP3    H2 4069   0.324   0.726   3.448
 1376TIP3   OH2 4070   3.254   5.396   3.284
 1376TIP3    H1 4071   3.285   5.307   3.269
 1376TIP3    H2 4072   3.328   5.441   3.325
 1377TIP3   OH2 4073   5.382   5.401   4.890
 1377TIP3    H1 4074   5.342   5.457   4.823
 1377TIP3    H2 4075   5.409   5.322   4.842
 1378TIP3   OH2 4076   6.468   6.289   4.428
 1378TIP3    H1 4077   6.418   6.223   4.476
 1378TIP3    H2 4078   6.510   6.241   4.357
 1379TIP3   OH2 4079   1.521   1.383   2.184
 1379TIP3    H1 4080   1.579   1.356   2.256
 1379TIP3    H2 4081   1.531   1.315   2.118
 1380TIP3   OH2 4082   1.788   1.269   6.658
 1380TIP3    H1 4083   1.742   1.323   6.723
 1380TIP3    H2 4084   1.767   1.310   6.574
 1381TIP3   OH2 4085   5.021   0.341   3.343
 1381TIP3    H1 4086   5.044   0.381   3.259
 1381TIP3    H2 4087   5.090   0.276   3.358
 1382TIP3   OH2 4088   1.796   4.871   0.512
 1382TIP3    H1 4089   1.788   4.966   0.524
 1382TIP3    H2 4090   1.769   4.856   0.422
 1383TIP3   OH2 4091   5.179   0.546   0.367
 1383TIP3    H1 4092   5.098   0.502   0.341
 1383TIP3    H2 4093   5.189   0.617   0.303
 1384TIP3   OH2 4094   2.088   1.851   6.262
 1384TIP3    H1 4095   2.175   1.857   6.224
 1384TIP3    H2 4096   2.028   1.877   6.192
 1385TIP3   OH2 4097   3.388   6.235   2.791
 1385TIP3    H1 4098   3.477   6.270   2.795
 1385TIP3    H2 4099   3.399   6.148   2.751
 1386TIP3   OH2 4100   0.262   0.133   0.794
 1386TIP3    H1 4101   0.187   0.160   0.847
 1386TIP3    H2 4102   0.339   0.156   0.846
 1387TIP3   OH2 4103   0.488   5.173   2.798
 1387TIP3    H1 4104   0.474   5.253   2.849
 1387TIP3    H2 4105   0.513   5.108   2.863
 1388TIP3   OH2 4106   7.693   0.476   2.656
 1388TIP3    H1 4107   7.672   0.430   2.575
 1388TIP3    H2 4108   7.788   0.487   2.654
 1389TIP3   OH2 4109   5.652   6.503   2.890
 1389TIP3    H1 4110   5.588   6.554   2.840
 1389TIP3    H2 4111   5.625   6.513   2.981
 1390TIP3   OH2 4112   1.293   5.125   4.999
 1390TIP3    H1 4113   1.291   5.158   4.909
 1390TIP3    H2 4114   1.296   5.030   4.990
 1391TIP3   OH2 4115   7.169   0.626   2.917
 1391TIP3    H1 4116   7.240   0.630   2.981
 1391TIP3    H2 4117   7.188   0.547   2.866
 1392TIP3   OH2 4118   2.428   0.364   4.172
 1392TIP3    H1 4119   2.338   0.353   4.203
 1392TIP3    H2 4120   2.461   0.274   4.164
 1393TIP3   OH2 4121   1.412   6.370   2.751
 1393TIP3    H1 4122   1.324   6.395   2.780
 1393TIP3    H2 4123   1.397   6.295   2.693
 1394TIP3   OH2 4124   6.471   3.496   6.099
 1394TIP3    H1 4125   6.520   3.432   6.151
 1394TIP3    H2 4126   6.471   3.575   6.152
 1395TIP3   OH2 4127   1.780   7.402   5.717
 1395TIP3    H1 4128   1.755   7.336   5.652
 1395TIP3    H2 4129   1.702   7.456   5.726
 1396TIP3   OH2 4130   2.019   4.899   2.945
 1396TIP3    H1 4131   2.002   4.825   3.003
 1396TIP3    H2 4132   2.077   4.956   2.995
 1397TIP3   OH2 4133   5.543   3.436   0.070
 1397TIP3    H1 4134   5.474   3.470   0.126
 1397TIP3    H2 4135   5.520   3.343   0.058
 1398TIP3   OH2 4136   2.557   2.970   1.730
 1398TIP3    H1 4137   2.639   2.923   1.748
 1398TIP3    H2 4138   2.503   2.953   1.808
 1399TIP3   OH2 4139   1.591   6.370   2.060
 1399TIP3    H1 4140   1.626   6.452   2.028
 1399TIP3    H2 4141   1.668   6.314   2.074
 1400TIP3   OH2 4142   1.301   2.666   5.777
 1400TIP3    H1 4143   1.331   2.727   5.844
 1400TIP3    H2 4144   1.259   2.595   5.825
 1401TIP3   OH2 4145   8.108   0.931   6.678
 1401TIP3    H1 4146   8.069   0.879   6.608
 1401TIP3    H2 4147   8.156   0.868   6.732
 1402TIP3   OH2 4148   3.735   3.275   2.262
 1402TIP3    H1 4149   3.778   3.360   2.247
 1402TIP3    H2 4150   3.684   3.259   2.183
 1403TIP3   OH2 4151   6.927   1.239   1.864
 1403TIP3    H1 4152   6.930   1.154   1.820
 1403TIP3    H2 4153   6.859   1.229   1.931
 1404TIP3   OH2 4154   4.756   2.015   0.889
 1404TIP3    H1 4155   4.808   2.095   0.899
 1404TIP3    H2 4156   4.699   2.015   0.966
 1405TIP3   OH2 4157   3.221   3.353   2.204
 1405TIP3    H1 4158   3.265   3.310   2.276
 1405TIP3    H2 4159   3.197   3.282   2.144
 1406TIP3   OH2 4160   4.547   6.141   6.484
 1406TIP3    H1 4161   4.524   6.051   6.509
 1406TIP3    H2 4162   4.489   6.161   6.411
 1407TIP3   OH2 4163   0.153   5.523   1.401
 1407TIP3    H1 4164   0.201   5.605   1.415
 1407TIP3    H2 4165   0.207   5.473   1.340
 1408TIP3   OH2 4166   4.216   7.807   2.790
 1408TIP3    H1 4167   4.121   7.795   2.790
 1408TIP3    H2 4168   4.251   7.718   2.795
 1409TIP3   OH2 4169   5.000   7.683   6.321
 1409TIP3    H1 4170   5.053   7.610   6.290
 1409TIP3    H2 4171   4.961   7.719   6.242
 1410TIP3   OH2 4172   6.186   2.837   6.674
 1410TIP3    H1 4173   6.203   2.889   6.753
 1410TIP3    H2 4174   6.265   2.849   6.621
 1411TIP3   OH2 4175   6.210   3.695   1.658
 1411TIP3    H1 4176   6.164   3.641   1.594
 1411TIP3    H2 4177   6.214   3.641   1.737
 1412TIP3   OH2 4178   0.851   0.383   0.367
 1412TIP3    H1 4179   0.842   0.291   0.344
 1412TIP3    H2 4180   0.839   0.386   0.462
 1413TIP3   OH2 4181   2.833   1.068   5.908
 1413TIP3    H1 4182   2.904   1.131   5.899
 1413TIP3    H2 4183   2.865   1.005   5.973
 1414TIP3   OH2 4184   0.575   1.015   6.199
 1414TIP3    H1 4185   0.626   1.079   6.150
 1414TIP3    H2 4186   0.488   1.053   6.205
 1415TIP3   OH2 4187   2.205   3.725   5.321
 1415TIP3    H1 4188   2.125   3.695   5.364
 1415TIP3    H2 4189   2.237   3.649   5.273
 1416TIP3   OH2 4190   2.317   1.973   5.827
 1416TIP3    H1 4191   2.249   1.927   5.777
 1416TIP3    H2 4192   2.349   2.041   5.767
 1417TIP3   OH2 4193   4.677   3.231   1.222
 1417TIP3    H1 4194   4.728   3.266   1.295
 1417TIP3    H2 4195   4.607   3.180   1.264
 1418TIP3   OH2 4196   4.598   4.399   1.128
 1418TIP3    H1 4197   4.552   4.458   1.069
 1418TIP3    H2 4198   4.635   4.455   1.196
 1419TIP3   OH2 4199   6.598   3.313   2.811
 1419TIP3    H1 4200   6.626   3.354   2.892
 1419TIP3    H2 4201   6.569   3.386   2.756
 1420TIP3   OH2 4202   7.218   3.552   2.115
 1420TIP3    H1 4203   7.256   3.473   2.153
 1420TIP3    H2 4204   7.220   3.536   2.021
 1421TIP3   OH2 4205   6.806   7.041   5.540
 1421TIP3    H1 4206   6.888   6.994   5.557
 1421TIP3    H2 4207   6.814   7.122   5.590
 1422TIP3   OH2 4208   4.293   6.390   0.457
 1422TIP3    H1 4209   4.291   6.412   0.550
 1422TIP3    H2 4210   4.386   6.388   0.434
 1423TIP3   OH2 4211   4.872   3.281   1.424
 1423TIP3    H1 4212   4.930   3.206   1.437
 1423TIP3    H2 4213   4.929   3.351   1.392
 1424TIP3   OH2 4214   0.203   6.415   4.089
 1424TIP3    H1 4215   0.282   6.449   4.130
 1424TIP3    H2 4216   0.132   6.469   4.126
 1425TIP3   OH2 4217   6.229   6.932   1.654
 1425TIP3    H1 4218   6.238   6.837   1.646
 1425TIP3    H2 4219   6.318   6.965   1.639
 1426TIP3   OH2 4220   0.271   6.412   0.974
 1426TIP3    H1 4221   0.258   6.490   1.029
 1426TIP3    H2 4222   0.235   6.340   1.026
 1427TIP3   OH2 4223   5.438   7.522   2.123
 1427TIP3    H1 4224   5.455   7.459   2.193
 1427TIP3    H2 4225   5.454   7.474   2.042
 1428TIP3   OH2 4226   1.570   3.418   0.444
 1428TIP3    H1 4227   1.625   3.371   0.506
 1428TIP3    H2 4228   1.631   3.447   0.376
 1429TIP3   OH2 4229   0.011   6.788   6.337
 1429TIP3    H1 4230  -0.029   6.766   6.252
 1429TIP3    H2 4231   0.080   6.851   6.315
 1430TIP3   OH2 4232   2.263   3.132   1.523
 1430TIP3    H1 4233   2.313   3.170   1.451
 1430TIP3    H2 4234   2.260   3.202   1.589
 1431TIP3   OH2 4235   2.757   1.659   2.415
 1431TIP3    H1 4236   2.698   1.728   2.383
 1431TIP3    H2 4237   2.712   1.624   2.491
 1432TIP3   OH2 4238   5.608   7.214   2.205
 1432TIP3    H1 4239   5.588   7.144   2.142
 1432TIP3    H2 4240   5.696   7.193   2.236
 1433TIP3   OH2 4241   1.640   1.762   3.989
 1433TIP3    H1 4242   1.623   1.823   3.916
 1433TIP3    H2 4243   1.567   1.777   4.049
 1434TIP3   OH2 4244   4.521   6.318   3.033
 1434TIP3    H1 4245   4.521   6.225   3.056
 1434TIP3    H2 4246   4.439   6.351   3.069
 1435TIP3   OH2 4247   6.448   7.096   1.569
 1435TIP3    H1 4248   6.499   7.141   1.636
 1435TIP3    H2 4249   6.512   7.076   1.500
 1436TIP3   OH2 4250   7.010   4.629   3.272
 1436TIP3    H1 4251   7.089   4.635   3.326
 1436TIP3    H2 4252   6.970   4.546   3.298
 1437TIP3   OH2 4253   5.914   4.767   3.815
 1437TIP3    H1 4254   5.976   4.837   3.795
 1437TIP3    H2 4255   5.968   4.692   3.839
 1438TIP3   OH2 4256   6.597   0.841   4.059
 1438TIP3    H1 4257   6.579   0.900   4.132
 1438TIP3    H2 4258   6.688   0.859   4.035
 1439TIP3   OH2 4259   4.722   0.978   3.729
 1439TIP3    H1 4260   4.744   0.908   3.668
 1439TIP3    H2 4261   4.776   1.052   3.702
 1440TIP3   OH2 4262   5.315   1.977   0.761
 1440TIP3    H1 4263   5.222   1.998   0.774
 1440TIP3    H2 4264   5.317   1.924   0.681
 1441TIP3   OH2 4265   5.003   0.293   1.932
 1441TIP3    H1 4266   4.933   0.359   1.936
 1441TIP3    H2 4267   5.036   0.299   1.842
 1442TIP3   OH2 4268   5.451   4.504   3.281
 1442TIP3    H1 4269   5.432   4.580   3.336
 1442TIP3    H2 4270   5.378   4.500   3.219
 1443TIP3   OH2 4271   4.189   4.439   1.146
 1443TIP3    H1 4272   4.175   4.529   1.116
 1443TIP3    H2 4273   4.141   4.434   1.229
 1444TIP3   OH2 4274   1.772   2.465   0.424
 1444TIP3    H1 4275   1.843   2.401   0.421
 1444TIP3    H2 4276   1.694   2.414   0.445
 1445TIP3   OH2 4277   0.402   2.436   2.232
 1445TIP3    H1 4278   0.406   2.428   2.327
 1445TIP3    H2 4279   0.329   2.379   2.206
 1446TIP3   OH2 4280   4.358   6.517   3.738
 1446TIP3    H1 4281   4.450   6.491   3.743
 1446TIP3    H2 4282   4.360   6.610   3.714
 1447TIP3   OH2 4283   4.771   6.451   1.062
 1447TIP3    H1 4284   4.713   6.498   1.003
 1447TIP3    H2 4285   4.755   6.489   1.148
 1448TIP3   OH2 4286   1.592   0.704   5.426
 1448TIP3    H1 4287   1.677   0.724   5.387
 1448TIP3    H2 4288   1.607   0.624   5.477
 1449TIP3   OH2 4289   1.058   4.095   0.509
 1449TIP3    H1 4290   1.111   4.116   0.585
 1449TIP3    H2 4291   1.121   4.091   0.437
 1450TIP3   OH2 4292   4.641   0.975   6.558
 1450TIP3    H1 4293   4.733   0.962   6.582
 1450TIP3    H2 4294   4.627   0.916   6.484
 1451TIP3   OH2 4295   2.511   6.596   5.733
 1451TIP3    H1 4296   2.582   6.622   5.791
 1451TIP3    H2 4297   2.502   6.501   5.747
 1452TIP3   OH2 4298   2.056   2.974   4.918
 1452TIP3    H1 4299   2.142   3.014   4.930
 1452TIP3    H2 4300   1.995   3.048   4.916
 1453TIP3   OH2 4301   0.075   7.171   4.358
 1453TIP3    H1 4302   0.109   7.154   4.447
 1453TIP3    H2 4303  -0.017   7.147   4.363
 1454TIP3   OH2 4304   7.295   4.840   6.074
 1454TIP3    H1 4305   7.276   4.929   6.046
 1454TIP3    H2 4306   7.215   4.810   6.117
 1455TIP3   OH2 4307   5.426   0.984   4.547
 1455TIP3    H1 4308   5.421   0.964   4.454
 1455TIP3    H2 4309   5.519   0.979   4.568
 1456TIP3   OH2 4310   0.212   2.665   4.791
 1456TIP3    H1 4311   0.181   2.716   4.866
 1456TIP3    H2 4312   0.249   2.730   4.732
 1457TIP3   OH2 4313   8.163   0.955   2.974
 1457TIP3    H1 4314   8.178   0.984   2.884
 1457TIP3    H2 4315   8.246   0.975   3.019
 1458TIP3   OH2 4316   0.050   1.874   6.601
 1458TIP3    H1 4317   0.046   1.794   6.548
 1458TIP3    H2 4318  -0.012   1.933   6.559
 1459TIP3   OH2 4319   0.846   1.812   3.003
 1459TIP3    H1 4320   0.847   1.901   3.038
 1459TIP3    H2 4321   0.882   1.758   3.074
 1460TIP3   OH2 4322   5.678   0.125   3.385
 1460TIP3    H1 4323   5.661   0.120   3.291
 1460TIP3    H2 4324   5.768   0.094   3.396
 1461TIP3   OH2 4325   1.451   6.270   6.766
 1461TIP3    H1 4326   1.466   6.363   6.747
 1461TIP3    H2 4327   1.520   6.248   6.828
 1462TIP3   OH2 4328   4.999   7.624   1.536
 1462TIP3    H1 4329   5.080   7.654   1.577
 1462TIP3    H2 4330   5.020   7.621   1.442
 1463TIP3   OH2 4331   2.718   0.205   0.875
 1463TIP3    H1 4332   2.811   0.220   0.860
 1463TIP3    H2 4333   2.697   0.261   0.951
 1464TIP3   OH2 4334   5.719   7.365   3.491
 1464TIP3    H1 4335   5.727   7.348   3.585
 1464TIP3    H2 4336   5.662   7.295   3.460
 1465TIP3   OH2 4337   2.561   7.172   1.330
 1465TIP3    H1 4338   2.554   7.077   1.337
 1465TIP3    H2 4339   2.524   7.205   1.412
 1466TIP3   OH2 4340   0.946   4.576   2.462
 1466TIP3    H1 4341   0.903   4.517   2.525
 1466TIP3    H2 4342   0.964   4.655   2.512
 1467TIP3   OH2 4343   5.966   2.479   5.151
 1467TIP3    H1 4344   6.021   2.400   5.154
 1467TIP3    H2 4345   5.876   2.445   5.157
 1468TIP3   OH2 4346   4.108   7.187   4.057
 1468TIP3    H1 4347   4.025   7.231   4.037
 1468TIP3    H2 4348   4.095   7.151   4.144
 1469TIP3   OH2 4349   6.042   6.412   0.997
 1469TIP3    H1 4350   6.091   6.330   1.008
 1469TIP3    H2 4351   5.955   6.393   1.032
 1470TIP3   OH2 4352   5.006   4.924   1.365
 1470TIP3    H1 4353   4.977   4.980   1.437
 1470TIP3    H2 4354   4.971   4.966   1.286
 1471TIP3   OH2 4355   0.461   6.017   0.551
 1471TIP3    H1 4356   0.415   6.101   0.558
 1471TIP3    H2 4357   0.482   6.010   0.457
 1472TIP3   OH2 4358   7.661   5.505   2.063
 1472TIP3    H1 4359   7.716   5.462   2.128
 1472TIP3    H2 4360   7.707   5.587   2.042
 1473TIP3   OH2 4361   0.094   2.818   3.513
 1473TIP3    H1 4362   0.060   2.877   3.446
 1473TIP3    H2 4363   0.050   2.845   3.594
 1474TIP3   OH2 4364   4.419   2.198   2.401
 1474TIP3    H1 4365   4.439   2.111   2.365
 1474TIP3    H2 4366   4.362   2.238   2.336
 1475TIP3   OH2 4367   1.121   1.031   3.090
 1475TIP3    H1 4368   1.203   0.985   3.075
 1475TIP3    H2 4369   1.146   1.123   3.096
 1476TIP3   OH2 4370   7.295   4.415   5.853
 1476TIP3    H1 4371   7.368   4.370   5.896
 1476TIP3    H2 4372   7.332   4.497   5.822
 1477TIP3   OH2 4373   3.722   3.598   6.573
 1477TIP3    H1 4374   3.705   3.663   6.641
 1477TIP3    H2 4375   3.798   3.633   6.525
 1478TIP3   OH2 4376   2.299   5.397   6.495
 1478TIP3    H1 4377   2.305   5.418   6.588
 1478TIP3    H2 4378   2.240   5.463   6.459
 1479TIP3   OH2 4379   1.933   2.177   1.252
 1479TIP3    H1 4380   1.951   2.130   1.171
 1479TIP3    H2 4381   1.981   2.128   1.319
 1480TIP3   OH2 4382   1.913   4.187   4.168
 1480TIP3    H1 4383   1.855   4.158   4.238
 1480TIP3    H2 4384   1.898   4.282   4.163
 1481TIP3   OH2 4385   4.669   3.669   1.991
 1481TIP3    H1 4386   4.598   3.613   1.959
 1481TIP3    H2 4387   4.749   3.626   1.962
 1482TIP3   OH2 4388   3.772   6.340   4.821
 1482TIP3    H1 4389   3.712   6.411   4.845
 1482TIP3    H2 4390   3.793   6.298   4.904
 1483TIP3   OH2 4391   2.143   5.887   0.588
 1483TIP3    H1 4392   2.131   5.811   0.532
 1483TIP3    H2 4393   2.104   5.862   0.672
 1484TIP3   OH2 4394   3.243   7.545   4.568
 1484TIP3    H1 4395   3.154   7.546   4.604
 1484TIP3    H2 4396   3.273   7.636   4.578
 1485TIP3   OH2 4397   4.200   1.851   5.637
 1485TIP3    H1 4398   4.186   1.901   5.717
 1485TIP3    H2 4399   4.114   1.846   5.596
 1486TIP3   OH2 4400   0.034   4.168   1.597
 1486TIP3    H1 4401   0.081   4.251   1.598
 1486TIP3    H2 4402   0.086   4.110   1.653
 1487TIP3   OH2 4403   4.394   1.555   2.379
 1487TIP3    H1 4404   4.342   1.636   2.386
 1487TIP3    H2 4405   4.442   1.565   2.297
 1488TIP3   OH2 4406   7.336   1.283   6.541
 1488TIP3    H1 4407   7.346   1.191   6.516
 1488TIP3    H2 4408   7.276   1.319   6.477
 1489TIP3   OH2 4409   3.019   2.078   6.427
 1489TIP3    H1 4410   3.040   2.102   6.337
 1489TIP3    H2 4411   3.103   2.079   6.473
 1490TIP3   OH2 4412   3.568   5.869   5.782
 1490TIP3    H1 4413   3.623   5.794   5.804
 1490TIP3    H2 4414   3.564   5.868   5.686
 1491TIP3   OH2 4415   3.537   1.320   0.901
 1491TIP3    H1 4416   3.502   1.377   0.832
 1491TIP3    H2 4417   3.465   1.262   0.923
 1492TIP3   OH2 4418   4.855   4.345   5.130
 1492TIP3    H1 4419   4.850   4.332   5.035
 1492TIP3    H2 4420   4.949   4.352   5.148
 1493TIP3   OH2 4421   0.326   7.505   5.070
 1493TIP3    H1 4422   0.315   7.410   5.063
 1493TIP3    H2 4423   0.418   7.517   5.091
 1494TIP3   OH2 4424   6.777   2.263   2.100
 1494TIP3    H1 4425   6.809   2.324   2.033
 1494TIP3    H2 4426   6.856   2.234   2.145
 1495TIP3   OH2 4427   8.031   3.719   3.895
 1495TIP3    H1 4428   8.058   3.811   3.886
 1495TIP3    H2 4429   8.078   3.687   3.972
 1496TIP3   OH2 4430   6.311   3.230   1.289
 1496TIP3    H1 4431   6.364   3.223   1.369
 1496TIP3    H2 4432   6.224   3.200   1.316
 1497TIP3   OH2 4433   4.498   7.216   3.344
 1497TIP3    H1 4434   4.520   7.303   3.376
 1497TIP3    H2 4435   4.580   7.167   3.349
 1498TIP3   OH2 4436   5.214   5.078   1.182
 1498TIP3    H1 4437   5.269   5.029   1.120
 1498TIP3    H2 4438   5.124   5.062   1.152
 1499TIP3   OH2 4439   4.346   3.771   4.779
 1499TIP3    H1 4440   4.328   3.678   4.787
 1499TIP3    H2 4441   4.261   3.811   4.761
 1500TIP3   OH2 4442   5.676   2.623   1.466
 1500TIP3    H1 4443   5.739   2.695   1.464
 1500TIP3    H2 4444   5.713   2.558   1.406
 1501TIP3   OH2 4445   6.670   7.484   5.325
 1501TIP3    H1 4446   6.738   7.535   5.281
 1501TIP3    H2 4447   6.717   7.436   5.394
 1502TIP3   OH2 4448   4.787   5.295   2.975
 1502TIP3    H1 4449   4.841   5.315   2.899
 1502TIP3    H2 4450   4.791   5.374   3.029
 1503TIP3   OH2 4451   1.444   6.929   0.497
 1503TIP3    H1 4452   1.502   6.871   0.547
 1503TIP3    H2 4453   1.501   6.999   0.466
 1504TIP3   OH2 4454   5.102   0.628   0.605
 1504TIP3    H1 4455   5.139   0.577   0.533
 1504TIP3    H2 4456   5.078   0.563   0.670
 1505TIP3   OH2 4457   5.457   4.615   6.559
 1505TIP3    H1 4458   5.410   4.623   6.642
 1505TIP3    H2 4459   5.423   4.534   6.520
 1506TIP3   OH2 4460   2.713   2.772   4.702
 1506TIP3    H1 4461   2.714   2.735   4.790
 1506TIP3    H2 4462   2.701   2.866   4.714
 1507TIP3   OH2 4463   1.648   4.117   0.201
 1507TIP3    H1 4464   1.674   4.179   0.269
 1507TIP3    H2 4465   1.659   4.031   0.242
 1508TIP3   OH2 4466   2.658   3.477   6.329
 1508TIP3    H1 4467   2.673   3.384   6.343
 1508TIP3    H2 4468   2.729   3.520   6.376
 1509TIP3   OH2 4469   1.849   5.520   0.638
 1509TIP3    H1 4470   1.798   5.508   0.717
 1509TIP3    H2 4471   1.837   5.439   0.588
 1510TIP3   OH2 4472   7.906   2.793   3.480
 1510TIP3    H1 4473   7.878   2.711   3.440
 1510TIP3    H2 4474   7.937   2.769   3.567
 1511TIP3   OH2 4475   6.375   6.977   4.732
 1511TIP3    H1 4476   6.444   7.023   4.684
 1511TIP3    H2 4477   6.319   7.046   4.767
 1512TIP3   OH2 4478   8.189   3.641   1.025
 1512TIP3    H1 4479   8.212   3.553   0.996
 1512TIP3    H2 4480   8.098   3.653   0.997
 1513TIP3   OH2 4481   8.040   5.057   2.758
 1513TIP3    H1 4482   8.041   4.981   2.701
 1513TIP3    H2 4483   7.949   5.067   2.784
 1514TIP3   OH2 4484   0.258   6.648   3.324
 1514TIP3    H1 4485   0.322   6.627   3.256
 1514TIP3    H2 4486   0.261   6.743   3.332
 1515TIP3   OH2 4487   3.647   3.523   5.419
 1515TIP3    H1 4488   3.708   3.591   5.447
 1515TIP3    H2 4489   3.693   3.441   5.439
 1516TIP3   OH2 4490   2.224   7.802   5.506
 1516TIP3    H1 4491   2.186   7.763   5.585
 1516TIP3    H2 4492   2.191   7.748   5.434
 1517TIP3   OH2 4493   7.711   4.973   3.750
 1517TIP3    H1 4494   7.788   4.931   3.790
 1517TIP3    H2 4495   7.652   4.989   3.824
 1518TIP3   OH2 4496   2.815   1.015   4.352
 1518TIP3    H1 4497   2.825   1.111   4.351
 1518TIP3    H2 4498   2.867   0.987   4.427
 1519TIP3   OH2 4499   0.832   4.060   5.949
 1519TIP3    H1 4500   0.812   4.152   5.930
 1519TIP3    H2 4501   0.858   4.024   5.864
 1520TIP3   OH2 4502   2.046   3.923   4.788
 1520TIP3    H1 4503   2.089   3.884   4.864
 1520TIP3    H2 4504   2.026   4.012   4.815
 1521TIP3   OH2 4505   2.917   3.050   4.860
 1521TIP3    H1 4506   2.855   3.073   4.929
 1521TIP3    H2 4507   3.003   3.068   4.899
 1522TIP3   OH2 4508   5.118   3.461   0.481
 1522TIP3    H1 4509   5.213   3.454   0.492
 1522TIP3    H2 4510   5.081   3.421   0.560
 1523TIP3   OH2 4511   4.454   5.132   3.616
 1523TIP3    H1 4512   4.404   5.182   3.551
 1523TIP3    H2 4513   4.513   5.197   3.655
 1524TIP3   OH2 4514   6.399   0.518   6.687
 1524TIP3    H1 4515   6.319   0.566   6.707
 1524TIP3    H2 4516   6.432   0.559   6.607
 1525TIP3   OH2 4517   2.031   7.190   1.205
 1525TIP3    H1 4518   2.025   7.278   1.241
 1525TIP3    H2 4519   2.099   7.147   1.258
 1526TIP3   OH2 4520   5.630   5.485   0.282
 1526TIP3    H1 4521   5.549   5.500   0.234
 1526TIP3    H2 4522   5.696   5.475   0.213
 1527TIP3   OH2 4523   3.295   4.323   0.289
 1527TIP3    H1 4524   3.278   4.254   0.353
 1527TIP3    H2 4525   3.316   4.400   0.342
 1528TIP3   OH2 4526   7.338   2.241   6.232
 1528TIP3    H1 4527   7.422   2.201   6.209
 1528TIP3    H2 4528   7.347   2.333   6.206
 1529TIP3   OH2 4529   3.883   6.839   1.456
 1529TIP3    H1 4530   3.970   6.800   1.459
 1529TIP3    H2 4531   3.893   6.915   1.400
 1530TIP3   OH2 4532   2.349   6.713   6.626
 1530TIP3    H1 4533   2.439   6.706   6.658
 1530TIP3    H2 4534   2.295   6.691   6.702
 1531TIP3   OH2 4535   2.419   2.218   0.073
 1531TIP3    H1 4536   2.469   2.157   0.127
 1531TIP3    H2 4537   2.418   2.299   0.125
 1532TIP3   OH2 4538   4.651   3.488   4.753
 1532TIP3    H1 4539   4.621   3.533   4.674
 1532TIP3    H2 4540   4.659   3.396   4.727
 1533TIP3   OH2 4541   2.740   3.213   2.911
 1533TIP3    H1 4542   2.667   3.230   2.971
 1533TIP3    H2 4543   2.698   3.183   2.831
 1534TIP3   OH2 4544   0.770   7.156   5.322
 1534TIP3    H1 4545   0.703   7.164   5.390
 1534TIP3    H2 4546   0.834   7.094   5.358
 1535TIP3   OH2 4547   1.818   2.877   0.950
 1535TIP3    H1 4548   1.908   2.846   0.963
 1535TIP3    H2 4549   1.775   2.806   0.903
 1536TIP3   OH2 4550   4.255   5.770   6.058
 1536TIP3    H1 4551   4.286   5.802   6.143
 1536TIP3    H2 4552   4.321   5.706   6.031
 1537TIP3   OH2 4553   5.812   4.250   4.866
 1537TIP3    H1 4554   5.848   4.221   4.782
 1537TIP3    H2 4555   5.853   4.335   4.882
 1538TIP3   OH2 4556   3.606   4.937   5.686
 1538TIP3    H1 4557   3.585   4.902   5.772
 1538TIP3    H2 4558   3.655   4.868   5.642
 1539TIP3   OH2 4559   2.935   4.873   4.979
 1539TIP3    H1 4560   3.029   4.874   4.961
 1539TIP3    H2 4561   2.917   4.784   5.009
 1540TIP3   OH2 4562   1.708   4.835   4.885
 1540TIP3    H1 4563   1.662   4.759   4.921
 1540TIP3    H2 4564   1.677   4.908   4.938
 1541TIP3   OH2 4565   6.314   3.946   2.220
 1541TIP3    H1 4566   6.364   4.017   2.179
 1541TIP3    H2 4567   6.307   3.971   2.312
 1542TIP3   OH2 4568   2.173   3.972   2.967
 1542TIP3    H1 4569   2.119   3.902   3.003
 1542TIP3    H2 4570   2.263   3.941   2.978
 1543TIP3   OH2 4571   1.129   4.906   0.366
 1543TIP3    H1 4572   1.096   4.936   0.451
 1543TIP3    H2 4573   1.093   4.970   0.303
 1544TIP3   OH2 4574   0.328   6.689   1.941
 1544TIP3    H1 4575   0.324   6.608   1.992
 1544TIP3    H2 4576   0.326   6.759   2.007
 1545TIP3   OH2 4577   4.562   6.056   4.087
 1545TIP3    H1 4578   4.552   6.144   4.053
 1545TIP3    H2 4579   4.522   6.059   4.174
 1546TIP3   OH2 4580   6.088   7.103   2.909
 1546TIP3    H1 4581   6.151   7.174   2.894
 1546TIP3    H2 4582   6.141   7.031   2.943
 1547TIP3   OH2 4583   0.799   6.857   1.141
 1547TIP3    H1 4584   0.802   6.764   1.164
 1547TIP3    H2 4585   0.781   6.857   1.047
 1548TIP3   OH2 4586   0.309   4.424   4.625
 1548TIP3    H1 4587   0.242   4.489   4.646
 1548TIP3    H2 4588   0.334   4.443   4.535
 1549TIP3   OH2 4589   4.357   3.504   0.492
 1549TIP3    H1 4590   4.315   3.474   0.572
 1549TIP3    H2 4591   4.382   3.424   0.446
 1550TIP3   OH2 4592   6.992   1.473   3.576
 1550TIP3    H1 4593   6.914   1.519   3.546
 1550TIP3    H2 4594   6.991   1.481   3.671
 1551TIP3   OH2 4595   3.537   2.118   3.787
 1551TIP3    H1 4596   3.494   2.075   3.712
 1551TIP3    H2 4597   3.593   2.050   3.825
 1552TIP3   OH2 4598   2.719   1.773   6.721
 1552TIP3    H1 4599   2.799   1.811   6.684
 1552TIP3    H2 4600   2.655   1.779   6.650
 1553TIP3   OH2 4601   8.178   7.165   2.959
 1553TIP3    H1 4602   8.118   7.212   3.018
 1553TIP3    H2 4603   8.121   7.130   2.891
 1554TIP3   OH2 4604   1.374   6.178   4.037
 1554TIP3    H1 4605   1.406   6.149   4.122
 1554TIP3    H2 4606   1.428   6.131   3.973
 1555TIP3   OH2 4607   2.387   6.855   1.006
 1555TIP3    H1 4608   2.374   6.769   1.045
 1555TIP3    H2 4609   2.322   6.860   0.935
 1556TIP3   OH2 4610   5.046   6.271   0.101
 1556TIP3    H1 4611   5.079   6.241   0.186
 1556TIP3    H2 4612   5.089   6.355   0.087
 1557TIP3   OH2 4613   6.857   6.380   5.288
 1557TIP3    H1 4614   6.795   6.362   5.360
 1557TIP3    H2 4615   6.941   6.391   5.332
 1558TIP3   OH2 4616   2.562   6.983   5.102
 1558TIP3    H1 4617   2.630   6.954   5.040
 1558TIP3    H2 4618   2.511   6.904   5.120
 1559TIP3   OH2 4619   8.268   1.098   0.046
 1559TIP3    H1 4620   8.209   1.172   0.028
 1559TIP3    H2 4621   8.247   1.034  -0.021
 1560TIP3   OH2 4622   5.653   6.579   5.367
 1560TIP3    H1 4623   5.576   6.629   5.342
 1560TIP3    H2 4624   5.650   6.500   5.313
 1561TIP3   OH2 4625   3.129   6.614   2.660
 1561TIP3    H1 4626   3.114   6.643   2.570
 1561TIP3    H2 4627   3.169   6.528   2.651
 1562TIP3   OH2 4628   4.555   0.454   2.437
 1562TIP3    H1 4629   4.566   0.372   2.485
 1562TIP3    H2 4630   4.524   0.428   2.350
 1563TIP3   OH2 4631   4.103   5.242   5.172
 1563TIP3    H1 4632   4.144   5.186   5.238
 1563TIP3    H2 4633   4.088   5.325   5.218
 1564TIP3   OH2 4634   4.573   2.740   3.485
 1564TIP3    H1 4635   4.478   2.751   3.492
 1564TIP3    H2 4636   4.609   2.819   3.524
 1565TIP3   OH2 4637   0.654   0.139   2.331
 1565TIP3    H1 4638   0.613   0.189   2.260
 1565TIP3    H2 4639   0.645   0.048   2.304
 1566TIP3   OH2 4640   4.439   3.556   5.896
 1566TIP3    H1 4641   4.510   3.501   5.861
 1566TIP3    H2 4642   4.368   3.495   5.915
 1567TIP3   OH2 4643   1.701   2.700   6.719
 1567TIP3    H1 4644   1.752   2.777   6.742
 1567TIP3    H2 4645   1.643   2.686   6.793
 1568TIP3   OH2 4646   1.991   7.639   0.171
 1568TIP3    H1 4647   2.001   7.621   0.265
 1568TIP3    H2 4648   1.952   7.726   0.168
 1569TIP3   OH2 4649   4.869   4.542   6.084
 1569TIP3    H1 4650   4.903   4.452   6.090
 1569TIP3    H2 4651   4.944   4.597   6.106
 1570TIP3   OH2 4652   6.816   4.985   2.911
 1570TIP3    H1 4653   6.826   5.063   2.856
 1570TIP3    H2 4654   6.906   4.956   2.927
 1571TIP3   OH2 4655   5.521   6.090   2.608
 1571TIP3    H1 4656   5.598   6.076   2.554
 1571TIP3    H2 4657   5.550   6.150   2.677
 1572TIP3   OH2 4658   6.584   0.940   1.625
 1572TIP3    H1 4659   6.609   1.008   1.561
 1572TIP3    H2 4660   6.498   0.910   1.595
 1573TIP3   OH2 4661   6.651   6.909   2.470
 1573TIP3    H1 4662   6.636   6.991   2.422
 1573TIP3    H2 4663   6.594   6.846   2.428
 1574TIP3   OH2 4664   0.887   0.508   4.747
 1574TIP3    H1 4665   0.932   0.535   4.827
 1574TIP3    H2 4666   0.940   0.544   4.676
 1575TIP3   OH2 4667   1.631   5.311   5.067
 1575TIP3    H1 4668   1.653   5.277   5.154
 1575TIP3    H2 4669   1.688   5.387   5.056
 1576TIP3   OH2 4670   5.905   0.380   2.599
 1576TIP3    H1 4671   5.992   0.421   2.602
 1576TIP3    H2 4672   5.922   0.286   2.604
 1577TIP3   OH2 4673   2.651   5.067   6.276
 1577TIP3    H1 4674   2.736   5.107   6.297
 1577TIP3    H2 4675   2.591   5.101   6.342
 1578TIP3   OH2 4676   2.937   3.641   1.725
 1578TIP3    H1 4677   2.927   3.643   1.630
 1578TIP3    H2 4678   2.950   3.732   1.750
 1579TIP3   OH2 4679   5.106   3.037   5.320
 1579TIP3    H1 4680   5.063   3.121   5.331
 1579TIP3    H2 4681   5.035   2.974   5.308
 1580TIP3   OH2 4682   8.231   6.861   1.586
 1580TIP3    H1 4683   8.298   6.919   1.550
 1580TIP3    H2 4684   8.158   6.868   1.525
 1581TIP3   OH2 4685   5.924   5.576   5.462
 1581TIP3    H1 4686   6.012   5.594   5.495
 1581TIP3    H2 4687   5.923   5.616   5.375
 1582TIP3   OH2 4688   8.245   6.376   6.132
 1582TIP3    H1 4689   8.236   6.438   6.060
 1582TIP3    H2 4690   8.240   6.289   6.091
 1583TIP3   OH2 4691   4.642   0.652   6.462
 1583TIP3    H1 4692   4.661   0.720   6.398
 1583TIP3    H2 4693   4.726   0.610   6.480
 1584TIP3   OH2 4694   4.116   5.142   0.365
 1584TIP3    H1 4695   4.171   5.086   0.309
 1584TIP3    H2 4696   4.105   5.222   0.313
 1585TIP3   OH2 4697   5.803   1.537   3.990
 1585TIP3    H1 4698   5.726   1.496   3.948
 1585TIP3    H2 4699   5.766   1.608   4.043
 1586TIP3   OH2 4700   5.193   7.027   2.723
 1586TIP3    H1 4701   5.192   6.995   2.633
 1586TIP3    H2 4702   5.102   7.019   2.752
 1587TIP3   OH2 4703   1.418   7.741   2.928
 1587TIP3    H1 4704   1.343   7.796   2.949
 1587TIP3    H2 4705   1.380   7.654   2.912
 1588TIP3   OH2 4706   2.225   3.589   2.809
 1588TIP3    H1 4707   2.214   3.569   2.902
 1588TIP3    H2 4708   2.320   3.588   2.795
 1589TIP3   OH2 4709   0.821   3.937   2.922
 1589TIP3    H1 4710   0.821   4.031   2.939
 1589TIP3    H2 4711   0.746   3.924   2.863
 1590TIP3   OH2 4712   3.068   5.929   3.245
 1590TIP3    H1 4713   3.080   5.836   3.225
 1590TIP3    H2 4714   2.985   5.932   3.292
 1591TIP3   OH2 4715   0.482   4.412   1.662
 1591TIP3    H1 4716   0.452   4.500   1.641
 1591TIP3    H2 4717   0.577   4.421   1.674
 1592TIP3   OH2 4718   0.202   3.971   3.931
 1592TIP3    H1 4719   0.172   3.884   3.954
 1592TIP3    H2 4720   0.137   4.030   3.970
 1593TIP3   OH2 4721   0.397   7.212   5.011
 1593TIP3    H1 4722   0.488   7.195   5.034
 1593TIP3    H2 4723   0.391   7.192   4.918
 1594TIP3   OH2 4724   7.361   1.013   4.708
 1594TIP3    H1 4725   7.424   1.025   4.636
 1594TIP3    H2 4726   7.316   1.098   4.714
 1595TIP3   OH2 4727   7.240   5.098   4.975
 1595TIP3    H1 4728   7.212   5.151   4.900
 1595TIP3    H2 4729   7.179   5.024   4.976
 1596TIP3   OH2 4730   7.625   2.564   1.711
 1596TIP3    H1 4731   7.564   2.617   1.762
 1596TIP3    H2 4732   7.689   2.532   1.774
 1597TIP3   OH2 4733   7.602   4.468   2.797
 1597TIP3    H1 4734   7.617   4.399   2.861
 1597TIP3    H2 4735   7.561   4.423   2.723
 1598TIP3   OH2 4736   7.221   6.080   2.197
 1598TIP3    H1 4737   7.190   6.012   2.136
 1598TIP3    H2 4738   7.156   6.149   2.192
 1599TIP3   OH2 4739   1.661   7.683   1.761
 1599TIP3    H1 4740   1.657   7.613   1.826
 1599TIP3    H2 4741   1.576   7.680   1.717
 1600TIP3   OH2 4742   7.058   0.162   3.528
 1600TIP3    H1 4743   7.099   0.107   3.595
 1600TIP3    H2 4744   7.125   0.173   3.460
 1601TIP3   OH2 4745   2.685   4.119   6.281
 1601TIP3    H1 4746   2.738   4.135   6.203
 1601TIP3    H2 4747   2.635   4.040   6.261
 1602TIP3   OH2 4748   4.791   4.018   5.702
 1602TIP3    H1 4749   4.844   4.043   5.626
 1602TIP3    H2 4750   4.854   4.001   5.771
 1603TIP3   OH2 4751   4.252   0.648   1.242
 1603TIP3    H1 4752   4.339   0.612   1.227
 1603TIP3    H2 4753   4.260   0.699   1.322
 1604TIP3   OH2 4754   7.697   6.032   3.302
 1604TIP3    H1 4755   7.687   5.944   3.338
 1604TIP3    H2 4756   7.785   6.059   3.328
 1605TIP3   OH2 4757   2.393   4.550   3.706
 1605TIP3    H1 4758   2.391   4.469   3.758
 1605TIP3    H2 4759   2.486   4.572   3.699
 1606TIP3   OH2 4760   2.324   5.919   2.355
 1606TIP3    H1 4761   2.372   5.977   2.414
 1606TIP3    H2 4762   2.327   5.833   2.398
 1607TIP3   OH2 4763   0.222   0.573   1.084
 1607TIP3    H1 4764   0.248   0.481   1.088
 1607TIP3    H2 4765   0.237   0.606   1.173
 1608TIP3   OH2 4766   7.216   0.803   0.744
 1608TIP3    H1 4767   7.192   0.713   0.767
 1608TIP3    H2 4768   7.248   0.797   0.654
 1609TIP3   OH2 4769   3.057   5.956   3.683
 1609TIP3    H1 4770   3.131   5.968   3.624
 1609TIP3    H2 4771   3.033   6.045   3.710
 1610TIP3   OH2 4772   4.565   2.910   4.520
 1610TIP3    H1 4773   4.589   2.858   4.444
 1610TIP3    H2 4774   4.636   2.896   4.583
 1611TIP3   OH2 4775   0.159   3.837   3.282
 1611TIP3    H1 4776   0.131   3.771   3.346
 1611TIP3    H2 4777   0.115   3.812   3.201
 1612TIP3   OH2 4778   8.162   5.760   4.704
 1612TIP3    H1 4779   8.247   5.754   4.749
 1612TIP3    H2 4780   8.105   5.701   4.753
 1613TIP3   OH2 4781   3.044   0.564   1.775
 1613TIP3    H1 4782   3.015   0.598   1.690
 1613TIP3    H2 4783   2.969   0.517   1.809
 1614TIP3   OH2 4784   0.227   4.191   0.648
 1614TIP3    H1 4785   0.296   4.125   0.651
 1614TIP3    H2 4786   0.207   4.209   0.740
 1615TIP3   OH2 4787   5.352   1.690   1.115
 1615TIP3    H1 4788   5.363   1.600   1.146
 1615TIP3    H2 4789   5.278   1.686   1.054
 1616TIP3   OH2 4790   1.466   7.228   2.657
 1616TIP3    H1 4791   1.383   7.206   2.700
 1616TIP3    H2 4792   1.533   7.184   2.710
 1617TIP3   OH2 4793   6.118   3.316   1.065
 1617TIP3    H1 4794   6.101   3.226   1.095
 1617TIP3    H2 4795   6.184   3.306   0.997
 1618TIP3   OH2 4796   7.130   2.816   0.470
 1618TIP3    H1 4797   7.204   2.871   0.446
 1618TIP3    H2 4798   7.156   2.777   0.554
 1619TIP3   OH2 4799   6.438   5.297   4.393
 1619TIP3    H1 4800   6.503   5.354   4.433
 1619TIP3    H2 4801   6.383   5.355   4.340
 1620TIP3   OH2 4802   2.106   5.056   0.316
 1620TIP3    H1 4803   2.058   5.018   0.390
 1620TIP3    H2 4804   2.062   5.020   0.238
 1621TIP3   OH2 4805   7.333   4.423   5.581
 1621TIP3    H1 4806   7.375   4.351   5.533
 1621TIP3    H2 4807   7.311   4.385   5.666
 1622TIP3   OH2 4808   0.419   1.737   2.728
 1622TIP3    H1 4809   0.424   1.686   2.647
 1622TIP3    H2 4810   0.510   1.742   2.758
 1623TIP3   OH2 4811   0.231   3.229   5.282
 1623TIP3    H1 4812   0.301   3.292   5.299
 1623TIP3    H2 4813   0.273   3.143   5.289
 1624TIP3   OH2 4814   7.528   2.411   4.083
 1624TIP3    H1 4815   7.569   2.419   4.169
 1624TIP3    H2 4816   7.590   2.451   4.023
 1625TIP3   OH2 4817   0.720   6.212   0.911
 1625TIP3    H1 4818   0.760   6.193   0.996
 1625TIP3    H2 4819   0.672   6.293   0.925
 1626TIP3   OH2 4820   1.277   5.248   4.170
 1626TIP3    H1 4821   1.360   5.253   4.218
 1626TIP3    H2 4822   1.282   5.318   4.105
 1627TIP3   OH2 4823   5.665   1.799   5.932
 1627TIP3    H1 4824   5.644   1.804   6.026
 1627TIP3    H2 4825   5.588   1.834   5.888
 1628TIP3   OH2 4826   2.831   2.601   3.498
 1628TIP3    H1 4827   2.853   2.657   3.572
 1628TIP3    H2 4828   2.809   2.517   3.537
 1629TIP3   OH2 4829   1.202   2.633   2.920
 1629TIP3    H1 4830   1.196   2.673   2.833
 1629TIP3    H2 4831   1.120   2.657   2.963
 1630TIP3   OH2 4832   3.690   2.802   0.395
 1630TIP3    H1 4833   3.611   2.748   0.398
 1630TIP3    H2 4834   3.668   2.879   0.447
 1631TIP3   OH2 4835   0.947   1.461   1.558
 1631TIP3    H1 4836   0.940   1.525   1.486
 1631TIP3    H2 4837   1.031   1.418   1.543
 1632TIP3   OH2 4838   2.481   6.079   5.897
 1632TIP3    H1 4839   2.533   6.046   5.823
 1632TIP3    H2 4840   2.531   6.053   5.975
 1633TIP3   OH2 4841   0.693   4.481   6.709
 1633TIP3    H1 4842   0.664   4.463   6.619
 1633TIP3    H2 4843   0.696   4.576   6.714
 1634TIP3   OH2 4844   0.154   7.179   3.077
 1634TIP3    H1 4845   0.072   7.161   3.031
 1634TIP3    H2 4846   0.194   7.094   3.091
 1635TIP3   OH2 4847   3.402   3.289   0.975
 1635TIP3    H1 4848   3.311   3.315   0.993
 1635TIP3    H2 4849   3.429   3.345   0.903
 1636TIP3   OH2 4850   3.358   2.966   4.026
 1636TIP3    H1 4851   3.444   3.008   4.024
 1636TIP3    H2 4852   3.315   3.001   4.104
 1637TIP3   OH2 4853   2.457   6.406   4.162
 1637TIP3    H1 4854   2.547   6.388   4.188
 1637TIP3    H2 4855   2.444   6.498   4.184
 1638TIP3   OH2 4856   2.380   3.100   1.969
 1638TIP3    H1 4857   2.377   3.195   1.957
 1638TIP3    H2 4858   2.293   3.070   1.945
 1639TIP3   OH2 4859   6.209   4.369   6.420
 1639TIP3    H1 4860   6.253   4.303   6.367
 1639TIP3    H2 4861   6.116   4.359   6.398
 1640TIP3   OH2 4862   0.610   2.091   4.803
 1640TIP3    H1 4863   0.613   2.030   4.729
 1640TIP3    H2 4864   0.694   2.136   4.800
 1641TIP3   OH2 4865   4.551   1.698   4.387
 1641TIP3    H1 4866   4.605   1.681   4.310
 1641TIP3    H2 4867   4.612   1.699   4.460
 1642TIP3   OH2 4868   5.026   7.465   5.103
 1642TIP3    H1 4869   5.121   7.459   5.106
 1642TIP3    H2 4870   4.998   7.463   5.195
 1643TIP3   OH2 4871   3.216   3.897   2.482
 1643TIP3    H1 4872   3.196   3.803   2.491
 1643TIP3    H2 4873   3.268   3.902   2.402
 1644TIP3   OH2 4874   5.252   6.306   4.640
 1644TIP3    H1 4875   5.335   6.265   4.615
 1644TIP3    H2 4876   5.238   6.278   4.730
 1645TIP3   OH2 4877   2.168   2.037   3.956
 1645TIP3    H1 4878   2.240   2.082   4.001
 1645TIP3    H2 4879   2.197   1.946   3.951
 1646TIP3   OH2 4880   6.968   1.109   3.737
 1646TIP3    H1 4881   6.996   1.019   3.725
 1646TIP3    H2 4882   6.976   1.149   3.650
 1647TIP3   OH2 4883   7.107   0.877   2.284
 1647TIP3    H1 4884   7.182   0.841   2.332
 1647TIP3    H2 4885   7.083   0.955   2.334
 1648TIP3   OH2 4886   7.931   6.786   3.320
 1648TIP3    H1 4887   7.947   6.761   3.411
 1648TIP3    H2 4888   7.998   6.852   3.302
 1649TIP3   OH2 4889   7.104   3.901   0.757
 1649TIP3    H1 4890   7.140   3.971   0.811
 1649TIP3    H2 4891   7.075   3.945   0.676
 1650TIP3   OH2 4892   4.363   1.782   0.661
 1650TIP3    H1 4893   4.342   1.875   0.673
 1650TIP3    H2 4894   4.420   1.761   0.735
 1651TIP3   OH2 4895   6.097   7.310   3.271
 1651TIP3    H1 4896   6.005   7.310   3.297
 1651TIP3    H2 4897   6.123   7.218   3.276
 1652TIP3   OH2 4898   0.088   4.536   5.917
 1652TIP3    H1 4899   0.100   4.530   6.012
 1652TIP3    H2 4900   0.047   4.453   5.893
 1653TIP3   OH2 4901   6.967   3.162   2.175
 1653TIP3    H1 4902   7.063   3.167   2.169
 1653TIP3    H2 4903   6.951   3.113   2.256
 1654TIP3   OH2 4904   4.324   6.405   4.957
 1654TIP3    H1 4905   4.239   6.420   4.999
 1654TIP3    H2 4906   4.313   6.320   4.914
 1655TIP3   OH2 4907   7.938   6.062   4.342
 1655TIP3    H1 4908   7.952   5.976   4.381
 1655TIP3    H2 4909   7.843   6.074   4.343
 1656TIP3   OH2 4910   6.696   5.157   0.781
 1656TIP3    H1 4911   6.619   5.211   0.799
 1656TIP3    H2 4912   6.769   5.207   0.816
 1657TIP3   OH2 4913   3.050   4.539   2.110
 1657TIP3    H1 4914   3.069   4.451   2.144
 1657TIP3    H2 4915   3.101   4.545   2.030
 1658TIP3   OH2 4916   7.559   6.664   5.845
 1658TIP3    H1 4917   7.627   6.616   5.892
 1658TIP3    H2 4918   7.482   6.656   5.901
 1659TIP3   OH2 4919   7.482   5.699   5.464
 1659TIP3    H1 4920   7.455   5.697   5.555
 1659TIP3    H2 4921   7.438   5.776   5.428
 1660TIP3   OH2 4922   7.341   4.223   3.371
 1660TIP3    H1 4923   7.282   4.166   3.419
 1660TIP3    H2 4924   7.400   4.163   3.324
 1661TIP3   OH2 4925   2.402   1.282   4.745
 1661TIP3    H1 4926   2.359   1.209   4.701
 1661TIP3    H2 4927   2.446   1.329   4.674
 1662TIP3   OH2 4928   6.697   5.902   2.012
 1662TIP3    H1 4929   6.661   5.978   2.058
 1662TIP3    H2 4930   6.782   5.930   1.981
 1663TIP3   OH2 4931   4.225   4.286   5.438
 1663TIP3    H1 4932   4.233   4.248   5.525
 1663TIP3    H2 4933   4.196   4.375   5.453
 1664TIP3   OH2 4934   2.563   4.292   6.695
 1664TIP3    H1 4935   2.533   4.224   6.635
 1664TIP3    H2 4936   2.656   4.274   6.708
 1665TIP3   OH2 4937   1.413   5.449   4.697
 1665TIP3    H1 4938   1.345   5.497   4.744
 1665TIP3    H2 4939   1.365   5.383   4.646
 1666TIP3   OH2 4940   2.005   5.304   1.384
 1666TIP3    H1 4941   2.067   5.268   1.447
 1666TIP3    H2 4942   1.925   5.318   1.434
 1667TIP3   OH2 4943   5.384   2.047   6.206
 1667TIP3    H1 4944   5.374   2.084   6.294
 1667TIP3    H2 4945   5.423   2.117   6.155
 1668TIP3   OH2 4946   3.818   7.793   3.068
 1668TIP3    H1 4947   3.725   7.772   3.060
 1668TIP3    H2 4948   3.845   7.818   2.979
 1669TIP3   OH2 4949   0.954   6.962   6.676
 1669TIP3    H1 4950   0.981   7.033   6.617
 1669TIP3    H2 4951   1.031   6.947   6.731
 1670TIP3   OH2 4952   6.766   7.525   2.057
 1670TIP3    H1 4953   6.818   7.535   1.978
 1670TIP3    H2 4954   6.675   7.536   2.029
 1671TIP3   OH2 4955   2.693   7.722   4.648
 1671TIP3    H1 4956   2.774   7.735   4.600
 1671TIP3    H2 4957   2.652   7.809   4.649
 1672TIP3   OH2 4958   5.665   2.409   5.753
 1672TIP3    H1 4959   5.579   2.425   5.792
 1672TIP3    H2 4960   5.669   2.470   5.679
 1673TIP3   OH2 4961   0.011   0.891   5.184
 1673TIP3    H1 4962  -0.059   0.894   5.249
 1673TIP3    H2 4963   0.073   0.828   5.219
 1674TIP3   OH2 4964   4.911   3.242   5.266
 1674TIP3    H1 4965   4.837   3.229   5.207
 1674TIP3    H2 4966   4.958   3.317   5.229
 1675TIP3   OH2 4967   2.976   6.212   4.637
 1675TIP3    H1 4968   2.934   6.293   4.610
 1675TIP3    H2 4969   3.047   6.199   4.575
 1676TIP3   OH2 4970   7.570   4.034   0.417
 1676TIP3    H1 4971   7.535   4.037   0.506
 1676TIP3    H2 4972   7.555   3.943   0.389
 1677TIP3   OH2 4973   6.134   3.222   0.214
 1677TIP3    H1 4974   6.040   3.223   0.198
 1677TIP3    H2 4975   6.143   3.191   0.304
 1678TIP3   OH2 4976   2.082   1.126   3.594
 1678TIP3    H1 4977   1.993   1.101   3.569
 1678TIP3    H2 4978   2.114   1.053   3.647
 1679TIP3   OH2 4979   2.497   5.956   4.616
 1679TIP3    H1 4980   2.465   5.888   4.557
 1679TIP3    H2 4981   2.592   5.949   4.612
 1680TIP3   OH2 4982   4.488   2.441   5.370
 1680TIP3    H1 4983   4.416   2.451   5.433
 1680TIP3    H2 4984   4.529   2.358   5.394
 1681TIP3   OH2 4985   0.190   7.384   0.687
 1681TIP3    H1 4986   0.234   7.307   0.652
 1681TIP3    H2 4987   0.129   7.411   0.618
 1682TIP3   OH2 4988   3.025   2.783   0.301
 1682TIP3    H1 4989   3.090   2.825   0.245
 1682TIP3    H2 4990   2.956   2.756   0.240
 1683TIP3   OH2 4991   0.130   1.685   6.775
 1683TIP3    H1 4992   0.094   1.762   6.731
 1683TIP3    H2 4993   0.060   1.620   6.771
 1684TIP3   OH2 4994   1.142   0.987   1.097
 1684TIP3    H1 4995   1.210   1.041   1.137
 1684TIP3    H2 4996   1.104   1.043   1.029
 1685TIP3   OH2 4997   6.517   6.610   0.079
 1685TIP3    H1 4998   6.538   6.517   0.071
 1685TIP3    H2 4999   6.599   6.650   0.110
 1686TIP3   OH2 5000   2.572   7.629   5.839
 1686TIP3    H1 5001   2.661   7.662   5.829
 1686TIP3    H2 5002   2.518   7.707   5.843
 1687TIP3   OH2 5003   2.587   7.414   3.348
 1687TIP3    H1 5004   2.628   7.422   3.262
 1687TIP3    H2 5005   2.660   7.423   3.410
 1688TIP3   OH2 5006   7.503   5.781   1.530
 1688TIP3    H1 5007   7.525   5.820   1.614
 1688TIP3    H2 5008   7.445   5.845   1.489
 1689TIP3   OH2 5009   1.594   3.364   4.630
 1689TIP3    H1 5010   1.557   3.435   4.682
 1689TIP3    H2 5011   1.603   3.292   4.691
 1690TIP3   OH2 5012   6.596   1.384   1.388
 1690TIP3    H1 5013   6.501   1.395   1.386
 1690TIP3    H2 5014   6.629   1.469   1.417
 1691TIP3   OH2 5015   1.196   0.358   1.854
 1691TIP3    H1 5016   1.186   0.380   1.761
 1691TIP3    H2 5017   1.289   0.369   1.872
 1692TIP3   OH2 5018   1.444   2.127   4.562
 1692TIP3    H1 5019   1.441   2.222   4.555
 1692TIP3    H2 5020   1.404   2.096   4.480
 1693TIP3   OH2 5021   1.193   7.445   5.775
 1693TIP3    H1 5022   1.167   7.537   5.770
 1693TIP3    H2 5023   1.282   7.447   5.811
 1694TIP3   OH2 5024   3.003   3.798   4.034
 1694TIP3    H1 5025   2.954   3.743   3.973
 1694TIP3    H2 5026   3.092   3.798   3.999
 1695TIP3   OH2 5027   5.570   1.017   0.486
 1695TIP3    H1 5028   5.638   1.028   0.553
 1695TIP3    H2 5029   5.546   1.107   0.462
 1696TIP3   OH2 5030   4.880   4.570   3.906
 1696TIP3    H1 5031   4.786   4.579   3.898
 1696TIP3    H2 5032   4.893   4.481   3.940
 1697TIP3   OH2 5033   5.838   6.569   0.024
 1697TIP3    H1 5034   5.907   6.502   0.023
 1697TIP3    H2 5035   5.757   6.520   0.009
 1698TIP3   OH2 5036   8.247   1.777   2.428
 1698TIP3    H1 5037   8.247   1.734   2.513
 1698TIP3    H2 5038   8.169   1.744   2.384
 1699TIP3   OH2 5039   6.220   6.977   2.154
 1699TIP3    H1 5040   6.174   7.060   2.138
 1699TIP3    H2 5041   6.309   6.993   2.121
 1700TIP3   OH2 5042   8.001   4.771   3.079
 1700TIP3    H1 5043   7.920   4.766   3.028
 1700TIP3    H2 5044   8.069   4.789   3.015
 1701TIP3   OH2 5045   7.450   5.180   6.724
 1701TIP3    H1 5046   7.480   5.239   6.655
 1701TIP3    H2 5047   7.529   5.133   6.751
 1702TIP3   OH2 5048   6.996   1.536   3.849
 1702TIP3    H1 5049   7.065   1.589   3.890
 1702TIP3    H2 5050   6.917   1.556   3.899
 1703TIP3   OH2 5051   3.698   5.420   3.475
 1703TIP3    H1 5052   3.655   5.503   3.497
 1703TIP3    H2 5053   3.695   5.369   3.556
 1704TIP3   OH2 5054   7.437   5.313   6.078
 1704TIP3    H1 5055   7.449   5.261   5.998
 1704TIP3    H2 5056   7.425   5.247   6.147
 1705TIP3   OH2 5057   1.985   7.477   4.075
 1705TIP3    H1 5058   2.032   7.485   3.992
 1705TIP3    H2 5059   2.027   7.540   4.133
 1706TIP3   OH2 5060   7.308   7.398   0.651
 1706TIP3    H1 5061   7.318   7.431   0.562
 1706TIP3    H2 5062   7.224   7.351   0.650
 1707TIP3   OH2 5063   1.257   6.014   0.351
 1707TIP3    H1 5064   1.220   5.953   0.286
 1707TIP3    H2 5065   1.338   5.972   0.380
 1708TIP3   OH2 5066   6.363   3.262   3.398
 1708TIP3    H1 5067   6.410   3.327   3.450
 1708TIP3    H2 5068   6.432   3.218   3.348
 1709TIP3   OH2 5069   7.068   5.477   5.344
 1709TIP3    H1 5070   7.082   5.505   5.253
 1709TIP3    H2 5071   6.993   5.528   5.374
 1710TIP3   OH2 5072   2.656   5.591   3.609
 1710TIP3    H1 5073   2.611   5.639   3.679
 1710TIP3    H2 5074   2.695   5.516   3.652
 1711TIP3   OH2 5075   5.688   6.544   2.500
 1711TIP3    H1 5076   5.600   6.519   2.527
 1711TIP3    H2 5077   5.700   6.505   2.413
 1712TIP3   OH2 5078   8.190   5.815   1.299
 1712TIP3    H1 5079   8.272   5.786   1.258
 1712TIP3    H2 5080   8.121   5.770   1.250
 1713TIP3   OH2 5081   2.465   1.892   3.696
 1713TIP3    H1 5082   2.452   1.878   3.790
 1713TIP3    H2 5083   2.556   1.919   3.688
 1714TIP3   OH2 5084   6.352   1.332   2.701
 1714TIP3    H1 5085   6.283   1.392   2.673
 1714TIP3    H2 5086   6.413   1.329   2.627
 1715TIP3   OH2 5087   3.642   4.000   1.391
 1715TIP3    H1 5088   3.548   3.992   1.409
 1715TIP3    H2 5089   3.646   4.029   1.300
 1716TIP3   OH2 5090   2.853   6.481   5.793
 1716TIP3    H1 5091   2.830   6.410   5.733
 1716TIP3    H2 5092   2.949   6.477   5.800
 1717TIP3   OH2 5093   3.140   4.121   5.094
 1717TIP3    H1 5094   3.211   4.079   5.046
 1717TIP3    H2 5095   3.147   4.214   5.071
 1718TIP3   OH2 5096   4.489   1.371   2.758
 1718TIP3    H1 5097   4.497   1.276   2.744
 1718TIP3    H2 5098   4.545   1.388   2.834
 1719TIP3   OH2 5099   5.949   7.287   1.739
 1719TIP3    H1 5100   6.015   7.229   1.699
 1719TIP3    H2 5101   5.993   7.322   1.816
 1720TIP3   OH2 5102   0.092   5.925   2.278
 1720TIP3    H1 5103   0.093   5.975   2.360
 1720TIP3    H2 5104   0.169   5.955   2.230
 1721TIP3   OH2 5105   4.889   7.075   0.016
 1721TIP3    H1 5106   4.797   7.071  -0.011
 1721TIP3    H2 5107   4.902   6.998   0.071
 1722TIP3   OH2 5108   2.886   4.028   5.556
 1722TIP3    H1 5109   2.931   3.982   5.627
 1722TIP3    H2 5110   2.819   4.082   5.600
 1723TIP3   OH2 5111   5.431   5.570   3.231
 1723TIP3    H1 5112   5.426   5.633   3.159
 1723TIP3    H2 5113   5.519   5.534   3.225
 1724TIP3   OH2 5114   1.752   2.732   1.710
 1724TIP3    H1 5115   1.671   2.752   1.664
 1724TIP3    H2 5116   1.803   2.679   1.648
 1725TIP3   OH2 5117   3.589   7.291   2.737
 1725TIP3    H1 5118   3.582   7.309   2.831
 1725TIP3    H2 5119   3.633   7.207   2.732
 1726TIP3   OH2 5120   3.622   6.480   4.992
 1726TIP3    H1 5121   3.609   6.574   4.988
 1726TIP3    H2 5122   3.534   6.444   5.006
 1727TIP3   OH2 5123   2.413   4.053   1.068
 1727TIP3    H1 5124   2.366   4.100   1.137
 1727TIP3    H2 5125   2.451   4.123   1.014
 1728TIP3   OH2 5126   7.759   0.927   6.220
 1728TIP3    H1 5127   7.761   0.876   6.301
 1728TIP3    H2 5128   7.670   0.914   6.186
 1729TIP3   OH2 5129   6.728   1.370   1.692
 1729TIP3    H1 5130   6.808   1.381   1.641
 1729TIP3    H2 5131   6.740   1.286   1.737
 1730TIP3   OH2 5132   5.618   0.456   4.103
 1730TIP3    H1 5133   5.625   0.370   4.144
 1730TIP3    H2 5134   5.704   0.496   4.116
 1731TIP3   OH2 5135   2.748   2.110   4.012
 1731TIP3    H1 5136   2.757   2.205   4.002
 1731TIP3    H2 5137   2.780   2.075   3.929
 1732TIP3   OH2 5138   0.506   4.585   4.795
 1732TIP3    H1 5139   0.424   4.535   4.795
 1732TIP3    H2 5140   0.553   4.554   4.717
 1733TIP3   OH2 5141   1.415   2.952   0.845
 1733TIP3    H1 5142   1.446   2.998   0.923
 1733TIP3    H2 5143   1.473   2.983   0.775
 1734TIP3   OH2 5144   6.451   3.216   0.147
 1734TIP3    H1 5145   6.469   3.123   0.130
 1734TIP3    H2 5146   6.369   3.215   0.197
 1735TIP3   OH2 5147   5.896   6.123   2.878
 1735TIP3    H1 5148   5.938   6.037   2.889
 1735TIP3    H2 5149   5.952   6.169   2.815
 1736TIP3   OH2 5150   2.582   0.803   4.411
 1736TIP3    H1 5151   2.501   0.854   4.407
 1736TIP3    H2 5152   2.598   0.791   4.505
 1737TIP3   OH2 5153   6.544   4.821   2.427
 1737TIP3    H1 5154   6.593   4.830   2.345
 1737TIP3    H2 5155   6.502   4.735   2.420
 1738TIP3   OH2 5156   1.296   1.872   4.595
 1738TIP3    H1 5157   1.326   1.791   4.555
 1738TIP3    H2 5158   1.269   1.927   4.522
 1739TIP3   OH2 5159   3.734   6.025   1.744
 1739TIP3    H1 5160   3.677   5.980   1.682
 1739TIP3    H2 5161   3.752   6.110   1.703
 1740TIP3   OH2 5162   6.608   5.480   0.580
 1740TIP3    H1 5163   6.609   5.451   0.489
 1740TIP3    H2 5164   6.522   5.519   0.593
 1741TIP3   OH2 5165   1.622   0.087   2.682
 1741TIP3    H1 5166   1.607   0.181   2.696
 1741TIP3    H2 5167   1.542   0.057   2.638
 1742TIP3   OH2 5168   3.856   0.997   6.106
 1742TIP3    H1 5169   3.940   1.042   6.115
 1742TIP3    H2 5170   3.824   0.988   6.196
 1743TIP3   OH2 5171   0.702   4.161   6.513
 1743TIP3    H1 5172   0.783   4.190   6.554
 1743TIP3    H2 5173   0.646   4.239   6.512
 1744TIP3   OH2 5174   0.118   2.289   5.573
 1744TIP3    H1 5175   0.108   2.367   5.628
 1744TIP3    H2 5176   0.094   2.216   5.631
 1745TIP3   OH2 5177   6.145   0.060   5.369
 1745TIP3    H1 5178   6.173   0.076   5.279
 1745TIP3    H2 5179   6.054   0.033   5.362
 1746TIP3   OH2 5180   2.617   2.022   6.392
 1746TIP3    H1 5181   2.696   2.019   6.339
 1746TIP3    H2 5182   2.607   2.113   6.418
 1747TIP3   OH2 5183   1.847   0.347   0.964
 1747TIP3    H1 5184   1.793   0.302   0.898
 1747TIP3    H2 5185   1.806   0.325   1.047
 1748TIP3   OH2 5186   4.169   0.374   2.724
 1748TIP3    H1 5187   4.103   0.344   2.661
 1748TIP3    H2 5188   4.120   0.390   2.805
 1749TIP3   OH2 5189   3.998   5.525   4.122
 1749TIP3    H1 5190   4.044   5.457   4.074
 1749TIP3    H2 5191   3.913   5.487   4.143
 1750TIP3   OH2 5192   5.696   2.678   3.771
 1750TIP3    H1 5193   5.616   2.655   3.817
 1750TIP3    H2 5194   5.670   2.690   3.680
 1751TIP3   OH2 5195   4.735   2.811   3.962
 1751TIP3    H1 5196   4.814   2.768   3.930
 1751TIP3    H2 5197   4.665   2.747   3.947
 1752TIP3   OH2 5198   3.833   0.931   3.648
 1752TIP3    H1 5199   3.846   1.011   3.597
 1752TIP3    H2 5200   3.738   0.917   3.646
 1753TIP3   OH2 5201   7.861   4.635   2.082
 1753TIP3    H1 5202   7.873   4.663   2.173
 1753TIP3    H2 5203   7.925   4.686   2.032
 1754TIP3   OH2 5204   8.243   5.624   1.556
 1754TIP3    H1 5205   8.214   5.694   1.497
 1754TIP3    H2 5206   8.299   5.569   1.501
 1755TIP3   OH2 5207   0.979   1.655   5.850
 1755TIP3    H1 5208   0.943   1.587   5.907
 1755TIP3    H2 5209   0.991   1.611   5.766
 1756TIP3   OH2 5210   5.297   6.796   3.871
 1756TIP3    H1 5211   5.298   6.863   3.940
 1756TIP3    H2 5212   5.371   6.819   3.815
 1757TIP3   OH2 5213   0.440   3.742   1.412
 1757TIP3    H1 5214   0.416   3.813   1.353
 1757TIP3    H2 5215   0.535   3.744   1.415
 1758TIP3   OH2 5216   8.094   6.978   6.460
 1758TIP3    H1 5217   8.124   6.904   6.514
 1758TIP3    H2 5218   8.138   7.054   6.497
 1759TIP3   OH2 5219   3.146   5.516   0.481
 1759TIP3    H1 5220   3.092   5.544   0.407
 1759TIP3    H2 5221   3.156   5.421   0.469
 1760TIP3   OH2 5222   3.778   1.041   6.361
 1760TIP3    H1 5223   3.768   1.132   6.331
 1760TIP3    H2 5224   3.696   1.022   6.407
 1761TIP3   OH2 5225   3.287   7.323   6.693
 1761TIP3    H1 5226   3.245   7.408   6.690
 1761TIP3    H2 5227   3.381   7.342   6.691
 1762TIP3   OH2 5228   6.472   7.584   1.990
 1762TIP3    H1 5229   6.393   7.540   1.960
 1762TIP3    H2 5230   6.470   7.670   1.947
 1763TIP3   OH2 5231   7.296   5.857   0.014
 1763TIP3    H1 5232   7.295   5.882   0.106
 1763TIP3    H2 5233   7.336   5.933  -0.031
 1764TIP3   OH2 5234   4.505   1.967   3.857
 1764TIP3    H1 5235   4.545   1.931   3.778
 1764TIP3    H2 5236   4.545   2.054   3.867
 1765TIP3   OH2 5237   7.011   4.512   2.582
 1765TIP3    H1 5238   7.048   4.592   2.620
 1765TIP3    H2 5239   6.950   4.544   2.516
 1766TIP3   OH2 5240   6.340   6.682   3.245
 1766TIP3    H1 5241   6.355   6.724   3.161
 1766TIP3    H2 5242   6.382   6.596   3.238
 1767TIP3   OH2 5243   5.671   4.473   0.535
 1767TIP3    H1 5244   5.599   4.516   0.488
 1767TIP3    H2 5245   5.745   4.534   0.527
 1768TIP3   OH2 5246   5.856   5.449   3.275
 1768TIP3    H1 5247   5.943   5.454   3.235
 1768TIP3    H2 5248   5.799   5.419   3.204
 1769TIP3   OH2 5249   0.683   3.622   6.102
 1769TIP3    H1 5250   0.655   3.672   6.178
 1769TIP3    H2 5251   0.755   3.673   6.064
 1770TIP3   OH2 5252   5.040   3.657   2.691
 1770TIP3    H1 5253   5.054   3.567   2.662
 1770TIP3    H2 5254   5.008   3.647   2.781
 1771TIP3   OH2 5255   3.784   3.592   3.041
 1771TIP3    H1 5256   3.710   3.633   2.995
 1771TIP3    H2 5257   3.834   3.666   3.076
 1772TIP3   OH2 5258   4.995   3.770   2.433
 1772TIP3    H1 5259   5.005   3.729   2.519
 1772TIP3    H2 5260   4.957   3.702   2.378
 1773TIP3   OH2 5261   0.103   6.052   3.049
 1773TIP3    H1 5262   0.173   5.992   3.023
 1773TIP3    H2 5263   0.034   5.995   3.085
 1774TIP3   OH2 5264   6.105   6.498   0.553
 1774TIP3    H1 5265   6.111   6.594   0.558
 1774TIP3    H2 5266   6.196   6.469   0.544
 1775TIP3   OH2 5267   7.766   3.503   5.162
 1775TIP3    H1 5268   7.761   3.580   5.106
 1775TIP3    H2 5269   7.807   3.436   5.108
 1776TIP3   OH2 5270   1.963   6.470   4.326
 1776TIP3    H1 5271   2.053   6.442   4.342
 1776TIP3    H2 5272   1.970   6.564   4.308
 1777TIP3   OH2 5273   2.550   0.730   5.745
 1777TIP3    H1 5274   2.557   0.760   5.836
 1777TIP3    H2 5275   2.630   0.680   5.729
 1778TIP3   OH2 5276   6.061   0.910   4.511
 1778TIP3    H1 5277   6.055   1.005   4.507
 1778TIP3    H2 5278   6.022   0.887   4.595
 1779TIP3   OH2 5279   5.996   6.311   6.817
 1779TIP3    H1 5280   5.911   6.325   6.776
 1779TIP3    H2 5281   6.002   6.217   6.831
 1780TIP3   OH2 5282   2.799   1.430   5.054
 1780TIP3    H1 5283   2.845   1.415   5.137
 1780TIP3    H2 5284   2.852   1.384   4.989
 1781TIP3   OH2 5285   7.160   1.092   4.208
 1781TIP3    H1 5286   7.255   1.080   4.206
 1781TIP3    H2 5287   7.147   1.186   4.217
 1782TIP3   OH2 5288   6.154   1.427   1.180
 1782TIP3    H1 5289   6.248   1.419   1.193
 1782TIP3    H2 5290   6.116   1.391   1.260
 1783TIP3   OH2 5291   6.681   7.328   5.650
 1783TIP3    H1 5292   6.707   7.420   5.648
 1783TIP3    H2 5293   6.618   7.320   5.578
 1784TIP3   OH2 5294   0.552   3.197   2.126
 1784TIP3    H1 5295   0.615   3.245   2.179
 1784TIP3    H2 5296   0.506   3.141   2.188
 1785TIP3   OH2 5297   5.859   0.954   5.379
 1785TIP3    H1 5298   5.952   0.944   5.400
 1785TIP3    H2 5299   5.830   1.029   5.430
 1786TIP3   OH2 5300   5.922   4.492   1.282
 1786TIP3    H1 5301   5.922   4.534   1.195
 1786TIP3    H2 5302   5.850   4.535   1.329
 1787TIP3   OH2 5303   7.880   3.547   4.696
 1787TIP3    H1 5304   7.944   3.601   4.743
 1787TIP3    H2 5305   7.931   3.505   4.626
 1788TIP3   OH2 5306   7.503   1.905   4.815
 1788TIP3    H1 5307   7.517   1.848   4.891
 1788TIP3    H2 5308   7.545   1.988   4.839
 1789TIP3   OH2 5309   6.463   1.880   1.102
 1789TIP3    H1 5310   6.441   1.798   1.058
 1789TIP3    H2 5311   6.382   1.908   1.144
 1790TIP3   OH2 5312   0.607   1.139   0.511
 1790TIP3    H1 5313   0.680   1.077   0.516
 1790TIP3    H2 5314   0.638   1.208   0.452
 1791TIP3   OH2 5315   0.358   6.514   1.730
 1791TIP3    H1 5316   0.374   6.576   1.801
 1791TIP3    H2 5317   0.417   6.442   1.747
 1792TIP3   OH2 5318   5.940   2.639   2.352
 1792TIP3    H1 5319   5.961   2.731   2.367
 1792TIP3    H2 5320   6.008   2.590   2.398
 1793TIP3   OH2 5321   4.047   6.534   4.519
 1793TIP3    H1 5322   4.008   6.593   4.455
 1793TIP3    H2 5323   4.073   6.457   4.468
 1794TIP3   OH2 5324   7.868   1.619   4.055
 1794TIP3    H1 5325   7.878   1.556   3.984
 1794TIP3    H2 5326   7.810   1.687   4.020
 1795TIP3   OH2 5327   0.661   6.449   0.707
 1795TIP3    H1 5328   0.618   6.494   0.635
 1795TIP3    H2 5329   0.598   6.384   0.737
 1796TIP3   OH2 5330   2.616   2.380   5.833
 1796TIP3    H1 5331   2.565   2.333   5.767
 1796TIP3    H2 5332   2.707   2.365   5.808
 1797TIP3   OH2 5333   7.508   6.221   2.588
 1797TIP3    H1 5334   7.533   6.129   2.583
 1797TIP3    H2 5335   7.474   6.233   2.676
 1798TIP3   OH2 5336   0.520   5.919   1.492
 1798TIP3    H1 5337   0.512   6.005   1.451
 1798TIP3    H2 5338   0.580   5.934   1.565
 1799TIP3   OH2 5339   6.081   1.878   5.969
 1799TIP3    H1 5340   6.092   1.968   5.939
 1799TIP3    H2 5341   6.006   1.881   6.027
 1800TIP3   OH2 5342   7.120   6.834   3.999
 1800TIP3    H1 5343   7.060   6.872   4.062
 1800TIP3    H2 5344   7.198   6.811   4.050
 1801TIP3   OH2 5345   3.425   6.998   5.323
 1801TIP3    H1 5346   3.405   7.087   5.293
 1801TIP3    H2 5347   3.345   6.948   5.307
 1802TIP3   OH2 5348   1.185   1.029   6.715
 1802TIP3    H1 5349   1.138   1.068   6.789
 1802TIP3    H2 5350   1.261   1.086   6.702
 1803TIP3   OH2 5351   3.873   7.364   3.049
 1803TIP3    H1 5352   3.900   7.312   2.973
 1803TIP3    H2 5353   3.871   7.301   3.121
 1804TIP3   OH2 5354   1.256   1.390   4.789
 1804TIP3    H1 5355   1.310   1.435   4.854
 1804TIP3    H2 5356   1.261   1.446   4.712
 1805TIP3   OH2 5357   7.326   3.142   4.872
 1805TIP3    H1 5358   7.341   3.232   4.903
 1805TIP3    H2 5359   7.253   3.111   4.924
 1806TIP3   OH2 5360   5.764   0.713   1.363
 1806TIP3    H1 5361   5.702   0.745   1.428
 1806TIP3    H2 5362   5.828   0.784   1.354
 1807TIP3   OH2 5363   2.900   0.407   6.692
 1807TIP3    H1 5364   2.932   0.451   6.613
 1807TIP3    H2 5365   2.901   0.314   6.670
 1808TIP3   OH2 5366   1.227   0.793   6.110
 1808TIP3    H1 5367   1.236   0.847   6.031
 1808TIP3    H2 5368   1.311   0.749   6.119
 1809TIP3   OH2 5369   0.448   4.565   5.629
 1809TIP3    H1 5370   0.508   4.491   5.632
 1809TIP3    H2 5371   0.456   4.606   5.715
 1810TIP3   OH2 5372   6.742   0.908   5.623
 1810TIP3    H1 5373   6.649   0.890   5.617
 1810TIP3    H2 5374   6.763   0.957   5.544
 1811TIP3   OH2 5375   7.113   7.170   3.285
 1811TIP3    H1 5376   7.128   7.085   3.325
 1811TIP3    H2 5377   7.088   7.150   3.195
 1812TIP3   OH2 5378   3.446   1.673   2.453
 1812TIP3    H1 5379   3.434   1.589   2.497
 1812TIP3    H2 5380   3.398   1.664   2.370
 1813TIP3   OH2 5381   0.977   5.046   4.184
 1813TIP3    H1 5382   0.953   4.997   4.105
 1813TIP3    H2 5383   1.055   5.095   4.159
 1814TIP3   OH2 5384   4.833   5.189   3.376
 1814TIP3    H1 5385   4.754   5.239   3.354
 1814TIP3    H2 5386   4.799   5.106   3.410
 1815TIP3   OH2 5387   6.949   0.415   3.204
 1815TIP3    H1 5388   6.956   0.425   3.299
 1815TIP3    H2 5389   6.953   0.504   3.169
 1816TIP3   OH2 5390   2.596   1.524   3.952
 1816TIP3    H1 5391   2.605   1.606   4.002
 1816TIP3    H2 5392   2.509   1.492   3.974
 1817TIP3   OH2 5393   2.766   5.615   6.014
 1817TIP3    H1 5394   2.712   5.568   5.950
 1817TIP3    H2 5395   2.854   5.611   5.978
 1818TIP3   OH2 5396   6.865   7.077   2.229
 1818TIP3    H1 5397   6.937   7.078   2.291
 1818TIP3    H2 5398   6.835   7.168   2.224
 1819TIP3   OH2 5399   1.044   4.551   6.616
 1819TIP3    H1 5400   1.007   4.552   6.705
 1819TIP3    H2 5401   1.081   4.464   6.607
 1820TIP3   OH2 5402   0.240   2.989   2.679
 1820TIP3    H1 5403   0.163   3.011   2.731
 1820TIP3    H2 5404   0.256   3.066   2.624
 1821TIP3   OH2 5405   0.594   3.626   0.538
 1821TIP3    H1 5406   0.587   3.684   0.614
 1821TIP3    H2 5407   0.551   3.675   0.468
 1822TIP3   OH2 5408   6.959   6.250   3.981
 1822TIP3    H1 5409   6.930   6.320   3.923
 1822TIP3    H2 5410   6.927   6.276   4.068
 1823TIP3   OH2 5411   0.767   4.514   0.923
 1823TIP3    H1 5412   0.692   4.458   0.901
 1823TIP3    H2 5413   0.816   4.462   0.987
 1824TIP3   OH2 5414   3.021   5.999   1.938
 1824TIP3    H1 5415   3.064   6.053   1.871
 1824TIP3    H2 5416   3.091   5.942   1.971
 1825TIP3   OH2 5417   3.901   2.867   4.866
 1825TIP3    H1 5418   3.902   2.962   4.880
 1825TIP3    H2 5419   3.992   2.845   4.845
 1826TIP3   OH2 5420   2.458   7.030   4.417
 1826TIP3    H1 5421   2.521   6.982   4.470
 1826TIP3    H2 5422   2.503   7.111   4.393
 1827TIP3   OH2 5423   3.115   4.397   3.099
 1827TIP3    H1 5424   3.108   4.406   3.004
 1827TIP3    H2 5425   3.067   4.472   3.134
 1828TIP3   OH2 5426   1.735   5.298   1.423
 1828TIP3    H1 5427   1.668   5.298   1.355
 1828TIP3    H2 5428   1.700   5.355   1.492
 1829TIP3   OH2 5429   2.410   1.592   3.670
 1829TIP3    H1 5430   2.470   1.662   3.642
 1829TIP3    H2 5431   2.329   1.638   3.691
 1830TIP3   OH2 5432   0.959   6.279   4.683
 1830TIP3    H1 5433   1.005   6.320   4.609
 1830TIP3    H2 5434   0.953   6.187   4.659
 1831TIP3   OH2 5435   1.772   2.452   0.116
 1831TIP3    H1 5436   1.683   2.425   0.138
 1831TIP3    H2 5437   1.828   2.393   0.165
 1832TIP3   OH2 5438   2.260   1.768   3.970
 1832TIP3    H1 5439   2.237   1.724   3.888
 1832TIP3    H2 5440   2.190   1.743   4.031
 1833TIP3   OH2 5441   4.621   2.338   6.114
 1833TIP3    H1 5442   4.586   2.330   6.025
 1833TIP3    H2 5443   4.653   2.428   6.119
 1834TIP3   OH2 5444   3.339   1.990   2.923
 1834TIP3    H1 5445   3.321   1.966   3.014
 1834TIP3    H2 5446   3.414   1.936   2.899
 1835TIP3   OH2 5447   4.650   5.140   4.334
 1835TIP3    H1 5448   4.709   5.156   4.408
 1835TIP3    H2 5449   4.562   5.143   4.372
 1836TIP3   OH2 5450   2.111   7.493   3.823
 1836TIP3    H1 5451   2.078   7.469   3.736
 1836TIP3    H2 5452   2.154   7.577   3.810
 1837TIP3   OH2 5453   6.349   0.656   4.046
 1837TIP3    H1 5454   6.272   0.677   3.993
 1837TIP3    H2 5455   6.421   0.705   4.005
 1838TIP3   OH2 5456   1.390   5.494   5.062
 1838TIP3    H1 5457   1.458   5.428   5.050
 1838TIP3    H2 5458   1.399   5.521   5.154
 1839TIP3   OH2 5459   1.139   1.786   6.184
 1839TIP3    H1 5460   1.108   1.836   6.109
 1839TIP3    H2 5461   1.094   1.825   6.259
 1840TIP3   OH2 5462   1.413   7.232   0.515
 1840TIP3    H1 5463   1.448   7.297   0.576
 1840TIP3    H2 5464   1.358   7.175   0.569
 1841TIP3   OH2 5465   3.335   7.296   2.616
 1841TIP3    H1 5466   3.304   7.367   2.672
 1841TIP3    H2 5467   3.425   7.281   2.644
 1842TIP3   OH2 5468   0.476   5.702   5.746
 1842TIP3    H1 5469   0.382   5.696   5.729
 1842TIP3    H2 5470   0.504   5.612   5.763
 1843TIP3   OH2 5471   5.391   1.081   4.961
 1843TIP3    H1 5472   5.388   1.176   4.967
 1843TIP3    H2 5473   5.344   1.050   5.038
 1844TIP3   OH2 5474   0.397   4.772   4.042
 1844TIP3    H1 5475   0.330   4.834   4.072
 1844TIP3    H2 5476   0.358   4.732   3.964
 1845TIP3   OH2 5477   0.902   4.722   5.881
 1845TIP3    H1 5478   0.851   4.719   5.962
 1845TIP3    H2 5479   0.942   4.635   5.875
 1846TIP3   OH2 5480   5.840   2.534   4.023
 1846TIP3    H1 5481   5.901   2.516   3.952
 1846TIP3    H2 5482   5.765   2.576   3.980
 1847TIP3   OH2 5483   3.512   7.536   3.357
 1847TIP3    H1 5484   3.472   7.564   3.275
 1847TIP3    H2 5485   3.444   7.484   3.401
 1848TIP3   OH2 5486   7.814   7.547   1.978
 1848TIP3    H1 5487   7.855   7.613   2.035
 1848TIP3    H2 5488   7.739   7.592   1.939
 1849TIP3   OH2 5489   3.077   0.290   5.679
 1849TIP3    H1 5490   3.065   0.294   5.774
 1849TIP3    H2 5491   3.123   0.371   5.657
 1850TIP3   OH2 5492   5.573   6.890   5.521
 1850TIP3    H1 5493   5.534   6.915   5.604
 1850TIP3    H2 5494   5.633   6.962   5.499
 1851TIP3   OH2 5495   4.396   0.439   5.961
 1851TIP3    H1 5496   4.341   0.470   5.889
 1851TIP3    H2 5497   4.382   0.344   5.962
 1852TIP3   OH2 5498   4.496   1.113   2.659
 1852TIP3    H1 5499   4.429   1.111   2.591
 1852TIP3    H2 5500   4.578   1.131   2.612
 1853TIP3   OH2 5501   0.544   1.497   3.025
 1853TIP3    H1 5502   0.558   1.572   2.967
 1853TIP3    H2 5503   0.451   1.502   3.048
 1854TIP3   OH2 5504   4.769   6.719   3.809
 1854TIP3    H1 5505   4.728   6.641   3.772
 1854TIP3    H2 5506   4.732   6.727   3.897
 1855TIP3   OH2 5507   0.671   7.195   5.052
 1855TIP3    H1 5508   0.693   7.168   5.141
 1855TIP3    H2 5509   0.718   7.277   5.039
 1856TIP3   OH2 5510   7.632   2.583   2.037
 1856TIP3    H1 5511   7.711   2.630   2.012
 1856TIP3    H2 5512   7.628   2.590   2.132
 1857TIP3   OH2 5513   0.644   3.661   2.836
 1857TIP3    H1 5514   0.729   3.634   2.870
 1857TIP3    H2 5515   0.663   3.734   2.777
 1858TIP3   OH2 5516   7.833   5.198   0.495
 1858TIP3    H1 5517   7.849   5.292   0.500
 1858TIP3    H2 5518   7.920   5.159   0.482
 1859TIP3   OH2 5519   3.133   4.432   4.015
 1859TIP3    H1 5520   3.181   4.366   4.064
 1859TIP3    H2 5521   3.044   4.429   4.051
 1860TIP3   OH2 5522   3.564   7.100   5.037
 1860TIP3    H1 5523   3.491   7.039   5.052
 1860TIP3    H2 5524   3.623   7.086   5.111
 1861TIP3   OH2 5525   0.145   4.523   6.188
 1861TIP3    H1 5526   0.195   4.442   6.197
 1861TIP3    H2 5527   0.174   4.577   6.262
 1862TIP3   OH2 5528   7.320   2.974   0.956
 1862TIP3    H1 5529   7.297   3.067   0.952
 1862TIP3    H2 5530   7.412   2.973   0.984
 1863TIP3   OH2 5531   0.796   4.499   2.845
 1863TIP3    H1 5532   0.723   4.514   2.905
 1863TIP3    H2 5533   0.755   4.467   2.764
 1864TIP3   OH2 5534   0.663   3.202   4.436
 1864TIP3    H1 5535   0.742   3.162   4.472
 1864TIP3    H2 5536   0.639   3.269   4.500
 1865TIP3   OH2 5537   2.564   3.489   4.859
 1865TIP3    H1 5538   2.484   3.540   4.874
 1865TIP3    H2 5539   2.592   3.460   4.946
 1866TIP3   OH2 5540   6.542   1.868   2.504
 1866TIP3    H1 5541   6.558   1.864   2.410
 1866TIP3    H2 5542   6.626   1.894   2.542
 1867TIP3   OH2 5543   4.490   5.103   6.731
 1867TIP3    H1 5544   4.417   5.144   6.778
 1867TIP3    H2 5545   4.464   5.012   6.720
 1868TIP3   OH2 5546   7.060   5.822   4.315
 1868TIP3    H1 5547   7.081   5.859   4.400
 1868TIP3    H2 5548   7.146   5.801   4.276
 1869TIP3   OH2 5549   1.167   7.232   6.493
 1869TIP3    H1 5550   1.238   7.176   6.461
 1869TIP3    H2 5551   1.186   7.317   6.455
 1870TIP3   OH2 5552   3.528   5.414   2.278
 1870TIP3    H1 5553   3.560   5.327   2.252
 1870TIP3    H2 5554   3.585   5.440   2.350
 1871TIP3   OH2 5555   7.477   1.394   1.269
 1871TIP3    H1 5556   7.494   1.435   1.354
 1871TIP3    H2 5557   7.557   1.408   1.219
 1872TIP3   OH2 5558   2.641   3.594   2.960
 1872TIP3    H1 5559   2.551   3.586   2.928
 1872TIP3    H2 5560   2.694   3.606   2.881
 1873TIP3   OH2 5561   3.013   3.612   5.365
 1873TIP3    H1 5562   3.038   3.523   5.340
 1873TIP3    H2 5563   3.078   3.668   5.322
 1874TIP3   OH2 5564   1.263   1.685   6.511
 1874TIP3    H1 5565   1.256   1.780   6.501
 1874TIP3    H2 5566   1.313   1.656   6.434
 1875TIP3   OH2 5567   1.548   4.997   5.055
 1875TIP3    H1 5568   1.496   5.077   5.058
 1875TIP3    H2 5569   1.601   4.999   5.135
 1876TIP3   OH2 5570   4.669   3.092   5.211
 1876TIP3    H1 5571   4.656   3.008   5.254
 1876TIP3    H2 5572   4.598   3.097   5.146
 1877TIP3   OH2 5573   3.245   7.045   2.689
 1877TIP3    H1 5574   3.241   7.086   2.775
 1877TIP3    H2 5575   3.280   7.113   2.631
 1878TIP3   OH2 5576   1.808   7.285   4.049
 1878TIP3    H1 5577   1.864   7.358   4.078
 1878TIP3    H2 5578   1.870   7.218   4.021
 1879TIP3   OH2 5579   6.233   2.119   5.724
 1879TIP3    H1 5580   6.188   2.191   5.678
 1879TIP3    H2 5581   6.221   2.138   5.817
 1880TIP3   OH2 5582   3.202   2.653   1.829
 1880TIP3    H1 5583   3.156   2.735   1.844
 1880TIP3    H2 5584   3.261   2.644   1.904
 1881TIP3   OH2 5585   6.702   2.865   5.144
 1881TIP3    H1 5586   6.675   2.861   5.053
 1881TIP3    H2 5587   6.659   2.791   5.186
 1882TIP3   OH2 5588   4.257   0.151   0.111
 1882TIP3    H1 5589   4.250   0.124   0.202
 1882TIP3    H2 5590   4.338   0.202   0.106
 1883TIP3   OH2 5591   6.832   1.607   2.488
 1883TIP3    H1 5592   6.839   1.511   2.487
 1883TIP3    H2 5593   6.832   1.630   2.580
 1884TIP3   OH2 5594   0.654   5.070   1.540
 1884TIP3    H1 5595   0.732   5.017   1.555
 1884TIP3    H2 5596   0.614   5.079   1.627
 1885TIP3   OH2 5597   3.796   3.256   5.209
 1885TIP3    H1 5598   3.883   3.255   5.251
 1885TIP3    H2 5599   3.787   3.344   5.175
 1886TIP3   OH2 5600   1.180   0.528   3.499
 1886TIP3    H1 5601   1.133   0.576   3.567
 1886TIP3    H2 5602   1.131   0.547   3.419
 1887TIP3   OH2 5603   1.789   3.140   1.313
 1887TIP3    H1 5604   1.701   3.176   1.317
 1887TIP3    H2 5605   1.837   3.201   1.258
 1888TIP3   OH2 5606   7.821   0.117   4.196
 1888TIP3    H1 5607   7.849   0.208   4.189
 1888TIP3    H2 5608   7.863   0.085   4.275
 1889TIP3   OH2 5609   7.197   0.783   5.229
 1889TIP3    H1 5610   7.133   0.774   5.159
 1889TIP3    H2 5611   7.170   0.720   5.295
 1890TIP3   OH2 5612   3.749   7.106   5.258
 1890TIP3    H1 5613   3.741   7.149   5.343
 1890TIP3    H2 5614   3.843   7.096   5.245
 1891TIP3   OH2 5615   3.387   7.156   1.292
 1891TIP3    H1 5616   3.367   7.230   1.234
 1891TIP3    H2 5617   3.330   7.169   1.367
 1892TIP3   OH2 5618   0.268   6.640   2.814
 1892TIP3    H1 5619   0.246   6.548   2.831
 1892TIP3    H2 5620   0.335   6.661   2.878
 1893TIP3   OH2 5621   1.838   1.499   0.458
 1893TIP3    H1 5622   1.839   1.446   0.537
 1893TIP3    H2 5623   1.903   1.568   0.474
 1894TIP3   OH2 5624   0.826   3.810   4.845
 1894TIP3    H1 5625   0.762   3.770   4.904
 1894TIP3    H2 5626   0.878   3.867   4.902
 1895TIP3   OH2 5627   3.795   2.708   4.589
 1895TIP3    H1 5628   3.889   2.701   4.604
 1895TIP3    H2 5629   3.786   2.782   4.528
 1896TIP3   OH2 5630   8.055   5.727   1.840
 1896TIP3    H1 5631   8.092   5.776   1.914
 1896TIP3    H2 5632   8.026   5.794   1.779
 1897TIP3   OH2 5633   7.301   4.174   1.104
 1897TIP3    H1 5634   7.299   4.141   1.193
 1897TIP3    H2 5635   7.366   4.244   1.105
 1898TIP3   OH2 5636   5.354   4.205   6.236
 1898TIP3    H1 5637   5.291   4.134   6.243
 1898TIP3    H2 5638   5.331   4.249   6.154
 1899TIP3   OH2 5639   4.087   0.741   0.155
 1899TIP3    H1 5640   4.077   0.778   0.067
 1899TIP3    H2 5641   4.002   0.755   0.197
 1900TIP3   OH2 5642   0.374   3.824   5.593
 1900TIP3    H1 5643   0.436   3.811   5.664
 1900TIP3    H2 5644   0.314   3.750   5.599
 1901TIP3   OH2 5645   4.182   4.657   0.872
 1901TIP3    H1 5646   4.170   4.562   0.867
 1901TIP3    H2 5647   4.121   4.692   0.808
 1902TIP3   OH2 5648   5.900   1.968   4.175
 1902TIP3    H1 5649   5.907   2.036   4.108
 1902TIP3    H2 5650   5.980   1.916   4.164
 1903TIP3   OH2 5651   7.805   7.679   2.915
 1903TIP3    H1 5652   7.893   7.716   2.910
 1903TIP3    H2 5653   7.802   7.635   3.000
 1904TIP3   OH2 5654   4.570   7.278   4.985
 1904TIP3    H1 5655   4.554   7.273   4.890
 1904TIP3    H2 5656   4.514   7.210   5.022
 1905TIP3   OH2 5657   5.651   7.628   0.490
 1905TIP3    H1 5658   5.627   7.562   0.425
 1905TIP3    H2 5659   5.674   7.706   0.438
 1906TIP3   OH2 5660   0.115   1.778   1.933
 1906TIP3    H1 5661   0.036   1.756   1.984
 1906TIP3    H2 5662   0.121   1.709   1.867
 1907TIP3   OH2 5663   7.974   6.888   2.363
 1907TIP3    H1 5664   8.035   6.891   2.436
 1907TIP3    H2 5665   7.967   6.979   2.334
 1908TIP3   OH2 5666   6.596   5.014   5.906
 1908TIP3    H1 5667   6.627   4.927   5.932
 1908TIP3    H2 5668   6.649   5.075   5.957
 1909TIP3   OH2 5669   0.787   5.092   5.485
 1909TIP3    H1 5670   0.846   5.042   5.542
 1909TIP3    H2 5671   0.809   5.183   5.503
 1910TIP3   OH2 5672   5.845   2.814   3.094
 1910TIP3    H1 5673   5.791   2.878   3.049
 1910TIP3    H2 5674   5.892   2.768   3.025
 1911TIP3   OH2 5675   1.785   5.740   0.500
 1911TIP3    H1 5676   1.755   5.712   0.414
 1911TIP3    H2 5677   1.813   5.660   0.544
 1912TIP3   OH2 5678   0.291   2.329   3.502
 1912TIP3    H1 5679   0.225   2.352   3.567
 1912TIP3    H2 5680   0.255   2.360   3.419
 1913TIP3   OH2 5681   4.096   5.723   1.212
 1913TIP3    H1 5682   4.088   5.760   1.124
 1913TIP3    H2 5683   4.058   5.636   1.205
 1914TIP3   OH2 5684   0.596   0.201   1.499
 1914TIP3    H1 5685   0.667   0.153   1.456
 1914TIP3    H2 5686   0.551   0.135   1.552
 1915TIP3   OH2 5687   7.541  -0.020   2.371
 1915TIP3    H1 5688   7.559   0.013   2.283
 1915TIP3    H2 5689   7.581   0.045   2.429
 1916TIP3   OH2 5690   0.785   0.850   2.565
 1916TIP3    H1 5691   0.740   0.804   2.636
 1916TIP3    H2 5692   0.863   0.887   2.607
 1917TIP3   OH2 5693   2.615   2.651   1.545
 1917TIP3    H1 5694   2.597   2.558   1.558
 1917TIP3    H2 5695   2.564   2.675   1.467
 1918TIP3   OH2 5696   7.446   6.575   0.575
 1918TIP3    H1 5697   7.493   6.568   0.492
 1918TIP3    H2 5698   7.469   6.495   0.622
 1919TIP3   OH2 5699   7.266   1.747   4.833
 1919TIP3    H1 5700   7.184   1.746   4.782
 1919TIP3    H2 5701   7.302   1.834   4.817
 1920TIP3   OH2 5702   4.204   2.069   4.369
 1920TIP3    H1 5703   4.149   2.107   4.301
 1920TIP3    H2 5704   4.187   2.122   4.447
 1921TIP3   OH2 5705   4.932   0.947   0.345
 1921TIP3    H1 5706   4.891   0.869   0.307
 1921TIP3    H2 5707   5.003   0.970   0.285
 1922TIP3   OH2 5708   7.517   6.234   1.888
 1922TIP3    H1 5709   7.486   6.252   1.800
 1922TIP3    H2 5710   7.561   6.149   1.882
 1923TIP3   OH2 5711   2.189   6.918   0.410
 1923TIP3    H1 5712   2.282   6.938   0.426
 1923TIP3    H2 5713   2.150   7.004   0.391
 1924TIP3   OH2 5714   6.108   7.707   1.303
 1924TIP3    H1 5715   6.188   7.655   1.309
 1924TIP3    H2 5716   6.079   7.716   1.394
 1925TIP3   OH2 5717   7.830   3.950   3.767
 1925TIP3    H1 5718   7.920   3.928   3.744
 1925TIP3    H2 5719   7.823   4.044   3.753
 1926TIP3   OH2 5720   7.516   7.007   0.104
 1926TIP3    H1 5721   7.505   7.096   0.071
 1926TIP3    H2 5722   7.602   6.979   0.071
 1927TIP3   OH2 5723   3.543   0.982   5.927
 1927TIP3    H1 5724   3.515   1.074   5.924
 1927TIP3    H2 5725   3.538   0.953   5.836
 1928TIP3   OH2 5726   4.727   1.685   4.168
 1928TIP3    H1 5727   4.768   1.760   4.210
 1928TIP3    H2 5728   4.703   1.715   4.081
 1929TIP3   OH2 5729   6.883   4.296   6.748
 1929TIP3    H1 5730   6.969   4.314   6.708
 1929TIP3    H2 5731   6.904   4.249   6.828
 1930TIP3   OH2 5732   3.830   0.140   5.726
 1930TIP3    H1 5733   3.781   0.109   5.802
 1930TIP3    H2 5734   3.887   0.067   5.702
 1931TIP3   OH2 5735   7.160   6.908   3.394
 1931TIP3    H1 5736   7.153   6.891   3.488
 1931TIP3    H2 5737   7.251   6.885   3.372
 1932TIP3   OH2 5738   4.607   0.813   3.317
 1932TIP3    H1 5739   4.684   0.841   3.269
 1932TIP3    H2 5740   4.535   0.817   3.254
 1933TIP3   OH2 5741   2.427   4.920   6.382
 1933TIP3    H1 5742   2.370   4.994   6.404
 1933TIP3    H2 5743   2.445   4.930   6.289
 1934TIP3   OH2 5744   6.137   3.794   6.576
 1934TIP3    H1 5745   6.131   3.876   6.526
 1934TIP3    H2 5746   6.177   3.732   6.516
 1935TIP3   OH2 5747   3.693   4.929   2.632
 1935TIP3    H1 5748   3.785   4.951   2.617
 1935TIP3    H2 5749   3.696   4.853   2.691
 1936TIP3   OH2 5750   6.837   3.446   0.210
 1936TIP3    H1 5751   6.823   3.541   0.216
 1936TIP3    H2 5752   6.806   3.424   0.122
 1937TIP3   OH2 5753   6.611   1.048   2.125
 1937TIP3    H1 5754   6.577   0.995   2.197
 1937TIP3    H2 5755   6.699   1.014   2.110
 1938TIP3   OH2 5756   0.551   3.410   2.915
 1938TIP3    H1 5757   0.552   3.378   3.005
 1938TIP3    H2 5758   0.594   3.495   2.920
 1939TIP3   OH2 5759   5.184   0.030   1.103
 1939TIP3    H1 5760   5.189  -0.059   1.068
 1939TIP3    H2 5761   5.189   0.018   1.198
 1940TIP3   OH2 5762   5.736   7.537   6.680
 1940TIP3    H1 5763   5.742   7.582   6.764
 1940TIP3    H2 5764   5.660   7.577   6.637
 1941TIP3   OH2 5765   6.164   5.395   4.565
 1941TIP3    H1 5766   6.258   5.411   4.559
 1941TIP3    H2 5767   6.153   5.302   4.548
 1942TIP3   OH2 5768   4.537   7.335   3.076
 1942TIP3    H1 5769   4.508   7.303   3.161
 1942TIP3    H2 5770   4.610   7.393   3.095
 1943TIP3   OH2 5771   3.346   5.700   0.208
 1943TIP3    H1 5772   3.259   5.661   0.214
 1943TIP3    H2 5773   3.375   5.680   0.119
 1944TIP3   OH2 5774   3.361   2.397   1.135
 1944TIP3    H1 5775   3.373   2.418   1.227
 1944TIP3    H2 5776   3.418   2.322   1.119
 1945TIP3   OH2 5777   0.587   0.068   4.727
 1945TIP3    H1 5778   0.525   0.130   4.766
 1945TIP3    H2 5779   0.531   0.001   4.688
 1946TIP3   OH2 5780   6.258   0.586   3.029
 1946TIP3    H1 5781   6.291   0.497   3.021
 1946TIP3    H2 5782   6.169   0.576   3.062
 1947TIP3   OH2 5783   1.044   4.018   5.447
 1947TIP3    H1 5784   1.109   4.018   5.518
 1947TIP3    H2 5785   1.076   4.084   5.386
 1948TIP3   OH2 5786   3.708   5.756   3.802
 1948TIP3    H1 5787   3.783   5.783   3.855
 1948TIP3    H2 5788   3.638   5.739   3.865
 1949TIP3   OH2 5789   4.051   6.822   3.061
 1949TIP3    H1 5790   4.098   6.905   3.057
 1949TIP3    H2 5791   4.057   6.787   2.972
 1950TIP3   OH2 5792   0.158   0.414   4.051
 1950TIP3    H1 5793   0.146   0.492   4.106
 1950TIP3    H2 5794   0.072   0.398   4.013
 1951TIP3   OH2 5795   4.712   5.248   4.939
 1951TIP3    H1 5796   4.728   5.157   4.918
 1951TIP3    H2 5797   4.755   5.261   5.023
 1952TIP3   OH2 5798   4.451   7.032   4.804
 1952TIP3    H1 5799   4.435   7.015   4.711
 1952TIP3    H2 5800   4.502   6.957   4.833
 1953TIP3   OH2 5801   6.054   6.632   0.836
 1953TIP3    H1 5802   6.044   6.561   0.901
 1953TIP3    H2 5803   5.966   6.644   0.801
 1954TIP3   OH2 5804   0.029   2.753   2.508
 1954TIP3    H1 5805   0.006   2.729   2.598
 1954TIP3    H2 5806   0.074   2.837   2.517
 1955TIP3   OH2 5807   0.602   5.527   6.218
 1955TIP3    H1 5808   0.538   5.488   6.159
 1955TIP3    H2 5809   0.677   5.469   6.215
 1956TIP3   OH2 5810   0.056   1.230   4.558
 1956TIP3    H1 5811  -0.039   1.243   4.557
 1956TIP3    H2 5812   0.090   1.296   4.498
 1957TIP3   OH2 5813   8.310   5.108   2.873
 1957TIP3    H1 5814   8.220   5.088   2.851
 1957TIP3    H2 5815   8.316   5.090   2.967
 1958TIP3   OH2 5816   7.858   7.032   5.124
 1958TIP3    H1 5817   7.802   7.035   5.047
 1958TIP3    H2 5818   7.947   7.038   5.090
 1959TIP3   OH2 5819   5.862   4.418   3.850
 1959TIP3    H1 5820   5.850   4.453   3.938
 1959TIP3    H2 5821   5.902   4.332   3.864
 1960TIP3   OH2 5822   6.999   1.266   5.582
 1960TIP3    H1 5823   7.055   1.211   5.528
 1960TIP3    H2 5824   6.982   1.213   5.660
 1961TIP3   OH2 5825   4.559   7.288   1.933
 1961TIP3    H1 5826   4.480   7.260   1.887
 1961TIP3    H2 5827   4.526   7.327   2.015
 1962TIP3   OH2 5828   6.738   2.904   3.414
 1962TIP3    H1 5829   6.747   2.989   3.457
 1962TIP3    H2 5830   6.645   2.882   3.426
 1963TIP3   OH2 5831   2.643   6.930   1.068
 1963TIP3    H1 5832   2.698   6.956   0.994
 1963TIP3    H2 5833   2.560   6.903   1.029
 1964TIP3   OH2 5834   4.551   0.901   6.316
 1964TIP3    H1 5835   4.494   0.978   6.315
 1964TIP3    H2 5836   4.492   0.827   6.296
 1965TIP3   OH2 5837   0.429   2.333   2.498
 1965TIP3    H1 5838   0.361   2.324   2.565
 1965TIP3    H2 5839   0.474   2.414   2.520
 1966TIP3   OH2 5840   1.594   6.537   1.253
 1966TIP3    H1 5841   1.624   6.460   1.207
 1966TIP3    H2 5842   1.536   6.582   1.191
 1967TIP3   OH2 5843   3.300   5.194   5.307
 1967TIP3    H1 5844   3.300   5.127   5.375
 1967TIP3    H2 5845   3.373   5.170   5.250
 1968TIP3   OH2 5846   2.307   7.291   3.903
 1968TIP3    H1 5847   2.254   7.370   3.897
 1968TIP3    H2 5848   2.391   7.320   3.938
 1969TIP3   OH2 5849   5.942   1.924   5.055
 1969TIP3    H1 5850   5.959   1.877   4.973
 1969TIP3    H2 5851   6.027   1.961   5.079
 1970TIP3   OH2 5852   0.244   1.034   1.820
 1970TIP3    H1 5853   0.190   1.101   1.779
 1970TIP3    H2 5854   0.194   0.953   1.809
 1971TIP3   OH2 5855   1.036   5.970   2.474
 1971TIP3    H1 5856   0.946   5.999   2.483
 1971TIP3    H2 5857   1.074   6.031   2.410
 1972TIP3   OH2 5858   6.727   1.342   0.278
 1972TIP3    H1 5859   6.644   1.380   0.306
 1972TIP3    H2 5860   6.707   1.249   0.263
 1973TIP3   OH2 5861   2.820   3.057   1.473
 1973TIP3    H1 5862   2.866   3.108   1.406
 1973TIP3    H2 5863   2.839   3.102   1.555
 1974TIP3   OH2 5864   1.564   2.445   1.215
 1974TIP3    H1 5865   1.592   2.354   1.222
 1974TIP3    H2 5866   1.540   2.456   1.122
 1975TIP3   OH2 5867   7.005   4.793   2.432
 1975TIP3    H1 5868   6.997   4.795   2.527
 1975TIP3    H2 5869   6.976   4.705   2.407
 1976TIP3   OH2 5870   3.359   2.421   0.576
 1976TIP3    H1 5871   3.434   2.435   0.518
 1976TIP3    H2 5872   3.290   2.477   0.540
 1977TIP3   OH2 5873   5.515   3.586   2.231
 1977TIP3    H1 5874   5.450   3.642   2.274
 1977TIP3    H2 5875   5.564   3.645   2.174
 1978TIP3   OH2 5876   0.994   7.101   2.172
 1978TIP3    H1 5877   1.079   7.106   2.129
 1978TIP3    H2 5878   1.008   7.138   2.259
 1979TIP3   OH2 5879   1.582   3.453   1.552
 1979TIP3    H1 5880   1.566   3.362   1.579
 1979TIP3    H2 5881   1.677   3.460   1.547
 1980TIP3   OH2 5882   1.707   2.155   1.916
 1980TIP3    H1 5883   1.771   2.088   1.941
 1980TIP3    H2 5884   1.740   2.236   1.954
 1981TIP3   OH2 5885   5.540   4.953   0.314
 1981TIP3    H1 5886   5.532   4.860   0.295
 1981TIP3    H2 5887   5.523   4.960   0.408
 1982TIP3   OH2 5888   0.484   1.224   2.109
 1982TIP3    H1 5889   0.396   1.259   2.124
 1982TIP3    H2 5890   0.487   1.206   2.015
 1983TIP3   OH2 5891   2.947   7.016   5.180
 1983TIP3    H1 5892   2.928   7.031   5.087
 1983TIP3    H2 5893   2.953   6.920   5.188
 1984TIP3   OH2 5894   6.324   1.761   1.867
 1984TIP3    H1 5895   6.403   1.814   1.860
 1984TIP3    H2 5896   6.258   1.820   1.902
 1985TIP3   OH2 5897   2.604   5.688   3.852
 1985TIP3    H1 5898   2.676   5.751   3.863
 1985TIP3    H2 5899   2.593   5.649   3.939
 1986TIP3   OH2 5900   4.561   1.789   6.549
 1986TIP3    H1 5901   4.546   1.870   6.597
 1986TIP3    H2 5902   4.576   1.817   6.459
 1987TIP3   OH2 5903   5.456   7.367   2.361
 1987TIP3    H1 5904   5.491   7.298   2.305
 1987TIP3    H2 5905   5.381   7.327   2.405
 1988TIP3   OH2 5906   2.532   7.343   1.774
 1988TIP3    H1 5907   2.619   7.364   1.739
 1988TIP3    H2 5908   2.472   7.370   1.705
 1989TIP3   OH2 5909   0.256   3.885   4.570
 1989TIP3    H1 5910   0.208   3.923   4.644
 1989TIP3    H2 5911   0.333   3.845   4.609
 1990TIP3   OH2 5912   3.531   0.871   1.787
 1990TIP3    H1 5913   3.480   0.791   1.796
 1990TIP3    H2 5914   3.469   0.941   1.807
 1991TIP3   OH2 5915   4.822   4.807   4.706
 1991TIP3    H1 5916   4.791   4.756   4.631
 1991TIP3    H2 5917   4.904   4.764   4.732
 1992TIP3   OH2 5918   1.866   2.700   3.880
 1992TIP3    H1 5919   1.933   2.675   3.816
 1992TIP3    H2 5920   1.851   2.793   3.863
 1993TIP3   OH2 5921   8.021   5.130   2.179
 1993TIP3    H1 5922   8.022   5.151   2.086
 1993TIP3    H2 5923   8.064   5.204   2.221
 1994TIP3   OH2 5924   4.271   6.796   5.648
 1994TIP3    H1 5925   4.358   6.809   5.611
 1994TIP3    H2 5926   4.257   6.871   5.705
 1995TIP3   OH2 5927   5.822   0.815   1.678
 1995TIP3    H1 5928   5.897   0.756   1.672
 1995TIP3    H2 5929   5.809   0.826   1.772
 1996TIP3   OH2 5930   5.842   1.223   4.659
 1996TIP3    H1 5931   5.919   1.201   4.711
 1996TIP3    H2 5932   5.860   1.186   4.573
 1997TIP3   OH2 5933   8.232   0.552   1.052
 1997TIP3    H1 5934   8.328   0.554   1.049
 1997TIP3    H2 5935   8.206   0.638   1.022
 1998TIP3   OH2 5936   3.919   6.794   5.089
 1998TIP3    H1 5937   3.843   6.804   5.145
 1998TIP3    H2 5938   3.980   6.861   5.119
 1999TIP3   OH2 5939   0.951   3.551   1.185
 1999TIP3    H1 5940   0.902   3.617   1.134
 1999TIP3    H2 5941   0.887   3.520   1.249
 2000TIP3   OH2 5942   7.595   5.870   0.834
 2000TIP3    H1 5943   7.583   5.801   0.768
 2000TIP3    H2 5944   7.658   5.833   0.895
 2001TIP3   OH2 5945   4.973   5.211   2.079
 2001TIP3    H1 5946   4.938   5.127   2.049
 2001TIP3    H2 5947   5.048   5.187   2.133
 2002TIP3   OH2 5948   8.137   7.158   0.718
 2002TIP3    H1 5949   8.221   7.113   0.728
 2002TIP3    H2 5950   8.139   7.226   0.785
 2003TIP3   OH2 5951   5.909   2.146   0.975
 2003TIP3    H1 5952   5.850   2.159   0.900
 2003TIP3    H2 5953   5.855   2.168   1.051
 2004TIP3   OH2 5954   8.270   4.102   4.033
 2004TIP3    H1 5955   8.216   4.181   4.026
 2004TIP3    H2 5956   8.257   4.072   4.123
 2005TIP3   OH2 5957   0.870   6.412   5.554
 2005TIP3    H1 5958   0.868   6.415   5.458
 2005TIP3    H2 5959   0.923   6.336   5.575
 2006TIP3   OH2 5960   7.011   6.891   0.656
 2006TIP3    H1 5961   6.976   6.956   0.718
 2006TIP3    H2 5962   7.090   6.932   0.622
 2007TIP3   OH2 5963   8.200   7.159   1.690
 2007TIP3    H1 5964   8.190   7.070   1.655
 2007TIP3    H2 5965   8.115   7.201   1.674
 2008TIP3   OH2 5966   2.626   1.210   1.653
 2008TIP3    H1 5967   2.650   1.200   1.745
 2008TIP3    H2 5968   2.708   1.197   1.606
 2009TIP3   OH2 5969   6.575   4.685   1.975
 2009TIP3    H1 5970   6.501   4.739   1.947
 2009TIP3    H2 5971   6.565   4.604   1.927
 2010TIP3   OH2 5972   0.467   7.526   6.261
 2010TIP3    H1 5973   0.462   7.608   6.310
 2010TIP3    H2 5974   0.392   7.475   6.292
 2011TIP3   OH2 5975   3.866   2.342   3.164
 2011TIP3    H1 5976   3.939   2.308   3.112
 2011TIP3    H2 5977   3.852   2.275   3.231
 2012TIP3   OH2 5978   3.835   5.363   5.999
 2012TIP3    H1 5979   3.813   5.314   5.919
 2012TIP3    H2 5980   3.911   5.415   5.975
 2013TIP3   OH2 5981   3.140   0.844   5.926
 2013TIP3    H1 5982   3.199   0.858   6.000
 2013TIP3    H2 5983   3.108   0.754   5.937
 2014TIP3   OH2 5984   5.857   6.876   2.177
 2014TIP3    H1 5985   5.846   6.786   2.207
 2014TIP3    H2 5986   5.828   6.875   2.086
 2015TIP3   OH2 5987   7.471   4.615   0.109
 2015TIP3    H1 5988   7.470   4.539   0.167
 2015TIP3    H2 5989   7.393   4.605   0.055
 2016TIP3   OH2 5990   0.162   5.013   4.381
 2016TIP3    H1 5991   0.176   5.100   4.418
 2016TIP3    H2 5992   0.110   5.029   4.302
 2017TIP3   OH2 5993   2.081   2.321   5.747
 2017TIP3    H1 5994   1.989   2.297   5.736
 2017TIP3    H2 5995   2.079   2.412   5.778
 2018TIP3   OH2 5996   0.962   5.695   3.053
 2018TIP3    H1 5997   0.894   5.666   3.115
 2018TIP3    H2 5998   0.946   5.643   2.974
 2019TIP3   OH2 5999   8.048   1.155   5.356
 2019TIP3    H1 6000   8.044   1.069   5.315
 2019TIP3    H2 6001   8.016   1.141   5.445
 2020TIP3   OH2 6002   0.082   1.478   1.038
 2020TIP3    H1 6003   0.057   1.480   0.946
 2020TIP3    H2 6004   0.171   1.442   1.038
 2021TIP3   OH2 6005   8.185   6.748   1.305
 2021TIP3    H1 6006   8.135   6.821   1.341
 2021TIP3    H2 6007   8.147   6.733   1.219
 2022TIP3   OH2 6008   2.108   3.935   1.694
 2022TIP3    H1 6009   2.101   3.942   1.789
 2022TIP3    H2 6010   2.158   3.855   1.679
 2023TIP3   OH2 6011   5.829   4.965   5.826
 2023TIP3    H1 6012   5.744   4.937   5.860
 2023TIP3    H2 6013   5.885   4.971   5.904
 2024TIP3   OH2 6014   3.037   0.544   6.491
 2024TIP3    H1 6015   3.001   0.579   6.409
 2024TIP3    H2 6016   3.113   0.599   6.509
 2025TIP3   OH2 6017   3.822   7.158   1.732
 2025TIP3    H1 6018   3.805   7.189   1.643
 2025TIP3    H2 6019   3.740   7.173   1.779
 2026TIP3   OH2 6020   0.148   4.619   4.704
 2026TIP3    H1 6021   0.187   4.679   4.641
 2026TIP3    H2 6022   0.060   4.602   4.670
 2027TIP3   OH2 6023   2.032   5.425   6.216
 2027TIP3    H1 6024   2.051   5.391   6.128
 2027TIP3    H2 6025   1.974   5.360   6.255
 2028TIP3   OH2 6026   3.499   3.813   6.348
 2028TIP3    H1 6027   3.449   3.776   6.421
 2028TIP3    H2 6028   3.483   3.754   6.275
 2029TIP3   OH2 6029   5.050   1.941   6.499
 2029TIP3    H1 6030   5.122   1.901   6.546
 2029TIP3    H2 6031   4.988   1.869   6.484
 2030TIP3   OH2 6032   2.803   7.405   0.527
 2030TIP3    H1 6033   2.886   7.424   0.571
 2030TIP3    H2 6034   2.796   7.309   0.528
 2031TIP3   OH2 6035   5.728   4.809   3.467
 2031TIP3    H1 6036   5.648   4.824   3.518
 2031TIP3    H2 6037   5.753   4.719   3.488
 2032TIP3   OH2 6038   4.064   4.873   6.733
 2032TIP3    H1 6039   4.020   4.952   6.701
 2032TIP3    H2 6040   4.068   4.815   6.657
 2033TIP3   OH2 6041   0.356   2.124   5.969
 2033TIP3    H1 6042   0.419   2.177   5.920
 2033TIP3    H2 6043   0.317   2.185   6.032
 2034TIP3   OH2 6044   5.355   5.724   0.522
 2034TIP3    H1 6045   5.285   5.770   0.568
 2034TIP3    H2 6046   5.355   5.761   0.434
 2035TIP3   OH2 6047   4.430   7.786   5.233
 2035TIP3    H1 6048   4.341   7.776   5.199
 2035TIP3    H2 6049   4.477   7.711   5.198
 2036TIP3   OH2 6050   8.093   0.462   0.808
 2036TIP3    H1 6051   8.182   0.475   0.774
 2036TIP3    H2 6052   8.099   0.489   0.900
 2037TIP3   OH2 6053   0.084   2.287   4.366
 2037TIP3    H1 6054   0.149   2.231   4.409
 2037TIP3    H2 6055   0.010   2.288   4.425
 2038TIP3   OH2 6056   2.969   6.210   4.925
 2038TIP3    H1 6057   2.995   6.231   4.836
 2038TIP3    H2 6058   2.876   6.232   4.929
 2039TIP3   OH2 6059   6.951   7.413   1.159
 2039TIP3    H1 6060   6.874   7.396   1.212
 2039TIP3    H2 6061   7.023   7.371   1.207
 2040TIP3   OH2 6062   3.310   3.984   1.047
 2040TIP3    H1 6063   3.317   3.890   1.060
 2040TIP3    H2 6064   3.270   4.017   1.127
 2041TIP3   OH2 6065   3.605   4.069   3.822
 2041TIP3    H1 6066   3.684   4.109   3.859
 2041TIP3    H2 6067   3.620   4.069   3.727
 2042TIP3   OH2 6068   6.927   1.431   1.526
 2042TIP3    H1 6069   7.017   1.411   1.500
 2042TIP3    H2 6070   6.904   1.509   1.475
 2043TIP3   OH2 6071   4.467   5.892   5.406
 2043TIP3    H1 6072   4.452   5.861   5.495
 2043TIP3    H2 6073   4.379   5.910   5.371
 2044TIP3   OH2 6074   6.351   0.266   3.702
 2044TIP3    H1 6075   6.363   0.360   3.693
 2044TIP3    H2 6076   6.433   0.235   3.740
 2045TIP3   OH2 6077   7.048   0.396   4.869
 2045TIP3    H1 6078   6.968   0.377   4.820
 2045TIP3    H2 6079   7.110   0.425   4.803
 2046TIP3   OH2 6080   3.490   1.872   4.536
 2046TIP3    H1 6081   3.536   1.919   4.606
 2046TIP3    H2 6082   3.560   1.840   4.479
 2047TIP3   OH2 6083   3.165   2.895   2.790
 2047TIP3    H1 6084   3.126   2.809   2.801
 2047TIP3    H2 6085   3.260   2.879   2.793
 2048TIP3   OH2 6086   4.053   2.247   2.997
 2048TIP3    H1 6087   4.138   2.226   3.036
 2048TIP3    H2 6088   4.073   2.276   2.908
 2049TIP3   OH2 6089   4.934   7.369   6.097
 2049TIP3    H1 6090   4.956   7.280   6.125
 2049TIP3    H2 6091   4.840   7.376   6.111
 2050TIP3   OH2 6092   6.489   3.024   5.669
 2050TIP3    H1 6093   6.452   2.967   5.601
 2050TIP3    H2 6094   6.437   3.005   5.747
 2051TIP3   OH2 6095   2.481   3.144   3.667
 2051TIP3    H1 6096   2.432   3.226   3.654
 2051TIP3    H2 6097   2.514   3.150   3.757
 2052TIP3   OH2 6098   7.194   4.776   4.189
 2052TIP3    H1 6099   7.120   4.735   4.143
 2052TIP3    H2 6100   7.207   4.722   4.266
 2053TIP3   OH2 6101   7.460   0.033   6.142
 2053TIP3    H1 6102   7.538  -0.015   6.116
 2053TIP3    H2 6103   7.448   0.099   6.074
 2054TIP3   OH2 6104   5.496   4.985   2.764
 2054TIP3    H1 6105   5.433   4.918   2.791
 2054TIP3    H2 6106   5.545   5.006   2.844
 2055TIP3   OH2 6107   6.295   6.762   1.958
 2055TIP3    H1 6108   6.380   6.772   2.001
 2055TIP3    H2 6109   6.232   6.767   2.030
 2056TIP3   OH2 6110   6.530   2.087   5.899
 2056TIP3    H1 6111   6.438   2.064   5.907
 2056TIP3    H2 6112   6.569   2.063   5.984
 2057TIP3   OH2 6113   0.790   4.520   4.163
 2057TIP3    H1 6114   0.734   4.552   4.233
 2057TIP3    H2 6115   0.878   4.520   4.200
 2058TIP3   OH2 6116   5.663   4.728   3.940
 2058TIP3    H1 6117   5.603   4.666   3.897
 2058TIP3    H2 6118   5.730   4.745   3.874
 2059TIP3   OH2 6119   2.838   2.194   5.706
 2059TIP3    H1 6120   2.815   2.185   5.799
 2059TIP3    H2 6121   2.932   2.173   5.703
 2060TIP3   OH2 6122   5.498   4.212   1.834
 2060TIP3    H1 6123   5.416   4.200   1.882
 2060TIP3    H2 6124   5.542   4.283   1.880
 2061TIP3   OH2 6125   3.202   4.920   4.938
 2061TIP3    H1 6126   3.288   4.884   4.958
 2061TIP3    H2 6127   3.198   5.002   4.987
 2062TIP3   OH2 6128   3.360   2.161   4.957
 2062TIP3    H1 6129   3.442   2.124   4.923
 2062TIP3    H2 6130   3.320   2.088   5.006
 2063TIP3   OH2 6131   0.239   5.787   1.493
 2063TIP3    H1 6132   0.180   5.863   1.484
 2063TIP3    H2 6133   0.307   5.817   1.553
 2064TIP3   OH2 6134   3.352   3.404   0.690
 2064TIP3    H1 6135   3.402   3.466   0.743
 2064TIP3    H2 6136   3.332   3.452   0.609
 2065TIP3   OH2 6137   2.505   3.679   3.554
 2065TIP3    H1 6138   2.453   3.752   3.587
 2065TIP3    H2 6139   2.584   3.718   3.519
 2066TIP3   OH2 6140   0.026   4.123   5.354
 2066TIP3    H1 6141   0.056   4.128   5.445
 2066TIP3    H2 6142   0.049   4.208   5.317
 2067TIP3   OH2 6143   6.568   4.091   0.055
 2067TIP3    H1 6144   6.564   4.085   0.150
 2067TIP3    H2 6145   6.651   4.050   0.031
 2068TIP3   OH2 6146   6.653   2.850   0.623
 2068TIP3    H1 6147   6.632   2.842   0.530
 2068TIP3    H2 6148   6.636   2.941   0.645
 2069TIP3   OH2 6149   6.903   4.562   4.350
 2069TIP3    H1 6150   6.966   4.580   4.420
 2069TIP3    H2 6151   6.953   4.574   4.270
 2070TIP3   OH2 6152   0.480   4.297   6.799
 2070TIP3    H1 6153   0.506   4.388   6.813
 2070TIP3    H2 6154   0.554   4.257   6.754
 2071TIP3   OH2 6155   4.724   1.041   2.288
 2071TIP3    H1 6156   4.637   1.012   2.262
 2071TIP3    H2 6157   4.776   0.960   2.289
 2072TIP3   OH2 6158   0.918   3.705   2.512
 2072TIP3    H1 6159   0.899   3.710   2.418
 2072TIP3    H2 6160   0.881   3.785   2.548
 2073TIP3   OH2 6161   4.017   6.382   1.079
 2073TIP3    H1 6162   3.998   6.476   1.082
 2073TIP3    H2 6163   4.064   6.365   1.161
 2074TIP3   OH2 6164   2.280   2.808   2.979
 2074TIP3    H1 6165   2.196   2.764   2.986
 2074TIP3    H2 6166   2.345   2.738   2.991
 2075TIP3   OH2 6167   2.966   7.592   5.398
 2075TIP3    H1 6168   3.003   7.547   5.474
 2075TIP3    H2 6169   2.914   7.663   5.435
 2076TIP3   OH2 6170   1.019   2.024   0.172
 2076TIP3    H1 6171   1.022   2.077   0.251
 2076TIP3    H2 6172   1.033   2.086   0.101
 2077TIP3   OH2 6173   7.096   3.047   3.478
 2077TIP3    H1 6174   7.177   3.095   3.462
 2077TIP3    H2 6175   7.064   3.025   3.390
 2078TIP3   OH2 6176   7.901   7.738   0.006
 2078TIP3    H1 6177   7.936   7.686  -0.067
 2078TIP3    H2 6178   7.810   7.710   0.014
 2079TIP3   OH2 6179   6.178   6.045   3.097
 2079TIP3    H1 6180   6.244   6.028   3.164
 2079TIP3    H2 6181   6.227   6.059   3.017
 2080TIP3   OH2 6182   5.237   1.820   2.603
 2080TIP3    H1 6183   5.155   1.870   2.601
 2080TIP3    H2 6184   5.225   1.751   2.538
 2081TIP3   OH2 6185   4.142   7.317   3.684
 2081TIP3    H1 6186   4.135   7.409   3.658
 2081TIP3    H2 6187   4.183   7.274   3.609
 2082TIP3   OH2 6188   7.747   5.981   0.594
 2082TIP3    H1 6189   7.719   5.964   0.684
 2082TIP3    H2 6190   7.836   6.015   0.603
 2083TIP3   OH2 6191   6.686   2.447   1.005
 2083TIP3    H1 6192   6.770   2.467   1.046
 2083TIP3    H2 6193   6.651   2.532   0.978
 2084TIP3   OH2 6194   7.019   6.319   0.440
 2084TIP3    H1 6195   7.110   6.331   0.412
 2084TIP3    H2 6196   6.968   6.374   0.382
 2085TIP3   OH2 6197   7.876   5.789   3.393
 2085TIP3    H1 6198   7.911   5.794   3.482
 2085TIP3    H2 6199   7.925   5.855   3.344
 2086TIP3   OH2 6200   4.492   6.037   0.872
 2086TIP3    H1 6201   4.424   6.079   0.925
 2086TIP3    H2 6202   4.562   6.102   0.866
 2087TIP3   OH2 6203   1.280   4.909   6.147
 2087TIP3    H1 6204   1.325   4.828   6.170
 2087TIP3    H2 6205   1.200   4.908   6.199
 2088TIP3   OH2 6206   2.213   5.445   1.227
 2088TIP3    H1 6207   2.254   5.394   1.156
 2088TIP3    H2 6208   2.148   5.386   1.264
 2089TIP3   OH2 6209   4.510   6.329   3.984
 2089TIP3    H1 6210   4.435   6.291   3.939
 2089TIP3    H2 6211   4.478   6.414   4.015
 2090TIP3   OH2 6212   1.397   2.431   6.546
 2090TIP3    H1 6213   1.433   2.402   6.630
 2090TIP3    H2 6214   1.447   2.381   6.481
 2091TIP3   OH2 6215   3.063   7.805   4.234
 2091TIP3    H1 6216   3.148   7.761   4.234
 2091TIP3    H2 6217   3.083   7.896   4.257
 2092TIP3   OH2 6218   6.701   3.242   0.346
 2092TIP3    H1 6219   6.727   3.332   0.327
 2092TIP3    H2 6220   6.689   3.202   0.260
 2093TIP3   OH2 6221   3.293   7.064   1.774
 2093TIP3    H1 6222   3.240   6.998   1.820
 2093TIP3    H2 6223   3.314   7.128   1.842
 2094TIP3   OH2 6224   3.389   1.450   0.376
 2094TIP3    H1 6225   3.371   1.365   0.335
 2094TIP3    H2 6226   3.306   1.474   0.417
 2095TIP3   OH2 6227   4.035   5.087   6.381
 2095TIP3    H1 6228   4.011   5.153   6.446
 2095TIP3    H2 6229   4.087   5.023   6.430
 2096TIP3   OH2 6230   3.318   2.271   5.982
 2096TIP3    H1 6231   3.246   2.314   5.935
 2096TIP3    H2 6232   3.388   2.266   5.917
 2097TIP3   OH2 6233   1.895   4.530   0.353
 2097TIP3    H1 6234   1.891   4.436   0.370
 2097TIP3    H2 6235   1.941   4.566   0.429
 2098TIP3   OH2 6236   1.701   7.379   4.559
 2098TIP3    H1 6237   1.790   7.386   4.595
 2098TIP3    H2 6238   1.711   7.326   4.480
 2099TIP3   OH2 6239   6.318   5.764   5.296
 2099TIP3    H1 6240   6.296   5.674   5.320
 2099TIP3    H2 6241   6.412   5.761   5.277
 2100TIP3   OH2 6242   0.525   6.297   1.796
 2100TIP3    H1 6243   0.464   6.264   1.862
 2100TIP3    H2 6244   0.525   6.230   1.727
 2101TIP3   OH2 6245   0.799   0.677   5.180
 2101TIP3    H1 6246   0.705   0.692   5.184
 2101TIP3    H2 6247   0.814   0.603   5.238
 2102TIP3   OH2 6248   7.933   5.101   4.761
 2102TIP3    H1 6249   7.922   5.009   4.736
 2102TIP3    H2 6250   8.001   5.134   4.702
 2103TIP3   OH2 6251   2.799   4.033   3.367
 2103TIP3    H1 6252   2.724   3.975   3.382
 2103TIP3    H2 6253   2.762   4.109   3.321
 2104TIP3   OH2 6254   0.972   7.701   5.084
 2104TIP3    H1 6255   0.937   7.617   5.113
 2104TIP3    H2 6256   1.047   7.678   5.030
 2105TIP3   OH2 6257   1.649   7.340   1.338
 2105TIP3    H1 6258   1.634   7.268   1.277
 2105TIP3    H2 6259   1.717   7.393   1.296
 2106TIP3   OH2 6260   6.306   6.861   3.745
 2106TIP3    H1 6261   6.261   6.910   3.676
 2106TIP3    H2 6262   6.238   6.803   3.780
 2107TIP3   OH2 6263   4.607   4.323   0.061
 2107TIP3    H1 6264   4.566   4.373   0.132
 2107TIP3    H2 6265   4.535   4.307   0.000
 2108TIP3   OH2 6266   4.148   4.371   0.826
 2108TIP3    H1 6267   4.138   4.314   0.749
 2108TIP3    H2 6268   4.088   4.335   0.891
 2109TIP3   OH2 6269   1.269   0.362   6.489
 2109TIP3    H1 6270   1.217   0.342   6.411
 2109TIP3    H2 6271   1.342   0.414   6.456
 2110TIP3   OH2 6272   4.625   6.909   3.643
 2110TIP3    H1 6273   4.634   6.860   3.724
 2110TIP3    H2 6274   4.700   6.969   3.642
 2111TIP3   OH2 6275   7.444   1.739   0.956
 2111TIP3    H1 6276   7.358   1.738   0.998
 2111TIP3    H2 6277   7.456   1.649   0.924
 2112TIP3   OH2 6278   2.649   3.904   6.558
 2112TIP3    H1 6279   2.720   3.968   6.558
 2112TIP3    H2 6280   2.570   3.957   6.549
 2113TIP3   OH2 6281   7.015   4.389   2.306
 2113TIP3    H1 6282   6.944   4.453   2.316
 2113TIP3    H2 6283   6.989   4.315   2.360
 2114TIP3   OH2 6284   3.569   0.477   5.877
 2114TIP3    H1 6285   3.604   0.554   5.832
 2114TIP3    H2 6286   3.644   0.419   5.887
 2115TIP3   OH2 6287   6.241   1.129   5.956
 2115TIP3    H1 6288   6.196   1.045   5.954
 2115TIP3    H2 6289   6.181   1.190   5.913
 2116TIP3   OH2 6290   7.072   2.840   1.112
 2116TIP3    H1 6291   7.073   2.828   1.207
 2116TIP3    H2 6292   7.164   2.834   1.087
 2117TIP3   OH2 6293   8.167   3.068   1.389
 2117TIP3    H1 6294   8.253   3.103   1.414
 2117TIP3    H2 6295   8.139   3.017   1.465
 2118TIP3   OH2 6296   1.036   6.401   0.103
 2118TIP3    H1 6297   1.006   6.313   0.081
 2118TIP3    H2 6298   0.984   6.459   0.047
 2119TIP3   OH2 6299   6.724   7.261   2.585
 2119TIP3    H1 6300   6.672   7.217   2.653
 2119TIP3    H2 6301   6.750   7.344   2.624
 2120TIP3   OH2 6302   6.640   1.290   0.624
 2120TIP3    H1 6303   6.615   1.359   0.563
 2120TIP3    H2 6304   6.735   1.302   0.635
 2121TIP3   OH2 6305   0.626   6.637   6.197
 2121TIP3    H1 6306   0.563   6.610   6.131
 2121TIP3    H2 6307   0.679   6.559   6.214
 2122TIP3   OH2 6308   2.240   4.184   4.548
 2122TIP3    H1 6309   2.286   4.255   4.504
 2122TIP3    H2 6310   2.275   4.182   4.637
 2123TIP3   OH2 6311   2.350   4.492   1.643
 2123TIP3    H1 6312   2.280   4.427   1.633
 2123TIP3    H2 6313   2.385   4.504   1.555
 2124TIP3   OH2 6314   1.932   0.089   4.449
 2124TIP3    H1 6315   2.018   0.075   4.409
 2124TIP3    H2 6316   1.937   0.042   4.532
 2125TIP3   OH2 6317   5.584   4.051   0.306
 2125TIP3    H1 6318   5.539   4.014   0.230
 2125TIP3    H2 6319   5.655   4.103   0.269
 2126TIP3   OH2 6320   2.423   2.467   4.765
 2126TIP3    H1 6321   2.512   2.453   4.798
 2126TIP3    H2 6322   2.434   2.530   4.694
 2127TIP3   OH2 6323   5.727   6.369   0.725
 2127TIP3    H1 6324   5.692   6.393   0.811
 2127TIP3    H2 6325   5.738   6.452   0.679
 2128TIP3   OH2 6326   5.312   7.168   4.456
 2128TIP3    H1 6327   5.305   7.263   4.449
 2128TIP3    H2 6328   5.227   7.140   4.490
 2129TIP3   OH2 6329   6.702   2.983   1.782
 2129TIP3    H1 6330   6.633   3.038   1.819
 2129TIP3    H2 6331   6.781   3.036   1.788
 2130TIP3   OH2 6332   7.986   7.314   0.146
 2130TIP3    H1 6333   7.950   7.254   0.081
 2130TIP3    H2 6334   7.927   7.390   0.143
 2131TIP3   OH2 6335   3.722   0.677   5.742
 2131TIP3    H1 6336   3.762   0.761   5.762
 2131TIP3    H2 6337   3.791   0.628   5.698
 2132TIP3   OH2 6338   7.229   2.963   2.835
 2132TIP3    H1 6339   7.275   2.889   2.794
 2132TIP3    H2 6340   7.136   2.947   2.814
 2133TIP3   OH2 6341   4.493   6.368   6.614
 2133TIP3    H1 6342   4.519   6.284   6.578
 2133TIP3    H2 6343   4.529   6.369   6.702
 2134TIP3   OH2 6344   6.342   5.897   1.832
 2134TIP3    H1 6345   6.276   5.870   1.767
 2134TIP3    H2 6346   6.425   5.866   1.795
 2135TIP3   OH2 6347   5.083   5.592   2.553
 2135TIP3    H1 6348   5.170   5.617   2.523
 2135TIP3    H2 6349   5.045   5.545   2.478
 2136TIP3   OH2 6350   0.656   2.507   4.044
 2136TIP3    H1 6351   0.620   2.555   4.118
 2136TIP3    H2 6352   0.740   2.474   4.076
 2137TIP3   OH2 6353   3.579   1.322   5.618
 2137TIP3    H1 6354   3.658   1.357   5.660
 2137TIP3    H2 6355   3.611   1.250   5.564
 2138TIP3   OH2 6356   2.849   5.834   5.204
 2138TIP3    H1 6357   2.907   5.911   5.201
 2138TIP3    H2 6358   2.880   5.784   5.279
 2139TIP3   OH2 6359   1.497   4.066   0.755
 2139TIP3    H1 6360   1.508   4.040   0.847
 2139TIP3    H2 6361   1.582   4.047   0.715
 2140TIP3   OH2 6362   6.383   3.857   0.613
 2140TIP3    H1 6363   6.301   3.824   0.649
 2140TIP3    H2 6364   6.448   3.792   0.638
 2141TIP3   OH2 6365   3.057   4.069   4.063
 2141TIP3    H1 6366   3.007   3.989   4.047
 2141TIP3    H2 6367   2.994   4.140   4.056
 2142TIP3   OH2 6368   3.793   7.488   0.283
 2142TIP3    H1 6369   3.722   7.424   0.287
 2142TIP3    H2 6370   3.798   7.513   0.191
 2143TIP3   OH2 6371   3.175   4.175   5.808
 2143TIP3    H1 6372   3.088   4.215   5.818
 2143TIP3    H2 6373   3.180   4.111   5.879
 2144TIP3   OH2 6374   4.046   7.588   3.049
 2144TIP3    H1 6375   3.968   7.536   3.064
 2144TIP3    H2 6376   4.015   7.666   3.004
 2145TIP3   OH2 6377   7.184   1.198   4.553
 2145TIP3    H1 6378   7.124   1.264   4.588
 2145TIP3    H2 6379   7.267   1.244   4.544
 2146TIP3   OH2 6380   3.652   3.424   1.783
 2146TIP3    H1 6381   3.576   3.409   1.840
 2146TIP3    H2 6382   3.651   3.519   1.767
 2147TIP3   OH2 6383   7.471   5.447   2.480
 2147TIP3    H1 6384   7.391   5.484   2.518
 2147TIP3    H2 6385   7.440   5.382   2.417
 2148TIP3   OH2 6386   5.221   3.270   6.143
 2148TIP3    H1 6387   5.285   3.198   6.144
 2148TIP3    H2 6388   5.251   3.329   6.212
 2149TIP3   OH2 6389   3.902   3.005   1.796
 2149TIP3    H1 6390   3.881   2.912   1.808
 2149TIP3    H2 6391   3.986   3.006   1.751
 2150TIP3   OH2 6392   1.160   0.729   2.505
 2150TIP3    H1 6393   1.178   0.823   2.516
 2150TIP3    H2 6394   1.193   0.689   2.585
 2151TIP3   OH2 6395   2.286   4.357   5.717
 2151TIP3    H1 6396   2.281   4.413   5.640
 2151TIP3    H2 6397   2.224   4.286   5.700
 2152TIP3   OH2 6398   7.554   0.287   0.290
 2152TIP3    H1 6399   7.576   0.194   0.281
 2152TIP3    H2 6400   7.639   0.331   0.292
 2153TIP3   OH2 6401   0.568   4.679   0.098
 2153TIP3    H1 6402   0.642   4.675   0.159
 2153TIP3    H2 6403   0.607   4.664   0.012
 2154TIP3   OH2 6404   0.721   1.327   0.361
 2154TIP3    H1 6405   0.796   1.369   0.404
 2154TIP3    H2 6406   0.760   1.276   0.290
 2155TIP3   OH2 6407   5.994   2.377   3.470
 2155TIP3    H1 6408   5.983   2.426   3.552
 2155TIP3    H2 6409   5.938   2.300   3.481
 2156TIP3   OH2 6410   2.473   0.073   3.899
 2156TIP3    H1 6411   2.457   0.001   3.837
 2156TIP3    H2 6412   2.414   0.055   3.972
 2157TIP3   OH2 6413   6.752   1.154   1.133
 2157TIP3    H1 6414   6.728   1.073   1.088
 2157TIP3    H2 6415   6.755   1.131   1.226
 2158TIP3   OH2 6416   6.289   4.108   3.839
 2158TIP3    H1 6417   6.320   4.018   3.835
 2158TIP3    H2 6418   6.306   4.136   3.929
 2159TIP3   OH2 6419   6.383   2.446   0.283
 2159TIP3    H1 6420   6.383   2.518   0.347
 2159TIP3    H2 6421   6.474   2.417   0.280
 2160TIP3   OH2 6422   7.406   1.311   2.969
 2160TIP3    H1 6423   7.374   1.366   2.897
 2160TIP3    H2 6424   7.490   1.350   2.992
 2161TIP3   OH2 6425   5.412   2.760   0.986
 2161TIP3    H1 6426   5.473   2.691   0.962
 2161TIP3    H2 6427   5.340   2.715   1.031
 2162TIP3   OH2 6428   5.038   4.211   2.099
 2162TIP3    H1 6429   4.995   4.149   2.041
 2162TIP3    H2 6430   5.004   4.191   2.186
 2163TIP3   OH2 6431   2.343   2.804   1.865
 2163TIP3    H1 6432   2.353   2.865   1.938
 2163TIP3    H2 6433   2.257   2.824   1.828
 2164TIP3   OH2 6434   7.463   1.190   3.916
 2164TIP3    H1 6435   7.473   1.106   3.962
 2164TIP3    H2 6436   7.415   1.245   3.978
 2165TIP3   OH2 6437   7.347   1.714   2.859
 2165TIP3    H1 6438   7.323   1.667   2.779
 2165TIP3    H2 6439   7.301   1.669   2.929
 2166TIP3   OH2 6440   3.707   6.936  -0.007
 2166TIP3    H1 6441   3.653   6.888   0.055
 2166TIP3    H2 6442   3.793   6.941   0.035
 2167TIP3   OH2 6443   3.479   4.536   0.107
 2167TIP3    H1 6444   3.491   4.484   0.187
 2167TIP3    H2 6445   3.535   4.613   0.120
 2168TIP3   OH2 6446   4.337   7.091   6.448
 2168TIP3    H1 6447   4.387   7.017   6.414
 2168TIP3    H2 6448   4.246   7.062   6.447
 2169TIP3   OH2 6449   0.990   3.336   5.183
 2169TIP3    H1 6450   0.916   3.378   5.226
 2169TIP3    H2 6451   0.986   3.367   5.092
 2170TIP3   OH2 6452   6.641   2.826   4.830
 2170TIP3    H1 6453   6.617   2.897   4.770
 2170TIP3    H2 6454   6.558   2.800   4.870
 2171TIP3   OH2 6455   0.953   6.939   2.755
 2171TIP3    H1 6456   0.914   7.025   2.764
 2171TIP3    H2 6457   0.962   6.906   2.844
 2172TIP3   OH2 6458   4.549   1.773   5.829
 2172TIP3    H1 6459   4.619   1.741   5.772
 2172TIP3    H2 6460   4.544   1.709   5.900
 2173TIP3   OH2 6461   4.512   5.804   4.064
 2173TIP3    H1 6462   4.583   5.750   4.100
 2173TIP3    H2 6463   4.548   5.892   4.063
 2174TIP3   OH2 6464   1.358   4.967   3.358
 2174TIP3    H1 6465   1.322   5.044   3.401
 2174TIP3    H2 6466   1.321   4.969   3.270
 2175TIP3   OH2 6467   5.913   7.475   2.684
 2175TIP3    H1 6468   5.865   7.517   2.612
 2175TIP3    H2 6469   5.981   7.424   2.641
 2176TIP3   OH2 6470   3.595   5.453   1.313
 2176TIP3    H1 6471   3.626   5.371   1.275
 2176TIP3    H2 6472   3.500   5.441   1.323
 2177TIP3   OH2 6473   5.278   4.847   1.366
 2177TIP3    H1 6474   5.259   4.925   1.315
 2177TIP3    H2 6475   5.195   4.822   1.405
 2178TIP3   OH2 6476   1.512   0.979   1.834
 2178TIP3    H1 6477   1.541   0.917   1.767
 2178TIP3    H2 6478   1.417   0.974   1.832
 2179TIP3   OH2 6479   3.066   5.153   6.113
 2179TIP3    H1 6480   3.152   5.138   6.074
 2179TIP3    H2 6481   3.063   5.247   6.130
 2180TIP3   OH2 6482   4.181   1.906   1.182
 2180TIP3    H1 6483   4.265   1.915   1.138
 2180TIP3    H2 6484   4.118   1.892   1.112
 2181TIP3   OH2 6485   7.733   5.675   3.687
 2181TIP3    H1 6486   7.668   5.726   3.638
 2181TIP3    H2 6487   7.816   5.695   3.645
 2182TIP3   OH2 6488   7.390   0.571   3.529
 2182TIP3    H1 6489   7.426   0.496   3.577
 2182TIP3    H2 6490   7.465   0.630   3.518
 2183TIP3   OH2 6491   3.527   6.870   3.134
 2183TIP3    H1 6492   3.607   6.818   3.128
 2183TIP3    H2 6493   3.469   6.818   3.191
 2184TIP3   OH2 6494   0.799   3.089   5.712
 2184TIP3    H1 6495   0.893   3.072   5.716
 2184TIP3    H2 6496   0.785   3.126   5.626
 2185TIP3   OH2 6497   7.980   0.595   5.547
 2185TIP3    H1 6498   8.004   0.590   5.639
 2185TIP3    H2 6499   7.917   0.667   5.543
 2186TIP3   OH2 6500   6.121   4.171   4.558
 2186TIP3    H1 6501   6.102   4.235   4.627
 2186TIP3    H2 6502   6.180   4.108   4.600
 2187TIP3   OH2 6503   7.379   2.156   4.014
 2187TIP3    H1 6504   7.295   2.167   4.060
 2187TIP3    H2 6505   7.419   2.243   4.017
 2188TIP3   OH2 6506   7.226   5.856   5.258
 2188TIP3    H1 6507   7.319   5.875   5.244
 2188TIP3    H2 6508   7.184   5.880   5.176
 2189TIP3   OH2 6509   0.802   3.482   4.953
 2189TIP3    H1 6510   0.789   3.511   5.043
 2189TIP3    H2 6511   0.894   3.501   4.934
 2190TIP3   OH2 6512   0.526   2.248   3.001
 2190TIP3    H1 6513   0.466   2.178   3.024
 2190TIP3    H2 6514   0.588   2.207   2.939
 2191TIP3   OH2 6515   5.150   6.253   0.496
 2191TIP3    H1 6516   5.094   6.205   0.557
 2191TIP3    H2 6517   5.137   6.210   0.412
 2192TIP3   OH2 6518   3.756   7.666   5.504
 2192TIP3    H1 6519   3.713   7.678   5.419
 2192TIP3    H2 6520   3.691   7.692   5.568
 2193TIP3   OH2 6521   2.779   2.983   6.790
 2193TIP3    H1 6522   2.708   2.941   6.742
 2193TIP3    H2 6523   2.765   3.076   6.776
 2194TIP3   OH2 6524   1.640   5.573   4.731
 2194TIP3    H1 6525   1.559   5.522   4.724
 2194TIP3    H2 6526   1.616   5.649   4.785
 2195TIP3   OH2 6527   3.897   1.823   3.165
 2195TIP3    H1 6528   3.814   1.806   3.119
 2195TIP3    H2 6529   3.957   1.850   3.097
 2196TIP3   OH2 6530   7.227   4.090   6.530
 2196TIP3    H1 6531   7.228   4.126   6.619
 2196TIP3    H2 6532   7.279   4.010   6.536
 2197TIP3   OH2 6533   3.139   2.784   5.275
 2197TIP3    H1 6534   3.110   2.748   5.359
 2197TIP3    H2 6535   3.223   2.741   5.259
 2198TIP3   OH2 6536   5.598   5.911   0.714
 2198TIP3    H1 6537   5.583   5.959   0.796
 2198TIP3    H2 6538   5.565   5.970   0.646
 2199TIP3   OH2 6539   5.573   0.598   6.039
 2199TIP3    H1 6540   5.532   0.626   5.958
 2199TIP3    H2 6541   5.556   0.669   6.101
 2200TIP3   OH2 6542   1.269   0.512   0.071
 2200TIP3    H1 6543   1.174   0.500   0.076
 2200TIP3    H2 6544   1.304   0.423   0.078
 2201TIP3   OH2 6545   3.080   3.046   6.467
 2201TIP3    H1 6546   2.992   3.077   6.485
 2201TIP3    H2 6547   3.118   3.028   6.553
 2202TIP3   OH2 6548   6.856   4.297   0.814
 2202TIP3    H1 6549   6.801   4.364   0.854
 2202TIP3    H2 6550   6.940   4.340   0.798
 2203TIP3   OH2 6551   4.998   5.367   5.816
 2203TIP3    H1 6552   4.964   5.293   5.765
 2203TIP3    H2 6553   5.088   5.343   5.838
 2204TIP3   OH2 6554   4.913   6.227   1.889
 2204TIP3    H1 6555   4.959   6.175   1.955
 2204TIP3    H2 6556   4.936   6.187   1.806
 2205TIP3   OH2 6557   4.895   5.754   5.832
 2205TIP3    H1 6558   4.913   5.848   5.825
 2205TIP3    H2 6559   4.968   5.712   5.786
 2206TIP3   OH2 6560   0.633   5.029   0.733
 2206TIP3    H1 6561   0.645   4.935   0.747
 2206TIP3    H2 6562   0.590   5.060   0.812
 2207TIP3   OH2 6563   0.174   4.835   6.170
 2207TIP3    H1 6564   0.214   4.785   6.098
 2207TIP3    H2 6565   0.083   4.846   6.144
 2208TIP3   OH2 6566   5.771   5.773   3.252
 2208TIP3    H1 6567   5.859   5.735   3.255
 2208TIP3    H2 6568   5.752   5.783   3.159
 2209TIP3   OH2 6569   3.052   7.030   4.664
 2209TIP3    H1 6570   3.029   7.071   4.580
 2209TIP3    H2 6571   3.135   7.071   4.688
 2210TIP3   OH2 6572   2.338   6.304   2.649
 2210TIP3    H1 6573   2.304   6.297   2.738
 2210TIP3    H2 6574   2.422   6.350   2.659
 2211TIP3   OH2 6575   4.084   1.462   0.282
 2211TIP3    H1 6576   4.143   1.473   0.208
 2211TIP3    H2 6577   4.060   1.551   0.308
 2212TIP3   OH2 6578   7.487   4.933   0.445
 2212TIP3    H1 6579   7.505   4.889   0.528
 2212TIP3    H2 6580   7.438   5.012   0.469
 2213TIP3   OH2 6581   2.917   1.136   2.095
 2213TIP3    H1 6582   2.970   1.159   2.172
 2213TIP3    H2 6583   2.851   1.076   2.128
 2214TIP3   OH2 6584   3.625   0.701   0.875
 2214TIP3    H1 6585   3.653   0.792   0.865
 2214TIP3    H2 6586   3.532   0.702   0.852
 2215TIP3   OH2 6587   5.858   0.597   1.902
 2215TIP3    H1 6588   5.813   0.676   1.931
 2215TIP3    H2 6589   5.932   0.588   1.961
 2216TIP3   OH2 6590   8.099   3.153   4.195
 2216TIP3    H1 6591   8.022   3.101   4.218
 2216TIP3    H2 6592   8.155   3.149   4.272
 2217TIP3   OH2 6593   1.492   4.067   6.390
 2217TIP3    H1 6594   1.422   4.016   6.432
 2217TIP3    H2 6595   1.451   4.101   6.311
 2218TIP3   OH2 6596   6.066   1.822   3.965
 2218TIP3    H1 6597   6.129   1.889   3.991
 2218TIP3    H2 6598   6.021   1.859   3.889
 2219TIP3   OH2 6599   4.935   7.713   2.120
 2219TIP3    H1 6600   4.881   7.641   2.089
 2219TIP3    H2 6601   4.975   7.680   2.201
 2220TIP3   OH2 6602   5.353   2.053   0.354
 2220TIP3    H1 6603   5.259   2.059   0.342
 2220TIP3    H2 6604   5.375   1.965   0.324
 2221TIP3   OH2 6605   1.317   2.934   4.642
 2221TIP3    H1 6606   1.412   2.943   4.649
 2221TIP3    H2 6607   1.299   2.934   4.548
 2222TIP3   OH2 6608   0.082   2.883   1.572
 2222TIP3    H1 6609   0.175   2.887   1.550
 2222TIP3    H2 6610   0.079   2.906   1.665
 2223TIP3   OH2 6611   7.074   4.548   1.532
 2223TIP3    H1 6612   7.015   4.475   1.514
 2223TIP3    H2 6613   7.018   4.616   1.568
 2224TIP3   OH2 6614   5.384   3.094   4.790
 2224TIP3    H1 6615   5.477   3.087   4.770
 2224TIP3    H2 6616   5.371   3.185   4.817
 2225TIP3   OH2 6617   7.326   1.632   0.265
 2225TIP3    H1 6618   7.386   1.638   0.191
 2225TIP3    H2 6619   7.262   1.702   0.250
 2226TIP3   OH2 6620   7.700   5.535   0.390
 2226TIP3    H1 6621   7.612   5.497   0.395
 2226TIP3    H2 6622   7.705   5.572   0.302
 2227TIP3   OH2 6623   5.732   2.002   2.966
 2227TIP3    H1 6624   5.822   2.025   2.945
 2227TIP3    H2 6625   5.721   2.024   3.058
 2228TIP3   OH2 6626   5.256   5.209   5.171
 2228TIP3    H1 6627   5.229   5.141   5.109
 2228TIP3    H2 6628   5.175   5.234   5.215
 2229TIP3   OH2 6629   5.460   1.452   5.960
 2229TIP3    H1 6630   5.446   1.358   5.973
 2229TIP3    H2 6631   5.375   1.492   5.979
 2230TIP3   OH2 6632   4.898   1.249   2.820
 2230TIP3    H1 6633   4.932   1.199   2.745
 2230TIP3    H2 6634   4.942   1.334   2.814
 2231TIP3   OH2 6635   8.227   6.346   3.884
 2231TIP3    H1 6636   8.311   6.331   3.841
 2231TIP3    H2 6637   8.162   6.327   3.817
 2232TIP3   OH2 6638   4.162   2.872   5.993
 2232TIP3    H1 6639   4.187   2.780   6.003
 2232TIP3    H2 6640   4.110   2.891   6.071
 2233TIP3   OH2 6641   4.150   4.617   2.373
 2233TIP3    H1 6642   4.187   4.529   2.370
 2233TIP3    H2 6643   4.094   4.621   2.296
 2234TIP3   OH2 6644   5.555   4.073   4.782
 2234TIP3    H1 6645   5.629   4.075   4.722
 2234TIP3    H2 6646   5.503   4.151   4.759
 2235TIP3   OH2 6647   7.565   1.652   0.490
 2235TIP3    H1 6648   7.492   1.635   0.431
 2235TIP3    H2 6649   7.526   1.701   0.563
 2236TIP3   OH2 6650   8.149   3.778   0.474
 2236TIP3    H1 6651   8.065   3.822   0.460
 2236TIP3    H2 6652   8.194   3.832   0.539
 2237TIP3   OH2 6653   7.676   5.789   3.062
 2237TIP3    H1 6654   7.602   5.848   3.063
 2237TIP3    H2 6655   7.653   5.721   3.126
 2238TIP3   OH2 6656   2.816   0.266   2.266
 2238TIP3    H1 6657   2.842   0.308   2.185
 2238TIP3    H2 6658   2.883   0.199   2.282
 2239TIP3   OH2 6659   1.358   6.031   2.160
 2239TIP3    H1 6660   1.389   5.985   2.238
 2239TIP3    H2 6661   1.375   6.123   2.178
 2240TIP3   OH2 6662   5.012   2.745   4.672
 2240TIP3    H1 6663   5.032   2.796   4.593
 2240TIP3    H2 6664   4.988   2.811   4.737
 2241TIP3   OH2 6665   7.883   1.137   6.113
 2241TIP3    H1 6666   7.976   1.115   6.122
 2241TIP3    H2 6667   7.838   1.073   6.168
 2242TIP3   OH2 6668   0.929   6.298   3.240
 2242TIP3    H1 6669   0.949   6.205   3.224
 2242TIP3    H2 6670   1.008   6.332   3.282
 2243TIP3   OH2 6671   5.511   0.388   3.035
 2243TIP3    H1 6672   5.428   0.341   3.043
 2243TIP3    H2 6673   5.578   0.325   3.061
 2244TIP3   OH2 6674   3.174   4.566   2.403
 2244TIP3    H1 6675   3.183   4.509   2.327
 2244TIP3    H2 6676   3.081   4.561   2.426
 2245TIP3   OH2 6677   2.006   7.600   5.999
 2245TIP3    H1 6678   1.953   7.650   5.937
 2245TIP3    H2 6679   1.974   7.626   6.085
 2246TIP3   OH2 6680   2.153   6.047   2.696
 2246TIP3    H1 6681   2.169   6.066   2.788
 2246TIP3    H2 6682   2.146   5.952   2.691
 2247TIP3   OH2 6683   4.964   6.116   0.646
 2247TIP3    H1 6684   4.985   6.133   0.738
 2247TIP3    H2 6685   4.869   6.125   0.641
 2248TIP3   OH2 6686   8.044   4.708   6.087
 2248TIP3    H1 6687   7.973   4.762   6.121
 2248TIP3    H2 6688   8.050   4.635   6.148
 2249TIP3   OH2 6689   4.859   0.639   5.113
 2249TIP3    H1 6690   4.928   0.576   5.133
 2249TIP3    H2 6691   4.882   0.716   5.165
 2250TIP3   OH2 6692   0.083   3.289   6.244
 2250TIP3    H1 6693   0.172   3.311   6.274
 2250TIP3    H2 6694   0.072   3.197   6.267
 2251TIP3   OH2 6695   3.672   4.547   5.046
 2251TIP3    H1 6696   3.692   4.614   5.112
 2251TIP3    H2 6697   3.757   4.528   5.005
 2252TIP3   OH2 6698   3.047   3.809   6.280
 2252TIP3    H1 6699   3.088   3.886   6.240
 2252TIP3    H2 6700   3.119   3.765   6.326
 2253TIP3   OH2 6701   3.823   2.222   5.960
 2253TIP3    H1 6702   3.863   2.257   6.039
 2253TIP3    H2 6703   3.856   2.132   5.954
 2254TIP3   OH2 6704   7.491   0.574   0.277
 2254TIP3    H1 6705   7.521   0.483   0.280
 2254TIP3    H2 6706   7.509   0.602   0.187
 2255TIP3   OH2 6707   5.593   4.412   5.231
 2255TIP3    H1 6708   5.609   4.363   5.150
 2255TIP3    H2 6709   5.681   4.436   5.261
 2256TIP3   OH2 6710   3.030   3.371   6.274
 2256TIP3    H1 6711   2.963   3.322   6.322
 2256TIP3    H2 6712   2.988   3.395   6.191
 2257TIP3   OH2 6713   5.958   1.093   2.838
 2257TIP3    H1 6714   5.940   1.181   2.807
 2257TIP3    H2 6715   6.018   1.105   2.911
 2258TIP3   OH2 6716   5.313   7.495   0.994
 2258TIP3    H1 6717   5.253   7.568   0.978
 2258TIP3    H2 6718   5.256   7.420   1.011
 2259TIP3   OH2 6719   0.088   2.637   5.271
 2259TIP3    H1 6720   0.004   2.663   5.309
 2259TIP3    H2 6721   0.106   2.551   5.309
 2260TIP3   OH2 6722   0.716   4.988   6.399
 2260TIP3    H1 6723   0.741   5.034   6.479
 2260TIP3    H2 6724   0.655   4.921   6.428
 2261TIP3   OH2 6725   4.462   3.699   6.651
 2261TIP3    H1 6726   4.419   3.784   6.660
 2261TIP3    H2 6727   4.396   3.636   6.679
 2262TIP3   OH2 6728   1.220   2.432   0.521
 2262TIP3    H1 6729   1.278   2.440   0.446
 2262TIP3    H2 6730   1.210   2.521   0.553
 2263TIP3   OH2 6731   7.771   0.540   6.592
 2263TIP3    H1 6732   7.705   0.553   6.660
 2263TIP3    H2 6733   7.830   0.473   6.628
 2264TIP3   OH2 6734   6.029   0.491   3.177
 2264TIP3    H1 6735   5.965   0.480   3.107
 2264TIP3    H2 6736   5.985   0.457   3.255
 2265TIP3   OH2 6737   4.011   5.374   0.242
 2265TIP3    H1 6738   3.968   5.436   0.183
 2265TIP3    H2 6739   4.081   5.424   0.284
 2266TIP3   OH2 6740   2.434   0.144   2.745
 2266TIP3    H1 6741   2.339   0.136   2.734
 2266TIP3    H2 6742   2.468   0.147   2.656
 2267TIP3   OH2 6743   1.919   0.646   5.690
 2267TIP3    H1 6744   1.890   0.720   5.637
 2267TIP3    H2 6745   2.011   0.665   5.709
 2268TIP3   OH2 6746   3.289   4.050   6.768
 2268TIP3    H1 6747   3.380   4.048   6.798
 2268TIP3    H2 6748   3.293   4.087   6.681
 2269TIP3   OH2 6749   5.402   2.188   1.687
 2269TIP3    H1 6750   5.427   2.144   1.768
 2269TIP3    H2 6751   5.325   2.239   1.711
 2270TIP3   OH2 6752   4.770   2.950   3.552
 2270TIP3    H1 6753   4.811   2.980   3.471
 2270TIP3    H2 6754   4.827   2.985   3.621
 2271TIP3   OH2 6755   6.893   3.176   4.962
 2271TIP3    H1 6756   6.912   3.245   4.899
 2271TIP3    H2 6757   6.912   3.215   5.047
 2272TIP3   OH2 6758   0.953   1.662   1.343
 2272TIP3    H1 6759   0.959   1.694   1.253
 2272TIP3    H2 6760   0.920   1.737   1.392
 2273TIP3   OH2 6761   6.688   0.388   1.551
 2273TIP3    H1 6762   6.665   0.453   1.617
 2273TIP3    H2 6763   6.763   0.426   1.505
 2274TIP3   OH2 6764   0.773   7.736   4.888
 2274TIP3    H1 6765   0.853   7.753   4.938
 2274TIP3    H2 6766   0.799   7.669   4.825
 2275TIP3   OH2 6767   1.805   4.587   3.800
 2275TIP3    H1 6768   1.825   4.496   3.779
 2275TIP3    H2 6769   1.782   4.627   3.716
 2276TIP3   OH2 6770   2.594   0.179   1.799
 2276TIP3    H1 6771   2.545   0.103   1.766
 2276TIP3    H2 6772   2.653   0.203   1.728
 2277TIP3   OH2 6773   0.891   4.306   0.564
 2277TIP3    H1 6774   0.925   4.223   0.531
 2277TIP3    H2 6775   0.930   4.372   0.507
 2278TIP3   OH2 6776   4.392   5.090   0.936
 2278TIP3    H1 6777   4.441   5.084   1.018
 2278TIP3    H2 6778   4.391   5.000   0.902
 2279TIP3   OH2 6779   6.444   3.719   2.411
 2279TIP3    H1 6780   6.397   3.666   2.476
 2279TIP3    H2 6781   6.524   3.746   2.456
 2280TIP3   OH2 6782   0.064   7.448   0.461
 2280TIP3    H1 6783   0.145   7.402   0.439
 2280TIP3    H2 6784   0.001   7.417   0.395
 2281TIP3   OH2 6785   5.905   7.727   2.815
 2281TIP3    H1 6786   5.809   7.725   2.810
 2281TIP3    H2 6787   5.931   7.635   2.815
 2282TIP3   OH2 6788   5.549   3.763   3.304
 2282TIP3    H1 6789   5.471   3.817   3.314
 2282TIP3    H2 6790   5.574   3.774   3.212
 2283TIP3   OH2 6791   3.609   2.263   1.389
 2283TIP3    H1 6792   3.534   2.321   1.399
 2283TIP3    H2 6793   3.587   2.186   1.440
 2284TIP3   OH2 6794   3.175   1.118   4.927
 2284TIP3    H1 6795   3.179   1.044   4.988
 2284TIP3    H2 6796   3.138   1.080   4.847
 2285TIP3   OH2 6797   8.057   6.736   0.050
 2285TIP3    H1 6798   7.973   6.714   0.092
 2285TIP3    H2 6799   8.068   6.668  -0.016
 2286TIP3   OH2 6800   7.476   4.216   4.194
 2286TIP3    H1 6801   7.500   4.302   4.161
 2286TIP3    H2 6802   7.544   4.194   4.257
 2287TIP3   OH2 6803   3.935   7.697   0.407
 2287TIP3    H1 6804   3.869   7.634   0.380
 2287TIP3    H2 6805   3.975   7.659   0.485
 2288TIP3   OH2 6806   4.788   7.457   0.476
 2288TIP3    H1 6807   4.865   7.488   0.428
 2288TIP3    H2 6808   4.752   7.536   0.516
 2289TIP3   OH2 6809   4.003   4.039   6.622
 2289TIP3    H1 6810   3.992   4.054   6.529
 2289TIP3    H2 6811   3.982   3.947   6.635
 2290TIP3   OH2 6812   1.089   3.108   5.783
 2290TIP3    H1 6813   1.118   3.037   5.726
 2290TIP3    H2 6814   1.157   3.113   5.851
 2291TIP3   OH2 6815   5.980   3.451   0.870
 2291TIP3    H1 6816   6.015   3.382   0.927
 2291TIP3    H2 6817   6.051   3.514   0.863
 2292TIP3   OH2 6818   2.742   4.471   2.912
 2292TIP3    H1 6819   2.711   4.434   2.995
 2292TIP3    H2 6820   2.755   4.395   2.855
 2293TIP3   OH2 6821   0.579   7.592   4.046
 2293TIP3    H1 6822   0.539   7.621   3.965
 2293TIP3    H2 6823   0.637   7.664   4.071
 2294TIP3   OH2 6824   1.964   1.721   2.124
 2294TIP3    H1 6825   2.031   1.785   2.147
 2294TIP3    H2 6826   2.006   1.636   2.140
 2295TIP3   OH2 6827   0.894   4.269   4.015
 2295TIP3    H1 6828   0.833   4.216   3.964
 2295TIP3    H2 6829   0.840   4.341   4.049
 2296TIP3   OH2 6830   3.600   1.934   6.251
 2296TIP3    H1 6831   3.562   1.964   6.168
 2296TIP3    H2 6832   3.668   1.872   6.225
 2297TIP3   OH2 6833   6.423   7.596   5.824
 2297TIP3    H1 6834   6.474   7.636   5.894
 2297TIP3    H2 6835   6.445   7.503   5.828
 2298TIP3   OH2 6836   0.820   6.435   6.726
 2298TIP3    H1 6837   0.802   6.525   6.701
 2298TIP3    H2 6838   0.817   6.435   6.821
 2299TIP3   OH2 6839   4.604   4.396   2.171
 2299TIP3    H1 6840   4.606   4.440   2.086
 2299TIP3    H2 6841   4.639   4.309   2.153
 2300TIP3   OH2 6842   5.051   2.037   2.559
 2300TIP3    H1 6843   5.061   2.092   2.637
 2300TIP3    H2 6844   5.103   2.080   2.492
 2301TIP3   OH2 6845   5.770   1.370   6.335
 2301TIP3    H1 6846   5.741   1.355   6.425
 2301TIP3    H2 6847   5.787   1.283   6.300
 2302TIP3   OH2 6848   2.928   2.905   1.012
 2302TIP3    H1 6849   2.975   2.828   1.045
 2302TIP3    H2 6850   2.996   2.959   0.972
 2303TIP3   OH2 6851   3.399   2.705   5.172
 2303TIP3    H1 6852   3.429   2.795   5.177
 2303TIP3    H2 6853   3.480   2.653   5.164
 2304TIP3   OH2 6854   3.055   1.576   1.588
 2304TIP3    H1 6855   3.136   1.530   1.610
 2304TIP3    H2 6856   3.048   1.647   1.652
 2305TIP3   OH2 6857   6.113   2.326   0.950
 2305TIP3    H1 6858   6.064   2.246   0.970
 2305TIP3    H2 6859   6.198   2.313   0.993
 2306TIP3   OH2 6860   7.701   2.188   0.168
 2306TIP3    H1 6861   7.734   2.264   0.121
 2306TIP3    H2 6862   7.750   2.187   0.250
 2307TIP3   OH2 6863   6.695   5.911   4.892
 2307TIP3    H1 6864   6.673   5.974   4.823
 2307TIP3    H2 6865   6.703   5.964   4.972
 2308TIP3   OH2 6866   7.825   6.530   5.276
 2308TIP3    H1 6867   7.754   6.540   5.211
 2308TIP3    H2 6868   7.840   6.436   5.280
 2309TIP3   OH2 6869   8.203   3.137   2.527
 2309TIP3    H1 6870   8.168   3.091   2.451
 2309TIP3    H2 6871   8.281   3.183   2.494
 2310TIP3   OH2 6872   0.571   7.247   2.116
 2310TIP3    H1 6873   0.538   7.174   2.168
 2310TIP3    H2 6874   0.493   7.287   2.078
 2311TIP3   OH2 6875   3.080   0.863   0.686
 2311TIP3    H1 6876   3.064   0.856   0.591
 2311TIP3    H2 6877   3.172   0.839   0.697
 2312TIP3   OH2 6878   4.409   1.892   6.016
 2312TIP3    H1 6879   4.451   1.876   5.932
 2312TIP3    H2 6880   4.357   1.813   6.033
 2313TIP3   OH2 6881   3.294   3.908  -0.012
 2313TIP3    H1 6882   3.297   3.996   0.028
 2313TIP3    H2 6883   3.336   3.851   0.052
 2314TIP3   OH2 6884   4.505   6.526   5.182
 2314TIP3    H1 6885   4.500   6.622   5.186
 2314TIP3    H2 6886   4.415   6.498   5.167
 2315TIP3   OH2 6887   7.016   1.483   5.217
 2315TIP3    H1 6888   7.037   1.568   5.179
 2315TIP3    H2 6889   7.100   1.449   5.247
 2316TIP3   OH2 6890   4.004   3.998   1.799
 2316TIP3    H1 6891   3.963   3.911   1.795
 2316TIP3    H2 6892   3.999   4.032   1.710
 2317TIP3   OH2 6893   6.270   2.369   3.738
 2317TIP3    H1 6894   6.291   2.462   3.744
 2317TIP3    H2 6895   6.177   2.364   3.760
 2318TIP3   OH2 6896   3.660   1.759   3.051
 2318TIP3    H1 6897   3.706   1.755   2.967
 2318TIP3    H2 6898   3.580   1.708   3.037
 2319TIP3   OH2 6899   4.838   5.405   4.770
 2319TIP3    H1 6900   4.923   5.365   4.754
 2319TIP3    H2 6901   4.798   5.349   4.837
 2320TIP3   OH2 6902   1.961   7.310   0.941
 2320TIP3    H1 6903   1.971   7.405   0.951
 2320TIP3    H2 6904   2.008   7.290   0.859
 2321TIP3   OH2 6905   1.142   6.848   0.412
 2321TIP3    H1 6906   1.195   6.770   0.428
 2321TIP3    H2 6907   1.172   6.882   0.328
 2322TIP3   OH2 6908   0.831   3.799   3.871
 2322TIP3    H1 6909   0.900   3.741   3.837
 2322TIP3    H2 6910   0.798   3.753   3.948
 2323TIP3   OH2 6911   3.973   5.720   3.333
 2323TIP3    H1 6912   4.057   5.728   3.379
 2323TIP3    H2 6913   3.912   5.770   3.385
 2324TIP3   OH2 6914   4.765   0.474   6.205
 2324TIP3    H1 6915   4.805   0.477   6.292
 2324TIP3    H2 6916   4.810   0.542   6.155
 2325TIP3   OH2 6917   1.366   1.628   6.018
 2325TIP3    H1 6918   1.330   1.656   6.102
 2325TIP3    H2 6919   1.341   1.698   5.957
 2326TIP3   OH2 6920   2.066   7.467   5.739
 2326TIP3    H1 6921   1.986   7.446   5.689
 2326TIP3    H2 6922   2.130   7.401   5.711
 2327TIP3   OH2 6923   7.446   4.840   2.519
 2327TIP3    H1 6924   7.527   4.822   2.472
 2327TIP3    H2 6925   7.402   4.755   2.523
 2328TIP3   OH2 6926   0.334   7.113   6.488
 2328TIP3    H1 6927   0.276   7.189   6.479
 2328TIP3    H2 6928   0.323   7.085   6.579
 2329TIP3   OH2 6929   3.275   5.988   6.550
 2329TIP3    H1 6930   3.370   5.982   6.539
 2329TIP3    H2 6931   3.245   6.042   6.477
 2330TIP3   OH2 6932   8.241   4.799   4.505
 2330TIP3    H1 6933   8.230   4.704   4.501
 2330TIP3    H2 6934   8.242   4.828   4.414
 2331TIP3   OH2 6935   3.693   4.912   6.554
 2331TIP3    H1 6936   3.636   4.840   6.525
 2331TIP3    H2 6937   3.673   4.984   6.495
 2332TIP3   OH2 6938   3.682   2.783   5.693
 2332TIP3    H1 6939   3.646   2.820   5.612
 2332TIP3    H2 6940   3.774   2.810   5.693
 2333TIP3   OH2 6941   3.461   4.263   1.585
 2333TIP3    H1 6942   3.421   4.284   1.501
 2333TIP3    H2 6943   3.549   4.300   1.581
 2334TIP3   OH2 6944   1.769   4.893   0.807
 2334TIP3    H1 6945   1.676   4.876   0.820
 2334TIP3    H2 6946   1.781   4.886   0.712
 2335TIP3   OH2 6947   2.836   4.986   1.670
 2335TIP3    H1 6948   2.914   5.041   1.664
 2335TIP3    H2 6949   2.843   4.927   1.595
 2336TIP3   OH2 6950   0.122   2.571   1.702
 2336TIP3    H1 6951   0.210   2.607   1.696
 2336TIP3    H2 6952   0.068   2.645   1.729
 2337TIP3   OH2 6953   6.714   6.587   3.400
 2337TIP3    H1 6954   6.628   6.547   3.414
 2337TIP3    H2 6955   6.698   6.657   3.337
 2338TIP3   OH2 6956   2.077   7.052   5.833
 2338TIP3    H1 6957   2.037   7.138   5.826
 2338TIP3    H2 6958   2.148   7.064   5.897
 2339TIP3   OH2 6959   4.803   6.310   2.229
 2339TIP3    H1 6960   4.711   6.289   2.215
 2339TIP3    H2 6961   4.810   6.325   2.323
 2340TIP3   OH2 6962   0.476   1.544   5.574
 2340TIP3    H1 6963   0.510   1.455   5.577
 2340TIP3    H2 6964   0.554   1.600   5.576
 2341TIP3   OH2 6965   1.666   0.072   4.779
 2341TIP3    H1 6966   1.760   0.072   4.761
 2341TIP3    H2 6967   1.659   0.091   4.872
 2342TIP3   OH2 6968   3.599   0.066   4.608
 2342TIP3    H1 6969   3.517   0.053   4.655
 2342TIP3    H2 6970   3.596   0.157   4.578
 2343TIP3   OH2 6971   0.961   1.498   4.856
 2343TIP3    H1 6972   1.021   1.570   4.837
 2343TIP3    H2 6973   0.876   1.540   4.864
 2344TIP3   OH2 6974   0.382   5.715   1.122
 2344TIP3    H1 6975   0.448   5.737   1.188
 2344TIP3    H2 6976   0.336   5.639   1.159
 2345TIP3   OH2 6977   2.921   0.848   1.989
 2345TIP3    H1 6978   2.841   0.873   2.035
 2345TIP3    H2 6979   2.955   0.774   2.038
 2346TIP3   OH2 6980   6.942   2.860   2.528
 2346TIP3    H1 6981   6.923   2.941   2.482
 2346TIP3    H2 6982   7.033   2.869   2.557
 2347TIP3   OH2 6983   5.959   4.489   6.119
 2347TIP3    H1 6984   5.955   4.414   6.178
 2347TIP3    H2 6985   6.048   4.523   6.128
 2348TIP3   OH2 6986   4.635   5.379   3.351
 2348TIP3    H1 6987   4.590   5.367   3.268
 2348TIP3    H2 6988   4.595   5.458   3.389
 2349TIP3   OH2 6989   6.765   4.124   2.307
 2349TIP3    H1 6990   6.749   4.138   2.213
 2349TIP3    H2 6991   6.714   4.046   2.328
 2350TIP3   OH2 6992   5.524   1.472   5.252
 2350TIP3    H1 6993   5.478   1.390   5.265
 2350TIP3    H2 6994   5.596   1.450   5.193
 2351TIP3   OH2 6995   1.706   5.509   3.647
 2351TIP3    H1 6996   1.734   5.574   3.582
 2351TIP3    H2 6997   1.754   5.534   3.726
 2352TIP3   OH2 6998   0.752   4.226   1.029
 2352TIP3    H1 6999   0.739   4.142   1.074
 2352TIP3    H2 7000   0.732   4.292   1.095
 2353TIP3   OH2 7001   5.442   3.419   3.593
 2353TIP3    H1 7002   5.444   3.463   3.678
 2353TIP3    H2 7003   5.434   3.326   3.615
 2354TIP3   OH2 7004   2.945   1.638   4.820
 2354TIP3    H1 7005   3.021   1.626   4.763
 2354TIP3    H2 7006   2.975   1.609   4.906
 2355TIP3   OH2 7007   3.274   5.369   1.924
 2355TIP3    H1 7008   3.196   5.378   1.869
 2355TIP3    H2 7009   3.247   5.311   1.995
 2356TIP3   OH2 7010   4.327   4.568   0.446
 2356TIP3    H1 7011   4.372   4.586   0.528
 2356TIP3    H2 7012   4.282   4.649   0.424
 2357TIP3   OH2 7013   1.160   5.917   5.789
 2357TIP3    H1 7014   1.070   5.912   5.821
 2357TIP3    H2 7015   1.191   6.003   5.820
 2358TIP3   OH2 7016   1.387   5.312   3.561
 2358TIP3    H1 7017   1.417   5.374   3.628
 2358TIP3    H2 7018   1.412   5.352   3.478
 2359TIP3   OH2 7019   5.981   5.404   3.857
 2359TIP3    H1 7020   5.911   5.457   3.818
 2359TIP3    H2 7021   5.962   5.315   3.828
 2360TIP3   OH2 7022   8.167   4.114   0.287
 2360TIP3    H1 7023   8.083   4.069   0.281
 2360TIP3    H2 7024   8.229   4.052   0.248
 2361TIP3   OH2 7025   2.319   3.765   1.224
 2361TIP3    H1 7026   2.344   3.828   1.292
 2361TIP3    H2 7027   2.232   3.793   1.196
 2362TIP3   OH2 7028   0.265   3.503   0.567
 2362TIP3    H1 7029   0.354   3.525   0.592
 2362TIP3    H2 7030   0.274   3.426   0.511
 2363TIP3   OH2 7031   4.358   4.738   1.751
 2363TIP3    H1 7032   4.264   4.751   1.738
 2363TIP3    H2 7033   4.393   4.728   1.663
 2364TIP3   OH2 7034   2.411   1.660   2.020
 2364TIP3    H1 7035   2.443   1.690   2.105
 2364TIP3    H2 7036   2.490   1.652   1.966
 2365TIP3   OH2 7037   4.797   0.407   3.127
 2365TIP3    H1 7038   4.794   0.418   3.222
 2365TIP3    H2 7039   4.720   0.454   3.096
 2366TIP3   OH2 7040   1.300   3.620   5.835
 2366TIP3    H1 7041   1.208   3.622   5.810
 2366TIP3    H2 7042   1.321   3.710   5.860
 2367TIP3   OH2 7043   4.812   5.078   5.943
 2367TIP3    H1 7044   4.739   5.021   5.967
 2367TIP3    H2 7045   4.889   5.020   5.949
 2368TIP3   OH2 7046   1.507   0.481   2.175
 2368TIP3    H1 7047   1.568   0.555   2.184
 2368TIP3    H2 7048   1.427   0.511   2.219
 2369TIP3   OH2 7049   0.685   4.271   4.419
 2369TIP3    H1 7050   0.657   4.259   4.329
 2369TIP3    H2 7051   0.645   4.198   4.466
 2370TIP3   OH2 7052   5.721   6.750   6.213
 2370TIP3    H1 7053   5.735   6.766   6.119
 2370TIP3    H2 7054   5.708   6.838   6.249
 2371TIP3   OH2 7055   5.704   3.587   3.920
 2371TIP3    H1 7056   5.787   3.556   3.956
 2371TIP3    H2 7057   5.726   3.616   3.831
 2372TIP3   OH2 7058   3.516   6.771   6.034
 2372TIP3    H1 7059   3.498   6.793   6.125
 2372TIP3    H2 7060   3.603   6.732   6.035
 2373TIP3   OH2 7061   6.870   3.332   5.195
 2373TIP3    H1 7062   6.954   3.351   5.237
 2373TIP3    H2 7063   6.833   3.418   5.174
 2374TIP3   OH2 7064   0.140   0.462   4.496
 2374TIP3    H1 7065   0.145   0.514   4.576
 2374TIP3    H2 7066   0.047   0.453   4.478
 2375TIP3   OH2 7067   5.415   3.194   0.013
 2375TIP3    H1 7068   5.343   3.193   0.075
 2375TIP3    H2 7069   5.460   3.111   0.027
 2376TIP3   OH2 7070   0.725   6.012   1.672
 2376TIP3    H1 7071   0.809   6.056   1.654
 2376TIP3    H2 7072   0.724   6.001   1.767
 2377TIP3   OH2 7073   0.715   6.305   6.472
 2377TIP3    H1 7074   0.760   6.335   6.552
 2377TIP3    H2 7075   0.754   6.358   6.402
 2378TIP3   OH2 7076   6.287   3.267   5.000
 2378TIP3    H1 7077   6.233   3.264   4.921
 2378TIP3    H2 7078   6.264   3.187   5.047
 2379TIP3   OH2 7079   1.998   1.723   0.103
 2379TIP3    H1 7080   2.061   1.744   0.173
 2379TIP3    H2 7081   2.048   1.732   0.022
 2380TIP3   OH2 7082   7.525   1.276   5.503
 2380TIP3    H1 7083   7.592   1.343   5.498
 2380TIP3    H2 7084   7.443   1.324   5.513
 2381TIP3   OH2 7085   6.027   6.614   1.966
 2381TIP3    H1 7086   5.935   6.594   1.980
 2381TIP3    H2 7087   6.069   6.529   1.953
 2382TIP3   OH2 7088   4.691   5.563   3.577
 2382TIP3    H1 7089   4.703   5.649   3.617
 2382TIP3    H2 7090   4.768   5.513   3.604
 2383TIP3   OH2 7091   6.540   6.539   4.492
 2383TIP3    H1 7092   6.635   6.539   4.504
 2383TIP3    H2 7093   6.522   6.455   4.449
 2384TIP3   OH2 7094   7.846   3.712   0.175
 2384TIP3    H1 7095   7.812   3.699   0.263
 2384TIP3    H2 7096   7.932   3.671   0.176
 2385TIP3   OH2 7097   6.735   6.666   1.936
 2385TIP3    H1 7098   6.667   6.606   1.967
 2385TIP3    H2 7099   6.763   6.713   2.015
 2386TIP3   OH2 7100   5.681   5.210   6.036
 2386TIP3    H1 7101   5.621   5.272   6.078
 2386TIP3    H2 7102   5.668   5.128   6.083
 2387TIP3   OH2 7103   6.860   0.356   4.056
 2387TIP3    H1 7104   6.892   0.422   4.118
 2387TIP3    H2 7105   6.844   0.405   3.976
 2388TIP3   OH2 7106   0.943   1.380   3.693
 2388TIP3    H1 7107   0.998   1.313   3.734
 2388TIP3    H2 7108   0.855   1.362   3.727
 2389TIP3   OH2 7109   4.037   2.658   0.499
 2389TIP3    H1 7110   3.947   2.671   0.531
 2389TIP3    H2 7111   4.052   2.564   0.509
 2390TIP3   OH2 7112   7.265   2.793   2.184
 2390TIP3    H1 7113   7.185   2.741   2.188
 2390TIP3    H2 7114   7.334   2.733   2.212
 2391TIP3   OH2 7115   0.687   3.735   1.355
 2391TIP3    H1 7116   0.687   3.712   1.262
 2391TIP3    H2 7117   0.689   3.831   1.356
 2392TIP3   OH2 7118   3.205   5.415   5.187
 2392TIP3    H1 7119   3.249   5.345   5.235
 2392TIP3    H2 7120   3.115   5.413   5.218
 2393TIP3   OH2 7121   0.844   0.531   5.743
 2393TIP3    H1 7122   0.879   0.620   5.743
 2393TIP3    H2 7123   0.802   0.522   5.658
 2394TIP3   OH2 7124   5.681   1.087   4.286
 2394TIP3    H1 7125   5.667   0.996   4.310
 2394TIP3    H2 7126   5.610   1.107   4.225
 2395TIP3   OH2 7127   2.099   4.596   2.934
 2395TIP3    H1 7128   2.162   4.648   2.884
 2395TIP3    H2 7129   2.149   4.564   3.010
 2396TIP3   OH2 7130   0.683   2.892   6.332
 2396TIP3    H1 7131   0.690   2.906   6.426
 2396TIP3    H2 7132   0.714   2.974   6.293
 2397TIP3   OH2 7133   4.699   4.305   0.541
 2397TIP3    H1 7134   4.683   4.365   0.469
 2397TIP3    H2 7135   4.703   4.361   0.619
 2398TIP3   OH2 7136   2.596   6.728   0.192
 2398TIP3    H1 7137   2.679   6.687   0.167
 2398TIP3    H2 7138   2.618   6.821   0.203
 2399TIP3   OH2 7139   8.061   0.223   0.288
 2399TIP3    H1 7140   8.022   0.270   0.214
 2399TIP3    H2 7141   7.991   0.222   0.354
 2400TIP3   OH2 7142   6.535   0.453   5.898
 2400TIP3    H1 7143   6.473   0.480   5.831
 2400TIP3    H2 7144   6.481   0.415   5.967
 2401TIP3   OH2 7145   5.738   6.777   3.164
 2401TIP3    H1 7146   5.823   6.789   3.207
 2401TIP3    H2 7147   5.706   6.693   3.196
 2402TIP3   OH2 7148   7.833   0.533   2.372
 2402TIP3    H1 7149   7.779   0.454   2.373
 2402TIP3    H2 7150   7.885   0.527   2.452
 2403TIP3   OH2 7151   3.268   7.464   3.949
 2403TIP3    H1 7152   3.250   7.510   3.868
 2403TIP3    H2 7153   3.188   7.472   4.000
 2404TIP3   OH2 7154   4.987   4.563   2.749
 2404TIP3    H1 7155   4.930   4.587   2.676
 2404TIP3    H2 7156   4.938   4.496   2.797
 2405TIP3   OH2 7157   5.571   2.223   6.058
 2405TIP3    H1 7158   5.606   2.158   5.998
 2405TIP3    H2 7159   5.500   2.266   6.009
 2406TIP3   OH2 7160   7.882   0.397   1.345
 2406TIP3    H1 7161   7.792   0.381   1.372
 2406TIP3    H2 7162   7.896   0.491   1.360
 2407TIP3   OH2 7163   6.687   4.836   6.628
 2407TIP3    H1 7164   6.609   4.783   6.613
 2407TIP3    H2 7165   6.734   4.835   6.545
 2408TIP3   OH2 7166   7.450   2.039   3.767
 2408TIP3    H1 7167   7.536   2.060   3.805
 2408TIP3    H2 7168   7.387   2.069   3.833
 2409TIP3   OH2 7169   7.045   1.543   5.625
 2409TIP3    H1 7170   6.958   1.583   5.627
 2409TIP3    H2 7171   7.029   1.452   5.600
 2410TIP3   OH2 7172   7.104   6.582   4.534
 2410TIP3    H1 7173   7.141   6.669   4.528
 2410TIP3    H2 7174   7.134   6.537   4.455
 2411TIP3   OH2 7175   0.496   3.301   4.058
 2411TIP3    H1 7176   0.438   3.294   4.134
 2411TIP3    H2 7177   0.576   3.257   4.085
 2412TIP3   OH2 7178   2.221   3.492   6.703
 2412TIP3    H1 7179   2.239   3.568   6.647
 2412TIP3    H2 7180   2.152   3.444   6.657
 2413TIP3   OH2 7181   1.544   3.086   3.201
 2413TIP3    H1 7182   1.576   2.996   3.212
 2413TIP3    H2 7183   1.520   3.091   3.108
 2414TIP3   OH2 7184   4.822   3.680   5.914
 2414TIP3    H1 7185   4.860   3.765   5.891
 2414TIP3    H2 7186   4.897   3.628   5.944
 2415TIP3   OH2 7187   5.648   0.239   6.582
 2415TIP3    H1 7188   5.618   0.273   6.666
 2415TIP3    H2 7189   5.661   0.317   6.527
 2416TIP3   OH2 7190   0.243   1.817   4.978
 2416TIP3    H1 7191   0.325   1.769   4.988
 2416TIP3    H2 7192   0.221   1.846   5.067
 2417TIP3   OH2 7193   7.543   5.884   5.910
 2417TIP3    H1 7194   7.568   5.831   5.986
 2417TIP3    H2 7195   7.477   5.831   5.865
 2418TIP3   OH2 7196   4.809   4.643   1.573
 2418TIP3    H1 7197   4.793   4.681   1.659
 2418TIP3    H2 7198   4.764   4.558   1.576
 2419TIP3   OH2 7199   0.618   5.342   3.192
 2419TIP3    H1 7200   0.551   5.411   3.194
 2419TIP3    H2 7201   0.569   5.261   3.177
 2420TIP3   OH2 7202   6.968   0.763   1.416
 2420TIP3    H1 7203   6.905   0.700   1.452
 2420TIP3    H2 7204   6.914   0.838   1.392
 2421TIP3   OH2 7205   2.248   7.649   0.949
 2421TIP3    H1 7206   2.255   7.565   0.993
 2421TIP3    H2 7207   2.284   7.634   0.861
 2422TIP3   OH2 7208   4.864   6.345   1.553
 2422TIP3    H1 7209   4.867   6.253   1.528
 2422TIP3    H2 7210   4.803   6.348   1.626
 2423TIP3   OH2 7211   2.170   3.653   0.552
 2423TIP3    H1 7212   2.132   3.702   0.480
 2423TIP3    H2 7213   2.112   3.669   0.626
 2424TIP3   OH2 7214   1.684   5.568   0.246
 2424TIP3    H1 7215   1.680   5.476   0.273
 2424TIP3    H2 7216   1.648   5.569   0.157
 2425TIP3   OH2 7217   6.752   7.002   3.467
 2425TIP3    H1 7218   6.668   6.984   3.510
 2425TIP3    H2 7219   6.782   7.084   3.507
 2426TIP3   OH2 7220   1.422   6.861   1.363
 2426TIP3    H1 7221   1.381   6.825   1.284
 2426TIP3    H2 7222   1.508   6.891   1.334
 2427TIP3   OH2 7223   1.611   7.080   4.545
 2427TIP3    H1 7224   1.673   7.116   4.481
 2427TIP3    H2 7225   1.634   6.987   4.549
 2428TIP3   OH2 7226   2.550   0.125   4.265
 2428TIP3    H1 7227   2.622   0.086   4.215
 2428TIP3    H2 7228   2.490   0.052   4.279
 2429TIP3   OH2 7229   0.618   2.943   0.342
 2429TIP3    H1 7230   0.651   2.937   0.431
 2429TIP3    H2 7231   0.618   3.037   0.323
 2430TIP3   OH2 7232   5.763   0.582   2.970
 2430TIP3    H1 7233   5.741   0.636   3.046
 2430TIP3    H2 7234   5.683   0.581   2.918
 2431TIP3   OH2 7235   1.939   2.934   3.696
 2431TIP3    H1 7236   2.001   2.921   3.624
 2431TIP3    H2 7237   1.984   2.993   3.756
 2432TIP3   OH2 7238   2.382   0.249   3.535
 2432TIP3    H1 7239   2.318   0.200   3.587
 2432TIP3    H2 7240   2.341   0.259   3.449
 2433TIP3   OH2 7241   5.198   7.261   4.779
 2433TIP3    H1 7242   5.132   7.314   4.825
 2433TIP3    H2 7243   5.148   7.209   4.717
 2434TIP3   OH2 7244   0.941   7.828   5.353
 2434TIP3    H1 7245   0.959   7.794   5.265
 2434TIP3    H2 7246   1.027   7.841   5.392
 2435TIP3   OH2 7247   1.769   4.460   1.187
 2435TIP3    H1 7248   1.763   4.555   1.185
 2435TIP3    H2 7249   1.723   4.431   1.109
 2436TIP3   OH2 7250   5.291   6.688   3.184
 2436TIP3    H1 7251   5.360   6.734   3.137
 2436TIP3    H2 7252   5.215   6.693   3.126
 2437TIP3   OH2 7253   8.126   4.710   5.080
 2437TIP3    H1 7254   8.201   4.705   5.140
 2437TIP3    H2 7255   8.146   4.785   5.024
 2438TIP3   OH2 7256   7.674   0.002   4.966
 2438TIP3    H1 7257   7.704   0.017   4.877
 2438TIP3    H2 7258   7.751  -0.032   5.013
 2439TIP3   OH2 7259   2.588   0.085   0.651
 2439TIP3    H1 7260   2.643   0.119   0.721
 2439TIP3    H2 7261   2.545   0.009   0.688
 2440TIP3   OH2 7262   4.941   1.348   6.098
 2440TIP3    H1 7263   5.004   1.418   6.113
 2440TIP3    H2 7264   4.896   1.373   6.018
 2441TIP3   OH2 7265   2.967   2.746   2.461
 2441TIP3    H1 7266   2.940   2.715   2.375
 2441TIP3    H2 7267   3.060   2.728   2.466
 2442TIP3   OH2 7268   4.880   3.736   2.939
 2442TIP3    H1 7269   4.962   3.739   2.989
 2442TIP3    H2 7270   4.812   3.727   3.006
 2443TIP3   OH2 7271   4.402   6.895   2.181
 2443TIP3    H1 7272   4.448   6.897   2.097
 2443TIP3    H2 7273   4.376   6.986   2.197
 2444TIP3   OH2 7274   2.968   6.363   6.429
 2444TIP3    H1 7275   2.880   6.397   6.445
 2444TIP3    H2 7276   3.026   6.423   6.475
 2445TIP3   OH2 7277   3.484   7.760   3.516
 2445TIP3    H1 7278   3.481   7.839   3.462
 2445TIP3    H2 7279   3.513   7.691   3.456
 2446TIP3   OH2 7280   2.386   5.918   1.933
 2446TIP3    H1 7281   2.403   5.843   1.876
 2446TIP3    H2 7282   2.456   5.916   1.997
 2447TIP3   OH2 7283   7.005   2.317   6.660
 2447TIP3    H1 7284   7.093   2.279   6.667
 2447TIP3    H2 7285   6.956   2.278   6.732
 2448TIP3   OH2 7286   5.748   5.847   1.558
 2448TIP3    H1 7287   5.688   5.774   1.576
 2448TIP3    H2 7288   5.825   5.829   1.612
 2449TIP3   OH2 7289   1.177   6.823   1.796
 2449TIP3    H1 7290   1.124   6.743   1.791
 2449TIP3    H2 7291   1.189   6.849   1.705
 2450TIP3   OH2 7292   4.262   5.555   5.145
 2450TIP3    H1 7293   4.291   5.637   5.106
 2450TIP3    H2 7294   4.342   5.501   5.148
 2451TIP3   OH2 7295   1.335   1.273   2.773
 2451TIP3    H1 7296   1.374   1.359   2.759
 2451TIP3    H2 7297   1.240   1.289   2.773
 2452TIP3   OH2 7298   1.339   6.286   1.905
 2452TIP3    H1 7299   1.343   6.381   1.905
 2452TIP3    H2 7300   1.417   6.258   1.953
 2453TIP3   OH2 7301   2.900   1.833   2.596
 2453TIP3    H1 7302   2.989   1.831   2.560
 2453TIP3    H2 7303   2.844   1.811   2.521
 2454TIP3   OH2 7304   0.645   2.343   5.444
 2454TIP3    H1 7305   0.557   2.349   5.483
 2454TIP3    H2 7306   0.629   2.342   5.350
 2455TIP3   OH2 7307   6.390   2.782   5.430
 2455TIP3    H1 7308   6.399   2.723   5.504
 2455TIP3    H2 7309   6.462   2.759   5.371
 2456TIP3   OH2 7310   7.487   6.684   6.811
 2456TIP3    H1 7311   7.397   6.717   6.812
 2456TIP3    H2 7312   7.479   6.594   6.780
 2457TIP3   OH2 7313   4.054   7.314   5.263
 2457TIP3    H1 7314   3.990   7.364   5.212
 2457TIP3    H2 7315   4.024   7.321   5.354
 2458TIP3   OH2 7316   1.239   7.619   3.697
 2458TIP3    H1 7317   1.190   7.699   3.678
 2458TIP3    H2 7318   1.321   7.630   3.649
 2459TIP3   OH2 7319   5.826   1.013   5.101
 2459TIP3    H1 7320   5.898   1.074   5.117
 2459TIP3    H2 7321   5.814   0.968   5.184
 2460TIP3   OH2 7322   0.995   7.415   2.930
 2460TIP3    H1 7323   1.003   7.492   2.875
 2460TIP3    H2 7324   0.988   7.449   3.019
 2461TIP3   OH2 7325   4.310   0.770   4.751
 2461TIP3    H1 7326   4.268   0.735   4.673
 2461TIP3    H2 7327   4.328   0.693   4.805
 2462TIP3   OH2 7328   1.598   2.781   4.446
 2462TIP3    H1 7329   1.603   2.869   4.409
 2462TIP3    H2 7330   1.670   2.778   4.510
 2463TIP3   OH2 7331   6.573   4.011   0.942
 2463TIP3    H1 7332   6.588   4.042   1.032
 2463TIP3    H2 7333   6.661   3.997   0.906
 2464TIP3   OH2 7334   2.027   4.581   2.173
 2464TIP3    H1 7335   2.078   4.607   2.249
 2464TIP3    H2 7336   1.989   4.497   2.197
 2465TIP3   OH2 7337   0.855   5.172   0.841
 2465TIP3    H1 7338   0.772   5.138   0.877
 2465TIP3    H2 7339   0.923   5.123   0.887
 2466TIP3   OH2 7340   2.424   2.117   4.461
 2466TIP3    H1 7341   2.504   2.155   4.425
 2466TIP3    H2 7342   2.354   2.150   4.405
 2467TIP3   OH2 7343   6.303   0.007   4.119
 2467TIP3    H1 7344   6.393   0.004   4.084
 2467TIP3    H2 7345   6.248  -0.015   4.044
 2468TIP3   OH2 7346   7.629   6.213   3.132
 2468TIP3    H1 7347   7.646   6.162   3.211
 2468TIP3    H2 7348   7.598   6.298   3.164
 2469TIP3   OH2 7349   1.147   3.316   2.911
 2469TIP3    H1 7350   1.058   3.323   2.877
 2469TIP3    H2 7351   1.171   3.405   2.935
 2470TIP3   OH2 7352   4.582   1.856   6.245
 2470TIP3    H1 7353   4.581   1.870   6.150
 2470TIP3    H2 7354   4.491   1.871   6.272
 2471TIP3   OH2 7355   5.586   0.694   6.527
 2471TIP3    H1 7356   5.570   0.713   6.619
 2471TIP3    H2 7357   5.574   0.778   6.483
 2472TIP3   OH2 7358   0.643   3.911   2.235
 2472TIP3    H1 7359   0.554   3.915   2.201
 2472TIP3    H2 7360   0.667   3.819   2.231
 2473TIP3   OH2 7361   5.310   4.784   3.935
 2473TIP3    H1 7362   5.366   4.707   3.925
 2473TIP3    H2 7363   5.231   4.751   3.977
 2474TIP3   OH2 7364   2.052   4.729   0.497
 2474TIP3    H1 7365   1.968   4.773   0.514
 2474TIP3    H2 7366   2.092   4.719   0.583
 2475TIP3   OH2 7367   7.049   3.922   2.527
 2475TIP3    H1 7368   7.049   3.886   2.616
 2475TIP3    H2 7369   6.968   3.890   2.488
 2476TIP3   OH2 7370   5.823   0.497   6.029
 2476TIP3    H1 7371   5.888   0.565   6.012
 2476TIP3    H2 7372   5.739   0.540   6.019
 2477TIP3   OH2 7373   3.312   6.582   2.305
 2477TIP3    H1 7374   3.375   6.590   2.376
 2477TIP3    H2 7375   3.355   6.527   2.240
 2478TIP3   OH2 7376   6.955   0.612   6.276
 2478TIP3    H1 7377   7.000   0.556   6.214
 2478TIP3    H2 7378   7.010   0.690   6.282
 2479TIP3   OH2 7379   2.574   4.376   5.435
 2479TIP3    H1 7380   2.621   4.364   5.352
 2479TIP3    H2 7381   2.556   4.470   5.439
 2480TIP3   OH2 7382   7.777   0.699   1.159
 2480TIP3    H1 7383   7.854   0.677   1.213
 2480TIP3    H2 7384   7.769   0.794   1.166
 2481TIP3   OH2 7385   7.735   2.162   5.331
 2481TIP3    H1 7386   7.789   2.141   5.408
 2481TIP3    H2 7387   7.782   2.233   5.288
 2482TIP3   OH2 7388   5.929   3.745   5.460
 2482TIP3    H1 7389   6.002   3.695   5.496
 2482TIP3    H2 7390   5.942   3.742   5.365
 2483TIP3   OH2 7391   5.048   0.869   0.907
 2483TIP3    H1 7392   5.073   0.914   0.826
 2483TIP3    H2 7393   4.953   0.878   0.910
 2484TIP3   OH2 7394   0.187   6.429   0.691
 2484TIP3    H1 7395   0.221   6.476   0.767
 2484TIP3    H2 7396   0.170   6.498   0.627
 2485TIP3   OH2 7397   1.398   2.198   0.889
 2485TIP3    H1 7398   1.399   2.110   0.853
 2485TIP3    H2 7399   1.305   2.222   0.892
 2486TIP3   OH2 7400   3.020   4.166   3.509
 2486TIP3    H1 7401   2.959   4.120   3.451
 2486TIP3    H2 7402   2.996   4.138   3.597
 2487TIP3   OH2 7403   5.399   3.081   1.090
 2487TIP3    H1 7404   5.457   3.083   1.166
 2487TIP3    H2 7405   5.375   2.989   1.081
 2488TIP3   OH2 7406   1.238   3.830   6.394
 2488TIP3    H1 7407   1.145   3.810   6.380
 2488TIP3    H2 7408   1.240   3.877   6.477
 2489TIP3   OH2 7409   5.178   0.244   6.342
 2489TIP3    H1 7410   5.268   0.216   6.355
 2489TIP3    H2 7411   5.126   0.186   6.398
 2490TIP3   OH2 7412   2.110   1.377   0.777
 2490TIP3    H1 7413   2.116   1.462   0.821
 2490TIP3    H2 7414   2.041   1.330   0.824
 2491TIP3   OH2 7415   1.902   2.237   0.350
 2491TIP3    H1 7416   1.986   2.195   0.334
 2491TIP3    H2 7417   1.838   2.165   0.349
 2492TIP3   OH2 7418   7.080   1.091   2.462
 2492TIP3    H1 7419   7.091   1.183   2.436
 2492TIP3    H2 7420   7.088   1.092   2.557
 2493TIP3   OH2 7421   3.573   7.265   3.628
 2493TIP3    H1 7422   3.579   7.170   3.622
 2493TIP3    H2 7423   3.557   7.283   3.721
 2494TIP3   OH2 7424   7.948   6.427   4.967
 2494TIP3    H1 7425   7.898   6.506   4.950
 2494TIP3    H2 7426   7.882   6.361   4.989
 2495TIP3   OH2 7427   8.037   5.584   2.665
 2495TIP3    H1 7428   8.056   5.490   2.659
 2495TIP3    H2 7429   7.990   5.593   2.748
 2496TIP3   OH2 7430   5.516   6.339   3.445
 2496TIP3    H1 7431   5.506   6.252   3.485
 2496TIP3    H2 7432   5.537   6.321   3.354
 2497TIP3   OH2 7433   6.154   2.909   5.509
 2497TIP3    H1 7434   6.129   2.972   5.442
 2497TIP3    H2 7435   6.212   2.848   5.465
 2498TIP3   OH2 7436   0.638   1.936   0.885
 2498TIP3    H1 7437   0.585   2.011   0.913
 2498TIP3    H2 7438   0.728   1.967   0.889
 2499TIP3   OH2 7439   5.924   7.351   0.407
 2499TIP3    H1 7440   5.976   7.404   0.467
 2499TIP3    H2 7441   5.878   7.414   0.352
 2500TIP3   OH2 7442   5.066   7.239   0.369
 2500TIP3    H1 7443   5.104   7.225   0.282
 2500TIP3    H2 7444   5.140   7.261   0.425
 2501TIP3   OH2 7445   4.279   1.527   0.600
 2501TIP3    H1 7446   4.325   1.610   0.608
 2501TIP3    H2 7447   4.196   1.541   0.645
 2502TIP3   OH2 7448   5.324   5.890   3.651
 2502TIP3    H1 7449   5.284   5.819   3.602
 2502TIP3    H2 7450   5.256   5.918   3.712
 2503TIP3   OH2 7451   5.180   4.225   6.002
 2503TIP3    H1 7452   5.099   4.216   6.052
 2503TIP3    H2 7453   5.161   4.295   5.939
 2504TIP3   OH2 7454   6.614   3.886   6.583
 2504TIP3    H1 7455   6.687   3.938   6.618
 2504TIP3    H2 7456   6.615   3.905   6.489
 2505TIP3   OH2 7457   2.487   3.956   3.662
 2505TIP3    H1 7458   2.525   3.903   3.732
 2505TIP3    H2 7459   2.445   4.030   3.707
 2506TIP3   OH2 7460   2.988   3.722   3.202
 2506TIP3    H1 7461   3.061   3.734   3.263
 2506TIP3    H2 7462   3.000   3.634   3.168
 2507TIP3   OH2 7463   7.812   3.567   5.821
 2507TIP3    H1 7464   7.820   3.491   5.878
 2507TIP3    H2 7465   7.750   3.540   5.753
 2508TIP3   OH2 7466   5.574   2.877   6.375
 2508TIP3    H1 7467   5.654   2.921   6.348
 2508TIP3    H2 7468   5.593   2.783   6.367
 2509TIP3   OH2 7469   0.730   3.380   5.295
 2509TIP3    H1 7470   0.702   3.468   5.269
 2509TIP3    H2 7471   0.684   3.363   5.377
 2510TIP3   OH2 7472   0.656   0.122   1.149
 2510TIP3    H1 7473   0.735   0.117   1.203
 2510TIP3    H2 7474   0.593   0.064   1.192
 2511TIP3   OH2 7475   4.967   2.974   3.749
 2511TIP3    H1 7476   4.933   2.885   3.752
 2511TIP3    H2 7477   5.062   2.963   3.755
 2512TIP3   OH2 7478   6.639   5.593   3.223
 2512TIP3    H1 7479   6.657   5.672   3.172
 2512TIP3    H2 7480   6.608   5.625   3.307
 2513TIP3   OH2 7481   0.204   4.853   2.304
 2513TIP3    H1 7482   0.138   4.913   2.269
 2513TIP3    H2 7483   0.164   4.766   2.298
 2514TIP3   OH2 7484   6.066   3.672   3.305
 2514TIP3    H1 7485   5.997   3.738   3.311
 2514TIP3    H2 7486   6.070   3.634   3.393
 2515TIP3   OH2 7487   1.058   2.910   4.083
 2515TIP3    H1 7488   1.124   2.934   4.018
 2515TIP3    H2 7489   0.978   2.897   4.033
 2516TIP3   OH2 7490   2.115   1.395   0.283
 2516TIP3    H1 7491   2.119   1.489   0.301
 2516TIP3    H2 7492   2.054   1.388   0.209
 2517TIP3   OH2 7493   7.619   2.688   0.514
 2517TIP3    H1 7494   7.634   2.780   0.492
 2517TIP3    H2 7495   7.572   2.653   0.438
 2518TIP3   OH2 7496   7.382   7.394   0.381
 2518TIP3    H1 7497   7.360   7.301   0.386
 2518TIP3    H2 7498   7.477   7.395   0.367
 2519TIP3   OH2 7499   6.148   3.893   1.947
 2519TIP3    H1 7500   6.194   3.929   2.022
 2519TIP3    H2 7501   6.074   3.845   1.985
 2520TIP3   OH2 7502   7.690   3.683   3.042
 2520TIP3    H1 7503   7.732   3.618   2.986
 2520TIP3    H2 7504   7.744   3.762   3.032
 2521TIP3   OH2 7505   4.305   5.615   5.758
 2521TIP3    H1 7506   4.282   5.527   5.729
 2521TIP3    H2 7507   4.386   5.635   5.710
 2522TIP3   OH2 7508   2.162   5.815   5.642
 2522TIP3    H1 7509   2.242   5.836   5.594
 2522TIP3    H2 7510   2.137   5.898   5.683
 2523TIP3   OH2 7511   1.413   5.164   6.224
 2523TIP3    H1 7512   1.362   5.181   6.303
 2523TIP3    H2 7513   1.371   5.088   6.184
 2524TIP3   OH2 7514   6.415   0.359   0.214
 2524TIP3    H1 7515   6.407   0.371   0.308
 2524TIP3    H2 7516   6.356   0.286   0.194
 2525TIP3   OH2 7517   1.133   3.793   5.178
 2525TIP3    H1 7518   1.210   3.744   5.208
 2525TIP3    H2 7519   1.061   3.760   5.232
 2526TIP3   OH2 7520   2.661   2.397   2.758
 2526TIP3    H1 7521   2.581   2.350   2.784
 2526TIP3    H2 7522   2.638   2.489   2.769
 2527TIP3   OH2 7523   0.445   7.456   4.258
 2527TIP3    H1 7524   0.384   7.524   4.286
 2527TIP3    H2 7525   0.511   7.502   4.207
 2528TIP3   OH2 7526   0.107   4.949   5.813
 2528TIP3    H1 7527   0.086   5.036   5.779
 2528TIP3    H2 7528   0.061   4.889   5.755
 2529TIP3   OH2 7529   7.253   1.755   1.201
 2529TIP3    H1 7530   7.190   1.719   1.263
 2529TIP3    H2 7531   7.323   1.790   1.255
 2530TIP3   OH2 7532   4.488   0.262   3.043
 2530TIP3    H1 7533   4.404   0.232   3.079
 2530TIP3    H2 7534   4.506   0.344   3.089
 2531TIP3   OH2 7535   7.621   7.689   1.673
 2531TIP3    H1 7536   7.600   7.725   1.759
 2531TIP3    H2 7537   7.601   7.596   1.680
 2532TIP3   OH2 7538   1.067   2.786   2.692
 2532TIP3    H1 7539   0.992   2.751   2.643
 2532TIP3    H2 7540   1.027   2.845   2.756
 2533TIP3   OH2 7541   6.501   5.023   5.646
 2533TIP3    H1 7542   6.587   5.002   5.610
 2533TIP3    H2 7543   6.508   5.000   5.739
 2534TIP3   OH2 7544   4.953   3.399   1.696
 2534TIP3    H1 7545   4.863   3.371   1.679
 2534TIP3    H2 7546   4.987   3.334   1.757
 2535TIP3   OH2 7547   6.927   1.007   0.404
 2535TIP3    H1 7548   6.967   0.974   0.324
 2535TIP3    H2 7549   6.982   1.082   0.430
 2536TIP3   OH2 7550   4.400   1.949   4.696
 2536TIP3    H1 7551   4.357   2.033   4.708
 2536TIP3    H2 7552   4.364   1.916   4.614
 2537TIP3   OH2 7553   4.918   1.999   6.193
 2537TIP3    H1 7554   4.863   2.066   6.233
 2537TIP3    H2 7555   4.960   1.955   6.267
 2538TIP3   OH2 7556   3.215   4.334   6.374
 2538TIP3    H1 7557   3.246   4.311   6.286
 2538TIP3    H2 7558   3.148   4.401   6.360
 2539TIP3   OH2 7559   6.663   5.149   3.128
 2539TIP3    H1 7560   6.569   5.147   3.145
 2539TIP3    H2 7561   6.680   5.069   3.077
 2540TIP3   OH2 7562   3.574   2.645   6.481
 2540TIP3    H1 7563   3.507   2.687   6.535
 2540TIP3    H2 7564   3.642   2.712   6.472
 2541TIP3   OH2 7565   5.995   3.057   1.158
 2541TIP3    H1 7566   5.989   2.968   1.123
 2541TIP3    H2 7567   5.904   3.086   1.167
 2542TIP3   OH2 7568   1.259   0.547   2.305
 2542TIP3    H1 7569   1.217   0.614   2.360
 2542TIP3    H2 7570   1.260   0.585   2.218
 2543TIP3   OH2 7571   6.376   1.075   1.397
 2543TIP3    H1 7572   6.304   1.012   1.410
 2543TIP3    H2 7573   6.338   1.160   1.421
 2544TIP3   OH2 7574   5.892   2.825   0.564
 2544TIP3    H1 7575   5.868   2.734   0.546
 2544TIP3    H2 7576   5.961   2.819   0.630
 2545TIP3   OH2 7577   5.195   6.660   5.763
 2545TIP3    H1 7578   5.119   6.679   5.708
 2545TIP3    H2 7579   5.176   6.573   5.800
 2546TIP3   OH2 7580   5.411   5.714   4.069
 2546TIP3    H1 7581   5.401   5.806   4.042
 2546TIP3    H2 7582   5.407   5.665   3.987
 2547TIP3   OH2 7583   7.390   3.831   3.367
 2547TIP3    H1 7584   7.438   3.786   3.298
 2547TIP3    H2 7585   7.454   3.840   3.438
 2548TIP3   OH2 7586   7.679   4.352   4.658
 2548TIP3    H1 7587   7.594   4.394   4.667
 2548TIP3    H2 7588   7.727   4.378   4.736
 2549TIP3   OH2 7589   6.141   6.476   3.800
 2549TIP3    H1 7590   6.078   6.526   3.748
 2549TIP3    H2 7591   6.125   6.384   3.776
 2550TIP3   OH2 7592   0.142   4.773   3.291
 2550TIP3    H1 7593   0.084   4.730   3.354
 2550TIP3    H2 7594   0.169   4.853   3.336
 2551TIP3   OH2 7595   8.049   3.106   1.128
 2551TIP3    H1 7596   8.070   3.095   1.220
 2551TIP3    H2 7597   8.135   3.107   1.084
 2552TIP3   OH2 7598   5.833   2.646   2.893
 2552TIP3    H1 7599   5.905   2.640   2.830
 2552TIP3    H2 7600   5.776   2.715   2.858
 2553TIP3   OH2 7601   6.011   6.984   5.286
 2553TIP3    H1 7602   6.069   6.923   5.332
 2553TIP3    H2 7603   6.058   7.067   5.287
 2554TIP3   OH2 7604   1.529   2.864   2.787
 2554TIP3    H1 7605   1.489   2.868   2.700
 2554TIP3    H2 7606   1.455   2.871   2.847
 2555TIP3   OH2 7607   6.010   5.340   2.914
 2555TIP3    H1 7608   6.056   5.288   2.849
 2555TIP3    H2 7609   5.921   5.305   2.915
 2556TIP3   OH2 7610   0.678   6.262   3.938
 2556TIP3    H1 7611   0.740   6.289   4.006
 2556TIP3    H2 7612   0.642   6.344   3.904
 2557TIP3   OH2 7613   1.934   0.389   5.508
 2557TIP3    H1 7614   1.880   0.443   5.566
 2557TIP3    H2 7615   1.994   0.451   5.466
 2558TIP3   OH2 7616   1.037   2.569   1.774
 2558TIP3    H1 7617   1.050   2.544   1.682
 2558TIP3    H2 7618   0.945   2.550   1.791
 2559TIP3   OH2 7619   4.397   3.084   3.044
 2559TIP3    H1 7620   4.374   3.078   2.951
 2559TIP3    H2 7621   4.402   2.993   3.073
 2560TIP3   OH2 7622   4.075   1.818   4.883
 2560TIP3    H1 7623   4.009   1.779   4.940
 2560TIP3    H2 7624   4.123   1.878   4.940
 2561TIP3   OH2 7625   7.561   2.645   1.162
 2561TIP3    H1 7626   7.549   2.552   1.146
 2561TIP3    H2 7627   7.527   2.687   1.083
 2562TIP3   OH2 7628   6.830   4.318   1.750
 2562TIP3    H1 7629   6.905   4.278   1.794
 2562TIP3    H2 7630   6.865   4.351   1.668
 2563TIP3   OH2 7631   4.231   4.660   4.624
 2563TIP3    H1 7632   4.317   4.617   4.618
 2563TIP3    H2 7633   4.181   4.625   4.551
 2564TIP3   OH2 7634   7.472   5.037   3.184
 2564TIP3    H1 7635   7.420   5.081   3.251
 2564TIP3    H2 7636   7.561   5.037   3.219
 2565TIP3   OH2 7637   8.207   2.384   3.251
 2565TIP3    H1 7638   8.197   2.328   3.329
 2565TIP3    H2 7639   8.215   2.472   3.286
 2566TIP3   OH2 7640   0.748   5.223   0.333
 2566TIP3    H1 7641   0.747   5.267   0.418
 2566TIP3    H2 7642   0.815   5.155   0.341
 2567TIP3   OH2 7643   4.504   2.345   5.866
 2567TIP3    H1 7644   4.527   2.383   5.782
 2567TIP3    H2 7645   4.478   2.255   5.846
 2568TIP3   OH2 7646   3.258   5.667   3.680
 2568TIP3    H1 7647   3.283   5.757   3.698
 2568TIP3    H2 7648   3.173   5.656   3.724
 2569TIP3   OH2 7649   7.077   4.712   4.524
 2569TIP3    H1 7650   7.146   4.681   4.465
 2569TIP3    H2 7651   7.119   4.778   4.578
 2570TIP3   OH2 7652   4.964   5.609   1.680
 2570TIP3    H1 7653   5.028   5.580   1.615
 2570TIP3    H2 7654   4.988   5.562   1.760
 2571TIP3   OH2 7655   6.165   5.261   5.409
 2571TIP3    H1 7656   6.187   5.347   5.445
 2571TIP3    H2 7657   6.190   5.199   5.477
 2572TIP3   OH2 7658   0.745   1.698   4.827
 2572TIP3    H1 7659   0.805   1.743   4.767
 2572TIP3    H2 7660   0.763   1.737   4.912
 2573TIP3   OH2 7661   5.401   0.592   0.506
 2573TIP3    H1 7662   5.329   0.557   0.453
 2573TIP3    H2 7663   5.373   0.680   0.530
 2574TIP3   OH2 7664   5.324   1.347   0.617
 2574TIP3    H1 7665   5.362   1.315   0.535
 2574TIP3    H2 7666   5.398   1.358   0.676
 2575TIP3   OH2 7667   0.105   6.119   0.433
 2575TIP3    H1 7668   0.063   6.065   0.366
 2575TIP3    H2 7669   0.118   6.204   0.391
 2576TIP3   OH2 7670   2.540   6.459   1.651
 2576TIP3    H1 7671   2.531   6.540   1.701
 2576TIP3    H2 7672   2.495   6.393   1.703
 2577TIP3   OH2 7673   6.855   2.675   4.892
 2577TIP3    H1 7674   6.790   2.732   4.852
 2577TIP3    H2 7675   6.873   2.609   4.825
 2578TIP3   OH2 7676   2.495   7.411   2.728
 2578TIP3    H1 7677   2.404   7.438   2.740
 2578TIP3    H2 7678   2.533   7.411   2.816
 2579TIP3   OH2 7679   4.891   2.673   5.050
 2579TIP3    H1 7680   4.876   2.664   5.144
 2579TIP3    H2 7681   4.976   2.715   5.043
 2580TIP3   OH2 7682   4.511   7.587   0.730
 2580TIP3    H1 7683   4.590   7.556   0.774
 2580TIP3    H2 7684   4.539   7.664   0.681
 2581TIP3   OH2 7685   6.016   6.575   5.360
 2581TIP3    H1 7686   6.092   6.603   5.309
 2581TIP3    H2 7687   5.973   6.509   5.306
 2582TIP3   OH2 7688   7.999   3.034   3.770
 2582TIP3    H1 7689   7.961   2.946   3.772
 2582TIP3    H2 7690   7.946   3.081   3.705
 2583TIP3   OH2 7691   0.490   6.622   3.151
 2583TIP3    H1 7692   0.516   6.611   3.060
 2583TIP3    H2 7693   0.505   6.715   3.170
 2584TIP3   OH2 7694   6.978   1.381   0.174
 2584TIP3    H1 7695   7.016   1.437   0.241
 2584TIP3    H2 7696   6.895   1.352   0.212
 2585TIP3   OH2 7697   0.880   5.990   6.159
 2585TIP3    H1 7698   0.809   6.052   6.139
 2585TIP3    H2 7699   0.959   6.033   6.130
 2586TIP3   OH2 7700   3.726   6.532   4.062
 2586TIP3    H1 7701   3.791   6.560   3.997
 2586TIP3    H2 7702   3.776   6.523   4.143
 2587TIP3   OH2 7703   1.798   7.318   0.368
 2587TIP3    H1 7704   1.788   7.331   0.462
 2587TIP3    H2 7705   1.737   7.381   0.328
 2588TIP3   OH2 7706   4.779   6.720   5.047
 2588TIP3    H1 7707   4.775   6.629   5.018
 2588TIP3    H2 7708   4.693   6.737   5.084
 2589TIP3   OH2 7709   0.815   3.772   6.697
 2589TIP3    H1 7710   0.761   3.728   6.762
 2589TIP3    H2 7711   0.904   3.770   6.733
 2590TIP3   OH2 7712   4.087   1.086   1.269
 2590TIP3    H1 7713   4.040   1.154   1.221
 2590TIP3    H2 7714   4.073   1.106   1.361
 2591TIP3   OH2 7715   7.292   3.234   1.312
 2591TIP3    H1 7716   7.210   3.211   1.268
 2591TIP3    H2 7717   7.344   3.278   1.245
 2592TIP3   OH2 7718   6.219   7.493   5.681
 2592TIP3    H1 7719   6.249   7.490   5.590
 2592TIP3    H2 7720   6.289   7.538   5.728
 2593TIP3   OH2 7721   7.059   5.062   4.694
 2593TIP3    H1 7722   6.996   5.134   4.694
 2593TIP3    H2 7723   7.113   5.077   4.617
 2594TIP3   OH2 7724   7.545   3.213   6.293
 2594TIP3    H1 7725   7.615   3.153   6.319
 2594TIP3    H2 7726   7.589   3.297   6.277
 2595TIP3   OH2 7727   3.523   6.537   3.495
 2595TIP3    H1 7728   3.439   6.556   3.453
 2595TIP3    H2 7729   3.583   6.602   3.458
 2596TIP3   OH2 7730   3.631   2.102   4.852
 2596TIP3    H1 7731   3.722   2.082   4.871
 2596TIP3    H2 7732   3.632   2.193   4.821
 2597TIP3   OH2 7733   7.664   2.129   2.686
 2597TIP3    H1 7734   7.625   2.047   2.658
 2597TIP3    H2 7735   7.603   2.196   2.657
 2598TIP3   OH2 7736   3.691   2.276   6.716
 2598TIP3    H1 7737   3.633   2.341   6.678
 2598TIP3    H2 7738   3.699   2.302   6.808
 2599TIP3   OH2 7739   6.727   6.643   6.591
 2599TIP3    H1 7740   6.645   6.685   6.619
 2599TIP3    H2 7741   6.702   6.592   6.514
 2600TIP3   OH2 7742   2.604   1.071   2.933
 2600TIP3    H1 7743   2.573   1.122   2.858
 2600TIP3    H2 7744   2.681   1.118   2.964
 2601TIP3   OH2 7745   6.341   4.216   2.363
 2601TIP3    H1 7746   6.269   4.242   2.306
 2601TIP3    H2 7747   6.307   4.226   2.452
 2602TIP3   OH2 7748   6.226   1.699   1.127
 2602TIP3    H1 7749   6.158   1.631   1.133
 2602TIP3    H2 7750   6.263   1.686   1.039
 2603TIP3   OH2 7751   1.809   4.981   3.651
 2603TIP3    H1 7752   1.814   4.925   3.729
 2603TIP3    H2 7753   1.800   5.070   3.685
 2604TIP3   OH2 7754   6.662   3.779   4.046
 2604TIP3    H1 7755   6.665   3.785   3.950
 2604TIP3    H2 7756   6.652   3.685   4.064
 2605TIP3   OH2 7757   1.240   6.640   0.113
 2605TIP3    H1 7758   1.208   6.582   0.183
 2605TIP3    H2 7759   1.284   6.581   0.052
 2606TIP3   OH2 7760   4.548   1.159   0.729
 2606TIP3    H1 7761   4.638   1.171   0.698
 2606TIP3    H2 7762   4.513   1.248   0.737
 2607TIP3   OH2 7763   0.104   3.332   1.193
 2607TIP3    H1 7764   0.115   3.263   1.260
 2607TIP3    H2 7765   0.104   3.414   1.243
 2608TIP3   OH2 7766   5.179   5.325   4.454
 2608TIP3    H1 7767   5.147   5.410   4.422
 2608TIP3    H2 7768   5.273   5.336   4.460
 2609TIP3   OH2 7769   8.080   7.280   6.009
 2609TIP3    H1 7770   8.055   7.227   5.933
 2609TIP3    H2 7771   8.065   7.222   6.084
 2610TIP3   OH2 7772   0.224   3.596   5.237
 2610TIP3    H1 7773   0.160   3.659   5.270
 2610TIP3    H2 7774   0.309   3.637   5.254
 2611TIP3   OH2 7775   4.967   5.124   2.729
 2611TIP3    H1 7776   5.018   5.167   2.661
 2611TIP3    H2 7777   5.023   5.053   2.760
 2612TIP3   OH2 7778   6.374   5.851   5.601
 2612TIP3    H1 7779   6.465   5.846   5.632
 2612TIP3    H2 7780   6.381   5.859   5.506
 2613TIP3   OH2 7781   3.041   4.389   4.472
 2613TIP3    H1 7782   3.104   4.319   4.455
 2613TIP3    H2 7783   3.037   4.395   4.567
 2614TIP3   OH2 7784   3.151   7.804   5.213
 2614TIP3    H1 7785   3.093   7.777   5.142
 2614TIP3    H2 7786   3.130   7.746   5.286
 2615TIP3   OH2 7787   6.474   7.344   2.740
 2615TIP3    H1 7788   6.433   7.415   2.690
 2615TIP3    H2 7789   6.463   7.267   2.684
 2616TIP3   OH2 7790   7.611   5.363   3.350
 2616TIP3    H1 7791   7.603   5.399   3.439
 2616TIP3    H2 7792   7.523   5.332   3.329
 2617TIP3   OH2 7793   5.597   5.781   4.923
 2617TIP3    H1 7794   5.529   5.747   4.981
 2617TIP3    H2 7795   5.666   5.811   4.981
 2618TIP3   OH2 7796   3.684   2.415   2.935
 2618TIP3    H1 7797   3.715   2.352   3.001
 2618TIP3    H2 7798   3.622   2.365   2.883
 2619TIP3   OH2 7799   7.770   0.978   2.455
 2619TIP3    H1 7800   7.752   0.967   2.362
 2619TIP3    H2 7801   7.707   1.043   2.485
 2620TIP3   OH2 7802   6.768   7.114   4.987
 2620TIP3    H1 7803   6.807   7.140   5.071
 2620TIP3    H2 7804   6.832   7.055   4.948
 2621TIP3   OH2 7805   1.382   1.823   2.679
 2621TIP3    H1 7806   1.314   1.878   2.718
 2621TIP3    H2 7807   1.338   1.779   2.606
 2622TIP3   OH2 7808   2.260   2.171   0.862
 2622TIP3    H1 7809   2.274   2.245   0.802
 2622TIP3    H2 7810   2.348   2.152   0.896
 2623TIP3   OH2 7811   6.655   2.384   4.649
 2623TIP3    H1 7812   6.573   2.336   4.665
 2623TIP3    H2 7813   6.643   2.425   4.563
 2624TIP3   OH2 7814   3.086   6.726   3.833
 2624TIP3    H1 7815   3.121   6.667   3.767
 2624TIP3    H2 7816   3.133   6.809   3.819
 2625TIP3   OH2 7817   6.564   0.197   5.579
 2625TIP3    H1 7818   6.480   0.188   5.535
 2625TIP3    H2 7819   6.610   0.264   5.528
 2626TIP3   OH2 7820   1.086   5.857   1.182
 2626TIP3    H1 7821   1.135   5.933   1.151
 2626TIP3    H2 7822   1.151   5.805   1.229
 2627TIP3   OH2 7823   6.445   1.891   4.312
 2627TIP3    H1 7824   6.408   1.975   4.287
 2627TIP3    H2 7825   6.372   1.830   4.307
 2628TIP3   OH2 7826   3.687   0.318   1.461
 2628TIP3    H1 7827   3.757   0.300   1.524
 2628TIP3    H2 7828   3.621   0.365   1.512
 2629TIP3   OH2 7829   4.291   4.704   5.504
 2629TIP3    H1 7830   4.382   4.722   5.483
 2629TIP3    H2 7831   4.278   4.743   5.591
 2630TIP3   OH2 7832   6.444   6.213   1.149
 2630TIP3    H1 7833   6.432   6.135   1.204
 2630TIP3    H2 7834   6.363   6.263   1.160
 2631TIP3   OH2 7835   4.423   7.296   0.009
 2631TIP3    H1 7836   4.362   7.322   0.078
 2631TIP3    H2 7837   4.367   7.265  -0.062
 2632TIP3   OH2 7838   4.262   7.650   2.219
 2632TIP3    H1 7839   4.240   7.724   2.276
 2632TIP3    H2 7840   4.296   7.691   2.139
 2633TIP3   OH2 7841   2.629   5.073   5.351
 2633TIP3    H1 7842   2.563   5.109   5.291
 2633TIP3    H2 7843   2.579   5.037   5.424
 2634TIP3   OH2 7844   3.219   6.369   4.244
 2634TIP3    H1 7845   3.313   6.371   4.226
 2634TIP3    H2 7846   3.211   6.412   4.329
 2635TIP3   OH2 7847   7.706   3.323   6.547
 2635TIP3    H1 7848   7.619   3.305   6.582
 2635TIP3    H2 7849   7.766   3.282   6.609
 2636TIP3   OH2 7850   5.891   7.476   1.361
 2636TIP3    H1 7851   5.940   7.492   1.280
 2636TIP3    H2 7852   5.925   7.393   1.394
 2637TIP3   OH2 7853   2.750   5.960   4.309
 2637TIP3    H1 7854   2.713   6.011   4.237
 2637TIP3    H2 7855   2.832   6.004   4.331
 2638TIP3   OH2 7856   7.114   1.967   3.112
 2638TIP3    H1 7857   7.176   2.005   3.050
 2638TIP3    H2 7858   7.151   1.989   3.198
 2639TIP3   OH2 7859   3.597   4.312   0.011
 2639TIP3    H1 7860   3.672   4.347  -0.038
 2639TIP3    H2 7861   3.562   4.389   0.057
 2640TIP3   OH2 7862   5.217   3.925   1.801
 2640TIP3    H1 7863   5.156   3.966   1.740
 2640TIP3    H2 7864   5.238   3.994   1.864
 2641TIP3   OH2 7865   2.593   4.766   4.874
 2641TIP3    H1 7866   2.500   4.755   4.853
 2641TIP3    H2 7867   2.596   4.846   4.927
 2642TIP3   OH2 7868   6.628   5.922   1.762
 2642TIP3    H1 7869   6.645   5.909   1.856
 2642TIP3    H2 7870   6.691   5.865   1.718
 2643TIP3   OH2 7871   3.098   5.468   3.026
 2643TIP3    H1 7872   3.113   5.375   3.046
 2643TIP3    H2 7873   3.080   5.508   3.111
 2644TIP3   OH2 7874   1.773   3.431   0.822
 2644TIP3    H1 7875   1.737   3.359   0.770
 2644TIP3    H2 7876   1.784   3.394   0.910
 2645TIP3   OH2 7877   4.627   4.223   6.364
 2645TIP3    H1 7878   4.641   4.294   6.302
 2645TIP3    H2 7879   4.653   4.259   6.449
 2646TIP3   OH2 7880   2.510   4.368   1.814
 2646TIP3    H1 7881   2.590   4.368   1.762
 2646TIP3    H2 7882   2.442   4.401   1.754
 2647TIP3   OH2 7883   6.865   1.645   6.129
 2647TIP3    H1 7884   6.865   1.649   6.225
 2647TIP3    H2 7885   6.823   1.562   6.109
 2648TIP3   OH2 7886   5.844   6.083   4.588
 2648TIP3    H1 7887   5.865   6.006   4.535
 2648TIP3    H2 7888   5.773   6.054   4.646
 2649TIP3   OH2 7889   4.442   1.332   4.129
 2649TIP3    H1 7890   4.407   1.244   4.143
 2649TIP3    H2 7891   4.510   1.342   4.196
 2650TIP3   OH2 7892   1.260   4.227   3.218
 2650TIP3    H1 7893   1.183   4.230   3.274
 2650TIP3    H2 7894   1.230   4.182   3.138
 2651TIP3   OH2 7895   5.363   5.533   0.183
 2651TIP3    H1 7896   5.286   5.515   0.128
 2651TIP3    H2 7897   5.419   5.587   0.128
 2652TIP3   OH2 7898   1.805   3.864   3.808
 2652TIP3    H1 7899   1.730   3.902   3.763
 2652TIP3    H2 7900   1.841   3.937   3.859
 2653TIP3   OH2 7901   2.947   4.194   0.359
 2653TIP3    H1 7902   2.994   4.115   0.332
 2653TIP3    H2 7903   2.924   4.238   0.278
 2654TIP3   OH2 7904   4.781   2.115   4.136
 2654TIP3    H1 7905   4.790   2.204   4.170
 2654TIP3    H2 7906   4.740   2.126   4.050
 2655TIP3   OH2 7907   1.005   2.739   3.070
 2655TIP3    H1 7908   0.990   2.738   3.165
 2655TIP3    H2 7909   0.985   2.829   3.044
 2656TIP3   OH2 7910   1.812   2.846   2.688
 2656TIP3    H1 7911   1.717   2.829   2.691
 2656TIP3    H2 7912   1.828   2.906   2.761
 2657TIP3   OH2 7913   0.353   7.358   1.957
 2657TIP3    H1 7914   0.288   7.425   1.980
 2657TIP3    H2 7915   0.378   7.379   1.867
 2658TIP3   OH2 7916   8.184   4.471   1.095
 2658TIP3    H1 7917   8.247   4.409   1.059
 2658TIP3    H2 7918   8.099   4.438   1.065
 2659TIP3   OH2 7919   0.835   6.209   5.819
 2659TIP3    H1 7920   0.876   6.278   5.871
 2659TIP3    H2 7921   0.905   6.177   5.762
 2660TIP3   OH2 7922   5.568   4.520   4.513
 2660TIP3    H1 7923   5.582   4.552   4.424
 2660TIP3    H2 7924   5.558   4.600   4.565
 2661TIP3   OH2 7925   0.501   4.287   2.351
 2661TIP3    H1 7926   0.547   4.322   2.428
 2661TIP3    H2 7927   0.422   4.247   2.387
 2662TIP3   OH2 7928   3.334   5.618   5.811
 2662TIP3    H1 7929   3.288   5.660   5.738
 2662TIP3    H2 7930   3.418   5.591   5.774
 2663TIP3   OH2 7931   5.347   5.498   5.668
 2663TIP3    H1 7932   5.344   5.477   5.761
 2663TIP3    H2 7933   5.349   5.413   5.624
 2664TIP3   OH2 7934   6.333   0.736   6.074
 2664TIP3    H1 7935   6.265   0.708   6.012
 2664TIP3    H2 7936   6.318   0.829   6.086
 2665TIP3   OH2 7937   2.036   2.346   5.004
 2665TIP3    H1 7938   2.074   2.425   4.965
 2665TIP3    H2 7939   1.969   2.379   5.063
 2666TIP3   OH2 7940   7.705   1.520   5.156
 2666TIP3    H1 7941   7.729   1.553   5.070
 2666TIP3    H2 7942   7.755   1.573   5.218
 2667TIP3   OH2 7943   1.153   1.406   5.680
 2667TIP3    H1 7944   1.181   1.406   5.771
 2667TIP3    H2 7945   1.156   1.498   5.654
 2668TIP3   OH2 7946   1.789   7.558   1.219
 2668TIP3    H1 7947   1.737   7.577   1.140
 2668TIP3    H2 7948   1.773   7.633   1.276
 2669TIP3   OH2 7949   3.828   7.738   5.149
 2669TIP3    H1 7950   3.827   7.833   5.161
 2669TIP3    H2 7951   3.750   7.707   5.196
 2670TIP3   OH2 7952   1.661   3.816   6.183
 2670TIP3    H1 7953   1.670   3.764   6.103
 2670TIP3    H2 7954   1.651   3.906   6.152
 2671TIP3   OH2 7955   1.501   6.782   6.363
 2671TIP3    H1 7956   1.417   6.788   6.408
 2671TIP3    H2 7957   1.566   6.776   6.433
 2672TIP3   OH2 7958   0.078   6.677   4.133
 2672TIP3    H1 7959   0.050   6.727   4.210
 2672TIP3    H2 7960   0.007   6.687   4.070
 2673TIP3   OH2 7961   5.345   7.740   6.351
 2673TIP3    H1 7962   5.276   7.806   6.339
 2673TIP3    H2 7963   5.426   7.786   6.333
 2674TIP3   OH2 7964   5.157   1.412   4.997
 2674TIP3    H1 7965   5.127   1.325   4.969
 2674TIP3    H2 7966   5.252   1.408   4.988
 2675TIP3   OH2 7967   6.230   0.855  -0.069
 2675TIP3    H1 7968   6.285   0.930  -0.049
 2675TIP3    H2 7969   6.161   0.857  -0.002
 2676TIP3   OH2 7970   0.036   2.962   0.687
 2676TIP3    H1 7971   0.040   3.057   0.699
 2676TIP3    H2 7972   0.123   2.931   0.710
 2677TIP3   OH2 7973   4.047   6.114   3.032
 2677TIP3    H1 7974   4.086   6.068   2.957
 2677TIP3    H2 7975   3.972   6.160   2.995
 2678TIP3   OH2 7976   7.137   1.093   6.642
 2678TIP3    H1 7977   7.215   1.046   6.614
 2678TIP3    H2 7978   7.086   1.106   6.562
 2679TIP3   OH2 7979   4.670   0.913   1.505
 2679TIP3    H1 7980   4.631   0.996   1.530
 2679TIP3    H2 7981   4.658   0.908   1.410
 2680TIP3   OH2 7982   2.693   0.674   2.327
 2680TIP3    H1 7983   2.755   0.634   2.389
 2680TIP3    H2 7984   2.699   0.620   2.249
 2681TIP3   OH2 7985   7.054   6.480   5.736
 2681TIP3    H1 7986   7.131   6.427   5.757
 2681TIP3    H2 7987   7.033   6.527   5.816
 2682TIP3   OH2 7988   5.517   2.531   6.484
 2682TIP3    H1 7989   5.595   2.524   6.538
 2682TIP3    H2 7990   5.548   2.513   6.395
 2683TIP3   OH2 7991   0.720   1.376   2.220
 2683TIP3    H1 7992   0.787   1.322   2.262
 2683TIP3    H2 7993   0.642   1.321   2.220
 2684TIP3   OH2 7994   4.349   7.187   0.534
 2684TIP3    H1 7995   4.444   7.177   0.540
 2684TIP3    H2 7996   4.314   7.103   0.563
 2685TIP3   OH2 7997   3.390   1.299   4.827
 2685TIP3    H1 7998   3.373   1.210   4.858
 2685TIP3    H2 7999   3.478   1.319   4.858
 2686TIP3   OH2 8000   1.816   4.509   4.278
 2686TIP3    H1 8001   1.886   4.573   4.267
 2686TIP3    H2 8002   1.737   4.556   4.253
 2687TIP3   OH2 8003   7.016   2.124   4.528
 2687TIP3    H1 8004   7.001   2.039   4.485
 2687TIP3    H2 8005   6.975   2.188   4.470
 2688TIP3   OH2 8006   7.108   7.354   2.512
 2688TIP3    H1 8007   7.165   7.416   2.466
 2688TIP3    H2 8008   7.086   7.399   2.594
 2689TIP3   OH2 8009   3.386   5.935   5.245
 2689TIP3    H1 8010   3.307   5.907   5.290
 2689TIP3    H2 8011   3.356   6.001   5.183
 2690TIP3   OH2 8012   1.524   3.687   3.525
 2690TIP3    H1 8013   1.560   3.746   3.591
 2690TIP3    H2 8014   1.458   3.636   3.572
 2691TIP3   OH2 8015   2.903   3.194   4.301
 2691TIP3    H1 8016   2.949   3.228   4.224
 2691TIP3    H2 8017   2.882   3.103   4.277
 2692TIP3   OH2 8018   0.967   1.243   6.379
 2692TIP3    H1 8019   0.980   1.326   6.332
 2692TIP3    H2 8020   1.034   1.184   6.344
 2693TIP3   OH2 8021   1.568   6.720   3.551
 2693TIP3    H1 8022   1.636   6.715   3.618
 2693TIP3    H2 8023   1.491   6.752   3.597
 2694TIP3   OH2 8024   0.231   5.013   1.581
 2694TIP3    H1 8025   0.166   4.973   1.639
 2694TIP3    H2 8026   0.306   4.954   1.584
 2695TIP3   OH2 8027   4.441   1.456   4.520
 2695TIP3    H1 8028   4.382   1.411   4.460
 2695TIP3    H2 8029   4.457   1.541   4.480
 2696TIP3   OH2 8030   2.544   5.667   1.136
 2696TIP3    H1 8031   2.601   5.701   1.205
 2696TIP3    H2 8032   2.603   5.649   1.062
 2697TIP3   OH2 8033   3.783   0.280   6.467
 2697TIP3    H1 8034   3.803   0.186   6.464
 2697TIP3    H2 8035   3.809   0.307   6.555
 2698TIP3   OH2 8036   4.534   6.554   2.050
 2698TIP3    H1 8037   4.502   6.523   2.135
 2698TIP3    H2 8038   4.595   6.487   2.020
 2699TIP3   OH2 8039   6.539   2.356   3.745
 2699TIP3    H1 8040   6.445   2.362   3.728
 2699TIP3    H2 8041   6.576   2.430   3.698
 2700TIP3   OH2 8042   8.192   1.441   1.777
 2700TIP3    H1 8043   8.258   1.382   1.740
 2700TIP3    H2 8044   8.227   1.463   1.864
 2701TIP3   OH2 8045   6.892   0.464   3.772
 2701TIP3    H1 8046   6.807   0.493   3.741
 2701TIP3    H2 8047   6.951   0.537   3.754
 2702TIP3   OH2 8048   6.460   6.140   0.483
 2702TIP3    H1 8049   6.454   6.056   0.528
 2702TIP3    H2 8050   6.551   6.147   0.456
 2703TIP3   OH2 8051   7.915   4.751   3.754
 2703TIP3    H1 8052   7.867   4.753   3.837
 2703TIP3    H2 8053   7.877   4.677   3.706
 2704TIP3   OH2 8054   3.062   4.725   5.544
 2704TIP3    H1 8055   3.090   4.696   5.457
 2704TIP3    H2 8056   3.132   4.696   5.603
 2705TIP3   OH2 8057   5.898   1.616   1.064
 2705TIP3    H1 8058   5.922   1.614   0.972
 2705TIP3    H2 8059   5.925   1.531   1.098
 2706TIP3   OH2 8060   3.991   2.208   4.489
 2706TIP3    H1 8061   3.946   2.290   4.469
 2706TIP3    H2 8062   3.955   2.145   4.426
 2707TIP3   OH2 8063   6.973   2.656   4.218
 2707TIP3    H1 8064   6.890   2.702   4.232
 2707TIP3    H2 8065   7.024   2.714   4.163
 2708TIP3   OH2 8066   2.474   0.847   2.492
 2708TIP3    H1 8067   2.551   0.890   2.529
 2708TIP3    H2 8068   2.510   0.783   2.431
 2709TIP3   OH2 8069   4.496   4.194   1.280
 2709TIP3    H1 8070   4.541   4.238   1.209
 2709TIP3    H2 8071   4.404   4.193   1.254
 2710TIP3   OH2 8072   4.189   5.802   4.161
 2710TIP3    H1 8073   4.231   5.835   4.081
 2710TIP3    H2 8074   4.192   5.707   4.153
 2711TIP3   OH2 8075   5.171   7.309   1.503
 2711TIP3    H1 8076   5.144   7.269   1.586
 2711TIP3    H2 8077   5.132   7.396   1.504
 2712TIP3   OH2 8078   5.154   1.919   4.074
 2712TIP3    H1 8079   5.150   1.965   4.158
 2712TIP3    H2 8080   5.246   1.920   4.050
 2713TIP3   OH2 8081   6.320   7.154   0.747
 2713TIP3    H1 8082   6.282   7.079   0.793
 2713TIP3    H2 8083   6.307   7.135   0.654
 2714TIP3   OH2 8084   1.486   5.804   4.028
 2714TIP3    H1 8085   1.534   5.844   3.955
 2714TIP3    H2 8086   1.509   5.858   4.104
 2715TIP3   OH2 8087   6.332   1.945   5.519
 2715TIP3    H1 8088   6.330   2.009   5.590
 2715TIP3    H2 8089   6.377   1.869   5.556
 2716TIP3   OH2 8090   3.181   6.697   6.413
 2716TIP3    H1 8091   3.252   6.636   6.395
 2716TIP3    H2 8092   3.123   6.650   6.472
 2717TIP3   OH2 8093   2.463   7.164   1.020
 2717TIP3    H1 8094   2.435   7.185   1.109
 2717TIP3    H2 8095   2.450   7.070   1.012
 2718TIP3   OH2 8096   6.028   3.073   6.529
 2718TIP3    H1 8097   6.077   3.069   6.611
 2718TIP3    H2 8098   6.048   2.990   6.486
 2719TIP3   OH2 8099   2.139   0.417   4.134
 2719TIP3    H1 8100   2.082   0.424   4.210
 2719TIP3    H2 8101   2.098   0.350   4.079
 2720TIP3   OH2 8102   6.173   6.703   4.939
 2720TIP3    H1 8103   6.241   6.662   4.885
 2720TIP3    H2 8104   6.216   6.777   4.980
 2721TIP3   OH2 8105   2.652   4.573   4.319
 2721TIP3    H1 8106   2.679   4.482   4.333
 2721TIP3    H2 8107   2.572   4.566   4.267
 2722TIP3   OH2 8108   4.594   5.746   0.751
 2722TIP3    H1 8109   4.671   5.723   0.698
 2722TIP3    H2 8110   4.594   5.683   0.822
 2723TIP3   OH2 8111   0.889   1.083   1.350
 2723TIP3    H1 8112   0.970   1.133   1.361
 2723TIP3    H2 8113   0.822   1.150   1.335
 2724TIP3   OH2 8114   8.142   6.172   1.555
 2724TIP3    H1 8115   8.055   6.154   1.590
 2724TIP3    H2 8116   8.194   6.200   1.630
 2725TIP3   OH2 8117   6.840   2.681   2.862
 2725TIP3    H1 8118   6.754   2.664   2.899
 2725TIP3    H2 8119   6.901   2.652   2.930
 2726TIP3   OH2 8120   8.165   0.185   2.961
 2726TIP3    H1 8121   8.143   0.206   3.052
 2726TIP3    H2 8122   8.217   0.260   2.931
 2727TIP3   OH2 8123   7.313   1.309   4.275
 2727TIP3    H1 8124   7.370   1.237   4.248
 2727TIP3    H2 8125   7.263   1.331   4.196
 2728TIP3   OH2 8126   7.489   3.205   4.276
 2728TIP3    H1 8127   7.510   3.237   4.189
 2728TIP3    H2 8128   7.393   3.205   4.279
 2729TIP3   OH2 8129   0.738   0.053   5.451
 2729TIP3    H1 8130   0.771   0.055   5.541
 2729TIP3    H2 8131   0.810   0.090   5.399
 2730TIP3   OH2 8132   0.606   2.324   5.815
 2730TIP3    H1 8133   0.646   2.399   5.770
 2730TIP3    H2 8134   0.538   2.294   5.755
 2731TIP3   OH2 8135   1.183   7.411   1.233
 2731TIP3    H1 8136   1.208   7.411   1.140
 2731TIP3    H2 8137   1.265   7.425   1.280
 2732TIP3   OH2 8138   7.968   6.073   3.346
 2732TIP3    H1 8139   7.944   6.160   3.378
 2732TIP3    H2 8140   8.062   6.066   3.364
 2733TIP3   OH2 8141   6.847   4.504   3.023
 2733TIP3    H1 8142   6.815   4.590   2.994
 2733TIP3    H2 8143   6.874   4.460   2.943
 2734TIP3   OH2 8144   7.028   4.938   0.240
 2734TIP3    H1 8145   7.034   4.844   0.253
 2734TIP3    H2 8146   7.118   4.966   0.221
 2735TIP3   OH2 8147   8.101   0.126   5.141
 2735TIP3    H1 8148   8.075   0.133   5.049
 2735TIP3    H2 8149   8.144   0.040   5.147
 2736TIP3   OH2 8150   2.421   2.248   1.161
 2736TIP3    H1 8151   2.416   2.179   1.227
 2736TIP3    H2 8152   2.515   2.267   1.155
 2737TIP3   OH2 8153   2.506   1.067   0.413
 2737TIP3    H1 8154   2.477   1.146   0.368
 2737TIP3    H2 8155   2.443   1.000   0.387
 2738TIP3   OH2 8156   5.417   1.773   4.279
 2738TIP3    H1 8157   5.406   1.778   4.374
 2738TIP3    H2 8158   5.329   1.760   4.245
 2739TIP3   OH2 8159   8.152   6.737   6.110
 2739TIP3    H1 8160   8.174   6.810   6.053
 2739TIP3    H2 8161   8.160   6.660   6.054
 2740TIP3   OH2 8162   4.944   1.014   1.651
 2740TIP3    H1 8163   4.881   0.957   1.607
 2740TIP3    H2 8164   4.893   1.091   1.675
 2741TIP3   OH2 8165   6.617   7.019   0.189
 2741TIP3    H1 8166   6.550   7.078   0.224
 2741TIP3    H2 8167   6.694   7.036   0.243
 2742TIP3   OH2 8168   7.679   1.178   3.745
 2742TIP3    H1 8169   7.624   1.229   3.805
 2742TIP3    H2 8170   7.617   1.136   3.685
 2743TIP3   OH2 8171   0.457   5.783   6.179
 2743TIP3    H1 8172   0.481   5.695   6.206
 2743TIP3    H2 8173   0.368   5.774   6.144
 2744TIP3   OH2 8174   7.875   0.749   3.320
 2744TIP3    H1 8175   7.921   0.686   3.265
 2744TIP3    H2 8176   7.918   0.833   3.302
 2745TIP3   OH2 8177   2.851   6.133   6.344
 2745TIP3    H1 8178   2.766   6.157   6.382
 2745TIP3    H2 8179   2.902   6.213   6.345
 2746TIP3   OH2 8180   5.604   7.808   1.251
 2746TIP3    H1 8181   5.559   7.855   1.181
 2746TIP3    H2 8182   5.620   7.721   1.216
 2747TIP3   OH2 8183   7.728   4.971   0.376
 2747TIP3    H1 8184   7.762   5.030   0.444
 2747TIP3    H2 8185   7.634   4.967   0.393
 2748TIP3   OH2 8186   1.109   7.132   1.388
 2748TIP3    H1 8187   1.200   7.150   1.365
 2748TIP3    H2 8188   1.068   7.106   1.306
 2749TIP3   OH2 8189   2.055   2.781   1.141
 2749TIP3    H1 8190   2.100   2.793   1.224
 2749TIP3    H2 8191   2.048   2.686   1.130
 2750TIP3   OH2 8192   3.548   7.682   4.384
 2750TIP3    H1 8193   3.609   7.610   4.363
 2750TIP3    H2 8194   3.544   7.682   4.479
 2751TIP3   OH2 8195   6.559   1.738   0.703
 2751TIP3    H1 8196   6.652   1.722   0.685
 2751TIP3    H2 8197   6.556   1.827   0.737
 2752TIP3   OH2 8198   7.510   4.703   4.135
 2752TIP3    H1 8199   7.508   4.741   4.223
 2752TIP3    H2 8200   7.434   4.739   4.091
 2753TIP3   OH2 8201   5.795   7.541   5.492
 2753TIP3    H1 8202   5.839   7.464   5.455
 2753TIP3    H2 8203   5.865   7.604   5.506
 2754TIP3   OH2 8204   6.130   7.159   1.533
 2754TIP3    H1 8205   6.114   7.110   1.452
 2754TIP3    H2 8206   6.185   7.100   1.585
 2755TIP3   OH2 8207   3.424   0.331   2.983
 2755TIP3    H1 8208   3.466   0.278   3.051
 2755TIP3    H2 8209   3.332   0.336   3.011
 2756TIP3   OH2 8210   5.663   3.510   1.927
 2756TIP3    H1 8211   5.723   3.575   1.963
 2756TIP3    H2 8212   5.584   3.559   1.905
 2757TIP3   OH2 8213   2.624   2.213   5.206
 2757TIP3    H1 8214   2.625   2.154   5.131
 2757TIP3    H2 8215   2.646   2.157   5.281
 2758TIP3   OH2 8216   6.714   5.091   6.353
 2758TIP3    H1 8217   6.784   5.056   6.299
 2758TIP3    H2 8218   6.640   5.102   6.292
 2759TIP3   OH2 8219   6.468   0.789   4.898
 2759TIP3    H1 8220   6.380   0.805   4.864
 2759TIP3    H2 8221   6.500   0.714   4.847
 2760TIP3   OH2 8222   5.429   7.494   3.536
 2760TIP3    H1 8223   5.442   7.578   3.579
 2760TIP3    H2 8224   5.443   7.429   3.604
 2761TIP3   OH2 8225   0.542   0.453   2.554
 2761TIP3    H1 8226   0.504   0.370   2.525
 2761TIP3    H2 8227   0.600   0.428   2.626
 2762TIP3   OH2 8228   5.226   2.492   3.474
 2762TIP3    H1 8229   5.236   2.521   3.383
 2762TIP3    H2 8230   5.197   2.401   3.467
 2763TIP3   OH2 8231   6.189   0.061   6.002
 2763TIP3    H1 8232   6.141   0.079   6.082
 2763TIP3    H2 8233   6.279   0.086   6.022
 2764TIP3   OH2 8234   1.571   1.009   1.059
 2764TIP3    H1 8235   1.490   1.035   1.104
 2764TIP3    H2 8236   1.545   1.000   0.967
 2765TIP3   OH2 8237   1.984   4.460   2.575
 2765TIP3    H1 8238   1.963   4.372   2.546
 2765TIP3    H2 8239   1.938   4.471   2.658
 2766TIP3   OH2 8240   1.697   6.689   6.596
 2766TIP3    H1 8241   1.764   6.672   6.530
 2766TIP3    H2 8242   1.735   6.757   6.652
 2767TIP3   OH2 8243   3.680   0.166   0.121
 2767TIP3    H1 8244   3.696   0.203   0.035
 2767TIP3    H2 8245   3.585   0.154   0.126
 2768TIP3   OH2 8246   7.740   3.639   3.773
 2768TIP3    H1 8247   7.811   3.694   3.805
 2768TIP3    H2 8248   7.784   3.565   3.731
 2769TIP3   OH2 8249   0.894   1.140   6.627
 2769TIP3    H1 8250   0.981   1.164   6.657
 2769TIP3    H2 8251   0.879   1.195   6.551
 2770TIP3   OH2 8252   7.251   5.635   3.821
 2770TIP3    H1 8253   7.247   5.549   3.779
 2770TIP3    H2 8254   7.189   5.630   3.893
 2771TIP3   OH2 8255   4.903   6.848   3.254
 2771TIP3    H1 8256   4.971   6.787   3.281
 2771TIP3    H2 8257   4.882   6.823   3.164
 2772TIP3   OH2 8258   7.879   3.381   3.521
 2772TIP3    H1 8259   7.972   3.369   3.503
 2772TIP3    H2 8260   7.855   3.305   3.575
 2773TIP3   OH2 8261   6.494   3.479   3.522
 2773TIP3    H1 8262   6.505   3.552   3.582
 2773TIP3    H2 8263   6.501   3.519   3.435
 2774TIP3   OH2 8264   0.386   5.427   6.086
 2774TIP3    H1 8265   0.424   5.343   6.060
 2774TIP3    H2 8266   0.353   5.464   6.004
 2775TIP3   OH2 8267   1.916   2.049   4.600
 2775TIP3    H1 8268   1.996   2.081   4.641
 2775TIP3    H2 8269   1.845   2.090   4.650
 2776TIP3   OH2 8270   3.510   2.493   5.733
 2776TIP3    H1 8271   3.517   2.569   5.791
 2776TIP3    H2 8272   3.495   2.529   5.646
 2777TIP3   OH2 8273   6.828   2.616   2.595
 2777TIP3    H1 8274   6.864   2.703   2.578
 2777TIP3    H2 8275   6.803   2.618   2.688
 2778TIP3   OH2 8276   2.076   2.124   3.659
 2778TIP3    H1 8277   2.022   2.100   3.584
 2778TIP3    H2 8278   2.156   2.161   3.621
 2779TIP3   OH2 8279   0.625   2.381   0.572
 2779TIP3    H1 8280   0.657   2.401   0.660
 2779TIP3    H2 8281   0.539   2.423   0.567
 2780TIP3   OH2 8282   7.971   2.483   2.967
 2780TIP3    H1 8283   7.922   2.444   2.894
 2780TIP3    H2 8284   7.968   2.417   3.036
 2781TIP3   OH2 8285   5.925   4.655   4.735
 2781TIP3    H1 8286   5.997   4.603   4.769
 2781TIP3    H2 8287   5.955   4.746   4.742
 2782TIP3   OH2 8288   6.931   5.570   6.185
 2782TIP3    H1 8289   6.876   5.647   6.184
 2782TIP3    H2 8290   6.903   5.521   6.262
 2783TIP3   OH2 8291   2.111   5.805   6.241
 2783TIP3    H1 8292   2.165   5.850   6.306
 2783TIP3    H2 8293   2.165   5.803   6.162
 2784TIP3   OH2 8294   3.948   6.107   3.941
 2784TIP3    H1 8295   3.856   6.088   3.954
 2784TIP3    H2 8296   3.950   6.170   3.869
 2785TIP3   OH2 8297   5.575   6.752   2.764
 2785TIP3    H1 8298   5.534   6.837   2.782
 2785TIP3    H2 8299   5.669   6.769   2.770
 2786TIP3   OH2 8300   4.802   3.148   4.863
 2786TIP3    H1 8301   4.766   3.163   4.775
 2786TIP3    H2 8302   4.799   3.053   4.874
 2787TIP3   OH2 8303   5.176   5.059   4.402
 2787TIP3    H1 8304   5.188   5.154   4.406
 2787TIP3    H2 8305   5.090   5.045   4.442
 2788TIP3   OH2 8306   6.039   6.118   1.559
 2788TIP3    H1 8307   5.969   6.174   1.527
 2788TIP3    H2 8308   5.999   6.067   1.629
 2789TIP3   OH2 8309   3.533   1.575   1.272
 2789TIP3    H1 8310   3.531   1.636   1.346
 2789TIP3    H2 8311   3.476   1.615   1.206
 2790TIP3   OH2 8312   1.886   6.651   2.750
 2790TIP3    H1 8313   1.895   6.557   2.732
 2790TIP3    H2 8314   1.932   6.694   2.678
 2791TIP3   OH2 8315   2.792   3.287   1.010
 2791TIP3    H1 8316   2.720   3.320   1.064
 2791TIP3    H2 8317   2.846   3.235   1.069
 2792TIP3   OH2 8318   7.077   7.566   2.227
 2792TIP3    H1 8319   7.094   7.479   2.190
 2792TIP3    H2 8320   7.138   7.572   2.301
 2793TIP3   OH2 8321   5.037   5.617   0.156
 2793TIP3    H1 8322   5.029   5.532   0.199
 2793TIP3    H2 8323   5.037   5.596   0.062
 2794TIP3   OH2 8324   6.251   3.602   4.059
 2794TIP3    H1 8325   6.299   3.562   4.132
 2794TIP3    H2 8326   6.296   3.571   3.981
 2795TIP3   OH2 8327   2.210   6.066   0.993
 2795TIP3    H1 8328   2.281   6.053   1.055
 2795TIP3    H2 8329   2.249   6.120   0.923
 2796TIP3   OH2 8330   7.589   2.972   4.758
 2796TIP3    H1 8331   7.605   2.916   4.834
 2796TIP3    H2 8332   7.545   2.914   4.695
 2797TIP3   OH2 8333   1.476   6.456   0.278
 2797TIP3    H1 8334   1.387   6.489   0.288
 2797TIP3    H2 8335   1.512   6.506   0.205
 2798TIP3   OH2 8336   2.080   6.618   3.256
 2798TIP3    H1 8337   2.000   6.645   3.303
 2798TIP3    H2 8338   2.049   6.587   3.171
 2799TIP3   OH2 8339   0.199   3.088   3.263
 2799TIP3    H1 8340   0.224   3.021   3.199
 2799TIP3    H2 8341   0.238   3.057   3.345
 2800TIP3   OH2 8342   3.415   2.791   5.790
 2800TIP3    H1 8343   3.359   2.847   5.737
 2800TIP3    H2 8344   3.504   2.810   5.760
 2801TIP3   OH2 8345   0.174   6.306   3.728
 2801TIP3    H1 8346   0.253   6.349   3.761
 2801TIP3    H2 8347   0.179   6.316   3.633
 2802TIP3   OH2 8348   2.118   5.227   2.388
 2802TIP3    H1 8349   2.068   5.229   2.470
 2802TIP3    H2 8350   2.131   5.134   2.371
 2803TIP3   OH2 8351   1.536   3.663   5.086
 2803TIP3    H1 8352   1.620   3.708   5.074
 2803TIP3    H2 8353   1.470   3.728   5.060
 2804TIP3   OH2 8354   3.969   3.183   1.256
 2804TIP3    H1 8355   3.975   3.183   1.160
 2804TIP3    H2 8356   3.959   3.091   1.279
 2805TIP3   OH2 8357   3.224   6.462   6.146
 2805TIP3    H1 8358   3.251   6.399   6.213
 2805TIP3    H2 8359   3.158   6.416   6.095
 2806TIP3   OH2 8360   8.264   1.746   5.720
 2806TIP3    H1 8361   8.353   1.781   5.732
 2806TIP3    H2 8362   8.256   1.678   5.786
 2807TIP3   OH2 8363   4.480   2.611   2.441
 2807TIP3    H1 8364   4.545   2.677   2.464
 2807TIP3    H2 8365   4.405   2.662   2.408
 2808TIP3   OH2 8366   6.929   2.601   6.686
 2808TIP3    H1 8367   6.868   2.614   6.613
 2808TIP3    H2 8368   6.959   2.511   6.677
 2809TIP3   OH2 8369   7.321   4.513   4.875
 2809TIP3    H1 8370   7.333   4.421   4.898
 2809TIP3    H2 8371   7.338   4.561   4.956
 2810TIP3   OH2 8372   5.076   7.255   4.086
 2810TIP3    H1 8373   4.996   7.267   4.137
 2810TIP3    H2 8374   5.126   7.189   4.134
 2811TIP3   OH2 8375   6.350   7.293   2.196
 2811TIP3    H1 8376   6.417   7.333   2.251
 2811TIP3    H2 8377   6.276   7.354   2.199
 2812TIP3   OH2 8378   2.554   3.608   6.114
 2812TIP3    H1 8379   2.580   3.553   6.188
 2812TIP3    H2 8380   2.568   3.698   6.145
 2813TIP3   OH2 8381   6.492   7.003   6.294
 2813TIP3    H1 8382   6.413   6.964   6.331
 2813TIP3    H2 8383   6.512   7.076   6.352
 2814TIP3   OH2 8384   4.650   5.930   2.127
 2814TIP3    H1 8385   4.652   5.961   2.036
 2814TIP3    H2 8386   4.741   5.935   2.156
 2815TIP3   OH2 8387   5.478   1.745   2.729
 2815TIP3    H1 8388   5.415   1.808   2.693
 2815TIP3    H2 8389   5.458   1.663   2.685
 2816TIP3   OH2 8390   3.953   3.693   0.064
 2816TIP3    H1 8391   3.932   3.776   0.107
 2816TIP3    H2 8392   3.882   3.634   0.091
 2817TIP3   OH2 8393   0.455   5.841   6.663
 2817TIP3    H1 8394   0.511   5.917   6.644
 2817TIP3    H2 8395   0.496   5.769   6.616
 2818TIP3   OH2 8396   8.048   1.547   0.956
 2818TIP3    H1 8397   8.064   1.636   0.925
 2818TIP3    H2 8398   8.114   1.533   1.024
 2819TIP3   OH2 8399   2.051   0.554   6.599
 2819TIP3    H1 8400   2.024   0.590   6.684
 2819TIP3    H2 8401   2.105   0.479   6.621
 2820TIP3   OH2 8402   7.106   1.773   6.068
 2820TIP3    H1 8403   7.036   1.714   6.097
 2820TIP3    H2 8404   7.135   1.736   5.985
 2821TIP3   OH2 8405   5.377   3.623   4.913
 2821TIP3    H1 8406   5.374   3.620   4.818
 2821TIP3    H2 8407   5.383   3.716   4.934
 2822TIP3   OH2 8408   2.973   0.058   4.185
 2822TIP3    H1 8409   3.062   0.092   4.184
 2822TIP3    H2 8410   2.920   0.128   4.225
 2823TIP3   OH2 8411   3.195   2.342   6.543
 2823TIP3    H1 8412   3.138   2.270   6.569
 2823TIP3    H2 8413   3.213   2.389   6.625
 2824TIP3   OH2 8414   6.316   3.869   0.965
 2824TIP3    H1 8415   6.308   3.896   1.057
 2824TIP3    H2 8416   6.405   3.896   0.940
 2825TIP3   OH2 8417   4.574   0.528   3.030
 2825TIP3    H1 8418   4.579   0.623   3.041
 2825TIP3    H2 8419   4.487   0.513   2.994
 2826TIP3   OH2 8420   5.444   0.058   2.519
 2826TIP3    H1 8421   5.443   0.099   2.433
 2826TIP3    H2 8422   5.511   0.106   2.568
 2827TIP3   OH2 8423   2.658   1.813   5.279
 2827TIP3    H1 8424   2.692   1.900   5.303
 2827TIP3    H2 8425   2.575   1.807   5.325
 2828TIP3   OH2 8426   4.528   7.104   0.255
 2828TIP3    H1 8427   4.473   7.173   0.293
 2828TIP3    H2 8428   4.614   7.145   0.243
 2829TIP3   OH2 8429   2.680   7.122   6.002
 2829TIP3    H1 8430   2.628   7.113   6.082
 2829TIP3    H2 8431   2.650   7.203   5.963
 2830TIP3   OH2 8432   2.203   5.415   4.314
 2830TIP3    H1 8433   2.167   5.390   4.229
 2830TIP3    H2 8434   2.254   5.494   4.297
 2831TIP3   OH2 8435   0.600   3.248   2.482
 2831TIP3    H1 8436   0.596   3.320   2.545
 2831TIP3    H2 8437   0.588   3.291   2.397
 2832TIP3   OH2 8438   4.111   0.826   1.746
 2832TIP3    H1 8439   4.050   0.756   1.720
 2832TIP3    H2 8440   4.082   0.852   1.833
 2833TIP3   OH2 8441   5.163   0.257   2.157
 2833TIP3    H1 8442   5.107   0.290   2.086
 2833TIP3    H2 8443   5.115   0.182   2.191
 2834TIP3   OH2 8444   6.366   0.472   5.694
 2834TIP3    H1 8445   6.380   0.494   5.602
 2834TIP3    H2 8446   6.361   0.376   5.695
 2835TIP3   OH2 8447   6.442   4.550   2.360
 2835TIP3    H1 8448   6.516   4.490   2.364
 2835TIP3    H2 8449   6.374   4.507   2.413
 2836TIP3   OH2 8450   6.576   7.165   5.441
 2836TIP3    H1 8451   6.655   7.112   5.453
 2836TIP3    H2 8452   6.524   7.148   5.519
 2837TIP3   OH2 8453   7.352   1.907   5.889
 2837TIP3    H1 8454   7.320   1.996   5.875
 2837TIP3    H2 8455   7.284   1.851   5.852
 2838TIP3   OH2 8456   5.535   2.861   0.762
 2838TIP3    H1 8457   5.487   2.820   0.690
 2838TIP3    H2 8458   5.493   2.827   0.841
 2839TIP3   OH2 8459   7.397   7.049   5.617
 2839TIP3    H1 8460   7.465   7.083   5.559
 2839TIP3    H2 8461   7.317   7.092   5.588
 2840TIP3   OH2 8462   7.962   7.677   0.762
 2840TIP3    H1 8463   8.035   7.628   0.800
 2840TIP3    H2 8464   7.942   7.631   0.681
 2841TIP3   OH2 8465   7.814   7.532   2.639
 2841TIP3    H1 8466   7.734   7.517   2.691
 2841TIP3    H2 8467   7.867   7.589   2.694
 2842TIP3   OH2 8468   7.263   6.512   6.238
 2842TIP3    H1 8469   7.239   6.598   6.273
 2842TIP3    H2 8470   7.294   6.463   6.314
 2843TIP3   OH2 8471   3.287   6.379   2.088
 2843TIP3    H1 8472   3.344   6.443   2.044
 2843TIP3    H2 8473   3.336   6.297   2.081
 2844TIP3   OH2 8474   3.056   1.417   4.079
 2844TIP3    H1 8475   3.018   1.497   4.043
 2844TIP3    H2 8476   3.104   1.378   4.005
 2845TIP3   OH2 8477   3.156   1.772   1.741
 2845TIP3    H1 8478   3.117   1.826   1.810
 2845TIP3    H2 8479   3.238   1.740   1.779
 2846TIP3   OH2 8480   2.246   7.404   3.219
 2846TIP3    H1 8481   2.159   7.437   3.197
 2846TIP3    H2 8482   2.293   7.480   3.253
 2847TIP3   OH2 8483   1.260   6.154   3.070
 2847TIP3    H1 8484   1.226   6.071   3.104
 2847TIP3    H2 8485   1.355   6.143   3.070
 2848TIP3   OH2 8486   2.870   6.175   5.722
 2848TIP3    H1 8487   2.936   6.143   5.784
 2848TIP3    H2 8488   2.913   6.167   5.636
 2849TIP3   OH2 8489   2.906   4.940   5.997
 2849TIP3    H1 8490   2.943   5.014   6.046
 2849TIP3    H2 8491   2.973   4.920   5.932
 2850TIP3   OH2 8492   3.399   7.371   6.323
 2850TIP3    H1 8493   3.381   7.440   6.259
 2850TIP3    H2 8494   3.316   7.323   6.330
 2851TIP3   OH2 8495  -0.001   3.374   5.983
 2851TIP3    H1 8496  -0.064   3.441   6.008
 2851TIP3    H2 8497   0.029   3.337   6.066
 2852TIP3   OH2 8498   5.353   6.994   1.096
 2852TIP3    H1 8499   5.396   7.076   1.072
 2852TIP3    H2 8500   5.263   7.020   1.119
 2853TIP3   OH2 8501   4.721   3.262   3.686
 2853TIP3    H1 8502   4.684   3.179   3.658
 2853TIP3    H2 8503   4.796   3.238   3.741
 2854TIP3   OH2 8504   5.725   3.860   1.557
 2854TIP3    H1 8505   5.676   3.940   1.539
 2854TIP3    H2 8506   5.749   3.827   1.470
 2855TIP3   OH2 8507   7.267   5.176   3.408
 2855TIP3    H1 8508   7.178   5.211   3.411
 2855TIP3    H2 8509   7.265   5.101   3.468
 2856TIP3   OH2 8510   5.912   2.631   0.275
 2856TIP3    H1 8511   5.925   2.631   0.369
 2856TIP3    H2 8512   5.908   2.538   0.251
 2857TIP3   OH2 8513   5.283   3.311   5.669
 2857TIP3    H1 8514   5.354   3.282   5.613
 2857TIP3    H2 8515   5.204   3.299   5.616
 2858TIP3   OH2 8516   2.174   1.965   2.116
 2858TIP3    H1 8517   2.232   1.962   2.040
 2858TIP3    H2 8518   2.157   2.058   2.130
 2859TIP3   OH2 8519   1.327   4.042   2.772
 2859TIP3    H1 8520   1.371   4.083   2.846
 2859TIP3    H2 8521   1.238   4.024   2.803
 2860TIP3   OH2 8522   3.787   6.674   2.538
 2860TIP3    H1 8523   3.715   6.732   2.513
 2860TIP3    H2 8524   3.819   6.711   2.621
 2861TIP3   OH2 8525   2.235   1.336   3.604
 2861TIP3    H1 8526   2.239   1.364   3.695
 2861TIP3    H2 8527   2.182   1.256   3.606
 2862TIP3   OH2 8528   6.708   6.023   5.168
 2862TIP3    H1 8529   6.686   5.951   5.227
 2862TIP3    H2 8530   6.638   6.086   5.179
 2863TIP3   OH2 8531   3.837   4.313   3.567
 2863TIP3    H1 8532   3.766   4.323   3.631
 2863TIP3    H2 8533   3.842   4.218   3.553
 2864TIP3   OH2 8534   7.815   0.763   5.118
 2864TIP3    H1 8535   7.788   0.843   5.072
 2864TIP3    H2 8536   7.876   0.720   5.057
 2865TIP3   OH2 8537   0.760   1.611   5.210
 2865TIP3    H1 8538   0.851   1.626   5.234
 2865TIP3    H2 8539   0.713   1.687   5.245
 2866TIP3   OH2 8540   2.134   4.448   5.413
 2866TIP3    H1 8541   2.061   4.440   5.351
 2866TIP3    H2 8542   2.192   4.375   5.392
 2867TIP3   OH2 8543   7.738   6.265   5.781
 2867TIP3    H1 8544   7.814   6.209   5.799
 2867TIP3    H2 8545   7.724   6.256   5.687
 2868TIP3   OH2 8546   0.839   5.586   1.289
 2868TIP3    H1 8547   0.757   5.604   1.244
 2868TIP3    H2 8548   0.847   5.656   1.354
 2869TIP3   OH2 8549   0.491   4.864   2.779
 2869TIP3    H1 8550   0.404   4.893   2.808
 2869TIP3    H2 8551   0.516   4.926   2.711
 2870TIP3   OH2 8552   4.788   2.510   0.317
 2870TIP3    H1 8553   4.749   2.596   0.301
 2870TIP3    H2 8554   4.882   2.524   0.307
 2871TIP3   OH2 8555   5.420   0.222   5.406
 2871TIP3    H1 8556   5.418   0.182   5.319
 2871TIP3    H2 8557   5.360   0.169   5.458
 2872TIP3   OH2 8558   5.696   7.381   1.667
 2872TIP3    H1 8559   5.784   7.343   1.671
 2872TIP3    H2 8560   5.712   7.475   1.653
 2873TIP3   OH2 8561   3.714   6.862   4.389
 2873TIP3    H1 8562   3.802   6.870   4.427
 2873TIP3    H2 8563   3.684   6.952   4.381
 2874TIP3   OH2 8564   4.736   0.166   0.826
 2874TIP3    H1 8565   4.706   0.154   0.916
 2874TIP3    H2 8566   4.770   0.081   0.801
 2875TIP3   OH2 8567   0.602   3.152   1.043
 2875TIP3    H1 8568   0.697   3.151   1.037
 2875TIP3    H2 8569   0.580   3.240   1.073
 2876TIP3   OH2 8570   7.582   3.695   0.085
 2876TIP3    H1 8571   7.672   3.721   0.103
 2876TIP3    H2 8572   7.588   3.604   0.057
 2877TIP3   OH2 8573   4.396   6.405   1.715
 2877TIP3    H1 8574   4.383   6.322   1.761
 2877TIP3    H2 8575   4.341   6.467   1.761
 2878TIP3   OH2 8576   7.310   4.802   3.108
 2878TIP3    H1 8577   7.349   4.890   3.114
 2878TIP3    H2 8578   7.355   4.760   3.035
 2879TIP3   OH2 8579   4.291   4.715   3.997
 2879TIP3    H1 8580   4.268   4.697   3.906
 2879TIP3    H2 8581   4.365   4.776   3.991
 2880TIP3   OH2 8582   2.683   7.699   6.139
 2880TIP3    H1 8583   2.640   7.616   6.159
 2880TIP3    H2 8584   2.695   7.697   6.044
 2881TIP3   OH2 8585   2.771   3.562   2.224
 2881TIP3    H1 8586   2.793   3.630   2.160
 2881TIP3    H2 8587   2.839   3.570   2.291
 2882TIP3   OH2 8588   2.942   0.308   3.292
 2882TIP3    H1 8589   2.939   0.223   3.335
 2882TIP3    H2 8590   2.942   0.372   3.364
 2883TIP3   OH2 8591   2.324   3.231   4.694
 2883TIP3    H1 8592   2.349   3.309   4.742
 2883TIP3    H2 8593   2.397   3.170   4.708
 2884TIP3   OH2 8594   4.779   5.420   0.296
 2884TIP3    H1 8595   4.868   5.410   0.329
 2884TIP3    H2 8596   4.724   5.422   0.375
 2885TIP3   OH2 8597   1.647   7.299   6.303
 2885TIP3    H1 8598   1.734   7.300   6.261
 2885TIP3    H2 8599   1.638   7.211   6.338
 2886TIP3   OH2 8600   3.162   7.113   0.831
 2886TIP3    H1 8601   3.238   7.139   0.884
 2886TIP3    H2 8602   3.092   7.173   0.859
 2887TIP3   OH2 8603   1.908   0.857   6.713
 2887TIP3    H1 8604   1.978   0.847   6.777
 2887TIP3    H2 8605   1.840   0.796   6.742
 2888TIP3   OH2 8606   7.963   4.225   4.320
 2888TIP3    H1 8607   7.882   4.257   4.359
 2888TIP3    H2 8608   8.017   4.199   4.395
 2889TIP3   OH2 8609   4.832   1.393   0.480
 2889TIP3    H1 8610   4.925   1.412   0.465
 2889TIP3    H2 8611   4.786   1.444   0.413
 2890TIP3   OH2 8612   4.519   1.826   3.264
 2890TIP3    H1 8613   4.518   1.922   3.263
 2890TIP3    H2 8614   4.432   1.801   3.236
 2891TIP3   OH2 8615   5.854   2.154   3.972
 2891TIP3    H1 8616   5.859   2.218   4.043
 2891TIP3    H2 8617   5.937   2.165   3.924
 2892TIP3   OH2 8618   6.153   2.085   3.143
 2892TIP3    H1 8619   6.232   2.138   3.156
 2892TIP3    H2 8620   6.128   2.057   3.231
 2893TIP3   OH2 8621   7.562   0.563   1.256
 2893TIP3    H1 8622   7.646   0.602   1.232
 2893TIP3    H2 8623   7.497   0.629   1.231
 2894TIP3   OH2 8624   3.341   6.970   2.969
 2894TIP3    H1 8625   3.413   6.932   3.019
 2894TIP3    H2 8626   3.313   6.901   2.909
 2895TIP3   OH2 8627   0.976   7.726   6.684
 2895TIP3    H1 8628   0.968   7.807   6.736
 2895TIP3    H2 8629   0.963   7.656   6.747
 2896TIP3   OH2 8630   3.766   5.881   6.550
 2896TIP3    H1 8631   3.677   5.854   6.526
 2896TIP3    H2 8632   3.793   5.819   6.618
 2897TIP3   OH2 8633   4.826   6.833   4.073
 2897TIP3    H1 8634   4.877   6.858   3.996
 2897TIP3    H2 8635   4.883   6.774   4.122
 2898TIP3   OH2 8636   6.822   3.060   4.080
 2898TIP3    H1 8637   6.913   3.034   4.094
 2898TIP3    H2 8638   6.772   2.978   4.085
 2899TIP3   OH2 8639   2.343   5.542   5.406
 2899TIP3    H1 8640   2.286   5.559   5.331
 2899TIP3    H2 8641   2.385   5.627   5.424
 2900TIP3   OH2 8642   6.570   0.211   4.679
 2900TIP3    H1 8643   6.634   0.272   4.640
 2900TIP3    H2 8644   6.624   0.149   4.728
 2901TIP3   OH2 8645   1.763   2.751   0.276
 2901TIP3    H1 8646   1.721   2.681   0.326
 2901TIP3    H2 8647   1.833   2.706   0.227
 2902TIP3   OH2 8648   4.258   3.090   2.322
 2902TIP3    H1 8649   4.198   3.016   2.317
 2902TIP3    H2 8650   4.206   3.162   2.357
 2903TIP3   OH2 8651   0.706   4.204   0.181
 2903TIP3    H1 8652   0.643   4.185   0.251
 2903TIP3    H2 8653   0.664   4.172   0.102
 2904TIP3   OH2 8654   0.581   7.811   0.697
 2904TIP3    H1 8655   0.601   7.729   0.742
 2904TIP3    H2 8656   0.530   7.784   0.621
 2905TIP3   OH2 8657   1.957   2.608   4.462
 2905TIP3    H1 8658   2.040   2.578   4.425
 2905TIP3    H2 8659   1.947   2.555   4.541
 2906TIP3   OH2 8660   0.258   2.602   2.649
 2906TIP3    H1 8661   0.331   2.601   2.710
 2906TIP3    H2 8662   0.213   2.519   2.664
 2907TIP3   OH2 8663   2.559   6.739   4.920
 2907TIP3    H1 8664   2.513   6.699   4.994
 2907TIP3    H2 8665   2.491   6.786   4.872
 2908TIP3   OH2 8666   5.437   1.335   2.957
 2908TIP3    H1 8667   5.387   1.285   2.892
 2908TIP3    H2 8668   5.449   1.274   3.030
 2909TIP3   OH2 8669   1.202   2.956   0.646
 2909TIP3    H1 8670   1.167   3.043   0.666
 2909TIP3    H2 8671   1.282   2.951   0.699
 2910TIP3   OH2 8672   1.038   3.548   0.250
 2910TIP3    H1 8673   1.114   3.590   0.210
 2910TIP3    H2 8674   1.063   3.535   0.341
 2911TIP3   OH2 8675   6.306   2.178   1.753
 2911TIP3    H1 8676   6.213   2.198   1.743
 2911TIP3    H2 8677   6.332   2.226   1.832
 2912TIP3   OH2 8678   0.959   5.486   5.398
 2912TIP3    H1 8679   0.994   5.534   5.473
 2912TIP3    H2 8680   0.875   5.451   5.428
 2913TIP3   OH2 8681   3.006   4.550   5.922
 2913TIP3    H1 8682   3.073   4.559   5.853
 2913TIP3    H2 8683   3.045   4.592   5.998
 2914TIP3   OH2 8684   1.116   2.744   4.836
 2914TIP3    H1 8685   1.038   2.698   4.804
 2914TIP3    H2 8686   1.177   2.740   4.763
 2915TIP3   OH2 8687   7.379   2.098   1.310
 2915TIP3    H1 8688   7.380   2.019   1.364
 2915TIP3    H2 8689   7.415   2.069   1.226
 2916TIP3   OH2 8690   7.869   3.384   5.466
 2916TIP3    H1 8691   7.779   3.388   5.434
 2916TIP3    H2 8692   7.922   3.376   5.387
 2917TIP3   OH2 8693   3.470   0.443   3.362
 2917TIP3    H1 8694   3.532   0.414   3.430
 2917TIP3    H2 8695   3.387   0.454   3.409
 2918TIP3   OH2 8696   1.570   0.973   6.367
 2918TIP3    H1 8697   1.562   0.881   6.394
 2918TIP3    H2 8698   1.661   0.996   6.389
 2919TIP3   OH2 8699   2.967   0.438   4.904
 2919TIP3    H1 8700   2.979   0.527   4.871
 2919TIP3    H2 8701   2.873   0.424   4.904
 2920TIP3   OH2 8702   7.166   0.841   2.746
 2920TIP3    H1 8703   7.155   0.913   2.808
 2920TIP3    H2 8704   7.171   0.763   2.800
 2921TIP3   OH2 8705   2.086   3.673   0.907
 2921TIP3    H1 8706   2.056   3.652   0.996
 2921TIP3    H2 8707   2.156   3.737   0.921
 2922TIP3   OH2 8708   8.043   2.806   4.067
 2922TIP3    H1 8709   8.007   2.758   4.142
 2922TIP3    H2 8710   7.967   2.849   4.027
 2923TIP3   OH2 8711   2.221   6.408   4.379
 2923TIP3    H1 8712   2.284   6.362   4.324
 2923TIP3    H2 8713   2.263   6.492   4.397
 2924TIP3   OH2 8714   1.894   2.000   0.786
 2924TIP3    H1 8715   1.811   1.981   0.742
 2924TIP3    H2 8716   1.952   2.029   0.716
 2925TIP3   OH2 8717   6.184   0.590   3.407
 2925TIP3    H1 8718   6.172   0.529   3.480
 2925TIP3    H2 8719   6.100   0.588   3.361
 2926TIP3   OH2 8720   3.262   0.622   0.005
 2926TIP3    H1 8721   3.325   0.650   0.071
 2926TIP3    H2 8722   3.267   0.527   0.006
 2927TIP3   OH2 8723   2.350   2.591   6.344
 2927TIP3    H1 8724   2.334   2.550   6.259
 2927TIP3    H2 8725   2.434   2.555   6.373
 2928TIP3   OH2 8726   8.285   7.363   2.473
 2928TIP3    H1 8727   8.318   7.362   2.563
 2928TIP3    H2 8728   8.193   7.337   2.482
 2929TIP3   OH2 8729   4.946   5.711   3.637
 2929TIP3    H1 8730   4.932   5.806   3.642
 2929TIP3    H2 8731   5.038   5.702   3.612
 2930TIP3   OH2 8732   3.594   4.814   5.972
 2930TIP3    H1 8733   3.665   4.751   5.959
 2930TIP3    H2 8734   3.615   4.856   6.056
 2931TIP3   OH2 8735   7.870   3.322   5.930
 2931TIP3    H1 8736   7.918   3.290   6.007
 2931TIP3    H2 8737   7.793   3.266   5.925
 2932TIP3   OH2 8738   2.300   0.102   4.789
 2932TIP3    H1 8739   2.282   0.117   4.696
 2932TIP3    H2 8740   2.395   0.100   4.795
 2933TIP3   OH2 8741   1.519   3.502   4.846
 2933TIP3    H1 8742   1.511   3.416   4.888
 2933TIP3    H2 8743   1.498   3.564   4.916
 2934TIP3   OH2 8744   6.191   6.709   3.954
 2934TIP3    H1 8745   6.218   6.675   4.039
 2934TIP3    H2 8746   6.143   6.636   3.913
 2935TIP3   OH2 8747   1.594   2.680   4.910
 2935TIP3    H1 8748   1.671   2.735   4.892
 2935TIP3    H2 8749   1.556   2.663   4.823
 2936TIP3   OH2 8750   3.300   0.792   5.326
 2936TIP3    H1 8751   3.295   0.795   5.422
 2936TIP3    H2 8752   3.371   0.730   5.308
 2937TIP3   OH2 8753   0.595   7.137   4.264
 2937TIP3    H1 8754   0.559   7.124   4.351
 2937TIP3    H2 8755   0.667   7.198   4.276
 2938TIP3   OH2 8756   6.486   2.867   1.270
 2938TIP3    H1 8757   6.566   2.815   1.284
 2938TIP3    H2 8758   6.454   2.886   1.358
 2939TIP3   OH2 8759   7.372   5.219   1.480
 2939TIP3    H1 8760   7.465   5.196   1.475
 2939TIP3    H2 8761   7.351   5.214   1.573
 2940TIP3   OH2 8762   0.310   3.689   6.388
 2940TIP3    H1 8763   0.218   3.699   6.362
 2940TIP3    H2 8764   0.349   3.775   6.373
 2941TIP3   OH2 8765   5.937   2.969   1.988
 2941TIP3    H1 8766   5.901   2.975   2.077
 2941TIP3    H2 8767   6.018   3.019   1.991
 2942TIP3   OH2 8768   0.241   2.484   4.253
 2942TIP3    H1 8769   0.165   2.430   4.272
 2942TIP3    H2 8770   0.214   2.573   4.276
 2943TIP3   OH2 8771   2.190   0.036   5.950
 2943TIP3    H1 8772   2.218   0.113   5.999
 2943TIP3    H2 8773   2.217  -0.038   6.005
 2944TIP3   OH2 8774   7.502   6.298   2.911
 2944TIP3    H1 8775   7.490   6.229   2.977
 2944TIP3    H2 8776   7.597   6.299   2.896
 2945TIP3   OH2 8777   6.473   7.359   3.379
 2945TIP3    H1 8778   6.428   7.321   3.455
 2945TIP3    H2 8779   6.560   7.383   3.412
 2946TIP3   OH2 8780   0.429   7.059   4.781
 2946TIP3    H1 8781   0.453   7.074   4.689
 2946TIP3    H2 8782   0.466   6.973   4.801
 2947TIP3   OH2 8783   1.867   2.882   0.514
 2947TIP3    H1 8784   1.835   2.827   0.442
 2947TIP3    H2 8785   1.838   2.837   0.593
 2948TIP3   OH2 8786   6.045   6.915   1.863
 2948TIP3    H1 8787   6.076   6.901   1.773
 2948TIP3    H2 8788   6.072   6.837   1.910
 2949TIP3   OH2 8789   5.754   4.953   1.874
 2949TIP3    H1 8790   5.831   4.971   1.928
 2949TIP3    H2 8791   5.758   4.859   1.857
 2950TIP3   OH2 8792   0.192   5.816   6.619
 2950TIP3    H1 8793   0.154   5.898   6.648
 2950TIP3    H2 8794   0.285   5.823   6.642
 2951TIP3   OH2 8795   4.389   0.796   1.704
 2951TIP3    H1 8796   4.415   0.714   1.746
 2951TIP3    H2 8797   4.294   0.797   1.710
 2952TIP3   OH2 8798   1.075   6.739   5.504
 2952TIP3    H1 8799   1.141   6.673   5.520
 2952TIP3    H2 8800   1.027   6.708   5.427
 2953TIP3   OH2 8801   2.959   5.450   5.291
 2953TIP3    H1 8802   2.873   5.422   5.323
 2953TIP3    H2 8803   2.985   5.521   5.350
 2954TIP3   OH2 8804   3.949   4.287   5.069
 2954TIP3    H1 8805   3.884   4.224   5.039
 2954TIP3    H2 8806   3.908   4.332   5.142
 2955TIP3   OH2 8807   1.253   3.896   4.167
 2955TIP3    H1 8808   1.312   3.929   4.099
 2955TIP3    H2 8809   1.295   3.924   4.249
 2956TIP3   OH2 8810   2.819   1.800   3.089
 2956TIP3    H1 8811   2.834   1.759   3.004
 2956TIP3    H2 8812   2.775   1.883   3.068
 2957TIP3   OH2 8813   8.029   4.110   2.574
 2957TIP3    H1 8814   8.027   4.142   2.664
 2957TIP3    H2 8815   8.005   4.186   2.521
 2958TIP3   OH2 8816   0.241   6.052   1.597
 2958TIP3    H1 8817   0.231   6.110   1.673
 2958TIP3    H2 8818   0.287   6.105   1.533
 2959TIP3   OH2 8819   1.310   0.779   4.698
 2959TIP3    H1 8820   1.316   0.738   4.784
 2959TIP3    H2 8821   1.216   0.786   4.681
 2960TIP3   OH2 8822   4.597   0.269   5.153
 2960TIP3    H1 8823   4.578   0.249   5.245
 2960TIP3    H2 8824   4.687   0.239   5.140
 2961TIP3   OH2 8825   2.552   6.527   2.467
 2961TIP3    H1 8826   2.500   6.524   2.386
 2961TIP3    H2 8827   2.571   6.435   2.486
 2962TIP3   OH2 8828   3.831   3.713   5.568
 2962TIP3    H1 8829   3.766   3.692   5.635
 2962TIP3    H2 8830   3.857   3.803   5.586
 2963TIP3   OH2 8831   0.920   4.504   5.673
 2963TIP3    H1 8832   0.830   4.500   5.639
 2963TIP3    H2 8833   0.918   4.454   5.754
 2964TIP3   OH2 8834   1.536   0.940   4.745
 2964TIP3    H1 8835   1.473   0.871   4.767
 2964TIP3    H2 8836   1.536   0.943   4.649
 2965TIP3   OH2 8837   8.058   0.879   5.283
 2965TIP3    H1 8838   8.000   0.849   5.212
 2965TIP3    H2 8839   8.010   0.858   5.363
 2966TIP3   OH2 8840   1.704   5.884   5.328
 2966TIP3    H1 8841   1.750   5.945   5.386
 2966TIP3    H2 8842   1.705   5.927   5.242
 2967TIP3   OH2 8843   4.199   7.782   6.541
 2967TIP3    H1 8844   4.154   7.762   6.458
 2967TIP3    H2 8845   4.233   7.697   6.570
 2968TIP3   OH2 8846   2.527   1.236   0.634
 2968TIP3    H1 8847   2.490   1.187   0.561
 2968TIP3    H2 8848   2.553   1.320   0.597
 2969TIP3   OH2 8849   1.422   4.671   3.559
 2969TIP3    H1 8850   1.332   4.698   3.540
 2969TIP3    H2 8851   1.417   4.635   3.647
 2970TIP3   OH2 8852   4.103   7.523   3.287
 2970TIP3    H1 8853   4.126   7.430   3.298
 2970TIP3    H2 8854   4.118   7.540   3.194
 2971TIP3   OH2 8855   5.740   1.764   3.403
 2971TIP3    H1 8856   5.790   1.733   3.327
 2971TIP3    H2 8857   5.710   1.851   3.377
 2972TIP3   OH2 8858   6.732   1.211   4.296
 2972TIP3    H1 8859   6.783   1.137   4.264
 2972TIP3    H2 8860   6.685   1.243   4.218
 2973TIP3   OH2 8861   2.315   4.736   2.866
 2973TIP3    H1 8862   2.370   4.658   2.860
 2973TIP3    H2 8863   2.330   4.768   2.955
 2974TIP3   OH2 8864   7.906   5.348   2.500
 2974TIP3    H1 8865   7.991   5.334   2.540
 2974TIP3    H2 8866   7.923   5.345   2.405
 2975TIP3   OH2 8867   1.299   6.809   0.759
 2975TIP3    H1 8868   1.349   6.888   0.779
 2975TIP3    H2 8869   1.355   6.737   0.788
 2976TIP3   OH2 8870   0.114   0.852   0.185
 2976TIP3    H1 8871   0.208   0.861   0.170
 2976TIP3    H2 8872   0.074   0.920   0.131
 2977TIP3   OH2 8873   0.468   6.011   5.948
 2977TIP3    H1 8874   0.457   5.917   5.936
 2977TIP3    H2 8875   0.404   6.034   6.016
 2978TIP3   OH2 8876   6.214   5.132   1.470
 2978TIP3    H1 8877   6.181   5.082   1.545
 2978TIP3    H2 8878   6.291   5.178   1.503
 2979TIP3   OH2 8879   3.281   7.686   1.757
 2979TIP3    H1 8880   3.310   7.647   1.839
 2979TIP3    H2 8881   3.201   7.734   1.780
 2980TIP3   OH2 8882   4.033   7.104   2.070
 2980TIP3    H1 8883   4.037   7.156   2.151
 2980TIP3    H2 8884   4.055   7.166   2.001
 2981TIP3   OH2 8885   1.141   4.002   5.880
 2981TIP3    H1 8886   1.069   3.963   5.830
 2981TIP3    H2 8887   1.117   3.986   5.972
 2982TIP3   OH2 8888   5.043   6.501   1.071
 2982TIP3    H1 8889   5.045   6.566   1.001
 2982TIP3    H2 8890   4.951   6.493   1.095
 2983TIP3   OH2 8891   1.887   2.564   6.337
 2983TIP3    H1 8892   1.865   2.541   6.246
 2983TIP3    H2 8893   1.886   2.659   6.338
 2984TIP3   OH2 8894   3.579   0.062   1.238
 2984TIP3    H1 8895   3.662   0.053   1.285
 2984TIP3    H2 8896   3.535  -0.022   1.249
 2985TIP3   OH2 8897   7.030   4.558   6.361
 2985TIP3    H1 8898   7.067   4.470   6.367
 2985TIP3    H2 8899   6.993   4.563   6.273
 2986TIP3   OH2 8900   3.020   0.832   5.275
 2986TIP3    H1 8901   3.115   0.824   5.272
 2986TIP3    H2 8902   2.994   0.784   5.354
 2987TIP3   OH2 8903   8.027   4.426   2.441
 2987TIP3    H1 8904   7.991   4.515   2.441
 2987TIP3    H2 8905   8.071   4.418   2.356
 2988TIP3   OH2 8906   7.795   0.105   1.418
 2988TIP3    H1 8907   7.719   0.153   1.387
 2988TIP3    H2 8908   7.844   0.170   1.470
 2989TIP3   OH2 8909   6.332   0.272   6.593
 2989TIP3    H1 8910   6.351   0.360   6.626
 2989TIP3    H2 8911   6.301   0.286   6.503
 2990TIP3   OH2 8912   1.107   3.999   1.954
 2990TIP3    H1 8913   1.109   3.917   1.905
 2990TIP3    H2 8914   1.194   4.037   1.942
 2991TIP3   OH2 8915   3.833   0.801   2.029
 2991TIP3    H1 8916   3.859   0.734   1.966
 2991TIP3    H2 8917   3.883   0.879   2.003
 2992TIP3   OH2 8918   8.119   5.224   6.342
 2992TIP3    H1 8919   8.078   5.239   6.427
 2992TIP3    H2 8920   8.172   5.303   6.327
 2993TIP3   OH2 8921   7.978   0.905   4.251
 2993TIP3    H1 8922   8.061   0.942   4.280
 2993TIP3    H2 8923   7.934   0.976   4.205
 2994TIP3   OH2 8924   3.192   6.196   6.404
 2994TIP3    H1 8925   3.270   6.248   6.384
 2994TIP3    H2 8926   3.119   6.258   6.394
 2995TIP3   OH2 8927   0.209   4.551   5.464
 2995TIP3    H1 8928   0.153   4.502   5.524
 2995TIP3    H2 8929   0.287   4.573   5.516
 2996TIP3   OH2 8930   0.128   6.598   3.795
 2996TIP3    H1 8931   0.152   6.575   3.705
 2996TIP3    H2 8932   0.189   6.548   3.850
 2997TIP3   OH2 8933   2.687   7.581   0.700
 2997TIP3    H1 8934   2.671   7.529   0.779
 2997TIP3    H2 8935   2.744   7.527   0.646
 2998TIP3   OH2 8936   3.680   4.349   5.536
 2998TIP3    H1 8937   3.735   4.317   5.608
 2998TIP3    H2 8938   3.667   4.442   5.556
 2999TIP3   OH2 8939   3.621   3.654   2.175
 2999TIP3    H1 8940   3.707   3.638   2.215
 2999TIP3    H2 8941   3.561   3.601   2.227
 3000TIP3   OH2 8942   4.617   1.020   5.296
 3000TIP3    H1 8943   4.612   1.100   5.244
 3000TIP3    H2 8944   4.527   1.003   5.323
 3001TIP3   OH2 8945   1.330   1.674   4.411
 3001TIP3    H1 8946   1.385   1.646   4.339
 3001TIP3    H2 8947   1.270   1.601   4.425
 3002TIP3   OH2 8948   1.424   2.209   2.775
 3002TIP3    H1 8949   1.410   2.275   2.707
 3002TIP3    H2 8950   1.434   2.127   2.727
 3003TIP3   OH2 8951   8.079   6.755   5.324
 3003TIP3    H1 8952   8.022   6.700   5.270
 3003TIP3    H2 8953   8.126   6.810   5.261
 3004TIP3   OH2 8954   7.408   6.159   5.019
 3004TIP3    H1 8955   7.440   6.093   5.080
 3004TIP3    H2 8956   7.341   6.206   5.068
 3005TIP3   OH2 8957   2.002   2.810   6.348
 3005TIP3    H1 8958   2.089   2.848   6.357
 3005TIP3    H2 8959   1.945   2.870   6.395
 3006TIP3   OH2 8960   5.236   0.722   6.334
 3006TIP3    H1 8961   5.245   0.647   6.393
 3006TIP3    H2 8962   5.205   0.793   6.391
 3007TIP3   OH2 8963   0.746   0.424   3.090
 3007TIP3    H1 8964   0.773   0.332   3.087
 3007TIP3    H2 8965   0.806   0.468   3.030
 3008TIP3   OH2 8966   3.068   5.144   1.667
 3008TIP3    H1 8967   3.154   5.101   1.669
 3008TIP3    H2 8968   3.087   5.236   1.684
 3009TIP3   OH2 8969   7.509   2.801   1.537
 3009TIP3    H1 8970   7.436   2.848   1.497
 3009TIP3    H2 8971   7.480   2.710   1.541
 3010TIP3   OH2 8972   3.448   0.001   5.838
 3010TIP3    H1 8973   3.410   0.032   5.756
 3010TIP3    H2 8974   3.418  -0.089   5.846
 3011TIP3   OH2 8975   3.166   6.695   0.772
 3011TIP3    H1 8976   3.208   6.627   0.720
 3011TIP3    H2 8977   3.112   6.648   0.835
 3012TIP3   OH2 8978   0.458   0.864   5.739
 3012TIP3    H1 8979   0.391   0.797   5.725
 3012TIP3    H2 8980   0.423   0.942   5.695
 3013TIP3   OH2 8981   6.136   0.626   4.536
 3013TIP3    H1 8982   6.153   0.692   4.469
 3013TIP3    H2 8983   6.219   0.578   4.544
 3014TIP3   OH2 8984   6.670   2.463   0.263
 3014TIP3    H1 8985   6.681   2.383   0.212
 3014TIP3    H2 8986   6.705   2.532   0.207
 3015TIP3   OH2 8987   5.992   3.618   6.243
 3015TIP3    H1 8988   6.028   3.684   6.184
 3015TIP3    H2 8989   5.901   3.608   6.214
 3016TIP3   OH2 8990   0.867   4.043   3.349
 3016TIP3    H1 8991   0.938   4.002   3.400
 3016TIP3    H2 8992   0.912   4.090   3.279
 3017TIP3   OH2 8993   6.823   1.929   6.491
 3017TIP3    H1 8994   6.774   1.854   6.457
 3017TIP3    H2 8995   6.760   1.976   6.546
 3018TIP3   OH2 8996   1.066   5.234   2.746
 3018TIP3    H1 8997   1.067   5.273   2.833
 3018TIP3    H2 8998   1.106   5.148   2.758
 3019TIP3   OH2 8999   6.101   3.347   3.334
 3019TIP3    H1 9000   6.195   3.334   3.341
 3019TIP3    H2 9001   6.083   3.423   3.389
 3020TIP3   OH2 9002   7.772   0.799   6.479
 3020TIP3    H1 9003   7.777   0.714   6.524
 3020TIP3    H2 9004   7.808   0.862   6.542
 3021TIP3   OH2 9005   4.209   2.025   5.006
 3021TIP3    H1 9006   4.282   1.988   5.056
 3021TIP3    H2 9007   4.251   2.081   4.940
 3022TIP3   OH2 9008   3.836   5.735   4.476
 3022TIP3    H1 9009   3.836   5.686   4.394
 3022TIP3    H2 9010   3.859   5.670   4.542
 3023TIP3   OH2 9011   4.604   5.612   2.206
 3023TIP3    H1 9012   4.663   5.659   2.265
 3023TIP3    H2 9013   4.661   5.569   2.143
 3024TIP3   OH2 9014   3.854   3.387   6.097
 3024TIP3    H1 9015   3.873   3.333   6.174
 3024TIP3    H2 9016   3.765   3.361   6.072
 3025TIP3   OH2 9017   2.944   6.731   4.627
 3025TIP3    H1 9018   3.038   6.747   4.637
 3025TIP3    H2 9019   2.905   6.818   4.619
 3026TIP3   OH2 9020   1.819   2.846   3.453
 3026TIP3    H1 9021   1.864   2.920   3.413
 3026TIP3    H2 9022   1.826   2.862   3.547
 3027TIP3   OH2 9023   6.153   3.463   2.473
 3027TIP3    H1 9024   6.200   3.382   2.455
 3027TIP3    H2 9025   6.064   3.435   2.493
 3028TIP3   OH2 9026   3.507   0.612   5.181
 3028TIP3    H1 9027   3.573   0.608   5.250
 3028TIP3    H2 9028   3.494   0.522   5.153
 3029TIP3   OH2 9029   2.908   3.804   2.430
 3029TIP3    H1 9030   2.982   3.821   2.489
 3029TIP3    H2 9031   2.944   3.816   2.342
 3030TIP3   OH2 9032   6.086   0.696   1.652
 3030TIP3    H1 9033   6.125   0.643   1.722
 3030TIP3    H2 9034   6.149   0.766   1.638
 3031TIP3   OH2 9035   3.578   4.416   5.826
 3031TIP3    H1 9036   3.578   4.330   5.868
 3031TIP3    H2 9037   3.612   4.476   5.893
 3032TIP3   OH2 9038   1.602   3.792   5.528
 3032TIP3    H1 9039   1.646   3.838   5.600
 3032TIP3    H2 9040   1.670   3.779   5.462
 3033TIP3   OH2 9041   6.210   3.629   2.673
 3033TIP3    H1 9042   6.164   3.713   2.679
 3033TIP3    H2 9043   6.167   3.582   2.602
 3034TIP3   OH2 9044   2.734   3.184   0.589
 3034TIP3    H1 9045   2.719   3.138   0.672
 3034TIP3    H2 9046   2.687   3.267   0.600
 3035TIP3   OH2 9047   0.913   6.967   0.866
 3035TIP3    H1 9048   0.953   6.912   0.799
 3035TIP3    H2 9049   0.840   7.010   0.822
 3036TIP3   OH2 9050   7.866   0.730   4.751
 3036TIP3    H1 9051   7.837   0.647   4.789
 3036TIP3    H2 9052   7.962   0.724   4.751
 3037TIP3   OH2 9053   8.130   2.271   1.142
 3037TIP3    H1 9054   8.102   2.362   1.155
 3037TIP3    H2 9055   8.147   2.265   1.048
 3038TIP3   OH2 9056   1.754   0.067   5.437
 3038TIP3    H1 9057   1.673   0.023   5.414
 3038TIP3    H2 9058   1.727   0.142   5.491
 3039TIP3   OH2 9059   4.681   5.049   1.825
 3039TIP3    H1 9060   4.597   5.036   1.868
 3039TIP3    H2 9061   4.679   4.989   1.750
 3040TIP3   OH2 9062   8.137   6.441   2.943
 3040TIP3    H1 9063   8.133   6.370   3.007
 3040TIP3    H2 9064   8.220   6.429   2.897
 3041TIP3   OH2 9065   1.538   0.155   2.121
 3041TIP3    H1 9066   1.485   0.085   2.160
 3041TIP3    H2 9067   1.482   0.232   2.126
 3042TIP3   OH2 9068   6.140   5.346   0.515
 3042TIP3    H1 9069   6.151   5.380   0.604
 3042TIP3    H2 9070   6.045   5.347   0.501
 3043TIP3   OH2 9071   4.032   6.881   1.053
 3043TIP3    H1 9072   4.093   6.933   1.106
 3043TIP3    H2 9073   3.945   6.905   1.086
 3044TIP3   OH2 9074   7.705   5.489   5.555
 3044TIP3    H1 9075   7.697   5.562   5.617
 3044TIP3    H2 9076   7.799   5.483   5.538
 3045TIP3   OH2 9077   1.340   6.564   3.413
 3045TIP3    H1 9078   1.403   6.630   3.442
 3045TIP3    H2 9079   1.257   6.612   3.407
 3046TIP3   OH2 9080   7.609   6.734   2.943
 3046TIP3    H1 9081   7.681   6.789   2.973
 3046TIP3    H2 9082   7.571   6.784   2.870
 3047TIP3   OH2 9083   0.432   0.808   1.492
 3047TIP3    H1 9084   0.475   0.892   1.508
 3047TIP3    H2 9085   0.464   0.751   1.562
 3048TIP3   OH2 9086   5.791   4.705   1.765
 3048TIP3    H1 9087   5.866   4.696   1.706
 3048TIP3    H2 9088   5.728   4.641   1.733
 3049TIP3   OH2 9089   2.805   5.808   5.543
 3049TIP3    H1 9090   2.874   5.864   5.578
 3049TIP3    H2 9091   2.836   5.719   5.559
 3050TIP3   OH2 9092   0.900   5.619   2.792
 3050TIP3    H1 9093   0.822   5.565   2.807
 3050TIP3    H2 9094   0.907   5.625   2.696
 3051TIP3   OH2 9095   7.723   5.683   4.273
 3051TIP3    H1 9096   7.669   5.634   4.211
 3051TIP3    H2 9097   7.703   5.775   4.255
 3052TIP3   OH2 9098   4.671   3.221   4.650
 3052TIP3    H1 9099   4.602   3.220   4.584
 3052TIP3    H2 9100   4.751   3.240   4.601
 3053TIP3   OH2 9101   4.286   5.177   4.206
 3053TIP3    H1 9102   4.239   5.110   4.157
 3053TIP3    H2 9103   4.261   5.260   4.165
 3054TIP3   OH2 9104   0.446   3.848   3.187
 3054TIP3    H1 9105   0.363   3.834   3.233
 3054TIP3    H2 9106   0.460   3.943   3.191
 3055TIP3   OH2 9107   8.270   4.821   1.466
 3055TIP3    H1 9108   8.232   4.896   1.513
 3055TIP3    H2 9109   8.294   4.856   1.381
 3056TIP3   OH2 9110   4.391   2.135   5.728
 3056TIP3    H1 9111   4.362   2.190   5.656
 3056TIP3    H2 9112   4.311   2.093   5.760
 3057TIP3   OH2 9113   7.444   6.841   2.756
 3057TIP3    H1 9114   7.393   6.878   2.683
 3057TIP3    H2 9115   7.386   6.774   2.793
 3058TIP3   OH2 9116   1.605   0.237   5.696
 3058TIP3    H1 9117   1.656   0.218   5.775
 3058TIP3    H2 9118   1.516   0.209   5.717
 3059TIP3   OH2 9119   5.843   3.997   5.512
 3059TIP3    H1 9120   5.877   3.908   5.513
 3059TIP3    H2 9121   5.870   4.034   5.596
 3060TIP3   OH2 9122   2.984   1.603   6.615
 3060TIP3    H1 9123   3.005   1.542   6.685
 3060TIP3    H2 9124   2.929   1.553   6.555
 3061TIP3   OH2 9125   7.226   5.499   5.889
 3061TIP3    H1 9126   7.182   5.513   5.805
 3061TIP3    H2 9127   7.224   5.585   5.932
 3062TIP3   OH2 9128   5.428   3.724   1.260
 3062TIP3    H1 9129   5.469   3.677   1.333
 3062TIP3    H2 9130   5.477   3.695   1.183
 3063TIP3   OH2 9131   2.021   0.500   0.520
 3063TIP3    H1 9132   1.926   0.506   0.507
 3063TIP3    H2 9133   2.033   0.504   0.615
 3064TIP3   OH2 9134   2.313   0.209   5.305
 3064TIP3    H1 9135   2.306   0.157   5.225
 3064TIP3    H2 9136   2.317   0.300   5.275
 3065TIP3   OH2 9137   5.603   5.068   3.016
 3065TIP3    H1 9138   5.640   5.005   3.078
 3065TIP3    H2 9139   5.672   5.134   3.005
 3066TIP3   OH2 9140   2.078   5.583   6.444
 3066TIP3    H1 9141   2.020   5.655   6.471
 3066TIP3    H2 9142   2.043   5.554   6.360
 3067TIP3   OH2 9143   2.933   4.332   1.372
 3067TIP3    H1 9144   2.948   4.386   1.450
 3067TIP3    H2 9145   2.978   4.379   1.302
 3068TIP3   OH2 9146   5.668   4.287   5.565
 3068TIP3    H1 9147   5.596   4.290   5.502
 3068TIP3    H2 9148   5.686   4.194   5.576
 3069TIP3   OH2 9149   7.469   5.462   4.136
 3069TIP3    H1 9150   7.520   5.475   4.056
 3069TIP3    H2 9151   7.446   5.550   4.165
 3070TIP3   OH2 9152   7.062   5.336   2.299
 3070TIP3    H1 9153   7.017   5.261   2.261
 3070TIP3    H2 9154   7.123   5.299   2.363
 3071TIP3   OH2 9155   1.913   6.563   0.618
 3071TIP3    H1 9156   1.845   6.520   0.567
 3071TIP3    H2 9157   1.921   6.650   0.580
 3072TIP3   OH2 9158   0.017   3.071   1.019
 3072TIP3    H1 9159   0.037   2.983   1.052
 3072TIP3    H2 9160   0.092   3.124   1.045
 3073TIP3   OH2 9161   7.144   1.384   0.635
 3073TIP3    H1 9162   7.056   1.366   0.602
 3073TIP3    H2 9163   7.164   1.309   0.692
 3074TIP3   OH2 9164   4.444   4.909   3.303
 3074TIP3    H1 9165   4.434   4.991   3.255
 3074TIP3    H2 9166   4.374   4.912   3.369
 3075TIP3   OH2 9167   1.680   0.959   5.645
 3075TIP3    H1 9168   1.702   0.985   5.734
 3075TIP3    H2 9169   1.760   0.977   5.594
 3076TIP3   OH2 9170   5.697   1.415   5.042
 3076TIP3    H1 9171   5.750   1.355   5.093
 3076TIP3    H2 9172   5.751   1.435   4.965
 3077TIP3   OH2 9173   1.891   6.352   6.055
 3077TIP3    H1 9174   1.887   6.357   6.151
 3077TIP3    H2 9175   1.804   6.383   6.027
 3078TIP3   OH2 9176   0.949   4.191   6.636
 3078TIP3    H1 9177   1.037   4.155   6.646
 3078TIP3    H2 9178   0.921   4.213   6.725
 3079TIP3   OH2 9179   6.255   4.895   0.174
 3079TIP3    H1 9180   6.207   4.968   0.134
 3079TIP3    H2 9181   6.335   4.887   0.121
 3080TIP3   OH2 9182   6.531   5.185   3.772
 3080TIP3    H1 9183   6.439   5.159   3.775
 3080TIP3    H2 9184   6.569   5.131   3.703
 3081TIP3   OH2 9185   3.808   6.456   5.193
 3081TIP3    H1 9186   3.737   6.444   5.130
 3081TIP3    H2 9187   3.873   6.510   5.147
 3082TIP3   OH2 9188   2.240   6.899   2.970
 3082TIP3    H1 9189   2.267   6.985   3.002
 3082TIP3    H2 9190   2.200   6.916   2.885
 3083TIP3   OH2 9191   7.332   5.497   1.621
 3083TIP3    H1 9192   7.321   5.590   1.637
 3083TIP3    H2 9193   7.379   5.464   1.698
 3084TIP3   OH2 9194   1.685   5.300   0.286
 3084TIP3    H1 9195   1.741   5.280   0.362
 3084TIP3    H2 9196   1.698   5.225   0.227
 3085TIP3   OH2 9197   5.915   2.253   6.074
 3085TIP3    H1 9198   5.858   2.190   6.030
 3085TIP3    H2 9199   5.890   2.248   6.166
 3086TIP3   OH2 9200   7.826   1.093   0.836
 3086TIP3    H1 9201   7.894   1.154   0.865
 3086TIP3    H2 9202   7.874   1.023   0.792
 3087TIP3   OH2 9203   6.250   1.600   4.776
 3087TIP3    H1 9204   6.329   1.576   4.728
 3087TIP3    H2 9205   6.212   1.671   4.725
 3088TIP3   OH2 9206   4.455   4.103   1.706
 3088TIP3    H1 9207   4.549   4.100   1.723
 3088TIP3    H2 9208   4.435   4.017   1.669
 3089TIP3   OH2 9209   8.248   5.600   0.089
 3089TIP3    H1 9210   8.200   5.623   0.168
 3089TIP3    H2 9211   8.240   5.504   0.083
 3090TIP3   OH2 9212   5.647   1.278   2.001
 3090TIP3    H1 9213   5.626   1.367   1.975
 3090TIP3    H2 9214   5.616   1.271   2.091
 3091TIP3   OH2 9215   1.085   4.406   0.370
 3091TIP3    H1 9216   1.143   4.333   0.349
 3091TIP3    H2 9217   1.089   4.463   0.293
 3092TIP3   OH2 9218   1.156   6.080   6.076
 3092TIP3    H1 9219   1.210   6.132   6.017
 3092TIP3    H2 9220   1.219   6.030   6.129
 3093TIP3   OH2 9221   6.747   7.601   2.443
 3093TIP3    H1 9222   6.695   7.589   2.522
 3093TIP3    H2 9223   6.774   7.692   2.445
 3094TIP3   OH2 9224   1.482   0.834   3.555
 3094TIP3    H1 9225   1.520   0.914   3.593
 3094TIP3    H2 9226   1.389   0.854   3.546
 3095TIP3   OH2 9227   3.654   0.157   3.715
 3095TIP3    H1 9228   3.731   0.156   3.772
 3095TIP3    H2 9229   3.581   0.138   3.774
 3096TIP3   OH2 9230   5.722   7.372   6.229
 3096TIP3    H1 9231   5.665   7.436   6.186
 3096TIP3    H2 9232   5.803   7.419   6.246
 3097TIP3   OH2 9233   6.225   4.170   5.510
 3097TIP3    H1 9234   6.282   4.184   5.586
 3097TIP3    H2 9235   6.139   4.203   5.539
 3098TIP3   OH2 9236   3.653   5.819   2.401
 3098TIP3    H1 9237   3.745   5.795   2.411
 3098TIP3    H2 9238   3.636   5.880   2.472
 3099TIP3   OH2 9239   7.411   3.350   2.543
 3099TIP3    H1 9240   7.382   3.439   2.561
 3099TIP3    H2 9241   7.362   3.296   2.606
 3100TIP3   OH2 9242   7.723   6.842   3.919
 3100TIP3    H1 9243   7.815   6.862   3.900
 3100TIP3    H2 9244   7.706   6.761   3.871
 3101TIP3   OH2 9245   7.875   1.991   5.589
 3101TIP3    H1 9246   7.960   2.000   5.631
 3101TIP3    H2 9247   7.819   1.950   5.655
 3102TIP3   OH2 9248   5.030   3.554   6.506
 3102TIP3    H1 9249   5.051   3.521   6.593
 3102TIP3    H2 9250   4.980   3.635   6.523
 3103TIP3   OH2 9251   0.727   5.015   2.302
 3103TIP3    H1 9252   0.808   4.974   2.272
 3103TIP3    H2 9253   0.709   5.083   2.236
 3104TIP3   OH2 9254   3.220   3.474   5.220
 3104TIP3    H1 9255   3.304   3.467   5.176
 3104TIP3    H2 9256   3.194   3.383   5.237
 3105TIP3   OH2 9257   0.588   2.958   3.624
 3105TIP3    H1 9258   0.585   2.984   3.716
 3105TIP3    H2 9259   0.522   2.888   3.617
 3106TIP3   OH2 9260   5.886   4.894   0.885
 3106TIP3    H1 9261   5.964   4.854   0.846
 3106TIP3    H2 9262   5.815   4.833   0.864
 3107TIP3   OH2 9263   2.822   2.341   0.780
 3107TIP3    H1 9264   2.829   2.303   0.868
 3107TIP3    H2 9265   2.860   2.275   0.722
 3108TIP3   OH2 9266   2.043   7.374   4.976
 3108TIP3    H1 9267   1.949   7.367   4.961
 3108TIP3    H2 9268   2.082   7.333   4.898
 3109TIP3   OH2 9269   2.934   3.701   4.914
 3109TIP3    H1 9270   2.905   3.696   5.005
 3109TIP3    H2 9271   2.886   3.775   4.878
 3110TIP3   OH2 9272   3.931   4.893   5.639
 3110TIP3    H1 9273   3.870   4.826   5.610
 3110TIP3    H2 9274   3.895   4.975   5.605
 3111TIP3   OH2 9275   6.079   0.614   5.978
 3111TIP3    H1 9276   6.114   0.526   5.990
 3111TIP3    H2 9277   6.123   0.647   5.899
 3112TIP3   OH2 9278   6.955   3.629   2.871
 3112TIP3    H1 9279   6.976   3.713   2.913
 3112TIP3    H2 9280   6.966   3.646   2.777
 3113TIP3   OH2 9281   8.126   2.531   4.406
 3113TIP3    H1 9282   8.114   2.513   4.499
 3113TIP3    H2 9283   8.096   2.621   4.395
 3114TIP3   OH2 9284   2.407   3.922   6.292
 3114TIP3    H1 9285   2.497   3.890   6.288
 3114TIP3    H2 9286   2.381   3.931   6.200
 3115TIP3   OH2 9287   1.075   5.798   4.475
 3115TIP3    H1 9288   1.143   5.767   4.415
 3115TIP3    H2 9289   1.090   5.749   4.556
 3116TIP3   OH2 9290   3.797   0.784   1.447
 3116TIP3    H1 9291   3.792   0.832   1.365
 3116TIP3    H2 9292   3.873   0.727   1.437
 3117TIP3   OH2 9293   4.381   0.349   6.509
 3117TIP3    H1 9294   4.449   0.356   6.576
 3117TIP3    H2 9295   4.425   0.375   6.428
 3118TIP3   OH2 9296   2.563   2.782   5.045
 3118TIP3    H1 9297   2.527   2.702   5.082
 3118TIP3    H2 9298   2.495   2.814   4.986
 3119TIP3   OH2 9299   5.227   2.513   4.802
 3119TIP3    H1 9300   5.298   2.545   4.747
 3119TIP3    H2 9301   5.155   2.575   4.787
 3120TIP3   OH2 9302   3.206   5.817   4.310
 3120TIP3    H1 9303   3.269   5.774   4.252
 3120TIP3    H2 9304   3.238   5.907   4.317
 3121TIP3   OH2 9305   4.341   7.689   3.060
 3121TIP3    H1 9306   4.389   7.644   2.990
 3121TIP3    H2 9307   4.252   7.655   3.054
 3122TIP3   OH2 9308   6.524   7.206   3.760
 3122TIP3    H1 9309   6.478   7.267   3.702
 3122TIP3    H2 9310   6.497   7.119   3.730
 3123TIP3   OH2 9311   3.146   0.293   5.967
 3123TIP3    H1 9312   3.142   0.381   6.004
 3123TIP3    H2 9313   3.224   0.254   6.008
 3124TIP3   OH2 9314   3.144   2.326   0.331
 3124TIP3    H1 9315   3.221   2.295   0.283
 3124TIP3    H2 9316   3.079   2.343   0.263
 3125TIP3   OH2 9317   6.001   7.126   5.844
 3125TIP3    H1 9318   5.914   7.087   5.855
 3125TIP3    H2 9319   6.040   7.077   5.772
 3126TIP3   OH2 9320   2.256   7.125   3.138
 3126TIP3    H1 9321   2.161   7.128   3.149
 3126TIP3    H2 9322   2.287   7.208   3.177
 3127TIP3   OH2 9323   1.803   7.345   5.231
 3127TIP3    H1 9324   1.830   7.265   5.186
 3127TIP3    H2 9325   1.835   7.334   5.321
 3128TIP3   OH2 9326   1.994   3.582   3.973
 3128TIP3    H1 9327   2.048   3.562   4.049
 3128TIP3    H2 9328   1.904   3.579   4.005
 3129TIP3   OH2 9329   6.309   1.734   6.724
 3129TIP3    H1 9330   6.261   1.790   6.785
 3129TIP3    H2 9331   6.298   1.645   6.759
 3130TIP3   OH2 9332   5.023   7.425   3.700
 3130TIP3    H1 9333   4.929   7.436   3.688
 3130TIP3    H2 9334   5.060   7.512   3.684
 3131TIP3   OH2 9335   6.104   2.987   2.618
 3131TIP3    H1 9336   6.143   2.938   2.690
 3131TIP3    H2 9337   6.101   3.077   2.650
 3132TIP3   OH2 9338   2.160   1.669   3.741
 3132TIP3    H1 9339   2.075   1.714   3.734
 3132TIP3    H2 9340   2.138   1.578   3.759
 3133TIP3   OH2 9341   6.816   1.541   3.346
 3133TIP3    H1 9342   6.755   1.614   3.336
 3133TIP3    H2 9343   6.824   1.504   3.258
 3134TIP3   OH2 9344   0.094   7.159   5.121
 3134TIP3    H1 9345   0.094   7.098   5.195
 3134TIP3    H2 9346   0.179   7.148   5.080
 3135TIP3   OH2 9347   1.522   1.256   1.959
 3135TIP3    H1 9348   1.502   1.163   1.966
 3135TIP3    H2 9349   1.563   1.265   1.873
 3136TIP3   OH2 9350   2.659   5.821   1.360
 3136TIP3    H1 9351   2.625   5.903   1.397
 3136TIP3    H2 9352   2.607   5.753   1.402
 3137TIP3   OH2 9353   1.605   1.670   0.436
 3137TIP3    H1 9354   1.635   1.678   0.345
 3137TIP3    H2 9355   1.680   1.630   0.481
 3138TIP3   OH2 9356   2.850   1.544   0.854
 3138TIP3    H1 9357   2.917   1.508   0.796
 3138TIP3    H2 9358   2.892   1.551   0.939
 3139TIP3   OH2 9359   2.765   4.486   2.050
 3139TIP3    H1 9360   2.765   4.516   1.960
 3139TIP3    H2 9361   2.847   4.519   2.087
 3140TIP3   OH2 9362   1.008   5.323   3.004
 3140TIP3    H1 9363   1.057   5.346   3.083
 3140TIP3    H2 9364   0.923   5.366   3.015
 3141TIP3   OH2 9365   7.951   0.453   2.616
 3141TIP3    H1 9366   7.960   0.378   2.675
 3141TIP3    H2 9367   8.004   0.522   2.656
 3142TIP3   OH2 9368   1.549   2.353   6.309
 3142TIP3    H1 9369   1.505   2.275   6.342
 3142TIP3    H2 9370   1.640   2.325   6.296
 3143TIP3   OH2 9371   7.331   4.119   0.223
 3143TIP3    H1 9372   7.373   4.203   0.204
 3143TIP3    H2 9373   7.371   4.057   0.161
 3144TIP3   OH2 9374   6.723   6.110   4.400
 3144TIP3    H1 9375   6.682   6.116   4.314
 3144TIP3    H2 9376   6.682   6.035   4.442
 3145TIP3   OH2 9377   5.752   7.069   3.152
 3145TIP3    H1 9378   5.685   7.138   3.156
 3145TIP3    H2 9379   5.702   6.988   3.144
 3146TIP3   OH2 9380   3.272   4.326   4.945
 3146TIP3    H1 9381   3.358   4.320   4.903
 3146TIP3    H2 9382   3.287   4.377   5.024
 3147TIP3   OH2 9383   4.720   1.961   4.508
 3147TIP3    H1 9384   4.705   1.877   4.551
 3147TIP3    H2 9385   4.732   1.939   4.415
 3148TIP3   OH2 9386   4.787   5.533   5.051
 3148TIP3    H1 9387   4.859   5.563   5.106
 3148TIP3    H2 9388   4.829   5.489   4.978
 3149TIP3   OH2 9389   0.359   0.288   3.643
 3149TIP3    H1 9390   0.335   0.379   3.661
 3149TIP3    H2 9391   0.367   0.248   3.730
 3150TIP3   OH2 9392   0.912   3.192   5.451
 3150TIP3    H1 9393   0.995   3.220   5.413
 3150TIP3    H2 9394   0.846   3.240   5.401
 3151TIP3   OH2 9395   8.128   1.792   1.302
 3151TIP3    H1 9396   8.094   1.856   1.240
 3151TIP3    H2 9397   8.127   1.837   1.386
 3152TIP3   OH2 9398   2.196   3.892   6.783
 3152TIP3    H1 9399   2.178   3.945   6.705
 3152TIP3    H2 9400   2.119   3.838   6.793
 3153TIP3   OH2 9401   0.738   5.823   4.205
 3153TIP3    H1 9402   0.673   5.883   4.244
 3153TIP3    H2 9403   0.698   5.796   4.123
 3154TIP3   OH2 9404   5.347   2.289   5.942
 3154TIP3    H1 9405   5.290   2.366   5.944
 3154TIP3    H2 9406   5.305   2.230   5.879
 3155TIP3   OH2 9407   1.228   5.137   0.171
 3155TIP3    H1 9408   1.256   5.222   0.136
 3155TIP3    H2 9409   1.309   5.095   0.198
 3156TIP3   OH2 9410   5.838   6.509   3.253
 3156TIP3    H1 9411   5.926   6.493   3.288
 3156TIP3    H2 9412   5.821   6.435   3.196
 3157TIP3   OH2 9413   3.756   7.254   0.925
 3157TIP3    H1 9414   3.787   7.288   0.841
 3157TIP3    H2 9415   3.744   7.160   0.911
 3158TIP3   OH2 9416   5.463   6.080   6.809
 3158TIP3    H1 9417   5.410   6.123   6.742
 3158TIP3    H2 9418   5.462   5.988   6.785
 3159TIP3   OH2 9419   6.184   0.153   5.096
 3159TIP3    H1 9420   6.225   0.109   5.022
 3159TIP3    H2 9421   6.221   0.241   5.096
 3160TIP3   OH2 9422   5.559   4.532   1.010
 3160TIP3    H1 9423   5.566   4.457   1.070
 3160TIP3    H2 9424   5.472   4.567   1.026
 3161TIP3   OH2 9425   0.215   1.515   1.813
 3161TIP3    H1 9426   0.294   1.467   1.789
 3161TIP3    H2 9427   0.201   1.495   1.905
 3162TIP3   OH2 9428   7.621   7.433   5.934
 3162TIP3    H1 9429   7.696   7.431   5.993
 3162TIP3    H2 9430   7.551   7.474   5.985
 3163TIP3   OH2 9431   6.510   4.986   1.977
 3163TIP3    H1 9432   6.482   5.028   1.896
 3163TIP3    H2 9433   6.596   5.023   1.995
 3164TIP3   OH2 9434   4.953   5.409   6.749
 3164TIP3    H1 9435   4.871   5.382   6.790
 3164TIP3    H2 9436   4.942   5.387   6.657
 3165TIP3   OH2 9437   4.764   1.133   1.220
 3165TIP3    H1 9438   4.727   1.061   1.169
 3165TIP3    H2 9439   4.689   1.167   1.269
 3166TIP3   OH2 9440   4.767   3.009   5.979
 3166TIP3    H1 9441   4.819   3.061   6.040
 3166TIP3    H2 9442   4.753   3.067   5.904
 3167TIP3   OH2 9443   3.590   3.387   5.782
 3167TIP3    H1 9444   3.574   3.371   5.875
 3167TIP3    H2 9445   3.510   3.428   5.750
 3168TIP3   OH2 9446   6.506   0.701   3.514
 3168TIP3    H1 9447   6.453   0.734   3.442
 3168TIP3    H2 9448   6.515   0.775   3.574
 3169TIP3   OH2 9449   0.649   4.521   4.552
 3169TIP3    H1 9450   0.738   4.538   4.585
 3169TIP3    H2 9451   0.660   4.451   4.488
 3170TIP3   OH2 9452   5.978   4.263   6.292
 3170TIP3    H1 9453   5.988   4.192   6.228
 3170TIP3    H2 9454   5.923   4.226   6.360
 3171TIP3   OH2 9455   2.005   0.527   0.797
 3171TIP3    H1 9456   1.964   0.478   0.868
 3171TIP3    H2 9457   2.087   0.559   0.834
 3172TIP3   OH2 9458   7.559   3.962   6.109
 3172TIP3    H1 9459   7.628   4.008   6.157
 3172TIP3    H2 9460   7.478   3.989   6.151
 3173TIP3   OH2 9461   0.413   5.439   2.963
 3173TIP3    H1 9462   0.465   5.506   2.920
 3173TIP3    H2 9463   0.323   5.458   2.938
 3174TIP3   OH2 9464   0.820   0.057   5.714
 3174TIP3    H1 9465   0.865   0.132   5.753
 3174TIP3    H2 9466   0.883  -0.014   5.721
 3175TIP3   OH2 9467   7.455   1.829   0.664
 3175TIP3    H1 9468   7.435   1.857   0.753
 3175TIP3    H2 9469   7.388   1.872   0.610
 3176TIP3   OH2 9470   8.251   1.490   2.053
 3176TIP3    H1 9471   8.219   1.422   2.112
 3176TIP3    H2 9472   8.194   1.565   2.070
 3177TIP3   OH2 9473   4.904   2.239   3.583
 3177TIP3    H1 9474   4.855   2.193   3.651
 3177TIP3    H2 9475   4.854   2.319   3.567
 3178TIP3   OH2 9476   5.193   0.117   5.060
 3178TIP3    H1 9477   5.159   0.133   4.972
 3178TIP3    H2 9478   5.158   0.189   5.113
 3179TIP3   OH2 9479   0.226   6.926   3.352
 3179TIP3    H1 9480   0.233   6.947   3.259
 3179TIP3    H2 9481   0.143   6.966   3.380
 3180TIP3   OH2 9482   3.846   7.454   5.169
 3180TIP3    H1 9483   3.840   7.550   5.166
 3180TIP3    H2 9484   3.825   7.426   5.080
 3181TIP3   OH2 9485   4.938   2.077   5.888
 3181TIP3    H1 9486   4.914   2.164   5.858
 3181TIP3    H2 9487   4.931   2.081   5.983
 3182TIP3   OH2 9488   5.374   1.247   5.311
 3182TIP3    H1 9489   5.309   1.316   5.325
 3182TIP3    H2 9490   5.326   1.177   5.268
 3183TIP3   OH2 9491   2.814   6.642   1.011
 3183TIP3    H1 9492   2.828   6.649   0.916
 3183TIP3    H2 9493   2.901   6.650   1.049
 3184TIP3   OH2 9494   2.529   5.978   2.171
 3184TIP3    H1 9495   2.463   5.935   2.225
 3184TIP3    H2 9496   2.612   5.939   2.198
 3185TIP3   OH2 9497   6.730   4.193   2.053
 3185TIP3    H1 9498   6.708   4.165   1.964
 3185TIP3    H2 9499   6.808   4.248   2.043
 3186TIP3   OH2 9500   4.435   4.581   6.597
 3186TIP3    H1 9501   4.400   4.611   6.512
 3186TIP3    H2 9502   4.366   4.523   6.631
 3187TIP3   OH2 9503   4.645   6.837   1.685
 3187TIP3    H1 9504   4.656   6.749   1.649
 3187TIP3    H2 9505   4.720   6.886   1.650
 3188TIP3   OH2 9506   5.030   2.134   3.919
 3188TIP3    H1 9507   4.936   2.142   3.932
 3188TIP3    H2 9508   5.049   2.042   3.934
 3189TIP3   OH2 9509   5.886   0.122   0.722
 3189TIP3    H1 9510   5.920   0.079   0.800
 3189TIP3    H2 9511   5.797   0.087   0.712
 3190TIP3   OH2 9512   6.650   6.952   4.377
 3190TIP3    H1 9513   6.707   6.996   4.314
 3190TIP3    H2 9514   6.608   7.023   4.425
 3191TIP3   OH2 9515   2.439   5.128   5.827
 3191TIP3    H1 9516   2.395   5.066   5.769
 3191TIP3    H2 9517   2.515   5.081   5.860
 3192TIP3   OH2 9518   7.637   3.319   3.044
 3192TIP3    H1 9519   7.549   3.319   3.081
 3192TIP3    H2 9520   7.695   3.311   3.119
 3193TIP3   OH2 9521   1.706   1.814   3.690
 3193TIP3    H1 9522   1.684   1.903   3.661
 3193TIP3    H2 9523   1.729   1.768   3.609
 3194TIP3   OH2 9524   4.130   3.944   4.785
 3194TIP3    H1 9525   4.040   3.918   4.768
 3194TIP3    H2 9526   4.131   4.039   4.772
 3195TIP3   OH2 9527   6.101   6.997   1.023
 3195TIP3    H1 9528   6.182   7.022   1.067
 3195TIP3    H2 9529   6.127   6.983   0.932
 3196TIP3   OH2 9530   7.775   3.689   1.897
 3196TIP3    H1 9531   7.850   3.633   1.918
 3196TIP3    H2 9532   7.780   3.760   1.960
 3197TIP3   OH2 9533   7.081   4.965   3.139
 3197TIP3    H1 9534   7.149   4.941   3.201
 3197TIP3    H2 9535   7.125   4.969   3.054
 3198TIP3   OH2 9536   2.701   6.257   3.688
 3198TIP3    H1 9537   2.629   6.320   3.689
 3198TIP3    H2 9538   2.756   6.285   3.616
 3199TIP3   OH2 9539   6.726   2.823   4.164
 3199TIP3    H1 9540   6.639   2.788   4.141
 3199TIP3    H2 9541   6.720   2.842   4.257
 3200TIP3   OH2 9542   0.692   3.640   1.079
 3200TIP3    H1 9543   0.653   3.565   1.036
 3200TIP3    H2 9544   0.701   3.706   1.010
 3201TIP3   OH2 9545   3.577   3.135   6.543
 3201TIP3    H1 9546   3.624   3.217   6.560
 3201TIP3    H2 9547   3.642   3.067   6.557
 3202TIP3   OH2 9548   3.080   1.299   6.014
 3202TIP3    H1 9549   3.020   1.343   6.074
 3202TIP3    H2 9550   3.132   1.370   5.976
 3203TIP3   OH2 9551   3.313   1.983   0.353
 3203TIP3    H1 9552   3.292   1.892   0.335
 3203TIP3    H2 9553   3.271   2.001   0.437
 3204TIP3   OH2 9554   1.573   6.942   6.708
 3204TIP3    H1 9555   1.507   7.010   6.694
 3204TIP3    H2 9556   1.522   6.861   6.715
 3205TIP3   OH2 9557   7.333   1.530   4.428
 3205TIP3    H1 9558   7.265   1.527   4.497
 3205TIP3    H2 9559   7.316   1.451   4.376
 3206TIP3   OH2 9560   7.859   1.620   0.488
 3206TIP3    H1 9561   7.764   1.616   0.475
 3206TIP3    H2 9562   7.876   1.560   0.561
 3207TIP3   OH2 9563   0.632   7.482   1.826
 3207TIP3    H1 9564   0.599   7.543   1.892
 3207TIP3    H2 9565   0.684   7.420   1.875
 3208TIP3   OH2 9566   3.158   3.085   1.298
 3208TIP3    H1 9567   3.253   3.071   1.291
 3208TIP3    H2 9568   3.128   3.016   1.357
 3209TIP3   OH2 9569   8.100   2.079   0.701
 3209TIP3    H1 9570   8.139   2.142   0.761
 3209TIP3    H2 9571   8.010   2.069   0.731
 3210TIP3   OH2 9572   7.374   7.225   1.495
 3210TIP3    H1 9573   7.297   7.196   1.543
 3210TIP3    H2 9574   7.432   7.148   1.496
 3211TIP3   OH2 9575   0.135   0.585   0.114
 3211TIP3    H1 9576   0.146   0.671   0.152
 3211TIP3    H2 9577   0.076   0.539   0.174
 3212TIP3   OH2 9578   3.234   5.735   6.615
 3212TIP3    H1 9579   3.248   5.824   6.581
 3212TIP3    H2 9580   3.139   5.726   6.620
 3213TIP3   OH2 9581   7.395   2.625   5.368
 3213TIP3    H1 9582   7.376   2.703   5.317
 3213TIP3    H2 9583   7.341   2.556   5.329
 3214TIP3   OH2 9584   3.264   0.896   0.163
 3214TIP3    H1 9585   3.330   0.860   0.222
 3214TIP3    H2 9586   3.185   0.904   0.216
 3215TIP3   OH2 9587   6.588   6.968   6.045
 3215TIP3    H1 9588   6.636   7.046   6.018
 3215TIP3    H2 9589   6.565   6.984   6.137
 3216TIP3   OH2 9590   1.772   4.765   5.760
 3216TIP3    H1 9591   1.824   4.797   5.834
 3216TIP3    H2 9592   1.683   4.758   5.794
 3217TIP3   OH2 9593   5.409   1.807   0.186
 3217TIP3    H1 9594   5.366   1.723   0.167
 3217TIP3    H2 9595   5.500   1.784   0.201
 3218TIP3   OH2 9596   5.470   0.933   6.442
 3218TIP3    H1 9597   5.376   0.922   6.427
 3218TIP3    H2 9598   5.481   1.027   6.455
 3219TIP3   OH2 9599   2.288   6.235   0.789
 3219TIP3    H1 9600   2.296   6.331   0.787
 3219TIP3    H2 9601   2.379   6.204   0.786
 3220TIP3   OH2 9602   6.602   6.129   6.412
 3220TIP3    H1 9603   6.538   6.166   6.351
 3220TIP3    H2 9604   6.581   6.170   6.496
 3221TIP3   OH2 9605   2.410   5.498   2.995
 3221TIP3    H1 9606   2.439   5.407   2.990
 3221TIP3    H2 9607   2.457   5.534   3.070
 3222TIP3   OH2 9608   2.673   0.572   2.074
 3222TIP3    H1 9609   2.674   0.651   2.019
 3222TIP3    H2 9610   2.608   0.515   2.033
 3223TIP3   OH2 9611   2.793   6.314   0.101
 3223TIP3    H1 9612   2.867   6.373   0.106
 3223TIP3    H2 9613   2.823   6.242   0.045
 3224TIP3   OH2 9614   2.718   4.048   0.001
 3224TIP3    H1 9615   2.630   4.017   0.024
 3224TIP3    H2 9616   2.752   3.982  -0.059
 3225TIP3   OH2 9617   0.102   2.531   2.368
 3225TIP3    H1 9618   0.101   2.613   2.418
 3225TIP3    H2 9619   0.145   2.554   2.286
 3226TIP3   OH2 9620   4.145   0.513   1.580
 3226TIP3    H1 9621   4.161   0.507   1.674
 3226TIP3    H2 9622   4.232   0.506   1.540
 3227TIP3   OH2 9623   0.859   7.371   1.217
 3227TIP3    H1 9624   0.882   7.396   1.307
 3227TIP3    H2 9625   0.940   7.334   1.182
 3228TIP3   OH2 9626   1.134   1.549   2.948
 3228TIP3    H1 9627   1.081   1.622   2.916
 3228TIP3    H2 9628   1.117   1.478   2.886
 3229TIP3   OH2 9629   3.061   4.796   1.938
 3229TIP3    H1 9630   3.121   4.724   1.954
 3229TIP3    H2 9631   2.983   4.754   1.900
 3230TIP3   OH2 9632   7.337   7.749   1.584
 3230TIP3    H1 9633   7.288   7.719   1.507
 3230TIP3    H2 9634   7.398   7.814   1.549
 3231TIP3   OH2 9635   7.828   0.271   1.645
 3231TIP3    H1 9636   7.755   0.332   1.651
 3231TIP3    H2 9637   7.888   0.298   1.715
 3232TIP3   OH2 9638   2.274   4.745   3.876
 3232TIP3    H1 9639   2.329   4.681   3.831
 3232TIP3    H2 9640   2.185   4.708   3.869
 3233TIP3   OH2 9641   7.008   4.130   5.048
 3233TIP3    H1 9642   7.031   4.218   5.076
 3233TIP3    H2 9643   6.996   4.137   4.953
 3234TIP3   OH2 9644   2.604   0.248   1.139
 3234TIP3    H1 9645   2.643   0.195   1.209
 3234TIP3    H2 9646   2.591   0.334   1.179
 3235TIP3   OH2 9647   2.789   2.970   3.562
 3235TIP3    H1 9648   2.841   2.901   3.603
 3235TIP3    H2 9649   2.799   3.045   3.621
 3236TIP3   OH2 9650   3.997   4.438   3.823
 3236TIP3    H1 9651   3.908   4.420   3.793
 3236TIP3    H2 9652   4.032   4.351   3.845
 3237TIP3   OH2 9653   7.508   7.419   2.768
 3237TIP3    H1 9654   7.537   7.328   2.758
 3237TIP3    H2 9655   7.496   7.450   2.678
 3238TIP3   OH2 9656   3.468   0.448   2.151
 3238TIP3    H1 9657   3.508   0.510   2.090
 3238TIP3    H2 9658   3.386   0.421   2.108
 3239TIP3   OH2 9659   2.012   0.185   3.463
 3239TIP3    H1 9660   1.979   0.232   3.386
 3239TIP3    H2 9661   2.046   0.254   3.520
 3240TIP3   OH2 9662   5.196   5.204   5.947
 3240TIP3    H1 9663   5.210   5.123   5.996
 3240TIP3    H2 9664   5.196   5.176   5.856
 3241TIP3   OH2 9665   1.436   5.572   2.869
 3241TIP3    H1 9666   1.392   5.486   2.871
 3241TIP3    H2 9667   1.366   5.635   2.888
 3242TIP3   OH2 9668   3.871   4.061   3.542
 3242TIP3    H1 9669   3.862   4.035   3.634
 3242TIP3    H2 9670   3.939   4.002   3.508
 3243TIP3   OH2 9671   2.586   1.369   4.259
 3243TIP3    H1 9672   2.571   1.341   4.349
 3243TIP3    H2 9673   2.555   1.460   4.256
 3244TIP3   OH2 9674   6.590   2.622   2.964
 3244TIP3    H1 9675   6.505   2.646   2.999
 3244TIP3    H2 9676   6.581   2.529   2.942
 3245TIP3   OH2 9677   4.314   5.382   2.150
 3245TIP3    H1 9678   4.223   5.362   2.133
 3245TIP3    H2 9679   4.362   5.341   2.078
 3246TIP3   OH2 9680   1.320   7.144   5.563
 3246TIP3    H1 9681   1.375   7.069   5.583
 3246TIP3    H2 9682   1.286   7.172   5.648
 3247TIP3   OH2 9683   5.840   0.328   6.250
 3247TIP3    H1 9684   5.852   0.356   6.160
 3247TIP3    H2 9685   5.768   0.382   6.282
 3248TIP3   OH2 9686   7.759   5.396   6.129
 3248TIP3    H1 9687   7.670   5.394   6.095
 3248TIP3    H2 9688   7.799   5.315   6.097
 3249TIP3   OH2 9689   5.005   5.945   4.840
 3249TIP3    H1 9690   5.042   5.898   4.766
 3249TIP3    H2 9691   5.068   5.933   4.911
 3250TIP3   OH2 9692   3.307   6.199   4.528
 3250TIP3    H1 9693   3.345   6.287   4.521
 3250TIP3    H2 9694   3.300   6.183   4.622
 3251TIP3   OH2 9695   4.897   5.004   0.757
 3251TIP3    H1 9696   4.920   5.093   0.731
 3251TIP3    H2 9697   4.809   4.991   0.720
 3252TIP3   OH2 9698   1.989   2.045   5.580
 3252TIP3    H1 9699   1.949   2.126   5.612
 3252TIP3    H2 9700   1.919   2.000   5.535
 3253TIP3   OH2 9701   2.884   4.860   3.108
 3253TIP3    H1 9702   2.897   4.800   3.034
 3253TIP3    H2 9703   2.950   4.928   3.094
 3254TIP3   OH2 9704   3.134   4.363   2.813
 3254TIP3    H1 9705   3.205   4.312   2.775
 3254TIP3    H2 9706   3.075   4.298   2.851
 3255TIP3   OH2 9707   6.746   7.471   1.362
 3255TIP3    H1 9708   6.650   7.464   1.361
 3255TIP3    H2 9709   6.774   7.406   1.426
 3256TIP3   OH2 9710   5.077   5.973   3.111
 3256TIP3    H1 9711   5.139   6.039   3.143
 3256TIP3    H2 9712   5.131   5.894   3.099
 3257TIP3   OH2 9713   0.892   5.266   1.879
 3257TIP3    H1 9714   0.987   5.259   1.888
 3257TIP3    H2 9715   0.876   5.359   1.861
 3258TIP3   OH2 9716   2.444   5.219   2.904
 3258TIP3    H1 9717   2.433   5.172   2.821
 3258TIP3    H2 9718   2.516   5.175   2.948
 3259TIP3   OH2 9719   1.128   4.067   3.026
 3259TIP3    H1 9720   1.125   3.978   2.992
 3259TIP3    H2 9721   1.085   4.120   2.959
 3260TIP3   OH2 9722   4.005   6.018   4.187
 3260TIP3    H1 9723   4.076   5.954   4.185
 3260TIP3    H2 9724   3.998   6.050   4.097
 3261TIP3   OH2 9725   4.145   3.058   5.013
 3261TIP3    H1 9726   4.170   2.972   4.980
 3261TIP3    H2 9727   4.102   3.101   4.938
 3262TIP3   OH2 9728   0.451   3.535   5.960
 3262TIP3    H1 9729   0.439   3.466   6.025
 3262TIP3    H2 9730   0.529   3.583   5.990
 3263TIP3   OH2 9731   6.762   5.495   2.280
 3263TIP3    H1 9732   6.839   5.447   2.250
 3263TIP3    H2 9733   6.790   5.587   2.279
 3264TIP3   OH2 9734   6.967   6.745   3.270
 3264TIP3    H1 9735   7.019   6.680   3.223
 3264TIP3    H2 9736   7.023   6.822   3.275
 3265TIP3   OH2 9737   3.278   5.900   5.731
 3265TIP3    H1 9738   3.359   5.873   5.775
 3265TIP3    H2 9739   3.281   5.996   5.734
 3266TIP3   OH2 9740   4.246   3.620   5.469
 3266TIP3    H1 9741   4.323   3.637   5.523
 3266TIP3    H2 9742   4.257   3.529   5.440
 3267TIP3   OH2 9743   6.323   2.228   6.221
 3267TIP3    H1 9744   6.390   2.260   6.160
 3267TIP3    H2 9745   6.371   2.204   6.300
 3268TIP3   OH2 9746   3.922   5.047   3.955
 3268TIP3    H1 9747   3.914   5.137   3.986
 3268TIP3    H2 9748   4.011   5.022   3.979
 3269TIP3   OH2 9749   3.891   7.732   4.562
 3269TIP3    H1 9750   3.915   7.641   4.545
 3269TIP3    H2 9751   3.943   7.783   4.501
 3270TIP3   OH2 9752   0.248   0.686   5.768
 3270TIP3    H1 9753   0.219   0.611   5.820
 3270TIP3    H2 9754   0.168   0.717   5.725
 3271TIP3   OH2 9755   6.429   4.309   0.602
 3271TIP3    H1 9756   6.394   4.264   0.525
 3271TIP3    H2 9757   6.456   4.395   0.570
 3272TIP3   OH2 9758   7.485   7.776   3.680
 3272TIP3    H1 9759   7.443   7.700   3.640
 3272TIP3    H2 9760   7.442   7.852   3.640
 3273TIP3   OH2 9761   6.195   3.798   6.152
 3273TIP3    H1 9762   6.238   3.803   6.067
 3273TIP3    H2 9763   6.251   3.739   6.203
 3274TIP3   OH2 9764   7.927   6.793   2.658
 3274TIP3    H1 9765   8.008   6.783   2.708
 3274TIP3    H2 9766   7.955   6.794   2.566
 3275TIP3   OH2 9767   7.689   0.929   5.788
 3275TIP3    H1 9768   7.748   1.004   5.800
 3275TIP3    H2 9769   7.652   0.941   5.701
 3276TIP3   OH2 9770   6.115   7.004   3.581
 3276TIP3    H1 9771   6.117   6.911   3.557
 3276TIP3    H2 9772   6.025   7.031   3.562
 3277TIP3   OH2 9773   2.539   2.572   2.398
 3277TIP3    H1 9774   2.606   2.522   2.350
 3277TIP3    H2 9775   2.580   2.593   2.482
 3278TIP3   OH2 9776   3.301   1.204   2.085
 3278TIP3    H1 9777   3.282   1.243   2.171
 3278TIP3    H2 9778   3.254   1.260   2.023
 3279TIP3   OH2 9779   8.039   1.364   4.801
 3279TIP3    H1 9780   8.047   1.285   4.747
 3279TIP3    H2 9781   7.954   1.354   4.844
 3280TIP3   OH2 9782   6.509   3.958   2.649
 3280TIP3    H1 9783   6.531   4.050   2.666
 3280TIP3    H2 9784   6.587   3.923   2.606
 3281TIP3   OH2 9785   2.136   2.108   0.289
 3281TIP3    H1 9786   2.201   2.045   0.260
 3281TIP3    H2 9787   2.187   2.179   0.327
 3282TIP3   OH2 9788   2.685   4.062   4.205
 3282TIP3    H1 9789   2.622   4.097   4.268
 3282TIP3    H2 9790   2.759   4.033   4.259
 3283TIP3   OH2 9791   4.387   0.204   4.057
 3283TIP3    H1 9792   4.300   0.193   4.019
 3283TIP3    H2 9793   4.447   0.198   3.983
 3284TIP3   OH2 9794   1.878   3.195   6.708
 3284TIP3    H1 9795   1.799   3.240   6.740
 3284TIP3    H2 9796   1.910   3.251   6.637
 3285TIP3   OH2 9797   1.824   6.921   6.181
 3285TIP3    H1 9798   1.915   6.949   6.170
 3285TIP3    H2 9799   1.810   6.858   6.110
 3286TIP3   OH2 9800   6.508   0.042   6.038
 3286TIP3    H1 9801   6.531   0.059   5.947
 3286TIP3    H2 9802   6.586   0.068   6.088
 3287TIP3   OH2 9803   1.320   3.098   3.382
 3287TIP3    H1 9804   1.269   3.171   3.347
 3287TIP3    H2 9805   1.393   3.089   3.322
 3288TIP3   OH2 9806   1.145   5.267   0.828
 3288TIP3    H1 9807   1.186   5.195   0.878
 3288TIP3    H2 9808   1.052   5.244   0.825
 3289TIP3   OH2 9809   5.246   0.087   4.417
 3289TIP3    H1 9810   5.317   0.067   4.356
 3289TIP3    H2 9811   5.283   0.151   4.477
 3290TIP3   OH2 9812   3.271   2.026   4.448
 3290TIP3    H1 9813   3.339   1.963   4.470
 3290TIP3    H2 9814   3.244   2.062   4.533
 3291TIP3   OH2 9815   7.915   2.708   4.300
 3291TIP3    H1 9816   7.889   2.742   4.386
 3291TIP3    H2 9817   7.839   2.657   4.271
 3292TIP3   OH2 9818   6.004   2.517   4.367
 3292TIP3    H1 9819   5.921   2.562   4.382
 3292TIP3    H2 9820   6.047   2.517   4.453
 3293TIP3   OH2 9821   4.509   4.540   1.888
 3293TIP3    H1 9822   4.457   4.606   1.842
 3293TIP3    H2 9823   4.450   4.465   1.898
 3294TIP3   OH2 9824   7.094   4.420   5.448
 3294TIP3    H1 9825   7.071   4.394   5.359
 3294TIP3    H2 9826   7.183   4.388   5.460
 3295TIP3   OH2 9827   2.923   5.217   3.629
 3295TIP3    H1 9828   2.948   5.204   3.538
 3295TIP3    H2 9829   2.837   5.177   3.637
 3296TIP3   OH2 9830   6.419   3.567   4.270
 3296TIP3    H1 9831   6.420   3.512   4.349
 3296TIP3    H2 9832   6.397   3.655   4.303
 3297TIP3   OH2 9833   5.334   4.081   5.303
 3297TIP3    H1 9834   5.268   4.016   5.330
 3297TIP3    H2 9835   5.417   4.034   5.311
 3298TIP3   OH2 9836   3.606   5.982   5.380
 3298TIP3    H1 9837   3.552   5.961   5.304
 3298TIP3    H2 9838   3.593   6.076   5.394
 3299TIP3   OH2 9839   7.716   1.648   3.470
 3299TIP3    H1 9840   7.775   1.588   3.426
 3299TIP3    H2 9841   7.692   1.604   3.552
 3300TIP3   OH2 9842   5.428   4.289   5.427
 3300TIP3    H1 9843   5.478   4.336   5.361
 3300TIP3    H2 9844   5.389   4.215   5.381
 3301TIP3   OH2 9845   2.554   7.265   2.981
 3301TIP3    H1 9846   2.524   7.193   2.926
 3301TIP3    H2 9847   2.585   7.223   3.061
 3302TIP3   OH2 9848   0.250   5.385   1.711
 3302TIP3    H1 9849   0.238   5.377   1.616
 3302TIP3    H2 9850   0.211   5.470   1.733
 3303TIP3   OH2 9851   1.734   4.231   0.827
 3303TIP3    H1 9852   1.690   4.258   0.908
 3303TIP3    H2 9853   1.689   4.278   0.758
 3304TIP3   OH2 9854   8.217   7.077   2.276
 3304TIP3    H1 9855   8.189   7.166   2.253
 3304TIP3    H2 9856   8.218   7.030   2.193
 3305TIP3   OH2 9857   5.391   7.134   3.648
 3305TIP3    H1 9858   5.362   7.195   3.716
 3305TIP3    H2 9859   5.310   7.093   3.617
 3306TIP3   OH2 9860   8.293   2.263   2.989
 3306TIP3    H1 9861   8.235   2.282   3.063
 3306TIP3    H2 9862   8.245   2.197   2.938
 3307TIP3   OH2 9863   4.720   1.169   2.529
 3307TIP3    H1 9864   4.699   1.154   2.437
 3307TIP3    H2 9865   4.788   1.104   2.548
 3308TIP3   OH2 9866   6.178   7.435   4.879
 3308TIP3    H1 9867   6.096   7.409   4.919
 3308TIP3    H2 9868   6.184   7.382   4.799
 3309TIP3   OH2 9869   7.249   3.234   0.958
 3309TIP3    H1 9870   7.206   3.224   1.042
 3309TIP3    H2 9871   7.178   3.248   0.896
 3310TIP3   OH2 9872   5.794   3.780   4.982
 3310TIP3    H1 9873   5.890   3.769   4.982
 3310TIP3    H2 9874   5.770   3.772   5.074
 3311TIP3   OH2 9875   5.121   2.791   3.478
 3311TIP3    H1 9876   5.042   2.771   3.529
 3311TIP3    H2 9877   5.104   2.753   3.392
 3312TIP3   OH2 9878   5.158   4.960   5.061
 3312TIP3    H1 9879   5.161   4.864   5.069
 3312TIP3    H2 9880   5.202   4.978   4.978
 3313TIP3   OH2 9881   5.616   2.451   2.868
 3313TIP3    H1 9882   5.686   2.389   2.850
 3313TIP3    H2 9883   5.608   2.452   2.963
 3314TIP3   OH2 9884   3.135   3.650   2.546
 3314TIP3    H1 9885   3.174   3.583   2.603
 3314TIP3    H2 9886   3.065   3.603   2.500
 3315TIP3   OH2 9887   1.343   1.614   2.170
 3315TIP3    H1 9888   1.377   1.701   2.149
 3315TIP3    H2 9889   1.415   1.554   2.151
 3316TIP3   OH2 9890   7.008   6.662   2.674
 3316TIP3    H1 9891   6.959   6.744   2.677
 3316TIP3    H2 9892   7.051   6.662   2.589
 3317TIP3   OH2 9893   2.723   0.044   1.326
 3317TIP3    H1 9894   2.663  -0.010   1.377
 3317TIP3    H2 9895   2.800   0.053   1.381
 3318TIP3   OH2 9896   4.401   3.674   2.511
 3318TIP3    H1 9897   4.381   3.581   2.500
 3318TIP3    H2 9898   4.327   3.720   2.471
 3319TIP3   OH2 9899   6.963   6.988   1.062
 3319TIP3    H1 9900   6.950   6.893   1.060
 3319TIP3    H2 9901   7.058   6.999   1.066
 3320TIP3   OH2 9902   6.869   0.076   1.880
 3320TIP3    H1 9903   6.792   0.104   1.832
 3320TIP3    H2 9904   6.844  -0.006   1.921
 3321TIP3   OH2 9905   3.747   6.319   1.241
 3321TIP3    H1 9906   3.752   6.234   1.284
 3321TIP3    H2 9907   3.761   6.382   1.312
 3322TIP3   OH2 9908   4.114   1.996   0.354
 3322TIP3    H1 9909   4.068   2.076   0.381
 3322TIP3    H2 9910   4.072   1.971   0.272
 3323TIP3   OH2 9911   2.586   2.768   4.421
 3323TIP3    H1 9912   2.658   2.775   4.484
 3323TIP3    H2 9913   2.511   2.739   4.474
 3324TIP3   OH2 9914   7.483   7.690   2.462
 3324TIP3    H1 9915   7.468   7.749   2.536
 3324TIP3    H2 9916   7.575   7.705   2.438
 3325TIP3   OH2 9917   0.364   2.326   0.297
 3325TIP3    H1 9918   0.344   2.390   0.365
 3325TIP3    H2 9919   0.295   2.260   0.304
 3326TIP3   OH2 9920   0.938   6.968   5.411
 3326TIP3    H1 9921   1.024   7.009   5.414
 3326TIP3    H2 9922   0.951   6.882   5.451
 3327TIP3   OH2 9923   3.342   7.571   5.386
 3327TIP3    H1 9924   3.366   7.619   5.466
 3327TIP3    H2 9925   3.318   7.484   5.418
 3328TIP3   OH2 9926   1.662   1.451   5.202
 3328TIP3    H1 9927   1.743   1.411   5.170
 3328TIP3    H2 9928   1.605   1.376   5.220
 3329TIP3   OH2 9929   2.192   2.539   2.519
 3329TIP3    H1 9930   2.200   2.465   2.579
 3329TIP3    H2 9931   2.235   2.509   2.438
 3330TIP3   OH2 9932   4.972   4.253   2.406
 3330TIP3    H1 9933   4.941   4.334   2.366
 3330TIP3    H2 9934   4.896   4.195   2.405
 3331TIP3   OH2 9935   1.987   4.419   6.480
 3331TIP3    H1 9936   1.971   4.334   6.521
 3331TIP3    H2 9937   2.082   4.420   6.465
 3332TIP3   OH2 9938   6.373   4.359   3.710
 3332TIP3    H1 9939   6.350   4.274   3.748
 3332TIP3    H2 9940   6.322   4.422   3.761
 3333TIP3   OH2 9941   7.382   0.266   6.730
 3333TIP3    H1 9942   7.301   0.263   6.780
 3333TIP3    H2 9943   7.378   0.190   6.672
 3334TIP3   OH2 9944   7.657   2.891   3.671
 3334TIP3    H1 9945   7.636   2.885   3.765
 3334TIP3    H2 9946   7.571   2.893   3.629
 3335TIP3   OH2 9947   0.572   0.530   4.013
 3335TIP3    H1 9948   0.657   0.496   3.985
 3335TIP3    H2 9949   0.585   0.551   4.106
 3336TIP3   OH2 9950   7.022   6.675   1.331
 3336TIP3    H1 9951   6.960   6.688   1.259
 3336TIP3    H2 9952   7.070   6.596   1.307
 3337TIP3   OH2 9953   5.264   4.370   2.226
 3337TIP3    H1 9954   5.200   4.302   2.208
 3337TIP3    H2 9955   5.289   4.355   2.318
 3338TIP3   OH2 9956   1.688   6.109   3.574
 3338TIP3    H1 9957   1.609   6.148   3.536
 3338TIP3    H2 9958   1.704   6.160   3.653
 3339TIP3   OH2 9959   7.797   7.655   6.135
 3339TIP3    H1 9960   7.704   7.641   6.121
 3339TIP3    H2 9961   7.806   7.666   6.230
 3340TIP3   OH2 9962   7.355   6.796   3.780
 3340TIP3    H1 9963   7.277   6.850   3.762
 3340TIP3    H2 9964   7.391   6.832   3.861
 3341TIP3   OH2 9965   3.574   4.187   4.474
 3341TIP3    H1 9966   3.644   4.240   4.513
 3341TIP3    H2 9967   3.585   4.197   4.380
 3342TIP3   OH2 9968   6.466   2.306   5.396
 3342TIP3    H1 9969   6.408   2.292   5.471
 3342TIP3    H2 9970   6.548   2.337   5.435
 3343TIP3   OH2 9971   3.369   3.829   2.768
 3343TIP3    H1 9972   3.341   3.863   2.683
 3343TIP3    H2 9973   3.289   3.826   2.820
 3344TIP3   OH2 9974   2.275   2.223   5.366
 3344TIP3    H1 9975   2.296   2.273   5.287
 3344TIP3    H2 9976   2.233   2.143   5.333
 3345TIP3   OH2 9977   4.126   6.052   1.993
 3345TIP3    H1 9978   4.165   6.096   2.069
 3345TIP3    H2 9979   4.195   5.993   1.962
 3346TIP3   OH2 9980   4.395   6.556   2.732
 3346TIP3    H1 9981   4.370   6.593   2.816
 3346TIP3    H2 9982   4.322   6.499   2.708
 3347TIP3   OH2 9983   3.423   5.439   0.566
 3347TIP3    H1 9984   3.505   5.485   0.587
 3347TIP3    H2 9985   3.365   5.508   0.534
 3348TIP3   OH2 9986   0.283   4.640   6.419
 3348TIP3    H1 9987   0.279   4.676   6.508
 3348TIP3    H2 9988   0.354   4.575   6.423
 3349TIP3   OH2 9989   6.177   5.127   4.762
 3349TIP3    H1 9990   6.086   5.153   4.775
 3349TIP3    H2 9991   6.181   5.098   4.671
 3350TIP3   OH2 9992   2.463   6.301   5.715
 3350TIP3    H1 9993   2.524   6.282   5.644
 3350TIP3    H2 9994   2.495   6.250   5.789
 3351TIP3   OH2 9995   0.418   1.335   0.637
 3351TIP3    H1 9996   0.480   1.276   0.593
 3351TIP3    H2 9997   0.460   1.421   0.633
 3352TIP3   OH2 9998   3.009   7.456   4.031
 3352TIP3    H1 9999   2.949   7.381   4.029
 3352TIP3    H210000   2.958   7.529   3.998
 3353TIP3   OH210001   3.184   0.537   5.621
 3353TIP3    H110002   3.152   0.626   5.630
 3353TIP3    H210003   3.247   0.527   5.693
 3354TIP3   OH210004   1.055   2.915   2.358
 3354TIP3    H110005   0.981   2.956   2.313
 3354TIP3    H210006   1.131   2.965   2.328
 3355TIP3   OH210007   1.535   5.745   4.931
 3355TIP3    H110008   1.469   5.684   4.963
 3355TIP3    H210009   1.502   5.831   4.955
 3356TIP3   OH210010   6.882   7.089   0.808
 3356TIP3    H110011   6.928   7.169   0.831
 3356TIP3    H210012   6.870   7.043   0.891
 3357TIP3   OH210013   0.279   2.624   0.098
 3357TIP3    H110014   0.362   2.579   0.083
 3357TIP3    H210015   0.300   2.694   0.160
 3358TIP3   OH210016   8.221   2.586   2.933
 3358TIP3    H110017   8.130   2.560   2.945
 3358TIP3    H210018   8.245   2.627   3.017
 3359TIP3   OH210019   0.424   3.159   0.778
 3359TIP3    H110020   0.442   3.199   0.693
 3359TIP3    H210021   0.497   3.188   0.834
 3360TIP3   OH210022   5.093   0.835   5.074
 3360TIP3    H110023   5.140   0.760   5.036
 3360TIP3    H210024   5.002   0.805   5.081
 3361TIP3   OH210025   5.613  -0.001   5.504
 3361TIP3    H110026   5.557  -0.009   5.580
 3361TIP3    H210027   5.566   0.056   5.444
 3362TIP3   OH210028   5.406   4.993   5.622
 3362TIP3    H110029   5.327   4.949   5.654
 3362TIP3    H210030   5.431   5.052   5.693
 3363TIP3   OH210031   3.387   5.171   4.525
 3363TIP3    H110032   3.315   5.218   4.566
 3363TIP3    H210033   3.366   5.170   4.432
 3364TIP3   OH210034   3.362   1.853   1.455
 3364TIP3    H110035   3.432   1.795   1.485
 3364TIP3    H210036   3.356   1.920   1.523
 3365TIP3   OH210037   5.712   4.481   3.199
 3365TIP3    H110038   5.621   4.509   3.210
 3365TIP3    H210039   5.752   4.495   3.285
 3366TIP3   OH210040   5.809   4.726   6.185
 3366TIP3    H110041   5.754   4.708   6.109
 3366TIP3    H210042   5.855   4.643   6.201
 3367TIP3   OH210043   0.765   0.388   5.513
 3367TIP3    H110044   0.838   0.343   5.470
 3367TIP3    H210045   0.700   0.319   5.526
 3368TIP3   OH210046   4.964   6.007   3.536
 3368TIP3    H110047   5.022   6.070   3.493
 3368TIP3    H210048   4.949   5.940   3.470
 3369TIP3   OH210049   5.348   3.660   1.596
 3369TIP3    H110050   5.344   3.745   1.554
 3369TIP3    H210051   5.331   3.678   1.689
 3370TIP3   OH210052   3.482   4.377   3.420
 3370TIP3    H110053   3.410   4.338   3.471
 3370TIP3    H210054   3.439   4.428   3.352
 3371TIP3   OH210055   5.591   4.524   1.781
 3371TIP3    H110056   5.579   4.474   1.862
 3371TIP3    H210057   5.521   4.589   1.783
 3372TIP3   OH210058   7.423   1.853   1.421
 3372TIP3    H110059   7.503   1.822   1.377
 3372TIP3    H210060   7.421   1.804   1.504
 3373TIP3   OH210061   7.617   1.008   5.531
 3373TIP3    H110062   7.575   1.093   5.544
 3373TIP3    H210063   7.562   0.964   5.466
 3374TIP3   OH210064   3.596   2.658   3.688
 3374TIP3    H110065   3.635   2.744   3.703
 3374TIP3    H210066   3.508   2.665   3.724
 3375TIP3   OH210067   0.981   1.354   1.990
 3375TIP3    H110068   1.050   1.342   1.924
 3375TIP3    H210069   1.026   1.392   2.065
 3376TIP3   OH210070   5.799   7.213   0.073
 3376TIP3    H110071   5.883   7.208   0.028
 3376TIP3    H210072   5.735   7.233   0.004
 3377TIP3   OH210073   2.805   1.967   6.172
 3377TIP3    H110074   2.839   2.042   6.124
 3377TIP3    H210075   2.883   1.919   6.201
 3378TIP3   OH210076   0.191   1.412   0.561
 3378TIP3    H110077   0.282   1.383   0.569
 3378TIP3    H210078   0.139   1.332   0.567
 3379TIP3   OH210079   5.229   3.376   1.545
 3379TIP3    H110080   5.140   3.388   1.579
 3379TIP3    H210081   5.260   3.465   1.529
 3380TIP3   OH210082   6.494   4.126   2.156
 3380TIP3    H110083   6.581   4.152   2.125
 3380TIP3    H210084   6.478   4.181   2.233
 3381TIP3   OH210085   5.892   2.882   1.710
 3381TIP3    H110086   5.935   2.899   1.793
 3381TIP3    H210087   5.804   2.854   1.733
 3382TIP3   OH210088   2.944   3.335   0.316
 3382TIP3    H110089   2.864   3.369   0.355
 3382TIP3    H210090   2.925   3.243   0.299
 3383TIP3   OH210091   5.987   0.393   4.595
 3383TIP3    H110092   6.024   0.345   4.521
 3383TIP3    H210093   6.045   0.469   4.606
 3384TIP3   OH210094   1.728   2.650   0.615
 3384TIP3    H110095   1.649   2.659   0.562
 3384TIP3    H210096   1.788   2.597   0.562
 3385TIP3   OH210097   3.812   1.067   5.297
 3385TIP3    H110098   3.863   1.116   5.362
 3385TIP3    H210099   3.840   1.103   5.213
 3386TIP3   OH210100   3.191   1.680   2.645
 3386TIP3    H110101   3.151   1.606   2.599
 3386TIP3    H210102   3.197   1.749   2.578
 3387TIP3   OH210103   6.449   4.396   4.665
 3387TIP3    H110104   6.533   4.425   4.701
 3387TIP3    H210105   6.386   4.458   4.701
 3388TIP3   OH210106   1.541   1.441   1.565
 3388TIP3    H110107   1.451   1.442   1.595
 3388TIP3    H210108   1.568   1.349   1.573
 3389TIP3   OH210109   2.135   7.628   3.123
 3389TIP3    H110110   2.168   7.681   3.050
 3389TIP3    H210111   2.052   7.669   3.146
 3390TIP3   OH210112   1.039   2.123   4.147
 3390TIP3    H110113   1.064   2.031   4.141
 3390TIP3    H210114   1.121   2.171   4.132
 3391TIP3   OH210115   4.211   0.615   5.632
 3391TIP3    H110116   4.152   0.667   5.687
 3391TIP3    H210117   4.203   0.653   5.545
 3392TIP3   OH210118   5.255   7.638   0.516
 3392TIP3    H110119   5.187   7.695   0.480
 3392TIP3    H210120   5.306   7.610   0.440
 3393TIP3   OH210121   3.414   1.044   5.456
 3393TIP3    H110122   3.388   1.035   5.548
 3393TIP3    H210123   3.482   0.979   5.443
 3394TIP3   OH210124   7.694   0.451   3.122
 3394TIP3    H110125   7.771   0.483   3.076
 3394TIP3    H210126   7.629   0.438   3.053
 3395TIP3   OH210127   5.184   5.445   3.187
 3395TIP3    H110128   5.223   5.363   3.156
 3395TIP3    H210129   5.259   5.501   3.207
 3396TIP3   OH210130   5.051   7.563   1.280
 3396TIP3    H110131   5.039   7.650   1.242
 3396TIP3    H210132   5.099   7.514   1.214
 3397TIP3   OH210133   6.639   3.309   1.776
 3397TIP3    H110134   6.617   3.258   1.853
 3397TIP3    H210135   6.734   3.322   1.782
 3398TIP3   OH210136   3.780   6.592   4.345
 3398TIP3    H110137   3.730   6.524   4.390
 3398TIP3    H210138   3.744   6.674   4.379
 3399TIP3   OH210139   2.205   7.182   4.193
 3399TIP3    H110140   2.256   7.102   4.184
 3399TIP3    H210141   2.226   7.233   4.114
 3400TIP3   OH210142   7.999   4.474   5.910
 3400TIP3    H110143   8.001   4.545   5.974
 3400TIP3    H210144   8.025   4.515   5.827
 3401TIP3   OH210145   5.562   3.371   4.802
 3401TIP3    H110146   5.530   3.451   4.761
 3401TIP3    H210147   5.552   3.387   4.896
 3402TIP3   OH210148   5.699   1.740   2.907
 3402TIP3    H110149   5.630   1.700   2.855
 3402TIP3    H210150   5.689   1.834   2.892
 3403TIP3   OH210151   0.120   0.750   4.635
 3403TIP3    H110152   0.044   0.750   4.578
 3403TIP3    H210153   0.133   0.842   4.658
 3404TIP3   OH210154   6.954   4.679   1.239
 3404TIP3    H110155   6.880   4.693   1.297
 3404TIP3    H210156   6.954   4.585   1.222
 3405TIP3   OH210157   4.510   5.940   5.693
 3405TIP3    H110158   4.460   5.958   5.773
 3405TIP3    H210159   4.507   6.022   5.644
 3406TIP3   OH210160   6.158   5.177   5.151
 3406TIP3    H110161   6.243   5.135   5.166
 3406TIP3    H210162   6.128   5.203   5.238
 3407TIP3   OH210163   3.444   4.804   5.049
 3407TIP3    H110164   3.495   4.884   5.051
 3407TIP3    H210165   3.491   4.746   4.989
 3408TIP3   OH210166   1.021   3.993   2.600
 3408TIP3    H110167   0.994   4.044   2.523
 3408TIP3    H210168   1.079   3.925   2.565
 3409TIP3   OH210169   4.111   0.254   0.813
 3409TIP3    H110170   4.031   0.204   0.796
 3409TIP3    H210171   4.100   0.285   0.902
 3410TIP3   OH210172   3.093   6.969   6.386
 3410TIP3    H110173   3.139   7.013   6.456
 3410TIP3    H210174   3.097   6.876   6.408
 3411TIP3   OH210175   7.203   1.664   5.835
 3411TIP3    H110176   7.277   1.606   5.855
 3411TIP3    H210177   7.155   1.617   5.767
 3412TIP3   OH210178   5.913   4.028   6.474
 3412TIP3    H110179   5.839   3.979   6.437
 3412TIP3    H210180   5.879   4.063   6.557
 3413TIP3   OH210181   4.029   1.020   1.983
 3413TIP3    H110182   4.106   1.031   2.039
 3413TIP3    H210183   3.998   1.109   1.967
 3414TIP3   OH210184   2.765   4.256   6.032
 3414TIP3    H110185   2.695   4.226   5.975
 3414TIP3    H210186   2.826   4.300   5.974
 3415TIP3   OH210187   4.964   7.089   0.601
 3415TIP3    H110188   5.026   7.031   0.647
 3415TIP3    H210189   5.004   7.102   0.515
 3416TIP3   OH210190   4.810   4.042   2.301
 3416TIP3    H110191   4.808   3.948   2.320
 3416TIP3    H210192   4.729   4.060   2.254
 3417TIP3   OH210193   4.619   2.335   3.104
 3417TIP3    H110194   4.595   2.358   3.194
 3417TIP3    H210195   4.545   2.365   3.052
 3418TIP3   OH210196   7.568   4.212   3.888
 3418TIP3    H110197   7.529   4.272   3.952
 3418TIP3    H210198   7.591   4.134   3.939
 3419TIP3   OH210199   4.519   1.444   5.682
 3419TIP3    H110200   4.449   1.506   5.663
 3419TIP3    H210201   4.501   1.369   5.625
 3420TIP3   OH210202   5.124   6.248   2.352
 3420TIP3    H110203   5.203   6.259   2.297
 3420TIP3    H210204   5.158   6.246   2.441
 3421TIP3   OH210205   2.681   3.498   0.331
 3421TIP3    H110206   2.602   3.505   0.385
 3421TIP3    H210207   2.688   3.405   0.310
 3422TIP3   OH210208   0.985   7.488   1.411
 3422TIP3    H110209   1.063   7.469   1.359
 3422TIP3    H210210   1.009   7.463   1.501
 3423TIP3   OH210211   0.454   0.787   3.797
 3423TIP3    H110212   0.443   0.775   3.892
 3423TIP3    H210213   0.541   0.828   3.789
 3424TIP3   OH210214   2.726   7.116   2.699
 3424TIP3    H110215   2.803   7.062   2.715
 3424TIP3    H210216   2.657   7.076   2.751
 3425TIP3   OH210217   1.808   2.345   1.563
 3425TIP3    H110218   1.830   2.360   1.471
 3425TIP3    H210219   1.884   2.377   1.611
 3426TIP3   OH210220   5.349   4.148   4.982
 3426TIP3    H110221   5.409   4.079   4.952
 3426TIP3    H210222   5.395   4.189   5.056
 3427TIP3   OH210223   3.767   6.222   2.976
 3427TIP3    H110224   3.699   6.266   2.924
 3427TIP3    H210225   3.736   6.132   2.985
 3428TIP3   OH210226   0.747   1.559   2.568
 3428TIP3    H110227   0.782   1.471   2.581
 3428TIP3    H210228   0.655   1.545   2.546
 3429TIP3   OH210229   0.154   4.761   4.196
 3429TIP3    H110230   0.065   4.796   4.202
 3429TIP3    H210231   0.145   4.679   4.147
 3430TIP3   OH210232   5.456   1.537   5.699
 3430TIP3    H110233   5.432   1.507   5.787
 3430TIP3    H210234   5.414   1.622   5.691
 3431TIP3   OH210235   4.928   1.344   6.708
 3431TIP3    H110236   4.969   1.305   6.786
 3431TIP3    H210237   4.972   1.428   6.697
 3432TIP3   OH210238   4.990   6.030   6.374
 3432TIP3    H110239   4.983   6.123   6.351
 3432TIP3    H210240   4.901   6.005   6.397
 3433TIP3   OH210241   7.693   5.841   5.361
 3433TIP3    H110242   7.680   5.801   5.447
 3433TIP3    H210243   7.772   5.799   5.327
 3434TIP3   OH210244   8.093   1.166   6.500
 3434TIP3    H110245   8.112   1.127   6.585
 3434TIP3    H210246   7.999   1.157   6.490
 3435TIP3   OH210247   1.759   2.681   2.439
 3435TIP3    H110248   1.805   2.743   2.496
 3435TIP3    H210249   1.676   2.724   2.419
 3436TIP3   OH210250   4.333   6.031   2.213
 3436TIP3    H110251   4.377   6.009   2.295
 3436TIP3    H210252   4.369   5.969   2.150
 3437TIP3   OH210253   0.941   0.580   0.727
 3437TIP3    H110254   0.972   0.514   0.789
 3437TIP3    H210255   0.895   0.644   0.782
 3438TIP3   OH210256   2.336   3.586   1.431
 3438TIP3    H110257   2.414   3.531   1.422
 3438TIP3    H210258   2.346   3.652   1.362
 3439TIP3   OH210259   0.594   6.494   5.516
 3439TIP3    H110260   0.671   6.467   5.566
 3439TIP3    H210261   0.554   6.412   5.487
 3440TIP3   OH210262   6.163   7.107   2.449
 3440TIP3    H110263   6.170   7.075   2.359
 3440TIP3    H210264   6.099   7.048   2.490
 3441TIP3   OH210265   7.703   6.002   2.676
 3441TIP3    H110266   7.616   5.989   2.713
 3441TIP3    H210267   7.757   6.031   2.749
 3442TIP3   OH210268   3.584   4.777   0.214
 3442TIP3    H110269   3.587   4.872   0.225
 3442TIP3    H210270   3.633   4.743   0.289
 3443TIP3   OH210271   1.468   5.903   2.384
 3443TIP3    H110272   1.558   5.920   2.356
 3443TIP3    H210273   1.472   5.818   2.427
 3444TIP3   OH210274   1.139   3.827   0.969
 3444TIP3    H110275   1.145   3.740   0.931
 3444TIP3    H210276   1.075   3.873   0.914
 3445TIP3   OH210277   3.209   2.115   2.524
 3445TIP3    H110278   3.300   2.140   2.510
 3445TIP3    H210279   3.208   2.020   2.513
 3446TIP3   OH210280   7.225   7.716   6.159
 3446TIP3    H110281   7.165   7.649   6.192
 3446TIP3    H210282   7.200   7.796   6.205
 3447TIP3   OH210283   1.946   6.969   1.379
 3447TIP3    H110284   1.975   7.051   1.421
 3447TIP3    H210285   1.928   6.910   1.452
 3448TIP3   OH210286   6.957   2.232   2.460
 3448TIP3    H110287   6.973   2.207   2.369
 3448TIP3    H210288   6.958   2.149   2.508
 3449TIP3   OH210289   6.842   0.135   5.355
 3449TIP3    H110290   6.906   0.205   5.340
 3449TIP3    H210291   6.833   0.092   5.270
 3450TIP3   OH210292   4.124   1.996   2.142
 3450TIP3    H110293   4.126   2.036   2.229
 3450TIP3    H210294   4.154   1.907   2.156
 3451TIP3   OH210295   4.639   0.123   1.078
 3451TIP3    H110296   4.596   0.080   1.152
 3451TIP3    H210297   4.732   0.110   1.095
 3452TIP3   OH210298   3.426   2.861   2.786
 3452TIP3    H110299   3.482   2.787   2.812
 3452TIP3    H210300   3.474   2.904   2.715
 3453TIP3   OH210301   2.882   4.773   0.906
 3453TIP3    H110302   2.895   4.860   0.869
 3453TIP3    H210303   2.923   4.714   0.843
 3454TIP3   OH210304   3.160   6.113   3.447
 3454TIP3    H110305   3.212   6.179   3.401
 3454TIP3    H210306   3.162   6.037   3.389
 3455TIP3   OH210307   6.368   7.630   0.557
 3455TIP3    H110308   6.373   7.688   0.481
 3455TIP3    H210309   6.401   7.683   0.629
 3456TIP3   OH210310   3.690   2.353   5.316
 3456TIP3    H110311   3.719   2.273   5.271
 3456TIP3    H210312   3.770   2.394   5.347
 3457TIP3   OH210313   3.402   6.930   2.448
 3457TIP3    H110314   3.471   6.992   2.471
 3457TIP3    H210315   3.421   6.852   2.500
 3458TIP3   OH210316   5.177   4.393   0.448
 3458TIP3    H110317   5.131   4.401   0.532
 3458TIP3    H210318   5.184   4.298   0.435
 3459TIP3   OH210319   6.162   0.313   4.044
 3459TIP3    H110320   6.256   0.325   4.057
 3459TIP3    H210321   6.130   0.283   4.129
 3460TIP3   OH210322   4.800   1.101   4.892
 3460TIP3    H110323   4.750   1.019   4.901
 3460TIP3    H210324   4.841   1.095   4.806
 3461TIP3   OH210325   4.062   2.895   2.316
 3461TIP3    H110326   4.006   2.834   2.268
 3461TIP3    H210327   4.011   2.919   2.393
 3462TIP3   OH210328   0.943   4.283   4.566
 3462TIP3    H110329   0.854   4.279   4.532
 3462TIP3    H210330   0.991   4.216   4.516
 3463TIP3   OH210331   2.832   0.903   2.873
 3463TIP3    H110332   2.773   0.978   2.879
 3463TIP3    H210333   2.779   0.828   2.900
 3464TIP3   OH210334   4.791   7.146   0.927
 3464TIP3    H110335   4.886   7.141   0.922
 3464TIP3    H210336   4.774   7.216   0.990
 3465TIP3   OH210337   2.756   2.273   4.731
 3465TIP3    H110338   2.724   2.182   4.726
 3465TIP3    H210339   2.742   2.298   4.822
 3466TIP3   OH210340   2.161   7.531   1.759
 3466TIP3    H110341   2.246   7.575   1.751
 3466TIP3    H210342   2.100   7.591   1.717
 3467TIP3   OH210343   7.730   3.804   4.687
 3467TIP3    H110344   7.784   3.879   4.661
 3467TIP3    H210345   7.781   3.728   4.662
 3468TIP3   OH210346   2.356   7.632   6.323
 3468TIP3    H110347   2.432   7.588   6.285
 3468TIP3    H210348   2.283   7.572   6.306
 3469TIP3   OH210349   5.825   2.301   4.196
 3469TIP3    H110350   5.876   2.382   4.201
 3469TIP3    H210351   5.737   2.326   4.226
 3470TIP3   OH210352   6.627   0.290   4.256
 3470TIP3    H110353   6.698   0.264   4.198
 3470TIP3    H210354   6.565   0.336   4.200
 3471TIP3   OH210355   5.283   6.668   2.824
 3471TIP3    H110356   5.311   6.759   2.833
 3471TIP3    H210357   5.190   6.675   2.801
 3472TIP3   OH210358   1.399   0.169   6.139
 3472TIP3    H110359   1.442   0.247   6.173
 3472TIP3    H210360   1.309   0.174   6.173
 3473TIP3   OH210361   0.574   0.469   1.446
 3473TIP3    H110362   0.601   0.382   1.478
 3473TIP3    H210363   0.552   0.454   1.353
 3474TIP3   OH210364   1.405   1.917   3.788
 3474TIP3    H110365   1.451   2.000   3.777
 3474TIP3    H210366   1.430   1.865   3.711
 3475TIP3   OH210367   5.255   6.482   4.015
 3475TIP3    H110368   5.267   6.413   3.950
 3475TIP3    H210369   5.283   6.563   3.971
 3476TIP3   OH210370   0.506   3.292   3.548
 3476TIP3    H110371   0.487   3.383   3.525
 3476TIP3    H210372   0.509   3.291   3.644
 3477TIP3   OH210373   5.394   0.848   6.153
 3477TIP3    H110374   5.340   0.794   6.210
 3477TIP3    H210375   5.377   0.938   6.181
 3478TIP3   OH210376   2.480   3.654   4.303
 3478TIP3    H110377   2.530   3.574   4.315
 3478TIP3    H210378   2.543   3.715   4.264
 3479TIP3   OH210379   6.306   4.890   5.317
 3479TIP3    H110380   6.368   4.817   5.322
 3479TIP3    H210381   6.226   4.852   5.281
 3480TIP3   OH210382   1.500   4.789   3.841
 3480TIP3    H110383   1.594   4.787   3.826
 3480TIP3    H210384   1.470   4.864   3.789
 3481TIP3   OH210385   2.431   0.626   3.463
 3481TIP3    H110386   2.425   0.547   3.410
 3481TIP3    H210387   2.427   0.698   3.399
 3482TIP3   OH210388   2.382   5.501   3.903
 3482TIP3    H110389   2.476   5.491   3.895
 3482TIP3    H210390   2.349   5.413   3.921
 3483TIP3   OH210391   6.383   5.156   3.125
 3483TIP3    H110392   6.297   5.123   3.149
 3483TIP3    H210393   6.378   5.172   3.031
 3484TIP3   OH210394   0.699   0.502   2.228
 3484TIP3    H110395   0.776   0.451   2.253
 3484TIP3    H210396   0.693   0.572   2.292
 3485TIP3   OH210397   7.675   4.548   0.573
 3485TIP3    H110398   7.669   4.548   0.478
 3485TIP3    H210399   7.653   4.459   0.599
 3486TIP3   OH210400   5.812   2.144   0.166
 3486TIP3    H110401   5.822   2.050   0.184
 3486TIP3    H210402   5.720   2.163   0.187
 3487TIP3   OH210403   7.532   1.448   1.540
 3487TIP3    H110404   7.510   1.503   1.615
 3487TIP3    H210405   7.621   1.418   1.559
 3488TIP3   OH210406   7.346   5.473   5.191
 3488TIP3    H110407   7.431   5.517   5.180
 3488TIP3    H210408   7.367   5.390   5.232
 3489TIP3   OH210409   5.952   0.046   6.213
 3489TIP3    H110410   5.985   0.076   6.298
 3489TIP3    H210411   5.870   0.093   6.201
 3490TIP3   OH210412   5.405   6.827   0.592
 3490TIP3    H110413   5.449   6.872   0.519
 3490TIP3    H210414   5.344   6.767   0.549
 3491TIP3   OH210415   3.225   4.348   0.653
 3491TIP3    H110416   3.130   4.337   0.659
 3491TIP3    H210417   3.258   4.262   0.629
 3492TIP3   OH210418   4.626   1.968   5.343
 3492TIP3    H110419   4.609   1.969   5.437
 3492TIP3    H210420   4.645   1.876   5.323
 3493TIP3   OH210421   5.327   5.113   2.623
 3493TIP3    H110422   5.299   5.178   2.687
 3493TIP3    H210423   5.381   5.051   2.673
 3494TIP3   OH210424   0.080   7.691   6.319
 3494TIP3    H110425   0.090   7.624   6.252
 3494TIP3    H210426   0.049   7.644   6.396
 3495TIP3   OH210427   7.117   7.014   2.917
 3495TIP3    H110428   7.115   6.937   2.859
 3495TIP3    H210429   7.179   6.990   2.986
 3496TIP3   OH210430   1.690   6.663   5.538
 3496TIP3    H110431   1.773   6.683   5.494
 3496TIP3    H210432   1.625   6.716   5.493
 3497TIP3   OH210433   0.526   7.708   2.451
 3497TIP3    H110434   0.509   7.723   2.358
 3497TIP3    H210435   0.608   7.755   2.468
 3498TIP3   OH210436   4.548   3.281   6.428
 3498TIP3    H110437   4.624   3.331   6.458
 3498TIP3    H210438   4.508   3.336   6.360
 3499TIP3   OH210439   4.080   1.085   3.113
 3499TIP3    H110440   4.008   1.146   3.124
 3499TIP3    H210441   4.039   1.003   3.085
 3500TIP3   OH210442   7.494   3.606   6.700
 3500TIP3    H110443   7.530   3.647   6.779
 3500TIP3    H210444   7.460   3.522   6.730
 3501TIP3   OH210445   1.554   1.862   0.049
 3501TIP3    H110446   1.467   1.821   0.054
 3501TIP3    H210447   1.615   1.790   0.065
 3502TIP3   OH210448   4.583   7.480   1.360
 3502TIP3    H110449   4.669   7.440   1.351
 3502TIP3    H210450   4.601   7.572   1.378
 3503TIP3   OH210451   0.677   1.895   5.899
 3503TIP3    H110452   0.634   1.814   5.924
 3503TIP3    H210453   0.721   1.924   5.979
 3504TIP3   OH210454   0.901   6.093   0.416
 3504TIP3    H110455   0.825   6.145   0.441
 3504TIP3    H210456   0.972   6.126   0.471
 3505TIP3   OH210457   2.919   5.224   2.313
 3505TIP3    H110458   2.841   5.194   2.360
 3505TIP3    H210459   2.990   5.213   2.376
 3506TIP3   OH210460   6.291   6.951   0.487
 3506TIP3    H110461   6.226   6.892   0.525
 3506TIP3    H210462   6.324   6.905   0.410
 3507TIP3   OH210463   3.616   7.522   4.075
 3507TIP3    H110464   3.647   7.466   4.146
 3507TIP3    H210465   3.685   7.587   4.063
 3508TIP3   OH210466   5.096   2.031   5.292
 3508TIP3    H110467   5.048   2.056   5.213
 3508TIP3    H210468   5.182   2.072   5.282
 3509TIP3   OH210469   2.312   6.125   4.699
 3509TIP3    H110470   2.387   6.082   4.658
 3509TIP3    H210471   2.247   6.055   4.709
 3510TIP3   OH210472   0.169   0.080   4.130
 3510TIP3    H110473   0.082   0.103   4.099
 3510TIP3    H210474   0.158   0.065   4.224
 3511TIP3   OH210475   2.880   0.989   1.281
 3511TIP3    H110476   2.947   0.933   1.322
 3511TIP3    H210477   2.805   0.931   1.268
 3512TIP3   OH210478   3.667   6.647   5.442
 3512TIP3    H110479   3.752   6.686   5.461
 3512TIP3    H210480   3.609   6.679   5.512
 3513TIP3   OH210481   7.754   2.565   3.413
 3513TIP3    H110482   7.693   2.614   3.357
 3513TIP3    H210483   7.706   2.486   3.437
 3514TIP3   OH210484   2.822   0.238   4.594
 3514TIP3    H110485   2.911   0.216   4.624
 3514TIP3    H210486   2.810   0.329   4.621
 3515TIP3   OH210487   0.383   6.624   6.388
 3515TIP3    H110488   0.478   6.619   6.390
 3515TIP3    H210489   0.364   6.682   6.314
 3516TIP3   OH210490   5.296   5.502   5.132
 3516TIP3    H110491   5.342   5.455   5.062
 3516TIP3    H210492   5.250   5.433   5.180
 3517TIP3   OH210493   7.762   7.408   1.376
 3517TIP3    H110494   7.678   7.393   1.420
 3517TIP3    H210495   7.737   7.441   1.289
 3518TIP3   OH210496   7.419   5.710   4.885
 3518TIP3    H110497   7.472   5.685   4.961
 3518TIP3    H210498   7.481   5.720   4.814
 3519TIP3   OH210499   4.710   4.603   6.473
 3519TIP3    H110500   4.633   4.598   6.530
 3519TIP3    H210501   4.674   4.620   6.386
 3520TIP3   OH210502   2.861   6.882   6.681
 3520TIP3    H110503   2.788   6.911   6.626
 3520TIP3    H210504   2.921   6.956   6.681
 3521TIP3   OH210505   0.502   1.322   2.800
 3521TIP3    H110506   0.527   1.390   2.863
 3521TIP3    H210507   0.551   1.245   2.827
 3522TIP3   OH210508   6.518   3.131   1.947
 3522TIP3    H110509   6.529   3.092   2.034
 3522TIP3    H210510   6.482   3.060   1.894
 3523TIP3   OH210511   3.481   2.642   3.073
 3523TIP3    H110512   3.552   2.590   3.037
 3523TIP3    H210513   3.522   2.697   3.140
 3524TIP3   OH210514   5.621   2.815   6.017
 3524TIP3    H110515   5.684   2.816   6.089
 3524TIP3    H210516   5.568   2.737   6.033
 3525TIP3   OH210517   4.008   7.753   5.545
 3525TIP3    H110518   3.922   7.714   5.528
 3525TIP3    H210519   4.000   7.844   5.516
 3526TIP3   OH210520   2.876   3.897   0.681
 3526TIP3    H110521   2.826   3.899   0.600
 3526TIP3    H210522   2.900   3.989   0.696
 3527TIP3   OH210523   0.725   6.008   0.678
 3527TIP3    H110524   0.645   6.003   0.626
 3527TIP3    H210525   0.718   6.090   0.726
 3528TIP3   OH210526   7.647   4.735   5.434
 3528TIP3    H110527   7.655   4.704   5.524
 3528TIP3    H210528   7.737   4.743   5.403
 3529TIP3   OH210529   7.775   1.790   5.732
 3529TIP3    H110530   7.685   1.760   5.737
 3529TIP3    H210531   7.817   1.752   5.809
 3530TIP3   OH210532   4.510   2.036   1.749
 3530TIP3    H110533   4.581   2.016   1.687
 3530TIP3    H210534   4.476   2.120   1.719
 3531TIP3   OH210535   6.356   1.094   4.492
 3531TIP3    H110536   6.271   1.123   4.525
 3531TIP3    H210537   6.416   1.105   4.565
 3532TIP3   OH210538   5.512   6.216   4.602
 3532TIP3    H110539   5.555   6.131   4.608
 3532TIP3    H210540   5.583   6.280   4.606
 3533TIP3   OH210541   3.436   5.339   2.583
 3533TIP3    H110542   3.414   5.431   2.596
 3533TIP3    H210543   3.517   5.340   2.533
 3534TIP3   OH210544   3.592   5.162   2.196
 3534TIP3    H110545   3.638   5.104   2.257
 3534TIP3    H210546   3.517   5.110   2.166
 3535TIP3   OH210547   0.477   6.799   0.797
 3535TIP3    H110548   0.414   6.816   0.727
 3535TIP3    H210549   0.557   6.772   0.752
 3536TIP3   OH210550   3.837   1.648   2.409
 3536TIP3    H110551   3.792   1.578   2.456
 3536TIP3    H210552   3.896   1.686   2.473
 3537TIP3   OH210553   4.105   2.920   0.053
 3537TIP3    H110554   4.040   2.875   0.108
 3537TIP3    H210555   4.123   3.002   0.099
 3538TIP3   OH210556   4.170   0.326   5.555
 3538TIP3    H110557   4.164   0.309   5.649
 3538TIP3    H210558   4.200   0.416   5.548
 3539TIP3   OH210559   0.922   0.632   1.336
 3539TIP3    H110560   0.909   0.540   1.315
 3539TIP3    H210561   0.858   0.649   1.406
 3540TIP3   OH210562   6.100   4.599   3.910
 3540TIP3    H110563   6.149   4.665   3.959
 3540TIP3    H210564   6.066   4.539   3.976
 3541TIP3   OH210565   1.261   4.648   3.235
 3541TIP3    H110566   1.278   4.742   3.232
 3541TIP3    H210567   1.192   4.638   3.301
 3542TIP3   OH210568   0.144   2.469   1.001
 3542TIP3    H110569   0.096   2.425   1.071
 3542TIP3    H210570   0.088   2.542   0.975
 3543TIP3   OH210571   4.948   7.613   4.230
 3543TIP3    H110572   4.937   7.659   4.147
 3543TIP3    H210573   5.012   7.665   4.278
 3544TIP3   OH210574   0.423   6.586   5.285
 3544TIP3    H110575   0.474   6.537   5.220
 3544TIP3    H210576   0.465   6.565   5.369
 3545TIP3   OH210577   3.970   0.242   6.050
 3545TIP3    H110578   3.879   0.263   6.031
 3545TIP3    H210579   3.969   0.213   6.142
 3546TIP3   OH210580   2.328   3.371   2.073
 3546TIP3    H110581   2.352   3.304   2.137
 3546TIP3    H210582   2.306   3.448   2.125
 3547TIP3   OH210583   3.602   5.582   4.008
 3547TIP3    H110584   3.523   5.554   3.962
 3547TIP3    H210585   3.653   5.501   4.019
 3548TIP3   OH210586   2.292   5.790   1.519
 3548TIP3    H110587   2.223   5.724   1.508
 3548TIP3    H210588   2.349   5.754   1.587
 3549TIP3   OH210589   2.888   4.774   2.237
 3549TIP3    H110590   2.970   4.750   2.193
 3549TIP3    H210591   2.892   4.869   2.245
 3550TIP3   OH210592   1.733   1.452   6.161
 3550TIP3    H110593   1.728   1.393   6.086
 3550TIP3    H210594   1.823   1.441   6.193
 3551TIP3   OH210595   0.788   5.201   4.996
 3551TIP3    H110596   0.724   5.165   4.934
 3551TIP3    H210597   0.785   5.141   5.071
 3552TIP3   OH210598   3.217   7.167   0.103
 3552TIP3    H110599   3.281   7.108   0.143
 3552TIP3    H210600   3.216   7.243   0.160
 3553TIP3   OH210601   5.821   6.910   3.577
 3553TIP3    H110602   5.762   6.834   3.568
 3553TIP3    H210603   5.786   6.974   3.515
 3554TIP3   OH210604   6.017   7.539   0.589
 3554TIP3    H110605   6.030   7.491   0.671
 3554TIP3    H210606   5.974   7.621   0.615
 3555TIP3   OH210607   5.762   2.017   6.564
 3555TIP3    H110608   5.676   1.980   6.582
 3555TIP3    H210609   5.816   1.942   6.538
 3556TIP3   OH210610   0.487   5.139   4.443
 3556TIP3    H110611   0.562   5.099   4.398
 3556TIP3    H210612   0.444   5.191   4.376
 3557TIP3   OH210613   3.571   5.297   0.362
 3557TIP3    H110614   3.536   5.344   0.438
 3557TIP3    H210615   3.555   5.356   0.288
 3558TIP3   OH210616   3.578   6.750   4.987
 3558TIP3    H110617   3.493   6.792   4.970
 3558TIP3    H210618   3.610   6.794   5.066
 3559TIP3   OH210619   0.749   5.950   2.566
 3559TIP3    H110620   0.754   5.997   2.649
 3559TIP3    H210621   0.658   5.957   2.540
 3560TIP3   OH210622   7.715   5.025   3.321
 3560TIP3    H110623   7.791   5.064   3.278
 3560TIP3    H210624   7.695   5.084   3.394
 3561TIP3   OH210625   0.972   7.470   6.232
 3561TIP3    H110626   0.932   7.554   6.250
 3561TIP3    H210627   0.974   7.464   6.136
 3562TIP3   OH210628   6.927   3.135   1.887
 3562TIP3    H110629   6.944   3.216   1.839
 3562TIP3    H210630   6.993   3.133   1.956
 3563TIP3   OH210631   1.224   1.116   5.618
 3563TIP3    H110632   1.310   1.154   5.598
 3563TIP3    H210633   1.161   1.182   5.588
 3564TIP3   OH210634   3.292   5.917   4.580
 3564TIP3    H110635   3.256   5.828   4.576
 3564TIP3    H210636   3.384   5.906   4.555
 3565TIP3   OH210637   8.003   2.882   1.559
 3565TIP3    H110638   7.916   2.848   1.539
 3565TIP3    H210639   8.062   2.808   1.542
 3566TIP3   OH210640   0.260   1.491   6.597
 3566TIP3    H110641   0.220   1.549   6.661
 3566TIP3    H210642   0.219   1.406   6.612
 3567TIP3   OH210643   2.906   5.793   0.324
 3567TIP3    H110644   2.873   5.806   0.413
 3567TIP3    H210645   2.839   5.831   0.267
 3568TIP3   OH210646   2.525   4.229   4.046
 3568TIP3    H110647   2.597   4.173   4.076
 3568TIP3    H210648   2.566   4.315   4.032
 3569TIP3   OH210649   7.613   5.453   4.805
 3569TIP3    H110650   7.523   5.438   4.835
 3569TIP3    H210651   7.659   5.486   4.883
 3570TIP3   OH210652   7.555   5.645   0.663
 3570TIP3    H110653   7.555   5.549   0.669
 3570TIP3    H210654   7.515   5.664   0.578
 3571TIP3   OH210655   2.288   7.300   5.722
 3571TIP3    H110656   2.376   7.324   5.749
 3571TIP3    H210657   2.298   7.214   5.680
 3572TIP3   OH210658   4.373   4.989   2.720
 3572TIP3    H110659   4.400   5.048   2.650
 3572TIP3    H210660   4.324   4.919   2.676
 3573TIP3   OH210661   0.655   7.050   6.701
 3573TIP3    H110662   0.649   7.064   6.795
 3573TIP3    H210663   0.745   7.021   6.687
 3574TIP3   OH210664   5.325   4.945   1.988
 3574TIP3    H110665   5.362   4.858   2.006
 3574TIP3    H210666   5.282   4.936   1.903
 3575TIP3   OH210667   5.270   3.993   5.894
 3575TIP3    H110668   5.227   4.065   5.939
 3575TIP3    H210669   5.254   4.010   5.801
 3576TIP3   OH210670   0.373   3.072   0.366
 3576TIP3    H110671   0.406   3.004   0.307
 3576TIP3    H210672   0.282   3.083   0.341
 3577TIP3   OH210673   5.351   1.564   3.817
 3577TIP3    H110674   5.282   1.624   3.845
 3577TIP3    H210675   5.367   1.586   3.726
 3578TIP3   OH210676   1.033   7.795   4.789
 3578TIP3    H110677   0.989   7.839   4.717
 3578TIP3    H210678   1.051   7.707   4.757
 3579TIP3   OH210679   2.294   3.972   5.342
 3579TIP3    H110680   2.255   3.885   5.336
 3579TIP3    H210681   2.386   3.958   5.322
 3580TIP3   OH210682   7.140   4.010   0.391
 3580TIP3    H110683   7.132   4.071   0.464
 3580TIP3    H210684   7.214   4.042   0.340
 3581TIP3   OH210685   6.678   1.141   1.828
 3581TIP3    H110686   6.665   1.109   1.917
 3581TIP3    H210687   6.659   1.065   1.772
 3582TIP3   OH210688   6.296   0.394   2.330
 3582TIP3    H110689   6.311   0.481   2.293
 3582TIP3    H210690   6.235   0.353   2.269
 3583TIP3   OH210691   8.097   4.194   1.215
 3583TIP3    H110692   8.059   4.281   1.217
 3583TIP3    H210693   8.027   4.136   1.245
 3584TIP3   OH210694   3.216   0.159   4.205
 3584TIP3    H110695   3.231   0.192   4.116
 3584TIP3    H210696   3.281   0.090   4.217
 3585TIP3   OH210697   3.367   1.177   4.486
 3585TIP3    H110698   3.431   1.239   4.449
 3585TIP3    H210699   3.403   1.154   4.571
 3586TIP3   OH210700   6.128   3.412   3.777
 3586TIP3    H110701   6.132   3.325   3.737
 3586TIP3    H210702   6.211   3.422   3.824
 3587TIP3   OH210703   0.690   4.364   6.008
 3587TIP3    H110704   0.779   4.359   5.973
 3587TIP3    H210705   0.697   4.426   6.081
 3588TIP3   OH210706   4.321   4.305   3.035
 3588TIP3    H110707   4.255   4.332   2.971
 3588TIP3    H210708   4.286   4.333   3.120
 3589TIP3   OH210709   4.266   7.236   4.612
 3589TIP3    H110710   4.261   7.319   4.565
 3589TIP3    H210711   4.327   7.253   4.684
 3590TIP3   OH210712   5.824   5.682   1.288
 3590TIP3    H110713   5.765   5.624   1.240
 3590TIP3    H210714   5.771   5.759   1.308
 3591TIP3   OH210715   1.177   5.688   0.931
 3591TIP3    H110716   1.240   5.757   0.955
 3591TIP3    H210717   1.100   5.707   0.985
 3592TIP3   OH210718   7.279   0.196   5.359
 3592TIP3    H110719   7.372   0.207   5.339
 3592TIP3    H210720   7.248   0.128   5.300
 3593TIP3   OH210721   0.344   5.902   2.112
 3593TIP3    H110722   0.437   5.910   2.129
 3593TIP3    H210723   0.323   5.812   2.138
 3594TIP3   OH210724   4.965   7.212   5.515
 3594TIP3    H110725   4.936   7.282   5.457
 3594TIP3    H210726   4.939   7.131   5.471
 3595TIP3   OH210727   3.640   0.333   4.533
 3595TIP3    H110728   3.645   0.421   4.497
 3595TIP3    H210729   3.714   0.329   4.594
 3596TIP3   OH210730   6.439   7.178   0.301
 3596TIP3    H110731   6.476   7.238   0.366
 3596TIP3    H210732   6.356   7.150   0.340
 3597TIP3   OH210733   6.886   0.723   5.335
 3597TIP3    H110734   6.845   0.662   5.275
 3597TIP3    H210735   6.953   0.672   5.381
 3598TIP3   OH210736   0.594   4.927   5.539
 3598TIP3    H110737   0.661   4.989   5.510
 3598TIP3    H210738   0.629   4.889   5.619
 3599TIP3   OH210739   6.553   3.042   4.674
 3599TIP3    H110740   6.583   3.097   4.746
 3599TIP3    H210741   6.610   3.063   4.601
 3600TIP3   OH210742   1.241   3.910   2.424
 3600TIP3    H110743   1.242   3.888   2.330
 3600TIP3    H210744   1.272   4.000   2.427
 3601TIP3   OH210745   1.898   1.725   1.386
 3601TIP3    H110746   1.834   1.655   1.375
 3601TIP3    H210747   1.858   1.785   1.448
 3602TIP3   OH210748   7.366   4.441   3.536
 3602TIP3    H110749   7.435   4.387   3.574
 3602TIP3    H210750   7.331   4.389   3.464
 3603TIP3   OH210751   0.268   3.007   3.774
 3603TIP3    H110752   0.183   3.011   3.818
 3603TIP3    H210753   0.252   2.954   3.696
 3604TIP3   OH210754   2.630   4.753   0.536
 3604TIP3    H110755   2.588   4.837   0.518
 3604TIP3    H210756   2.721   4.776   0.555
 3605TIP3   OH210757   3.509   7.481   6.736
 3605TIP3    H110758   3.600   7.455   6.752
 3605TIP3    H210759   3.486   7.535   6.811
 3606TIP3   OH210760   3.494   5.780   5.518
 3606TIP3    H110761   3.521   5.692   5.493
 3606TIP3    H210762   3.534   5.837   5.452
 3607TIP3   OH210763   3.387   6.214   0.420
 3607TIP3    H110764   3.394   6.297   0.372
 3607TIP3    H210765   3.438   6.228   0.500
 3608TIP3   OH210766   7.467   6.721   4.844
 3608TIP3    H110767   7.560   6.725   4.866
 3608TIP3    H210768   7.444   6.629   4.856
 3609TIP3   OH210769   5.018   1.667   4.585
 3609TIP3    H110770   5.035   1.582   4.544
 3609TIP3    H210771   4.999   1.645   4.677
 3610TIP3   OH210772   2.750   5.011   4.261
 3610TIP3    H110773   2.683   5.004   4.330
 3610TIP3    H210774   2.811   5.077   4.294
 3611TIP3   OH210775   1.229   4.597   0.995
 3611TIP3    H110776   1.141   4.580   0.960
 3611TIP3    H210777   1.214   4.659   1.066
 3612TIP3   OH210778   4.139   6.628   1.135
 3612TIP3    H110779   4.142   6.636   1.230
 3612TIP3    H210780   4.094   6.707   1.105
 3613TIP3   OH210781   0.793   2.615   2.962
 3613TIP3    H110782   0.878   2.654   2.982
 3613TIP3    H210783   0.791   2.607   2.867
 3614TIP3   OH210784   6.944   4.735   5.189
 3614TIP3    H110785   6.961   4.808   5.250
 3614TIP3    H210786   6.883   4.679   5.236
 3615TIP3   OH210787   6.410   2.043   5.279
 3615TIP3    H110788   6.406   2.138   5.293
 3615TIP3    H210789   6.407   2.005   5.367
 3616TIP3   OH210790   3.817   6.433   5.781
 3616TIP3    H110791   3.906   6.428   5.818
 3616TIP3    H210792   3.800   6.527   5.773
 3617TIP3   OH210793   4.031   0.502   4.491
 3617TIP3    H110794   3.984   0.528   4.412
 3617TIP3    H210795   4.036   0.582   4.544
 3618TIP3   OH210796   7.175   1.705   6.655
 3618TIP3    H110797   7.083   1.708   6.683
 3618TIP3    H210798   7.174   1.744   6.567
 3619TIP3   OH210799   7.196   0.314   1.185
 3619TIP3    H110800   7.159   0.351   1.104
 3619TIP3    H210801   7.186   0.384   1.249
 3620TIP3   OH210802   0.584   5.837   2.233
 3620TIP3    H110803   0.632   5.915   2.261
 3620TIP3    H210804   0.652   5.774   2.209
 3621TIP3   OH210805   3.171   2.668   5.584
 3621TIP3    H110806   3.200   2.586   5.543
 3621TIP3    H210807   3.167   2.648   5.677
 3622TIP3   OH210808   8.054   2.904   2.364
 3622TIP3    H110809   7.975   2.934   2.319
 3622TIP3    H210810   8.042   2.809   2.373
 3623TIP3   OH210811   0.768   4.382   2.101
 3623TIP3    H110812   0.703   4.430   2.153
 3623TIP3    H210813   0.737   4.292   2.100
 3624TIP3   OH210814   3.213   6.706   4.635
 3624TIP3    H110815   3.259   6.663   4.707
 3624TIP3    H210816   3.266   6.783   4.615
 3625TIP3   OH210817   6.105   6.240   2.726
 3625TIP3    H110818   6.133   6.317   2.677
 3625TIP3    H210819   6.162   6.239   2.803
 3626TIP3   OH210820   7.386   5.597   1.347
 3626TIP3    H110821   7.408   5.505   1.358
 3626TIP3    H210822   7.448   5.643   1.405
 3627TIP3   OH210823   7.728   1.168   2.870
 3627TIP3    H110824   7.749   1.107   2.799
 3627TIP3    H210825   7.764   1.251   2.840
 3628TIP3   OH210826   2.784   2.232   2.017
 3628TIP3    H110827   2.756   2.311   2.062
 3628TIP3    H210828   2.813   2.173   2.087
 3629TIP3   OH210829   5.972   1.493   1.788
 3629TIP3    H110830   5.979   1.588   1.775
 3629TIP3    H210831   6.026   1.456   1.718
 3630TIP3   OH210832   2.067   6.372   5.009
 3630TIP3    H110833   2.005   6.306   4.978
 3630TIP3    H210834   2.107   6.333   5.087
 3631TIP3   OH210835   2.186   5.555   5.152
 3631TIP3    H110836   2.192   5.487   5.085
 3631TIP3    H210837   2.092   5.573   5.159
 3632TIP3   OH210838   1.310   3.501   2.554
 3632TIP3    H110839   1.359   3.467   2.629
 3632TIP3    H210840   1.376   3.519   2.488
 3633TIP3   OH210841   5.441   4.022   2.871
 3633TIP3    H110842   5.435   3.930   2.896
 3633TIP3    H210843   5.424   4.071   2.951
 3634TIP3   OH210844   8.209   1.727   2.707
 3634TIP3    H110845   8.294   1.768   2.722
 3634TIP3    H210846   8.146   1.798   2.718
 3635TIP3   OH210847   1.389   5.464   0.978
 3635TIP3    H110848   1.458   5.525   0.953
 3635TIP3    H210849   1.308   5.515   0.974
 3636TIP3   OH210850   5.886   3.388   0.528
 3636TIP3    H110851   5.941   3.329   0.580
 3636TIP3    H210852   5.946   3.456   0.498
 3637TIP3   OH210853   5.411   1.876   1.675
 3637TIP3    H110854   5.318   1.875   1.655
 3637TIP3    H210855   5.419   1.936   1.750
 3638TIP3   OH210856   6.411   4.715   4.972
 3638TIP3    H110857   6.505   4.712   4.955
 3638TIP3    H210858   6.383   4.800   4.940
 3639TIP3   OH210859   5.681   3.268   2.020
 3639TIP3    H110860   5.756   3.291   2.075
 3639TIP3    H210861   5.655   3.351   1.980
 3640TIP3   OH210862   6.520   1.951   0.848
 3640TIP3    H110863   6.459   2.025   0.847
 3640TIP3    H210864   6.540   1.938   0.940
 3641TIP3   OH210865   8.197   3.098   3.322
 3641TIP3    H110866   8.268   3.113   3.260
 3641TIP3    H210867   8.167   3.186   3.346
 3642TIP3   OH210868   4.174   7.706   4.829
 3642TIP3    H110869   4.224   7.756   4.764
 3642TIP3    H210870   4.241   7.669   4.886
 3643TIP3   OH210871   2.981   7.454   4.644
 3643TIP3    H110872   2.998   7.401   4.722
 3643TIP3    H210873   2.936   7.395   4.584
 3644TIP3   OH210874   7.029   3.918   2.815
 3644TIP3    H110875   7.117   3.929   2.852
 3644TIP3    H210876   6.974   3.974   2.870
 3645TIP3   OH210877   0.964   7.144   4.650
 3645TIP3    H110878   0.939   7.069   4.705
 3645TIP3    H210879   1.005   7.206   4.711
 3646TIP3   OH210880   7.796   3.295   3.981
 3646TIP3    H110881   7.707   3.274   4.011
 3646TIP3    H210882   7.812   3.232   3.910
 3647TIP3   OH210883   0.929   6.599   0.431
 3647TIP3    H110884   0.969   6.543   0.497
 3647TIP3    H210885   0.954   6.688   0.456
 3648TIP3   OH210886   0.381   1.831   5.309
 3648TIP3    H110887   0.450   1.771   5.336
 3648TIP3    H210888   0.300   1.784   5.328
 3649TIP3   OH210889   6.265   3.370   1.759
 3649TIP3    H110890   6.276   3.275   1.764
 3649TIP3    H210891   6.170   3.383   1.750
 3650TIP3   OH210892   6.586   0.251   3.851
 3650TIP3    H110893   6.647   0.312   3.809
 3650TIP3    H210894   6.637   0.173   3.869
 3651TIP3   OH210895   6.780   1.321   6.303
 3651TIP3    H110896   6.709   1.258   6.312
 3651TIP3    H210897   6.768   1.360   6.217
 3652TIP3   OH210898   6.926   6.347   6.358
 3652TIP3    H110899   6.888   6.276   6.306
 3652TIP3    H210900   6.861   6.416   6.355
 3653TIP3   OH210901   5.905   4.903   0.524
 3653TIP3    H110902   5.925   4.992   0.553
 3653TIP3    H210903   5.973   4.849   0.563
 3654TIP3   OH210904   6.832   0.381   4.678
 3654TIP3    H110905   6.837   0.358   4.585
 3654TIP3    H210906   6.792   0.468   4.679
 3655TIP3   OH210907   1.230   3.153   2.296
 3655TIP3    H110908   1.296   3.196   2.350
 3655TIP3    H210909   1.154   3.211   2.302
 3656TIP3   OH210910   5.065   3.147   1.111
 3656TIP3    H110911   5.102   3.174   1.195
 3656TIP3    H210912   5.106   3.062   1.093
 3657TIP3   OH210913   1.914   0.138   6.750
 3657TIP3    H110914   1.953   0.189   6.679
 3657TIP3    H210915   1.820   0.151   6.739
 3658TIP3   OH210916   4.967   2.506   1.097
 3658TIP3    H110917   4.933   2.506   1.008
 3658TIP3    H210918   4.892   2.533   1.151
 3659TIP3   OH210919   7.086   5.150   3.879
 3659TIP3    H110920   6.996   5.179   3.892
 3659TIP3    H210921   7.138   5.204   3.938
 3660TIP3   OH210922   1.812   1.527   2.403
 3660TIP3    H110923   1.728   1.565   2.376
 3660TIP3    H210924   1.806   1.435   2.377
 3661TIP3   OH210925   2.558   0.685   0.590
 3661TIP3    H110926   2.496   0.746   0.631
 3661TIP3    H210927   2.631   0.740   0.563
 3662TIP3   OH210928   0.610   6.869   3.253
 3662TIP3    H110929   0.650   6.913   3.179
 3662TIP3    H210930   0.590   6.940   3.315
 3663TIP3   OH210931   5.855   3.704   4.312
 3663TIP3    H110932   5.849   3.736   4.222
 3663TIP3    H210933   5.769   3.724   4.350
 3664TIP3   OH210934   0.209   5.449   0.268
 3664TIP3    H110935   0.265   5.474   0.342
 3664TIP3    H210936   0.176   5.362   0.291
 3665TIP3   OH210937   1.147   5.889   3.082
 3665TIP3    H110938   1.221   5.852   3.131
 3665TIP3    H210939   1.117   5.817   3.027
 3666TIP3   OH210940   7.658   4.759   6.420
 3666TIP3    H110941   7.570   4.746   6.454
 3666TIP3    H210942   7.692   4.671   6.407
 3667TIP3   OH210943   2.502   7.036   6.723
 3667TIP3    H110944   2.415   6.997   6.728
 3667TIP3    H210945   2.551   6.978   6.664
 3668TIP3   OH210946   6.093   2.753   0.746
 3668TIP3    H110947   6.118   2.684   0.808
 3668TIP3    H210948   6.055   2.822   0.801
 3669TIP3   OH210949   0.117   4.135   6.008
 3669TIP3    H110950   0.060   4.186   5.951
 3669TIP3    H210951   0.058   4.091   6.069
 3670TIP3   OH210952   0.323   5.462   1.206
 3670TIP3    H110953   0.401   5.452   1.151
 3670TIP3    H210954   0.264   5.393   1.176
 3671TIP3   OH210955   1.348   7.764   1.009
 3671TIP3    H110956   1.305   7.837   0.965
 3671TIP3    H210957   1.298   7.687   0.983
 3672TIP3   OH210958   3.714   0.541   3.933
 3672TIP3    H110959   3.652   0.572   3.866
 3672TIP3    H210960   3.800   0.548   3.891
 3673TIP3   OH210961   3.671   3.365   4.691
 3673TIP3    H110962   3.655   3.295   4.628
 3673TIP3    H210963   3.746   3.335   4.742
 3674TIP3   OH210964   5.698   5.534   6.452
 3674TIP3    H110965   5.723   5.442   6.456
 3674TIP3    H210966   5.740   5.566   6.373
 3675TIP3   OH210967   5.518   4.432   4.852
 3675TIP3    H110968   5.548   4.510   4.899
 3675TIP3    H210969   5.597   4.378   4.841
 3676TIP3   OH210970   6.078   1.826   3.036
 3676TIP3    H110971   6.085   1.914   3.073
 3676TIP3    H210972   6.166   1.789   3.044
 3677TIP3   OH210973   6.731   4.510   0.904
 3677TIP3    H110974   6.765   4.598   0.920
 3677TIP3    H210975   6.689   4.516   0.818
 3678TIP3   OH210976   3.834   1.359   0.904
 3678TIP3    H110977   3.754   1.380   0.856
 3678TIP3    H210978   3.879   1.442   0.915
 3679TIP3   OH210979   7.117   6.717   6.389
 3679TIP3    H110980   7.113   6.812   6.401
 3679TIP3    H210981   7.084   6.681   6.471
 3680TIP3   OH210982   1.698   5.868   2.572
 3680TIP3    H110983   1.760   5.795   2.579
 3680TIP3    H210984   1.725   5.915   2.493
 3681TIP3   OH210985   6.456   1.376   0.923
 3681TIP3    H110986   6.510   1.302   0.894
 3681TIP3    H210987   6.395   1.339   0.986
 3682TIP3   OH210988   0.017   0.923   6.195
 3682TIP3    H110989   0.064   0.926   6.111
 3682TIP3    H210990   0.085   0.907   6.260
 3683TIP3   OH210991   6.309   1.480   5.237
 3683TIP3    H110992   6.323   1.397   5.282
 3683TIP3    H210993   6.391   1.498   5.192
 3684TIP3   OH210994   0.764   6.771   4.989
 3684TIP3    H110995   0.745   6.856   4.950
 3684TIP3    H210996   0.758   6.786   5.083
 3685TIP3   OH210997   4.333   3.270   1.246
 3685TIP3    H110998   4.248   3.277   1.288
 3685TIP3    H210999   4.384   3.212   1.303
 3686TIP3   OH211000   5.791   3.909   2.626
 3686TIP3    H111001   5.708   3.927   2.583
 3686TIP3    H211002   5.780   3.941   2.715
 3687TIP3   OH211003   6.735   2.581   6.489
 3687TIP3    H111004   6.778   2.592   6.404
 3687TIP3    H211005   6.654   2.533   6.469
 3688TIP3   OH211006   5.240   3.314   4.901
 3688TIP3    H111007   5.237   3.377   4.973
 3688TIP3    H211008   5.207   3.363   4.826
 3689TIP3   OH211009   6.576   6.119   3.422
 3689TIP3    H111010   6.535   6.153   3.501
 3689TIP3    H211011   6.605   6.196   3.374
 3690TIP3   OH211012  -0.007   5.223   1.739
 3690TIP3    H111013   0.077   5.250   1.774
 3690TIP3    H211014  -0.033   5.293   1.680
 3691TIP3   OH211015   4.027   0.615   1.078
 3691TIP3    H111016   4.075   0.657   1.149
 3691TIP3    H211017   3.935   0.631   1.098
 3692TIP3   OH211018   1.557   0.467   3.807
 3692TIP3    H111019   1.619   0.405   3.846
 3692TIP3    H211020   1.612   0.527   3.756
 3693TIP3   OH211021   3.115   3.099   3.062
 3693TIP3    H111022   3.191   3.077   3.009
 3693TIP3    H211023   3.081   3.015   3.092
 3694TIP3   OH211024   3.148   4.510   0.082
 3694TIP3    H111025   3.239   4.533   0.103
 3694TIP3    H211026   3.135   4.424   0.122
 3695TIP3   OH211027   1.610   4.900   2.721
 3695TIP3    H111028   1.550   4.950   2.665
 3695TIP3    H211029   1.619   4.816   2.676
 3696TIP3   OH211030   0.633   4.703   1.303
 3696TIP3    H111031   0.570   4.697   1.231
 3696TIP3    H211032   0.718   4.703   1.260
 3697TIP3   OH211033   7.743   3.032   6.320
 3697TIP3    H111034   7.777   2.946   6.296
 3697TIP3    H211035   7.817   3.077   6.360
 3698TIP3   OH211036   4.514   4.916   0.428
 3698TIP3    H111037   4.525   5.000   0.383
 3698TIP3    H211038   4.588   4.863   0.398
 3699TIP3   OH211039   0.053   0.239   6.488
 3699TIP3    H111040   0.047   0.312   6.551
 3699TIP3    H211041   0.144   0.210   6.495
 3700TIP3   OH211042   1.719   1.264   4.572
 3700TIP3    H111043   1.808   1.245   4.602
 3700TIP3    H211044   1.714   1.359   4.572
 3701TIP3   OH211045   7.273   3.545   0.930
 3701TIP3    H111046   7.229   3.568   1.012
 3701TIP3    H211047   7.319   3.463   0.949
 3702TIP3   OH211048   7.274   4.783   2.253
 3702TIP3    H111049   7.320   4.724   2.312
 3702TIP3    H211050   7.187   4.793   2.292
 3703TIP3   OH211051   5.718   2.032   1.907
 3703TIP3    H111052   5.813   2.048   1.915
 3703TIP3    H211053   5.680   2.119   1.892
 3704TIP3   OH211054   0.242   7.616   6.032
 3704TIP3    H111055   0.161   7.629   5.983
 3704TIP3    H211056   0.306   7.672   5.989
 3705TIP3   OH211057   5.689   5.797   2.642
 3705TIP3    H111058   5.728   5.726   2.591
 3705TIP3    H211059   5.689   5.872   2.583
 3706TIP3   OH211060   7.621   4.032   6.435
 3706TIP3    H111061   7.672   3.952   6.422
 3706TIP3    H211062   7.533   4.009   6.404
 3707TIP3   OH211063   0.108   3.264   6.650
 3707TIP3    H111064   0.098   3.253   6.744
 3707TIP3    H211065   0.202   3.264   6.635
 3708TIP3   OH211066   4.219   3.966   0.617
 3708TIP3    H111067   4.219   4.062   0.617
 3708TIP3    H211068   4.204   3.942   0.525
 3709TIP3   OH211069   6.268   1.326   4.614
 3709TIP3    H111070   6.344   1.381   4.633
 3709TIP3    H211071   6.205   1.385   4.572
 3710TIP3   OH211072   7.584   4.288   3.627
 3710TIP3    H111073   7.577   4.240   3.710
 3710TIP3    H211074   7.678   4.305   3.618
 3711TIP3   OH211075   1.626   1.741   6.078
 3711TIP3    H111076   1.578   1.664   6.049
 3711TIP3    H211077   1.698   1.706   6.130
 3712TIP3   OH211078   5.145   2.193   2.786
 3712TIP3    H111079   5.213   2.259   2.771
 3712TIP3    H211080   5.084   2.236   2.846
 3713TIP3   OH211081   6.033   2.316   2.476
 3713TIP3    H111082   6.094   2.387   2.457
 3713TIP3    H211083   5.998   2.338   2.562
 3714TIP3   OH211084   0.184   6.317   4.509
 3714TIP3    H111085   0.145   6.310   4.596
 3714TIP3    H211086   0.261   6.259   4.513
 3715TIP3   OH211087   4.352   4.439   5.051
 3715TIP3    H111088   4.313   4.505   5.108
 3715TIP3    H211089   4.446   4.458   5.054
 3716TIP3   OH211090   5.446   7.020   2.820
 3716TIP3    H111091   5.360   7.020   2.777
 3716TIP3    H211092   5.460   7.112   2.844
 3717TIP3   OH211093   1.602   3.184   5.503
 3717TIP3    H111094   1.683   3.234   5.498
 3717TIP3    H211095   1.626   3.095   5.477
 3718TIP3   OH211096   5.406   6.507   0.861
 3718TIP3    H111097   5.399   6.587   0.914
 3718TIP3    H211098   5.488   6.467   0.889
 3719TIP3   OH211099   6.446   0.991   5.495
 3719TIP3    H111100   6.505   0.944   5.435
 3719TIP3    H211101   6.420   1.069   5.447
 3720TIP3   OH211102   0.699   2.519   1.097
 3720TIP3    H111103   0.652   2.459   1.157
 3720TIP3    H211104   0.655   2.603   1.109
 3721TIP3   OH211105   1.636   0.633   1.358
 3721TIP3    H111106   1.620   0.727   1.352
 3721TIP3    H211107   1.550   0.594   1.372
 3722TIP3   OH211108   7.363   3.206   2.788
 3722TIP3    H111109   7.293   3.267   2.812
 3722TIP3    H211110   7.320   3.120   2.787
 3723TIP3   OH211111   6.955   7.592   5.220
 3723TIP3    H111112   6.997   7.587   5.134
 3723TIP3    H211113   6.897   7.668   5.215
 3724TIP3   OH211114   6.021   5.622   2.816
 3724TIP3    H111115   6.035   5.594   2.725
 3724TIP3    H211116   5.961   5.557   2.852
 3725TIP3   OH211117   1.912   2.702   0.040
 3725TIP3    H111118   1.861   2.781   0.024
 3725TIP3    H211119   1.849   2.630   0.032
 3726TIP3   OH211120   2.378   0.703   1.732
 3726TIP3    H111121   2.307   0.731   1.790
 3726TIP3    H211122   2.390   0.610   1.751
 3727TIP3   OH211123   6.640   5.861   3.376
 3727TIP3    H111124   6.612   5.952   3.386
 3727TIP3    H211125   6.588   5.813   3.440
 3728TIP3   OH211126   8.076   7.679   2.780
 3728TIP3    H111127   8.104   7.759   2.825
 3728TIP3    H211128   8.156   7.645   2.740
 3729TIP3   OH211129   8.134   1.299   4.387
 3729TIP3    H111130   8.046   1.289   4.422
 3729TIP3    H211131   8.127   1.370   4.323
 3730TIP3   OH211132   4.909   2.424   4.708
 3730TIP3    H111133   4.890   2.336   4.741
 3730TIP3    H211134   4.996   2.417   4.669
 3731TIP3   OH211135   0.085   3.800   5.714
 3731TIP3    H111136   0.046   3.783   5.799
 3731TIP3    H211137   0.140   3.877   5.728
 3732TIP3   OH211138   3.091   6.438   0.995
 3732TIP3    H111139   3.063   6.495   1.067
 3732TIP3    H211140   3.139   6.367   1.038
 3733TIP3   OH211141   2.347   3.684   4.856
 3733TIP3    H111142   2.264   3.716   4.892
 3733TIP3    H211143   2.371   3.749   4.790
 3734TIP3   OH211144   1.830   1.731   0.880
 3734TIP3    H111145   1.789   1.726   0.794
 3734TIP3    H211146   1.873   1.816   0.881
 3735TIP3   OH211147   6.777   5.382   0.943
 3735TIP3    H111148   6.848   5.395   0.880
 3735TIP3    H211149   6.806   5.307   0.995
 3736TIP3   OH211150   3.649   4.343   2.167
 3736TIP3    H111151   3.588   4.274   2.140
 3736TIP3    H211152   3.678   4.317   2.254
 3737TIP3   OH211153   4.608   6.574   3.142
 3737TIP3    H111154   4.607   6.482   3.115
 3737TIP3    H211155   4.560   6.575   3.225
 3738TIP3   OH211156   7.169   5.314   6.083
 3738TIP3    H111157   7.219   5.392   6.058
 3738TIP3    H211158   7.175   5.312   6.179
 3739TIP3   OH211159   1.861   1.140   5.141
 3739TIP3    H111160   1.949   1.103   5.135
 3739TIP3    H211161   1.805   1.076   5.096
 3740TIP3   OH211162   8.294   7.042   1.930
 3740TIP3    H111163   8.365   6.993   1.888
 3740TIP3    H211164   8.264   7.104   1.864
 3741TIP3   OH211165   5.778   2.422   2.331
 3741TIP3    H111166   5.841   2.354   2.357
 3741TIP3    H211167   5.823   2.505   2.348
 3742TIP3   OH211168   2.978   5.799   2.886
 3742TIP3    H111169   2.943   5.765   2.969
 3742TIP3    H211170   2.951   5.734   2.821
 3743TIP3   OH211171   4.952   0.887   3.591
 3743TIP3    H111172   4.967   0.925   3.505
 3743TIP3    H211173   5.034   0.900   3.639
 3744TIP3   OH211174   7.571   3.582   1.053
 3744TIP3    H111175   7.538   3.544   1.135
 3744TIP3    H211176   7.571   3.676   1.069
 3745TIP3   OH211177   3.887   0.646   0.640
 3745TIP3    H111178   3.958   0.606   0.690
 3745TIP3    H211179   3.814   0.584   0.649
 3746TIP3   OH211180   7.911   3.986   0.162
 3746TIP3    H111181   7.905   3.891   0.153
 3746TIP3    H211182   7.936   4.018   0.075
 3747TIP3   OH211183   5.768   4.109   5.994
 3747TIP3    H111184   5.749   4.028   6.041
 3747TIP3    H211185   5.733   4.178   6.051
 3748TIP3   OH211186   5.345   4.184   0.166
 3748TIP3    H111187   5.413   4.118   0.178
 3748TIP3    H211188   5.301   4.188   0.251
 3749TIP3   OH211189   0.005   2.536   0.124
 3749TIP3    H111190  -0.005   2.527   0.219
 3749TIP3    H211191   0.099   2.547   0.110
 3750TIP3   OH211192   2.074   1.207   1.096
 3750TIP3    H111193   2.133   1.280   1.112
 3750TIP3    H211194   2.106   1.168   1.015
 3751TIP3   OH211195   6.679   3.703   2.716
 3751TIP3    H111196   6.595   3.717   2.761
 3751TIP3    H211197   6.739   3.676   2.785
 3752TIP3   OH211198   1.167   3.432   4.496
 3752TIP3    H111199   1.197   3.519   4.523
 3752TIP3    H211200   1.247   3.389   4.465
 3753TIP3   OH211201   3.833   4.787   1.447
 3753TIP3    H111202   3.857   4.880   1.449
 3753TIP3    H211203   3.738   4.787   1.441
 3754TIP3   OH211204   4.219   5.299   4.715
 3754TIP3    H111205   4.181   5.387   4.722
 3754TIP3    H211206   4.171   5.248   4.780
 3755TIP3   OH211207   0.668   1.550   4.299
 3755TIP3    H111208   0.576   1.569   4.284
 3755TIP3    H211209   0.680   1.461   4.266
 3756TIP3   OH211210   0.458   6.089   4.691
 3756TIP3    H111211   0.499   6.003   4.683
 3756TIP3    H211212   0.394   6.080   4.761
 3757TIP3   OH211213   1.040   7.246   0.922
 3757TIP3    H111214   1.124   7.292   0.921
 3757TIP3    H211215   1.041   7.194   0.841
 3758TIP3   OH211216   3.810   5.094   5.270
 3758TIP3    H111217   3.748   5.052   5.210
 3758TIP3    H211218   3.894   5.091   5.224
 3759TIP3   OH211219   6.415   4.845   3.068
 3759TIP3    H111220   6.402   4.760   3.110
 3759TIP3    H211221   6.467   4.895   3.131
 3760TIP3   OH211222   6.474   2.282   1.565
 3760TIP3    H111223   6.545   2.220   1.549
 3760TIP3    H211224   6.417   2.238   1.628
 3761TIP3   OH211225   2.629   4.903   5.734
 3761TIP3    H111226   2.627   4.876   5.826
 3761TIP3    H211227   2.722   4.911   5.713
 3762TIP3   OH211228   7.339   2.975   0.339
 3762TIP3    H111229   7.294   3.023   0.270
 3762TIP3    H211230   7.423   3.021   0.349
 3763TIP3   OH211231   4.832   6.789   1.429
 3763TIP3    H111232   4.764   6.849   1.398
 3763TIP3    H211233   4.911   6.843   1.433
 3764TIP3   OH211234   0.829   7.738   1.903
 3764TIP3    H111235   0.791   7.734   1.815
 3764TIP3    H211236   0.760   7.705   1.961
 3765TIP3   OH211237   1.101   4.576   4.104
 3765TIP3    H111238   1.107   4.659   4.150
 3765TIP3    H211239   1.182   4.570   4.055
 3766TIP3   OH211240   7.384   2.839   0.070
 3766TIP3    H111241   7.414   2.749   0.052
 3766TIP3    H211242   7.383   2.845   0.166
 3767TIP3   OH211243   0.640   3.230   0.276
 3767TIP3    H111244   0.561   3.270   0.241
 3767TIP3    H211245   0.676   3.295   0.336
 3768TIP3   OH211246   6.411   0.646   5.139
 3768TIP3    H111247   6.458   0.679   5.062
 3768TIP3    H211248   6.349   0.716   5.160
 3769TIP3   OH211249   0.101   7.472   1.228
 3769TIP3    H111250   0.159   7.438   1.160
 3769TIP3    H211251   0.033   7.520   1.180
 3770TIP3   OH211252   0.724   6.810   0.651
 3770TIP3    H111253   0.663   6.822   0.578
 3770TIP3    H211254   0.798   6.866   0.629
 3771TIP3   OH211255   0.443   5.088   2.089
 3771TIP3    H111256   0.449   4.997   2.119
 3771TIP3    H211257   0.534   5.115   2.078
 3772TIP3   OH211258   2.124   2.947   5.209
 3772TIP3    H111259   2.147   3.029   5.167
 3772TIP3    H211260   2.205   2.919   5.252
 3773TIP3   OH211261   1.092   5.485   5.769
 3773TIP3    H111262   1.154   5.549   5.804
 3773TIP3    H211263   1.088   5.417   5.835
 3774TIP3   OH211264   1.435   1.860   2.082
 3774TIP3    H111265   1.493   1.905   2.143
 3774TIP3    H211266   1.356   1.914   2.081
 3775TIP3   OH211267   7.841   0.635   3.644
 3775TIP3    H111268   7.903   0.703   3.617
 3775TIP3    H211269   7.758   0.662   3.605
 3776TIP3   OH211270   2.480   0.657   0.216
 3776TIP3    H111271   2.505   0.572   0.251
 3776TIP3    H211272   2.385   0.660   0.223
 3777TIP3   OH211273   4.113   4.053   1.254
 3777TIP3    H111274   4.169   4.092   1.187
 3777TIP3    H211275   4.029   4.039   1.210
 3778TIP3   OH211276   3.628   6.097   0.546
 3778TIP3    H111277   3.571   6.143   0.607
 3778TIP3    H211278   3.575   6.024   0.513
 3779TIP3   OH211279   1.525   7.538   5.736
 3779TIP3    H111280   1.486   7.485   5.667
 3779TIP3    H211281   1.490   7.626   5.721
 3780TIP3   OH211282   5.632   1.667   6.612
 3780TIP3    H111283   5.598   1.680   6.700
 3780TIP3    H211284   5.727   1.665   6.623
 3781TIP3   OH211285   1.475   0.662   6.096
 3781TIP3    H111286   1.555   0.693   6.139
 3781TIP3    H211287   1.498   0.657   6.004
 3782TIP3   OH211288   4.420   0.664   3.483
 3782TIP3    H111289   4.348   0.695   3.429
 3782TIP3    H211290   4.496   0.712   3.451
 3783TIP3   OH211291   1.725   3.037   4.344
 3783TIP3    H111292   1.767   3.120   4.365
 3783TIP3    H211293   1.679   3.053   4.261
 3784TIP3   OH211294   6.064   4.062   6.135
 3784TIP3    H111295   6.056   3.967   6.133
 3784TIP3    H211296   6.064   4.089   6.043
 3785TIP3   OH211297   3.151   2.183   2.132
 3785TIP3    H111298   3.243   2.202   2.150
 3785TIP3    H211299   3.103   2.222   2.205
 3786TIP3   OH211300   1.653   1.504   4.897
 3786TIP3    H111301   1.568   1.488   4.938
 3786TIP3    H211302   1.717   1.491   4.968
 3787TIP3   OH211303   7.949   0.171   6.306
 3787TIP3    H111304   7.976   0.248   6.357
 3787TIP3    H211305   7.880   0.204   6.248
 3788TIP3   OH211306   6.608   1.444   6.674
 3788TIP3    H111307   6.614   1.479   6.763
 3788TIP3    H211308   6.692   1.466   6.634
 3789TIP3   OH211309   2.183   4.892   2.673
 3789TIP3    H111310   2.224   4.826   2.730
 3789TIP3    H211311   2.102   4.916   2.718
 3790TIP3   OH211312   1.915   7.351   6.495
 3790TIP3    H111313   1.856   7.278   6.478
 3790TIP3    H211314   1.878   7.394   6.572
 3791TIP3   OH211315   3.381   2.450   1.403
 3791TIP3    H111316   3.382   2.545   1.388
 3791TIP3    H211317   3.352   2.439   1.493
 3792TIP3   OH211318   3.162   4.541   3.735
 3792TIP3    H111319   3.150   4.482   3.809
 3792TIP3    H211320   3.257   4.548   3.725
 3793TIP3   OH211321   0.263   2.459   1.934
 3793TIP3    H111322   0.232   2.398   2.001
 3793TIP3    H211323   0.193   2.461   1.869
 3794TIP3   OH211324   1.125   0.907   6.347
 3794TIP3    H111325   1.184   0.972   6.385
 3794TIP3    H211326   1.182   0.848   6.297
 3795TIP3   OH211327   5.282   2.735   2.643
 3795TIP3    H111328   5.236   2.652   2.633
 3795TIP3    H211329   5.374   2.714   2.628
 3796TIP3   OH211330   5.905   5.253   1.813
 3796TIP3    H111331   5.860   5.206   1.742
 3796TIP3    H211332   5.902   5.345   1.786
 3797TIP3   OH211333   0.360   1.929   6.738
 3797TIP3    H111334   0.291   1.954   6.676
 3797TIP3    H211335   0.319   1.941   6.824
 3798TIP3   OH211336   4.159   5.189   2.854
 3798TIP3    H111337   4.094   5.125   2.822
 3798TIP3    H211338   4.216   5.204   2.778
 3799TIP3   OH211339   4.715   3.345   2.673
 3799TIP3    H111340   4.737   3.334   2.580
 3799TIP3    H211341   4.776   3.287   2.719
 3800TIP3   OH211342   4.991   5.414   2.364
 3800TIP3    H111343   5.039   5.456   2.293
 3800TIP3    H211344   4.908   5.388   2.324
 3801TIP3   OH211345   0.338   2.067   1.910
 3801TIP3    H111346   0.403   2.129   1.879
 3801TIP3    H211347   0.309   2.020   1.832
 3802TIP3   OH211348   0.823   5.763   0.777
 3802TIP3    H111349   0.744   5.729   0.819
 3802TIP3    H211350   0.800   5.852   0.750
 3803TIP3   OH211351   3.460   5.131   1.791
 3803TIP3    H111352   3.417   5.050   1.818
 3803TIP3    H211353   3.521   5.103   1.723
 3804TIP3   OH211354   3.798   7.377   1.196
 3804TIP3    H111355   3.745   7.329   1.132
 3804TIP3    H211356   3.888   7.367   1.163
 3805TIP3   OH211357   5.839   2.981   5.190
 3805TIP3    H111358   5.756   2.989   5.236
 3805TIP3    H211359   5.816   2.966   5.098
 3806TIP3   OH211360   8.241   6.189   6.531
 3806TIP3    H111361   8.331   6.220   6.528
 3806TIP3    H211362   8.236   6.137   6.612
 3807TIP3   OH211363   7.392   6.708   5.358
 3807TIP3    H111364   7.313   6.686   5.408
 3807TIP3    H211365   7.462   6.658   5.400
 3808TIP3   OH211366   3.682   6.766   3.483
 3808TIP3    H111367   3.628   6.820   3.540
 3808TIP3    H211368   3.729   6.828   3.428
 3809TIP3   OH211369   3.331   3.415   1.832
 3809TIP3    H111370   3.252   3.362   1.822
 3809TIP3    H211371   3.300   3.500   1.860
 3810TIP3   OH211372   3.327   2.762   3.439
 3810TIP3    H111373   3.245   2.731   3.402
 3810TIP3    H211374   3.394   2.702   3.406
 3811TIP3   OH211375   1.236   3.522   4.171
 3811TIP3    H111376   1.181   3.462   4.222
 3811TIP3    H211377   1.174   3.584   4.132
 3812TIP3   OH211378   6.395   5.389   0.406
 3812TIP3    H111379   6.431   5.300   0.406
 3812TIP3    H211380   6.307   5.379   0.442
 3813TIP3   OH211381   1.688   7.079   0.233
 3813TIP3    H111382   1.610   7.118   0.193
 3813TIP3    H211383   1.749   7.153   0.242
 3814TIP3   OH211384   0.129   1.688   4.365
 3814TIP3    H111385   0.107   1.780   4.384
 3814TIP3    H211386   0.053   1.654   4.320
 3815TIP3   OH211387   8.216   6.602   5.526
 3815TIP3    H111388   8.202   6.527   5.583
 3815TIP3    H211389   8.130   6.619   5.486
 3816TIP3   OH211390   3.022   0.718   1.312
 3816TIP3    H111391   3.017   0.688   1.221
 3816TIP3    H211392   3.115   0.716   1.333
 3817TIP3   OH211393   2.990   5.146   4.404
 3817TIP3    H111394   3.022   5.055   4.401
 3817TIP3    H211395   2.965   5.159   4.496
 3818TIP3   OH211396   1.304   0.083   1.165
 3818TIP3    H111397   1.286  -0.011   1.167
 3818TIP3    H211398   1.250   0.117   1.094
 3819TIP3   OH211399   7.058   5.570   4.022
 3819TIP3    H111400   7.000   5.541   3.952
 3819TIP3    H211401   7.005   5.632   4.072
 3820TIP3   OH211402   6.938   2.552   5.415
 3820TIP3    H111403   6.857   2.604   5.418
 3820TIP3    H211404   6.998   2.598   5.473
 3821TIP3   OH211405   2.165   7.206   6.425
 3821TIP3    H111406   2.138   7.114   6.434
 3821TIP3    H211407   2.084   7.256   6.435
 3822TIP3   OH211408   4.626   2.358   4.124
 3822TIP3    H111409   4.715   2.387   4.103
 3822TIP3    H211410   4.611   2.282   4.067
 3823TIP3   OH211411   5.703   0.666   4.867
 3823TIP3    H111412   5.673   0.748   4.907
 3823TIP3    H211413   5.709   0.686   4.774
 3824TIP3   OH211414   7.929   2.732   2.721
 3824TIP3    H111415   7.941   2.679   2.800
 3824TIP3    H211416   7.948   2.672   2.649
 3825TIP3   OH211417   3.368   0.487   1.176
 3825TIP3    H111418   3.388   0.403   1.136
 3825TIP3    H211419   3.448   0.539   1.166
 3826TIP3   OH211420   7.899   1.345   3.822
 3826TIP3    H111421   7.838   1.278   3.791
 3826TIP3    H211422   7.980   1.328   3.776
 3827TIP3   OH211423   3.076   7.068   3.259
 3827TIP3    H111424   3.148   7.012   3.285
 3827TIP3    H211425   3.020   7.012   3.205
 3828TIP3   OH211426   1.103   6.086   6.509
 3828TIP3    H111427   1.054   6.134   6.576
 3828TIP3    H211428   1.115   6.150   6.438
 3829TIP3   OH211429   4.346   1.494   3.492
 3829TIP3    H111430   4.320   1.557   3.559
 3829TIP3    H211431   4.386   1.422   3.541
 3830TIP3   OH211432   2.816   0.505   6.125
 3830TIP3    H111433   2.851   0.417   6.111
 3830TIP3    H211434   2.723   0.497   6.104
 3831TIP3   OH211435   7.871   5.155   6.243
 3831TIP3    H111436   7.964   5.174   6.254
 3831TIP3    H211437   7.827   5.237   6.264
 3832TIP3   OH211438   6.100   1.132   1.014
 3832TIP3    H111439   6.039   1.058   1.016
 3832TIP3    H211440   6.048   1.205   0.980
 3833TIP3   OH211441   5.493   1.257   2.493
 3833TIP3    H111442   5.559   1.224   2.431
 3833TIP3    H211443   5.523   1.228   2.578
 3834TIP3   OH211444   4.912   0.856   6.528
 3834TIP3    H111445   4.879   0.824   6.444
 3834TIP3    H211446   5.007   0.864   6.515
 3835TIP3   OH211447   3.351   2.376   3.207
 3835TIP3    H111448   3.420   2.435   3.176
 3835TIP3    H211449   3.300   2.356   3.129
 3836TIP3   OH211450   4.644   4.387   3.146
 3836TIP3    H111451   4.585   4.404   3.073
 3836TIP3    H211452   4.678   4.299   3.130
 3837TIP3   OH211453   0.739   3.060   3.833
 3837TIP3    H111454   0.726   3.017   3.918
 3837TIP3    H211455   0.784   2.996   3.779
 3838TIP3   OH211456   4.819   4.730   4.432
 3838TIP3    H111457   4.906   4.747   4.469
 3838TIP3    H211458   4.803   4.804   4.374
 3839TIP3   OH211459   6.753   7.168   4.245
 3839TIP3    H111460   6.844   7.191   4.224
 3839TIP3    H211461   6.709   7.253   4.255
 3840TIP3   OH211462   5.490   1.849   6.437
 3840TIP3    H111463   5.553   1.789   6.476
 3840TIP3    H211464   5.415   1.847   6.496
 3841TIP3   OH211465   0.636   2.813   5.735
 3841TIP3    H111466   0.621   2.764   5.654
 3841TIP3    H211467   0.717   2.862   5.720
 3842TIP3   OH211468   6.412   3.695   2.062
 3842TIP3    H111469   6.432   3.745   1.983
 3842TIP3    H211470   6.437   3.606   2.041
 3843TIP3   OH211471   5.121   1.890   1.135
 3843TIP3    H111472   5.037   1.928   1.106
 3843TIP3    H211473   5.186   1.958   1.116
 3844TIP3   OH211474   1.938   0.810   3.077
 3844TIP3    H111475   1.917   0.718   3.061
 3844TIP3    H211476   2.023   0.823   3.035
 3845TIP3   OH211477   7.364   5.983   1.394
 3845TIP3    H111478   7.399   6.016   1.311
 3845TIP3    H211479   7.362   6.059   1.451
 3846TIP3   OH211480   7.147   5.127   2.472
 3846TIP3    H111481   7.079   5.089   2.416
 3846TIP3    H211482   7.112   5.120   2.560
 3847TIP3   OH211483   7.941   4.384   1.058
 3847TIP3    H111484   7.892   4.378   1.140
 3847TIP3    H211485   7.884   4.435   1.000
 3848TIP3   OH211486   1.568   1.340   0.962
 3848TIP3    H111487   1.590   1.279   1.032
 3848TIP3    H211488   1.571   1.427   1.003
 3849TIP3   OH211489   6.710   1.030   3.346
 3849TIP3    H111490   6.711   1.122   3.373
 3849TIP3    H211491   6.620   1.016   3.314
 3850TIP3   OH211492   7.486   3.578   4.956
 3850TIP3    H111493   7.468   3.661   4.912
 3850TIP3    H211494   7.578   3.559   4.938
 3851TIP3   OH211495   5.092   1.386   3.567
 3851TIP3    H111496   5.078   1.473   3.603
 3851TIP3    H211497   5.155   1.345   3.626
 3852TIP3   OH211498   3.421   1.648   4.216
 3852TIP3    H111499   3.449   1.652   4.125
 3852TIP3    H211500   3.393   1.558   4.229
 3853TIP3   OH211501   2.847   0.171   5.122
 3853TIP3    H111502   2.754   0.178   5.100
 3853TIP3    H211503   2.872   0.259   5.148
 3854TIP3   OH211504   1.343   6.106   5.870
 3854TIP3    H111505   1.418   6.046   5.870
 3854TIP3    H211506   1.383   6.193   5.877
 3855TIP3   OH211507   5.880   7.852   1.151
 3855TIP3    H111508   5.911   7.762   1.150
 3855TIP3    H211509   5.807   7.852   1.214
 3856TIP3   OH211510   1.899   1.459   5.066
 3856TIP3    H111511   1.917   1.365   5.059
 3856TIP3    H211512   1.976   1.501   5.029
 3857TIP3   OH211513   3.916   0.996   4.733
 3857TIP3    H111514   3.872   1.080   4.749
 3857TIP3    H211515   3.861   0.932   4.777
 3858TIP3   OH211516   7.051   6.026   3.417
 3858TIP3    H111517   7.051   6.105   3.471
 3858TIP3    H211518   7.079   5.957   3.477
 3859TIP3   OH211519   1.591   3.398   2.798
 3859TIP3    H111520   1.642   3.386   2.878
 3859TIP3    H211521   1.537   3.475   2.816
 3860TIP3   OH211522   6.795   0.939   4.527
 3860TIP3    H111523   6.860   0.946   4.597
 3860TIP3    H211524   6.724   0.997   4.553
 3861TIP3   OH211525   6.455   3.878   1.845
 3861TIP3    H111526   6.420   3.890   1.757
 3861TIP3    H211527   6.431   3.957   1.892
 3862TIP3   OH211528   0.744   5.439   0.138
 3862TIP3    H111529   0.769   5.361   0.187
 3862TIP3    H211530   0.655   5.458   0.166
 3863TIP3   OH211531   2.597   6.510   6.247
 3863TIP3    H111532   2.532   6.471   6.189
 3863TIP3    H211533   2.656   6.557   6.189
 3864TIP3   OH211534   2.259   0.603   3.948
 3864TIP3    H111535   2.305   0.562   3.875
 3864TIP3    H211536   2.223   0.531   3.999
 3865TIP3   OH211537   2.403   4.308   3.334
 3865TIP3    H111538   2.333   4.309   3.400
 3865TIP3    H211539   2.483   4.289   3.383
 3866TIP3   OH211540   6.737   7.394   0.076
 3866TIP3    H111541   6.668   7.460   0.083
 3866TIP3    H211542   6.736   7.348   0.160
 3867TIP3   OH211543   3.358   1.643   1.880
 3867TIP3    H111544   3.433   1.617   1.826
 3867TIP3    H211545   3.308   1.563   1.893
 3868TIP3   OH211546   0.032   2.256   6.628
 3868TIP3    H111547   0.089   2.236   6.554
 3868TIP3    H211548  -0.043   2.198   6.618
 3869TIP3   OH211549   7.345   3.833   6.549
 3869TIP3    H111550   7.339   3.799   6.459
 3869TIP3    H211551   7.379   3.760   6.600
 3870TIP3   OH211552   7.449   7.148   5.894
 3870TIP3    H111553   7.405   7.222   5.935
 3870TIP3    H211554   7.401   7.135   5.812
 3871TIP3   OH211555   3.125   0.612   5.081
 3871TIP3    H111556   3.177   0.556   5.139
 3871TIP3    H211557   3.052   0.556   5.055
 3872TIP3   OH211558   4.336   0.640   0.158
 3872TIP3    H111559   4.244   0.664   0.144
 3872TIP3    H211560   4.378   0.723   0.182
 3873TIP3   OH211561   7.431   2.496   6.280
 3873TIP3    H111562   7.465   2.585   6.287
 3873TIP3    H211563   7.465   2.452   6.358
 3874TIP3   OH211564   2.295   1.173   0.811
 3874TIP3    H111565   2.380   1.174   0.767
 3874TIP3    H211566   2.277   1.265   0.830
 3875TIP3   OH211567   3.498   1.398   2.174
 3875TIP3    H111568   3.472   1.324   2.230
 3875TIP3    H211569   3.486   1.365   2.085
 3876TIP3   OH211570   3.537   3.079   1.060
 3876TIP3    H111571   3.493   3.163   1.045
 3876TIP3    H211572   3.612   3.081   1.001
 3877TIP3   OH211573   4.719   3.177   3.057
 3877TIP3    H111574   4.623   3.170   3.060
 3877TIP3    H211575   4.740   3.239   3.127
 3878TIP3   OH211576   2.248   2.232   5.951
 3878TIP3    H111577   2.198   2.261   5.875
 3878TIP3    H211578   2.279   2.144   5.928
 3879TIP3   OH211579   3.830   5.114   2.823
 3879TIP3    H111580   3.743   5.150   2.811
 3879TIP3    H211581   3.816   5.031   2.869
 3880TIP3   OH211582   3.366   7.614   2.011
 3880TIP3    H111583   3.288   7.626   2.064
 3880TIP3    H211584   3.372   7.519   1.998
 3881TIP3   OH211585   8.109   3.365   1.398
 3881TIP3    H111586   8.056   3.394   1.324
 3881TIP3    H211587   8.091   3.271   1.405
 3882TIP3   OH211588   1.220   2.261   2.203
 3882TIP3    H111589   1.275   2.338   2.187
 3882TIP3    H211590   1.135   2.297   2.229
 3883TIP3   OH211591   0.834   2.235   4.277
 3883TIP3    H111592   0.757   2.214   4.225
 3883TIP3    H211593   0.907   2.194   4.231
 3884TIP3   OH211594   6.188   5.950   3.406
 3884TIP3    H111595   6.167   5.905   3.488
 3884TIP3    H211596   6.129   5.911   3.342
 3885TIP3   OH211597   3.386   0.495   4.496
 3885TIP3    H111598   3.341   0.518   4.578
 3885TIP3    H211599   3.455   0.434   4.523
 3886TIP3   OH211600   0.434   3.690   2.044
 3886TIP3    H111601   0.431   3.723   1.954
 3886TIP3    H211602   0.362   3.735   2.088
 3887TIP3   OH211603   3.623   0.265   3.194
 3887TIP3    H111604   3.583   0.332   3.250
 3887TIP3    H211605   3.714   0.259   3.224
 3888TIP3   OH211606   8.197   6.080   5.024
 3888TIP3    H111607   8.214   6.086   4.931
 3888TIP3    H211608   8.219   5.989   5.047
 3889TIP3   OH211609   2.616   4.473   6.202
 3889TIP3    H111610   2.648   4.562   6.213
 3889TIP3    H211611   2.690   4.425   6.166
 3890TIP3   OH211612   5.117   0.802   5.687
 3890TIP3    H111613   5.094   0.882   5.733
 3890TIP3    H211614   5.037   0.776   5.641
 3891TIP3   OH211615   6.463   2.500   1.195
 3891TIP3    H111616   6.525   2.427   1.203
 3891TIP3    H211617   6.494   2.550   1.120
 3892TIP3   OH211618   2.172   3.818   3.844
 3892TIP3    H111619   2.202   3.858   3.926
 3892TIP3    H211620   2.120   3.885   3.801
 3893TIP3   OH211621   5.375   2.108   0.002
 3893TIP3    H111622   5.353   2.025  -0.039
 3893TIP3    H211623   5.299   2.129   0.057
 3894TIP3   OH211624   7.282   6.135   6.377
 3894TIP3    H111625   7.359   6.100   6.420
 3894TIP3    H211626   7.316   6.176   6.297
 3895TIP3   OH211627   2.779   2.232   1.031
 3895TIP3    H111628   2.725   2.263   1.103
 3895TIP3    H211629   2.851   2.185   1.073
 3896TIP3   OH211630   3.503   7.725   5.587
 3896TIP3    H111631   3.473   7.784   5.517
 3896TIP3    H211632   3.431   7.725   5.650
 3897TIP3   OH211633   4.326   4.806   4.967
 3897TIP3    H111634   4.302   4.886   5.014
 3897TIP3    H211635   4.309   4.736   5.029
 3898TIP3   OH211636   6.916   0.902   0.691
 3898TIP3    H111637   6.982   0.858   0.636
 3898TIP3    H211638   6.897   0.983   0.644
 3899TIP3   OH211639   4.881   6.340   3.736
 3899TIP3    H111640   4.962   6.361   3.689
 3899TIP3    H211641   4.911   6.287   3.810
 3900TIP3   OH211642   0.543   6.582   0.522
 3900TIP3    H111643   0.504   6.557   0.439
 3900TIP3    H211644   0.597   6.658   0.502
 3901TIP3   OH211645   7.345   3.453   3.938
 3901TIP3    H111646   7.251   3.466   3.944
 3901TIP3    H211647   7.374   3.516   3.871
 3902TIP3   OH211648   2.492   5.438   2.702
 3902TIP3    H111649   2.466   5.353   2.737
 3902TIP3    H211650   2.490   5.497   2.777
 3903TIP3   OH211651   8.094   4.278   6.197
 3903TIP3    H111652   8.162   4.214   6.176
 3903TIP3    H211653   8.013   4.225   6.201
 3904TIP3   OH211654   8.091   6.536   6.677
 3904TIP3    H111655   8.104   6.631   6.681
 3904TIP3    H211656   8.044   6.522   6.595
 3905TIP3   OH211657   3.751   4.025   2.670
 3905TIP3    H111658   3.832   4.076   2.671
 3905TIP3    H211659   3.697   4.065   2.738
 3906TIP3   OH211660   0.022   5.232   0.439
 3906TIP3    H111661   0.025   5.304   0.502
 3906TIP3    H211662   0.102   5.182   0.456
 3907TIP3   OH211663   4.865   1.185   3.636
 3907TIP3    H111664   4.856   1.261   3.578
 3907TIP3    H211665   4.959   1.166   3.637
 3908TIP3   OH211666   3.305   7.653   4.208
 3908TIP3    H111667   3.393   7.662   4.246
 3908TIP3    H211668   3.294   7.558   4.196
 3909TIP3   OH211669   2.447   6.122   4.372
 3909TIP3    H111670   2.446   6.100   4.279
 3909TIP3    H211671   2.392   6.055   4.413
 3910TIP3   OH211672   4.923   6.397   2.449
 3910TIP3    H111673   4.934   6.483   2.408
 3910TIP3    H211674   4.993   6.343   2.412
 3911TIP3   OH211675   3.625   2.646   1.686
 3911TIP3    H111676   3.612   2.695   1.605
 3911TIP3    H211677   3.610   2.554   1.661
 3912TIP3   OH211678   4.200   5.142   3.788
 3912TIP3    H111679   4.154   5.063   3.760
 3912TIP3    H211680   4.279   5.144   3.733
 3913TIP3   OH211681   7.934   1.305   2.118
 3913TIP3    H111682   7.905   1.220   2.085
 3913TIP3    H211683   8.021   1.289   2.153
 3914TIP3   OH211684   1.097   7.335   3.607
 3914TIP3    H111685   1.183   7.343   3.566
 3914TIP3    H211686   1.067   7.426   3.615
 3915TIP3   OH211687   1.601   2.776   6.483
 3915TIP3    H111688   1.666   2.756   6.550
 3915TIP3    H211689   1.517   2.763   6.526
 3916TIP3   OH211690   3.266   2.090   1.633
 3916TIP3    H111691   3.217   2.158   1.680
 3916TIP3    H211692   3.313   2.043   1.701
 3917TIP3   OH211693   1.260   2.309   1.713
 3917TIP3    H111694   1.304   2.234   1.752
 3917TIP3    H211695   1.279   2.381   1.773
 3918TIP3   OH211696   5.833   5.415   0.477
 3918TIP3    H111697   5.750   5.420   0.430
 3918TIP3    H211698   5.837   5.325   0.510
 3919TIP3   OH211699   3.445   4.650   3.850
 3919TIP3    H111700   3.498   4.636   3.928
 3919TIP3    H211701   3.414   4.740   3.858
 3920TIP3   OH211702   5.786   1.370   0.611
 3920TIP3    H111703   5.861   1.326   0.571
 3920TIP3    H211704   5.781   1.455   0.565
 3921TIP3   OH211705   2.886   4.285   4.076
 3921TIP3    H111706   2.843   4.347   4.017
 3921TIP3    H211707   2.843   4.297   4.160
 3922TIP3   OH211708   5.522   3.456   0.558
 3922TIP3    H111709   5.571   3.471   0.478
 3922TIP3    H211710   5.480   3.371   0.546
 3923TIP3   OH211711   1.867   0.048   0.782
 3923TIP3    H111712   1.778   0.031   0.750
 3923TIP3    H211713   1.917   0.070   0.704
 3924TIP3   OH211714   4.937   6.446   2.939
 3924TIP3    H111715   4.880   6.519   2.918
 3924TIP3    H211716   4.923   6.431   3.033
 3925TIP3   OH211717   2.702   7.537   5.061
 3925TIP3    H111718   2.684   7.587   5.141
 3925TIP3    H211719   2.690   7.446   5.086
 3926TIP3   OH211720   2.219   7.385   3.542
 3926TIP3    H111721   2.124   7.394   3.541
 3926TIP3    H211722   2.236   7.308   3.487
 3927TIP3   OH211723   6.664   4.015   3.218
 3927TIP3    H111724   6.684   3.940   3.275
 3927TIP3    H211725   6.715   4.087   3.254
 3928TIP3   OH211726   0.111   7.467   1.668
 3928TIP3    H111727   0.206   7.457   1.672
 3928TIP3    H211728   0.084   7.414   1.593
 3929TIP3   OH211729   3.023   0.572   4.378
 3929TIP3    H111730   3.078   0.502   4.413
 3929TIP3    H211731   3.027   0.561   4.283
 3930TIP3   OH211732   1.930   3.215   5.175
 3930TIP3    H111733   1.933   3.214   5.271
 3930TIP3    H211734   1.836   3.213   5.155
 3931TIP3   OH211735   4.831   3.781   6.470
 3931TIP3    H111736   4.870   3.842   6.532
 3931TIP3    H211737   4.769   3.834   6.419
 3932TIP3   OH211738   7.846   7.384   6.090
 3932TIP3    H111739   7.868   7.475   6.109
 3932TIP3    H211740   7.930   7.344   6.066
 3933TIP3   OH211741   4.232   4.647   5.212
 3933TIP3    H111742   4.237   4.634   5.307
 3933TIP3    H211743   4.148   4.690   5.198
 3934TIP3   OH211744   2.472   3.618   0.560
 3934TIP3    H111745   2.492   3.689   0.499
 3934TIP3    H211746   2.377   3.621   0.570
 3935TIP3   OH211747   1.977   5.996   1.228
 3935TIP3    H111748   2.065   5.981   1.263
 3935TIP3    H211749   1.967   5.929   1.160
 3936TIP3   OH211750   1.430   5.367   0.371
 3936TIP3    H111751   1.432   5.365   0.275
 3936TIP3    H211752   1.449   5.277   0.397
 3937TIP3   OH211753   4.512   5.438   4.624
 3937TIP3    H111754   4.489   5.485   4.544
 3937TIP3    H211755   4.570   5.498   4.672
 3938TIP3   OH211756   3.417   2.854   4.687
 3938TIP3    H111757   3.501   2.851   4.733
 3938TIP3    H211758   3.351   2.849   4.756
 3939TIP3   OH211759   0.679   6.211   0.154
 3939TIP3    H111760   0.692   6.301   0.184
 3939TIP3    H211761   0.654   6.220   0.062
 3940TIP3   OH211762   2.891   4.383   3.342
 3940TIP3    H111763   2.964   4.334   3.304
 3940TIP3    H211764   2.904   4.472   3.312
 3941TIP3   OH211765   5.792   6.067   5.680
 3941TIP3    H111766   5.767   6.153   5.646
 3941TIP3    H211767   5.709   6.023   5.699
 3942TIP3   OH211768   8.271   2.948   3.752
 3942TIP3    H111769   8.197   3.006   3.731
 3942TIP3    H211770   8.264   2.934   3.847
 3943TIP3   OH211771   0.326   7.378   5.417
 3943TIP3    H111772   0.235   7.379   5.446
 3943TIP3    H211773   0.344   7.287   5.396
 3944TIP3   OH211774   3.473   6.174   2.088
 3944TIP3    H111775   3.480   6.129   2.004
 3944TIP3    H211776   3.551   6.148   2.136
 3945TIP3   OH211777   2.809   2.374   3.682
 3945TIP3    H111778   2.790   2.395   3.774
 3945TIP3    H211779   2.904   2.377   3.676
 3946TIP3   OH211780   7.858   6.618   0.275
 3946TIP3    H111781   7.762   6.626   0.268
 3946TIP3    H211782   7.878   6.535   0.232
 3947TIP3   OH211783   4.133   5.677   6.529
 3947TIP3    H111784   4.171   5.764   6.525
 3947TIP3    H211785   4.049   5.685   6.484
 3948TIP3   OH211786   6.949   3.161   4.518
 3948TIP3    H111787   6.966   3.249   4.553
 3948TIP3    H211788   7.023   3.108   4.550
 3949TIP3   OH211789   0.335   7.582   2.870
 3949TIP3    H111790   0.296   7.613   2.951
 3949TIP3    H211791   0.342   7.487   2.881
 3950TIP3   OH211792   1.642   7.421   3.874
 3950TIP3    H111793   1.555   7.382   3.888
 3950TIP3    H211794   1.698   7.378   3.938
 3951TIP3   OH211795   0.878   3.291   2.835
 3951TIP3    H111796   0.845   3.234   2.904
 3951TIP3    H211797   0.824   3.269   2.759
 3952TIP3   OH211798   1.400   5.824   3.161
 3952TIP3    H111799   1.396   5.857   3.250
 3952TIP3    H211800   1.442   5.893   3.111
 3953TIP3   OH211801   4.759   2.576   1.247
 3953TIP3    H111802   4.715   2.509   1.193
 3953TIP3    H211803   4.786   2.529   1.325
 3954TIP3   OH211804   3.233   1.822   0.938
 3954TIP3    H111805   3.193   1.861   0.861
 3954TIP3    H211806   3.169   1.836   1.008
 3955TIP3   OH211807   8.059   5.096   5.133
 3955TIP3    H111808   7.988   5.032   5.142
 3955TIP3    H211809   8.047   5.156   5.206
 3956TIP3   OH211810   2.813   2.798   6.323
 3956TIP3    H111811   2.894   2.753   6.349
 3956TIP3    H211812   2.760   2.801   6.403
 3957TIP3   OH211813   4.638   3.946   1.906
 3957TIP3    H111814   4.722   3.966   1.866
 3957TIP3    H211815   4.656   3.877   1.969
 3958TIP3   OH211816   4.590   2.251   5.034
 3958TIP3    H111817   4.557   2.186   4.972
 3958TIP3    H211818   4.584   2.334   4.986
 3959TIP3   OH211819   3.817   5.656   5.188
 3959TIP3    H111820   3.735   5.700   5.165
 3959TIP3    H211821   3.816   5.575   5.137
 3960TIP3   OH211822   6.792   3.613   6.032
 3960TIP3    H111823   6.772   3.614   5.939
 3960TIP3    H211824   6.805   3.705   6.055
 3961TIP3   OH211825   3.796   2.988   6.625
 3961TIP3    H111826   3.834   3.072   6.651
 3961TIP3    H211827   3.771   2.947   6.707
 3962TIP3   OH211828   2.497   0.974   1.963
 3962TIP3    H111829   2.436   0.989   1.890
 3962TIP3    H211830   2.502   0.879   1.970
 3963TIP3   OH211831   7.559   1.930   5.253
 3963TIP3    H111832   7.523   1.897   5.336
 3963TIP3    H211833   7.647   1.960   5.276
 3964TIP3   OH211834   2.793   3.157   0.012
 3964TIP3    H111835   2.781   3.240  -0.035
 3964TIP3    H211836   2.785   3.180   0.104
 3965TIP3   OH211837   2.117   3.946   1.961
 3965TIP3    H111838   2.118   4.009   2.034
 3965TIP3    H211839   2.077   3.867   1.998
 3966TIP3   OH211840   4.178   6.759   1.410
 3966TIP3    H111841   4.231   6.824   1.456
 3966TIP3    H211842   4.227   6.677   1.420
 3967TIP3   OH211843   7.593   5.772   2.351
 3967TIP3    H111844   7.567   5.783   2.442
 3967TIP3    H211845   7.510   5.759   2.304
 3968TIP3   OH211846   3.896   0.635   6.296
 3968TIP3    H111847   3.813   0.589   6.283
 3968TIP3    H211848   3.958   0.565   6.319
 3969TIP3   OH211849   1.955   3.062   4.107
 3969TIP3    H111850   2.011   3.132   4.142
 3969TIP3    H211851   1.902   3.034   4.181
 3970TIP3   OH211852   4.559   2.626   5.168
 3970TIP3    H111853   4.652   2.635   5.187
 3970TIP3    H211854   4.528   2.562   5.233
 3971TIP3   OH211855   5.315   5.950   2.402
 3971TIP3    H111856   5.353   6.019   2.456
 3971TIP3    H211857   5.325   5.981   2.312
 3972TIP3   OH211858   7.815   2.065   3.185
 3972TIP3    H111859   7.798   2.056   3.091
 3972TIP3    H211860   7.761   1.998   3.226
 3973TIP3   OH211861   0.370   3.084   1.563
 3973TIP3    H111862   0.434   3.140   1.608
 3973TIP3    H211863   0.416   3.052   1.486
 3974TIP3   OH211864   2.891   7.279   1.914
 3974TIP3    H111865   2.844   7.285   1.831
 3974TIP3    H211866   2.861   7.197   1.953
 3975TIP3   OH211867   4.729   2.527   4.866
 3975TIP3    H111868   4.770   2.583   4.932
 3975TIP3    H211869   4.797   2.514   4.801
 3976TIP3   OH211870   3.793   1.338   6.322
 3976TIP3    H111871   3.865   1.380   6.369
 3976TIP3    H211872   3.717   1.349   6.380
 3977TIP3   OH211873   7.852   5.321   0.765
 3977TIP3    H111874   7.875   5.383   0.696
 3977TIP3    H211875   7.799   5.372   0.826
 3978TIP3   OH211876   7.778   5.071   5.500
 3978TIP3    H111877   7.833   5.130   5.552
 3978TIP3    H211878   7.829   4.991   5.492
 3979TIP3   OH211879   5.441   6.039   0.514
 3979TIP3    H111880   5.474   6.125   0.487
 3979TIP3    H211881   5.432   5.990   0.433
 3980TIP3   OH211882   3.373   0.155   5.225
 3980TIP3    H111883   3.440   0.199   5.172
 3980TIP3    H211884   3.336   0.089   5.166
 3981TIP3   OH211885   3.251   7.778   3.272
 3981TIP3    H111886   3.283   7.717   3.206
 3981TIP3    H211887   3.258   7.865   3.231
 3982TIP3   OH211888   1.640   0.062   3.931
 3982TIP3    H111889   1.634   0.138   3.989
 3982TIP3    H211890   1.714   0.081   3.874
 3983TIP3   OH211891   1.837   3.612   2.275
 3983TIP3    H111892   1.877   3.535   2.317
 3983TIP3    H211893   1.776   3.575   2.211
 3984TIP3   OH211894   0.141   1.452   5.292
 3984TIP3    H111895   0.120   1.358   5.288
 3984TIP3    H211896   0.063   1.492   5.329
 3985TIP3   OH211897   2.568   4.180   5.849
 3985TIP3    H111898   2.507   4.112   5.821
 3985TIP3    H211899   2.511   4.251   5.879
 3986TIP3   OH211900   3.424   2.363   0.839
 3986TIP3    H111901   3.377   2.422   0.897
 3986TIP3    H211902   3.404   2.394   0.751
 3987TIP3   OH211903   1.683   2.143   4.722
 3987TIP3    H111904   1.610   2.083   4.710
 3987TIP3    H211905   1.650   2.227   4.691
 3988TIP3   OH211906   4.060   4.593   2.625
 3988TIP3    H111907   4.052   4.678   2.669
 3988TIP3    H211908   4.067   4.616   2.532
 3989TIP3   OH211909   1.953   4.129   4.500
 3989TIP3    H111910   1.900   4.203   4.530
 3989TIP3    H211911   2.043   4.152   4.524
 3990TIP3   OH211912   3.448   5.985   0.258
 3990TIP3    H111913   3.450   6.067   0.308
 3990TIP3    H211914   3.355   5.963   0.255
 3991TIP3   OH211915   1.012   6.625   1.685
 3991TIP3    H111916   1.056   6.577   1.614
 3991TIP3    H211917   0.929   6.653   1.646
 3992TIP3   OH211918   3.104   0.109   5.025
 3992TIP3    H111919   3.041   0.044   5.055
 3992TIP3    H211920   3.058   0.193   5.033
 3993TIP3   OH211921   2.554   6.639   2.741
 3993TIP3    H111922   2.475   6.692   2.737
 3993TIP3    H211923   2.536   6.565   2.684
 3994TIP3   OH211924   7.523   2.459   5.981
 3994TIP3    H111925   7.484   2.533   5.935
 3994TIP3    H211926   7.532   2.489   6.071
 3995TIP3   OH211927   3.682   0.417   6.711
 3995TIP3    H111928   3.725   0.351   6.766
 3995TIP3    H211929   3.753   0.475   6.683
 3996TIP3   OH211930   5.425   3.911   0.891
 3996TIP3    H111931   5.518   3.891   0.896
 3996TIP3    H211932   5.421   4.005   0.876
 3997TIP3   OH211933   4.869   5.189   5.402
 3997TIP3    H111934   4.954   5.230   5.389
 3997TIP3    H211935   4.809   5.239   5.347
 3998TIP3   OH211936   4.577   4.861   6.275
 3998TIP3    H111937   4.668   4.870   6.247
 3998TIP3    H211938   4.536   4.808   6.206
 3999TIP3   OH211939   3.098   3.574   2.076
 3999TIP3    H111940   3.140   3.501   2.122
 3999TIP3    H211941   3.026   3.533   2.028
 4000TIP3   OH211942   7.279   0.438   2.726
 4000TIP3    H111943   7.228   0.357   2.738
 4000TIP3    H211944   7.263   0.462   2.635
 4001TIP3   OH211945   6.761   0.169   6.158
 4001TIP3    H111946   6.814   0.242   6.188
 4001TIP3    H211947   6.804   0.138   6.079
 4002TIP3   OH211948   7.815   4.435   3.921
 4002TIP3    H111949   7.767   4.515   3.901
 4002TIP3    H211950   7.748   4.369   3.935
 4003TIP3   OH211951   7.627   0.223   5.691
 4003TIP3    H111952   7.720   0.245   5.699
 4003TIP3    H211953   7.621   0.134   5.725
 4004TIP3   OH211954   1.280   4.321   5.109
 4004TIP3    H111955   1.310   4.374   5.184
 4004TIP3    H211956   1.346   4.335   5.042
 4005TIP3   OH211957   6.655   0.772   1.812
 4005TIP3    H111958   6.633   0.822   1.733
 4005TIP3    H211959   6.742   0.802   1.837
 4006TIP3   OH211960   0.424   2.795   0.559
 4006TIP3    H111961   0.391   2.839   0.638
 4006TIP3    H211962   0.511   2.834   0.545
 4007TIP3   OH211963   5.211   2.844   1.460
 4007TIP3    H111964   5.186   2.753   1.477
 4007TIP3    H211965   5.305   2.841   1.442
 4008TIP3   OH211966   1.079   3.492   2.089
 4008TIP3    H111967   1.089   3.455   2.001
 4008TIP3    H211968   1.051   3.419   2.143
 4009TIP3   OH211969   4.356   7.293   2.449
 4009TIP3    H111970   4.308   7.354   2.394
 4009TIP3    H211971   4.390   7.227   2.389
 4010TIP3   OH211972   7.268   3.601   2.555
 4010TIP3    H111973   7.309   3.637   2.634
 4010TIP3    H211974   7.220   3.524   2.587
 4011TIP3   OH211975   5.715   2.297   3.324
 4011TIP3    H111976   5.662   2.342   3.389
 4011TIP3    H211977   5.667   2.307   3.242
 4012TIP3   OH211978   0.316   0.626   6.564
 4012TIP3    H111979   0.264   0.593   6.638
 4012TIP3    H211980   0.407   0.616   6.592
 4013TIP3   OH211981   3.011   0.177   1.054
 4013TIP3    H111982   3.096   0.204   1.020
 4013TIP3    H211983   2.975   0.255   1.095
 4014TIP3   OH211984   0.934   2.154   4.527
 4014TIP3    H111985   0.909   2.142   4.435
 4014TIP3    H211986   1.007   2.217   4.523
 4015TIP3   OH211987   0.175   3.199   5.646
 4015TIP3    H111988   0.198   3.194   5.739
 4015TIP3    H211989   0.257   3.185   5.599
 4016TIP3   OH211990   5.310   1.436   4.090
 4016TIP3    H111991   5.266   1.354   4.067
 4016TIP3    H211992   5.333   1.475   4.005
 4017TIP3   OH211993   4.266   2.951   5.481
 4017TIP3    H111994   4.337   2.936   5.418
 4017TIP3    H211995   4.280   2.885   5.549
 4018TIP3   OH211996   0.672   1.922   4.257
 4018TIP3    H111997   0.588   1.892   4.222
 4018TIP3    H211998   0.672   2.017   4.243
 4019TIP3   OH211999   1.332   4.383   1.118
 4019TIP3    H112000   1.302   4.455   1.063
 4019TIP3    H212001   1.346   4.423   1.204
 4020TIP3   OH212002   2.201   0.117   3.716
 4020TIP3    H112003   2.126   0.064   3.689
 4020TIP3    H212004   2.276   0.058   3.710
 4021TIP3   OH212005   6.799   4.793   4.242
 4021TIP3    H112006   6.828   4.711   4.279
 4021TIP3    H212007   6.841   4.861   4.295
 4022TIP3   OH212008   1.111   4.542   6.005
 4022TIP3    H112009   1.207   4.540   5.997
 4022TIP3    H212010   1.095   4.599   6.081
 4023TIP3   OH212011   5.435   7.718   5.318
 4023TIP3    H112012   5.422   7.678   5.404
 4023TIP3    H212013   5.525   7.750   5.319
 4024TIP3   OH212014   8.077   6.278   0.412
 4024TIP3    H112015   8.099   6.278   0.319
 4024TIP3    H212016   8.125   6.353   0.448
 4025TIP3   OH212017   5.603   3.751   4.387
 4025TIP3    H112018   5.595   3.839   4.350
 4025TIP3    H212019   5.574   3.692   4.317
 4026TIP3   OH212020   7.564   5.057   1.840
 4026TIP3    H112021   7.565   4.968   1.874
 4026TIP3    H212022   7.649   5.093   1.863
 4027TIP3   OH212023   4.861   2.244   2.881
 4027TIP3    H112024   4.860   2.152   2.856
 4027TIP3    H212025   4.869   2.243   2.976
 4028TIP3   OH212026   4.565   6.237   5.213
 4028TIP3    H112027   4.660   6.241   5.224
 4028TIP3    H212028   4.534   6.323   5.242
 4029TIP3   OH212029   1.574   0.276   3.508
 4029TIP3    H112030   1.620   0.360   3.512
 4029TIP3    H212031   1.481   0.300   3.501
 4030TIP3   OH212032   2.400   5.772   2.880
 4030TIP3    H112033   2.452   5.806   2.952
 4030TIP3    H212034   2.365   5.689   2.913
 4031TIP3   OH212035   5.471   2.819   1.452
 4031TIP3    H112036   5.529   2.884   1.411
 4031TIP3    H212037   5.530   2.750   1.481
 4032TIP3   OH212038   3.892   2.732   2.180
 4032TIP3    H112039   3.830   2.804   2.166
 4032TIP3    H212040   3.849   2.656   2.141
 4033TIP3   OH212041   6.713   0.510   2.378
 4033TIP3    H112042   6.799   0.552   2.368
 4033TIP3    H212043   6.657   0.554   2.315
 4034TIP3   OH212044   1.294   0.255   2.877
 4034TIP3    H112045   1.242   0.211   2.810
 4034TIP3    H212046   1.237   0.326   2.909
 4035TIP3   OH212047   3.345   4.498   3.237
 4035TIP3    H112048   3.311   4.576   3.280
 4035TIP3    H212049   3.282   4.479   3.168
 4036TIP3   OH212050   7.881   1.575   2.544
 4036TIP3    H112051   7.800   1.615   2.511
 4036TIP3    H212052   7.951   1.620   2.497
 4037TIP3   OH212053   0.260   1.460   2.086
 4037TIP3    H112054   0.199   1.520   2.127
 4037TIP3    H212055   0.347   1.491   2.113
 4038TIP3   OH212056   4.204   4.492   1.518
 4038TIP3    H112057   4.125   4.437   1.515
 4038TIP3    H212058   4.260   4.450   1.582
 4039TIP3   OH212059   4.523   6.716   1.409
 4039TIP3    H112060   4.608   6.683   1.380
 4039TIP3    H212061   4.531   6.811   1.405
 4040TIP3   OH212062   4.638   6.537   4.229
 4040TIP3    H112063   4.642   6.617   4.282
 4040TIP3    H212064   4.583   6.561   4.155
 4041TIP3   OH212065   2.916   5.437   1.190
 4041TIP3    H112066   2.893   5.521   1.151
 4041TIP3    H212067   2.957   5.461   1.273
 4042TIP3   OH212068   0.664   4.115   0.793
 4042TIP3    H112069   0.648   4.146   0.882
 4042TIP3    H212070   0.727   4.044   0.803
 4043TIP3   OH212071   1.246   5.807   4.885
 4043TIP3    H112072   1.240   5.837   4.794
 4043TIP3    H212073   1.290   5.879   4.931
 4044TIP3   OH212074   6.837   6.854   4.572
 4044TIP3    H112075   6.836   6.758   4.572
 4044TIP3    H212076   6.757   6.879   4.525
 4045TIP3   OH212077   7.985   2.191   4.819
 4045TIP3    H112078   7.985   2.161   4.910
 4045TIP3    H212079   7.941   2.276   4.822
 4046TIP3   OH212080   2.402   5.364   0.436
 4046TIP3    H112081   2.391   5.428   0.506
 4046TIP3    H212082   2.317   5.362   0.391
 4047TIP3   OH212083   3.274   0.769   4.418
 4047TIP3    H112084   3.182   0.742   4.424
 4047TIP3    H212085   3.321   0.703   4.469
 4048TIP3   OH212086   5.882   6.417   0.412
 4048TIP3    H112087   5.964   6.441   0.456
 4048TIP3    H212088   5.894   6.326   0.385
 4049TIP3   OH212089   0.390   6.790   4.446
 4049TIP3    H112090   0.485   6.792   4.458
 4049TIP3    H212091   0.374   6.712   4.393
 4050TIP3   OH212092   4.003   7.836   1.435
 4050TIP3    H112093   3.985   7.774   1.365
 4050TIP3    H212094   3.988   7.922   1.396
 4051TIP3   OH212095   3.999   0.903   0.770
 4051TIP3    H112096   3.960   0.959   0.703
 4051TIP3    H212097   3.975   0.814   0.743
 4052TIP3   OH212098   7.490   7.557   1.384
 4052TIP3    H112099   7.397   7.583   1.388
 4052TIP3    H212100   7.530   7.621   1.324
 4053TIP3   OH212101   6.112   7.716   6.479
 4053TIP3    H112102   6.022   7.715   6.446
 4053TIP3    H212103   6.104   7.744   6.570
 4054TIP3   OH212104   6.400   7.567   3.939
 4054TIP3    H112105   6.343   7.531   3.870
 4054TIP3    H212106   6.407   7.660   3.919
 4055TIP3   OH212107   8.065   2.280   2.146
 4055TIP3    H112108   8.111   2.217   2.089
 4055TIP3    H212109   8.119   2.285   2.224
 4056TIP3   OH212110   5.314   0.208   1.484
 4056TIP3    H112111   5.394   0.155   1.486
 4056TIP3    H212112   5.335   0.284   1.539
 4057TIP3   OH212113   6.298   5.149   2.231
 4057TIP3    H112114   6.207   5.140   2.201
 4057TIP3    H212115   6.336   5.215   2.174
 4058TIP3   OH212116   6.416   6.728   5.554
 4058TIP3    H112117   6.475   6.788   5.601
 4058TIP3    H212118   6.472   6.689   5.487
 4059TIP3   OH212119   8.230   3.033   5.598
 4059TIP3    H112120   8.306   3.085   5.624
 4059TIP3    H212121   8.156   3.075   5.642
 4060TIP3   OH212122   1.534   3.232   4.881
 4060TIP3    H112123   1.590   3.192   4.947
 4060TIP3    H212124   1.453   3.182   4.884
 4061TIP3   OH212125   1.360   3.237   3.975
 4061TIP3    H112126   1.380   3.228   3.882
 4061TIP3    H212127   1.347   3.331   3.988
 4062TIP3   OH212128   4.211   0.996   3.348
 4062TIP3    H112129   4.174   1.038   3.270
 4062TIP3    H212130   4.187   0.904   3.339
 4063TIP3   OH212131   2.178   6.078   0.142
 4063TIP3    H112132   2.139   6.022   0.075
 4063TIP3    H212133   2.272   6.058   0.140
 4064TIP3   OH212134   5.120   0.539   3.691
 4064TIP3    H112135   5.042   0.594   3.706
 4064TIP3    H212136   5.155   0.569   3.607
 4065TIP3   OH212137   2.352   0.064   5.072
 4065TIP3    H112138   2.326  -0.028   5.084
 4065TIP3    H212139   2.347   0.077   4.977
 4066TIP3   OH212140   0.674   1.032   3.133
 4066TIP3    H112141   0.733   1.100   3.166
 4066TIP3    H212142   0.609   1.020   3.202
 4067TIP3   OH212143   3.650   0.397   5.549
 4067TIP3    H112144   3.734   0.355   5.532
 4067TIP3    H212145   3.596   0.328   5.588
 4068TIP3   OH212146   1.303   6.060   0.669
 4068TIP3    H112147   1.341   6.016   0.744
 4068TIP3    H212148   1.235   6.001   0.638
 4069TIP3   OH212149   1.499   3.763   4.704
 4069TIP3    H112150   1.504   3.738   4.612
 4069TIP3    H212151   1.491   3.680   4.751
 4070TIP3   OH212152   0.574   1.674   0.934
 4070TIP3    H112153   0.649   1.629   0.895
 4070TIP3    H212154   0.582   1.764   0.903
 4071TIP3   OH212155   6.261   0.901   2.949
 4071TIP3    H112156   6.299   0.870   2.867
 4071TIP3    H212157   6.178   0.855   2.957
 4072TIP3   OH212158   7.590  -0.069   3.191
 4072TIP3    H112159   7.612   0.011   3.143
 4072TIP3    H212160   7.540  -0.038   3.267
 4073TIP3   OH212161   0.180   6.315   3.106
 4073TIP3    H112162   0.166   6.221   3.099
 4073TIP3    H212163   0.138   6.352   3.028
 4074TIP3   OH212164   5.513   5.495   2.636
 4074TIP3    H112165   5.574   5.449   2.578
 4074TIP3    H212166   5.466   5.556   2.580
 4075TIP3   OH212167   1.814   4.984   3.190
 4075TIP3    H112168   1.738   4.975   3.248
 4075TIP3    H212169   1.867   4.906   3.208
 4076TIP3   OH212170   7.320   4.648   6.351
 4076TIP3    H112171   7.226   4.631   6.362
 4076TIP3    H212172   7.341   4.709   6.422
 4077TIP3   OH212173   7.059   1.738   2.388
 4077TIP3    H112174   6.975   1.710   2.422
 4077TIP3    H212175   7.076   1.679   2.314
 4078TIP3   OH212176   4.417   0.420   0.001
 4078TIP3    H112177   4.403   0.491   0.063
 4078TIP3    H212178   4.464   0.461  -0.072
 4079TIP3   OH212179   2.195   2.582   1.635
 4079TIP3    H112180   2.275   2.540   1.668
 4079TIP3    H212181   2.124   2.529   1.669
 4080TIP3   OH212182   8.190   2.425   1.899
 4080TIP3    H112183   8.208   2.516   1.874
 4080TIP3    H212184   8.233   2.416   1.985
 4081TIP3   OH212185   3.106   5.113   3.116
 4081TIP3    H112186   3.182   5.140   3.169
 4081TIP3    H212187   3.138   5.041   3.062
 4082TIP3   OH212188   5.262   5.285   6.710
 4082TIP3    H112189   5.273   5.190   6.709
 4082TIP3    H212190   5.310   5.316   6.632
 4083TIP3   OH212191   0.725   5.390   5.478
 4083TIP3    H112192   0.666   5.439   5.536
 4083TIP3    H212193   0.670   5.363   5.405
 4084TIP3   OH212194   4.774   5.102   0.321
 4084TIP3    H112195   4.852   5.140   0.361
 4084TIP3    H212196   4.806   5.024   0.277
 4085TIP3   OH212197   3.912   5.914   4.898
 4085TIP3    H112198   3.910   5.896   4.992
 4085TIP3    H212199   3.855   5.848   4.860
 4086TIP3   OH212200   3.090   4.137   2.419
 4086TIP3    H112201   3.122   4.047   2.416
 4086TIP3    H212202   3.130   4.174   2.498
 4087TIP3   OH212203   0.154   6.737   5.402
 4087TIP3    H112204   0.075   6.702   5.443
 4087TIP3    H212205   0.221   6.732   5.470
 4088TIP3   OH212206   4.849   5.351   4.261
 4088TIP3    H112207   4.785   5.300   4.210
 4088TIP3    H212208   4.820   5.342   4.352
 4089TIP3   OH212209   4.855   2.877   4.422
 4089TIP3    H112210   4.796   2.827   4.365
 4089TIP3    H212211   4.855   2.965   4.386
 4090TIP3   OH212212   6.086   0.432   6.506
 4090TIP3    H112213   6.015   0.368   6.496
 4090TIP3    H212214   6.097   0.470   6.419
 4091TIP3   OH212215   5.754   7.066   5.419
 4091TIP3    H112216   5.714   7.105   5.341
 4091TIP3    H212217   5.847   7.062   5.399
 4092TIP3   OH212218   0.604   4.858   3.172
 4092TIP3    H112219   0.673   4.795   3.152
 4092TIP3    H212220   0.603   4.863   3.268
 4093TIP3   OH212221   4.525   7.435   2.176
 4093TIP3    H112222   4.489   7.500   2.116
 4093TIP3    H212223   4.600   7.478   2.217
 4094TIP3   OH212224   2.451   1.867   5.472
 4094TIP3    H112225   2.469   1.874   5.566
 4094TIP3    H212226   2.381   1.931   5.457
 4095TIP3   OH212227   6.310   6.945   6.039
 4095TIP3    H112228   6.405   6.943   6.045
 4095TIP3    H212229   6.280   6.925   6.128
 4096TIP3   OH212230   6.268   0.189   2.576
 4096TIP3    H112231   6.308   0.123   2.519
 4096TIP3    H212232   6.280   0.272   2.529
 4097TIP3   OH212233   7.984   0.562   3.961
 4097TIP3    H112234   7.957   0.654   3.961
 4097TIP3    H212235   7.952   0.528   3.878
 4098TIP3   OH212236   6.091   1.513   4.497
 4098TIP3    H112237   6.126   1.572   4.430
 4098TIP3    H212238   6.060   1.437   4.448
 4099TIP3   OH212239   5.033   7.158   1.988
 4099TIP3    H112240   4.943   7.173   1.958
 4099TIP3    H212241   5.029   7.074   2.034
 4100TIP3   OH212242   5.962   7.219   0.693
 4100TIP3    H112243   6.022   7.281   0.736
 4100TIP3    H212244   5.984   7.134   0.731
 4101TIP3   OH212245   4.218   4.179   0.142
 4101TIP3    H112246   4.266   4.123   0.081
 4101TIP3    H212247   4.225   4.134   0.226
 4102TIP3   OH212248   1.667   6.821   4.517
 4102TIP3    H112249   1.594   6.767   4.547
 4102TIP3    H212250   1.745   6.769   4.536
 4103TIP3   OH212251   1.457   0.574   5.213
 4103TIP3    H112252   1.527   0.509   5.209
 4103TIP3    H212253   1.479   0.630   5.287
 4104TIP3   OH212254   3.822   3.669   4.867
 4104TIP3    H112255   3.768   3.625   4.801
 4104TIP3    H212256   3.858   3.745   4.821
 4105TIP3   OH212257   7.370   6.707   1.579
 4105TIP3    H112258   7.363   6.642   1.650
 4105TIP3    H212259   7.444   6.762   1.604
 4106TIP3   OH212260   7.525   4.847   4.374
 4106TIP3    H112261   7.541   4.775   4.435
 4106TIP3    H212262   7.609   4.894   4.370
 4107TIP3   OH212263   2.809   0.541   5.749
 4107TIP3    H112264   2.782   0.466   5.695
 4107TIP3    H212265   2.769   0.524   5.834
 4108TIP3   OH212266   7.026   2.680   5.108
 4108TIP3    H112267   6.953   2.663   5.049
 4108TIP3    H212268   6.989   2.735   5.177
 4109TIP3   OH212269   8.166   4.776   3.814
 4109TIP3    H112270   8.188   4.859   3.856
 4109TIP3    H212271   8.070   4.773   3.815
 4110TIP3   OH212272   6.504   4.375   3.155
 4110TIP3    H112273   6.455   4.307   3.109
 4110TIP3    H212274   6.457   4.387   3.238
 4111TIP3   OH212275   4.037   7.287   1.062
 4111TIP3    H112276   4.017   7.230   0.988
 4111TIP3    H212277   4.125   7.319   1.045
 4112TIP3   OH212278   4.625   4.681   4.052
 4112TIP3    H112279   4.574   4.701   4.131
 4112TIP3    H212280   4.573   4.614   4.006
 4113TIP3   OH212281   3.844   5.347   0.465
 4113TIP3    H112282   3.776   5.285   0.438
 4113TIP3    H212283   3.896   5.362   0.386
 4114TIP3   OH212284   1.665   5.187   2.711
 4114TIP3    H112285   1.687   5.100   2.678
 4114TIP3    H212286   1.701   5.188   2.800
 4115TIP3   OH212287   4.449   6.266   5.789
 4115TIP3    H112288   4.451   6.186   5.843
 4115TIP3    H212289   4.368   6.259   5.739
 4116TIP3   OH212290   4.532   4.193   3.311
 4116TIP3    H112291   4.575   4.277   3.293
 4116TIP3    H212292   4.492   4.206   3.397
 4117TIP3   OH212293   5.356   4.769   0.004
 4117TIP3    H112294   5.392   4.706  -0.059
 4117TIP3    H212295   5.392   4.741   0.089
 4118TIP3   OH212296   7.020   2.900   4.842
 4118TIP3    H112297   6.972   2.838   4.897
 4118TIP3    H212298   6.979   2.985   4.861
 4119TIP3   OH212299   1.699   7.684   6.469
 4119TIP3    H112300   1.626   7.623   6.471
 4119TIP3    H212301   1.715   7.707   6.561
 4120TIP3   OH212302   1.972   4.437   3.213
 4120TIP3    H112303   2.009   4.405   3.295
 4120TIP3    H212304   2.003   4.376   3.147
 4121TIP3   OH212305   5.326   5.466   2.012
 4121TIP3    H112306   5.239   5.437   1.985
 4121TIP3    H212307   5.341   5.546   1.963
 4122TIP3   OH212308  -0.009   6.306   4.321
 4122TIP3    H112309   0.073   6.301   4.370
 4122TIP3    H212310  -0.038   6.396   4.331
 4123TIP3   OH212311   5.580   7.280   4.153
 4123TIP3    H112312   5.632   7.213   4.196
 4123TIP3    H212313   5.529   7.233   4.087
 4124TIP3   OH212314   0.555   5.241   3.916
 4124TIP3    H112315   0.580   5.322   3.959
 4124TIP3    H212316   0.626   5.180   3.937
 4125TIP3   OH212317   6.816   7.654   1.825
 4125TIP3    H112318   6.783   7.646   1.735
 4125TIP3    H212319   6.771   7.732   1.859
 4126TIP3   OH212320   7.509   3.636   1.889
 4126TIP3    H112321   7.489   3.685   1.969
 4126TIP3    H212322   7.603   3.647   1.877
 4127TIP3   OH212323   0.632   6.819   0.399
 4127TIP3    H112324   0.587   6.888   0.351
 4127TIP3    H212325   0.699   6.787   0.339
 4128TIP3   OH212326   3.346   1.043   1.876
 4128TIP3    H112327   3.255   1.022   1.854
 4128TIP3    H212328   3.340   1.103   1.951
 4129TIP3   OH212329   5.156   4.999   6.541
 4129TIP3    H112330   5.212   4.980   6.616
 4129TIP3    H212331   5.068   5.003   6.579
 4130TIP3   OH212332   2.752   2.067   5.413
 4130TIP3    H112333   2.729   2.096   5.501
 4130TIP3    H212334   2.847   2.068   5.412
 4131TIP3   OH212335   3.723   2.751   0.988
 4131TIP3    H112336   3.707   2.768   0.895
 4131TIP3    H212337   3.769   2.829   1.020
 4132TIP3   OH212338   6.746   0.783   2.874
 4132TIP3    H112339   6.659   0.748   2.892
 4132TIP3    H212340   6.804   0.736   2.934
 4133TIP3   OH212341   5.257   6.348   1.135
 4133TIP3    H112342   5.172   6.388   1.112
 4133TIP3    H212343   5.303   6.340   1.051
 4134TIP3   OH212344   2.282   4.376   5.169
 4134TIP3    H112345   2.301   4.306   5.231
 4134TIP3    H212346   2.199   4.351   5.129
 4135TIP3   OH212347   2.811   1.107   0.838
 4135TIP3    H112348   2.764   1.188   0.858
 4135TIP3    H212349   2.902   1.135   0.828
 4136TIP3   OH212350   2.664   7.212   4.541
 4136TIP3    H112351   2.755   7.207   4.509
 4136TIP3    H212352   2.640   7.304   4.530
 4137TIP3   OH212353   3.549   1.981   3.128
 4137TIP3    H112354   3.607   2.053   3.102
 4137TIP3    H212355   3.605   1.904   3.126
 4138TIP3   OH212356   6.883   7.192   3.621
 4138TIP3    H112357   6.847   7.185   3.709
 4138TIP3    H212358   6.965   7.142   3.624
 4139TIP3   OH212359   3.682   0.354   2.851
 4139TIP3    H112360   3.683   0.262   2.877
 4139TIP3    H212361   3.600   0.388   2.886
 4140TIP3   OH212362   0.958   4.884   2.188
 4140TIP3    H112363   1.000   4.896   2.273
 4140TIP3    H212364   0.952   4.789   2.178
 4141TIP3   OH212365   6.348   5.753   5.928
 4141TIP3    H112366   6.371   5.688   5.862
 4141TIP3    H212367   6.283   5.809   5.884
 4142TIP3   OH212368   5.665   6.568   0.539
 4142TIP3    H112369   5.610   6.615   0.476
 4142TIP3    H212370   5.708   6.500   0.486
 4143TIP3   OH212371   4.443   1.929   2.390
 4143TIP3    H112372   4.357   1.889   2.376
 4143TIP3    H212373   4.466   1.906   2.480
 4144TIP3   OH212374   1.145   4.761   4.676
 4144TIP3    H112375   1.088   4.816   4.729
 4144TIP3    H212376   1.123   4.671   4.702
 4145TIP3   OH212377   0.143   1.868   0.349
 4145TIP3    H112378   0.142   1.772   0.348
 4145TIP3    H212379   0.061   1.893   0.392
 4146TIP3   OH212380   2.324   3.825   0.920
 4146TIP3    H112381   2.372   3.884   0.978
 4146TIP3    H212382   2.281   3.884   0.857
 4147TIP3   OH212383   6.130   4.325   1.959
 4147TIP3    H112384   6.207   4.272   1.936
 4147TIP3    H212385   6.104   4.367   1.878
 4148TIP3   OH212386   4.137   3.525   6.319
 4148TIP3    H112387   4.202   3.474   6.271
 4148TIP3    H212388   4.119   3.473   6.397
 4149TIP3   OH212389   7.100   3.282   1.501
 4149TIP3    H112390   7.126   3.252   1.588
 4149TIP3    H212391   7.175   3.260   1.445
 4150TIP3   OH212392   8.040   7.271   6.365
 4150TIP3    H112393   8.091   7.332   6.418
 4150TIP3    H212394   8.099   7.197   6.350
 4151TIP3   OH212395   6.821   6.068   6.152
 4151TIP3    H112396   6.915   6.069   6.168
 4151TIP3    H212397   6.784   6.026   6.229
 4152TIP3   OH212398   3.813   1.247   4.785
 4152TIP3    H112399   3.747   1.311   4.811
 4152TIP3    H212400   3.896   1.285   4.813
 4153TIP3   OH212401   5.257   4.809   3.177
 4153TIP3    H112402   5.288   4.824   3.087
 4153TIP3    H212403   5.255   4.714   3.186
 4154TIP3   OH212404   3.583   4.052   1.139
 4154TIP3    H112405   3.533   3.990   1.085
 4154TIP3    H212406   3.567   4.137   1.098
 4155TIP3   OH212407   8.136   2.130   0.007
 4155TIP3    H112408   8.141   2.088  -0.078
 4155TIP3    H212409   8.226   2.132   0.039
 4156TIP3   OH212410   6.810   0.768   4.848
 4156TIP3    H112411   6.824   0.860   4.828
 4156TIP3    H212412   6.716   0.762   4.869
 4157TIP3   OH212413   2.990   1.216   0.266
 4157TIP3    H112414   2.937   1.146   0.305
 4157TIP3    H212415   2.992   1.195   0.173
 4158TIP3   OH212416   3.306   0.724   6.098
 4158TIP3    H112417   3.358   0.791   6.141
 4158TIP3    H212418   3.280   0.665   6.169
 4159TIP3   OH212419   3.159   1.650   2.908
 4159TIP3    H112420   3.182   1.657   2.816
 4159TIP3    H212421   3.140   1.740   2.935
 4160TIP3   OH212422   0.341   5.095   5.485
 4160TIP3    H112423   0.387   5.017   5.515
 4160TIP3    H212424   0.372   5.108   5.395
 4161TIP3   OH212425   3.967   4.237   0.976
 4161TIP3    H112426   3.943   4.146   0.989
 4161TIP3    H212427   3.893   4.287   1.011
 4162TIP3   OH212428   7.891   2.433   4.768
 4162TIP3    H112429   7.877   2.484   4.688
 4162TIP3    H212430   7.858   2.489   4.838
 4163TIP3   OH212431   1.663   5.911   4.758
 4163TIP3    H112432   1.630   5.849   4.823
 4163TIP3    H212433   1.670   5.994   4.805
 4164TIP3   OH212434   6.178   5.252   3.374
 4164TIP3    H112435   6.136   5.173   3.339
 4164TIP3    H212436   6.195   5.305   3.296
 4165TIP3   OH212437   4.967   6.343   6.275
 4165TIP3    H112438   4.994   6.400   6.347
 4165TIP3    H212439   4.923   6.403   6.214
 4166TIP3   OH212440   4.696   2.198   2.219
 4166TIP3    H112441   4.783   2.159   2.226
 4166TIP3    H212442   4.641   2.129   2.182
 4167TIP3   OH212443   4.565   7.827   1.861
 4167TIP3    H112444   4.527   7.912   1.840
 4167TIP3    H212445   4.629   7.811   1.792
 4168TIP3   OH212446   2.952   3.318   3.036
 4168TIP3    H112447   2.877   3.265   3.006
 4168TIP3    H212448   3.017   3.253   3.064
 4169TIP3   OH212449   4.257   1.607   6.359
 4169TIP3    H112450   4.300   1.553   6.292
 4169TIP3    H212451   4.315   1.682   6.371
 4170TIP3   OH212452   2.559   0.242   5.090
 4170TIP3    H112453   2.493   0.175   5.105
 4170TIP3    H212454   2.531   0.316   5.144
 4171TIP3   OH212455   6.499   3.252   1.520
 4171TIP3    H112456   6.544   3.332   1.492
 4171TIP3    H212457   6.530   3.237   1.609
 4172TIP3   OH212458   0.832   6.929   4.166
 4172TIP3    H112459   0.789   7.002   4.121
 4172TIP3    H212460   0.840   6.959   4.257
 4173TIP3   OH212461   6.370   6.848   0.213
 4173TIP3    H112462   6.376   6.776   0.150
 4173TIP3    H212463   6.291   6.896   0.186
 4174TIP3   OH212464   2.976   1.585   4.328
 4174TIP3    H112465   2.948   1.510   4.381
 4174TIP3    H212466   2.910   1.592   4.259
 4175TIP3   OH212467   2.267   3.128   4.997
 4175TIP3    H112468   2.257   3.222   4.986
 4175TIP3    H212469   2.347   3.119   5.050
 4176TIP3   OH212470   3.442   0.553   2.406
 4176TIP3    H112471   3.479   0.640   2.396
 4176TIP3    H212472   3.480   0.502   2.334
 4177TIP3   OH212473   6.201   5.142   4.485
 4177TIP3    H112474   6.296   5.128   4.491
 4177TIP3    H212475   6.182   5.134   4.391
 4178TIP3   OH212476   7.016   7.432   0.331
 4178TIP3    H112477   7.067   7.401   0.256
 4178TIP3    H212478   7.057   7.391   0.407
 4179TIP3   OH212479   5.565   2.716   5.261
 4179TIP3    H112480   5.579   2.705   5.167
 4179TIP3    H212481   5.558   2.811   5.273
 4180TIP3   OH212482   2.317   3.609   0.210
 4180TIP3    H112483   2.236   3.660   0.203
 4180TIP3    H212484   2.289   3.525   0.248
 4181TIP3   OH212485   4.605   4.120   2.131
 4181TIP3    H112486   4.517   4.096   2.161
 4181TIP3    H212487   4.620   4.063   2.055
 4182TIP3   OH212488   6.642   2.934   3.014
 4182TIP3    H112489   6.619   2.841   3.012
 4182TIP3    H212490   6.612   2.967   2.930
 4183TIP3   OH212491   3.679   0.618   5.405
 4183TIP3    H112492   3.773   0.622   5.388
 4183TIP3    H212493   3.670   0.553   5.475
 4184TIP3   OH212494   3.729   6.518   6.441
 4184TIP3    H112495   3.744   6.457   6.369
 4184TIP3    H212496   3.726   6.463   6.519
 4185TIP3   OH212497   7.082   1.007   1.859
 4185TIP3    H112498   7.157   1.025   1.915
 4185TIP3    H212499   7.103   1.052   1.777
 4186TIP3   OH212500   2.003   6.407   3.905
 4186TIP3    H112501   1.942   6.384   3.975
 4186TIP3    H212502   2.059   6.330   3.896
 4187TIP3   OH212503   7.199   6.176   1.467
 4187TIP3    H112504   7.127   6.159   1.405
 4187TIP3    H212505   7.155   6.189   1.551
 4188TIP3   OH212506   1.684   6.253   2.668
 4188TIP3    H112507   1.661   6.220   2.581
 4188TIP3    H212508   1.775   6.283   2.659
 4189TIP3   OH212509   3.993   3.957   6.323
 4189TIP3    H112510   3.926   3.954   6.255
 4189TIP3    H212511   4.074   3.973   6.275
 4190TIP3   OH212512   0.852   7.814   0.781
 4190TIP3    H112513   0.846   7.728   0.821
 4190TIP3    H212514   0.768   7.856   0.802
 4191TIP3   OH212515   0.708   0.154   4.453
 4191TIP3    H112516   0.704   0.188   4.543
 4191TIP3    H212517   0.723   0.231   4.399
 4192TIP3   OH212518   6.919   3.678   2.469
 4192TIP3    H112519   6.991   3.701   2.411
 4192TIP3    H212520   6.858   3.629   2.414
 4193TIP3   OH212521   4.759   0.093   4.850
 4193TIP3    H112522   4.796   0.015   4.808
 4193TIP3    H212523   4.813   0.105   4.929
 4194TIP3   OH212524   5.712   7.049   1.286
 4194TIP3    H112525   5.648   7.078   1.351
 4194TIP3    H212526   5.682   7.087   1.204
 4195TIP3   OH212527   1.549   3.556   5.735
 4195TIP3    H112528   1.465   3.592   5.763
 4195TIP3    H212529   1.573   3.607   5.657
 4196TIP3   OH212530   7.539   0.881   4.900
 4196TIP3    H112531   7.482   0.922   4.834
 4196TIP3    H212532   7.573   0.954   4.950
 4197TIP3   OH212533   4.646   4.950   2.287
 4197TIP3    H112534   4.645   4.856   2.306
 4197TIP3    H212535   4.738   4.975   2.291
 4198TIP3   OH212536   4.365   5.476   6.242
 4198TIP3    H112537   4.384   5.508   6.154
 4198TIP3    H212538   4.282   5.429   6.232
 4199TIP3   OH212539   0.258   1.515   6.313
 4199TIP3    H112540   0.171   1.553   6.300
 4199TIP3    H212541   0.263   1.497   6.407
 4200TIP3   OH212542   6.000   0.426   4.981
 4200TIP3    H112543   6.075   0.409   4.924
 4200TIP3    H212544   6.009   0.362   5.053
 4201TIP3   OH212545   2.025   3.790   6.152
 4201TIP3    H112546   2.044   3.832   6.236
 4201TIP3    H212547   1.970   3.715   6.174
 4202TIP3   OH212548   0.615   7.648   2.033
 4202TIP3    H112549   0.669   7.598   2.095
 4202TIP3    H212550   0.539   7.675   2.085
 4203TIP3   OH212551   6.259   2.990   4.315
 4203TIP3    H112552   6.214   2.907   4.299
 4203TIP3    H212553   6.200   3.057   4.280
 4204TIP3   OH212554   0.939   4.600   2.185
 4204TIP3    H112555   0.893   4.522   2.154
 4204TIP3    H212556   0.924   4.600   2.280
 4205TIP3   OH212557   3.756   6.992   6.283
 4205TIP3    H112558   3.701   6.915   6.292
 4205TIP3    H212559   3.726   7.051   6.353
 4206TIP3   OH212560   4.463   4.918   3.946
 4206TIP3    H112561   4.464   4.894   3.853
 4206TIP3    H212562   4.526   4.990   3.952
 4207TIP3   OH212563   6.007   3.330   5.269
 4207TIP3    H112564   5.925   3.375   5.288
 4207TIP3    H212565   6.002   3.309   5.176
 4208TIP3   OH212566   6.577   2.644   5.261
 4208TIP3    H112567   6.589   2.550   5.248
 4208TIP3    H212568   6.636   2.666   5.332
 4209TIP3   OH212569   2.659   3.668   0.024
 4209TIP3    H112570   2.636   3.642   0.113
 4209TIP3    H212571   2.576   3.692  -0.017
 4210TIP3   OH212572   1.140   6.073   5.424
 4210TIP3    H112573   1.156   5.981   5.405
 4210TIP3    H212574   1.059   6.094   5.376
 4211TIP3   OH212575   7.631   4.133   2.069
 4211TIP3    H112576   7.679   4.199   2.119
 4211TIP3    H212577   7.637   4.163   1.978
 4212TIP3   OH212578   2.733   7.465   2.573
 4212TIP3    H112579   2.653   7.428   2.608
 4212TIP3    H212580   2.790   7.389   2.558
 4213TIP3   OH212581   6.334   4.582   2.977
 4213TIP3    H112582   6.249   4.561   2.939
 4213TIP3    H212583   6.393   4.589   2.902
 4214TIP3   OH212584   6.419   3.364   4.477
 4214TIP3    H112585   6.487   3.359   4.545
 4214TIP3    H212586   6.339   3.386   4.525
 4215TIP3   OH212587   3.405   3.020   3.342
 4215TIP3    H112588   3.325   3.069   3.326
 4215TIP3    H212589   3.375   2.937   3.380
 4216TIP3   OH212590   6.523   7.457   4.539
 4216TIP3    H112591   6.597   7.481   4.596
 4216TIP3    H212592   6.446   7.468   4.595
 4217TIP3   OH212593   3.269   0.040   4.472
 4217TIP3    H112594   3.222   0.039   4.388
 4217TIP3    H212595   3.321  -0.041   4.471
 4218TIP3   OH212596   7.801   1.929   6.477
 4218TIP3    H112597   7.842   1.976   6.405
 4218TIP3    H212598   7.867   1.865   6.504
 4219TIP3   OH212599   2.835   0.563   4.115
 4219TIP3    H112600   2.790   0.644   4.138
 4219TIP3    H212601   2.811   0.548   4.023
 4220TIP3   OH212602   7.977   3.401   4.169
 4220TIP3    H112603   7.912   3.385   4.102
 4220TIP3    H212604   8.010   3.315   4.193
 4221TIP3   OH212605   3.589   2.487   6.227
 4221TIP3    H112606   3.621   2.574   6.251
 4221TIP3    H212607   3.503   2.503   6.189
 4222TIP3   OH212608   0.893   3.131   6.505
 4222TIP3    H112609   0.953   3.204   6.493
 4222TIP3    H212610   0.907   3.104   6.596
 4223TIP3   OH212611   6.092   2.551   5.394
 4223TIP3    H112612   6.023   2.616   5.405
 4223TIP3    H212613   6.066   2.502   5.316
 4224TIP3   OH212614   5.197   5.500   6.210
 4224TIP3    H112615   5.247   5.574   6.243
 4224TIP3    H212616   5.220   5.427   6.268
 4225TIP3   OH212617   1.511   7.478   6.491
 4225TIP3    H112618   1.548   7.418   6.426
 4225TIP3    H212619   1.421   7.492   6.462
 4226TIP3   OH212620   5.996   2.013   3.701
 4226TIP3    H112621   5.967   2.061   3.624
 4226TIP3    H212622   5.931   1.943   3.712
 4227TIP3   OH212623   5.960   3.199   4.532
 4227TIP3    H112624   6.020   3.187   4.459
 4227TIP3    H212625   6.015   3.227   4.605
 4228TIP3   OH212626   5.568   3.547   1.473
 4228TIP3    H112627   5.511   3.483   1.430
 4228TIP3    H212628   5.510   3.595   1.533
 4229TIP3   OH212629   2.489   5.682   2.088
 4229TIP3    H112630   2.552   5.610   2.086
 4229TIP3    H212631   2.406   5.641   2.113
 4230TIP3   OH212632   2.830   6.548   0.346
 4230TIP3    H112633   2.893   6.616   0.371
 4230TIP3    H212634   2.822   6.556   0.251
 4231TIP3   OH212635   1.996   3.683   2.696
 4231TIP3    H112636   2.073   3.664   2.749
 4231TIP3    H212637   2.030   3.693   2.607
 4232TIP3   OH212638   4.160   5.508   3.054
 4232TIP3    H112639   4.070   5.483   3.031
 4232TIP3    H212640   4.190   5.562   2.981
 4233TIP3   OH212641   4.547   1.544   3.335
 4233TIP3    H112642   4.583   1.633   3.336
 4233TIP3    H212643   4.466   1.550   3.386
 4234TIP3   OH212644   0.719   3.869   4.288
 4234TIP3    H112645   0.639   3.916   4.267
 4234TIP3    H212646   0.782   3.938   4.310
 4235TIP3   OH212647   5.297   7.093   2.180
 4235TIP3    H112648   5.289   7.000   2.157
 4235TIP3    H212649   5.306   7.138   2.096
 4236TIP3   OH212650   6.001   6.747   6.794
 4236TIP3    H112651   5.934   6.689   6.759
 4236TIP3    H212652   6.080   6.693   6.796
 4237TIP3   OH212653   7.033   6.247   3.577
 4237TIP3    H112654   7.099   6.262   3.645
 4237TIP3    H212655   7.023   6.332   3.534
 4238TIP3   OH212656   3.294   0.725   1.831
 4238TIP3    H112657   3.273   0.745   1.922
 4238TIP3    H212658   3.212   0.689   1.795
 4239TIP3   OH212659   4.341   4.262   0.557
 4239TIP3    H112660   4.251   4.292   0.575
 4239TIP3    H212661   4.397   4.323   0.604
 4240TIP3   OH212662   1.013   7.096   6.211
 4240TIP3    H112663   0.948   7.043   6.257
 4240TIP3    H212664   0.970   7.180   6.197
 4241TIP3   OH212665   5.216   4.168   6.535
 4241TIP3    H112666   5.270   4.094   6.508
 4241TIP3    H212667   5.208   4.158   6.630
 4242TIP3   OH212668   5.453   1.668   2.072
 4242TIP3    H112669   5.412   1.590   2.108
 4242TIP3    H212670   5.443   1.659   1.977
 4243TIP3   OH212671   1.845   7.352   3.402
 4243TIP3    H112672   1.813   7.429   3.355
 4243TIP3    H212673   1.804   7.357   3.488
 4244TIP3   OH212674   6.254   6.530   5.220
 4244TIP3    H112675   6.254   6.441   5.186
 4244TIP3    H212676   6.332   6.571   5.181
 4245TIP3   OH212677   2.045   0.457   4.792
 4245TIP3    H112678   2.061   0.412   4.709
 4245TIP3    H212679   2.026   0.548   4.767
 4246TIP3   OH212680   8.023   1.767   6.284
 4246TIP3    H112681   7.937   1.727   6.272
 4246TIP3    H212682   8.028   1.834   6.217
 4247TIP3   OH212683   1.596   7.466   0.222
 4247TIP3    H112684   1.611   7.535   0.158
 4247TIP3    H212685   1.506   7.438   0.205
 4248TIP3   OH212686   6.112   4.293   4.809
 4248TIP3    H112687   6.147   4.212   4.846
 4248TIP3    H212688   6.143   4.362   4.867
 4249TIP3   OH212689   4.327   6.257   4.473
 4249TIP3    H112690   4.308   6.171   4.510
 4249TIP3    H212691   4.246   6.282   4.427
 4250TIP3   OH212692   7.677   7.093   6.545
 4250TIP3    H112693   7.628   7.023   6.589
 4250TIP3    H212694   7.609   7.149   6.508
 4251TIP3   OH212695   3.066   3.498   4.742
 4251TIP3    H112696   2.985   3.458   4.710
 4251TIP3    H212697   3.037   3.571   4.797
 4252TIP3   OH212698   6.717   5.654   4.925
 4252TIP3    H112699   6.808   5.631   4.904
 4252TIP3    H212700   6.714   5.749   4.916
 4253TIP3   OH212701   7.892   0.280   3.415
 4253TIP3    H112702   7.821   0.340   3.435
 4253TIP3    H212703   7.866   0.197   3.456
 4254TIP3   OH212704   2.211   5.442   0.013
 4254TIP3    H112705   2.241   5.507   0.075
 4254TIP3    H212706   2.289   5.416  -0.035
 4255TIP3   OH212707   5.528   3.031   2.035
 4255TIP3    H112708   5.583   3.109   2.039
 4255TIP3    H212709   5.439   3.063   2.045
 4256TIP3   OH212710   1.732   3.941   0.989
 4256TIP3    H112711   1.761   3.927   0.899
 4256TIP3    H212712   1.729   3.853   1.027
 4257TIP3   OH212713   2.770   3.585   2.714
 4257TIP3    H112714   2.834   3.653   2.694
 4257TIP3    H212715   2.823   3.506   2.727
 4258TIP3   OH212716   8.032   4.125   2.844
 4258TIP3    H112717   8.115   4.078   2.857
 4258TIP3    H212718   7.997   4.134   2.933
 4259TIP3   OH212719   1.798   0.121   3.102
 4259TIP3    H112720   1.765   0.196   3.152
 4259TIP3    H212721   1.719   0.074   3.076
 4260TIP3   OH212722   4.006   5.669   5.940
 4260TIP3    H112723   4.034   5.587   5.900
 4260TIP3    H212724   4.082   5.698   5.990
 4261TIP3   OH212725   6.268   2.683   5.188
 4261TIP3    H112726   6.292   2.754   5.248
 4261TIP3    H212727   6.173   2.691   5.178
 4262TIP3   OH212728   4.395   0.141   3.489
 4262TIP3    H112729   4.490   0.129   3.493
 4262TIP3    H212730   4.382   0.234   3.509
 4263TIP3   OH212731   4.093   7.651   0.642
 4263TIP3    H112732   4.165   7.589   0.652
 4263TIP3    H212733   4.133   7.737   0.658
 4264TIP3   OH212734   3.289   1.277   1.132
 4264TIP3    H112735   3.297   1.373   1.138
 4264TIP3    H212736   3.294   1.248   1.223
 4265TIP3   OH212737   5.576   3.796   0.431
 4265TIP3    H112738   5.551   3.880   0.393
 4265TIP3    H212739   5.493   3.755   0.456
 4266TIP3   OH212740   4.435   1.767   4.059
 4266TIP3    H112741   4.446   1.828   4.132
 4266TIP3    H212742   4.433   1.823   3.981
 4267TIP3   OH212743   2.918   0.455   1.047
 4267TIP3    H112744   2.986   0.522   1.039
 4267TIP3    H212745   2.879   0.451   0.959
 4268TIP3   OH212746   0.810   7.550   2.290
 4268TIP3    H112747   0.764   7.479   2.335
 4268TIP3    H212748   0.879   7.505   2.240
 4269TIP3   OH212749   3.726   2.531   2.083
 4269TIP3    H112750   3.719   2.474   2.159
 4269TIP3    H212751   3.763   2.476   2.014
 4270TIP3   OH212752   6.075   4.735   1.627
 4270TIP3    H112753   6.126   4.663   1.663
 4270TIP3    H212754   6.120   4.814   1.656
 4271TIP3   OH212755   4.572   3.804   5.961
 4271TIP3    H112756   4.664   3.776   5.956
 4271TIP3    H212757   4.522   3.724   5.950
 4272TIP3   OH212758   3.539   3.674   2.935
 4272TIP3    H112759   3.485   3.707   3.008
 4272TIP3    H212760   3.486   3.691   2.857
 4273TIP3   OH212761   6.343   0.547   5.432
 4273TIP3    H112762   6.419   0.516   5.382
 4273TIP3    H212763   6.268   0.506   5.390
 4274TIP3   OH212764   3.831   3.723   1.945
 4274TIP3    H112765   3.744   3.703   1.979
 4274TIP3    H212766   3.886   3.650   1.975
 4275TIP3   OH212767   3.754   7.634   1.656
 4275TIP3    H112768   3.730   7.725   1.642
 4275TIP3    H212769   3.849   7.633   1.649
 4276TIP3   OH212770   8.098   3.087   6.751
 4276TIP3    H112771   8.018   3.034   6.750
 4276TIP3    H212772   8.067   3.177   6.738
 4277TIP3   OH212773   6.759   0.056   3.562
 4277TIP3    H112774   6.836  -0.001   3.566
 4277TIP3    H212775   6.697   0.008   3.507
 4278TIP3   OH212776   5.364   0.853   0.570
 4278TIP3    H112777   5.452   0.885   0.553
 4278TIP3    H212778   5.333   0.904   0.645
 4279TIP3   OH212779   7.952   5.805   4.043
 4279TIP3    H112780   7.868   5.811   3.997
 4279TIP3    H212781   7.950   5.878   4.105
 4280TIP3   OH212782   0.467   4.023   4.018
 4280TIP3    H112783   0.404   4.018   3.946
 4280TIP3    H212784   0.416   4.002   4.096
 4281TIP3   OH212785   6.656   3.501   4.133
 4281TIP3    H112786   6.683   3.424   4.181
 4281TIP3    H212787   6.562   3.510   4.152
 4282TIP3   OH212788   7.556   7.376   2.494
 4282TIP3    H112789   7.595   7.291   2.516
 4282TIP3    H212790   7.623   7.420   2.441
 4283TIP3   OH212791   4.667   7.162   5.283
 4283TIP3    H112792   4.608   7.159   5.208
 4283TIP3    H212793   4.618   7.121   5.354
 4284TIP3   OH212794   3.149   0.938   2.369
 4284TIP3    H112795   3.242   0.957   2.354
 4284TIP3    H212796   3.143   0.842   2.364
 4285TIP3   OH212797   5.185   4.679   5.089
 4285TIP3    H112798   5.207   4.691   5.182
 4285TIP3    H212799   5.239   4.605   5.061
 4286TIP3   OH212800   3.212   2.054   6.614
 4286TIP3    H112801   3.297   2.097   6.610
 4286TIP3    H212802   3.231   1.967   6.650
 4287TIP3   OH212803   0.310   6.697   5.679
 4287TIP3    H112804   0.396   6.680   5.641
 4287TIP3    H212805   0.328   6.750   5.757
 4288TIP3   OH212806   6.956   5.947   0.541
 4288TIP3    H112807   6.947   5.925   0.448
 4288TIP3    H212808   7.050   5.953   0.555
 4289TIP3   OH212809   1.657   3.901   4.159
 4289TIP3    H112810   1.605   3.821   4.160
 4289TIP3    H212811   1.742   3.875   4.123
 4290TIP3   OH212812   1.602   3.465   1.231
 4290TIP3    H112813   1.589   3.411   1.309
 4290TIP3    H212814   1.522   3.517   1.223
 4291TIP3   OH212815   4.041   3.220   2.104
 4291TIP3    H112816   4.006   3.226   2.193
 4291TIP3    H212817   3.972   3.176   2.055
 4292TIP3   OH212818   4.288   1.372   6.735
 4292TIP3    H112819   4.303   1.461   6.704
 4292TIP3    H212820   4.371   1.346   6.775
 4293TIP3   OH212821   5.214   2.484   5.663
 4293TIP3    H112822   5.171   2.402   5.689
 4293TIP3    H212823   5.165   2.512   5.586
 4294TIP3   OH212824   7.841   2.981   2.218
 4294TIP3    H112825   7.748   2.962   2.234
 4294TIP3    H212826   7.845   3.010   2.127
 4295TIP3   OH212827   2.284   2.169   5.634
 4295TIP3    H112828   2.199   2.201   5.663
 4295TIP3    H212829   2.279   2.171   5.538
 4296TIP3   OH212830   3.678   3.922   0.428
 4296TIP3    H112831   3.610   3.925   0.496
 4296TIP3    H212832   3.750   3.973   0.464
 4297TIP3   OH212833   4.511   0.096   1.883
 4297TIP3    H112834   4.478   0.012   1.851
 4297TIP3    H212835   4.591   0.110   1.833
 4298TIP3   OH212836   5.191   1.051   1.548
 4298TIP3    H112837   5.216   0.983   1.610
 4298TIP3    H212838   5.097   1.063   1.561
 4299TIP3   OH212839   0.837   5.091   5.990
 4299TIP3    H112840   0.892   5.099   6.068
 4299TIP3    H212841   0.767   5.032   6.016
 4300TIP3   OH212842   0.550   4.140   4.813
 4300TIP3    H112843   0.543   4.218   4.869
 4300TIP3    H212844   0.631   4.098   4.842
 4301TIP3   OH212845   7.368   7.078   5.045
 4301TIP3    H112846   7.412   7.087   5.129
 4301TIP3    H212847   7.341   6.986   5.041
 4302TIP3   OH212848   7.593   2.061   5.736
 4302TIP3    H112849   7.571   2.018   5.654
 4302TIP3    H212850   7.549   2.008   5.803
 4303TIP3   OH212851   5.669   5.786   0.481
 4303TIP3    H112852   5.608   5.788   0.556
 4303TIP3    H212853   5.656   5.699   0.443
 4304TIP3   OH212854   2.864   5.604   4.555
 4304TIP3    H112855   2.912   5.613   4.637
 4304TIP3    H212856   2.866   5.692   4.516
 4305TIP3   OH212857   6.788   6.164   0.133
 4305TIP3    H112858   6.735   6.091   0.104
 4305TIP3    H212859   6.873   6.151   0.090
 4306TIP3   OH212860   5.149   0.856   3.762
 4306TIP3    H112861   5.105   0.852   3.847
 4306TIP3    H212862   5.213   0.785   3.765
 4307TIP3   OH212863   7.511   3.255   4.019
 4307TIP3    H112864   7.446   3.323   4.003
 4307TIP3    H212865   7.495   3.190   3.950
 4308TIP3   OH212866   6.976   4.899   2.671
 4308TIP3    H112867   6.881   4.903   2.670
 4308TIP3    H212868   7.004   4.985   2.702
 4309TIP3   OH212869   6.426   2.706   4.943
 4309TIP3    H112870   6.359   2.697   5.011
 4309TIP3    H212871   6.377   2.728   4.864
 4310TIP3   OH212872   0.344   6.849   1.100
 4310TIP3    H112873   0.427   6.801   1.097
 4310TIP3    H212874   0.279   6.788   1.065
 4311TIP3   OH212875   0.605   6.121   1.275
 4311TIP3    H112876   0.556   6.040   1.257
 4311TIP3    H212877   0.670   6.126   1.206
 4312TIP3   OH212878   7.173   1.880   3.528
 4312TIP3    H112879   7.177   1.950   3.463
 4312TIP3    H212880   7.263   1.870   3.559
 4313TIP3   OH212881   4.011   1.703   0.377
 4313TIP3    H112882   4.046   1.792   0.380
 4313TIP3    H212883   4.034   1.665   0.463
 4314TIP3   OH212884   1.783   0.947   2.035
 4314TIP3    H112885   1.846   0.875   2.030
 4314TIP3    H212886   1.706   0.910   2.078
 4315TIP3   OH212887   5.103   6.601   0.216
 4315TIP3    H112888   5.011   6.603   0.189
 4315TIP3    H212889   5.149   6.563   0.141
 4316TIP3   OH212890   6.119   1.324   4.305
 4316TIP3    H112891   6.213   1.306   4.298
 4316TIP3    H212892   6.089   1.328   4.214
 4317TIP3   OH212893   5.860   6.670   4.042
 4317TIP3    H112894   5.834   6.595   3.989
 4317TIP3    H212895   5.928   6.636   4.101
 4318TIP3   OH212896   1.686   1.695   4.403
 4318TIP3    H112897   1.709   1.633   4.334
 4318TIP3    H212898   1.717   1.653   4.484
 4319TIP3   OH212899   8.289   5.399   4.971
 4319TIP3    H112900   8.344   5.354   5.034
 4319TIP3    H212901   8.200   5.374   4.994
 4320TIP3   OH212902   3.019   2.339   4.094
 4320TIP3    H112903   2.930   2.303   4.097
 4320TIP3    H212904   3.072   2.273   4.139
 4321TIP3   OH212905   5.374   0.530   3.367
 4321TIP3    H112906   5.361   0.435   3.354
 4321TIP3    H212907   5.288   0.561   3.395
 4322TIP3   OH212908   0.432   5.802   0.040
 4322TIP3    H112909   0.478   5.723   0.010
 4322TIP3    H212910   0.350   5.769   0.077
 4323TIP3   OH212911   4.737   0.195   6.663
 4323TIP3    H112912   4.692   0.274   6.695
 4323TIP3    H212913   4.707   0.126   6.722
 4324TIP3   OH212914   5.876   5.813   4.405
 4324TIP3    H112915   5.784   5.803   4.428
 4324TIP3    H212916   5.921   5.748   4.458
 4325TIP3   OH212917   5.297   6.162   1.337
 4325TIP3    H112918   5.211   6.120   1.346
 4325TIP3    H212919   5.284   6.229   1.271
 4326TIP3   OH212920   2.878   5.193   0.450
 4326TIP3    H112921   2.808   5.130   0.431
 4326TIP3    H212922   2.928   5.197   0.368
 4327TIP3   OH212923   0.229   6.610   4.748
 4327TIP3    H112924   0.158   6.610   4.812
 4327TIP3    H212925   0.226   6.697   4.708
 4328TIP3   OH212926   0.920   5.722   6.106
 4328TIP3    H112927   0.913   5.800   6.161
 4328TIP3    H212928   0.856   5.736   6.035
 4329TIP3   OH212929   2.892   2.765   1.527
 4329TIP3    H112930   2.805   2.733   1.552
 4329TIP3    H212931   2.885   2.860   1.534
 4330TIP3   OH212932   7.970   7.248   4.297
 4330TIP3    H112933   7.992   7.340   4.313
 4330TIP3    H212934   7.875   7.246   4.295
 4331TIP3   OH212935   3.149   1.122   5.551
 4331TIP3    H112936   3.124   1.145   5.641
 4331TIP3    H212937   3.195   1.199   5.518
 4332TIP3   OH212938   0.382   0.347   5.887
 4332TIP3    H112939   0.466   0.392   5.898
 4332TIP3    H212940   0.396   0.285   5.817
 4333TIP3   OH212941   7.339   0.190   3.904
 4333TIP3    H112942   7.374   0.142   3.979
 4333TIP3    H212943   7.245   0.194   3.919
 4334TIP3   OH212944   7.625   6.637   4.436
 4334TIP3    H112945   7.642   6.603   4.348
 4334TIP3    H212946   7.566   6.573   4.475
 4335TIP3   OH212947   3.750   0.639   1.126
 4335TIP3    H112948   3.708   0.643   1.040
 4335TIP3    H212949   3.770   0.730   1.147
 4336TIP3   OH212950   5.217   5.574   0.901
 4336TIP3    H112951   5.289   5.630   0.870
 4336TIP3    H212952   5.139   5.628   0.891
 4337TIP3   OH212953   4.608   5.819   1.261
 4337TIP3    H112954   4.529   5.795   1.213
 4337TIP3    H212955   4.674   5.833   1.193
 4338TIP3   OH212956   5.677   3.598   5.340
 4338TIP3    H112957   5.733   3.531   5.380
 4338TIP3    H212958   5.621   3.549   5.280
 4339TIP3   OH212959   4.035   1.986   2.651
 4339TIP3    H112960   4.120   2.025   2.630
 4339TIP3    H212961   3.973   2.057   2.638
 4340TIP3   OH212962   1.715   5.935   1.488
 4340TIP3    H112963   1.663   6.006   1.449
 4340TIP3    H212964   1.696   5.859   1.433
 4341TIP3   OH212965   5.624   0.810   4.292
 4341TIP3    H112966   5.713   0.800   4.258
 4341TIP3    H212967   5.623   0.757   4.372
 4342TIP3   OH212968   0.518   2.166   0.975
 4342TIP3    H112969   0.499   2.252   0.938
 4342TIP3    H212970   0.582   2.183   1.044
 4343TIP3   OH212971   6.779   2.914   3.829
 4343TIP3    H112972   6.831   2.860   3.888
 4343TIP3    H212973   6.843   2.959   3.774
 4344TIP3   OH212974   7.518   1.907   2.550
 4344TIP3    H112975   7.569   1.830   2.526
 4344TIP3    H212976   7.438   1.900   2.496
 4345TIP3   OH212977   6.189   3.659   2.292
 4345TIP3    H112978   6.183   3.599   2.366
 4345TIP3    H212979   6.126   3.624   2.228
 4346TIP3   OH212980   0.945   6.022   4.581
 4346TIP3    H112981   0.981   5.943   4.541
 4346TIP3    H212982   0.860   5.994   4.615
 4347TIP3   OH212983   5.681   3.906   6.135
 4347TIP3    H112984   5.705   3.814   6.138
 4347TIP3    H212985   5.598   3.908   6.087
 4348TIP3   OH212986   7.615   3.596   4.049
 4348TIP3    H112987   7.671   3.529   4.010
 4348TIP3    H212988   7.619   3.669   3.987
 4349TIP3   OH212989   2.732   7.139   0.512
 4349TIP3    H112990   2.663   7.123   0.577
 4349TIP3    H212991   2.698   7.101   0.431
 4350TIP3   OH212992   0.180   1.247   6.714
 4350TIP3    H112993   0.200   1.195   6.637
 4350TIP3    H212994   0.098   1.211   6.747
 4351TIP3   OH212995   2.621   7.749   3.975
 4351TIP3    H112996   2.600   7.829   4.024
 4351TIP3    H212997   2.711   7.762   3.946
 4352TIP3   OH212998   7.324   6.826   0.918
 4352TIP3    H112999   7.295   6.907   0.960
 4352TIP3    H213000   7.251   6.765   0.930
 4353TIP3   OH213001   7.223   2.770   1.910
 4353TIP3    H113002   7.143   2.818   1.887
 4353TIP3    H213003   7.255   2.815   1.989
 4354TIP3   OH213004   5.031   6.344   2.700
 4354TIP3    H113005   4.965   6.370   2.635
 4354TIP3    H213006   4.987   6.355   2.784
 4355TIP3   OH213007   3.458   6.122   3.133
 4355TIP3    H113008   3.413   6.038   3.129
 4355TIP3    H213009   3.550   6.101   3.119
 4356TIP3   OH213010   5.158   6.014   2.654
 4356TIP3    H113011   5.197   5.964   2.583
 4356TIP3    H213012   5.183   6.105   2.636
 4357TIP3   OH213013   6.360   2.923   2.430
 4357TIP3    H113014   6.416   2.907   2.506
 4357TIP3    H213015   6.417   2.910   2.354
 4358TIP3   OH213016   0.411   6.018   6.341
 4358TIP3    H113017   0.439   5.988   6.427
 4358TIP3    H213018   0.428   5.943   6.283
 4359TIP3   OH213019   3.884   5.447   4.442
 4359TIP3    H113020   3.796   5.438   4.405
 4359TIP3    H213021   3.934   5.492   4.374
 4360TIP3   OH213022   7.274   7.667   4.095
 4360TIP3    H113023   7.250   7.741   4.039
 4360TIP3    H213024   7.212   7.672   4.169
 4361TIP3   OH213025   4.909   4.950   1.953
 4361TIP3    H113026   4.823   4.953   1.911
 4361TIP3    H213027   4.954   4.877   1.910
 4362TIP3   OH213028   0.628   1.009   1.613
 4362TIP3    H113029   0.720   1.028   1.633
 4362TIP3    H213030   0.608   1.062   1.536
 4363TIP3   OH213031   7.430   7.574   6.432
 4363TIP3    H113032   7.362   7.592   6.497
 4363TIP3    H213033   7.391   7.508   6.374
 4364TIP3   OH213034   6.852   5.760   1.723
 4364TIP3    H113035   6.898   5.678   1.705
 4364TIP3    H213036   6.903   5.802   1.792
 4365TIP3   OH213037   1.408   2.966   2.194
 4365TIP3    H113038   1.442   2.919   2.269
 4365TIP3    H213039   1.350   3.032   2.232
 4366TIP3   OH213040   2.112   2.500   6.490
 4366TIP3    H113041   2.180   2.548   6.444
 4366TIP3    H213042   2.030   2.536   6.456
 4367TIP3   OH213043   5.291   6.002   3.991
 4367TIP3    H113044   5.222   6.004   3.926
 4367TIP3    H213045   5.246   6.015   4.075
 4368TIP3   OH213046   4.210   0.012   5.732
 4368TIP3    H113047   4.133   0.030   5.678
 4368TIP3    H213048   4.273   0.079   5.707
 4369TIP3   OH213049   0.572   5.035   1.831
 4369TIP3    H113050   0.548   5.128   1.840
 4369TIP3    H213051   0.647   5.024   1.890
 4370TIP3   OH213052   5.684   4.316   6.167
 4370TIP3    H113053   5.606   4.330   6.113
 4370TIP3    H213054   5.739   4.392   6.149
 4371TIP3   OH213055   5.972   1.372   2.733
 4371TIP3    H113056   5.951   1.347   2.643
 4371TIP3    H213057   5.942   1.462   2.740
 4372TIP3   OH213058   0.323   2.462   6.708
 4372TIP3    H113059   0.378   2.450   6.631
 4372TIP3    H213060   0.332   2.555   6.730
 4373TIP3   OH213061   7.311   6.532   3.849
 4373TIP3    H113062   7.336   6.624   3.843
 4373TIP3    H213063   7.249   6.519   3.777
 4374TIP3   OH213064   7.960   4.174   4.867
 4374TIP3    H113065   7.872   4.149   4.897
 4374TIP3    H213066   8.018   4.109   4.908
 4375TIP3   OH213067   7.484   4.404   6.273
 4375TIP3    H113068   7.561   4.402   6.330
 4375TIP3    H213069   7.435   4.481   6.300
 4376TIP3   OH213070   3.145   7.205   3.872
 4376TIP3    H113071   3.204   7.274   3.900
 4376TIP3    H213072   3.059   7.248   3.866
 4377TIP3   OH213073   2.598   6.666   6.768
 4377TIP3    H113074   2.642   6.597   6.818
 4377TIP3    H213075   2.665   6.698   6.708
 4378TIP3   OH213076   2.087   7.343   6.781
 4378TIP3    H113077   2.046   7.257   6.789
 4378TIP3    H213078   2.168   7.327   6.732
 4379TIP3   OH213079   0.378   1.335   4.704
 4379TIP3    H113080   0.351   1.283   4.780
 4379TIP3    H213081   0.299   1.380   4.676
 4380TIP3   OH213082   8.092   2.394  -0.062
 4380TIP3    H113083   8.086   2.301  -0.038
 4380TIP3    H213084   8.156   2.430  -0.001
 4381TIP3   OH213085   2.936   7.298   3.293
 4381TIP3    H113086   2.960   7.341   3.376
 4381TIP3    H213087   2.999   7.226   3.285
 4382TIP3   OH213088   1.184   4.849   4.973
 4382TIP3    H113089   1.231   4.796   4.909
 4382TIP3    H213090   1.122   4.900   4.921
 4383TIP3   OH213091   3.126   4.957   1.317
 4383TIP3    H113092   3.129   4.994   1.405
 4383TIP3    H213093   3.070   5.017   1.267
 4384TIP3   OH213094   1.705   7.071   0.740
 4384TIP3    H113095   1.700   6.989   0.790
 4384TIP3    H213096   1.689   7.045   0.650
 4385TIP3   OH213097   2.110   1.851   3.295
 4385TIP3    H113098   2.144   1.841   3.206
 4385TIP3    H213099   2.187   1.875   3.347
 4386TIP3   OH213100   4.648   1.404   2.973
 4386TIP3    H113101   4.727   1.360   2.944
 4386TIP3    H213102   4.628   1.365   3.058
 4387TIP3   OH213103   4.845   1.059  -0.009
 4387TIP3    H113104   4.928   1.012   0.001
 4387TIP3    H213105   4.821   1.085   0.079
 4388TIP3   OH213106   0.193   0.791   0.929
 4388TIP3    H113107   0.210   0.703   0.962
 4388TIP3    H213108   0.238   0.794   0.844
 4389TIP3   OH213109   4.763   1.727   3.009
 4389TIP3    H113110   4.772   1.653   3.069
 4389TIP3    H213111   4.794   1.694   2.925
 4390TIP3   OH213112   0.501   0.381   5.250
 4390TIP3    H113113   0.589   0.375   5.212
 4390TIP3    H213114   0.513   0.364   5.343
 4391TIP3   OH213115   3.805   0.903   1.164
 4391TIP3    H113116   3.846   0.947   1.090
 4391TIP3    H213117   3.822   0.960   1.238
 4392TIP3   OH213118   2.905   6.089   1.622
 4392TIP3    H113119   2.894   6.100   1.716
 4392TIP3    H213120   2.911   5.995   1.609
 4393TIP3   OH213121   2.728   7.265   5.084
 4393TIP3    H113122   2.729   7.217   5.166
 4393TIP3    H213123   2.677   7.211   5.024
 4394TIP3   OH213124   5.176   7.112   1.315
 4394TIP3    H113125   5.190   7.058   1.393
 4394TIP3    H213126   5.167   7.201   1.349
 4395TIP3   OH213127   5.952   4.983   5.571
 4395TIP3    H113128   6.034   5.032   5.566
 4395TIP3    H213129   5.925   4.993   5.662
 4396TIP3   OH213130   1.820   6.306   4.156
 4396TIP3    H113131   1.865   6.347   4.229
 4396TIP3    H213132   1.731   6.342   4.158
 4397TIP3   OH213133   4.809   1.797   1.218
 4397TIP3    H113134   4.717   1.822   1.209
 4397TIP3    H213135   4.857   1.876   1.192
 4398TIP3   OH213136   0.110   1.837   3.626
 4398TIP3    H113137   0.106   1.851   3.531
 4398TIP3    H213138   0.025   1.798   3.648
 4399TIP3   OH213139   6.280   6.503   0.152
 4399TIP3    H113140   6.312   6.417   0.178
 4399TIP3    H213141   6.358   6.555   0.136
 4400TIP3   OH213142   7.220   7.589   5.868
 4400TIP3    H113143   7.251   7.628   5.786
 4400TIP3    H213144   7.198   7.663   5.923
 4401TIP3   OH213145   1.383   2.499   0.309
 4401TIP3    H113146   1.409   2.417   0.266
 4401TIP3    H213147   1.336   2.548   0.242
 4402TIP3   OH213148   4.567   6.832   0.024
 4402TIP3    H113149   4.585   6.925   0.014
 4402TIP3    H213150   4.530   6.825   0.112
 4403TIP3   OH213151   8.258   0.763   5.821
 4403TIP3    H113152   8.303   0.697   5.874
 4403TIP3    H213153   8.175   0.722   5.797
 4404TIP3   OH213154   2.590   0.157   2.378
 4404TIP3    H113155   2.658   0.187   2.317
 4404TIP3    H213156   2.638   0.139   2.459
 4405TIP3   OH213157   0.239   5.233   1.965
 4405TIP3    H113158   0.266   5.264   1.878
 4405TIP3    H213159   0.322   5.209   2.007
 4406TIP3   OH213160   0.289   3.874   5.177
 4406TIP3    H113161   0.206   3.891   5.220
 4406TIP3    H213162   0.266   3.853   5.086
 4407TIP3   OH213163   0.467   2.016   3.862
 4407TIP3    H113164   0.456   2.075   3.787
 4407TIP3    H213165   0.556   1.981   3.853
 4408TIP3   OH213166   7.035   1.986   2.559
 4408TIP3    H113167   7.039   1.905   2.508
 4408TIP3    H213168   7.126   2.003   2.584
 4409TIP3   OH213169   1.444   3.286   3.716
 4409TIP3    H113170   1.392   3.312   3.640
 4409TIP3    H213171   1.512   3.353   3.724
 4410TIP3   OH213172   8.159   1.248   2.238
 4410TIP3    H113173   8.197   1.223   2.323
 4410TIP3    H213174   8.226   1.224   2.174
 4411TIP3   OH213175   7.420   4.612   2.936
 4411TIP3    H113176   7.485   4.556   2.893
 4411TIP3    H213177   7.358   4.551   2.976
 4412TIP3   OH213178   6.484   5.599   6.118
 4412TIP3    H113179   6.522   5.668   6.172
 4412TIP3    H213180   6.409   5.639   6.075
 4413TIP3   OH213181   5.954   7.667   4.625
 4413TIP3    H113182   5.886   7.653   4.691
 4413TIP3    H213183   5.947   7.591   4.567
 4414TIP3   OH213184   2.695   7.755   3.469
 4414TIP3    H113185   2.664   7.749   3.378
 4414TIP3    H213186   2.779   7.802   3.462
 4415TIP3   OH213187   1.795   0.643   4.769
 4415TIP3    H113188   1.716   0.696   4.779
 4415TIP3    H213189   1.770   0.556   4.799
 4416TIP3   OH213190   4.779   0.684   3.497
 4416TIP3    H113191   4.847   0.751   3.504
 4416TIP3    H213192   4.722   0.715   3.426
 4417TIP3   OH213193   2.696   7.747   3.181
 4417TIP3    H113194   2.742   7.663   3.182
 4417TIP3    H213195   2.642   7.744   3.103
 4418TIP3   OH213196   1.521   4.229   2.973
 4418TIP3    H113197   1.576   4.265   3.043
 4418TIP3    H213198   1.459   4.298   2.953
 4419TIP3   OH213199   1.108   1.582   0.625
 4419TIP3    H113200   1.074   1.658   0.670
 4419TIP3    H213201   1.191   1.612   0.587
 4420TIP3   OH213202   2.808   3.402   5.725
 4420TIP3    H113203   2.824   3.495   5.712
 4420TIP3    H213204   2.860   3.359   5.658
 4421TIP3   OH213205   2.493   2.262   6.447
 4421TIP3    H113206   2.518   2.344   6.404
 4421TIP3    H213207   2.407   2.279   6.484
 4422TIP3   OH213208   4.510   6.797   1.943
 4422TIP3    H113209   4.568   6.774   1.871
 4422TIP3    H213210   4.490   6.714   1.986
 4423TIP3   OH213211   6.719   5.055   4.133
 4423TIP3    H113212   6.750   4.965   4.119
 4423TIP3    H213213   6.633   5.044   4.175
 4424TIP3   OH213214   0.652   4.786   4.016
 4424TIP3    H113215   0.689   4.724   4.078
 4424TIP3    H213216   0.559   4.789   4.038
 4425TIP3   OH213217   5.344   4.094   2.360
 4425TIP3    H113218   5.261   4.050   2.378
 4425TIP3    H213219   5.342   4.173   2.413
 4426TIP3   OH213220   8.148   0.063   0.838
 4426TIP3    H113221   8.208   0.124   0.882
 4426TIP3    H213222   8.197  -0.019   0.835
 4427TIP3   OH213223   7.126   7.562   4.978
 4427TIP3    H113224   7.037   7.572   4.943
 4427TIP3    H213225   7.177   7.530   4.904
 4428TIP3   OH213226   1.725   5.912   1.807
 4428TIP3    H113227   1.703   5.835   1.860
 4428TIP3    H213228   1.699   5.986   1.862
 4429TIP3   OH213229   5.112   6.171   5.244
 4429TIP3    H113230   5.167   6.094   5.226
 4429TIP3    H213231   5.173   6.245   5.239
 4430TIP3   OH213232   5.221   5.625   4.349
 4430TIP3    H113233   5.148   5.674   4.312
 4430TIP3    H213234   5.249   5.566   4.278
 4431TIP3   OH213235   3.803   3.328   3.938
 4431TIP3    H113236   3.818   3.391   3.868
 4431TIP3    H213237   3.882   3.274   3.939
 4432TIP3   OH213238   8.127   1.381   3.601
 4432TIP3    H113239   8.127   1.327   3.521
 4432TIP3    H213240   8.220   1.395   3.619
 4433TIP3   OH213241   5.698   3.531   2.545
 4433TIP3    H113242   5.612   3.494   2.565
 4433TIP3    H213243   5.684   3.584   2.467
 4434TIP3   OH213244   0.588   2.956   5.392
 4434TIP3    H113245   0.661   2.974   5.333
 4434TIP3    H213246   0.572   2.862   5.382
 4435TIP3   OH213247   4.879   0.461   4.565
 4435TIP3    H113248   4.851   0.499   4.482
 4435TIP3    H213249   4.802   0.413   4.597
 4436TIP3   OH213250   0.093   2.353   1.255
 4436TIP3    H113251   0.005   2.321   1.236
 4436TIP3    H213252   0.092   2.374   1.348
 4437TIP3   OH213253   7.558   4.485   5.307
 4437TIP3    H113254   7.618   4.556   5.283
 4437TIP3    H213255   7.514   4.517   5.386
 4438TIP3   OH213256   5.242   7.635   5.771
 4438TIP3    H113257   5.158   7.604   5.806
 4438TIP3    H213258   5.285   7.675   5.846
 4439TIP3   OH213259   6.345   5.693   0.006
 4439TIP3    H113260   6.393   5.676   0.087
 4439TIP3    H213261   6.409   5.679  -0.063
 4440TIP3   OH213262   4.143   3.139   0.223
 4440TIP3    H113263   4.135   3.231   0.197
 4440TIP3    H213264   4.128   3.139   0.317
 4441TIP3   OH213265   4.075   3.694   5.077
 4441TIP3    H113266   4.091   3.730   5.165
 4441TIP3    H213267   4.047   3.770   5.025
 4442TIP3   OH213268   0.161   4.123   3.211
 4442TIP3    H113269   0.166   4.033   3.243
 4442TIP3    H213270   0.100   4.167   3.270
 4443TIP3   OH213271   5.483   4.161   3.105
 4443TIP3    H113272   5.573   4.180   3.080
 4443TIP3    H213273   5.484   4.156   3.201
 4444TIP3   OH213274   2.157   1.259   2.568
 4444TIP3    H113275   2.074   1.304   2.550
 4444TIP3    H213276   2.186   1.296   2.651
 4445TIP3   OH213277   2.435   5.720   0.313
 4445TIP3    H113278   2.410   5.668   0.389
 4445TIP3    H213279   2.467   5.802   0.351
 4446TIP3   OH213280   5.936   1.566   5.281
 4446TIP3    H113281   6.014   1.600   5.238
 4446TIP3    H213282   5.876   1.641   5.282
 4447TIP3   OH213283   5.378   5.313   1.092
 4447TIP3    H113284   5.307   5.251   1.109
 4447TIP3    H213285   5.334   5.397   1.080
 4448TIP3   OH213286   4.164   5.291   6.204
 4448TIP3    H113287   4.166   5.284   6.108
 4448TIP3    H213288   4.112   5.216   6.232
 4449TIP3   OH213289   1.583   0.311   5.171
 4449TIP3    H113290   1.647   0.378   5.147
 4449TIP3    H213291   1.630   0.228   5.158
 4450TIP3   OH213292   5.517   7.453   6.040
 4450TIP3    H113293   5.573   7.471   5.966
 4450TIP3    H213294   5.518   7.357   6.048
 4451TIP3   OH213295   6.460   3.027   2.819
 4451TIP3    H113296   6.477   3.117   2.846
 4451TIP3    H213297   6.380   3.032   2.767
 4452TIP3   OH213298   3.474   7.387   0.888
 4452TIP3    H113299   3.434   7.301   0.886
 4452TIP3    H213300   3.554   7.376   0.940
 4453TIP3   OH213301   1.088   5.308   5.957
 4453TIP3    H113302   1.182   5.296   5.944
 4453TIP3    H213303   1.060   5.231   6.006
 4454TIP3   OH213304   1.765   7.334   0.014
 4454TIP3    H113305   1.701   7.316  -0.055
 4454TIP3    H213306   1.715   7.381   0.081
 4455TIP3   OH213307   7.222   2.175   5.955
 4455TIP3    H113308   7.174   2.257   5.964
 4455TIP3    H213309   7.242   2.149   6.045
 4456TIP3   OH213310   3.674   5.326   3.728
 4456TIP3    H113311   3.729   5.301   3.802
 4456TIP3    H213312   3.597   5.367   3.769
 4457TIP3   OH213313   1.110   0.711   4.310
 4457TIP3    H113314   1.027   0.737   4.270
 4457TIP3    H213315   1.171   0.702   4.237
 4458TIP3   OH213316   3.438   0.446   4.236
 4458TIP3    H113317   3.510   0.503   4.210
 4458TIP3    H213318   3.418   0.473   4.325
 4459TIP3   OH213319   6.800   5.383   6.394
 4459TIP3    H113320   6.731   5.445   6.417
 4459TIP3    H213321   6.759   5.297   6.398
 4460TIP3   OH213322   1.242   0.793   0.925
 4460TIP3    H113323   1.222   0.885   0.939
 4460TIP3    H213324   1.166   0.746   0.960
 4461TIP3   OH213325   4.815   2.867   0.298
 4461TIP3    H113326   4.907   2.892   0.313
 4461TIP3    H213327   4.795   2.902   0.211
 4462TIP3   OH213328   3.365   3.238   2.437
 4462TIP3    H113329   3.453   3.211   2.413
 4462TIP3    H213330   3.378   3.301   2.508
 4463TIP3   OH213331   4.193   7.605   0.276
 4463TIP3    H113332   4.110   7.639   0.308
 4463TIP3    H213333   4.240   7.681   0.243
 4464TIP3   OH213334   8.209   4.763   2.887
 4464TIP3    H113335   8.229   4.855   2.870
 4464TIP3    H213336   8.288   4.716   2.859
 4465TIP3   OH213337   1.358   4.849   2.375
 4465TIP3    H113338   1.435   4.793   2.368
 4465TIP3    H213339   1.331   4.863   2.284
 4466TIP3   OH213340   6.898   4.968   5.624
 4466TIP3    H113341   6.844   5.000   5.552
 4466TIP3    H213342   6.891   4.872   5.618
 4467TIP3   OH213343   6.952   7.084   3.987
 4467TIP3    H113344   6.892   7.149   3.950
 4467TIP3    H213345   7.003   7.132   4.052
 4468TIP3   OH213346   3.820   6.743   4.830
 4468TIP3    H113347   3.854   6.763   4.918
 4468TIP3    H213348   3.726   6.731   4.843
 4469TIP3   OH213349   1.565   3.115   2.618
 4469TIP3    H113350   1.490   3.166   2.647
 4469TIP3    H213351   1.633   3.181   2.599
 4470TIP3   OH213352   2.442   6.990   1.582
 4470TIP3    H113353   2.434   6.905   1.539
 4470TIP3    H213354   2.536   7.004   1.590
 4471TIP3   OH213355   7.152   7.498   4.683
 4471TIP3    H113356   7.095   7.421   4.681
 4471TIP3    H213357   7.241   7.462   4.678
 4472TIP3   OH213358   7.954   1.989   2.167
 4472TIP3    H113359   8.043   2.012   2.139
 4472TIP3    H213360   7.897   2.041   2.110
 4473TIP3   OH213361   3.100   7.484   6.040
 4473TIP3    H113362   3.041   7.447   6.105
 4473TIP3    H213363   3.165   7.416   6.024
 4474TIP3   OH213364   4.967   1.195   4.190
 4474TIP3    H113365   4.947   1.260   4.123
 4474TIP3    H213366   4.905   1.124   4.173
 4475TIP3   OH213367   7.653   3.877   2.704
 4475TIP3    H113368   7.699   3.918   2.631
 4475TIP3    H213369   7.692   3.790   2.711
 4476TIP3   OH213370   1.311   1.475   1.722
 4476TIP3    H113371   1.232   1.528   1.713
 4476TIP3    H213372   1.294   1.418   1.797
 4477TIP3   OH213373   1.742   2.223   3.193
 4477TIP3    H113374   1.776   2.153   3.137
 4477TIP3    H213375   1.659   2.248   3.154
 4478TIP3   OH213376   0.368   7.047   1.576
 4478TIP3    H113377   0.395   6.972   1.522
 4478TIP3    H213378   0.450   7.090   1.599
 4479TIP3   OH213379   2.915   7.747   5.064
 4479TIP3    H113380   2.887   7.662   5.029
 4479TIP3    H213381   2.834   7.790   5.092
 4480TIP3   OH213382   7.233   3.139   0.161
 4480TIP3    H113383   7.219   3.231   0.184
 4480TIP3    H213384   7.167   3.120   0.094
 4481TIP3   OH213385   5.852   4.617   1.048
 4481TIP3    H113386   5.804   4.691   1.085
 4481TIP3    H213387   5.787   4.546   1.045
 4482TIP3   OH213388   1.972   5.120   3.494
 4482TIP3    H113389   1.913   5.189   3.462
 4482TIP3    H213390   1.914   5.055   3.532
 4483TIP3   OH213391   2.394   4.368   0.858
 4483TIP3    H113392   2.441   4.443   0.820
 4483TIP3    H213393   2.456   4.333   0.923
 4484TIP3   OH213394   1.467   0.658   2.932
 4484TIP3    H113395   1.551   0.671   2.887
 4484TIP3    H213396   1.491   0.622   3.018
 4485TIP3   OH213397   4.560   1.444   1.149
 4485TIP3    H113398   4.646   1.481   1.166
 4485TIP3    H213399   4.548   1.378   1.217
 4486TIP3   OH213400   6.724   1.594   4.862
 4486TIP3    H113401   6.716   1.605   4.957
 4486TIP3    H213402   6.770   1.672   4.833
 4487TIP3   OH213403   4.302   6.131   0.321
 4487TIP3    H113404   4.315   6.195   0.391
 4487TIP3    H213405   4.248   6.176   0.257
 4488TIP3   OH213406   4.319   6.966   0.798
 4488TIP3    H113407   4.415   6.974   0.796
 4488TIP3    H213408   4.295   6.947   0.707
 4489TIP3   OH213409   0.446   5.482   1.489
 4489TIP3    H113410   0.524   5.452   1.442
 4489TIP3    H213411   0.375   5.472   1.426
 4490TIP3   OH213412   0.983   5.604   4.178
 4490TIP3    H113413   0.931   5.683   4.197
 4490TIP3    H213414   1.071   5.626   4.207
 4491TIP3   OH213415   6.679   1.939   5.241
 4491TIP3    H113416   6.675   1.892   5.325
 4491TIP3    H213417   6.595   1.982   5.234
 4492TIP3   OH213418   0.261   1.609   5.778
 4492TIP3    H113419   0.329   1.558   5.734
 4492TIP3    H213420   0.237   1.676   5.714
 4493TIP3   OH213421   7.943   1.692   6.528
 4493TIP3    H113422   7.988   1.705   6.444
 4493TIP3    H213423   8.004   1.725   6.593
 4494TIP3   OH213424   3.916   5.750   3.987
 4494TIP3    H113425   3.923   5.824   4.047
 4494TIP3    H213426   3.935   5.673   4.041
 4495TIP3   OH213427   3.102   6.250   2.901
 4495TIP3    H113428   3.193   6.254   2.873
 4495TIP3    H213429   3.102   6.191   2.977
 4496TIP3   OH213430   7.954   6.558   4.093
 4496TIP3    H113431   7.988   6.469   4.107
 4496TIP3    H213432   7.984   6.582   4.006
 4497TIP3   OH213433   7.890   3.021   5.973
 4497TIP3    H113434   7.881   3.048   6.065
 4497TIP3    H213435   7.839   2.940   5.968
 4498TIP3   OH213436   1.623   2.087   3.639
 4498TIP3    H113437   1.637   2.154   3.572
 4498TIP3    H213438   1.626   2.135   3.721
 4499TIP3   OH213439   3.804   6.450   0.112
 4499TIP3    H113440   3.893   6.484   0.102
 4499TIP3    H213441   3.797   6.429   0.206
 4500TIP3   OH213442   6.997   5.632   0.313
 4500TIP3    H113443   6.911   5.651   0.352
 4500TIP3    H213444   7.059   5.642   0.385
 4501TIP3   OH213445   1.481   4.491   6.785
 4501TIP3    H113446   1.437   4.537   6.714
 4501TIP3    H213447   1.531   4.423   6.742
 4502TIP3   OH213448   5.750   5.253   6.420
 4502TIP3    H113449   5.801   5.173   6.433
 4502TIP3    H213450   5.660   5.227   6.441
 4503TIP3   OH213451   2.905   5.531   4.043
 4503TIP3    H113452   2.896   5.603   4.106
 4503TIP3    H213453   2.825   5.480   4.053
 4504TIP3   OH213454   6.791   1.874   3.865
 4504TIP3    H113455   6.866   1.921   3.828
 4504TIP3    H213456   6.716   1.904   3.813
 4505TIP3   OH213457   5.654   7.585   4.707
 4505TIP3    H113458   5.642   7.490   4.711
 4505TIP3    H213459   5.641   7.615   4.797
 4506TIP3   OH213460   0.536   5.358   5.284
 4506TIP3    H113461   0.458   5.412   5.281
 4506TIP3    H213462   0.503   5.268   5.292
 4507TIP3   OH213463   0.131   3.006   6.318
 4507TIP3    H113464   0.150   2.948   6.245
 4507TIP3    H213465   0.213   3.009   6.368
 4508TIP3   OH213466   5.961   5.560   5.066
 4508TIP3    H113467   5.906   5.638   5.073
 4508TIP3    H213468   5.986   5.557   4.973
 4509TIP3   OH213469   6.670   3.345   4.650
 4509TIP3    H113470   6.740   3.289   4.682
 4509TIP3    H213471   6.713   3.406   4.591
 4510TIP3   OH213472   6.391   2.166   4.261
 4510TIP3    H113473   6.380   2.181   4.355
 4510TIP3    H213474   6.481   2.191   4.243
 4511TIP3   OH213475   1.278   1.700   2.426
 4511TIP3    H113476   1.189   1.717   2.455
 4511TIP3    H213477   1.270   1.679   2.333
 4512TIP3   OH213478   1.596   3.859   2.263
 4512TIP3    H113479   1.655   3.843   2.189
 4512TIP3    H213480   1.632   3.935   2.306
 4513TIP3   OH213481   6.330   3.853   3.087
 4513TIP3    H113482   6.261   3.791   3.065
 4513TIP3    H213483   6.386   3.855   3.010
 4514TIP3   OH213484   1.644   2.270   3.451
 4514TIP3    H113485   1.705   2.250   3.380
 4514TIP3    H213486   1.573   2.319   3.409
 4515TIP3   OH213487   5.074   6.705   0.864
 4515TIP3    H113488   5.022   6.779   0.831
 4515TIP3    H213489   5.103   6.659   0.785
 4516TIP3   OH213490   5.197   0.590   4.973
 4516TIP3    H113491   5.155   0.537   4.906
 4516TIP3    H213492   5.275   0.626   4.930
 4517TIP3   OH213493   6.429   7.743   4.436
 4517TIP3    H113494   6.398   7.721   4.524
 4517TIP3    H213495   6.520   7.713   4.434
 4518TIP3   OH213496   1.478   3.851   1.730
 4518TIP3    H113497   1.446   3.835   1.818
 4518TIP3    H213498   1.520   3.937   1.735
 4519TIP3   OH213499   1.651   5.042   4.413
 4519TIP3    H113500   1.608   5.011   4.493
 4519TIP3    H213501   1.743   5.048   4.436
 4520TIP3   OH213502   6.184   2.025   4.164
 4520TIP3    H113503   6.245   2.077   4.216
 4520TIP3    H213504   6.198   2.054   4.074
 4521TIP3   OH213505   3.567   4.513   0.372
 4521TIP3    H113506   3.487   4.535   0.419
 4521TIP3    H213507   3.636   4.561   0.418
 4522TIP3   OH213508   1.791   0.716   4.200
 4522TIP3    H113509   1.749   0.643   4.246
 4522TIP3    H213510   1.838   0.676   4.128
 4523TIP3   OH213511   6.397   2.977   1.511
 4523TIP3    H113512   6.420   3.068   1.532
 4523TIP3    H213513   6.448   2.925   1.573
 4524TIP3   OH213514   0.471   6.815   2.549
 4524TIP3    H113515   0.470   6.906   2.517
 4524TIP3    H213516   0.454   6.763   2.471
 4525TIP3   OH213517   5.136   1.180   6.026
 4525TIP3    H113518   5.110   1.114   6.089
 4525TIP3    H213519   5.064   1.244   6.027
 4526TIP3   OH213520   2.435   6.559   2.217
 4526TIP3    H113521   2.347   6.526   2.229
 4526TIP3    H213522   2.451   6.552   2.123
 4527TIP3   OH213523   1.902   7.579   0.916
 4527TIP3    H113524   1.806   7.576   0.922
 4527TIP3    H213525   1.919   7.645   0.849
 4528TIP3   OH213526   6.414   0.034   2.767
 4528TIP3    H113527   6.388  -0.058   2.763
 4528TIP3    H213528   6.337   0.082   2.738
 4529TIP3   OH213529   1.313   5.678   2.604
 4529TIP3    H113530   1.260   5.618   2.657
 4529TIP3    H213531   1.354   5.737   2.667
 4530TIP3   OH213532   6.960   5.036   2.300
 4530TIP3    H113533   6.895   5.049   2.231
 4530TIP3    H213534   6.969   4.941   2.307
 4531TIP3   OH213535   4.123   6.498   2.959
 4531TIP3    H113536   4.081   6.554   2.894
 4531TIP3    H213537   4.206   6.540   2.977
 4532TIP3   OH213538   7.752   5.743   1.980
 4532TIP3    H113539   7.795   5.768   1.899
 4532TIP3    H213540   7.814   5.769   2.049
 4533TIP3   OH213541   5.171   7.681   4.436
 4533TIP3    H113542   5.125   7.610   4.480
 4533TIP3    H213543   5.252   7.691   4.486
 4534TIP3   OH213544   5.388   3.290   6.663
 4534TIP3    H113545   5.380   3.248   6.578
 4534TIP3    H213546   5.370   3.383   6.646
 4535TIP3   OH213547   3.902   6.424   2.641
 4535TIP3    H113548   3.977   6.482   2.626
 4535TIP3    H213549   3.831   6.464   2.592
 4536TIP3   OH213550   1.347   1.847   4.047
 4536TIP3    H113551   1.366   1.866   3.955
 4536TIP3    H213552   1.261   1.888   4.063
 4537TIP3   OH213553   0.265   7.600   3.548
 4537TIP3    H113554   0.235   7.630   3.634
 4537TIP3    H213555   0.233   7.510   3.541
 4538TIP3   OH213556   4.692   6.387   0.179
 4538TIP3    H113557   4.609   6.362   0.136
 4538TIP3    H213558   4.752   6.316   0.157
 4539TIP3   OH213559   5.354   4.465   5.108
 4539TIP3    H113560   5.432   4.494   5.155
 4539TIP3    H213561   5.388   4.415   5.034
 4540TIP3   OH213562   4.579   4.567   2.944
 4540TIP3    H113563   4.501   4.587   2.995
 4540TIP3    H213564   4.623   4.651   2.934
 4541TIP3   OH213565   5.009   3.257   0.627
 4541TIP3    H113566   5.063   3.197   0.575
 4541TIP3    H213567   4.971   3.203   0.696
 4542TIP3   OH213568   2.688   0.651   2.914
 4542TIP3    H113569   2.662   0.588   2.981
 4542TIP3    H213570   2.726   0.597   2.844
 4543TIP3   OH213571   0.157   7.683   4.951
 4543TIP3    H113572   0.217   7.620   4.990
 4543TIP3    H213573   0.185   7.688   4.859
 4544TIP3   OH213574   5.981   1.872   6.450
 4544TIP3    H113575   6.071   1.901   6.438
 4544TIP3    H213576   5.941   1.878   6.363
 4545TIP3   OH213577   2.118   3.958   4.341
 4545TIP3    H113578   2.161   4.023   4.285
 4545TIP3    H213579   2.047   4.007   4.383
 4546TIP3   OH213580   7.767   7.462   3.522
 4546TIP3    H113581   7.686   7.493   3.482
 4546TIP3    H213582   7.754   7.476   3.616
 4547TIP3   OH213583   4.439   5.073   1.592
 4547TIP3    H113584   4.437   5.105   1.682
 4547TIP3    H213585   4.353   5.031   1.580
 4548TIP3   OH213586   3.585   3.112   4.005
 4548TIP3    H113587   3.615   3.190   3.958
 4548TIP3    H213588   3.664   3.064   4.026
 4549TIP3   OH213589   4.241   4.888   2.937
 4549TIP3    H113590   4.307   4.940   2.890
 4549TIP3    H213591   4.292   4.820   2.983
 4550TIP3   OH213592   3.697   4.384   1.503
 4550TIP3    H113593   3.753   4.426   1.569
 4550TIP3    H213594   3.759   4.340   1.445
 4551TIP3   OH213595   3.499   3.270   0.353
 4551TIP3    H113596   3.520   3.183   0.389
 4551TIP3    H213597   3.403   3.272   0.350
 4552TIP3   OH213598   5.778   4.379   5.867
 4552TIP3    H113599   5.785   4.293   5.908
 4552TIP3    H213600   5.794   4.363   5.774
 4553TIP3   OH213601   7.094   4.910   1.388
 4553TIP3    H113602   7.120   4.873   1.304
 4553TIP3    H213603   7.173   4.904   1.442
 4554TIP3   OH213604   3.047   4.909   6.277
 4554TIP3    H113605   3.096   4.985   6.246
 4554TIP3    H213606   3.007   4.938   6.359
 4555TIP3   OH213607   7.907   2.730   3.059
 4555TIP3    H113608   7.908   2.635   3.046
 4555TIP3    H213609   7.984   2.748   3.113
 4556TIP3   OH213610   5.959   4.053   1.814
 4556TIP3    H113611   6.025   4.043   1.882
 4556TIP3    H213612   5.932   3.963   1.793
 4557TIP3   OH213613   2.549   3.183   3.124
 4557TIP3    H113614   2.588   3.121   3.186
 4557TIP3    H213615   2.498   3.128   3.065
 4558TIP3   OH213616   3.754   5.015   4.510
 4558TIP3    H113617   3.686   4.955   4.479
 4558TIP3    H213618   3.836   4.969   4.496
 4559TIP3   OH213619   0.748   2.843   1.353
 4559TIP3    H113620   0.729   2.809   1.441
 4559TIP3    H213621   0.810   2.780   1.316
 4560TIP3   OH213622   0.417   1.310   5.138
 4560TIP3    H113623   0.332   1.283   5.105
 4560TIP3    H213624   0.398   1.383   5.196
 4561TIP3   OH213625   3.640   0.663   4.174
 4561TIP3    H113626   3.662   0.615   4.094
 4561TIP3    H213627   3.705   0.734   4.178
 4562TIP3   OH213628   7.235   6.650   5.611
 4562TIP3    H113629   7.159   6.623   5.663
 4562TIP3    H213630   7.267   6.729   5.653
 4563TIP3   OH213631   7.912   3.858   5.360
 4563TIP3    H113632   7.860   3.855   5.440
 4563TIP3    H213633   7.934   3.767   5.341
 4564TIP3   OH213634   2.005   1.287   5.747
 4564TIP3    H113635   1.968   1.321   5.828
 4564TIP3    H213636   2.052   1.362   5.709
 4565TIP3   OH213637   6.214   3.980   3.330
 4565TIP3    H113638   6.271   3.955   3.403
 4565TIP3    H213639   6.232   3.915   3.263
 4566TIP3   OH213640   5.289   3.602   2.440
 4566TIP3    H113641   5.245   3.647   2.368
 4566TIP3    H213642   5.246   3.517   2.446
 4567TIP3   OH213643   1.579   1.946   3.113
 4567TIP3    H113644   1.553   2.033   3.082
 4567TIP3    H213645   1.544   1.941   3.202
 4568TIP3   OH213646   3.894   4.486   0.410
 4568TIP3    H113647   3.989   4.477   0.396
 4568TIP3    H213648   3.855   4.460   0.326
 4569TIP3   OH213649   3.550   0.627   1.951
 4569TIP3    H113650   3.606   0.700   1.924
 4569TIP3    H213651   3.469   0.669   1.979
 4570TIP3   OH213652   4.166   2.359   3.418
 4570TIP3    H113653   4.074   2.364   3.444
 4570TIP3    H213654   4.207   2.302   3.484
 4571TIP3   OH213655   3.527   2.387   3.548
 4571TIP3    H113656   3.518   2.423   3.636
 4571TIP3    H213657   3.565   2.458   3.497
 4572TIP3   OH213658   2.123   6.578   4.067
 4572TIP3    H113659   2.082   6.512   4.011
 4572TIP3    H213660   2.202   6.604   4.020
 4573TIP3   OH213661   5.749   3.771   4.718
 4573TIP3    H113662   5.718   3.859   4.699
 4573TIP3    H213663   5.745   3.764   4.814
 4574TIP3   OH213664   5.119   6.072   0.290
 4574TIP3    H113665   5.061   6.010   0.333
 4574TIP3    H213666   5.147   6.028   0.210
 4575TIP3   OH213667   1.097   5.736   3.327
 4575TIP3    H113668   1.014   5.714   3.369
 4575TIP3    H213669   1.071   5.781   3.246
 4576TIP3   OH213670   4.390   0.735   3.927
 4576TIP3    H113671   4.343   0.810   3.890
 4576TIP3    H213672   4.466   0.724   3.870
 4577TIP3   OH213673   1.314   3.518   6.086
 4577TIP3    H113674   1.352   3.591   6.136
 4577TIP3    H213675   1.278   3.560   6.008
 4578TIP3   OH213676   1.382   2.426   4.762
 4578TIP3    H113677   1.411   2.504   4.715
 4578TIP3    H213678   1.370   2.455   4.853
 4579TIP3   OH213679   5.693   3.907   0.937
 4579TIP3    H113680   5.727   3.991   0.909
 4579TIP3    H213681   5.768   3.848   0.932
 4580TIP3   OH213682   6.285   6.508   0.782
 4580TIP3    H113683   6.308   6.452   0.708
 4580TIP3    H213684   6.191   6.521   0.774
 4581TIP3   OH213685   0.954   6.816   2.224
 4581TIP3    H113686   1.033   6.867   2.239
 4581TIP3    H213687   0.973   6.764   2.146
 4582TIP3   OH213688   7.673   5.207   4.701
 4582TIP3    H113689   7.711   5.169   4.779
 4582TIP3    H213690   7.648   5.295   4.727
 4583TIP3   OH213691   5.745   1.279   1.064
 4583TIP3    H113692   5.698   1.362   1.055
 4583TIP3    H213693   5.806   1.278   0.991
 4584TIP3   OH213694   0.577   0.273   2.106
 4584TIP3    H113695   0.575   0.271   2.010
 4584TIP3    H213696   0.635   0.347   2.127
 4585TIP3   OH213697   1.776   5.584   1.349
 4585TIP3    H113698   1.763   5.627   1.264
 4585TIP3    H213699   1.764   5.490   1.330
 4586TIP3   OH213700   5.370   3.231   0.538
 4586TIP3    H113701   5.393   3.192   0.622
 4586TIP3    H213702   5.322   3.162   0.492
 4587TIP3   OH213703   6.432   4.958   6.275
 4587TIP3    H113704   6.478   4.877   6.295
 4587TIP3    H213705   6.366   4.966   6.344
 4588TIP3   OH213706   6.365   4.446   6.666
 4588TIP3    H113707   6.448   4.443   6.619
 4588TIP3    H213708   6.298   4.438   6.598
 4589TIP3   OH213709   0.921   0.008   3.869
 4589TIP3    H113710   0.961   0.065   3.935
 4589TIP3    H213711   0.981   0.010   3.795
 4590TIP3   OH213712   6.969   1.423   3.069
 4590TIP3    H113713   6.930   1.399   2.985
 4590TIP3    H213714   7.051   1.465   3.046
 4591TIP3   OH213715   5.747   1.776   5.323
 4591TIP3    H113716   5.720   1.736   5.405
 4591TIP3    H213717   5.819   1.835   5.347
 4592TIP3   OH213718   7.079   0.837   6.367
 4592TIP3    H113719   7.155   0.783   6.390
 4592TIP3    H213720   7.041   0.862   6.451
 4593TIP3   OH213721   1.730   6.632   2.124
 4593TIP3    H113722   1.780   6.592   2.053
 4593TIP3    H213723   1.783   6.707   2.151
 4594TIP3   OH213724   3.345   7.366   0.545
 4594TIP3    H113725   3.415   7.373   0.481
 4594TIP3    H213726   3.337   7.454   0.582
 4595TIP3   OH213727   4.974   1.780   2.123
 4595TIP3    H113728   4.994   1.818   2.037
 4595TIP3    H213729   5.044   1.810   2.180
 4596TIP3   OH213730   5.053   1.444   5.573
 4596TIP3    H113731   5.100   1.453   5.490
 4596TIP3    H213732   5.094   1.370   5.617
 4597TIP3   OH213733   0.616   3.035   5.916
 4597TIP3    H113734   0.578   2.950   5.893
 4597TIP3    H213735   0.681   3.051   5.848
 4598TIP3   OH213736   0.588   5.686   1.627
 4598TIP3    H113737   0.558   5.599   1.603
 4598TIP3    H213738   0.591   5.735   1.545
 4599TIP3   OH213739   2.647   4.606   3.718
 4599TIP3    H113740   2.704   4.556   3.659
 4599TIP3    H213741   2.702   4.676   3.751
 4600TIP3   OH213742   1.661   4.268   5.653
 4600TIP3    H113743   1.744   4.270   5.605
 4600TIP3    H213744   1.616   4.348   5.627
 4601TIP3   OH213745   4.321   5.409   1.020
 4601TIP3    H113746   4.270   5.453   0.952
 4601TIP3    H213747   4.268   5.334   1.046
 4602TIP3   OH213748   2.739   6.906   3.360
 4602TIP3    H113749   2.743   6.944   3.448
 4602TIP3    H213750   2.645   6.895   3.343
 4603TIP3   OH213751   7.920   1.235   0.529
 4603TIP3    H113752   7.903   1.312   0.584
 4603TIP3    H213753   7.979   1.180   0.580
 4604TIP3   OH213754   0.212   5.697   0.165
 4604TIP3    H113755   0.120   5.698   0.140
 4604TIP3    H213756   0.229   5.607   0.191
 4605TIP3   OH213757   7.194   0.761   4.675
 4605TIP3    H113758   7.195   0.665   4.666
 4605TIP3    H213759   7.281   0.789   4.647
 4606TIP3   OH213760   6.662   3.987   1.532
 4606TIP3    H113761   6.715   3.929   1.587
 4606TIP3    H213762   6.726   4.044   1.489
 4607TIP3   OH213763   1.130   7.179   5.808
 4607TIP3    H113764   1.154   7.265   5.775
 4607TIP3    H213765   1.034   7.177   5.803
 4608TIP3   OH213766   5.626   3.087   4.682
 4608TIP3    H113767   5.637   3.174   4.646
 4608TIP3    H213768   5.709   3.068   4.725
 4609TIP3   OH213769   3.240   2.320   3.461
 4609TIP3    H113770   3.239   2.342   3.368
 4609TIP3    H213771   3.333   2.325   3.486
 4610TIP3   OH213772   6.862   4.137   5.979
 4610TIP3    H113773   6.893   4.073   5.915
 4610TIP3    H213774   6.920   4.212   5.968
 4611TIP3   OH213775   4.933   6.417   3.212
 4611TIP3    H113776   4.934   6.491   3.273
 4611TIP3    H213777   4.969   6.344   3.263
 4612TIP3   OH213778   7.173   4.336   6.419
 4612TIP3    H113779   7.234   4.401   6.453
 4612TIP3    H213780   7.208   4.252   6.449
 4613TIP3   OH213781   4.760   2.658   2.197
 4613TIP3    H113782   4.734   2.682   2.286
 4613TIP3    H213783   4.708   2.715   2.140
 4614TIP3   OH213784   7.131   2.478   5.248
 4614TIP3    H113785   7.099   2.554   5.200
 4614TIP3    H213786   7.065   2.462   5.315
 4615TIP3   OH213787   0.706   0.797   4.927
 4615TIP3    H113788   0.677   0.709   4.950
 4615TIP3    H213789   0.696   0.802   4.832
 4616TIP3   OH213790   3.005   4.164   2.960
 4616TIP3    H113791   3.053   4.102   2.905
 4616TIP3    H213792   3.007   4.124   3.047
 4617TIP3   OH213793   0.829   0.607   3.884
 4617TIP3    H113794   0.867   0.520   3.884
 4617TIP3    H213795   0.864   0.649   3.805
 4618TIP3   OH213796   7.159   5.633   6.370
 4618TIP3    H113797   7.097   5.613   6.299
 4618TIP3    H213798   7.103   5.645   6.447
 4619TIP3   OH213799   0.557   4.061   4.521
 4619TIP3    H113800   0.539   4.098   4.607
 4619TIP3    H213801   0.617   3.988   4.539
 4620TIP3   OH213802   5.265   3.528   5.417
 4620TIP3    H113803   5.183   3.491   5.451
 4620TIP3    H213804   5.280   3.482   5.335
 4621TIP3   OH213805   7.217   3.990   3.012
 4621TIP3    H113806   7.245   4.073   3.049
 4621TIP3    H213807   7.293   3.933   3.021
 4622TIP3   OH213808   8.159   3.736   5.066
 4622TIP3    H113809   8.226   3.769   5.125
 4622TIP3    H213810   8.103   3.681   5.121
 4623TIP3   OH213811   2.058   5.859   3.204
 4623TIP3    H113812   2.091   5.909   3.130
 4623TIP3    H213813   2.137   5.829   3.250
 4624TIP3   OH213814   7.755   1.036   3.118
 4624TIP3    H113815   7.677   1.061   3.169
 4624TIP3    H213816   7.733   1.061   3.028
 4625TIP3   OH213817   4.821   5.537   3.086
 4625TIP3    H113818   4.848   5.518   3.176
 4625TIP3    H213819   4.895   5.584   3.048
 4626TIP3   OH213820   7.947   6.761   6.287
 4626TIP3    H113821   7.986   6.806   6.362
 4626TIP3    H213822   8.015   6.761   6.221
 4627TIP3   OH213823   7.745   7.449   3.785
 4627TIP3    H113824   7.771   7.393   3.859
 4627TIP3    H213825   7.650   7.435   3.778
 4628TIP3   OH213826   2.577   5.610   1.551
 4628TIP3    H113827   2.657   5.557   1.554
 4628TIP3    H213828   2.510   5.549   1.520
 4629TIP3   OH213829   2.886   0.101   6.120
 4629TIP3    H113830   2.875   0.028   6.181
 4629TIP3    H213831   2.944   0.067   6.052
 4630TIP3   OH213832   5.679   0.842   0.317
 4630TIP3    H113833   5.629   0.904   0.370
 4630TIP3    H213834   5.617   0.772   0.297
 4631TIP3   OH213835   7.678   3.331   0.941
 4631TIP3    H113836   7.709   3.285   1.020
 4631TIP3    H213837   7.633   3.264   0.890
 4632TIP3   OH213838   4.210   7.135   4.943
 4632TIP3    H113839   4.230   7.225   4.915
 4632TIP3    H213840   4.262   7.080   4.884
 4633TIP3   OH213841   5.639   6.242   2.796
 4633TIP3    H113842   5.655   6.334   2.814
 4633TIP3    H213843   5.708   6.195   2.842
 4634TIP3   OH213844   3.508   1.260   5.311
 4634TIP3    H113845   3.504   1.229   5.220
 4634TIP3    H213846   3.466   1.192   5.362
 4635TIP3   OH213847   2.378   2.797   3.299
 4635TIP3    H113848   2.396   2.890   3.317
 4635TIP3    H213849   2.460   2.763   3.263
 4636TIP3   OH213850   7.453   1.229   1.938
 4636TIP3    H113851   7.368   1.186   1.941
 4636TIP3    H213852   7.503   1.179   1.874
 4637TIP3   OH213853   2.623   7.664   5.364
 4637TIP3    H113854   2.587   7.714   5.437
 4637TIP3    H213855   2.640   7.577   5.401
 4638TIP3   OH213856   6.381   4.318   3.402
 4638TIP3    H113857   6.435   4.254   3.448
 4638TIP3    H213858   6.298   4.273   3.386
 4639TIP3   OH213859   2.001   7.236   1.478
 4639TIP3    H113860   1.928   7.294   1.499
 4639TIP3    H213861   2.057   7.238   1.556
 4640TIP3   OH213862   5.547   1.182   3.726
 4640TIP3    H113863   5.476   1.134   3.770
 4640TIP3    H213864   5.509   1.210   3.643
 4641TIP3   OH213865   4.789   0.458   2.719
 4641TIP3    H113866   4.825   0.405   2.648
 4641TIP3    H213867   4.695   0.462   2.700
 4642TIP3   OH213868   4.454   0.472   4.483
 4642TIP3    H113869   4.461   0.395   4.540
 4642TIP3    H213870   4.419   0.439   4.401
 4643TIP3   OH213871   4.619   5.315   3.728
 4643TIP3    H113872   4.653   5.354   3.647
 4643TIP3    H213873   4.616   5.388   3.790
 4644TIP3   OH213874   8.270   7.484   4.716
 4644TIP3    H113875   8.291   7.431   4.793
 4644TIP3    H213876   8.207   7.548   4.746
 4645TIP3   OH213877   0.250   2.138   5.011
 4645TIP3    H113878   0.299   2.136   5.093
 4645TIP3    H213879   0.314   2.112   4.944
 4646TIP3   OH213880   1.756   4.362   4.510
 4646TIP3    H113881   1.702   4.284   4.523
 4646TIP3    H213882   1.766   4.369   4.415
 4647TIP3   OH213883   2.317   4.014   1.387
 4647TIP3    H113884   2.349   4.027   1.477
 4647TIP3    H213885   2.353   4.087   1.338
 4648TIP3   OH213886   6.144   5.322   1.977
 4648TIP3    H113887   6.157   5.388   2.045
 4648TIP3    H213888   6.222   5.328   1.922
 4649TIP3   OH213889   4.917   6.564   5.461
 4649TIP3    H113890   4.932   6.624   5.533
 4649TIP3    H213891   4.949   6.611   5.384
 4650TIP3   OH213892   4.418   0.349   1.971
 4650TIP3    H113893   4.397   0.326   2.061
 4650TIP3    H213894   4.442   0.267   1.929
 4651TIP3   OH213895   7.340   6.819   0.219
 4651TIP3    H113896   7.272   6.799   0.155
 4651TIP3    H213897   7.354   6.913   0.211
 4652TIP3   OH213898   5.520   5.871   5.763
 4652TIP3    H113899   5.565   5.816   5.828
 4652TIP3    H213900   5.536   5.827   5.680
 4653TIP3   OH213901   0.145   0.085   1.491
 4653TIP3    H113902   0.087   0.045   1.556
 4653TIP3    H213903   0.108   0.058   1.407
 4654TIP3   OH213904   3.370   5.038   1.220
 4654TIP3    H113905   3.295   4.983   1.243
 4654TIP3    H213906   3.334   5.107   1.166
 4655TIP3   OH213907   5.991   5.859   2.952
 4655TIP3    H113908   6.058   5.882   3.017
 4655TIP3    H213909   6.023   5.778   2.913
 4656TIP3   OH213910   7.886   0.610   1.683
 4656TIP3    H113911   7.975   0.577   1.693
 4656TIP3    H213912   7.838   0.574   1.758
 4657TIP3   OH213913   0.469   3.565   3.740
 4657TIP3    H113914   0.457   3.628   3.811
 4657TIP3    H213915   0.433   3.483   3.774
 4658TIP3   OH213916   4.820   7.831   0.359
 4658TIP3    H113917   4.827   7.805   0.450
 4658TIP3    H213918   4.757   7.769   0.321
 4659TIP3   OH213919   4.792   7.726   3.933
 4659TIP3    H113920   4.760   7.771   3.854
 4659TIP3    H213921   4.883   7.756   3.942
 4660TIP3   OH213922   1.937   7.632   4.730
 4660TIP3    H113923   1.978   7.689   4.665
 4660TIP3    H213924   1.974   7.546   4.712
 4661TIP3   OH213925   3.832   1.420   5.769
 4661TIP3    H113926   3.889   1.362   5.718
 4661TIP3    H213927   3.787   1.362   5.830
 4662TIP3   OH213928   6.540   4.694   3.587
 4662TIP3    H113929   6.588   4.636   3.527
 4662TIP3    H213930   6.449   4.689   3.557
 4663TIP3   OH213931   7.632   4.617   5.704
 4663TIP3    H113932   7.628   4.522   5.705
 4663TIP3    H213933   7.541   4.645   5.708
 4664TIP3   OH213934   8.250   6.770   5.063
 4664TIP3    H113935   8.277   6.731   4.980
 4664TIP3    H213936   8.280   6.708   5.129
 4665TIP3   OH213937   6.145   2.442   6.683
 4665TIP3    H113938   6.234   2.475   6.695
 4665TIP3    H213939   6.152   2.383   6.608
 4666TIP3   OH213940   3.591   2.740   1.424
 4666TIP3    H113941   3.623   2.828   1.407
 4666TIP3    H213942   3.503   2.738   1.386
 4667TIP3   OH213943   3.765   4.684   6.225
 4667TIP3    H113944   3.766   4.772   6.263
 4667TIP3    H213945   3.857   4.658   6.222
 4668TIP3   OH213946   6.789   3.638   3.189
 4668TIP3    H113947   6.774   3.685   3.271
 4668TIP3    H213948   6.859   3.687   3.146
 4669TIP3   OH213949   7.860   7.105   1.971
 4669TIP3    H113950   7.786   7.165   1.986
 4669TIP3    H213951   7.936   7.151   2.007
 4670TIP3   OH213952   2.361   7.579   3.387
 4670TIP3    H113953   2.440   7.525   3.395
 4670TIP3    H213954   2.299   7.541   3.449
 4671TIP3   OH213955   6.502   1.741   0.427
 4671TIP3    H113956   6.502   1.749   0.522
 4671TIP3    H213957   6.595   1.746   0.403
 4672TIP3   OH213958   0.671   5.409   4.663
 4672TIP3    H113959   0.741   5.437   4.722
 4672TIP3    H213960   0.713   5.344   4.606
 4673TIP3   OH213961   0.387   2.699   4.472
 4673TIP3    H113962   0.298   2.677   4.500
 4673TIP3    H213963   0.414   2.770   4.531
 4674TIP3   OH213964   3.936   4.510   5.700
 4674TIP3    H113965   4.009   4.516   5.638
 4674TIP3    H213966   3.868   4.566   5.662
 4675TIP3   OH213967   5.324   2.771   0.172
 4675TIP3    H113968   5.404   2.822   0.164
 4675TIP3    H213969   5.336   2.697   0.112
 4676TIP3   OH213970   7.022   7.164   6.270
 4676TIP3    H113971   7.021   7.184   6.177
 4676TIP3    H213972   6.934   7.189   6.300
 4677TIP3   OH213973   2.849   4.281   0.129
 4677TIP3    H113974   2.775   4.230   0.098
 4677TIP3    H213975   2.850   4.359   0.073
 4678TIP3   OH213976   7.701   5.468   1.202
 4678TIP3    H113977   7.646   5.412   1.258
 4678TIP3    H213978   7.689   5.556   1.237
 4679TIP3   OH213979   0.092   1.224   2.077
 4679TIP3    H113980   0.125   1.310   2.052
 4679TIP3    H213981   0.090   1.174   1.995
 4680TIP3   OH213982   2.164   6.547   2.651
 4680TIP3    H113983   2.231   6.480   2.636
 4680TIP3    H213984   2.095   6.526   2.588
 4681TIP3   OH213985   1.977   4.755   1.206
 4681TIP3    H113986   2.057   4.807   1.210
 4681TIP3    H213987   1.978   4.703   1.287
 4682TIP3   OH213988   4.968   3.396   3.009
 4682TIP3    H113989   4.878   3.425   3.024
 4682TIP3    H213990   4.959   3.320   2.951
 4683TIP3   OH213991   1.425   5.981   5.256
 4683TIP3    H113992   1.433   6.001   5.349
 4683TIP3    H213993   1.404   5.887   5.253
 4684TIP3   OH213994   2.803   3.946   4.897
 4684TIP3    H113995   2.709   3.929   4.890
 4684TIP3    H213996   2.812   4.000   4.975
 4685TIP3   OH213997   2.984   7.797   6.561
 4685TIP3    H113998   2.946   7.884   6.564
 4685TIP3    H213999   2.909   7.739   6.547
 4686TIP3   OH214000   4.498   2.151   6.283
 4686TIP3    H114001   4.539   2.139   6.368
 4686TIP3    H214002   4.562   2.201   6.232
 4687TIP3   OH214003   1.512   0.671   4.905
 4687TIP3    H114004   1.475   0.650   4.990
 4687TIP3    H214005   1.500   0.591   4.853
 4688TIP3   OH214006   6.241   3.106   1.777
 4688TIP3    H114007   6.187   3.110   1.856
 4688TIP3    H214008   6.293   3.027   1.786
 4689TIP3   OH214009   7.253   4.016   4.312
 4689TIP3    H114010   7.217   4.016   4.224
 4689TIP3    H214011   7.178   4.034   4.369
 4690TIP3   OH214012   6.975   7.768   0.731
 4690TIP3    H114013   6.928   7.850   0.739
 4690TIP3    H214014   6.909   7.701   0.751
 4691TIP3   OH214015   5.002   4.646   5.523
 4691TIP3    H114016   4.978   4.632   5.614
 4691TIP3    H214017   4.987   4.561   5.481
 4692TIP3   OH214018   1.489   2.446   3.283
 4692TIP3    H114019   1.468   2.530   3.325
 4692TIP3    H214020   1.445   2.450   3.198
 4693TIP3   OH214021   2.158   3.309   1.262
 4693TIP3    H114022   2.153   3.218   1.233
 4693TIP3    H214023   2.185   3.358   1.184
 4694TIP3   OH214024   5.473   2.252   5.552
 4694TIP3    H114025   5.411   2.321   5.574
 4694TIP3    H214026   5.535   2.293   5.491
 4695TIP3   OH214027   1.583   7.100   5.965
 4695TIP3    H114028   1.561   7.026   5.907
 4695TIP3    H214029   1.581   7.063   6.053
 4696TIP3   OH214030   4.049   1.023   2.613
 4696TIP3    H114031   3.998   0.978   2.680
 4696TIP3    H214032   4.096   1.092   2.660
 4697TIP3   OH214033   4.522   5.288   4.122
 4697TIP3    H114034   4.481   5.248   4.198
 4697TIP3    H214035   4.556   5.214   4.071
 4698TIP3   OH214036   2.113   6.697   2.170
 4698TIP3    H114037   2.100   6.610   2.133
 4698TIP3    H214038   2.151   6.748   2.099
 4699TIP3   OH214039   7.211   5.947   4.556
 4699TIP3    H114040   7.241   5.995   4.479
 4699TIP3    H214041   7.261   5.984   4.629
 4700TIP3   OH214042   3.066   5.474   2.258
 4700TIP3    H114043   3.098   5.493   2.346
 4700TIP3    H214044   3.078   5.380   2.248
 4701TIP3   OH214045   3.737   2.002   5.617
 4701TIP3    H114046   3.808   2.050   5.573
 4701TIP3    H214047   3.746   2.026   5.709
 4702TIP3   OH214048   3.747   7.112   6.017
 4702TIP3    H114049   3.784   7.096   6.103
 4702TIP3    H214050   3.730   7.206   6.015
 4703TIP3   OH214051   5.637   1.789   1.837
 4703TIP3    H114052   5.680   1.863   1.878
 4703TIP3    H214053   5.565   1.827   1.786
 4704TIP3   OH214054   7.065   5.905   2.936
 4704TIP3    H114055   7.133   5.853   2.893
 4704TIP3    H214056   7.010   5.840   2.979
 4705TIP3   OH214057   5.442   2.768   4.437
 4705TIP3    H114058   5.504   2.840   4.443
 4705TIP3    H214059   5.471   2.717   4.361
 4706TIP3   OH214060   7.288   2.559   4.478
 4706TIP3    H114061   7.379   2.589   4.470
 4706TIP3    H214062   7.246   2.624   4.534
 4707TIP3   OH214063   0.857   5.382   4.070
 4707TIP3    H114064   0.862   5.306   4.127
 4707TIP3    H214065   0.897   5.453   4.120
 4708TIP3   OH214066   0.835   7.147   5.718
 4708TIP3    H114067   0.776   7.087   5.673
 4708TIP3    H214068   0.848   7.219   5.656
 4709TIP3   OH214069   2.958   2.550   1.682
 4709TIP3    H114070   2.927   2.628   1.636
 4709TIP3    H214071   3.047   2.572   1.710
 4710TIP3   OH214072   2.880   1.292   4.248
 4710TIP3    H114073   2.795   1.328   4.225
 4710TIP3    H214074   2.940   1.331   4.184
 4711TIP3   OH214075   0.246   6.150   6.664
 4711TIP3    H114076   0.288   6.236   6.661
 4711TIP3    H214077   0.276   6.110   6.745
 4712TIP3   OH214078   3.796   6.710   3.075
 4712TIP3    H114079   3.758   6.697   2.989
 4712TIP3    H214080   3.881   6.750   3.058
 4713TIP3   OH214081   2.199   6.070   4.215
 4713TIP3    H114082   2.250   6.011   4.271
 4713TIP3    H214083   2.109   6.038   4.221
 4714TIP3   OH214084   2.533   6.273   3.303
 4714TIP3    H114085   2.623   6.244   3.284
 4714TIP3    H214086   2.519   6.346   3.242
 4715TIP3   OH214087   8.289   6.723   1.833
 4715TIP3    H114088   8.332   6.652   1.785
 4715TIP3    H214089   8.252   6.780   1.766
 4716TIP3   OH214090   1.035   1.720   5.566
 4716TIP3    H114091   0.996   1.802   5.594
 4716TIP3    H214092   1.129   1.732   5.582
 4717TIP3   OH214093   7.592   6.752   6.232
 4717TIP3    H114094   7.605   6.673   6.179
 4717TIP3    H214095   7.680   6.783   6.251
 4718TIP3   OH214096   0.763   1.008   3.548
 4718TIP3    H114097   0.799   0.919   3.546
 4718TIP3    H214098   0.694   1.007   3.482
 4719TIP3   OH214099   7.240   2.470   4.143
 4719TIP3    H114100   7.329   2.447   4.119
 4719TIP3    H214101   7.243   2.563   4.164
 4720TIP3   OH214102   8.174   5.804   2.141
 4720TIP3    H114103   8.248   5.829   2.197
 4720TIP3    H214104   8.190   5.713   2.118
 4721TIP3   OH214105   2.948   2.067   4.463
 4721TIP3    H114106   2.895   2.089   4.540
 4721TIP3    H214107   3.027   2.120   4.472
 4722TIP3   OH214108   2.597   4.707   1.743
 4722TIP3    H114109   2.555   4.652   1.808
 4722TIP3    H214110   2.591   4.796   1.778
 4723TIP3   OH214111   6.119   3.643   5.626
 4723TIP3    H114112   6.093   3.586   5.698
 4723TIP3    H214113   6.215   3.648   5.633
 4724TIP3   OH214114   5.825   4.537   3.493
 4724TIP3    H114115   5.776   4.514   3.572
 4724TIP3    H214116   5.916   4.515   3.513
 4725TIP3   OH214117   3.011   6.299   0.752
 4725TIP3    H114118   3.066   6.306   0.674
 4725TIP3    H214119   3.056   6.353   0.817
 4726TIP3   OH214120   1.414   2.071   2.278
 4726TIP3    H114121   1.497   2.115   2.294
 4726TIP3    H214122   1.354   2.142   2.252
 4727TIP3   OH214123   3.694   4.281   6.468
 4727TIP3    H114124   3.629   4.350   6.482
 4727TIP3    H214125   3.659   4.230   6.395
 4728TIP3   OH214126   2.537   2.270   4.256
 4728TIP3    H114127   2.503   2.357   4.234
 4728TIP3    H214128   2.632   2.282   4.261
 4729TIP3   OH214129   3.954   4.929   2.547
 4729TIP3    H114130   3.978   4.893   2.632
 4729TIP3    H214131   4.032   4.975   2.517
 4730TIP3   OH214132   6.869   2.898   6.557
 4730TIP3    H114133   6.873   2.803   6.551
 4730TIP3    H214134   6.958   2.925   6.576
 4731TIP3   OH214135   4.769   5.903   1.477
 4731TIP3    H114136   4.701   5.852   1.433
 4731TIP3    H214137   4.755   5.887   1.570
 4732TIP3   OH214138   6.562   1.292   3.096
 4732TIP3    H114139   6.516   1.374   3.076
 4732TIP3    H214140   6.504   1.224   3.062
 4733TIP3   OH214141   2.646   2.179   2.538
 4733TIP3    H114142   2.638   2.273   2.557
 4733TIP3    H214143   2.682   2.141   2.618
 4734TIP3   OH214144   6.891   3.889   5.031
 4734TIP3    H114145   6.946   3.967   5.033
 4734TIP3    H214146   6.864   3.882   4.939
 4735TIP3   OH214147   2.509   2.859   2.117
 4735TIP3    H114148   2.470   2.778   2.148
 4735TIP3    H214149   2.463   2.928   2.166
 4736TIP3   OH214150   5.986   5.898   1.703
 4736TIP3    H114151   5.991   5.898   1.798
 4736TIP3    H214152   6.071   5.866   1.674
 4737TIP3   OH214153   1.736   5.300   1.879
 4737TIP3    H114154   1.762   5.208   1.871
 4737TIP3    H214155   1.686   5.304   1.960
 4738TIP3   OH214156   0.761   0.114   0.366
 4738TIP3    H114157   0.705   0.037   0.358
 4738TIP3    H214158   0.831   0.087   0.425
 4739TIP3   OH214159   5.027   4.990   5.526
 4739TIP3    H114160   5.047   4.914   5.581
 4739TIP3    H214161   5.096   4.991   5.460
 4740TIP3   OH214162   8.185   0.409   2.254
 4740TIP3    H114163   8.256   0.358   2.293
 4740TIP3    H214164   8.156   0.357   2.179
 4741TIP3   OH214165   1.630   3.030   6.330
 4741TIP3    H114166   1.622   2.941   6.364
 4741TIP3    H214167   1.724   3.050   6.336
 4742TIP3   OH214168   4.201   4.998   4.028
 4742TIP3    H114169   4.227   4.906   4.029
 4742TIP3    H214170   4.254   5.037   3.959
 4743TIP3   OH214171   6.519   4.075   5.179
 4743TIP3    H114172   6.568   3.997   5.207
 4743TIP3    H214173   6.530   4.078   5.084
 4744TIP3   OH214174   7.791   3.257   0.206
 4744TIP3    H114175   7.868   3.265   0.261
 4744TIP3    H214176   7.818   3.294   0.122
 4745TIP3   OH214177   6.243   0.957   4.116
 4745TIP3    H114178   6.296   0.910   4.051
 4745TIP3    H214179   6.194   1.021   4.066
 4746TIP3   OH214180   5.854   7.665   6.414
 4746TIP3    H114181   5.842   7.759   6.426
 4746TIP3    H214182   5.846   7.628   6.502
 4747TIP3   OH214183   1.536   6.398   4.998
 4747TIP3    H114184   1.500   6.324   5.047
 4747TIP3    H214185   1.629   6.397   5.017
 4748TIP3   OH214186   7.471   5.717   4.041
 4748TIP3    H114187   7.424   5.706   3.958
 4748TIP3    H214188   7.431   5.794   4.081
 4749TIP3   OH214189   0.113   6.626   1.342
 4749TIP3    H114190   0.091   6.535   1.364
 4749TIP3    H214191   0.028   6.666   1.322
 4750TIP3   OH214192   2.020   0.035   6.416
 4750TIP3    H114193   1.955   0.103   6.433
 4750TIP3    H214194   1.969  -0.045   6.406
 4751TIP3   OH214195   4.735   3.057   6.559
 4751TIP3    H114196   4.685   3.099   6.629
 4751TIP3    H214197   4.753   2.968   6.592
 4752TIP3   OH214198   1.763   3.577   3.378
 4752TIP3    H114199   1.741   3.485   3.387
 4752TIP3    H214200   1.687   3.624   3.413
 4753TIP3   OH214201   6.749   1.133   2.422
 4753TIP3    H114202   6.759   1.142   2.516
 4753TIP3    H214203   6.750   1.039   2.405
 4754TIP3   OH214204   1.924   3.805   1.392
 4754TIP3    H114205   1.987   3.805   1.464
 4754TIP3    H214206   1.849   3.855   1.426
 4755TIP3   OH214207   3.404   5.555   3.472
 4755TIP3    H114208   3.487   5.593   3.501
 4755TIP3    H214209   3.344   5.570   3.545
 4756TIP3   OH214210   2.922   5.550   6.640
 4756TIP3    H114211   2.858   5.498   6.689
 4756TIP3    H214212   2.928   5.633   6.688
 4757TIP3   OH214213   5.779   6.785   1.439
 4757TIP3    H114214   5.775   6.771   1.534
 4757TIP3    H214215   5.779   6.881   1.430
 4758TIP3   OH214216   1.600   0.924   2.677
 4758TIP3    H114217   1.652   0.912   2.756
 4758TIP3    H214218   1.603   0.838   2.634
 4759TIP3   OH214219   6.758   2.727   2.008
 4759TIP3    H114220   6.776   2.727   2.102
 4759TIP3    H214221   6.703   2.804   1.993
 4760TIP3   OH214222   5.650   3.393   4.241
 4760TIP3    H114223   5.621   3.318   4.188
 4760TIP3    H214224   5.631   3.469   4.186
 4761TIP3   OH214225   1.473   4.893   4.275
 4761TIP3    H114226   1.524   4.965   4.312
 4761TIP3    H214227   1.421   4.861   4.349
 4762TIP3   OH214228   0.343   1.730   3.046
 4762TIP3    H114229   0.259   1.766   3.073
 4762TIP3    H214230   0.322   1.668   2.976
 4763TIP3   OH214231   3.470   6.833   0.813
 4763TIP3    H114232   3.413   6.763   0.781
 4763TIP3    H214233   3.536   6.788   0.866
 4764TIP3   OH214234   4.069   5.133   4.901
 4764TIP3    H114235   4.053   5.174   4.986
 4764TIP3    H214236   3.982   5.117   4.865
 4765TIP3   OH214237   8.009   4.861   1.960
 4765TIP3    H114238   7.962   4.896   1.885
 4765TIP3    H214239   8.061   4.789   1.925
 4766TIP3   OH214240   1.956   7.059   4.239
 4766TIP3    H114241   1.989   6.970   4.250
 4766TIP3    H214242   2.035   7.114   4.243
 4767TIP3   OH214243   4.137   4.599   6.624
 4767TIP3    H114244   4.120   4.516   6.668
 4767TIP3    H214245   4.060   4.612   6.568
 4768TIP3   OH214246   5.853   5.682   0.108
 4768TIP3    H114247   5.825   5.761   0.154
 4768TIP3    H214248   5.787   5.668   0.040
 4769TIP3   OH214249   6.055   4.559   0.863
 4769TIP3    H114250   6.136   4.526   0.902
 4769TIP3    H214251   6.001   4.583   0.938
 4770TIP3   OH214252   4.236   5.444   5.482
 4770TIP3    H114253   4.155   5.393   5.494
 4770TIP3    H214254   4.208   5.524   5.440
 4771TIP3   OH214255   5.727   5.907   0.242
 4771TIP3    H114256   5.754   5.995   0.271
 4771TIP3    H214257   5.713   5.859   0.323
 4772TIP3   OH214258   4.579   2.624   3.223
 4772TIP3    H114259   4.510   2.577   3.269
 4772TIP3    H214260   4.605   2.694   3.284
 4773TIP3   OH214261   6.676   3.152   5.233
 4773TIP3    H114262   6.710   3.076   5.186
 4773TIP3    H214263   6.737   3.222   5.211
 4774TIP3   OH214264   2.070   6.712   6.467
 4774TIP3    H114265   2.137   6.741   6.406
 4774TIP3    H214266   2.063   6.783   6.531
 4775TIP3   OH214267   3.793   6.706   0.852
 4775TIP3    H114268   3.777   6.626   0.903
 4775TIP3    H214269   3.888   6.711   0.844
 4776TIP3   OH214270   7.201   7.032   1.923
 4776TIP3    H114271   7.140   6.971   1.885
 4776TIP3    H214272   7.273   6.978   1.956
 4777TIP3   OH214273   2.623   3.926   1.225
 4777TIP3    H114274   2.538   3.954   1.190
 4777TIP3    H214275   2.667   3.886   1.150
 4778TIP3   OH214276   5.643   2.945   3.660
 4778TIP3    H114277   5.666   3.028   3.700
 4778TIP3    H214278   5.669   2.879   3.725
 4779TIP3   OH214279   1.336   3.636   6.606
 4779TIP3    H114280   1.275   3.690   6.556
 4779TIP3    H214281   1.360   3.565   6.547
 4780TIP3   OH214282   0.097   4.228   0.081
 4780TIP3    H114283   0.149   4.221   0.161
 4780TIP3    H214284   0.036   4.300   0.098
 4781TIP3   OH214285   6.407   5.406   5.156
 4781TIP3    H114286   6.383   5.348   5.228
 4781TIP3    H214287   6.338   5.394   5.091
 4782TIP3   OH214288   1.046   4.261   5.613
 4782TIP3    H114289   1.142   4.266   5.621
 4782TIP3    H214290   1.017   4.351   5.624
 4783TIP3   OH214291   5.757   0.709   3.264
 4783TIP3    H114292   5.711   0.656   3.329
 4783TIP3    H214293   5.689   0.766   3.227
 4784TIP3   OH214294   3.874   7.324   4.028
 4784TIP3    H114295   3.825   7.298   3.950
 4784TIP3    H214296   3.904   7.413   4.008
 4785TIP3   OH214297   4.123   3.616   2.713
 4785TIP3    H114298   4.137   3.706   2.683
 4785TIP3    H214299   4.033   3.616   2.747
 4786TIP3   OH214300   2.161   5.148   1.535
 4786TIP3    H114301   2.150   5.055   1.516
 4786TIP3    H214302   2.248   5.153   1.576
 4787TIP3   OH214303   2.866   5.817   1.557
 4787TIP3    H114304   2.846   5.747   1.620
 4787TIP3    H214305   2.795   5.813   1.494
 4788TIP3   OH214306   0.881   0.545   2.876
 4788TIP3    H114307   0.899   0.638   2.866
 4788TIP3    H214308   0.871   0.513   2.786
 4789TIP3   OH214309   2.177   5.444   2.617
 4789TIP3    H114310   2.253   5.419   2.670
 4789TIP3    H214311   2.109   5.381   2.640
 4790TIP3   OH214312   5.360   0.970   0.832
 4790TIP3    H114313   5.436   0.990   0.888
 4790TIP3    H214314   5.285   1.004   0.880
 4791TIP3   OH214315   4.471   2.788   6.249
 4791TIP3    H114316   4.514   2.871   6.268
 4791TIP3    H214317   4.534   2.721   6.275
 4792TIP3   OH214318   1.717   2.623   0.912
 4792TIP3    H114319   1.778   2.553   0.890
 4792TIP3    H214320   1.634   2.596   0.871
 4793TIP3   OH214321   0.079   3.393   5.441
 4793TIP3    H114322   0.120   3.364   5.359
 4793TIP3    H214323   0.115   3.334   5.508
 4794TIP3   OH214324   5.511   5.679   4.674
 4794TIP3    H114325   5.577   5.716   4.732
 4794TIP3    H214326   5.429   5.723   4.699
 4795TIP3   OH214327   2.189   6.279   2.420
 4795TIP3    H114328   2.235   6.263   2.503
 4795TIP3    H214329   2.156   6.193   2.394
 4796TIP3   OH214330   1.599   5.556   3.114
 4796TIP3    H114331   1.551   5.552   3.031
 4796TIP3    H214332   1.619   5.648   3.126
 4797TIP3   OH214333   7.628   4.737   1.935
 4797TIP3    H114334   7.638   4.693   1.851
 4797TIP3    H214335   7.715   4.733   1.974
 4798TIP3   OH214336   3.902   4.317   4.101
 4798TIP3    H114337   3.981   4.271   4.129
 4798TIP3    H214338   3.919   4.409   4.124
 4799TIP3   OH214339   2.676   1.236   2.712
 4799TIP3    H114340   2.716   1.259   2.628
 4799TIP3    H214341   2.744   1.250   2.777
 4800TIP3   OH214342   6.918   4.236   3.514
 4800TIP3    H114343   6.872   4.282   3.584
 4800TIP3    H214344   6.889   4.281   3.434
 4801TIP3   OH214345   6.793   2.192   5.325
 4801TIP3    H114346   6.760   2.240   5.250
 4801TIP3    H214347   6.756   2.104   5.317
 4802TIP3   OH214348   3.261   4.730   1.607
 4802TIP3    H114349   3.335   4.686   1.648
 4802TIP3    H214350   3.186   4.673   1.625
 4803TIP3   OH214351   6.874   6.517   0.909
 4803TIP3    H114352   6.802   6.489   0.965
 4803TIP3    H214353   6.833   6.538   0.826
 4804TIP3   OH214354   5.452   6.844   3.042
 4804TIP3    H114355   5.544   6.820   3.038
 4804TIP3    H214356   5.438   6.901   2.967
 4805TIP3   OH214357   4.603   2.989   2.595
 4805TIP3    H114358   4.541   3.062   2.588
 4805TIP3    H214359   4.594   2.958   2.684
 4806TIP3   OH214360   3.158   3.392   1.029
 4806TIP3    H114361   3.110   3.437   1.099
 4806TIP3    H214362   3.092   3.376   0.962
 4807TIP3   OH214363   2.625   6.655   4.260
 4807TIP3    H114364   2.642   6.675   4.168
 4807TIP3    H214365   2.667   6.570   4.275
 4808TIP3   OH214366   2.632   1.390   6.095
 4808TIP3    H114367   2.540   1.393   6.067
 4808TIP3    H214368   2.640   1.306   6.140
 4809TIP3   OH214369   1.237   2.831   1.023
 4809TIP3    H114370   1.273   2.869   1.103
 4809TIP3    H214371   1.288   2.871   0.953
 4810TIP3   OH214372   0.256   0.369   2.614
 4810TIP3    H114373   0.319   0.325   2.671
 4810TIP3    H214374   0.308   0.435   2.568
 4811TIP3   OH214375   3.853   3.836   3.156
 4811TIP3    H114376   3.947   3.839   3.176
 4811TIP3    H214377   3.821   3.922   3.183
 4812TIP3   OH214378   6.749   5.238   5.979
 4812TIP3    H114379   6.843   5.224   5.968
 4812TIP3    H214380   6.742   5.303   6.049
 4813TIP3   OH214381   6.240   3.186   5.569
 4813TIP3    H114382   6.294   3.261   5.545
 4813TIP3    H214383   6.226   3.139   5.487
 4814TIP3   OH214384   4.803   7.219   1.838
 4814TIP3    H114385   4.784   7.133   1.800
 4814TIP3    H214386   4.717   7.261   1.844
 4815TIP3   OH214387   2.665   2.570   3.003
 4815TIP3    H114388   2.676   2.645   3.061
 4815TIP3    H214389   2.578   2.583   2.964
 4816TIP3   OH214390   6.592   0.483   1.210
 4816TIP3    H114391   6.511   0.487   1.260
 4816TIP3    H214392   6.585   0.403   1.158
 4817TIP3   OH214393   1.148   6.442   0.899
 4817TIP3    H114394   1.085   6.411   0.834
 4817TIP3    H214395   1.114   6.527   0.927
 4818TIP3   OH214396   5.412   3.621   6.153
 4818TIP3    H114397   5.452   3.691   6.102
 4818TIP3    H214398   5.320   3.643   6.158
 4819TIP3   OH214399   3.406   6.573   4.774
 4819TIP3    H114400   3.496   6.565   4.741
 4819TIP3    H214401   3.398   6.502   4.838
 4820TIP3   OH214402   6.251   1.193   6.791
 4820TIP3    H114403   6.227   1.241   6.712
 4820TIP3    H214404   6.289   1.111   6.760
 4821TIP3   OH214405   7.238   4.551   4.361
 4821TIP3    H114406   7.257   4.490   4.289
 4821TIP3    H214407   7.289   4.517   4.435
 4822TIP3   OH214408   0.367   5.856   1.753
 4822TIP3    H114409   0.435   5.810   1.704
 4822TIP3    H214410   0.354   5.939   1.706
 4823TIP3   OH214411   1.399   7.179   6.694
 4823TIP3    H114412   1.436   7.235   6.762
 4823TIP3    H214413   1.355   7.239   6.634
 4824TIP3   OH214414   3.397   0.898   1.465
 4824TIP3    H114415   3.389   0.921   1.558
 4824TIP3    H214416   3.463   0.828   1.464
 4825TIP3   OH214417   6.027   4.276   5.692
 4825TIP3    H114418   6.071   4.311   5.770
 4825TIP3    H214419   6.004   4.187   5.716
 4826TIP3   OH214420   0.025   5.217   6.063
 4826TIP3    H114421   0.088   5.170   6.118
 4826TIP3    H214422  -0.053   5.162   6.065
 4827TIP3   OH214423   4.127   3.886   5.690
 4827TIP3    H114424   4.193   3.825   5.654
 4827TIP3    H214425   4.087   3.838   5.762
 4828TIP3   OH214426   0.747   2.180   2.067
 4828TIP3    H114427   0.803   2.257   2.058
 4828TIP3    H214428   0.797   2.109   2.026
 4829TIP3   OH214429   5.902   6.367   1.566
 4829TIP3    H114430   5.824   6.419   1.585
 4829TIP3    H214431   5.975   6.417   1.605
 4830TIP3   OH214432   4.255   5.498   4.193
 4830TIP3    H114433   4.290   5.511   4.105
 4830TIP3    H214434   4.161   5.515   4.184
 4831TIP3   OH214435   5.095   7.302   2.204
 4831TIP3    H114436   5.166   7.239   2.215
 4831TIP3    H214437   5.065   7.289   2.115
 4832TIP3   OH214438   7.134   0.618   5.440
 4832TIP3    H114439   7.151   0.527   5.464
 4832TIP3    H214440   7.110   0.661   5.522
 4833TIP3   OH214441   4.022   6.550   5.048
 4833TIP3    H114442   3.989   6.639   5.039
 4833TIP3    H214443   4.054   6.527   4.961
 4834TIP3   OH214444   6.293   3.263   2.769
 4834TIP3    H114445   6.291   3.260   2.674
 4834TIP3    H214446   6.201   3.250   2.795
 4835TIP3   OH214447   7.284   5.478   0.630
 4835TIP3    H114448   7.336   5.463   0.710
 4835TIP3    H214449   7.332   5.431   0.562
 4836TIP3   OH214450   4.051   2.383   0.624
 4836TIP3    H114451   4.002   2.434   0.689
 4836TIP3    H214452   4.059   2.295   0.663
 4837TIP3   OH214453   4.512   2.826   1.893
 4837TIP3    H114454   4.528   2.916   1.921
 4837TIP3    H214455   4.480   2.834   1.803
 4838TIP3   OH214456   1.599   2.742   6.147
 4838TIP3    H114457   1.598   2.743   6.243
 4838TIP3    H214458   1.670   2.802   6.124
 4839TIP3   OH214459   7.152   6.577   0.671
 4839TIP3    H114460   7.193   6.648   0.623
 4839TIP3    H214461   7.201   6.499   0.645
 4840TIP3   OH214462   7.782   3.779   0.670
 4840TIP3    H114463   7.836   3.794   0.592
 4840TIP3    H214464   7.844   3.746   0.735
 4841TIP3   OH214465   0.613   1.960   4.540
 4841TIP3    H114466   0.643   1.927   4.455
 4841TIP3    H214467   0.559   2.036   4.519
 4842TIP3   OH214468   3.665   7.815   1.241
 4842TIP3    H114469   3.594   7.776   1.292
 4842TIP3    H214470   3.738   7.754   1.251
 4843TIP3   OH214471   4.461   4.079   2.946
 4843TIP3    H114472   4.427   4.164   2.976
 4843TIP3    H214473   4.513   4.101   2.868
 4844TIP3   OH214474   7.126   3.355   2.611
 4844TIP3    H114475   7.042   3.349   2.565
 4844TIP3    H214476   7.104   3.334   2.702
 4845TIP3   OH214477   6.181   6.486   1.287
 4845TIP3    H114478   6.247   6.517   1.225
 4845TIP3    H214479   6.099   6.523   1.255
 4846TIP3   OH214480   4.919   0.296   5.896
 4846TIP3    H114481   4.954   0.318   5.982
 4846TIP3    H214482   4.878   0.210   5.909
 4847TIP3   OH214483   1.276   6.609   5.256
 4847TIP3    H114484   1.262   6.570   5.170
 4847TIP3    H214485   1.205   6.673   5.265
 4848TIP3   OH214486   8.271   6.376   1.400
 4848TIP3    H114487   8.242   6.289   1.372
 4848TIP3    H214488   8.335   6.360   1.469
 4849TIP3   OH214489   3.345   5.140   3.255
 4849TIP3    H114490   3.392   5.090   3.189
 4849TIP3    H214491   3.392   5.123   3.336
 4850TIP3   OH214492   5.163   6.967   4.178
 4850TIP3    H114493   5.150   6.877   4.151
 4850TIP3    H214494   5.130   6.971   4.267
 4851TIP3   OH214495   7.543   5.815   3.548
 4851TIP3    H114496   7.503   5.877   3.487
 4851TIP3    H214497   7.477   5.746   3.559
 4852TIP3   OH214498   7.452   4.373   0.780
 4852TIP3    H114499   7.524   4.324   0.742
 4852TIP3    H214500   7.471   4.377   0.873
 4853TIP3   OH214501   7.568   5.239   0.980
 4853TIP3    H114502   7.554   5.182   0.904
 4853TIP3    H214503   7.493   5.298   0.979
 4854TIP3   OH214504   6.893   0.670   2.123
 4854TIP3    H114505   6.966   0.675   2.061
 4854TIP3    H214506   6.934   0.646   2.207
 4855TIP3   OH214507   1.198   2.642   4.610
 4855TIP3    H114508   1.192   2.699   4.534
 4855TIP3    H214509   1.116   2.593   4.610
 4856TIP3   OH214510   3.694   1.009   1.625
 4856TIP3    H114511   3.646   0.968   1.697
 4856TIP3    H214512   3.741   0.937   1.583
 4857TIP3   OH214513   5.494   5.148   1.369
 4857TIP3    H114514   5.550   5.215   1.410
 4857TIP3    H214515   5.504   5.164   1.275
 4858TIP3   OH214516   1.876   4.021   0.731
 4858TIP3    H114517   1.829   4.095   0.769
 4858TIP3    H214518   1.853   4.023   0.638
 4859TIP3   OH214519   5.747   6.345   2.310
 4859TIP3    H114520   5.765   6.272   2.251
 4859TIP3    H214521   5.737   6.304   2.396
 4860TIP3   OH214522   5.272   1.654   2.395
 4860TIP3    H114523   5.219   1.617   2.324
 4860TIP3    H214524   5.347   1.595   2.402
 4861TIP3   OH214525   7.589   6.013   2.112
 4861TIP3    H114526   7.635   5.961   2.178
 4861TIP3    H214527   7.503   6.029   2.149
 4862TIP3   OH214528   4.189   6.160   5.674
 4862TIP3    H114529   4.145   6.170   5.590
 4862TIP3    H214530   4.198   6.065   5.685
 4863TIP3   OH214531   2.416   7.754   2.997
 4863TIP3    H114532   2.411   7.659   2.991
 4863TIP3    H214533   2.337   7.785   2.952
 4864TIP3   OH214534   5.341   3.765   2.963
 4864TIP3    H114535   5.263   3.720   2.996
 4864TIP3    H214536   5.407   3.697   2.954
 4865TIP3   OH214537   1.743   0.271   0.299
 4865TIP3    H114538   1.791   0.271   0.217
 4865TIP3    H214539   1.754   0.360   0.333
 4866TIP3   OH214540   4.240   5.724   3.717
 4866TIP3    H114541   4.303   5.736   3.645
 4866TIP3    H214542   4.160   5.693   3.673
 4867TIP3   OH214543   4.013   6.462   0.664
 4867TIP3    H114544   4.101   6.427   0.679
 4867TIP3    H214545   3.955   6.406   0.716
 4868TIP3   OH214546   4.845   0.858   5.263
 4868TIP3    H114547   4.913   0.884   5.324
 4868TIP3    H214548   4.778   0.926   5.271
 4869TIP3   OH214549   4.170   0.752   3.257
 4869TIP3    H114550   4.175   0.657   3.268
 4869TIP3    H214551   4.099   0.764   3.193
 4870TIP3   OH214552   8.066   1.244   3.370
 4870TIP3    H114553   8.117   1.163   3.362
 4870TIP3    H214554   8.098   1.299   3.299
 4871TIP3   OH214555   4.922   4.539   1.965
 4871TIP3    H114556   4.903   4.462   1.911
 4871TIP3    H214557   4.868   4.609   1.927
 4872TIP3   OH214558   2.741   1.249   1.320
 4872TIP3    H114559   2.650   1.224   1.303
 4872TIP3    H214560   2.787   1.165   1.328
 4873TIP3   OH214561   5.986   3.549   3.967
 4873TIP3    H114562   6.003   3.474   3.911
 4873TIP3    H214563   6.072   3.584   3.987
 4874TIP3   OH214564   5.083   1.451   2.821
 4874TIP3    H114565   5.131   1.369   2.830
 4874TIP3    H214566   5.134   1.515   2.872
 4875TIP3   OH214567   2.907   4.604   1.112
 4875TIP3    H114568   2.875   4.648   1.033
 4875TIP3    H214569   2.927   4.675   1.173
 4876TIP3   OH214570   7.898   0.993   4.821
 4876TIP3    H114571   7.949   1.015   4.743
 4876TIP3    H214572   7.857   0.909   4.799
 4877TIP3   OH214573   4.842   6.296   5.250
 4877TIP3    H114574   4.854   6.365   5.185
 4877TIP3    H214575   4.930   6.263   5.267
 4878TIP3   OH214576   3.899   0.590   5.042
 4878TIP3    H114577   3.930   0.557   5.126
 4878TIP3    H214578   3.972   0.642   5.008
 4879TIP3   OH214579   6.171   6.526   6.692
 4879TIP3    H114580   6.095   6.468   6.695
 4879TIP3    H214581   6.231   6.485   6.630
 4880TIP3   OH214582   1.445   4.177   2.194
 4880TIP3    H114583   1.535   4.193   2.224
 4880TIP3    H214584   1.391   4.195   2.271
 4881TIP3   OH214585   6.302   2.684   5.886
 4881TIP3    H114586   6.241   2.750   5.853
 4881TIP3    H214587   6.388   2.714   5.856
 4882TIP3   OH214588   0.644   0.091   0.644
 4882TIP3    H114589   0.599   0.050   0.570
 4882TIP3    H214590   0.605   0.050   0.722
 4883TIP3   OH214591   3.708   3.039   6.015
 4883TIP3    H114592   3.784   3.004   6.063
 4883TIP3    H214593   3.640   2.974   6.027
 4884TIP3   OH214594   7.912   7.717   4.298
 4884TIP3    H114595   7.960   7.659   4.238
 4884TIP3    H214596   7.879   7.658   4.366
 4885TIP3   OH214597   6.093   4.209   3.658
 4885TIP3    H114598   6.020   4.147   3.660
 4885TIP3    H214599   6.154   4.177   3.725
 4886TIP3   OH214600   0.271   5.304   3.158
 4886TIP3    H114601   0.271   5.208   3.164
 4886TIP3    H214602   0.302   5.322   3.069
 4887TIP3   OH214603   4.587   6.836   6.661
 4887TIP3    H114604   4.672   6.878   6.659
 4887TIP3    H214605   4.554   6.842   6.571
 4888TIP3   OH214606   7.561   6.439   0.351
 4888TIP3    H114607   7.577   6.510   0.289
 4888TIP3    H214608   7.639   6.384   0.346
 4889TIP3   OH214609   2.068   0.210   3.973
 4889TIP3    H114610   2.010   0.138   3.998
 4889TIP3    H214611   2.145   0.168   3.935
 4890TIP3   OH214612   6.344   2.559   0.715
 4890TIP3    H114613   6.411   2.493   0.736
 4890TIP3    H214614   6.334   2.609   0.796
 4891TIP3   OH214615   0.753   4.796   4.983
 4891TIP3    H114616   0.738   4.885   4.950
 4891TIP3    H214617   0.696   4.789   5.060
 4892TIP3   OH214618   2.916   3.273   3.435
 4892TIP3    H114619   2.900   3.232   3.520
 4892TIP3    H214620   2.828   3.285   3.398
 4893TIP3   OH214621   2.924   4.969   6.499
 4893TIP3    H114622   2.921   5.052   6.547
 4893TIP3    H214623   2.873   4.908   6.553
 4894TIP3   OH214624   5.216   1.073   6.723
 4894TIP3    H114625   5.152   1.101   6.789
 4894TIP3    H214626   5.268   1.006   6.767
 4895TIP3   OH214627   5.436   3.454   0.818
 4895TIP3    H114628   5.458   3.462   0.725
 4895TIP3    H214629   5.372   3.383   0.821
 4896TIP3   OH214630   0.071   3.899   2.381
 4896TIP3    H114631   0.119   3.871   2.459
 4896TIP3    H214632   0.023   3.978   2.410
 4897TIP3   OH214633   3.345   2.449   4.222
 4897TIP3    H114634   3.435   2.439   4.254
 4897TIP3    H214635   3.314   2.359   4.212
 4898TIP3   OH214636   4.456   1.964   4.268
 4898TIP3    H114637   4.406   1.976   4.349
 4898TIP3    H214638   4.535   2.016   4.280
 4899TIP3   OH214639   7.453   5.669   2.657
 4899TIP3    H114640   7.469   5.741   2.718
 4899TIP3    H214641   7.537   5.623   2.653
 4900TIP3   OH214642   8.178   1.312   1.171
 4900TIP3    H114643   8.218   1.227   1.194
 4900TIP3    H214644   8.250   1.363   1.136
 4901TIP3   OH214645   7.558   5.476   5.815
 4901TIP3    H114646   7.599   5.410   5.760
 4901TIP3    H214647   7.503   5.426   5.876
 4902TIP3   OH214648   2.291   4.329   1.984
 4902TIP3    H114649   2.216   4.384   1.963
 4902TIP3    H214650   2.364   4.371   1.939
 4903TIP3   OH214651   1.634   5.788   2.032
 4903TIP3    H114652   1.692   5.713   2.015
 4903TIP3    H214653   1.657   5.816   2.121
 4904TIP3   OH214654   1.524   0.190   1.515
 4904TIP3    H114655   1.529   0.096   1.530
 4904TIP3    H214656   1.601   0.210   1.462
 4905TIP3   OH214657   2.015   2.043   4.342
 4905TIP3    H114658   1.968   1.988   4.279
 4905TIP3    H214659   1.954   2.054   4.415
 4906TIP3   OH214660   2.452   0.935   0.666
 4906TIP3    H114661   2.468   0.986   0.586
 4906TIP3    H214662   2.356   0.930   0.672
 4907TIP3   OH214663   5.021   0.690  -0.007
 4907TIP3    H114664   5.078   0.647  -0.070
 4907TIP3    H214665   4.974   0.618   0.036
 4908TIP3   OH214666   4.804   2.113   4.752
 4908TIP3    H114667   4.879   2.071   4.792
 4908TIP3    H214668   4.791   2.067   4.669
 4909TIP3   OH214669   3.917   7.092   2.928
 4909TIP3    H114670   4.001   7.103   2.973
 4909TIP3    H214671   3.855   7.075   2.999
 4910TIP3   OH214672   6.055   3.881   2.669
 4910TIP3    H114673   5.962   3.885   2.647
 4910TIP3    H214674   6.074   3.965   2.709
 4911TIP3   OH214675   7.291   1.613   2.449
 4911TIP3    H114676   7.243   1.696   2.451
 4911TIP3    H214677   7.347   1.619   2.372
 4912TIP3   OH214678   1.701   1.721   1.947
 4912TIP3    H114679   1.671   1.783   2.013
 4912TIP3    H214680   1.625   1.708   1.890
 4913TIP3   OH214681   3.976   2.554   6.176
 4913TIP3    H114682   4.058   2.596   6.151
 4913TIP3    H214683   3.925   2.552   6.095
 4914TIP3   OH214684   3.619   5.615   6.302
 4914TIP3    H114685   3.528   5.618   6.333
 4914TIP3    H214686   3.614   5.567   6.219
 4915TIP3   OH214687   2.167   2.511   4.836
 4915TIP3    H114688   2.172   2.584   4.898
 4915TIP3    H214689   2.258   2.486   4.821
 4916TIP3   OH214690   5.949   1.227   5.792
 4916TIP3    H114691   5.889   1.278   5.738
 4916TIP3    H214692   6.007   1.291   5.832
 4917TIP3   OH214693   7.244   6.886   2.292
 4917TIP3    H114694   7.299   6.910   2.218
 4917TIP3    H214695   7.212   6.798   2.270
 4918TIP3   OH214696   6.958   7.120   2.515
 4918TIP3    H114697   7.015   7.194   2.538
 4918TIP3    H214698   6.873   7.160   2.496
 4919TIP3   OH214699   0.197   1.901   5.947
 4919TIP3    H114700   0.266   1.963   5.969
 4919TIP3    H214701   0.235   1.815   5.968
 4920TIP3   OH214702   1.713   6.367   6.742
 4920TIP3    H114703   1.714   6.272   6.735
 4920TIP3    H214704   1.777   6.396   6.676
 4921TIP3   OH214705   0.076   4.598   2.162
 4921TIP3    H114706   0.153   4.542   2.171
 4921TIP3    H214707   0.089   4.642   2.078
 4922TIP3   OH214708   1.081   0.807   0.118
 4922TIP3    H114709   1.071   0.714   0.137
 4922TIP3    H214710   1.157   0.811   0.060
 4923TIP3   OH214711   4.600   4.898   5.959
 4923TIP3    H114712   4.588   4.937   6.045
 4923TIP3    H214713   4.555   4.814   5.965
 4924TIP3   OH214714   6.480   2.502   6.381
 4924TIP3    H114715   6.500   2.433   6.317
 4924TIP3    H214716   6.386   2.516   6.372
 4925TIP3   OH214717   2.505   1.466   4.576
 4925TIP3    H114718   2.573   1.515   4.622
 4925TIP3    H214719   2.474   1.526   4.508
 4926TIP3   OH214720   2.534   3.278   1.342
 4926TIP3    H114721   2.619   3.323   1.351
 4926TIP3    H214722   2.546   3.196   1.389
 4927TIP3   OH214723   1.698   4.725   1.839
 4927TIP3    H114724   1.728   4.721   1.749
 4927TIP3    H214725   1.778   4.736   1.891
 4928TIP3   OH214726   4.818   1.969   6.672
 4928TIP3    H114727   4.758   2.041   6.650
 4928TIP3    H214728   4.890   1.979   6.610
 4929TIP3   OH214729   2.659   3.232   0.315
 4929TIP3    H114730   2.663   3.188   0.400
 4929TIP3    H214731   2.569   3.217   0.284
 4930TIP3   OH214732   6.632   0.522   1.898
 4930TIP3    H114733   6.633   0.615   1.878
 4930TIP3    H214734   6.716   0.505   1.942
 4931TIP3   OH214735   6.041   4.029   4.938
 4931TIP3    H114736   5.963   4.075   4.970
 4931TIP3    H214737   6.114   4.072   4.984
 4932TIP3   OH214738   1.044   6.791   0.674
 4932TIP3    H114739   1.136   6.775   0.696
 4932TIP3    H214740   1.047   6.850   0.599
 4933TIP3   OH214741   5.880   4.380   5.322
 4933TIP3    H114742   5.918   4.305   5.276
 4933TIP3    H214743   5.940   4.395   5.395
 4934TIP3   OH214744   4.164   3.974   2.960
 4934TIP3    H114745   4.115   4.054   2.979
 4934TIP3    H214746   4.217   3.960   3.038
 4935TIP3   OH214747   3.202   1.704   3.855
 4935TIP3    H114748   3.127   1.651   3.829
 4935TIP3    H214749   3.182   1.733   3.944
 4936TIP3   OH214750   7.476   3.992   4.465
 4936TIP3    H114751   7.497   3.901   4.441
 4936TIP3    H214752   7.410   4.019   4.402
 4937TIP3   OH214753   5.494   1.027   3.029
 4937TIP3    H114754   5.566   1.014   2.967
 4937TIP3    H214755   5.415   1.006   2.979
 4938TIP3   OH214756   4.696   5.074   2.704
 4938TIP3    H114757   4.787   5.079   2.734
 4938TIP3    H214758   4.687   5.147   2.642
 4939TIP3   OH214759   6.536   5.052   4.334
 4939TIP3    H114760   6.610   5.054   4.395
 4939TIP3    H214761   6.483   5.128   4.359
 4940TIP3   OH214762   4.031   0.429   6.425
 4940TIP3    H114763   3.988   0.343   6.426
 4940TIP3    H214764   4.085   0.428   6.346
 4941TIP3   OH214765   7.746   1.251   5.282
 4941TIP3    H114766   7.674   1.313   5.288
 4941TIP3    H214767   7.805   1.275   5.353
 4942TIP3   OH214768   2.397   2.736   0.921
 4942TIP3    H114769   2.454   2.701   0.990
 4942TIP3    H214770   2.457   2.775   0.858
 4943TIP3   OH214771   2.303   3.428   3.316
 4943TIP3    H114772   2.262   3.342   3.320
 4943TIP3    H214773   2.383   3.419   3.369
 4944TIP3   OH214774   3.220   4.361   5.566
 4944TIP3    H114775   3.196   4.326   5.652
 4944TIP3    H214776   3.148   4.335   5.508
 4945TIP3   OH214777   4.137   4.070   1.534
 4945TIP3    H114778   4.144   4.069   1.439
 4945TIP3    H214779   4.214   4.023   1.565
 4946TIP3   OH214780   1.064   4.062   4.734
 4946TIP3    H114781   1.105   4.115   4.803
 4946TIP3    H214782   0.987   4.112   4.708
 4947TIP3   OH214783   3.702   3.350   6.383
 4947TIP3    H114784   3.694   3.422   6.446
 4947TIP3    H214785   3.615   3.344   6.343
 4948TIP3   OH214786   3.522   7.359   5.180
 4948TIP3    H114787   3.438   7.336   5.218
 4948TIP3    H214788   3.542   7.287   5.121
 4949TIP3   OH214789   4.357   3.883   5.041
 4949TIP3    H114790   4.314   3.967   5.027
 4949TIP3    H214791   4.351   3.838   4.957
 4950TIP3   OH214792   5.355   5.168   0.290
 4950TIP3    H114793   5.422   5.107   0.320
 4950TIP3    H214794   5.381   5.191   0.201
 4951TIP3   OH214795   3.025   7.778   0.422
 4951TIP3    H114796   3.022   7.846   0.489
 4951TIP3    H214797   2.960   7.805   0.357
 4952TIP3   OH214798   1.409   7.327   4.597
 4952TIP3    H114799   1.373   7.362   4.516
 4952TIP3    H214800   1.494   7.291   4.571
 4953TIP3   OH214801   3.150   3.014   6.205
 4953TIP3    H114802   3.238   3.046   6.186
 4953TIP3    H214803   3.137   3.034   6.298
 4954TIP3   OH214804   5.078   2.760   3.183
 4954TIP3    H114805   5.136   2.825   3.142
 4954TIP3    H214806   5.000   2.759   3.127
 4955TIP3   OH214807   2.297   5.800   3.323
 4955TIP3    H114808   2.358   5.734   3.356
 4955TIP3    H214809   2.345   5.882   3.330
 4956TIP3   OH214810   2.489   7.129   3.410
 4956TIP3    H114811   2.507   7.064   3.343
 4956TIP3    H214812   2.536   7.207   3.381
 4957TIP3   OH214813   4.512   3.127   1.866
 4957TIP3    H114814   4.416   3.131   1.870
 4957TIP3    H214815   4.541   3.206   1.911
 4958TIP3   OH214816   1.818   6.514   4.566
 4958TIP3    H114817   1.769   6.440   4.600
 4958TIP3    H214818   1.870   6.478   4.494
 4959TIP3   OH214819   5.746   3.324   1.198
 4959TIP3    H114820   5.702   3.297   1.279
 4959TIP3    H214821   5.681   3.310   1.130
 4960TIP3   OH214822   7.174   7.508   3.307
 4960TIP3    H114823   7.115   7.462   3.367
 4960TIP3    H214824   7.177   7.454   3.229
 4961TIP3   OH214825   1.677   3.362   0.195
 4961TIP3    H114826   1.722   3.373   0.112
 4961TIP3    H214827   1.727   3.296   0.241
 4962TIP3   OH214828   7.560   4.048   2.915
 4962TIP3    H114829   7.601   4.131   2.891
 4962TIP3    H214830   7.577   3.990   2.840
 4963TIP3   OH214831   5.503   4.951   1.704
 4963TIP3    H114832   5.576   4.995   1.748
 4963TIP3    H214833   5.539   4.925   1.619
 4964TIP3   OH214834   7.873   0.388   4.174
 4964TIP3    H114835   7.891   0.445   4.100
 4964TIP3    H214836   7.939   0.410   4.239
 4965TIP3   OH214837   6.405   7.091   5.642
 4965TIP3    H114838   6.457   7.013   5.663
 4965TIP3    H214839   6.370   7.120   5.727
 4966TIP3   OH214840   3.668   2.213   1.065
 4966TIP3    H114841   3.698   2.254   1.146
 4966TIP3    H214842   3.687   2.120   1.077
 4967TIP3   OH214843   6.650   3.697   5.521
 4967TIP3    H114844   6.616   3.777   5.481
 4967TIP3    H214845   6.673   3.641   5.447
 4968TIP3   OH214846   7.957   2.527   2.201
 4968TIP3    H114847   8.018   2.595   2.174
 4968TIP3    H214848   7.987   2.448   2.158
 4969TIP3   OH214849   0.522   4.553   4.289
 4969TIP3    H114850   0.508   4.582   4.379
 4969TIP3    H214851   0.461   4.605   4.237
 4970TIP3   OH214852   7.783   6.067   2.951
 4970TIP3    H114853   7.768   5.988   3.004
 4970TIP3    H214854   7.733   6.136   2.995
 4971TIP3   OH214855   1.618   7.543   6.152
 4971TIP3    H114856   1.631   7.459   6.197
 4971TIP3    H214857   1.687   7.600   6.187
 4972TIP3   OH214858   6.665   6.849   0.953
 4972TIP3    H114859   6.647   6.940   0.929
 4972TIP3    H214860   6.591   6.800   0.917
 4973TIP3   OH214861   3.768   6.001   2.593
 4973TIP3    H114862   3.828   6.049   2.649
 4973TIP3    H214863   3.737   5.929   2.648
 4974TIP3   OH214864   0.638   6.105   6.141
 4974TIP3    H114865   0.589   6.080   6.063
 4974TIP3    H214866   0.574   6.102   6.212
 4975TIP3   OH214867   6.442   5.983   3.160
 4975TIP3    H114868   6.495   5.908   3.133
 4975TIP3    H214869   6.466   5.998   3.251
 4976TIP3   OH214870   4.553   2.534   0.562
 4976TIP3    H114871   4.565   2.518   0.468
 4976TIP3    H214872   4.472   2.489   0.584
 4977TIP3   OH214873   2.650   1.671   5.038
 4977TIP3    H114874   2.675   1.715   5.119
 4977TIP3    H214875   2.699   1.589   5.038
 4978TIP3   OH214876   7.015   0.333   2.441
 4978TIP3    H114877   6.941   0.274   2.453
 4978TIP3    H214878   7.091   0.275   2.432
 4979TIP3   OH214879   1.384   0.260   0.052
 4979TIP3    H114880   1.340   0.213  -0.019
 4979TIP3    H214881   1.450   0.200   0.084
 4980TIP3   OH214882   3.468   0.577   2.845
 4980TIP3    H114883   3.452   0.645   2.910
 4980TIP3    H214884   3.445   0.495   2.890
 4981TIP3   OH214885   0.276   3.494   2.454
 4981TIP3    H114886   0.349   3.507   2.394
 4981TIP3    H214887   0.297   3.550   2.529
 4982TIP3   OH214888   8.052   1.911   3.427
 4982TIP3    H114889   8.057   1.816   3.435
 4982TIP3    H214890   8.002   1.926   3.347
 4983TIP3   OH214891   4.375   6.735   1.004
 4983TIP3    H114892   4.311   6.700   1.065
 4983TIP3    H214893   4.331   6.732   0.918
 4984TIP3   OH214894   6.804   0.830   5.936
 4984TIP3    H114895   6.736   0.764   5.946
 4984TIP3    H214896   6.820   0.834   5.841
 4985TIP3   OH214897   4.501   2.096   3.259
 4985TIP3    H114898   4.525   2.130   3.345
 4985TIP3    H214899   4.569   2.127   3.200
 4986TIP3   OH214900   3.396   3.548   2.291
 4986TIP3    H114901   3.325   3.498   2.251
 4986TIP3    H214902   3.397   3.519   2.382
 4987TIP3   OH214903   7.633   7.455   0.346
 4987TIP3    H114904   7.666   7.395   0.413
 4987TIP3    H214905   7.708   7.509   0.322
 4988TIP3   OH214906   6.125   6.000   6.604
 4988TIP3    H114907   6.203   5.945   6.614
 4988TIP3    H214908   6.077   5.989   6.686
 4989TIP3   OH214909   1.158   3.314   1.832
 4989TIP3    H114910   1.198   3.235   1.796
 4989TIP3    H214911   1.186   3.384   1.773
 4990TIP3   OH214912   2.429   5.194   5.243
 4990TIP3    H114913   2.439   5.286   5.217
 4990TIP3    H214914   2.392   5.198   5.332
 4991TIP3   OH214915   4.589   3.586   4.500
 4991TIP3    H114916   4.685   3.589   4.494
 4991TIP3    H214917   4.559   3.631   4.421
 4992TIP3   OH214918   5.497   3.489   5.150
 4992TIP3    H114919   5.468   3.574   5.117
 4992TIP3    H214920   5.416   3.439   5.162
 4993TIP3   OH214921   6.836   0.930   2.044
 4993TIP3    H114922   6.863   0.849   2.087
 4993TIP3    H214923   6.907   0.950   1.983
 4994TIP3   OH214924   6.339   5.746   1.177
 4994TIP3    H114925   6.419   5.746   1.123
 4994TIP3    H214926   6.335   5.834   1.215
 4995TIP3   OH214927   0.923   1.702   1.847
 4995TIP3    H114928   0.952   1.769   1.786
 4995TIP3    H214929   1.002   1.653   1.869
 4996TIP3   OH214930   2.815   0.600   3.221
 4996TIP3    H114931   2.754   0.526   3.220
 4996TIP3    H214932   2.804   0.641   3.135
 4997TIP3   OH214933   6.681   6.162   2.791
 4997TIP3    H114934   6.663   6.256   2.799
 4997TIP3    H214935   6.751   6.146   2.854
 4998TIP3   OH214936   4.129   5.363   3.939
 4998TIP3    H114937   4.072   5.416   3.884
 4998TIP3    H214938   4.169   5.300   3.879
 4999TIP3   OH214939   0.101   7.060   4.610
 4999TIP3    H114940   0.007   7.054   4.626
 4999TIP3    H214941   0.140   7.067   4.696
 5000TIP3   OH214942   6.461   7.846   5.141
 5000TIP3    H114943   6.395   7.883   5.083
 5000TIP3    H214944   6.469   7.755   5.113
 5001TIP3   OH214945   4.972   3.152   6.416
 5001TIP3    H114946   5.031   3.106   6.476
 5001TIP3    H214947   4.888   3.109   6.428
 5002TIP3   OH214948   6.477   0.082   4.407
 5002TIP3    H114949   6.535   0.156   4.388
 5002TIP3    H214950   6.527   0.028   4.468
 5003TIP3   OH214951   5.354   6.854   6.724
 5003TIP3    H114952   5.300   6.890   6.653
 5003TIP3    H214953   5.421   6.921   6.739
 5004TIP3   OH214954   3.476   0.320   5.043
 5004TIP3    H114955   3.567   0.341   5.018
 5004TIP3    H214956   3.427   0.329   4.962
 5005TIP3   OH214957   5.502   1.606   3.556
 5005TIP3    H114958   5.540   1.685   3.517
 5005TIP3    H214959   5.571   1.540   3.549
 5006TIP3   OH214960   0.872   1.662   3.589
 5006TIP3    H114961   0.784   1.701   3.598
 5006TIP3    H214962   0.856   1.568   3.590
 5007TIP3   OH214963   6.604   1.436   1.980
 5007TIP3    H114964   6.573   1.365   1.923
 5007TIP3    H214965   6.584   1.516   1.931
 5008TIP3   OH214966   1.767   2.063   1.645
 5008TIP3    H114967   1.753   2.152   1.613
 5008TIP3    H214968   1.753   2.070   1.740
 5009TIP3   OH214969   6.807   7.347   2.262
 5009TIP3    H114970   6.788   7.383   2.176
 5009TIP3    H214971   6.822   7.424   2.318
 5010TIP3   OH214972   4.499   7.652   5.492
 5010TIP3    H114973   4.578   7.656   5.438
 5010TIP3    H214974   4.444   7.723   5.458
 5011TIP3   OH214975   1.255   4.354   6.640
 5011TIP3    H114976   1.316   4.375   6.711
 5011TIP3    H214977   1.256   4.258   6.636
 5012TIP3   OH214978   4.522   2.163   2.823
 5012TIP3    H114979   4.600   2.155   2.767
 5012TIP3    H214980   4.539   2.104   2.896
 5013TIP3   OH214981   8.065   1.805   3.707
 5013TIP3    H114982   7.973   1.786   3.723
 5013TIP3    H214983   8.064   1.863   3.631
 5014TIP3   OH214984   7.082   1.581   6.303
 5014TIP3    H114985   7.117   1.665   6.333
 5014TIP3    H214986   7.019   1.557   6.370
 5015TIP3   OH214987   2.259   2.964   0.853
 5015TIP3    H114988   2.303   2.943   0.770
 5015TIP3    H214989   2.289   2.897   0.913
 5016TIP3   OH214990   2.975   2.557   6.372
 5016TIP3    H114991   3.044   2.619   6.399
 5016TIP3    H214992   3.000   2.475   6.414
 5017TIP3   OH214993   7.884   5.823   2.585
 5017TIP3    H114994   7.913   5.733   2.569
 5017TIP3    H214995   7.806   5.813   2.640
 5018TIP3   OH214996   4.690   5.528   1.334
 5018TIP3    H114997   4.596   5.528   1.347
 5018TIP3    H214998   4.718   5.438   1.352
 5019TIP3   OH214999   4.977   0.865   2.975
 5019TIP3    H115000   4.959   0.778   2.940
 5019TIP3    H215001   4.914   0.875   3.046
 5020TIP3   OH215002   1.438   5.021   2.561
 5020TIP3    H115003   1.414   4.957   2.494
 5020TIP3    H215004   1.407   5.105   2.526
 5021TIP3   OH215005   6.188   5.052   0.476
 5021TIP3    H115006   6.148   5.126   0.522
 5021TIP3    H215007   6.158   5.061   0.385
 5022TIP3   OH215008   6.978   6.783   5.563
 5022TIP3    H115009   6.925   6.757   5.638
 5022TIP3    H215010   7.058   6.732   5.571
 5023TIP3   OH215011   1.158   5.048   1.162
 5023TIP3    H115012   1.122   5.093   1.239
 5023TIP3    H215013   1.233   5.102   1.137
 5024TIP3   OH215014   2.703   6.924   5.695
 5024TIP3    H115015   2.788   6.967   5.689
 5024TIP3    H215016   2.696   6.873   5.614
 5025TIP3   OH215017   7.221   6.505   3.578
 5025TIP3    H115018   7.250   6.449   3.506
 5025TIP3    H215019   7.195   6.587   3.535
 5026TIP3   OH215020   1.922   6.721   5.115
 5026TIP3    H115021   1.899   6.732   5.023
 5026TIP3    H215022   1.982   6.793   5.134
 5027TIP3   OH215023   2.778   2.790   2.106
 5027TIP3    H115024   2.789   2.707   2.151
 5027TIP3    H215025   2.686   2.814   2.121
 5028TIP3   OH215026   1.083   4.684   3.434
 5028TIP3    H115027   1.102   4.738   3.511
 5028TIP3    H215028   0.988   4.687   3.426
 5029TIP3   OH215029   5.254   0.401   5.615
 5029TIP3    H115030   5.280   0.355   5.535
 5029TIP3    H215031   5.334   0.409   5.666
 5030TIP3   OH215032   1.707   1.814   1.593
 5030TIP3    H115033   1.718   1.907   1.612
 5030TIP3    H215034   1.779   1.772   1.640
 5031TIP3   OH215035   7.236   0.857   1.472
 5031TIP3    H115036   7.257   0.903   1.391
 5031TIP3    H215037   7.141   0.846   1.470
 5032TIP3   OH215038   2.805   3.050   4.583
 5032TIP3    H115039   2.831   2.983   4.519
 5032TIP3    H215040   2.864   3.036   4.657
 5033TIP3   OH215041   2.459   3.417   3.606
 5033TIP3    H115042   2.448   3.512   3.603
 5033TIP3    H215043   2.513   3.397   3.529
 5034TIP3   OH215044   6.806   4.001   2.976
 5034TIP3    H115045   6.758   3.990   3.059
 5034TIP3    H215046   6.754   4.065   2.927
 5035TIP3   OH215047   2.938   2.309   5.191
 5035TIP3    H115048   2.921   2.401   5.215
 5035TIP3    H215049   2.853   2.266   5.202
 5036TIP3   OH215050   4.322   0.063   0.718
 5036TIP3    H115051   4.252   0.128   0.717
 5036TIP3    H215052   4.299   0.004   0.790
 5037TIP3   OH215053   6.025   4.884   4.556
 5037TIP3    H115054   5.990   4.937   4.628
 5037TIP3    H215055   5.980   4.916   4.478
 5038TIP3   OH215056   0.083   7.521   0.108
 5038TIP3    H115057   0.042   7.463   0.172
 5038TIP3    H215058   0.171   7.535   0.142
 5039TIP3   OH215059   0.121   4.607   0.899
 5039TIP3    H115060   0.066   4.648   0.966
 5039TIP3    H215061   0.068   4.534   0.866
 5040TIP3   OH215062   5.368   1.763   0.570
 5040TIP3    H115063   5.348   1.731   0.659
 5040TIP3    H215064   5.360   1.685   0.515
 5041TIP3   OH215065   8.108   1.292   0.862
 5041TIP3    H115066   8.133   1.379   0.830
 5041TIP3    H215067   8.096   1.304   0.956
 5042TIP3   OH215068   1.402   1.935   0.724
 5042TIP3    H115069   1.333   1.970   0.667
 5042TIP3    H215070   1.366   1.852   0.756
 5043TIP3   OH215071   0.650   4.611   5.199
 5043TIP3    H115072   0.692   4.679   5.253
 5043TIP3    H215073   0.675   4.529   5.242
 5044TIP3   OH215074   8.002   1.156   4.619
 5044TIP3    H115075   7.931   1.166   4.555
 5044TIP3    H215076   8.055   1.084   4.584
 5045TIP3   OH215077   0.191   4.882   2.815
 5045TIP3    H115078   0.165   4.964   2.857
 5045TIP3    H215079   0.208   4.906   2.724
 5046TIP3   OH215080   0.083   5.805   4.180
 5046TIP3    H115081   0.021   5.860   4.229
 5046TIP3    H215082   0.168   5.823   4.220
 5047TIP3   OH215083   7.903   0.376   1.070
 5047TIP3    H115084   7.857   0.438   1.013
 5047TIP3    H215085   7.876   0.401   1.159
 5048TIP3   OH215086   6.198   2.009   5.075
 5048TIP3    H115087   6.258   1.997   5.001
 5048TIP3    H215088   6.253   2.003   5.152
 5049TIP3   OH215089   2.018   6.977   2.348
 5049TIP3    H115090   2.026   7.054   2.404
 5049TIP3    H215091   2.107   6.941   2.345
 5050TIP3   OH215092   7.180   6.396   4.335
 5050TIP3    H115093   7.140   6.310   4.344
 5050TIP3    H215094   7.195   6.406   4.241
 5051TIP3   OH215095   5.297   0.480   6.480
 5051TIP3    H115096   5.388   0.476   6.453
 5051TIP3    H215097   5.251   0.424   6.418
 5052TIP3   OH215098   0.863   2.604   3.871
 5052TIP3    H115099   0.770   2.585   3.860
 5052TIP3    H215100   0.878   2.596   3.965
 5053TIP3   OH215101   5.310   2.607   6.324
 5053TIP3    H115102   5.361   2.592   6.403
 5053TIP3    H215103   5.291   2.701   6.325
 5054TIP3   OH215104   5.129   2.577   1.535
 5054TIP3    H115105   5.034   2.566   1.542
 5054TIP3    H215106   5.149   2.550   1.445
 5055TIP3   OH215107   7.455   3.474   1.279
 5055TIP3    H115108   7.400   3.443   1.351
 5055TIP3    H215109   7.545   3.460   1.311
 5056TIP3   OH215110   6.826   4.169   5.589
 5056TIP3    H115111   6.822   4.128   5.503
 5056TIP3    H215112   6.798   4.260   5.574
 5057TIP3   OH215113   3.548   6.989   5.861
 5057TIP3    H115114   3.553   6.908   5.912
 5057TIP3    H215115   3.618   7.044   5.897
 5058TIP3   OH215116   1.496   6.885   0.172
 5058TIP3    H115117   1.432   6.913   0.238
 5058TIP3    H215118   1.578   6.926   0.201
 5059TIP3   OH215119   0.278   6.912   2.747
 5059TIP3    H115120   0.256   6.822   2.771
 5059TIP3    H215121   0.353   6.904   2.688
 5060TIP3   OH215122   4.367   3.871   1.892
 5060TIP3    H115123   4.458   3.899   1.896
 5060TIP3    H215124   4.346   3.868   1.799
 5061TIP3   OH215125   4.887   1.828   5.487
 5061TIP3    H115126   4.965   1.810   5.434
 5061TIP3    H215127   4.821   1.767   5.453
 5062TIP3   OH215128   6.235   6.868   6.599
 5062TIP3    H115129   6.248   6.956   6.564
 5062TIP3    H215130   6.145   6.868   6.632
 5063TIP3   OH215131   4.783   5.158   0.016
 5063TIP3    H115132   4.756   5.209   0.093
 5063TIP3    H215133   4.705   5.155  -0.039
 5064TIP3   OH215134   1.094   1.783   5.021
 5064TIP3    H115135   1.075   1.784   4.927
 5064TIP3    H215136   1.031   1.843   5.059
 5065TIP3   OH215137   3.064   1.036   1.854
 5065TIP3    H115138   3.033   1.113   1.902
 5065TIP3    H215139   3.028   0.961   1.902
 5066TIP3   OH215140   2.063   5.354   3.088
 5066TIP3    H115141   2.107   5.387   3.166
 5066TIP3    H215142   1.972   5.378   3.100
 5067TIP3   OH215143   6.423   6.591   2.757
 5067TIP3    H115144   6.424   6.564   2.665
 5067TIP3    H215145   6.331   6.589   2.783
 5068TIP3   OH215146   2.501   2.529   5.233
 5068TIP3    H115147   2.466   2.523   5.322
 5068TIP3    H215148   2.441   2.477   5.180
 5069TIP3   OH215149   3.676   0.481   6.292
 5069TIP3    H115150   3.680   0.414   6.361
 5069TIP3    H215151   3.627   0.438   6.221
 5070TIP3   OH215152   6.452   2.248   0.757
 5070TIP3    H115153   6.527   2.302   0.731
 5070TIP3    H215154   6.468   2.228   0.849
 5071TIP3   OH215155   1.548   6.565   2.597
 5071TIP3    H115156   1.607   6.516   2.538
 5071TIP3    H215157   1.541   6.509   2.675
 5072TIP3   OH215158   4.228   1.907   3.792
 5072TIP3    H115159   4.210   1.898   3.886
 5072TIP3    H215160   4.311   1.954   3.787
 5073TIP3   OH215161   6.922   5.414   5.669
 5073TIP3    H115162   7.017   5.419   5.659
 5073TIP3    H215163   6.906   5.449   5.757
 5074TIP3   OH215164   2.949   6.637   6.580
 5074TIP3    H115165   2.959   6.573   6.651
 5074TIP3    H215166   2.927   6.719   6.624
 5075TIP3   OH215167   1.739   4.411   1.461
 5075TIP3    H115168   1.751   4.421   1.367
 5075TIP3    H215169   1.679   4.481   1.486
 5076TIP3   OH215170   6.025   3.877   1.345
 5076TIP3    H115171   5.971   3.799   1.355
 5076TIP3    H215172   5.969   3.949   1.373
 5077TIP3   OH215173   2.196   0.328   1.207
 5077TIP3    H115174   2.154   0.302   1.125
 5077TIP3    H215175   2.234   0.247   1.241
 5078TIP3   OH215176   5.149   5.169   5.679
 5078TIP3    H115177   5.226   5.182   5.624
 5078TIP3    H215178   5.091   5.113   5.628
 5079TIP3   OH215179   6.488   4.446   1.765
 5079TIP3    H115180   6.514   4.355   1.750
 5079TIP3    H215181   6.395   4.448   1.742
 5080TIP3   OH215182   6.852   4.376   3.271
 5080TIP3    H115183   6.830   4.414   3.186
 5080TIP3    H215184   6.862   4.283   3.254
 5081TIP3   OH215185   7.845   3.353   3.238
 5081TIP3    H115186   7.887   3.438   3.253
 5081TIP3    H215187   7.832   3.317   3.326
 5082TIP3   OH215188   5.207   5.317   0.502
 5082TIP3    H115189   5.277   5.317   0.568
 5082TIP3    H215190   5.233   5.251   0.439
 5083TIP3   OH215191   7.870   4.498   1.695
 5083TIP3    H115192   7.933   4.486   1.625
 5083TIP3    H215193   7.873   4.592   1.713
 5084TIP3   OH215194   3.272   4.617   6.375
 5084TIP3    H115195   3.316   4.701   6.364
 5084TIP3    H215196   3.225   4.624   6.459
 5085TIP3   OH215197   6.307   1.370   1.442
 5085TIP3    H115198   6.365   1.378   1.518
 5085TIP3    H215199   6.227   1.414   1.469
 5086TIP3   OH215200   5.738   4.093   4.113
 5086TIP3    H115201   5.746   4.003   4.082
 5086TIP3    H215202   5.824   4.113   4.150
 5087TIP3   OH215203   1.549   2.588   2.793
 5087TIP3    H115204   1.456   2.574   2.779
 5087TIP3    H215205   1.559   2.684   2.791
 5088TIP3   OH215206   3.170   2.212   1.870
 5088TIP3    H115207   3.257   2.252   1.861
 5088TIP3    H215208   3.162   2.194   1.964
 5089TIP3   OH215209   2.908   6.990   4.909
 5089TIP3    H115210   2.976   6.993   4.842
 5089TIP3    H215211   2.827   7.009   4.862
 5090TIP3   OH215212   7.917   7.036   0.570
 5090TIP3    H115213   7.976   7.003   0.502
 5090TIP3    H215214   7.975   7.063   0.640
 5091TIP3   OH215215   3.248   0.580   1.432
 5091TIP3    H115216   3.332   0.601   1.472
 5091TIP3    H215217   3.271   0.524   1.358
 5092TIP3   OH215218   4.515   6.163   5.515
 5092TIP3    H115219   4.526   6.090   5.454
 5092TIP3    H215220   4.575   6.230   5.483
 5093TIP3   OH215221   2.899   5.335   3.217
 5093TIP3    H115222   2.839   5.325   3.144
 5093TIP3    H215223   2.872   5.416   3.260
 5094TIP3   OH215224   7.341   4.605   0.682
 5094TIP3    H115225   7.415   4.666   0.680
 5094TIP3    H215226   7.380   4.521   0.708
 5095TIP3   OH215227   5.440   3.312   1.726
 5095TIP3    H115228   5.362   3.314   1.671
 5095TIP3    H215229   5.482   3.228   1.705
 5096TIP3   OH215230   1.628   5.037   1.572
 5096TIP3    H115231   1.650   4.990   1.492
 5096TIP3    H215232   1.683   5.115   1.570
 5097TIP3   OH215233   0.696   1.546   3.950
 5097TIP3    H115234   0.727   1.636   3.943
 5097TIP3    H215235   0.748   1.508   4.020
 5098TIP3   OH215236   6.094   0.434   5.368
 5098TIP3    H115237   6.075   0.393   5.453
 5098TIP3    H215238   6.054   0.376   5.304
 5099TIP3   OH215239   7.359   0.316   0.855
 5099TIP3    H115240   7.430   0.311   0.918
 5099TIP3    H215241   7.401   0.307   0.769
 5100TIP3   OH215242   2.200   6.406   2.191
 5100TIP3    H115243   2.199   6.400   2.286
 5100TIP3    H215244   2.249   6.329   2.162
 5101TIP3   OH215245   6.800   6.283   2.138
 5101TIP3    H115246   6.890   6.290   2.106
 5101TIP3    H215247   6.796   6.346   2.210
 5102TIP3   OH215248   6.797   5.872   3.647
 5102TIP3    H115249   6.752   5.880   3.562
 5102TIP3    H215250   6.794   5.960   3.684
 5103TIP3   OH215251   0.772   2.010   6.572
 5103TIP3    H115252   0.733   1.949   6.635
 5103TIP3    H215253   0.698   2.053   6.530
 5104TIP3   OH215254   4.068   1.895   6.532
 5104TIP3    H115255   4.039   1.982   6.557
 5104TIP3    H215256   4.163   1.904   6.518
 5105TIP3   OH215257   1.185   0.568   5.155
 5105TIP3    H115258   1.261   0.510   5.165
 5105TIP3    H215259   1.223   0.655   5.144
 5106TIP3   OH215260   6.784   1.590   4.231
 5106TIP3    H115261   6.846   1.650   4.190
 5106TIP3    H215262   6.813   1.583   4.322
 5107TIP3   OH215263   1.896   0.023   0.059
 5107TIP3    H115264   1.836   0.038  -0.014
 5107TIP3    H215265   1.963   0.090   0.048
 5108TIP3   OH215266   5.878   7.566   3.117
 5108TIP3    H115267   5.933   7.512   3.060
 5108TIP3    H215268   5.940   7.621   3.165
 5109TIP3   OH215269   3.785   3.672   1.292
 5109TIP3    H115270   3.833   3.739   1.339
 5109TIP3    H215271   3.698   3.672   1.331
 5110TIP3   OH215272   4.575   3.396   3.901
 5110TIP3    H115273   4.606   3.350   3.823
 5110TIP3    H215274   4.623   3.478   3.901
 5111TIP3   OH215275   0.983   6.792   4.751
 5111TIP3    H115276   0.905   6.798   4.805
 5111TIP3    H215277   0.958   6.737   4.677
 5112TIP3   OH215278   1.122   7.269   6.786
 5112TIP3    H115279   1.048   7.218   6.817
 5112TIP3    H215280   1.126   7.252   6.692
 5113TIP3   OH215281   4.996   3.470   5.128
 5113TIP3    H115282   4.932   3.456   5.058
 5113TIP3    H215283   4.972   3.556   5.164
 5114TIP3   OH215284   3.594   2.237   5.809
 5114TIP3    H115285   3.662   2.236   5.877
 5114TIP3    H215286   3.568   2.329   5.803
 5115TIP3   OH215287   4.735   0.764   0.280
 5115TIP3    H115288   4.780   0.706   0.342
 5115TIP3    H215289   4.651   0.782   0.322
 5116TIP3   OH215290   8.130   4.024   5.033
 5116TIP3    H115291   8.146   3.931   5.046
 5116TIP3    H215292   8.215   4.059   5.006
 5117TIP3   OH215293   0.602   0.364   1.853
 5117TIP3    H115294   0.679   0.341   1.801
 5117TIP3    H215295   0.547   0.414   1.792
 5118TIP3   OH215296   5.056   2.510   6.197
 5118TIP3    H115297   5.111   2.475   6.268
 5118TIP3    H215298   5.115   2.564   6.145
 5119TIP3   OH215299   0.483   1.980   0.234
 5119TIP3    H115300   0.535   1.998   0.312
 5119TIP3    H215301   0.395   2.010   0.256
 5120TIP3   OH215302   3.247   1.057   2.925
 5120TIP3    H115303   3.200   0.994   2.870
 5120TIP3    H215304   3.334   1.019   2.936
 5121TIP3   OH215305   4.889   5.562   4.090
 5121TIP3    H115306   4.825   5.528   4.027
 5121TIP3    H215307   4.883   5.502   4.164
 5122TIP3   OH215308   7.484   1.877   5.514
 5122TIP3    H115309   7.389   1.884   5.505
 5122TIP3    H215310   7.498   1.802   5.571
 5123TIP3   OH215311   2.257   3.193   0.562
 5123TIP3    H115312   2.180   3.149   0.598
 5123TIP3    H215313   2.320   3.195   0.634
 5124TIP3   OH215314   5.388   1.773   5.888
 5124TIP3    H115315   5.330   1.697   5.900
 5124TIP3    H215316   5.373   1.800   5.797
 5125TIP3   OH215317   2.190   1.148   6.118
 5125TIP3    H115318   2.151   1.221   6.165
 5125TIP3    H215319   2.214   1.085   6.186
 5126TIP3   OH215320   1.396   0.388   4.887
 5126TIP3    H115321   1.330   0.322   4.911
 5126TIP3    H215322   1.479   0.341   4.891
 5127TIP3   OH215323   2.216   0.341   5.656
 5127TIP3    H115324   2.311   0.337   5.664
 5127TIP3    H215325   2.188   0.393   5.731
 5128TIP3   OH215326   5.819   7.498   4.046
 5128TIP3    H115327   5.806   7.509   4.140
 5128TIP3    H215328   5.747   7.547   4.006
 5129TIP3   OH215329   3.375   0.260   0.620
 5129TIP3    H115330   3.385   0.169   0.648
 5129TIP3    H215331   3.447   0.307   0.665
 5130TIP3   OH215332   6.693   2.258   5.788
 5130TIP3    H115333   6.641   2.182   5.812
 5130TIP3    H215334   6.772   2.222   5.748
 5131TIP3   OH215335   6.969   3.718   4.446
 5131TIP3    H115336   7.041   3.656   4.459
 5131TIP3    H215337   6.895   3.679   4.493
 5132TIP3   OH215338   2.322   5.113   0.131
 5132TIP3    H115339   2.307   5.208   0.134
 5132TIP3    H215340   2.258   5.076   0.191
 5133TIP3   OH215341   5.519   5.667   5.224
 5133TIP3    H115342   5.427   5.640   5.220
 5133TIP3    H215343   5.516   5.757   5.257
 5134TIP3   OH215344   3.234   2.638   3.007
 5134TIP3    H115345   3.215   2.545   2.993
 5134TIP3    H215346   3.327   2.640   3.028
 5135TIP3   OH215347   3.612   3.721   1.043
 5135TIP3    H115348   3.660   3.732   1.125
 5135TIP3    H215349   3.637   3.796   0.990
 5136TIP3   OH215350   5.001   0.227   4.100
 5136TIP3    H115351   5.034   0.254   4.014
 5136TIP3    H215352   4.930   0.289   4.118
 5137TIP3   OH215353   7.711   3.812   5.899
 5137TIP3    H115354   7.722   3.726   5.859
 5137TIP3    H215355   7.642   3.800   5.965
 5138TIP3   OH215356   1.225   4.083   0.731
 5138TIP3    H115357   1.185   4.104   0.815
 5138TIP3    H215358   1.311   4.047   0.754
 5139TIP3   OH215359   6.346   7.648   3.333
 5139TIP3    H115360   6.431   7.610   3.354
 5139TIP3    H215361   6.283   7.583   3.366
 5140TIP3   OH215362   3.040   0.371   1.390
 5140TIP3    H115363   2.950   0.392   1.366
 5140TIP3    H215364   3.081   0.456   1.407
 5141TIP3   OH215365   2.087   0.755   0.033
 5141TIP3    H115366   2.052   0.839   0.003
 5141TIP3    H215367   2.177   0.775   0.060
 5142TIP3   OH215368   0.526   2.122   0.504
 5142TIP3    H115369   0.551   2.208   0.539
 5142TIP3    H215370   0.432   2.131   0.483
 5143TIP3   OH215371   2.561   6.024   2.842
 5143TIP3    H115372   2.544   6.016   2.936
 5143TIP3    H215373   2.556   5.934   2.809
 5144TIP3   OH215374   3.240   1.314   5.152
 5144TIP3    H115375   3.214   1.236   5.200
 5144TIP3    H215376   3.237   1.287   5.060
 5145TIP3   OH215377   2.075   7.291   2.156
 5145TIP3    H115378   2.155   7.307   2.107
 5145TIP3    H215379   2.085   7.340   2.237
 5146TIP3   OH215380   4.724   3.527   6.531
 5146TIP3    H115381   4.758   3.594   6.472
 5146TIP3    H215382   4.647   3.566   6.571
 5147TIP3   OH215383   7.721   5.542   2.411
 5147TIP3    H115384   7.686   5.616   2.361
 5147TIP3    H215385   7.647   5.481   2.418
 5148TIP3   OH215386   2.002   5.641   5.520
 5148TIP3    H115387   2.043   5.702   5.581
 5148TIP3    H215388   2.045   5.557   5.538
 5149TIP3   OH215389   4.041   2.178   4.171
 5149TIP3    H115390   4.066   2.261   4.131
 5149TIP3    H215391   4.034   2.117   4.098
 5150TIP3   OH215392   2.469   3.862   4.666
 5150TIP3    H115393   2.484   3.946   4.709
 5150TIP3    H215394   2.406   3.881   4.597
 5151TIP3   OH215395   0.835   7.086   0.278
 5151TIP3    H115396   0.763   7.148   0.272
 5151TIP3    H215397   0.914   7.141   0.277
 5152TIP3   OH215398   5.346   0.651   5.367
 5152TIP3    H115399   5.424   0.603   5.339
 5152TIP3    H215400   5.376   0.707   5.439
 5153TIP3   OH215401   2.694   6.574   3.443
 5153TIP3    H115402   2.605   6.546   3.421
 5153TIP3    H215403   2.751   6.527   3.382
 5154TIP3   OH215404   0.978   7.235   0.610
 5154TIP3    H115405   1.012   7.324   0.603
 5154TIP3    H215406   1.054   7.179   0.593
 5155TIP3   OH215407   3.638   6.306   1.678
 5155TIP3    H115408   3.653   6.363   1.603
 5155TIP3    H215409   3.678   6.352   1.752
 5156TIP3   OH215410   7.883   7.694   0.299
 5156TIP3    H115411   7.890   7.696   0.204
 5156TIP3    H215412   7.900   7.784   0.326
 5157TIP3   OH215413   5.966   5.164   4.943
 5157TIP3    H115414   5.898   5.199   5.000
 5157TIP3    H215415   6.040   5.149   5.002
 5158TIP3   OH215416   7.461   2.797   2.752
 5158TIP3    H115417   7.530   2.796   2.686
 5158TIP3    H215418   7.498   2.847   2.825
 5159TIP3   OH215419   4.627   7.493   4.524
 5159TIP3    H115420   4.663   7.582   4.520
 5159TIP3    H215421   4.701   7.436   4.509
 5160TIP3   OH215422   8.312   0.662   5.482
 5160TIP3    H115423   8.334   0.571   5.498
 5160TIP3    H215424   8.217   0.666   5.492
 5161TIP3   OH215425   5.204   4.085   0.452
 5161TIP3    H115426   5.152   4.028   0.396
 5161TIP3    H215427   5.209   4.039   0.536
 5162TIP3   OH215428   6.892   3.445   1.019
 5162TIP3    H115429   6.973   3.468   1.063
 5162TIP3    H215430   6.840   3.399   1.086
 5163TIP3   OH215431   3.050   1.776   5.935
 5163TIP3    H115432   3.051   1.816   6.022
 5163TIP3    H215433   2.976   1.715   5.938
 5164TIP3   OH215434   6.772   2.934   1.153
 5164TIP3    H115435   6.682   2.944   1.181
 5164TIP3    H215436   6.767   2.932   1.057
 5165TIP3   OH215437   2.924   4.313   5.813
 5165TIP3    H115438   2.934   4.403   5.846
 5165TIP3    H215439   2.863   4.321   5.740
 5166TIP3   OH215440   5.984   4.588   2.747
 5166TIP3    H115441   6.037   4.665   2.725
 5166TIP3    H215442   5.932   4.571   2.668
 5167TIP3   OH215443   7.769   3.420   6.280
 5167TIP3    H115444   7.729   3.403   6.365
 5167TIP3    H215445   7.742   3.509   6.258
 5168TIP3   OH215446   4.873   2.865   1.891
 5168TIP3    H115447   4.801   2.880   1.830
 5168TIP3    H215448   4.851   2.917   1.968
 5169TIP3   OH215449   2.280   0.934   0.133
 5169TIP3    H115450   2.262   0.911   0.224
 5169TIP3    H215451   2.205   0.985   0.104
 5170TIP3   OH215452   1.375   2.171   6.141
 5170TIP3    H115453   1.413   2.103   6.197
 5170TIP3    H215454   1.411   2.153   6.054
 5171TIP3   OH215455   1.805   5.044   1.831
 5171TIP3    H115456   1.872   4.987   1.868
 5171TIP3    H215457   1.781   5.002   1.748
 5172TIP3   OH215458   4.564   4.547   5.758
 5172TIP3    H115459   4.545   4.598   5.679
 5172TIP3    H215460   4.509   4.587   5.826
 5173TIP3   OH215461   7.958   2.355   4.256
 5173TIP3    H115462   7.996   2.380   4.340
 5173TIP3    H215463   8.012   2.399   4.191
 5174TIP3   OH215464   3.111   5.349   5.649
 5174TIP3    H115465   3.146   5.262   5.669
 5174TIP3    H215466   3.144   5.369   5.562
 5175TIP3   OH215467   3.486   0.917   6.207
 5175TIP3    H115468   3.482   1.011   6.227
 5175TIP3    H215469   3.524   0.913   6.119
 5176TIP3   OH215470   7.934   2.802   6.214
 5176TIP3    H115471   7.967   2.805   6.304
 5176TIP3    H215472   8.011   2.784   6.161
 5177TIP3   OH215473   0.326   2.085   1.473
 5177TIP3    H115474   0.301   2.028   1.545
 5177TIP3    H215475   0.421   2.095   1.482
 5178TIP3   OH215476   7.807   1.883   3.653
 5178TIP3    H115477   7.752   1.824   3.601
 5178TIP3    H215478   7.805   1.965   3.605
 5179TIP3   OH215479   7.847   0.000   3.937
 5179TIP3    H115480   7.871   0.032   4.024
 5179TIP3    H215481   7.883  -0.089   3.933
 5180TIP3   OH215482   1.122   1.250   5.010
 5180TIP3    H115483   1.203   1.236   4.960
 5180TIP3    H215484   1.149   1.250   5.101
 5181TIP3   OH215485   4.334   3.139   6.494
 5181TIP3    H115486   4.373   3.081   6.429
 5181TIP3    H215487   4.384   3.221   6.486
 5182TIP3   OH215488   0.362   0.215   3.993
 5182TIP3    H115489   0.297   0.146   3.998
 5182TIP3    H215490   0.314   0.295   4.012
 5183TIP3   OH215491   0.070   4.307   4.394
 5183TIP3    H115492   0.082   4.213   4.389
 5183TIP3    H215493   0.153   4.344   4.363
 5184TIP3   OH215494   4.688   7.240   3.889
 5184TIP3    H115495   4.742   7.216   3.813
 5184TIP3    H215496   4.714   7.330   3.909
 5185TIP3   OH215497   1.414   2.904   5.085
 5185TIP3    H115498   1.506   2.887   5.063
 5185TIP3    H215499   1.377   2.940   5.005
 5186TIP3   OH215500   2.157   1.691   1.872
 5186TIP3    H115501   2.134   1.639   1.949
 5186TIP3    H215502   2.245   1.724   1.890
 5187TIP3   OH215503   8.186   1.517   6.753
 5187TIP3    H115504   8.142   1.487   6.832
 5187TIP3    H215505   8.134   1.481   6.681
 5188TIP3   OH215506   1.258   6.517   5.540
 5188TIP3    H115507   1.269   6.422   5.544
 5188TIP3    H215508   1.260   6.537   5.446
 5189TIP3   OH215509   1.054   7.047   4.923
 5189TIP3    H115510   1.024   7.110   4.989
 5189TIP3    H215511   1.132   7.087   4.885
 5190TIP3   OH215512   5.783   2.739   4.810
 5190TIP3    H115513   5.831   2.806   4.762
 5190TIP3    H215514   5.837   2.660   4.802
 5191TIP3   OH215515   0.397   0.908   0.590
 5191TIP3    H115516   0.450   0.920   0.669
 5191TIP3    H215517   0.396   0.994   0.548
 5192TIP3   OH215518   6.136   7.371   4.350
 5192TIP3    H115519   6.134   7.447   4.292
 5192TIP3    H215520   6.224   7.335   4.338
 5193TIP3   OH215521   6.019   4.581   6.492
 5193TIP3    H115522   6.060   4.524   6.557
 5193TIP3    H215523   5.926   4.557   6.494
 5194TIP3   OH215524   4.814   2.470   0.851
 5194TIP3    H115525   4.724   2.438   0.848
 5194TIP3    H215526   4.816   2.542   0.789
 5195TIP3   OH215527   4.439   4.723   2.139
 5195TIP3    H115528   4.532   4.708   2.159
 5195TIP3    H215529   4.403   4.763   2.218
 5196TIP3   OH215530   1.006   1.910   3.608
 5196TIP3    H115531   0.927   1.958   3.634
 5196TIP3    H215532   0.978   1.819   3.601
 5197TIP3   OH215533   3.824   3.921   6.092
 5197TIP3    H115534   3.837   4.016   6.086
 5197TIP3    H215535   3.864   3.887   6.012
 5198TIP3   OH215536   7.692   5.147   2.527
 5198TIP3    H115537   7.739   5.230   2.525
 5198TIP3    H215538   7.600   5.171   2.532
 5199TIP3   OH215539   6.776   3.638   1.889
 5199TIP3    H115540   6.753   3.624   1.797
 5199TIP3    H215541   6.753   3.556   1.932
 5200TIP3   OH215542   0.965   2.461   0.913
 5200TIP3    H115543   0.943   2.388   0.972
 5200TIP3    H215544   1.038   2.428   0.861
 5201TIP3   OH215545   5.859   0.637   0.045
 5201TIP3    H115546   5.791   0.694   0.008
 5201TIP3    H215547   5.823   0.549   0.036
 5202TIP3   OH215548   2.362   4.974   1.896
 5202TIP3    H115549   2.393   5.044   1.838
 5202TIP3    H215550   2.320   4.911   1.838
 5203TIP3   OH215551   4.467   2.932   2.152
 5203TIP3    H115552   4.488   2.863   2.090
 5203TIP3    H215553   4.400   2.894   2.209
 5204TIP3   OH215554   6.914   6.761   0.393
 5204TIP3    H115555   6.999   6.718   0.384
 5204TIP3    H215556   6.909   6.785   0.486
 5205TIP3   OH215557   2.770   2.948   3.955
 5205TIP3    H115558   2.809   2.861   3.958
 5205TIP3    H215559   2.836   3.006   3.993
 5206TIP3   OH215560   6.604   1.944   2.883
 5206TIP3    H115561   6.574   2.035   2.892
 5206TIP3    H215562   6.699   1.949   2.891
 5207TIP3   OH215563   7.292   4.402   3.955
 5207TIP3    H115564   7.309   4.327   3.897
 5207TIP3    H215565   7.258   4.470   3.896
 5208TIP3   OH215566   6.834   6.524   4.539
 5208TIP3    H115567   6.822   6.440   4.584
 5208TIP3    H215568   6.929   6.540   4.543
 5209TIP3   OH215569   2.720   6.755   1.269
 5209TIP3    H115570   2.690   6.828   1.215
 5209TIP3    H215571   2.766   6.697   1.208
 5210TIP3   OH215572   6.716   6.778   0.175
 5210TIP3    H115573   6.774   6.786   0.251
 5210TIP3    H215574   6.677   6.864   0.165
 5211TIP3   OH215575   3.061   2.866   4.447
 5211TIP3    H115576   3.142   2.835   4.489
 5211TIP3    H215577   3.003   2.790   4.447
 5212TIP3   OH215578   0.407   0.264   4.791
 5212TIP3    H115579   0.361   0.240   4.711
 5212TIP3    H215580   0.393   0.359   4.800
 5213TIP3   OH215581   7.350   6.422   3.314
 5213TIP3    H115582   7.434   6.446   3.275
 5213TIP3    H215583   7.339   6.329   3.293
 5214TIP3   OH215584   1.653   5.924   4.483
 5214TIP3    H115585   1.570   5.885   4.456
 5214TIP3    H215586   1.654   5.915   4.579
 5215TIP3   OH215587   7.644   7.656   0.027
 5215TIP3    H115588   7.603   7.741   0.045
 5215TIP3    H215589   7.580   7.591   0.056
 5216TIP3   OH215590   5.037   0.367   0.734
 5216TIP3    H115591   5.013   0.387   0.825
 5216TIP3    H215592   5.094   0.290   0.741
 5217TIP3   OH215593   2.128   5.258   1.846
 5217TIP3    H115594   2.076   5.179   1.834
 5217TIP3    H215595   2.128   5.273   1.941
 5218TIP3   OH215596   1.524   0.740   2.492
 5218TIP3    H115597   1.452   0.745   2.429
 5218TIP3    H215598   1.527   0.648   2.518
 5219TIP3   OH215599   0.733   3.622   0.252
 5219TIP3    H115600   0.796   3.694   0.262
 5219TIP3    H215601   0.654   3.653   0.297
 5220TIP3   OH215602   1.312   3.084   5.447
 5220TIP3    H115603   1.405   3.093   5.469
 5220TIP3    H215604   1.272   3.164   5.481
 5221TIP3   OH215605   7.161   3.666   5.164
 5221TIP3    H115606   7.188   3.606   5.095
 5221TIP3    H215607   7.214   3.642   5.240
 5222TIP3   OH215608   5.220   3.986   4.061
 5222TIP3    H115609   5.256   4.075   4.062
 5222TIP3    H215610   5.283   3.936   4.009
 5223TIP3   OH215611   3.429   6.407   0.208
 5223TIP3    H115612   3.424   6.366   0.122
 5223TIP3    H215613   3.512   6.455   0.207
 5224TIP3   OH215614   0.802   4.882   2.881
 5224TIP3    H115615   0.850   4.838   2.951
 5224TIP3    H215616   0.710   4.866   2.902
 5225TIP3   OH215617   2.533   4.892   2.422
 5225TIP3    H115618   2.470   4.828   2.390
 5225TIP3    H215619   2.496   4.977   2.396
 5226TIP3   OH215620   2.902   3.023   5.495
 5226TIP3    H115621   2.947   3.073   5.427
 5226TIP3    H215622   2.892   3.084   5.568
 5227TIP3   OH215623   5.544   0.896   3.264
 5227TIP3    H115624   5.530   0.826   3.200
 5227TIP3    H215625   5.544   0.976   3.211
 5228TIP3   OH215626   8.127   7.486   3.774
 5228TIP3    H115627   8.102   7.548   3.705
 5228TIP3    H215628   8.173   7.539   3.839
 5229TIP3   OH215629   0.264   6.105   5.140
 5229TIP3    H115630   0.257   6.198   5.164
 5229TIP3    H215631   0.200   6.061   5.196
 5230TIP3   OH215632   7.239   1.341   4.014
 5230TIP3    H115633   7.255   1.374   3.925
 5230TIP3    H215634   7.150   1.307   4.011
 5231TIP3   OH215635   6.897   1.853   5.462
 5231TIP3    H115636   6.894   1.766   5.502
 5231TIP3    H215637   6.988   1.880   5.472
 5232TIP3   OH215638   0.843   7.189   2.833
 5232TIP3    H115639   0.890   7.264   2.869
 5232TIP3    H215640   0.840   7.126   2.905
 5233TIP3   OH215641   2.482   1.636   6.045
 5233TIP3    H115642   2.511   1.591   5.966
 5233TIP3    H215643   2.555   1.626   6.107
 5234TIP3   OH215644   2.877   0.351   5.490
 5234TIP3    H115645   2.958   0.341   5.541
 5234TIP3    H215646   2.819   0.282   5.523
 5235TIP3   OH215647   3.619   7.039   1.338
 5235TIP3    H115648   3.540   7.084   1.308
 5235TIP3    H215649   3.619   7.052   1.433
 5236TIP3   OH215650   4.744   2.490   3.786
 5236TIP3    H115651   4.657   2.527   3.798
 5236TIP3    H215652   4.737   2.400   3.816
 5237TIP3   OH215653   6.490   3.500   0.933
 5237TIP3    H115654   6.493   3.542   1.019
 5237TIP3    H215655   6.535   3.416   0.945
 5238TIP3   OH215656   3.747   0.811   0.471
 5238TIP3    H115657   3.794   0.782   0.549
 5238TIP3    H215658   3.754   0.907   0.474
 5239TIP3   OH215659   0.618   4.578   1.838
 5239TIP3    H115660   0.633   4.483   1.841
 5239TIP3    H215661   0.541   4.592   1.893
 5240TIP3   OH215662   7.672   0.142   2.839
 5240TIP3    H115663   7.600   0.202   2.857
 5240TIP3    H215664   7.751   0.196   2.843
 5241TIP3   OH215665   1.345   1.598   3.930
 5241TIP3    H115666   1.309   1.628   3.846
 5241TIP3    H215667   1.341   1.675   3.987
 5242TIP3   OH215668   0.376   7.055   3.702
 5242TIP3    H115669   0.327   6.975   3.722
 5242TIP3    H215670   0.338   7.121   3.759
 5243TIP3   OH215671   4.318   5.793   0.151
 5243TIP3    H115672   4.403   5.833   0.135
 5243TIP3    H215673   4.324   5.706   0.110
 5244TIP3   OH215674   6.904   2.714   0.662
 5244TIP3    H115675   6.833   2.759   0.617
 5244TIP3    H215676   6.894   2.622   0.637
 5245TIP3   OH215677   1.399   7.012   5.212
 5245TIP3    H115678   1.374   6.967   5.293
 5245TIP3    H215679   1.490   6.985   5.197
 5246TIP3   OH215680   4.454   1.943   5.119
 5246TIP3    H115681   4.525   1.955   5.182
 5246TIP3    H215682   4.496   1.953   5.033
 5247TIP3   OH215683   6.248   3.003   5.106
 5247TIP3    H115684   6.184   2.950   5.058
 5247TIP3    H215685   6.200   3.035   5.183
 5248TIP3   OH215686   7.172   6.295   2.413
 5248TIP3    H115687   7.183   6.341   2.496
 5248TIP3    H215688   7.257   6.304   2.369
 5249TIP3   OH215689   7.417   1.768   4.299
 5249TIP3    H115690   7.435   1.806   4.385
 5249TIP3    H215691   7.402   1.675   4.317
 5250TIP3   OH215692   1.719   1.464   4.248
 5250TIP3    H115693   1.782   1.482   4.178
 5250TIP3    H215694   1.746   1.379   4.283
 5251TIP3   OH215695   0.462   5.646   0.609
 5251TIP3    H115696   0.390   5.704   0.633
 5251TIP3    H215697   0.526   5.656   0.680
 5252TIP3   OH215698   4.285   7.504   6.321
 5252TIP3    H115699   4.307   7.494   6.414
 5252TIP3    H215700   4.336   7.437   6.276
 5253TIP3   OH215701   6.772   7.588   5.686
 5253TIP3    H115702   6.738   7.673   5.658
 5253TIP3    H215703   6.866   7.593   5.671
 5254TIP3   OH215704   1.560   3.003   5.877
 5254TIP3    H115705   1.565   2.926   5.821
 5254TIP3    H215706   1.511   3.067   5.826
 5255TIP3   OH215707   2.526   3.583   2.391
 5255TIP3    H115708   2.579   3.561   2.315
 5255TIP3    H215709   2.545   3.512   2.454
 5256TIP3   OH215710   2.954   4.658   0.217
 5256TIP3    H115711   2.875   4.665   0.163
 5256TIP3    H215712   3.020   4.621   0.157
 5257TIP3   OH215713   3.480   5.880   6.191
 5257TIP3    H115714   3.427   5.804   6.167
 5257TIP3    H215715   3.569   5.857   6.164
 5258TIP3   OH215716   1.937   6.457   6.577
 5258TIP3    H115717   1.982   6.533   6.538
 5258TIP3    H215718   1.976   6.382   6.533
 5259TIP3   OH215719   6.168   7.210   0.336
 5259TIP3    H115720   6.088   7.261   0.340
 5259TIP3    H215721   6.160   7.147   0.407
 5260TIP3   OH215722   3.798   4.928   3.243
 5260TIP3    H115723   3.779   4.975   3.325
 5260TIP3    H215724   3.893   4.913   3.246
 5261TIP3   OH215725   6.057   5.189   6.690
 5261TIP3    H115726   6.079   5.110   6.739
 5261TIP3    H215727   6.142   5.227   6.666
 5262TIP3   OH215728   0.914   1.564   2.200
 5262TIP3    H115729   0.883   1.635   2.144
 5262TIP3    H215730   0.840   1.505   2.208
 5263TIP3   OH215731   0.944   1.696   3.252
 5263TIP3    H115732   1.036   1.705   3.278
 5263TIP3    H215733   0.927   1.602   3.256
 5264TIP3   OH215734   8.312   6.813   5.688
 5264TIP3    H115735   8.279   6.734   5.646
 5264TIP3    H215736   8.401   6.790   5.715
 5265TIP3   OH215737   6.021   4.076   4.140
 5265TIP3    H115738   6.090   4.126   4.096
 5265TIP3    H215739   6.004   4.125   4.220
 5266TIP3   OH215740   0.390   6.706   2.309
 5266TIP3    H115741   0.339   6.750   2.242
 5266TIP3    H215742   0.338   6.630   2.334
 5267TIP3   OH215743   5.050   4.211   1.034
 5267TIP3    H115744   5.088   4.216   0.946
 5267TIP3    H215745   5.031   4.118   1.047
 5268TIP3   OH215746   1.931   1.797   4.694
 5268TIP3    H115747   1.917   1.869   4.632
 5268TIP3    H215748   1.946   1.840   4.778
 5269TIP3   OH215749   1.514   5.326   3.821
 5269TIP3    H115750   1.601   5.293   3.843
 5269TIP3    H215751   1.527   5.419   3.805
 5270TIP3   OH215752   2.802   2.869   1.820
 5270TIP3    H115753   2.888   2.906   1.801
 5270TIP3    H215754   2.818   2.801   1.885
 5271TIP3   OH215755   3.767   4.812   4.050
 5271TIP3    H115756   3.832   4.743   4.036
 5271TIP3    H215757   3.698   4.770   4.102
 5272TIP3   OH215758   6.981   5.865   3.914
 5272TIP3    H115759   6.892   5.840   3.939
 5272TIP3    H215760   6.976   5.879   3.819
 5273TIP3   OH215761   6.973   5.383   0.771
 5273TIP3    H115762   6.940   5.428   0.693
 5273TIP3    H215763   7.068   5.397   0.769
 5274TIP3   OH215764   5.173   5.517   1.492
 5274TIP3    H115765   5.265   5.490   1.492
 5274TIP3    H215766   5.135   5.468   1.418
 5275TIP3   OH215767   0.349   7.537   0.214
 5275TIP3    H115768   0.335   7.628   0.242
 5275TIP3    H215769   0.417   7.504   0.272
 5276TIP3   OH215770   3.955   6.604   1.661
 5276TIP3    H115771   3.927   6.692   1.640
 5276TIP3    H215772   3.910   6.583   1.743
 5277TIP3   OH215773   6.951   5.461   5.939
 5277TIP3    H115774   6.946   5.490   6.030
 5277TIP3    H215775   7.030   5.408   5.935
 5278TIP3   OH215776   0.559   3.808   5.037
 5278TIP3    H115777   0.477   3.793   4.990
 5278TIP3    H215778   0.582   3.899   5.016
 5279TIP3   OH215779   7.316   1.913   2.374
 5279TIP3    H115780   7.362   1.956   2.302
 5279TIP3    H215781   7.238   1.875   2.333
 5280TIP3   OH215782   4.336   2.760   0.143
 5280TIP3    H115783   4.244   2.782   0.130
 5280TIP3    H215784   4.383   2.842   0.127
 5281TIP3   OH215785   2.756   0.293   1.556
 5281TIP3    H115786   2.823   0.247   1.505
 5281TIP3    H215787   2.739   0.373   1.506
 5282TIP3   OH215788   8.186   3.247   1.775
 5282TIP3    H115789   8.281   3.242   1.761
 5282TIP3    H215790   8.176   3.307   1.849
 5283TIP3   OH215791   3.579   7.560   4.635
 5283TIP3    H115792   3.654   7.566   4.694
 5283TIP3    H215793   3.504   7.546   4.694
 5284TIP3   OH215794   6.048   2.297   1.741
 5284TIP3    H115795   6.015   2.284   1.652
 5284TIP3    H215796   6.037   2.391   1.757
 5285TIP3   OH215797   0.621   7.118   6.117
 5285TIP3    H115798   0.662   7.082   6.196
 5285TIP3    H215799   0.602   7.041   6.063
 5286TIP3   OH215800   1.280   4.928   4.062
 5286TIP3    H115801   1.364   4.932   4.109
 5286TIP3    H215802   1.300   4.880   3.982
 5287TIP3   OH215803   0.619   2.154   5.050
 5287TIP3    H115804   0.685   2.222   5.031
 5287TIP3    H215805   0.601   2.114   4.965
 5288TIP3   OH215806   4.079   6.143   5.430
 5288TIP3    H115807   4.008   6.078   5.426
 5288TIP3    H215808   4.034   6.226   5.445
 5289TIP3   OH215809   7.696   5.519   1.630
 5289TIP3    H115810   7.641   5.582   1.583
 5289TIP3    H215811   7.649   5.503   1.712
 5290TIP3   OH215812   0.700   1.115   1.094
 5290TIP3    H115813   0.667   1.186   1.039
 5290TIP3    H215814   0.795   1.120   1.085
 5291TIP3   OH215815   5.877   5.296   5.363
 5291TIP3    H115816   5.865   5.385   5.328
 5291TIP3    H215817   5.965   5.297   5.402
 5292TIP3   OH215818   3.968   3.764   5.879
 5292TIP3    H115819   3.879   3.731   5.862
 5292TIP3    H215820   4.013   3.691   5.919
 5293TIP3   OH215821   1.482   5.629   6.329
 5293TIP3    H115822   1.489   5.584   6.245
 5293TIP3    H215823   1.388   5.642   6.342
 5294TIP3   OH215824   0.467   1.429   1.742
 5294TIP3    H115825   0.559   1.452   1.731
 5294TIP3    H215826   0.468   1.334   1.759
 5295TIP3   OH215827   1.406   2.633   2.443
 5295TIP3    H115828   1.411   2.589   2.528
 5295TIP3    H215829   1.313   2.633   2.422
 5296TIP3   OH215830   2.548   0.021   1.017
 5296TIP3    H115831   2.625   0.042   0.964
 5296TIP3    H215832   2.532   0.100   1.068
 5297TIP3   OH215833   6.854   0.118   2.524
 5297TIP3    H115834   6.829   0.026   2.530
 5297TIP3    H215835   6.858   0.148   2.615
 5298TIP3   OH215836   5.714   4.645   4.920
 5298TIP3    H115837   5.780   4.665   4.854
 5298TIP3    H215838   5.761   4.593   4.986
 5299TIP3   OH215839   6.330   5.273   6.645
 5299TIP3    H115840   6.407   5.290   6.592
 5299TIP3    H215841   6.342   5.185   6.679
 5300TIP3   OH215842   0.536   3.992   1.043
 5300TIP3    H115843   0.457   3.964   1.088
 5300TIP3    H215844   0.606   3.979   1.107
 5301TIP3   OH215845   0.696   7.164   1.163
 5301TIP3    H115846   0.766   7.100   1.171
 5301TIP3    H215847   0.740   7.249   1.168
 5302TIP3   OH215848   2.012   5.780   4.568
 5302TIP3    H115849   2.013   5.685   4.564
 5302TIP3    H215850   1.963   5.808   4.490
 5303TIP3   OH215851   6.263   2.348   3.430
 5303TIP3    H115852   6.273   2.314   3.519
 5303TIP3    H215853   6.169   2.355   3.418
 5304TIP3   OH215854   1.178   5.171   2.391
 5304TIP3    H115855   1.098   5.223   2.399
 5304TIP3    H215856   1.149   5.080   2.400
 5305TIP3   OH215857   3.852   1.951   2.381
 5305TIP3    H115858   3.761   1.974   2.400
 5305TIP3    H215859   3.864   1.865   2.422
 5306TIP3   OH215860   5.297   4.270   3.463
 5306TIP3    H115861   5.264   4.182   3.445
 5306TIP3    H215862   5.221   4.327   3.449
 5307TIP3   OH215863   2.553   4.353   4.808
 5307TIP3    H115864   2.601   4.390   4.734
 5307TIP3    H215865   2.579   4.407   4.883
 5308TIP3   OH215866   7.804   3.116   0.682
 5308TIP3    H115867   7.785   3.207   0.660
 5308TIP3    H215868   7.899   3.112   0.693
 5309TIP3   OH215869   6.855   4.023   0.867
 5309TIP3    H115870   6.916   4.004   0.939
 5309TIP3    H215871   6.869   4.116   0.848
 5310TIP3   OH215872   7.951   3.261   2.630
 5310TIP3    H115873   7.868   3.221   2.657
 5310TIP3    H215874   8.017   3.196   2.652
 5311TIP3   OH215875   1.271   7.252   5.091
 5311TIP3    H115876   1.323   7.181   5.130
 5311TIP3    H215877   1.297   7.252   4.999
 5312TIP3   OH215878   5.829   4.050   5.242
 5312TIP3    H115879   5.867   3.964   5.224
 5312TIP3    H215880   5.836   4.060   5.337
 5313TIP3   OH215881   1.506   2.132   0.329
 5313TIP3    H115882   1.428   2.087   0.362
 5313TIP3    H215883   1.473   2.187   0.258
 5314TIP3   OH215884   5.320   0.801   2.145
 5314TIP3    H115885   5.368   0.869   2.192
 5314TIP3    H215886   5.277   0.750   2.214
 5315TIP3   OH215887   2.319   1.904   2.772
 5315TIP3    H115888   2.374   1.828   2.791
 5315TIP3    H215889   2.290   1.935   2.858
 5316TIP3   OH215890   6.415   6.513   4.789
 5316TIP3    H115891   6.494   6.524   4.736
 5316TIP3    H215892   6.361   6.453   4.738
 5317TIP3   OH215893   3.103   1.206   3.105
 5317TIP3    H115894   3.167   1.228   3.172
 5317TIP3    H215895   3.149   1.146   3.046
 5318TIP3   OH215896   0.187   3.219   1.741
 5318TIP3    H115897   0.244   3.182   1.674
 5318TIP3    H215898   0.247   3.243   1.812
 5319TIP3   OH215899   7.195   1.942   3.916
 5319TIP3    H115900   7.180   1.861   3.964
 5319TIP3    H215901   7.269   1.983   3.960
 5320TIP3   OH215902   7.391   2.984   1.352
 5320TIP3    H115903   7.345   3.062   1.321
 5320TIP3    H215904   7.361   2.914   1.294
 5321TIP3   OH215905   0.037   0.386   5.591
 5321TIP3    H115906   0.065   0.433   5.670
 5321TIP3    H215907   0.119   0.352   5.554
 5322TIP3   OH215908   1.870   6.252   0.365
 5322TIP3    H115909   1.803   6.183   0.364
 5322TIP3    H215910   1.928   6.229   0.438
 5323TIP3   OH215911   3.842   0.449   2.644
 5323TIP3    H115912   3.790   0.425   2.721
 5323TIP3    H215913   3.824   0.543   2.632
 5324TIP3   OH215914   2.555   0.137   4.843
 5324TIP3    H115915   2.565   0.199   4.915
 5324TIP3    H215916   2.605   0.060   4.870
 5325TIP3   OH215917   0.364   3.065   4.945
 5325TIP3    H115918   0.358   3.157   4.918
 5325TIP3    H215919   0.278   3.029   4.928
 5326TIP3   OH215920   1.757   0.205   1.918
 5326TIP3    H115921   1.819   0.224   1.847
 5326TIP3    H215922   1.780   0.268   1.987
 5327TIP3   OH215923   1.635   6.463   5.983
 5327TIP3    H115924   1.577   6.392   6.008
 5327TIP3    H215925   1.612   6.535   6.042
 5328TIP3   OH215926   2.206   2.594   5.233
 5328TIP3    H115927   2.278   2.657   5.237
 5328TIP3    H215928   2.155   2.621   5.157
 5329TIP3   OH215929   5.889   0.669   3.839
 5329TIP3    H115930   5.867   0.665   3.746
 5329TIP3    H215931   5.915   0.760   3.853
 5330TIP3   OH215932   3.043   0.114   2.269
 5330TIP3    H115933   3.043   0.020   2.249
 5330TIP3    H215934   3.136   0.138   2.273
 5331TIP3   OH215935   5.843   6.110   0.055
 5331TIP3    H115936   5.778   6.161   0.007
 5331TIP3    H215937   5.858   6.032   0.000
 5332TIP3   OH215938   7.234   5.837   3.247
 5332TIP3    H115939   7.151   5.836   3.294
 5332TIP3    H215940   7.234   5.755   3.197
 5333TIP3   OH215941   0.921   2.063   1.343
 5333TIP3    H115942   0.947   2.124   1.411
 5333TIP3    H215943   0.975   2.087   1.267
 5334TIP3   OH215944   3.977   2.765   3.960
 5334TIP3    H115945   4.036   2.818   3.905
 5334TIP3    H215946   3.926   2.714   3.897
 5335TIP3   OH215947   2.388   2.563   3.042
 5335TIP3    H115948   2.393   2.510   3.121
 5335TIP3    H215949   2.304   2.539   3.002
 5336TIP3   OH215950   8.107   3.630   0.233
 5336TIP3    H115951   8.185   3.602   0.185
 5336TIP3    H215952   8.141   3.676   0.310
 5337TIP3   OH215953   6.996   1.936   1.251
 5337TIP3    H115954   6.906   1.950   1.220
 5337TIP3    H215955   6.999   1.844   1.277
 5338TIP3   OH215956   2.894   6.606   1.478
 5338TIP3    H115957   2.854   6.643   1.399
 5338TIP3    H215958   2.848   6.648   1.550
 5339TIP3   OH215959   5.928   1.230   3.548
 5339TIP3    H115960   5.885   1.311   3.519
 5339TIP3    H215961   5.862   1.162   3.533
 5340TIP3   OH215962   4.301   2.086   2.687
 5340TIP3    H115963   4.331   2.106   2.599
 5340TIP3    H215964   4.369   2.122   2.744
 5341TIP3   OH215965   3.152   3.786   5.145
 5341TIP3    H115966   3.116   3.849   5.207
 5341TIP3    H215967   3.083   3.775   5.080
 5342TIP3   OH215968   1.579   2.254   5.543
 5342TIP3    H115969   1.611   2.275   5.456
 5342TIP3    H215970   1.503   2.311   5.555
 5343TIP3   OH215971   8.185   4.437   1.678
 5343TIP3    H115972   8.150   4.516   1.638
 5343TIP3    H215973   8.128   4.366   1.646
 5344TIP3   OH215974   1.882   2.441   2.299
 5344TIP3    H115975   1.957   2.500   2.294
 5344TIP3    H215976   1.824   2.483   2.363
 5345TIP3   OH215977   8.151   0.660   4.167
 5345TIP3    H115978   8.197   0.740   4.142
 5345TIP3    H215979   8.090   0.644   4.094
 5346TIP3   OH215980   0.750   4.655   6.119
 5346TIP3    H115981   0.727   4.746   6.135
 5346TIP3    H215982   0.789   4.625   6.202
 5347TIP3   OH215983   8.063   7.229   3.826
 5347TIP3    H115984   8.091   7.156   3.770
 5347TIP3    H215985   8.102   7.306   3.787
 5348TIP3   OH215986   6.318   3.373   6.544
 5348TIP3    H115987   6.363   3.307   6.491
 5348TIP3    H215988   6.226   3.364   6.521
 5349TIP3   OH215989   5.232   2.615   1.092
 5349TIP3    H115990   5.145   2.583   1.069
 5349TIP3    H215991   5.287   2.537   1.095
 5350TIP3   OH215992   5.107   6.786   1.836
 5350TIP3    H115993   5.037   6.721   1.835
 5350TIP3    H215994   5.123   6.805   1.743
 5351TIP3   OH215995   7.642   3.414   4.777
 5351TIP3    H115996   7.594   3.441   4.699
 5351TIP3    H215997   7.734   3.412   4.749
 5352TIP3   OH215998   3.539   3.176   2.063
 5352TIP3    H115999   3.448   3.207   2.067
 5352TIP3    H216000   3.540   3.116   1.988
 5353TIP3   OH216001   1.581   7.020   6.260
 5353TIP3    H116002   1.675   7.007   6.248
 5353TIP3    H216003   1.547   6.933   6.282
 5354TIP3   OH216004   3.241   5.139   4.239
 5354TIP3    H116005   3.227   5.077   4.167
 5354TIP3    H216006   3.170   5.121   4.301
 5355TIP3   OH216007   6.883   4.456   1.136
 5355TIP3    H116008   6.868   4.375   1.184
 5355TIP3    H216009   6.804   4.467   1.083
 5356TIP3   OH216010   6.940   2.485   1.945
 5356TIP3    H116011   6.891   2.567   1.936
 5356TIP3    H216012   7.002   2.502   2.015
 5357TIP3   OH216013   7.564   0.915   6.030
 5357TIP3    H116014   7.552   1.009   6.042
 5357TIP3    H216015   7.613   0.907   5.948
 5358TIP3   OH216016   5.539   4.035   2.622
 5358TIP3    H116017   5.450   4.013   2.594
 5358TIP3    H216018   5.530   4.053   2.716
 5359TIP3   OH216019   0.922   4.378   3.149
 5359TIP3    H116020   0.979   4.420   3.084
 5359TIP3    H216021   0.979   4.363   3.225
 5360TIP3   OH216022   0.519   6.553   4.029
 5360TIP3    H116023   0.454   6.622   4.042
 5360TIP3    H216024   0.603   6.599   4.029
 5361TIP3   OH216025   5.142   5.667   5.763
 5361TIP3    H116026   5.198   5.699   5.833
 5361TIP3    H216027   5.196   5.602   5.717
 5362TIP3   OH216028   1.191   6.335   3.336
 5362TIP3    H116029   1.269   6.383   3.363
 5362TIP3    H216030   1.192   6.256   3.390
 5363TIP3   OH216031   6.645   1.629   1.225
 5363TIP3    H116032   6.554   1.625   1.253
 5363TIP3    H216033   6.664   1.541   1.192
 5364TIP3   OH216034   3.061   6.707   4.236
 5364TIP3    H116035   3.156   6.710   4.252
 5364TIP3    H216036   3.027   6.655   4.309
 5365TIP3   OH216037   5.997   7.401   5.837
 5365TIP3    H116038   6.045   7.425   5.758
 5365TIP3    H216039   5.996   7.306   5.838
 5366TIP3   OH216040   7.697   5.605   3.956
 5366TIP3    H116041   7.688   5.615   3.861
 5366TIP3    H216042   7.633   5.665   3.993
 5367TIP3   OH216043   1.124   3.794   0.093
 5367TIP3    H116044   1.048   3.804   0.149
 5367TIP3    H216045   1.089   3.771   0.007
 5368TIP3   OH216046   0.759   3.424   0.435
 5368TIP3    H116047   0.787   3.488   0.370
 5368TIP3    H216048   0.685   3.465   0.480
 5369TIP3   OH216049   6.564   1.119   0.818
 5369TIP3    H116050   6.606   1.174   0.751
 5369TIP3    H216051   6.470   1.128   0.800
 5370TIP3   OH216052   3.303   5.460   1.259
 5370TIP3    H116053   3.270   5.524   1.197
 5370TIP3    H216054   3.237   5.457   1.328
 5371TIP3   OH216055   2.256   3.288   4.429
 5371TIP3    H116056   2.235   3.380   4.443
 5371TIP3    H216057   2.281   3.255   4.515
 5372TIP3   OH216058   5.469   4.699   0.623
 5372TIP3    H116059   5.510   4.767   0.569
 5372TIP3    H216060   5.450   4.628   0.561
 5373TIP3   OH216061   6.126   2.207   4.778
 5373TIP3    H116062   6.149   2.293   4.813
 5373TIP3    H216063   6.030   2.205   4.779
 5374TIP3   OH216064   6.376   0.578   1.806
 5374TIP3    H116065   6.467   0.559   1.828
 5374TIP3    H216066   6.325   0.542   1.879
 5375TIP3   OH216067   6.165   1.707   5.205
 5375TIP3    H116068   6.216   1.631   5.234
 5375TIP3    H216069   6.222   1.752   5.143
 5376TIP3   OH216070   1.912   5.046   4.468
 5376TIP3    H116071   1.898   5.068   4.560
 5376TIP3    H216072   2.008   5.049   4.458
 5377TIP3   OH216073   1.599   4.506   1.993
 5377TIP3    H116074   1.618   4.589   1.949
 5377TIP3    H216075   1.684   4.465   2.004
 5378TIP3   OH216076   2.206   3.742   2.488
 5378TIP3    H116077   2.232   3.658   2.526
 5378TIP3    H216078   2.271   3.805   2.519
 5379TIP3   OH216079   2.279   5.493   4.617
 5379TIP3    H116080   2.227   5.414   4.605
 5379TIP3    H216081   2.279   5.535   4.531
 5380TIP3   OH216082   5.175   4.678   0.690
 5380TIP3    H116083   5.263   4.706   0.664
 5380TIP3    H216084   5.165   4.708   0.780
 5381TIP3   OH216085   6.047   1.572   3.580
 5381TIP3    H116086   5.965   1.583   3.628
 5381TIP3    H216087   6.085   1.491   3.615
 5382TIP3   OH216088   1.379   7.363   3.872
 5382TIP3    H116089   1.366   7.431   3.938
 5382TIP3    H216090   1.300   7.367   3.818
 5383TIP3   OH216091   6.261   2.176   4.494
 5383TIP3    H116092   6.167   2.191   4.486
 5383TIP3    H216093   6.269   2.108   4.561
 5384TIP3   OH216094   7.731   1.613   4.437
 5384TIP3    H116095   7.694   1.528   4.413
 5384TIP3    H216096   7.671   1.646   4.504
 5385TIP3   OH216097   5.994   2.137   1.950
 5385TIP3    H116098   6.025   2.192   2.022
 5385TIP3    H216099   6.018   2.186   1.871
 5386TIP3   OH216100   0.839   7.262   5.980
 5386TIP3    H116101   0.804   7.224   5.899
 5386TIP3    H216102   0.791   7.217   6.050
 5387TIP3   OH216103   4.026   2.494   2.414
 5387TIP3    H116104   3.993   2.504   2.325
 5387TIP3    H216105   4.105   2.440   2.405
 5388TIP3   OH216106   7.694   2.877   5.710
 5388TIP3    H116107   7.677   2.820   5.785
 5388TIP3    H216108   7.631   2.949   5.720
 5389TIP3   OH216109   0.411   1.127   3.009
 5389TIP3    H116110   0.506   1.133   2.997
 5389TIP3    H216111   0.396   1.156   3.099
 5390TIP3   OH216112   3.409   4.696   1.157
 5390TIP3    H116113   3.320   4.699   1.190
 5390TIP3    H216114   3.404   4.737   1.070
 5391TIP3   OH216115   5.306   4.354   1.050
 5391TIP3    H116116   5.219   4.314   1.047
 5391TIP3    H216117   5.343   4.323   1.132
 5392TIP3   OH216118   5.882   3.715   6.622
 5392TIP3    H116119   5.962   3.765   6.607
 5392TIP3    H216120   5.910   3.636   6.668
 5393TIP3   OH216121   3.913   3.330   3.642
 5393TIP3    H116122   3.853   3.259   3.616
 5393TIP3    H216123   3.999   3.289   3.643
 5394TIP3   OH216124   6.130   0.541   3.859
 5394TIP3    H116125   6.123   0.464   3.915
 5394TIP3    H216126   6.056   0.596   3.885
 5395TIP3   OH216127   2.741   3.692   3.381
 5395TIP3    H116128   2.706   3.754   3.317
 5395TIP3    H216129   2.767   3.616   3.328
 5396TIP3   OH216130   1.524   4.044   3.297
 5396TIP3    H116131   1.464   4.048   3.222
 5396TIP3    H216132   1.610   4.062   3.260
 5397TIP3   OH216133   3.346   5.139   2.932
 5397TIP3    H116134   3.439   5.142   2.909
 5397TIP3    H216135   3.322   5.231   2.945
 5398TIP3   OH216136   4.763   6.127   0.884
 5398TIP3    H116137   4.844   6.172   0.908
 5398TIP3    H216138   4.760   6.050   0.941
 5399TIP3   OH216139   6.175   7.695   0.386
 5399TIP3    H116140   6.171   7.628   0.454
 5399TIP3    H216141   6.093   7.686   0.339
 5400TIP3   OH216142   3.658   5.542   0.667
 5400TIP3    H116143   3.738   5.576   0.628
 5400TIP3    H216144   3.625   5.613   0.722
 5401TIP3   OH216145   2.959   2.752   3.685
 5401TIP3    H116146   2.939   2.752   3.779
 5401TIP3    H216147   3.054   2.765   3.681
 5402TIP3   OH216148   8.107   5.594   2.401
 5402TIP3    H116149   8.181   5.535   2.386
 5402TIP3    H216150   8.093   5.592   2.496
 5403TIP3   OH216151   0.350   2.800   3.590
 5403TIP3    H116152   0.337   2.742   3.665
 5403TIP3    H216153   0.272   2.788   3.536
 5404TIP3   OH216154   3.816   2.397   4.309
 5404TIP3    H116155   3.839   2.483   4.274
 5404TIP3    H216156   3.810   2.341   4.232
 5405TIP3   OH216157   1.657   3.719   1.111
 5405TIP3    H116158   1.649   3.634   1.154
 5405TIP3    H216159   1.588   3.772   1.150
 5406TIP3   OH216160   3.924   0.459   3.539
 5406TIP3    H116161   3.973   0.393   3.589
 5406TIP3    H216162   3.980   0.536   3.538
 5407TIP3   OH216163   3.518   5.652   1.049
 5407TIP3    H116164   3.425   5.639   1.067
 5407TIP3    H216165   3.521   5.718   0.980
 5408TIP3   OH216166   0.669   6.150   4.526
 5408TIP3    H116167   0.644   6.145   4.618
 5408TIP3    H216168   0.641   6.066   4.489
 5409TIP3   OH216169   2.618   7.780   6.672
 5409TIP3    H116170   2.546   7.842   6.661
 5409TIP3    H216171   2.638   7.752   6.582
 5410TIP3   OH216172   5.681   3.783   3.041
 5410TIP3    H116173   5.623   3.709   3.022
 5410TIP3    H216174   5.769   3.751   3.018
 5411TIP3   OH216175   7.732   6.821   2.249
 5411TIP3    H116176   7.798   6.831   2.318
 5411TIP3    H216177   7.694   6.735   2.266
 5412TIP3   OH216178   7.744   5.255   1.673
 5412TIP3    H116179   7.713   5.244   1.762
 5412TIP3    H216180   7.729   5.348   1.653
 5413TIP3   OH216181   8.157   3.974   3.311
 5413TIP3    H116182   8.173   3.893   3.359
 5413TIP3    H216183   8.131   4.037   3.379
 5414TIP3   OH216184   0.639   5.229   6.281
 5414TIP3    H116185   0.718   5.187   6.314
 5414TIP3    H216186   0.578   5.227   6.354
 5415TIP3   OH216187   6.323   2.671   0.455
 5415TIP3    H116188   6.259   2.731   0.417
 5415TIP3    H216189   6.296   2.664   0.547
 5416TIP3   OH216190   0.570   4.063   5.284
 5416TIP3    H116191   0.502   4.060   5.351
 5416TIP3    H216192   0.643   4.013   5.320
 5417TIP3   OH216193   1.351   0.877   3.929
 5417TIP3    H116194   1.348   0.972   3.923
 5417TIP3    H216195   1.444   0.857   3.946
 5418TIP3   OH216196   4.862   0.290   2.506
 5418TIP3    H116197   4.792   0.268   2.444
 5418TIP3    H216198   4.917   0.211   2.508
 5419TIP3   OH216199   0.950   5.067   3.765
 5419TIP3    H116200   1.010   5.110   3.825
 5419TIP3    H216201   0.998   5.062   3.682
 5420TIP3   OH216202   2.160   1.535   2.113
 5420TIP3    H116203   2.181   1.442   2.102
 5420TIP3    H216204   2.244   1.580   2.108
 5421TIP3   OH216205   0.429   4.073   5.506
 5421TIP3    H116206   0.487   4.123   5.564
 5421TIP3    H216207   0.405   3.996   5.557
 5422TIP3   OH216208   2.780   0.420   1.801
 5422TIP3    H116209   2.687   0.410   1.819
 5422TIP3    H216210   2.791   0.384   1.713
 5423TIP3   OH216211   8.210   6.783   3.682
 5423TIP3    H116212   8.215   6.878   3.672
 5423TIP3    H216213   8.261   6.748   3.610
 5424TIP3   OH216214   5.956   0.187   6.461
 5424TIP3    H116215   5.910   0.249   6.405
 5424TIP3    H216216   5.890   0.122   6.486
 5425TIP3   OH216217   3.576   4.346   4.877
 5425TIP3    H116218   3.637   4.287   4.920
 5425TIP3    H216219   3.590   4.431   4.919
 5426TIP3   OH216220   0.615   6.103   5.102
 5426TIP3    H116221   0.690   6.063   5.057
 5426TIP3    H216222   0.561   6.029   5.130
 5427TIP3   OH216223   0.084   2.124   0.633
 5427TIP3    H116224   0.136   2.175   0.696
 5427TIP3    H216225  -0.002   2.115   0.675
 5428TIP3   OH216226   3.903   4.294   1.348
 5428TIP3    H116227   3.886   4.268   1.258
 5428TIP3    H216228   3.903   4.389   1.346
 5429TIP3   OH216229   4.353   5.542   3.897
 5429TIP3    H116230   4.300   5.462   3.898
 5429TIP3    H216231   4.305   5.602   3.840
 5430TIP3   OH216232   7.872   0.989   0.393
 5430TIP3    H116233   7.952   0.979   0.342
 5430TIP3    H216234   7.882   1.073   0.438
 5431TIP3   OH216235   3.930   6.095   3.289
 5431TIP3    H116236   4.008   6.071   3.339
 5431TIP3    H216237   3.959   6.092   3.197
 5432TIP3   OH216238   4.046   1.524   0.979
 5432TIP3    H116239   4.112   1.492   0.918
 5432TIP3    H216240   4.081   1.605   1.014
 5433TIP3   OH216241   1.002   2.387   2.311
 5433TIP3    H116242   0.917   2.344   2.315
 5433TIP3    H216243   0.981   2.480   2.298
 5434TIP3   OH216244   0.912   7.692   2.662
 5434TIP3    H116245   0.871   7.733   2.586
 5434TIP3    H216246   0.838   7.662   2.715
 5435TIP3   OH216247   1.690   4.109   4.346
 5435TIP3    H116248   1.662   4.045   4.280
 5435TIP3    H216249   1.636   4.088   4.422
 5436TIP3   OH216250   1.829   6.525   0.112
 5436TIP3    H116251   1.821   6.460   0.042
 5436TIP3    H216252   1.742   6.566   0.117
 5437TIP3   OH216253   6.930   3.970   5.772
 5437TIP3    H116254   7.011   3.941   5.730
 5437TIP3    H216255   6.901   4.045   5.719
 5438TIP3   OH216256   3.714   3.832   1.615
 5438TIP3    H116257   3.807   3.826   1.590
 5438TIP3    H216258   3.669   3.854   1.533
 5439TIP3   OH216259   7.016   4.287   4.625
 5439TIP3    H116260   6.985   4.278   4.534
 5439TIP3    H216261   7.103   4.247   4.625
 5440TIP3   OH216262   6.158   5.342   1.039
 5440TIP3    H116263   6.198   5.277   1.096
 5440TIP3    H216264   6.069   5.352   1.072
 5441TIP3   OH216265   1.831   3.552   1.513
 5441TIP3    H116266   1.922   3.533   1.491
 5441TIP3    H216267   1.815   3.639   1.475
 5442TIP3   OH216268   5.425   1.387   4.970
 5442TIP3    H116269   5.441   1.395   4.876
 5442TIP3    H216270   5.509   1.409   5.011
 5443TIP3   OH216271   2.802   5.545   2.230
 5443TIP3    H116272   2.756   5.468   2.198
 5443TIP3    H216273   2.892   5.516   2.244
 5444TIP3   OH216274   2.326   5.232   3.923
 5444TIP3    H116275   2.305   5.148   3.884
 5444TIP3    H216276   2.408   5.217   3.970
 5445TIP3   OH216277   1.724   4.189   4.956
 5445TIP3    H116278   1.706   4.128   4.885
 5445TIP3    H216279   1.820   4.199   4.956
 5446TIP3   OH216280   0.656   5.789   3.532
 5446TIP3    H116281   0.649   5.820   3.622
 5446TIP3    H216282   0.592   5.840   3.483
 5447TIP3   OH216283   4.242   4.792   2.562
 5447TIP3    H116284   4.189   4.867   2.535
 5447TIP3    H216285   4.211   4.719   2.508
 5448TIP3   OH216286   4.225   0.762   2.908
 5448TIP3    H116287   4.249   0.845   2.950
 5448TIP3    H216288   4.142   0.781   2.863
 5449TIP3   OH216289   0.667   5.879   5.635
 5449TIP3    H116290   0.748   5.892   5.685
 5449TIP3    H216291   0.619   5.813   5.685
 5450TIP3   OH216292   0.264   7.006   1.833
 5450TIP3    H116293   0.357   7.005   1.854
 5450TIP3    H216294   0.261   7.027   1.739
 5451TIP3   OH216295   6.985   0.326   2.913
 5451TIP3    H116296   7.045   0.256   2.890
 5451TIP3    H216297   6.972   0.375   2.832
 5452TIP3   OH216298   0.119   1.124   0.564
 5452TIP3    H116299   0.045   1.064   0.566
 5452TIP3    H216300   0.146   1.127   0.472
 5453TIP3   OH216301   0.726   0.078   4.962
 5453TIP3    H116302   0.671   0.048   4.889
 5453TIP3    H216303   0.668   0.077   5.038
 5454TIP3   OH216304   6.621   0.199   1.148
 5454TIP3    H116305   6.556   0.145   1.194
 5454TIP3    H216306   6.626   0.161   1.060
 5455TIP3   OH216307   4.280   2.903   4.283
 5455TIP3    H116308   4.294   2.959   4.207
 5455TIP3    H216309   4.269   2.964   4.356
 5456TIP3   OH216310   3.124   1.110   5.822
 5456TIP3    H116311   3.163   1.042   5.877
 5456TIP3    H216312   3.115   1.186   5.880
 5457TIP3   OH216313   7.273   5.132   0.079
 5457TIP3    H116314   7.256   5.129   0.173
 5457TIP3    H216315   7.348   5.073   0.067
 5458TIP3   OH216316   6.834   0.361   2.094
 5458TIP3    H116317   6.871   0.314   2.019
 5458TIP3    H216318   6.895   0.433   2.110
 5459TIP3   OH216319   0.246   0.189   0.085
 5459TIP3    H116320   0.342   0.193   0.077
 5459TIP3    H216321   0.228   0.234   0.168
 5460TIP3   OH216322   4.143   2.994   4.581
 5460TIP3    H116323   4.203   3.065   4.558
 5460TIP3    H216324   4.069   3.005   4.521
 5461TIP3   OH216325   2.725   3.501   4.218
 5461TIP3    H116326   2.694   3.422   4.262
 5461TIP3    H216327   2.790   3.538   4.278
 5462TIP3   OH216328   8.028   3.250   0.360
 5462TIP3    H116329   8.100   3.276   0.302
 5462TIP3    H216330   8.063   3.177   0.410
 5463TIP3   OH216331   3.201   0.228   2.723
 5463TIP3    H116332   3.295   0.217   2.710
 5463TIP3    H216333   3.182   0.181   2.804
 5464TIP3   OH216334   7.503   0.441   4.042
 5464TIP3    H116335   7.470   0.375   3.981
 5464TIP3    H216336   7.540   0.509   3.986
 5465TIP3   OH216337   5.606   5.749   4.328
 5465TIP3    H116338   5.632   5.731   4.238
 5465TIP3    H216339   5.546   5.678   4.351
 5466TIP3   OH216340   0.032   7.598   5.582
 5466TIP3    H116341  -0.011   7.674   5.623
 5466TIP3    H216342   0.121   7.599   5.618
 5467TIP3   OH216343   7.305   7.513   2.394
 5467TIP3    H116344   7.353   7.593   2.418
 5467TIP3    H216345   7.372   7.444   2.396
 5468TIP3   OH216346   6.501   7.382   1.458
 5468TIP3    H116347   6.513   7.290   1.433
 5468TIP3    H216348   6.463   7.379   1.546
 5469TIP3   OH216349   3.273   7.498   2.811
 5469TIP3    H116350   3.219   7.461   2.882
 5469TIP3    H216351   3.250   7.591   2.811
 5470TIP3   OH216352   7.537   6.749   3.585
 5470TIP3    H116353   7.593   6.818   3.620
 5470TIP3    H216354   7.469   6.737   3.650
 5471TIP3   OH216355   1.008   6.576   6.515
 5471TIP3    H116356   0.987   6.483   6.506
 5471TIP3    H216357   0.923   6.619   6.520
 5472TIP3   OH216358   7.093   5.099   0.978
 5472TIP3    H116359   7.017   5.139   1.020
 5472TIP3    H216360   7.057   5.054   0.902
 5473TIP3   OH216361   4.697   0.689   2.573
 5473TIP3    H116362   4.758   0.644   2.632
 5473TIP3    H216363   4.742   0.769   2.547
 5474TIP3   OH216364   4.508   0.435   6.287
 5474TIP3    H116365   4.457   0.516   6.279
 5474TIP3    H216366   4.593   0.457   6.248
 5475TIP3   OH216367   6.857   2.275   4.397
 5475TIP3    H116368   6.891   2.364   4.389
 5475TIP3    H216369   6.772   2.278   4.355
 5476TIP3   OH216370   6.653   6.338   1.001
 5476TIP3    H116371   6.652   6.297   0.914
 5476TIP3    H216372   6.572   6.308   1.043
 5477TIP3   OH216373   4.870   7.128   3.700
 5477TIP3    H116374   4.853   7.186   3.626
 5477TIP3    H216375   4.961   7.101   3.689
 5478TIP3   OH216376   5.052   1.841   0.049
 5478TIP3    H116377   5.062   1.746   0.056
 5478TIP3    H216378   5.140   1.873   0.031
 5479TIP3   OH216379   1.464   1.282   3.052
 5479TIP3    H116380   1.376   1.246   3.045
 5479TIP3    H216381   1.489   1.300   2.961
 5480TIP3   OH216382   5.099   5.563   0.496
 5480TIP3    H116383   5.123   5.473   0.516
 5480TIP3    H216384   5.179   5.603   0.463
 5481TIP3   OH216385   8.167   2.750   3.192
 5481TIP3    H116386   8.237   2.800   3.149
 5481TIP3    H216387   8.200   2.733   3.280
 5482TIP3   OH216388   4.829   1.171   0.245
 5482TIP3    H116389   4.855   1.098   0.302
 5482TIP3    H216390   4.753   1.209   0.288
 5483TIP3   OH216391   1.613   2.132  -0.016
 5483TIP3    H116392   1.709   2.135  -0.021
 5483TIP3    H216393   1.591   2.039  -0.020
 5484TIP3   OH216394   6.680   6.380   4.892
 5484TIP3    H116395   6.748   6.353   4.954
 5484TIP3    H216396   6.722   6.448   4.839
 5485TIP3   OH216397   7.270   7.561   1.760
 5485TIP3    H116398   7.194   7.534   1.709
 5485TIP3    H216399   7.323   7.612   1.698
 5486TIP3   OH216400   5.375   7.292   2.869
 5486TIP3    H116401   5.282   7.285   2.888
 5486TIP3    H216402   5.379   7.345   2.789
 5487TIP3   OH216403   0.900   6.066   0.146
 5487TIP3    H116404   0.828   6.129   0.138
 5487TIP3    H216405   0.923   6.067   0.238
 5488TIP3   OH216406   4.711   0.365   1.694
 5488TIP3    H116407   4.680   0.349   1.783
 5488TIP3    H216408   4.673   0.449   1.670
 5489TIP3   OH216409   4.389   0.270   2.611
 5489TIP3    H116410   4.307   0.305   2.645
 5489TIP3    H216411   4.362   0.195   2.557
 5490TIP3   OH216412   0.956   7.221   4.198
 5490TIP3    H116413   0.927   7.154   4.260
 5490TIP3    H216414   1.017   7.176   4.141
 5491TIP3   OH216415   3.480   4.630   1.802
 5491TIP3    H116416   3.476   4.665   1.891
 5491TIP3    H216417   3.531   4.549   1.810
 5492TIP3   OH216418   2.272   7.338   0.871
 5492TIP3    H116419   2.330   7.296   0.934
 5492TIP3    H216420   2.244   7.267   0.813
 5493TIP3   OH216421   4.018   3.180   0.996
 5493TIP3    H116422   4.113   3.192   0.998
 5493TIP3    H216423   4.002   3.132   0.915
 5494TIP3   OH216424   7.714   1.867   0.236
 5494TIP3    H116425   7.669   1.794   0.193
 5494TIP3    H216426   7.650   1.938   0.235
 5495TIP3   OH216427   0.810   7.449   4.327
 5495TIP3    H116428   0.876   7.393   4.286
 5495TIP3    H216429   0.861   7.520   4.367
 5496TIP3   OH216430   0.375   7.709   6.450
 5496TIP3    H116431   0.292   7.732   6.490
 5496TIP3    H216432   0.424   7.663   6.518
 5497TIP3   OH216433   5.874   6.373   5.617
 5497TIP3    H116434   5.856   6.333   5.532
 5497TIP3    H216435   5.965   6.351   5.636
 5498TIP3   OH216436   0.191   4.345   3.983
 5498TIP3    H116437   0.137   4.278   4.027
 5498TIP3    H216438   0.136   4.423   3.985
 5499TIP3   OH216439   7.603   6.736   5.139
 5499TIP3    H116440   7.595   6.644   5.165
 5499TIP3    H216441   7.520   6.775   5.167
 5500TIP3   OH216442   2.964   2.310   0.118
 5500TIP3    H116443   2.897   2.241   0.123
 5500TIP3    H216444   2.929   2.380   0.172
 5501TIP3   OH216445   3.386   1.644   4.892
 5501TIP3    H116446   3.470   1.609   4.861
 5501TIP3    H216447   3.325   1.628   4.819
 5502TIP3   OH216448   4.671   2.845   0.879
 5502TIP3    H116449   4.647   2.929   0.839
 5502TIP3    H216450   4.679   2.863   0.972
 5503TIP3   OH216451   5.607   1.343   0.193
 5503TIP3    H116452   5.657   1.276   0.148
 5503TIP3    H216453   5.673   1.402   0.229
 5504TIP3   OH216454   0.872   7.060   1.779
 5504TIP3    H116455   0.897   6.993   1.715
 5504TIP3    H216456   0.826   7.012   1.847
 5505TIP3   OH216457   6.747   6.358   2.568
 5505TIP3    H116458   6.808   6.418   2.611
 5505TIP3    H216459   6.768   6.364   2.475
 5506TIP3   OH216460   5.269   6.012   6.013
 5506TIP3    H116461   5.198   6.042   5.955
 5506TIP3    H216462   5.286   5.922   5.985
 5507TIP3   OH216463   4.479   0.216   4.349
 5507TIP3    H116464   4.562   0.184   4.385
 5507TIP3    H216465   4.502   0.253   4.264
 5508TIP3   OH216466   3.090   2.429   1.180
 5508TIP3    H116467   3.054   2.347   1.213
 5508TIP3    H216468   3.181   2.407   1.156
 5509TIP3   OH216469   6.688   5.925   1.054
 5509TIP3    H116470   6.737   5.914   0.972
 5509TIP3    H216471   6.721   6.007   1.091
 5510TIP3   OH216472   0.863   4.730   1.112
 5510TIP3    H116473   0.957   4.714   1.120
 5510TIP3    H216474   0.840   4.694   1.027
 5511TIP3   OH216475   5.376   7.481   4.149
 5511TIP3    H116476   5.445   7.415   4.147
 5511TIP3    H216477   5.370   7.507   4.240
 5512TIP3   OH216478   6.557   1.459   3.590
 5512TIP3    H116479   6.546   1.443   3.496
 5512TIP3    H216480   6.468   1.467   3.624
 5513TIP3   OH216481   1.595   2.937   4.719
 5513TIP3    H116482   1.652   2.861   4.712
 5513TIP3    H216483   1.595   2.959   4.812
 5514TIP3   OH216484   2.119   4.718   6.611
 5514TIP3    H116485   2.062   4.724   6.535
 5514TIP3    H216486   2.201   4.682   6.578
 5515TIP3   OH216487   4.658   2.773   4.270
 5515TIP3    H116488   4.592   2.707   4.249
 5515TIP3    H216489   4.679   2.813   4.186
 5516TIP3   OH216490   0.098   2.139   0.116
 5516TIP3    H116491   0.161   2.131   0.044
 5516TIP3    H216492   0.147   2.115   0.194
 5517TIP3   OH216493   7.726   6.925   5.355
 5517TIP3    H116494   7.740   6.831   5.345
 5517TIP3    H216495   7.743   6.962   5.269
 5518TIP3   OH216496   3.103   6.854   0.218
 5518TIP3    H116497   3.181   6.855   0.274
 5518TIP3    H216498   3.053   6.931   0.246
 5519TIP3   OH216499   7.794   5.010   5.213
 5519TIP3    H116500   7.771   5.040   5.301
 5519TIP3    H216501   7.745   5.067   5.154
 5520TIP3   OH216502   1.981   5.166   5.790
 5520TIP3    H116503   1.920   5.238   5.772
 5520TIP3    H216504   1.968   5.146   5.883
 5521TIP3   OH216505   1.532   5.011   1.924
 5521TIP3    H116506   1.516   5.102   1.948
 5521TIP3    H216507   1.627   5.004   1.916
 5522TIP3   OH216508   1.574   3.755   6.702
 5522TIP3    H116509   1.493   3.720   6.665
 5522TIP3    H216510   1.642   3.693   6.674
 5523TIP3   OH216511   6.596   2.965   0.166
 5523TIP3    H116512   6.679   2.957   0.118
 5523TIP3    H216513   6.612   2.918   0.248
 5524TIP3   OH216514   1.047   4.895   6.336
 5524TIP3    H116515   1.084   4.845   6.409
 5524TIP3    H216516   0.954   4.903   6.356
 5525TIP3   OH216517   5.073   2.076   0.797
 5525TIP3    H116518   5.038   2.155   0.838
 5525TIP3    H216519   5.022   2.004   0.835
 5526TIP3   OH216520   4.603   3.928   2.477
 5526TIP3    H116521   4.570   3.891   2.394
 5526TIP3    H216522   4.586   3.860   2.542
 5527TIP3   OH216523   0.952   7.455   3.200
 5527TIP3    H116524   0.908   7.526   3.246
 5527TIP3    H216525   0.972   7.391   3.268
 5528TIP3   OH216526   7.808   0.704   0.287
 5528TIP3    H116527   7.801   0.800   0.289
 5528TIP3    H216528   7.758   0.678   0.210
 5529TIP3   OH216529   4.561   6.997   4.034
 5529TIP3    H116530   4.630   6.947   4.078
 5529TIP3    H216531   4.607   7.072   3.995
 5530TIP3   OH216532   1.774   2.087   2.239
 5530TIP3    H116533   1.710   2.159   2.239
 5530TIP3    H216534   1.847   2.119   2.291
 5531TIP3   OH216535   4.933   5.793   5.542
 5531TIP3    H116536   4.894   5.880   5.536
 5531TIP3    H216537   5.012   5.805   5.595
 5532TIP3   OH216538   1.094   6.642   3.363
 5532TIP3    H116539   1.000   6.660   3.360
 5532TIP3    H216540   1.101   6.549   3.341
 5533TIP3   OH216541   2.810   3.876   3.016
 5533TIP3    H116542   2.886   3.831   3.053
 5533TIP3    H216543   2.806   3.846   2.926
 5534TIP3   OH216544   3.711   5.660   1.569
 5534TIP3    H116545   3.650   5.674   1.497
 5534TIP3    H216546   3.795   5.643   1.526
 5535TIP3   OH216547   3.886   7.819   0.953
 5535TIP3    H116548   3.830   7.762   0.900
 5535TIP3    H216549   3.956   7.762   0.984
 5536TIP3   OH216550   8.261   1.793   0.750
 5536TIP3    H116551   8.195   1.810   0.817
 5536TIP3    H216552   8.227   1.835   0.671
 5537TIP3   OH216553   2.495   0.195   3.196
 5537TIP3    H116554   2.530   0.209   3.108
 5537TIP3    H216555   2.401   0.182   3.183
 5538TIP3   OH216556   1.213   1.497   3.644
 5538TIP3    H116557   1.124   1.533   3.644
 5538TIP3    H216558   1.268   1.569   3.614
 5539TIP3   OH216559   3.394   1.218   4.116
 5539TIP3    H116560   3.318   1.164   4.096
 5539TIP3    H216561   3.362   1.281   4.181
 5540TIP3   OH216562   2.289   1.935   3.035
 5540TIP3    H116563   2.348   1.898   3.100
 5540TIP3    H216564   2.298   2.030   3.046
 5541TIP3   OH216565   8.109   7.445   0.882
 5541TIP3    H116566   8.179   7.499   0.844
 5541TIP3    H216567   8.098   7.481   0.970
 5542TIP3   OH216568   6.219   1.298   6.197
 5542TIP3    H116569   6.246   1.359   6.265
 5542TIP3    H216570   6.211   1.351   6.118
 5543TIP3   OH216571   3.703   1.601   6.455
 5543TIP3    H116572   3.765   1.652   6.507
 5543TIP3    H216573   3.725   1.622   6.365
 5544TIP3   OH216574   8.049   4.174   1.678
 5544TIP3    H116575   8.128   4.163   1.626
 5544TIP3    H216576   8.000   4.093   1.665
 5545TIP3   OH216577   1.875   3.853   2.434
 5545TIP3    H116578   1.863   3.765   2.399
 5545TIP3    H216579   1.816   3.857   2.510
 5546TIP3   OH216580   2.787   3.597   1.481
 5546TIP3    H116581   2.759   3.683   1.453
 5546TIP3    H216582   2.742   3.536   1.422
 5547TIP3   OH216583   4.596   7.047   0.717
 5547TIP3    H116584   4.644   7.093   0.649
 5547TIP3    H216585   4.627   7.087   0.799
 5548TIP3   OH216586   7.598   1.543   6.501
 5548TIP3    H116587   7.569   1.510   6.416
 5548TIP3    H216588   7.642   1.626   6.481
 5549TIP3   OH216589   6.088   6.123   2.075
 5549TIP3    H116590   6.059   6.038   2.041
 5549TIP3    H216591   6.075   6.184   2.002
 5550TIP3   OH216592   3.586   1.399   3.414
 5550TIP3    H116593   3.547   1.485   3.427
 5550TIP3    H216594   3.640   1.409   3.336
 5551TIP3   OH216595   3.671   6.828   5.229
 5551TIP3    H116596   3.665   6.770   5.305
 5551TIP3    H216597   3.673   6.916   5.267
 5552TIP3   OH216598   5.816   0.432   5.637
 5552TIP3    H116599   5.836   0.516   5.678
 5552TIP3    H216600   5.901   0.387   5.635
 5553TIP3   OH216601   6.721   1.873   4.241
 5553TIP3    H116602   6.733   1.943   4.177
 5553TIP3    H216603   6.626   1.864   4.249
 5554TIP3   OH216604   7.393   1.146   6.091
 5554TIP3    H116605   7.331   1.218   6.104
 5554TIP3    H216606   7.347   1.069   6.124
 5555TIP3   OH216607   0.485   5.316   0.224
 5555TIP3    H116608   0.471   5.387   0.287
 5555TIP3    H216609   0.575   5.287   0.239
 5556TIP3   OH216610   7.135   2.667   0.126
 5556TIP3    H116611   7.140   2.736   0.060
 5556TIP3    H216612   7.163   2.588   0.079
 5557TIP3   OH216613   5.892   7.413   4.486
 5557TIP3    H116614   5.883   7.334   4.539
 5557TIP3    H216615   5.979   7.407   4.447
 5558TIP3   OH216616   5.985   6.713   1.627
 5558TIP3    H116617   5.976   6.745   1.537
 5558TIP3    H216618   6.072   6.672   1.630
 5559TIP3   OH216619   6.366   4.181   1.919
 5559TIP3    H116620   6.402   4.145   2.000
 5559TIP3    H216621   6.441   4.216   1.872
 5560TIP3   OH216622   2.318   6.312   2.927
 5560TIP3    H116623   2.357   6.236   2.969
 5560TIP3    H216624   2.349   6.387   2.978
 5561TIP3   OH216625   6.704   4.745   4.998
 5561TIP3    H116626   6.731   4.832   4.970
 5561TIP3    H216627   6.772   4.717   5.059
 5562TIP3   OH216628   3.775   7.642   6.601
 5562TIP3    H116629   3.797   7.613   6.512
 5562TIP3    H216630   3.686   7.677   6.593
 5563TIP3   OH216631   0.035   3.726   4.452
 5563TIP3    H116632   0.104   3.783   4.487
 5563TIP3    H216633   0.081   3.670   4.389
 5564TIP3   OH216634   5.629   7.471   4.385
 5564TIP3    H116635   5.702   7.477   4.447
 5564TIP3    H216636   5.652   7.398   4.328
 5565TIP3   OH216637   7.152   5.551   5.613
 5565TIP3    H116638   7.158   5.489   5.540
 5565TIP3    H216639   7.192   5.631   5.580
 5566TIP3   OH216640   0.475   5.502   2.047
 5566TIP3    H116641   0.494   5.444   1.973
 5566TIP3    H216642   0.506   5.588   2.018
 5567TIP3   OH216643   3.176   6.150   3.151
 5567TIP3    H116644   3.145   6.061   3.165
 5567TIP3    H216645   3.271   6.140   3.138
 5568TIP3   OH216646   6.945   2.965   5.892
 5568TIP3    H116647   7.011   3.017   5.938
 5568TIP3    H216648   6.896   3.029   5.840
 5569TIP3   OH216649   1.051   6.281   6.305
 5569TIP3    H116650   1.083   6.270   6.216
 5569TIP3    H216651   0.959   6.307   6.294
 5570TIP3   OH216652   7.609   3.277   4.529
 5570TIP3    H116653   7.595   3.237   4.443
 5570TIP3    H216654   7.672   3.220   4.572
 5571TIP3   OH216655   2.145   1.360   2.863
 5571TIP3    H116656   2.052   1.355   2.843
 5571TIP3    H216657   2.154   1.322   2.950
 5572TIP3   OH216658   4.277   1.186   2.033
 5572TIP3    H116659   4.298   1.244   2.106
 5572TIP3    H216660   4.197   1.223   1.996
 5573TIP3   OH216661   4.311   1.027   0.790
 5573TIP3    H116662   4.332   0.956   0.729
 5573TIP3    H216663   4.365   1.101   0.760
 5574TIP3   OH216664   7.061   3.749   6.572
 5574TIP3    H116665   7.040   3.686   6.641
 5574TIP3    H216666   7.154   3.736   6.555
 5575TIP3   OH216667   4.511   2.552   2.155
 5575TIP3    H116668   4.606   2.547   2.155
 5575TIP3    H216669   4.486   2.538   2.247
 5576TIP3   OH216670   6.959   4.616   3.653
 5576TIP3    H116671   6.886   4.558   3.677
 5576TIP3    H216672   6.918   4.690   3.610
 5577TIP3   OH216673   7.594   3.525   0.722
 5577TIP3    H116674   7.530   3.455   0.735
 5577TIP3    H216675   7.552   3.585   0.661
 5578TIP3   OH216676   3.139   6.386   3.950
 5578TIP3    H116677   3.165   6.467   3.904
 5578TIP3    H216678   3.189   6.388   4.031
 5579TIP3   OH216679   2.809   4.832   4.640
 5579TIP3    H116680   2.789   4.782   4.720
 5579TIP3    H216681   2.902   4.852   4.648
 5580TIP3   OH216682   0.841   0.658   3.593
 5580TIP3    H116683   0.746   0.657   3.602
 5580TIP3    H216684   0.869   0.570   3.618
 5581TIP3   OH216685   5.471   0.448   2.651
 5581TIP3    H116686   5.484   0.527   2.703
 5581TIP3    H216687   5.404   0.399   2.699
 5582TIP3   OH216688   8.044   7.211   1.160
 5582TIP3    H116689   8.062   7.281   1.223
 5582TIP3    H216690   8.120   7.153   1.167
 5583TIP3   OH216691   2.624   0.837   4.682
 5583TIP3    H116692   2.638   0.822   4.775
 5583TIP3    H216693   2.693   0.898   4.656
 5584TIP3   OH216694   0.729   4.059   3.936
 5584TIP3    H116695   0.730   3.983   3.877
 5584TIP3    H216696   0.650   4.047   3.989
 5585TIP3   OH216697   3.121   5.846   2.329
 5585TIP3    H116698   3.209   5.849   2.293
 5585TIP3    H216699   3.134   5.843   2.424
 5586TIP3   OH216700   5.287   6.512   4.965
 5586TIP3    H116701   5.200   6.544   4.942
 5586TIP3    H216702   5.274   6.418   4.982
 5587TIP3   OH216703   5.425   5.466   4.260
 5587TIP3    H116704   5.480   5.388   4.272
 5587TIP3    H216705   5.431   5.485   4.166
 5588TIP3   OH216706   6.797   7.278   6.391
 5588TIP3    H116707   6.775   7.354   6.337
 5588TIP3    H216708   6.714   7.255   6.433
 5589TIP3   OH216709   5.834   2.291   5.426
 5589TIP3    H116710   5.884   2.215   5.396
 5589TIP3    H216711   5.848   2.294   5.521
 5590TIP3   OH216712   3.361   4.371   2.140
 5590TIP3    H116713   3.279   4.334   2.173
 5590TIP3    H216714   3.357   4.357   2.045
 5591TIP3   OH216715   5.956   2.278   1.471
 5591TIP3    H116716   5.953   2.242   1.383
 5591TIP3    H216717   5.969   2.372   1.458
 5592TIP3   OH216718   0.506   6.827   2.955
 5592TIP3    H116719   0.564   6.806   2.882
 5592TIP3    H216720   0.453   6.900   2.923
 5593TIP3   OH216721   1.553   4.775   0.114
 5593TIP3    H116722   1.597   4.751   0.032
 5593TIP3    H216723   1.623   4.781   0.178
 5594TIP3   OH216724   6.222   1.338   2.394
 5594TIP3    H116725   6.315   1.349   2.373
 5594TIP3    H216726   6.198   1.419   2.439
 5595TIP3   OH216727   7.976   2.055   6.287
 5595TIP3    H116728   8.043   2.118   6.261
 5595TIP3    H216729   7.893   2.098   6.266
 5596TIP3   OH216730   4.393   7.160   2.197
 5596TIP3    H116731   4.467   7.131   2.143
 5596TIP3    H216732   4.374   7.248   2.166
 5597TIP3   OH216733   4.324   2.589   5.864
 5597TIP3    H116734   4.263   2.594   5.937
 5597TIP3    H216735   4.342   2.495   5.854
 5598TIP3   OH216736   2.697   4.216   5.615
 5598TIP3    H116737   2.638   4.272   5.564
 5598TIP3    H216738   2.645   4.190   5.691
 5599TIP3   OH216739   4.038   5.579   3.590
 5599TIP3    H116740   4.008   5.517   3.523
 5599TIP3    H216741   3.981   5.564   3.665
 5600TIP3   OH216742   4.808   4.660   5.822
 5600TIP3    H116743   4.842   4.614   5.899
 5600TIP3    H216744   4.740   4.603   5.788
 5601TIP3   OH216745   2.872   1.021   5.120
 5601TIP3    H116746   2.849   1.097   5.173
 5601TIP3    H216747   2.922   0.965   5.178
 5602TIP3   OH216748   1.088   2.228   2.892
 5602TIP3    H116749   1.002   2.267   2.908
 5602TIP3    H216750   1.125   2.216   2.980
 5603TIP3   OH216751   0.632   6.370   4.883
 5603TIP3    H116752   0.565   6.380   4.815
 5603TIP3    H216753   0.622   6.280   4.914
 5604TIP3   OH216754   4.129   1.708   2.118
 5604TIP3    H116755   4.193   1.643   2.089
 5604TIP3    H216756   4.045   1.673   2.089
 5605TIP3   OH216757   6.026   1.467   3.160
 5605TIP3    H116758   5.939   1.430   3.143
 5605TIP3    H216759   6.009   1.558   3.186
 5606TIP3   OH216760   6.798   3.067   2.378
 5606TIP3    H116761   6.773   3.155   2.408
 5606TIP3    H216762   6.725   3.040   2.322
 5607TIP3   OH216763   1.275   2.522   2.119
 5607TIP3    H116764   1.359   2.541   2.162
 5607TIP3    H216765   1.300   2.474   2.040
 5608TIP3   OH216766   2.926   0.957   0.426
 5608TIP3    H116767   2.960   0.895   0.361
 5608TIP3    H216768   2.831   0.951   0.417
 5609TIP3   OH216769   4.887   6.933   4.341
 5609TIP3    H116770   4.870   6.940   4.247
 5609TIP3    H216771   4.832   6.860   4.369
 5610TIP3   OH216772   0.665   2.442   0.828
 5610TIP3    H116773   0.737   2.476   0.881
 5610TIP3    H216774   0.586   2.462   0.878
 5611TIP3   OH216775   0.289   0.866   2.962
 5611TIP3    H116776   0.225   0.805   2.998
 5611TIP3    H216777   0.369   0.815   2.954
 5612TIP3   OH216778   5.677   7.610   1.490
 5612TIP3    H116779   5.721   7.690   1.462
 5612TIP3    H216780   5.728   7.540   1.448
 5613TIP3   OH216781   4.817   3.689   1.219
 5613TIP3    H116782   4.806   3.745   1.142
 5613TIP3    H216783   4.729   3.661   1.241
 5614TIP3   OH216784   4.468   4.522   0.676
 5614TIP3    H116785   4.560   4.540   0.656
 5614TIP3    H216786   4.458   4.548   0.768
 5615TIP3   OH216787   7.707   0.964   1.071
 5615TIP3    H116788   7.773   0.997   1.010
 5615TIP3    H216789   7.632   0.941   1.015
 5616TIP3   OH216790   7.638   1.527   0.781
 5616TIP3    H116791   7.551   1.489   0.768
 5616TIP3    H216792   7.635   1.565   0.868
 5617TIP3   OH216793   0.336   0.685   4.056
 5617TIP3    H116794   0.408   0.627   4.029
 5617TIP3    H216795   0.320   0.662   4.147
 5618TIP3   OH216796   7.656   7.417   1.065
 5618TIP3    H116797   7.587   7.364   1.106
 5618TIP3    H216798   7.715   7.354   1.024
 5619TIP3   OH216799   0.438   1.047   4.850
 5619TIP3    H116800   0.453   1.098   4.929
 5619TIP3    H216801   0.427   0.957   4.880
 5620TIP3   OH216802   4.410   5.840   4.340
 5620TIP3    H116803   4.337   5.827   4.279
 5620TIP3    H216804   4.374   5.898   4.407
 5621TIP3   OH216805   7.782   1.032   4.135
 5621TIP3    H116806   7.705   1.009   4.187
 5621TIP3    H216807   7.764   1.121   4.104
 5622TIP3   OH216808   7.635   0.230   1.964
 5622TIP3    H116809   7.642   0.136   1.945
 5622TIP3    H216810   7.705   0.247   2.026
 5623TIP3   OH216811   7.930   2.659   5.861
 5623TIP3    H116812   7.871   2.690   5.930
 5623TIP3    H216813   7.972   2.739   5.829
 5624TIP3   OH216814   7.301   4.592   2.478
 5624TIP3    H116815   7.273   4.593   2.569
 5624TIP3    H216816   7.276   4.505   2.446
 5625TIP3   OH216817   3.005   1.232   1.116
 5625TIP3    H116818   3.099   1.250   1.117
 5625TIP3    H216819   2.999   1.136   1.108
 5626TIP3   OH216820   1.843   1.076   6.382
 5626TIP3    H116821   1.803   1.161   6.397
 5626TIP3    H216822   1.936   1.089   6.399
 5627TIP3   OH216823   3.776   3.283   0.323
 5627TIP3    H116824   3.688   3.310   0.348
 5627TIP3    H216825   3.769   3.188   0.311
 5628TIP3   OH216826   7.591   1.110   1.718
 5628TIP3    H116827   7.683   1.132   1.701
 5628TIP3    H216828   7.551   1.106   1.631
 5629TIP3   OH216829   1.105   6.798   2.527
 5629TIP3    H116830   1.076   6.846   2.604
 5629TIP3    H216831   1.159   6.727   2.562
 5630TIP3   OH216832   0.141   3.692   4.023
 5630TIP3    H116833   0.050   3.690   4.053
 5630TIP3    H216834   0.143   3.632   3.948
 5631TIP3   OH216835   0.325   4.301   4.260
 5631TIP3    H116836   0.331   4.211   4.227
 5631TIP3    H216837   0.399   4.346   4.220
 5632TIP3   OH216838   1.467   3.982   1.002
 5632TIP3    H116839   1.562   3.979   1.018
 5632TIP3    H216840   1.428   3.962   1.087
 5633TIP3   OH216841   7.167   3.007   5.066
 5633TIP3    H116842   7.089   2.988   5.117
 5633TIP3    H216843   7.153   2.961   4.983
 5634TIP3   OH216844   0.090   3.809   1.079
 5634TIP3    H116845   0.055   3.870   1.144
 5634TIP3    H216846   0.018   3.749   1.061
 5635TIP3   OH216847   7.210   1.560   3.025
 5635TIP3    H116848   7.266   1.539   3.099
 5635TIP3    H216849   7.146   1.622   3.060
 5636TIP3   OH216850   2.525   1.846   3.997
 5636TIP3    H116851   2.433   1.823   3.983
 5636TIP3    H216852   2.522   1.937   4.026
 5637TIP3   OH216853   4.717   6.103   3.640
 5637TIP3    H116854   4.785   6.068   3.582
 5637TIP3    H216855   4.737   6.196   3.646
 5638TIP3   OH216856   7.163   2.749   6.398
 5638TIP3    H116857   7.106   2.819   6.367
 5638TIP3    H216858   7.171   2.690   6.323
 5639TIP3   OH216859   7.504   4.396   0.258
 5639TIP3    H116860   7.575   4.333   0.249
 5639TIP3    H216861   7.454   4.366   0.334
 5640TIP3   OH216862   0.783   3.932   1.810
 5640TIP3    H116863   0.879   3.938   1.811
 5640TIP3    H216864   0.764   3.868   1.741
 5641TIP3   OH216865   7.432   3.228   6.660
 5641TIP3    H116866   7.431   3.168   6.735
 5641TIP3    H216867   7.381   3.304   6.689
 5642TIP3   OH216868   4.314   5.913   0.663
 5642TIP3    H116869   4.254   5.981   0.691
 5642TIP3    H216870   4.296   5.902   0.569
 5643TIP3   OH216871   3.339   7.232   3.286
 5643TIP3    H116872   3.314   7.276   3.367
 5643TIP3    H216873   3.263   7.240   3.229
 5644TIP3   OH216874   3.726   3.654   6.162
 5644TIP3    H116875   3.802   3.613   6.203
 5644TIP3    H216876   3.752   3.746   6.151
 5645TIP3   OH216877   0.889   0.151   2.788
 5645TIP3    H116878   0.982   0.126   2.794
 5645TIP3    H216879   0.874   0.165   2.694
 5646TIP3   OH216880   3.087   4.887   4.413
 5646TIP3    H116881   3.074   4.884   4.508
 5646TIP3    H216882   3.161   4.829   4.397
 5647TIP3   OH216883   0.058   7.139   3.446
 5647TIP3    H116884  -0.017   7.163   3.391
 5647TIP3    H216885   0.123   7.207   3.427
 5648TIP3   OH216886   6.997   4.365   5.903
 5648TIP3    H116887   7.093   4.368   5.897
 5648TIP3    H216888   6.967   4.415   5.827
 5649TIP3   OH216889   5.199   7.056   2.431
 5649TIP3    H116890   5.211   7.148   2.456
 5649TIP3    H216891   5.249   7.046   2.350
 5650TIP3   OH216892   3.012   2.258   2.371
 5650TIP3    H116893   3.081   2.205   2.410
 5650TIP3    H216894   3.050   2.345   2.362
 5651TIP3   OH216895   2.108   7.463   6.314
 5651TIP3    H116896   2.028   7.432   6.355
 5651TIP3    H216897   2.082   7.488   6.226
 5652TIP3   OH216898   5.328   0.650   4.430
 5652TIP3    H116899   5.334   0.596   4.351
 5652TIP3    H216900   5.253   0.708   4.413
 5653TIP3   OH216901   6.215   3.783   5.879
 5653TIP3    H116902   6.266   3.776   5.799
 5653TIP3    H216903   6.157   3.707   5.877
 5654TIP3   OH216904   2.600   4.666   2.196
 5654TIP3    H116905   2.643   4.741   2.237
 5654TIP3    H216906   2.671   4.620   2.151
 5655TIP3   OH216907   8.227   2.055   2.071
 5655TIP3    H116908   8.306   2.013   2.038
 5655TIP3    H216909   8.234   2.050   2.166
 5656TIP3   OH216910   7.133   2.520   2.773
 5656TIP3    H116911   7.152   2.577   2.699
 5656TIP3    H216912   7.216   2.476   2.792
 5657TIP3   OH216913   1.870   6.282   4.724
 5657TIP3    H116914   1.948   6.333   4.702
 5657TIP3    H216915   1.865   6.214   4.657
 5658TIP3   OH216916   3.441   6.834   6.615
 5658TIP3    H116917   3.397   6.771   6.672
 5658TIP3    H216918   3.532   6.804   6.613
 5659TIP3   OH216919   4.318   2.479   1.553
 5659TIP3    H116920   4.290   2.509   1.640
 5659TIP3    H216921   4.238   2.447   1.512
 5660TIP3   OH216922   7.535   5.211   5.617
 5660TIP3    H116923   7.623   5.175   5.601
 5660TIP3    H216924   7.512   5.254   5.535
 5661TIP3   OH216925   0.043   3.608   2.743
 5661TIP3    H116926  -0.048   3.616   2.717
 5661TIP3    H216927   0.045   3.533   2.802
 5662TIP3   OH216928   2.777   7.648   6.461
 5662TIP3    H116929   2.777   7.635   6.366
 5662TIP3    H216930   2.764   7.560   6.496
 5663TIP3   OH216931   5.519   0.127   4.294
 5663TIP3    H116932   5.602   0.092   4.262
 5663TIP3    H216933   5.539   0.156   4.383
 5664TIP3   OH216934   2.929   5.577   5.648
 5664TIP3    H116935   2.960   5.489   5.625
 5664TIP3    H216936   2.989   5.606   5.716
 5665TIP3   OH216937   6.960   4.118   4.186
 5665TIP3    H116938   6.989   4.037   4.144
 5665TIP3    H216939   6.980   4.187   4.122
 5666TIP3   OH216940   4.458   0.572   2.701
 5666TIP3    H116941   4.376   0.540   2.737
 5666TIP3    H216942   4.506   0.606   2.777
 5667TIP3   OH216943   0.467   3.316   6.149
 5667TIP3    H116944   0.418   3.247   6.104
 5667TIP3    H216945   0.440   3.308   6.240
 5668TIP3   OH216946   7.939   3.952   0.989
 5668TIP3    H116947   7.950   3.949   1.084
 5668TIP3    H216948   7.926   3.861   0.963
 5669TIP3   OH216949   2.700   5.406   5.406
 5669TIP3    H116950   2.647   5.341   5.454
 5669TIP3    H216951   2.661   5.490   5.429
 5670TIP3   OH216952   6.969   2.085   1.016
 5670TIP3    H116953   6.964   2.018   0.947
 5670TIP3    H216954   7.008   2.040   1.090
 5671TIP3   OH216955   2.813   5.924   3.888
 5671TIP3    H116956   2.763   5.998   3.920
 5671TIP3    H216957   2.899   5.934   3.928
 5672TIP3   OH216958   5.481   6.245   5.708
 5672TIP3    H116959   5.509   6.232   5.799
 5672TIP3    H216960   5.484   6.339   5.695
 5673TIP3   OH216961   1.960   1.131   2.797
 5673TIP3    H116962   1.926   1.129   2.887
 5673TIP3    H216963   1.909   1.200   2.754
 5674TIP3   OH216964   3.387   4.637   2.619
 5674TIP3    H116965   3.324   4.608   2.554
 5674TIP3    H216966   3.461   4.576   2.610
 5675TIP3   OH216967   4.262   7.756   1.278
 5675TIP3    H116968   4.347   7.798   1.288
 5675TIP3    H216969   4.200   7.829   1.271
 5676TIP3   OH216970   0.401   4.068   2.691
 5676TIP3    H116971   0.399   4.139   2.626
 5676TIP3    H216972   0.310   4.036   2.694
 5677TIP3   OH216973   3.505   1.891   1.729
 5677TIP3    H116974   3.501   1.803   1.691
 5677TIP3    H216975   3.540   1.878   1.817
 5678TIP3   OH216976   4.241   2.631   3.003
 5678TIP3    H116977   4.167   2.570   3.002
 5678TIP3    H216978   4.313   2.582   2.963
 5679TIP3   OH216979   4.861   6.457   5.891
 5679TIP3    H116980   4.847   6.387   5.955
 5679TIP3    H216981   4.774   6.478   5.859
 5680TIP3   OH216982   3.403   2.345   3.881
 5680TIP3    H116983   3.457   2.269   3.855
 5680TIP3    H216984   3.317   2.308   3.899
 5681TIP3   OH216985   0.428   4.657   2.514
 5681TIP3    H116986   0.396   4.722   2.577
 5681TIP3    H216987   0.496   4.703   2.465
 5682TIP3   OH216988   6.446   0.329   0.477
 5682TIP3    H116989   6.519   0.284   0.434
 5682TIP3    H216990   6.483   0.357   0.561
 5683TIP3   OH216991   0.239   7.185   4.108
 5683TIP3    H116992   0.213   7.218   4.194
 5683TIP3    H216993   0.328   7.154   4.119
 5684TIP3   OH216994   1.948   2.600   5.317
 5684TIP3    H116995   1.900   2.522   5.288
 5684TIP3    H216996   2.040   2.577   5.305
 5685TIP3   OH216997   1.461   6.288   3.521
 5685TIP3    H116998   1.393   6.245   3.574
 5685TIP3    H216999   1.457   6.380   3.547
 5686TIP3   OH217000   1.269   5.233   5.269
 5686TIP3    H117001   1.265   5.230   5.173
 5686TIP3    H217002   1.335   5.300   5.287
 5687TIP3   OH217003   5.271   7.265   0.591
 5687TIP3    H117004   5.366   7.260   0.603
 5687TIP3    H217005   5.246   7.349   0.628
 5688TIP3   OH217006   2.963   0.113   1.833
 5688TIP3    H117007   3.044   0.064   1.815
 5688TIP3    H217008   2.899   0.076   1.772
 5689TIP3   OH217009   6.296   6.218   1.612
 5689TIP3    H117010   6.213   6.172   1.604
 5689TIP3    H217011   6.275   6.310   1.596
 5690TIP3   OH217012   1.592   1.465   3.489
 5690TIP3    H117013   1.610   1.398   3.555
 5690TIP3    H217014   1.591   1.417   3.406
 5691TIP3   OH217015   3.686   0.012   1.534
 5691TIP3    H117016   3.626   0.086   1.520
 5691TIP3    H217017   3.641  -0.045   1.595
 5692TIP3   OH217018   0.389   0.745   0.122
 5692TIP3    H117019   0.404   0.651   0.113
 5692TIP3    H217020   0.471   0.779   0.157
 5693TIP3   OH217021   6.808   2.226   0.422
 5693TIP3    H117022   6.797   2.249   0.330
 5693TIP3    H217023   6.724   2.189   0.448
 5694TIP3   OH217024   7.583   5.046   6.417
 5694TIP3    H117025   7.665   5.090   6.442
 5694TIP3    H217026   7.603   4.953   6.422
 5695TIP3   OH217027   5.446   2.347   1.971
 5695TIP3    H117028   5.462   2.425   1.918
 5695TIP3    H217029   5.532   2.307   1.982
 5696TIP3   OH217030   0.436   3.379   4.310
 5696TIP3    H117031   0.465   3.459   4.266
 5696TIP3    H217032   0.478   3.383   4.396
 5697TIP3   OH217033   0.735   5.031   4.778
 5697TIP3    H117034   0.658   4.979   4.757
 5697TIP3    H217035   0.771   5.056   4.693
 5698TIP3   OH217036   7.355   0.601   0.971
 5698TIP3    H117037   7.372   0.522   0.920
 5698TIP3    H217038   7.435   0.653   0.960
 5699TIP3   OH217039   6.917   1.004   5.395
 5699TIP3    H117040   6.933   1.057   5.317
 5699TIP3    H217041   6.938   0.914   5.368
 5700TIP3   OH217042   5.992   3.348   1.725
 5700TIP3    H117043   5.942   3.279   1.770
 5700TIP3    H217044   5.931   3.384   1.661
 5701TIP3   OH217045   3.631   3.691   3.351
 5701TIP3    H117046   3.671   3.695   3.438
 5701TIP3    H217047   3.694   3.641   3.298
 5702TIP3   OH217048   5.056   0.993   2.118
 5702TIP3    H117049   4.991   0.926   2.139
 5702TIP3    H217050   5.133   0.968   2.170
 5703TIP3   OH217051   7.420   4.055   0.661
 5703TIP3    H117052   7.486   4.021   0.721
 5703TIP3    H217053   7.359   4.103   0.717
 5704TIP3   OH217054   1.994   6.977   6.565
 5704TIP3    H117055   1.923   7.010   6.509
 5704TIP3    H217056   1.983   7.025   6.647
 5705TIP3   OH217057   1.890   4.349   5.267
 5705TIP3    H117058   1.915   4.356   5.174
 5705TIP3    H217059   1.807   4.303   5.266
 5706TIP3   OH217060   6.814   4.842   1.918
 5706TIP3    H117061   6.730   4.801   1.896
 5706TIP3    H217062   6.790   4.931   1.946
 5707TIP3   OH217063   5.572   5.047   4.976
 5707TIP3    H117064   5.594   5.099   5.053
 5707TIP3    H217065   5.527   4.970   5.011
 5708TIP3   OH217066   3.194   5.567   4.083
 5708TIP3    H117067   3.173   5.619   4.006
 5708TIP3    H217068   3.110   5.529   4.110
 5709TIP3   OH217069   6.165   4.067   5.875
 5709TIP3    H117070   6.192   3.981   5.841
 5709TIP3    H217071   6.244   4.121   5.868
 5710TIP3   OH217072   8.229   4.383   0.802
 5710TIP3    H117073   8.166   4.450   0.774
 5710TIP3    H217074   8.179   4.302   0.804
 5711TIP3   OH217075   5.427   2.460   1.435
 5711TIP3    H117076   5.469   2.544   1.419
 5711TIP3    H217077   5.377   2.473   1.516
 5712TIP3   OH217078   2.557   4.873   1.513
 5712TIP3    H117079   2.567   4.821   1.593
 5712TIP3    H217080   2.645   4.877   1.476
 5713TIP3   OH217081   4.791   0.989   6.023
 5713TIP3    H117082   4.707   1.034   6.025
 5713TIP3    H217083   4.769   0.896   6.024
 5714TIP3   OH217084   7.871   5.216   5.969
 5714TIP3    H117085   7.811   5.142   5.968
 5714TIP3    H217086   7.957   5.178   5.988
 5715TIP3   OH217087   5.560   2.810   3.413
 5715TIP3    H117088   5.607   2.876   3.464
 5715TIP3    H217089   5.514   2.757   3.478
 5716TIP3   OH217090   0.400   4.815   0.632
 5716TIP3    H117091   0.470   4.754   0.653
 5716TIP3    H217092   0.380   4.858   0.716
 5717TIP3   OH217093   3.549   0.799   2.397
 5717TIP3    H117094   3.502   0.874   2.359
 5717TIP3    H217095   3.625   0.788   2.341
 5718TIP3   OH217096   8.061   4.204   3.447
 5718TIP3    H117097   8.036   4.282   3.398
 5718TIP3    H217098   8.026   4.218   3.535
 5719TIP3   OH217099   1.919   4.223   2.474
 5719TIP3    H117100   1.828   4.198   2.493
 5719TIP3    H217101   1.972   4.152   2.510
 5720TIP3   OH217102   6.585   0.898   3.703
 5720TIP3    H117103   6.526   0.885   3.777
 5720TIP3    H217104   6.636   0.975   3.727
 5721TIP3   OH217105   1.652   7.677   5.394
 5721TIP3    H117106   1.727   7.711   5.442
 5721TIP3    H217107   1.690   7.639   5.314
 5722TIP3   OH217108   5.316   5.917   0.990
 5722TIP3    H117109   5.386   5.859   0.960
 5722TIP3    H217110   5.356   5.970   1.059
 5723TIP3   OH217111   0.056   7.006   0.770
 5723TIP3    H117112   0.002   6.938   0.809
 5723TIP3    H217113   0.125   7.022   0.834
 5724TIP3   OH217114   5.648   3.985   6.404
 5724TIP3    H117115   5.560   4.016   6.426
 5724TIP3    H217116   5.647   3.976   6.309
 5725TIP3   OH217117   8.028   0.301   3.168
 5725TIP3    H117118   7.990   0.296   3.256
 5725TIP3    H217119   7.998   0.385   3.134
 5726TIP3   OH217120   0.831   5.475   0.940
 5726TIP3    H117121   0.840   5.474   0.845
 5726TIP3    H217122   0.917   5.500   0.972
 5727TIP3   OH217123   4.355   5.706   1.753
 5727TIP3    H117124   4.391   5.733   1.669
 5727TIP3    H217125   4.398   5.623   1.773
 5728TIP3   OH217126   7.559   2.293   2.084
 5728TIP3    H117127   7.563   2.356   2.013
 5728TIP3    H217128   7.632   2.316   2.142
 5729TIP3   OH217129   6.915   1.910   0.750
 5729TIP3    H117130   6.918   1.842   0.682
 5729TIP3    H217131   6.841   1.885   0.805
 5730TIP3   OH217132   5.403   0.085   3.700
 5730TIP3    H117133   5.435   0.028   3.629
 5730TIP3    H217134   5.398   0.027   3.776
 5731TIP3   OH217135   0.351   1.153   6.317
 5731TIP3    H117136   0.281   1.203   6.275
 5731TIP3    H217137   0.307   1.105   6.388
 5732TIP3   OH217138   7.894   1.488   0.714
 5732TIP3    H117139   7.802   1.495   0.740
 5732TIP3    H217140   7.937   1.449   0.790
 5733TIP3   OH217141   7.172   3.361   4.635
 5733TIP3    H117142   7.206   3.272   4.627
 5733TIP3    H217143   7.213   3.409   4.563
 5734TIP3   OH217144   3.639   3.397   3.177
 5734TIP3    H117145   3.692   3.450   3.117
 5734TIP3    H217146   3.682   3.405   3.262
 5735TIP3   OH217147   0.677   1.825   5.342
 5735TIP3    H117148   0.691   1.919   5.334
 5735TIP3    H217149   0.710   1.803   5.429
 5736TIP3   OH217150   4.999   2.603   2.419
 5736TIP3    H117151   5.026   2.512   2.416
 5736TIP3    H217152   4.939   2.614   2.345
 5737TIP3   OH217153   3.800   6.976   2.086
 5737TIP3    H117154   3.883   7.024   2.088
 5737TIP3    H217155   3.798   6.927   2.168
 5738TIP3   OH217156   2.965   2.489   2.879
 5738TIP3    H117157   2.884   2.533   2.905
 5738TIP3    H217158   2.937   2.424   2.814
 5739TIP3   OH217159   4.949   4.192   3.288
 5739TIP3    H117160   4.912   4.198   3.200
 5739TIP3    H217161   4.957   4.283   3.317
 5740TIP3   OH217162   4.624   6.462   5.750
 5740TIP3    H117163   4.560   6.397   5.779
 5740TIP3    H217164   4.678   6.417   5.686
 5741TIP3   OH217165   6.960   1.760   4.055
 5741TIP3    H117166   6.880   1.798   4.019
 5741TIP3    H217167   7.000   1.831   4.105
 5742TIP3   OH217168   3.476   7.704   1.401
 5742TIP3    H117169   3.523   7.627   1.433
 5742TIP3    H217170   3.390   7.672   1.376
 5743TIP3   OH217171   1.903   4.141   6.192
 5743TIP3    H117172   1.840   4.126   6.262
 5743TIP3    H217173   1.972   4.076   6.207
 5744TIP3   OH217174   6.532   5.013   4.718
 5744TIP3    H117175   6.523   5.086   4.780
 5744TIP3    H217176   6.611   5.033   4.668
 5745TIP3   OH217177   4.545   6.438   0.431
 5745TIP3    H117178   4.599   6.479   0.498
 5745TIP3    H217179   4.595   6.449   0.350
 5746TIP3   OH217180   6.220   0.847   5.139
 5746TIP3    H117181   6.141   0.810   5.099
 5746TIP3    H217182   6.235   0.929   5.092
 5747TIP3   OH217183   7.758   1.413   6.070
 5747TIP3    H117184   7.845   1.375   6.056
 5747TIP3    H217185   7.736   1.454   5.986
 5748TIP3   OH217186   4.684   2.850   5.521
 5748TIP3    H117187   4.635   2.769   5.519
 5748TIP3    H217188   4.773   2.824   5.545
 5749TIP3   OH217189   2.113   6.177   6.570
 5749TIP3    H117190   2.139   6.147   6.482
 5749TIP3    H217191   2.165   6.256   6.584
 5750TIP3   OH217192   2.220   3.440   1.029
 5750TIP3    H117193   2.188   3.369   0.973
 5750TIP3    H217194   2.193   3.520   0.985
 5751TIP3   OH217195   2.179   4.960   6.032
 5751TIP3    H117196   2.243   4.899   6.069
 5751TIP3    H217197   2.213   4.980   5.944
 5752TIP3   OH217198   1.190   4.560   5.601
 5752TIP3    H117199   1.096   4.544   5.607
 5752TIP3    H217200   1.210   4.613   5.678
 5753TIP3   OH217201   7.076   6.846   5.334
 5753TIP3    H117202   7.135   6.920   5.350
 5753TIP3    H217203   7.031   6.832   5.417
 5754TIP3   OH217204   1.677   4.102   2.383
 5754TIP3    H117205   1.621   4.173   2.414
 5754TIP3    H217206   1.695   4.050   2.461
 5755TIP3   OH217207   0.350   0.486   5.592
 5755TIP3    H117208   0.436   0.513   5.561
 5755TIP3    H217209   0.322   0.557   5.650
 5756TIP3   OH217210   4.046   1.791   3.484
 5756TIP3    H117211   4.017   1.774   3.394
 5756TIP3    H217212   3.986   1.740   3.539
 5757TIP3   OH217213   0.582   0.393   2.851
 5757TIP3    H117214   0.628   0.418   2.931
 5757TIP3    H217215   0.555   0.302   2.867
 5758TIP3   OH217216   2.548   6.771   3.011
 5758TIP3    H117217   2.584   6.757   2.923
 5758TIP3    H217218   2.463   6.727   3.010
 5759TIP3   OH217219   6.171   5.823   0.643
 5759TIP3    H117220   6.129   5.903   0.675
 5759TIP3    H217221   6.209   5.783   0.722
 5760TIP3   OH217222   4.094   4.539   5.459
 5760TIP3    H117223   4.157   4.609   5.474
 5760TIP3    H217224   4.036   4.573   5.391
 5761TIP3   OH217225   8.207   5.344   1.418
 5761TIP3    H117226   8.300   5.367   1.424
 5761TIP3    H217227   8.183   5.360   1.327
 5762TIP3   OH217228   6.554   1.822   6.099
 5762TIP3    H117229   6.587   1.746   6.049
 5762TIP3    H217230   6.475   1.849   6.051
 5763TIP3   OH217231   0.580   0.556   3.672
 5763TIP3    H117232   0.625   0.502   3.736
 5763TIP3    H217233   0.520   0.610   3.723
 5764TIP3   OH217234   3.081   6.019   4.100
 5764TIP3    H117235   3.109   5.928   4.086
 5764TIP3    H217236   3.155   6.060   4.145
 5765TIP3   OH217237   4.786   0.941   3.160
 5765TIP3    H117238   4.801   1.032   3.185
 5765TIP3    H217239   4.731   0.946   3.082
 5766TIP3   OH217240   3.244   3.992   5.608
 5766TIP3    H117241   3.320   4.050   5.604
 5766TIP3    H217242   3.195   4.022   5.684
 5767TIP3   OH217243   4.040   7.065   1.380
 5767TIP3    H117244   4.036   7.143   1.324
 5767TIP3    H217245   4.133   7.051   1.396
 5768TIP3   OH217246   8.037   2.625   6.783
 5768TIP3    H117247   8.029   2.666   6.697
 5768TIP3    H217248   8.038   2.699   6.845
 5769TIP3   OH217249   2.236   5.016   3.815
 5769TIP3    H117250   2.155   5.057   3.784
 5769TIP3    H217251   2.217   4.922   3.813
 5770TIP3   OH217252   2.612   3.796   3.176
 5770TIP3    H117253   2.634   3.712   3.135
 5770TIP3    H217254   2.683   3.854   3.149
 5771TIP3   OH217255   3.256   2.756   2.475
 5771TIP3    H117256   3.253   2.845   2.510
 5771TIP3    H217257   3.280   2.701   2.549
 5772TIP3   OH217258   3.288   1.148   1.383
 5772TIP3    H117259   3.291   1.054   1.366
 5772TIP3    H217260   3.350   1.162   1.454
 5773TIP3   OH217261   4.265   3.978   3.668
 5773TIP3    H117262   4.342   3.924   3.689
 5773TIP3    H217263   4.191   3.919   3.680
 5774TIP3   OH217264   5.146  -0.007   1.396
 5774TIP3    H117265   5.202   0.066   1.422
 5774TIP3    H217266   5.183  -0.083   1.441
 5775TIP3   OH217267   5.472   2.308   3.828
 5775TIP3    H117268   5.565   2.285   3.818
 5775TIP3    H217269   5.428   2.224   3.839
 5776TIP3   OH217270   1.577   0.360   2.804
 5776TIP3    H117271   1.486   0.338   2.825
 5776TIP3    H217272   1.616   0.384   2.888
 5777TIP3   OH217273   2.965   4.985   5.245
 5777TIP3    H117274   2.972   5.000   5.151
 5777TIP3    H217275   2.872   4.999   5.264
 5778TIP3   OH217276   4.370   2.737   4.654
 5778TIP3    H117277   4.424   2.782   4.589
 5778TIP3    H217278   4.326   2.667   4.605
 5779TIP3   OH217279   7.729   7.215   2.866
 5779TIP3    H117280   7.648   7.190   2.821
 5779TIP3    H217281   7.707   7.296   2.910
 5780TIP3   OH217282   5.910   0.664   2.326
 5780TIP3    H117283   5.998   0.674   2.364
 5780TIP3    H217284   5.924   0.612   2.247
 5781TIP3   OH217285   5.555   5.086   2.002
 5781TIP3    H117286   5.609   5.023   1.953
 5781TIP3    H217287   5.467   5.048   2.000
 5782TIP3   OH217288   4.852   7.214   5.796
 5782TIP3    H117289   4.892   7.229   5.711
 5782TIP3    H217290   4.926   7.207   5.857
 5783TIP3   OH217291   6.173   0.735   2.447
 5783TIP3    H117292   6.220   0.729   2.364
 5783TIP3    H217293   6.218   0.805   2.495
 5784TIP3   OH217294   7.695   6.475   6.474
 5784TIP3    H117295   7.784   6.477   6.439
 5784TIP3    H217296   7.707   6.460   6.568
 5785TIP3   OH217297   3.928   7.205   2.588
 5785TIP3    H117298   3.970   7.228   2.671
 5785TIP3    H217299   3.908   7.112   2.597
 5786TIP3   OH217300   6.781   6.806   5.294
 5786TIP3    H117301   6.754   6.822   5.384
 5786TIP3    H217302   6.858   6.862   5.282
 5787TIP3   OH217303   4.086   7.235   3.321
 5787TIP3    H117304   4.004   7.223   3.369
 5787TIP3    H217305   4.152   7.191   3.375
 5788TIP3   OH217306   5.046   5.374   0.275
 5788TIP3    H117307   5.049   5.278   0.280
 5788TIP3    H217308   5.125   5.403   0.320
 5789TIP3   OH217309   0.192   6.985   2.389
 5789TIP3    H117310   0.244   6.921   2.341
 5789TIP3    H217311   0.135   7.024   2.324
 5790TIP3   OH217312   4.491   2.424   4.809
 5790TIP3    H117313   4.490   2.431   4.713
 5790TIP3    H217314   4.571   2.469   4.836
 5791TIP3   OH217315   7.304   2.600   3.327
 5791TIP3    H117316   7.349   2.662   3.384
 5791TIP3    H217317   7.220   2.641   3.307
 5792TIP3   OH217318   7.966   3.388   0.727
 5792TIP3    H117319   7.969   3.420   0.637
 5792TIP3    H217320   7.941   3.464   0.780
 5793TIP3   OH217321   3.845   3.459   3.356
 5793TIP3    H117322   3.911   3.503   3.410
 5793TIP3    H217323   3.893   3.393   3.307
 5794TIP3   OH217324   0.833   4.399   1.571
 5794TIP3    H117325   0.926   4.387   1.553
 5794TIP3    H217326   0.823   4.493   1.587
 5795TIP3   OH217327   4.961   1.291   3.888
 5795TIP3    H117328   4.934   1.380   3.911
 5795TIP3    H217329   4.904   1.267   3.814
 5796TIP3   OH217330   8.027   5.585   4.870
 5796TIP3    H117331   8.028   5.490   4.857
 5796TIP3    H217332   7.946   5.601   4.919
 5797TIP3   OH217333   3.959   3.807   1.440
 5797TIP3    H117334   4.001   3.893   1.445
 5797TIP3    H217335   4.027   3.749   1.407
 5798TIP3   OH217336   6.762   3.901   4.263
 5798TIP3    H117337   6.792   3.992   4.260
 5798TIP3    H217338   6.722   3.885   4.178
 5799TIP3   OH217339   6.176   7.049   4.464
 5799TIP3    H117340   6.210   6.968   4.504
 5799TIP3    H217341   6.169   7.028   4.371
 5800TIP3   OH217342   1.492   6.008   6.180
 5800TIP3    H117343   1.426   5.964   6.234
 5800TIP3    H217344   1.572   5.958   6.194
 5801TIP3   OH217345   3.846   0.117   4.437
 5801TIP3    H117346   3.920   0.062   4.464
 5801TIP3    H217347   3.820   0.163   4.517
 5802TIP3   OH217348   8.099   7.712   1.781
 5802TIP3    H117349   8.135   7.749   1.861
 5802TIP3    H217350   8.131   7.622   1.779
 5803TIP3   OH217351   5.124   4.288   0.788
 5803TIP3    H117352   5.076   4.243   0.718
 5803TIP3    H217353   5.087   4.376   0.790
 5804TIP3   OH217354   7.843   6.449   2.700
 5804TIP3    H117355   7.829   6.420   2.790
 5804TIP3    H217356   7.773   6.511   2.682
 5805TIP3   OH217357   2.826   3.322   3.938
 5805TIP3    H117358   2.880   3.330   4.017
 5805TIP3    H217359   2.741   3.293   3.969
 5806TIP3   OH217360   0.837   1.904   2.051
 5806TIP3    H117361   0.899   1.849   2.003
 5806TIP3    H217362   0.753   1.892   2.007
 5807TIP3   OH217363   4.900   4.071   5.221
 5807TIP3    H117364   4.902   4.166   5.207
 5807TIP3    H217365   4.971   4.037   5.167
 5808TIP3   OH217366   6.851   3.678   5.769
 5808TIP3    H117367   6.824   3.666   5.678
 5808TIP3    H217368   6.875   3.771   5.775
 5809TIP3   OH217369   2.445   1.783   2.306
 5809TIP3    H117370   2.507   1.856   2.312
 5809TIP3    H217371   2.360   1.823   2.326
 5810TIP3   OH217372   0.948   7.579   4.021
 5810TIP3    H117373   0.877   7.621   4.070
 5810TIP3    H217374   0.915   7.575   3.931
 5811TIP3   OH217375   6.816   6.737   1.151
 5811TIP3    H117376   6.766   6.656   1.152
 5811TIP3    H217377   6.769   6.794   1.090
 5812TIP3   OH217378   3.244   3.511   3.318
 5812TIP3    H117379   3.223   3.429   3.274
 5812TIP3    H217380   3.230   3.492   3.411
 5813TIP3   OH217381   3.577   2.636   3.402
 5813TIP3    H117382   3.614   2.660   3.488
 5813TIP3    H217383   3.583   2.717   3.351
 5814TIP3   OH217384   4.619   6.964   1.340
 5814TIP3    H117385   4.641   7.051   1.373
 5814TIP3    H217386   4.589   6.979   1.250
 5815TIP3   OH217387   3.026   1.706   0.528
 5815TIP3    H117388   2.982   1.626   0.500
 5815TIP3    H217389   2.957   1.758   0.568
 5816TIP3   OH217390   7.911   5.548   2.218
 5816TIP3    H117391   7.980   5.588   2.271
 5816TIP3    H217392   7.838   5.538   2.279
 5817TIP3   OH217393   7.348   6.640   2.001
 5817TIP3    H117394   7.268   6.634   2.052
 5817TIP3    H217395   7.385   6.725   2.024
 5818TIP3   OH217396   5.077   6.441   4.450
 5818TIP3    H117397   5.068   6.404   4.362
 5818TIP3    H217398   5.135   6.381   4.496
 5819TIP3   OH217399   4.560   5.870   6.566
 5819TIP3    H117400   4.569   5.778   6.542
 5819TIP3    H217401   4.585   5.874   6.659
 5820TIP3   OH217402   5.902   3.358   0.114
 5820TIP3    H117403   5.808   3.369   0.124
 5820TIP3    H217404   5.936   3.447   0.103
 5821TIP3   OH217405   2.152   0.909   1.565
 5821TIP3    H117406   2.188   0.840   1.510
 5821TIP3    H217407   2.158   0.989   1.512
 5822TIP3   OH217408   5.625   1.319   4.456
 5822TIP3    H117409   5.678   1.241   4.440
 5822TIP3    H217410   5.612   1.357   4.369
 5823TIP3   OH217411   5.726   4.201   6.577
 5823TIP3    H117412   5.692   4.167   6.659
 5823TIP3    H217413   5.668   4.165   6.510
 5824TIP3   OH217414   8.016   5.826   0.736
 5824TIP3    H117415   8.075   5.777   0.795
 5824TIP3    H217416   8.047   5.916   0.742
 5825TIP3   OH217417   2.941   4.823   0.502
 5825TIP3    H117418   2.978   4.854   0.419
 5825TIP3    H217419   2.932   4.729   0.490
 5826TIP3   OH217420   4.278   4.367   2.512
 5826TIP3    H117421   4.319   4.442   2.556
 5826TIP3    H217422   4.308   4.291   2.561
 5827TIP3   OH217423   0.456   7.294   0.851
 5827TIP3    H117424   0.494   7.206   0.856
 5827TIP3    H217425   0.490   7.330   0.769
 5828TIP3   OH217426   3.918   0.611   1.789
 5828TIP3    H117427   3.968   0.544   1.834
 5828TIP3    H217428   3.846   0.564   1.747
 5829TIP3   OH217429   0.378   2.501   0.536
 5829TIP3    H117430   0.297   2.485   0.585
 5829TIP3    H217431   0.390   2.596   0.539
 5830TIP3   OH217432   7.937   1.953   4.178
 5830TIP3    H117433   7.983   2.018   4.126
 5830TIP3    H217434   7.884   1.904   4.115
 5831TIP3   OH217435   6.314   2.569   2.260
 5831TIP3    H117436   6.392   2.572   2.316
 5831TIP3    H217437   6.244   2.600   2.317
 5832TIP3   OH217438   7.133   5.193   5.434
 5832TIP3    H117439   7.136   5.267   5.372
 5832TIP3    H217440   7.142   5.234   5.520
 5833TIP3   OH217441   2.049   1.872   6.693
 5833TIP3    H117442   2.047   1.851   6.599
 5833TIP3    H217443   2.133   1.915   6.706
 5834TIP3   OH217444   8.151   7.139   4.109
 5834TIP3    H117445   8.172   7.200   4.038
 5834TIP3    H217446   8.087   7.185   4.163
 5835TIP3   OH217447   6.204   6.223   5.825
 5835TIP3    H117448   6.184   6.294   5.764
 5835TIP3    H217449   6.140   6.233   5.895
 5836TIP3   OH217450   8.193   1.918   0.479
 5836TIP3    H117451   8.203   2.007   0.512
 5836TIP3    H217452   8.099   1.904   0.475
 5837TIP3   OH217453   5.398   0.903   3.486
 5837TIP3    H117454   5.396   0.808   3.475
 5837TIP3    H217455   5.416   0.937   3.398
 5838TIP3   OH217456   4.448   0.964   1.942
 5838TIP3    H117457   4.374   1.015   1.976
 5838TIP3    H217458   4.410   0.909   1.874
 5839TIP3   OH217459   5.288   6.767   3.467
 5839TIP3    H117460   5.256   6.837   3.525
 5839TIP3    H217461   5.287   6.806   3.380
 5840TIP3   OH217462   7.338   0.186   3.017
 5840TIP3    H117463   7.407   0.209   3.079
 5840TIP3    H217464   7.329   0.091   3.025
 5841TIP3   OH217465   6.820   7.209   0.303
 5841TIP3    H117466   6.862   7.282   0.350
 5841TIP3    H217467   6.893   7.152   0.278
 5842TIP3   OH217468   2.695   2.211   3.513
 5842TIP3    H117469   2.670   2.134   3.564
 5842TIP3    H217470   2.733   2.271   3.578
 5843TIP3   OH217471   3.517   6.711   5.663
 5843TIP3    H117472   3.431   6.739   5.634
 5843TIP3    H217473   3.500   6.659   5.741
 5844TIP3   OH217474   2.076   7.749   0.459
 5844TIP3    H117475   2.060   7.822   0.518
 5844TIP3    H217476   2.100   7.789   0.376
 5845TIP3   OH217477   0.793   1.472   5.433
 5845TIP3    H117478   0.744   1.504   5.357
 5845TIP3    H217479   0.861   1.538   5.447
 5846TIP3   OH217480   0.585   0.125   5.896
 5846TIP3    H117481   0.656   0.116   5.833
 5846TIP3    H217482   0.506   0.107   5.846
 5847TIP3   OH217483   7.719   0.108   0.767
 5847TIP3    H117484   7.658   0.168   0.810
 5847TIP3    H217485   7.806   0.147   0.782
 5848TIP3   OH217486   4.188   4.104   2.359
 5848TIP3    H117487   4.221   4.189   2.328
 5848TIP3    H217488   4.264   4.047   2.356
 5849TIP3   OH217489   8.024   1.515   5.144
 5849TIP3    H117490   8.104   1.527   5.093
 5849TIP3    H217491   7.967   1.463   5.087
 5850TIP3   OH217492   1.006   0.583   6.152
 5850TIP3    H117493   1.066   0.655   6.169
 5850TIP3    H217494   0.921   0.625   6.137
 5851TIP3   OH217495   4.924   7.330   0.745
 5851TIP3    H117496   5.005   7.365   0.707
 5851TIP3    H217497   4.911   7.246   0.701
 5852TIP3   OH217498   4.606   2.598   1.751
 5852TIP3    H117499   4.576   2.665   1.812
 5852TIP3    H217500   4.624   2.646   1.670
 5853TIP3   OH217501   1.275   1.396   5.914
 5853TIP3    H117502   1.357   1.349   5.900
 5853TIP3    H217503   1.301   1.477   5.960
 5854TIP3   OH217504   1.193   6.691   2.890
 5854TIP3    H117505   1.242   6.649   2.961
 5854TIP3    H217506   1.253   6.756   2.854
 5855TIP3   OH217507   3.763   0.358   1.173
 5855TIP3    H117508   3.793   0.329   1.259
 5855TIP3    H217509   3.750   0.452   1.182
 5856TIP3   OH217510   4.123   4.264   3.591
 5856TIP3    H117511   4.033   4.254   3.560
 5856TIP3    H217512   4.128   4.211   3.670
 5857TIP3   OH217513   2.924   7.266   6.117
 5857TIP3    H117514   2.996   7.256   6.055
 5857TIP3    H217515   2.846   7.239   6.067
 5858TIP3   OH217516   4.035   7.526   3.906
 5858TIP3    H117517   4.071   7.443   3.875
 5858TIP3    H217518   4.087   7.547   3.984
 5859TIP3   OH217519   3.775   5.097   5.536
 5859TIP3    H117520   3.799   5.086   5.445
 5859TIP3    H217521   3.679   5.098   5.536
 5860TIP3   OH217522   4.661   5.791   0.433
 5860TIP3    H117523   4.701   5.718   0.480
 5860TIP3    H217524   4.688   5.778   0.342
 5861TIP3   OH217525   1.367   3.442   3.482
 5861TIP3    H117526   1.448   3.414   3.439
 5861TIP3    H217527   1.315   3.480   3.411
 5862TIP3   OH217528   2.159   4.960   2.319
 5862TIP3    H117529   2.232   4.992   2.265
 5862TIP3    H217530   2.186   4.873   2.347
 5863TIP3   OH217531   6.492   3.456   6.767
 5863TIP3    H117532   6.473   3.549   6.778
 5863TIP3    H217533   6.434   3.427   6.696
 5864TIP3   OH217534   4.392   6.013   2.595
 5864TIP3    H117535   4.350   6.092   2.560
 5864TIP3    H217536   4.451   5.984   2.525
 5865TIP3   OH217537   5.738   2.565   2.628
 5865TIP3    H117538   5.799   2.492   2.633
 5865TIP3    H217539   5.686   2.558   2.708
 5866TIP3   OH217540   4.105   1.267   5.293
 5866TIP3    H117541   4.074   1.354   5.271
 5866TIP3    H217542   4.141   1.232   5.211
 5867TIP3   OH217543   2.733   0.523   3.883
 5867TIP3    H117544   2.697   0.577   3.813
 5867TIP3    H217545   2.661   0.464   3.908
 5868TIP3   OH217546   6.158   6.461   5.561
 5868TIP3    H117547   6.195   6.527   5.620
 5868TIP3    H217548   6.105   6.511   5.498
 5869TIP3   OH217549   1.816   6.056   2.839
 5869TIP3    H117550   1.833   5.980   2.784
 5869TIP3    H217551   1.816   6.130   2.777
 5870TIP3   OH217552   5.290   3.320   3.977
 5870TIP3    H117553   5.251   3.279   4.055
 5870TIP3    H217554   5.232   3.293   3.905
 5871TIP3   OH217555   7.092   0.481   5.180
 5871TIP3    H117556   7.087   0.531   5.099
 5871TIP3    H217557   7.171   0.514   5.223
 5872TIP3   OH217558   0.275   4.745   3.779
 5872TIP3    H117559   0.231   4.660   3.783
 5872TIP3    H217560   0.359   4.726   3.738
 5873TIP3   OH217561   6.151   4.049   0.514
 5873TIP3    H117562   6.166   4.026   0.606
 5873TIP3    H217563   6.187   3.976   0.465
 5874TIP3   OH217564   8.159   4.981   6.543
 5874TIP3    H117565   8.111   4.904   6.513
 5874TIP3    H217566   8.251   4.961   6.525
 5875TIP3   OH217567   3.891   6.125   6.501
 5875TIP3    H117568   3.940   6.132   6.419
 5875TIP3    H217569   3.844   6.041   6.494
 5876TIP3   OH217570   7.544   7.409   1.604
 5876TIP3    H117571   7.466   7.359   1.578
 5876TIP3    H217572   7.542   7.487   1.548
 5877TIP3   OH217573   1.463   3.178   0.193
 5877TIP3    H117574   1.525   3.115   0.157
 5877TIP3    H217575   1.507   3.262   0.186
 5878TIP3   OH217576   5.412   7.088   4.035
 5878TIP3    H117577   5.373   7.145   3.970
 5878TIP3    H217578   5.340   7.063   4.093
 5879TIP3   OH217579   0.312   2.099   2.448
 5879TIP3    H117580   0.376   2.169   2.443
 5879TIP3    H217581   0.277   2.091   2.359
 5880TIP3   OH217582   4.367   4.704   3.085
 5880TIP3    H117583   4.404   4.744   3.164
 5880TIP3    H217584   4.291   4.656   3.116
 5881TIP3   OH217585   3.143   6.607   0.098
 5881TIP3    H117586   3.145   6.694   0.137
 5881TIP3    H217587   3.218   6.605   0.038
 5882TIP3   OH217588   2.559   7.235   2.531
 5882TIP3    H117589   2.533   7.285   2.609
 5882TIP3    H217590   2.590   7.151   2.565
 5883TIP3   OH217591   5.230   1.046   4.735
 5883TIP3    H117592   5.295   1.011   4.674
 5883TIP3    H217593   5.276   1.051   4.819
 5884TIP3   OH217594   5.552   6.542   3.158
 5884TIP3    H117595   5.563   6.450   3.184
 5884TIP3    H217596   5.457   6.554   3.153
 5885TIP3   OH217597   6.702   2.707   1.354
 5885TIP3    H117598   6.777   2.680   1.407
 5885TIP3    H217599   6.715   2.664   1.270
 5886TIP3   OH217600   1.634   0.502   5.611
 5886TIP3    H117601   1.660   0.559   5.683
 5886TIP3    H217602   1.602   0.422   5.653
 5887TIP3   OH217603   0.731   3.630   5.193
 5887TIP3    H117604   0.646   3.675   5.197
 5887TIP3    H217605   0.791   3.687   5.241
 5888TIP3   OH217606   0.429   3.254   3.168
 5888TIP3    H117607   0.418   3.165   3.202
 5888TIP3    H217608   0.509   3.286   3.210
 5889TIP3   OH217609   2.550   2.663   2.682
 5889TIP3    H117610   2.603   2.738   2.710
 5889TIP3    H217611   2.460   2.693   2.690
 5890TIP3   OH217612   5.359   5.856   4.386
 5890TIP3    H117613   5.312   5.774   4.374
 5890TIP3    H217614   5.442   5.831   4.425
 5891TIP3   OH217615   1.850   5.393   2.530
 5891TIP3    H117616   1.908   5.337   2.581
 5891TIP3    H217617   1.780   5.418   2.590
 5892TIP3   OH217618   7.538   4.445   4.075
 5892TIP3    H117619   7.464   4.458   4.015
 5892TIP3    H217620   7.541   4.526   4.126
 5893TIP3   OH217621   0.604   6.400   4.429
 5893TIP3    H117622   0.682   6.395   4.374
 5893TIP3    H217623   0.612   6.327   4.490
 5894TIP3   OH217624   6.071   5.111   6.268
 5894TIP3    H117625   6.015   5.152   6.333
 5894TIP3    H217626   6.130   5.055   6.318
 5895TIP3   OH217627   1.786   3.280   3.604
 5895TIP3    H117628   1.880   3.293   3.614
 5895TIP3    H217629   1.758   3.236   3.684
 5896TIP3   OH217630   3.411   3.004   0.271
 5896TIP3    H117631   3.377   2.914   0.266
 5896TIP3    H217632   3.349   3.049   0.328
 5897TIP3   OH217633   0.423   3.273   3.810
 5897TIP3    H117634   0.355   3.209   3.829
 5897TIP3    H217635   0.459   3.295   3.896
 5898TIP3   OH217636   6.921   4.062   1.843
 5898TIP3    H117637   6.856   3.993   1.830
 5898TIP3    H217638   6.961   4.041   1.927
 5899TIP3   OH217639   4.301   2.769   1.446
 5899TIP3    H117640   4.316   2.755   1.353
 5899TIP3    H217641   4.322   2.685   1.487
 5900TIP3   OH217642   4.066   7.056   5.151
 5900TIP3    H117643   4.100   7.076   5.064
 5900TIP3    H217644   4.048   7.141   5.190
 5901TIP3   OH217645   7.932   1.557   1.308
 5901TIP3    H117646   7.995   1.572   1.378
 5901TIP3    H217647   7.961   1.613   1.236
 5902TIP3   OH217648   3.087   6.525   4.462
 5902TIP3    H117649   3.030   6.489   4.531
 5902TIP3    H217650   3.145   6.586   4.508
 5903TIP3   OH217651   3.348   1.850   6.050
 5903TIP3    H117652   3.322   1.885   5.964
 5903TIP3    H217653   3.282   1.883   6.110
 5904TIP3   OH217654   7.714   2.783   2.572
 5904TIP3    H117655   7.779   2.789   2.642
 5904TIP3    H217656   7.711   2.691   2.549
 5905TIP3   OH217657   4.953   3.681   0.472
 5905TIP3    H117658   4.914   3.684   0.560
 5905TIP3    H217659   5.022   3.614   0.479
 5906TIP3   OH217660   1.380   1.087   1.229
 5906TIP3    H117661   1.396   1.090   1.323
 5906TIP3    H217662   1.355   1.176   1.206
 5907TIP3   OH217663   2.401   3.036   2.940
 5907TIP3    H117664   2.410   3.049   2.846
 5907TIP3    H217665   2.365   2.948   2.949
 5908TIP3   OH217666   3.469   2.949   5.081
 5908TIP3    H117667   3.525   2.902   5.020
 5908TIP3    H217668   3.455   3.035   5.040
 5909TIP3   OH217669   1.075   3.223   0.722
 5909TIP3    H117670   0.998   3.179   0.687
 5909TIP3    H217671   1.043   3.270   0.800
 5910TIP3   OH217672   0.228   6.404   3.458
 5910TIP3    H117673   0.230   6.496   3.433
 5910TIP3    H217674   0.256   6.357   3.380
 5911TIP3   OH217675   0.480   5.171   6.007
 5911TIP3    H117676   0.543   5.165   6.079
 5911TIP3    H217677   0.519   5.120   5.936
 5912TIP3   OH217678   5.945   0.922   3.936
 5912TIP3    H117679   6.000   1.000   3.930
 5912TIP3    H217680   5.856   0.956   3.950
 5913TIP3   OH217681   5.942   2.540   1.355
 5913TIP3    H117682   5.920   2.550   1.262
 5913TIP3    H217683   5.912   2.621   1.396
 5914TIP3   OH217684   0.135   5.779   2.971
 5914TIP3    H117685   0.193   5.737   3.034
 5914TIP3    H217686   0.076   5.709   2.942
 5915TIP3   OH217687   3.286   5.570   2.435
 5915TIP3    H117688   3.312   5.501   2.373
 5915TIP3    H217689   3.280   5.649   2.381
 5916TIP3   OH217690  -0.006   1.564   1.326
 5916TIP3    H117691  -0.062   1.641   1.317
 5916TIP3    H217692   0.051   1.566   1.248
 5917TIP3   OH217693   3.581   5.454   4.526
 5917TIP3    H117694   3.545   5.382   4.577
 5917TIP3    H217695   3.566   5.428   4.435
 5918TIP3   OH217696   3.729   1.066   0.623
 5918TIP3    H117697   3.775   1.077   0.540
 5918TIP3    H217698   3.664   1.137   0.623
 5919TIP3   OH217699   3.697   6.812   0.601
 5919TIP3    H117700   3.702   6.741   0.665
 5919TIP3    H217701   3.711   6.769   0.517
 5920TIP3   OH217702   5.509   3.112   0.294
 5920TIP3    H117703   5.501   3.182   0.359
 5920TIP3    H217704   5.563   3.046   0.336
 5921TIP3   OH217705   0.561   7.285   5.734
 5921TIP3    H117706   0.472   7.316   5.749
 5921TIP3    H217707   0.550   7.207   5.679
 5922TIP3   OH217708   6.079   0.187   2.800
 5922TIP3    H117709   6.028   0.117   2.759
 5922TIP3    H217710   6.152   0.202   2.741
 5923TIP3   OH217711   6.211   7.530   1.897
 5923TIP3    H117712   6.123   7.528   1.860
 5923TIP3    H217713   6.207   7.599   1.964
 5924TIP3   OH217714   1.983   7.553   1.968
 5924TIP3    H117715   2.023   7.523   1.886
 5924TIP3    H217716   2.019   7.495   2.035
 5925TIP3   OH217717   2.543   1.775   6.481
 5925TIP3    H117718   2.584   1.729   6.408
 5925TIP3    H217719   2.543   1.867   6.454
 5926TIP3   OH217720   6.160   7.018   3.959
 5926TIP3    H117721   6.102   6.941   3.969
 5926TIP3    H217722   6.222   6.993   3.891
 5927TIP3   OH217723   1.986   7.648   6.564
 5927TIP3    H117724   2.002   7.564   6.521
 5927TIP3    H217725   2.014   7.634   6.655
 5928TIP3   OH217726   5.737   7.748   3.699
 5928TIP3    H117727   5.668   7.814   3.702
 5928TIP3    H217728   5.738   7.719   3.608
 5929TIP3   OH217729   8.042   7.399   5.415
 5929TIP3    H117730   8.026   7.307   5.396
 5929TIP3    H217731   8.137   7.407   5.419
 5930TIP3   OH217732   7.690   2.577   2.329
 5930TIP3    H117733   7.699   2.516   2.403
 5930TIP3    H217734   7.777   2.583   2.292
 5931TIP3   OH217735   2.976   1.942   1.611
 5931TIP3    H117736   3.045   1.882   1.640
 5931TIP3    H217737   3.003   2.027   1.646
 5932TIP3   OH217738   2.602   0.836   5.990
 5932TIP3    H117739   2.684   0.848   6.037
 5932TIP3    H217740   2.575   0.925   5.966
 5933TIP3   OH217741   4.680   3.524   5.757
 5933TIP3    H117742   4.733   3.586   5.806
 5933TIP3    H217743   4.719   3.523   5.669
 5934TIP3   OH217744   4.610   4.050   6.061
 5934TIP3    H117745   4.556   4.099   5.999
 5934TIP3    H217746   4.605   3.959   6.030
 5935TIP3   OH217747   6.038   7.738   3.226
 5935TIP3    H117748   6.108   7.696   3.277
 5935TIP3    H217749   6.025   7.823   3.270
 5936TIP3   OH217750   5.187   5.311   2.765
 5936TIP3    H117751   5.096   5.317   2.793
 5936TIP3    H217752   5.221   5.401   2.772
 5937TIP3   OH217753   0.021   1.317   1.463
 5937TIP3    H117754   0.074   1.262   1.406
 5937TIP3    H217755   0.001   1.394   1.410
 5938TIP3   OH217756   3.015   3.182   0.634
 5938TIP3    H117757   3.013   3.257   0.693
 5938TIP3    H217758   2.929   3.182   0.592
 5939TIP3   OH217759   7.195   7.396   3.798
 5939TIP3    H117760   7.202   7.371   3.890
 5939TIP3    H217761   7.163   7.317   3.754
 5940TIP3   OH217762   2.463   7.176   5.337
 5940TIP3    H117763   2.511   7.111   5.285
 5940TIP3    H217764   2.485   7.154   5.428
 5941TIP3   OH217765   7.954   7.481   3.322
 5941TIP3    H117766   7.901   7.539   3.267
 5941TIP3    H217767   7.898   7.462   3.397
 5942TIP3   OH217768   7.163   6.050   6.706
 5942TIP3    H117769   7.238   6.084   6.754
 5942TIP3    H217770   7.134   6.123   6.652
 5943TIP3   OH217771   4.323   3.974   3.227
 5943TIP3    H117772   4.372   4.056   3.230
 5943TIP3    H217773   4.374   3.918   3.168
 5944TIP3   OH217774   0.383   0.129   5.204
 5944TIP3    H117775   0.391   0.223   5.219
 5944TIP3    H217776   0.473   0.096   5.211
 5945TIP3   OH217777   0.501   2.444   4.389
 5945TIP3    H117778   0.413   2.477   4.409
 5945TIP3    H217779   0.557   2.522   4.392
 5946TIP3   OH217780   6.480   5.363   6.441
 5946TIP3    H117781   6.479   5.320   6.355
 5946TIP3    H217782   6.537   5.439   6.429
 5947TIP3   OH217783   2.672   5.935   0.957
 5947TIP3    H117784   2.758   5.962   0.924
 5947TIP3    H217785   2.669   5.841   0.939
 5948TIP3   OH217786   0.206   7.356   6.503
 5948TIP3    H117787   0.212   7.431   6.562
 5948TIP3    H217788   0.204   7.395   6.415
 5949TIP3   OH217789   2.025   5.210   2.652
 5949TIP3    H117790   1.967   5.137   2.674
 5949TIP3    H217791   2.087   5.214   2.725
 5950TIP3   OH217792   8.161   2.170   3.420
 5950TIP3    H117793   8.244   2.157   3.465
 5950TIP3    H217794   8.113   2.089   3.434
 5951TIP3   OH217795   6.186   1.321   3.605
 5951TIP3    H117796   6.207   1.324   3.512
 5951TIP3    H217797   6.109   1.265   3.610
 5952TIP3   OH217798   3.074   5.745   3.867
 5952TIP3    H117799   3.032   5.821   3.825
 5952TIP3    H217800   3.008   5.713   3.929
 5953TIP3   OH217801   7.396   5.293   2.265
 5953TIP3    H117802   7.396   5.207   2.223
 5953TIP3    H217803   7.340   5.347   2.209
 5954TIP3   OH217804   7.202   2.621   6.162
 5954TIP3    H117805   7.169   2.571   6.088
 5954TIP3    H217806   7.268   2.565   6.202
 5955TIP3   OH217807   4.646   6.499   1.724
 5955TIP3    H117808   4.557   6.478   1.694
 5955TIP3    H217809   4.662   6.437   1.795
 5956TIP3   OH217810   4.944   6.580   1.664
 5956TIP3    H117811   4.925   6.496   1.622
 5956TIP3    H217812   4.859   6.623   1.671
 5957TIP3   OH217813   6.972   4.623   1.897
 5957TIP3    H117814   7.060   4.645   1.868
 5957TIP3    H217815   6.933   4.706   1.923
 5958TIP3   OH217816   8.059   3.853   6.302
 5958TIP3    H117817   8.068   3.759   6.284
 5958TIP3    H217818   7.977   3.860   6.351
 5959TIP3   OH217819   5.812   6.100   2.220
 5959TIP3    H117820   5.780   6.036   2.157
 5959TIP3    H217821   5.908   6.096   2.212
 5960TIP3   OH217822   3.410   5.427   3.774
 5960TIP3    H117823   3.352   5.503   3.771
 5960TIP3    H217824   3.374   5.374   3.846
 5961TIP3   OH217825   4.606   3.061   3.897
 5961TIP3    H117826   4.548   3.058   3.821
 5961TIP3    H217827   4.632   2.970   3.911
 5962TIP3   OH217828   4.267   7.546   5.822
 5962TIP3    H117829   4.185   7.568   5.866
 5962TIP3    H217830   4.250   7.563   5.729
 5963TIP3   OH217831   0.152   2.324   2.137
 5963TIP3    H117832   0.111   2.367   2.213
 5963TIP3    H217833   0.158   2.232   2.162
 5964TIP3   OH217834   2.227   0.720   6.204
 5964TIP3    H117835   2.251   0.674   6.123
 5964TIP3    H217836   2.200   0.651   6.264
 5965TIP3   OH217837   8.044   3.789   5.856
 5965TIP3    H117838   7.951   3.809   5.865
 5965TIP3    H217839   8.059   3.782   5.762
 5966TIP3   OH217840   1.345   4.917   2.103
 5966TIP3    H117841   1.266   4.924   2.050
 5966TIP3    H217842   1.416   4.940   2.044
 5967TIP3   OH217843   7.355   4.664   1.548
 5967TIP3    H117844   7.289   4.597   1.532
 5967TIP3    H217845   7.335   4.733   1.484
 5968TIP3   OH217846   4.208   6.705   1.731
 5968TIP3    H117847   4.176   6.746   1.811
 5968TIP3    H217848   4.141   6.641   1.709
 5969TIP3   OH217849   1.698   5.663   5.825
 5969TIP3    H117850   1.638   5.738   5.815
 5969TIP3    H217851   1.721   5.664   5.918
 5970TIP3   OH217852   1.441   3.677   6.272
 5970TIP3    H117853   1.376   3.735   6.312
 5970TIP3    H217854   1.509   3.737   6.240
 5971TIP3   OH217855   0.025   4.854   1.200
 5971TIP3    H117856  -0.018   4.851   1.114
 5971TIP3    H217857   0.064   4.767   1.211
 5972TIP3   OH217858   4.641   1.606   2.495
 5972TIP3    H117859   4.555   1.576   2.466
 5972TIP3    H217860   4.626   1.692   2.533
 5973TIP3   OH217861   4.383   5.802   6.303
 5973TIP3    H117862   4.410   5.710   6.302
 5973TIP3    H217863   4.398   5.831   6.393
 5974TIP3   OH217864   7.493   7.270   6.486
 5974TIP3    H117865   7.446   7.302   6.409
 5974TIP3    H217866   7.425   7.246   6.548
 5975TIP3   OH217867   4.489   5.594   5.997
 5975TIP3    H117868   4.577   5.596   6.035
 5975TIP3    H217869   4.500   5.551   5.912
 5976TIP3   OH217870   4.060   0.187   2.475
 5976TIP3    H117871   4.000   0.120   2.508
 5976TIP3    H217872   4.115   0.141   2.411
 5977TIP3   OH217873   6.639   4.451   6.185
 5977TIP3    H117874   6.648   4.382   6.252
 5977TIP3    H217875   6.728   4.478   6.166
 5978TIP3   OH217876   7.893   3.915   1.576
 5978TIP3    H117877   7.962   3.880   1.632
 5978TIP3    H217878   7.820   3.854   1.586
 5979TIP3   OH217879   0.404   6.280   0.486
 5979TIP3    H117880   0.334   6.313   0.542
 5979TIP3    H217881   0.364   6.270   0.400
 5980TIP3   OH217882   3.552   0.710   6.731
 5980TIP3    H117883   3.562   0.745   6.642
 5980TIP3    H217884   3.574   0.618   6.723
 5981TIP3   OH217885   3.519   1.488   5.874
 5981TIP3    H117886   3.568   1.479   5.956
 5981TIP3    H217887   3.585   1.509   5.809
 5982TIP3   OH217888   2.376   0.234   6.381
 5982TIP3    H117889   2.363   0.139   6.381
 5982TIP3    H217890   2.466   0.247   6.351
 5983TIP3   OH217891   2.585   2.996   4.229
 5983TIP3    H117892   2.540   2.925   4.274
 5983TIP3    H217893   2.672   2.961   4.210
 5984TIP3   OH217894   2.049   3.357   0.478
 5984TIP3    H117895   2.081   3.425   0.537
 5984TIP3    H217896   2.105   3.282   0.495
 5985TIP3   OH217897   4.560   5.692   1.505
 5985TIP3    H117898   4.613   5.696   1.426
 5985TIP3    H217899   4.476   5.731   1.481
 5986TIP3   OH217900   4.045   2.441   4.047
 5986TIP3    H117901   3.985   2.451   3.973
 5986TIP3    H217902   4.075   2.530   4.066
 5987TIP3   OH217903   2.834   7.331   5.520
 5987TIP3    H117904   2.823   7.240   5.491
 5987TIP3    H217905   2.881   7.373   5.447
 5988TIP3   OH217906   5.547   4.682   0.204
 5988TIP3    H117907   5.565   4.605   0.151
 5988TIP3    H217908   5.607   4.675   0.278
 5989TIP3   OH217909   5.338   6.570   1.848
 5989TIP3    H117910   5.412   6.630   1.851
 5989TIP3    H217911   5.294   6.591   1.766
 5990TIP3   OH217912   7.494   2.315   1.710
 5990TIP3    H117913   7.402   2.340   1.704
 5990TIP3    H217914   7.542   2.398   1.701
 5991TIP3   OH217915   5.196   4.928   1.749
 5991TIP3    H117916   5.260   4.910   1.680
 5991TIP3    H217917   5.128   4.981   1.706
 5992TIP3   OH217918   4.115   3.893   2.663
 5992TIP3    H117919   4.067   3.975   2.647
 5992TIP3    H217920   4.157   3.906   2.748
 5993TIP3   OH217921   1.215   1.691   1.911
 5993TIP3    H117922   1.298   1.739   1.906
 5993TIP3    H217923   1.198   1.682   2.004
 5994TIP3   OH217924   8.208   6.440   6.394
 5994TIP3    H117925   8.227   6.419   6.302
 5994TIP3    H217926   8.202   6.355   6.437
 5995TIP3   OH217927   3.275   3.715   3.986
 5995TIP3    H117928   3.273   3.660   3.908
 5995TIP3    H217929   3.348   3.775   3.971
 5996TIP3   OH217930   6.473   4.675   0.201
 5996TIP3    H117931   6.536   4.721   0.146
 5996TIP3    H217932   6.399   4.656   0.144
 5997TIP3   OH217933   3.820   2.052   3.932
 5997TIP3    H117934   3.883   2.123   3.920
 5997TIP3    H217935   3.841   1.990   3.862
 5998TIP3   OH217936   6.327   0.887   3.815
 5998TIP3    H117937   6.283   0.891   3.730
 5998TIP3    H217938   6.375   0.970   3.821
 5999TIP3   OH217939   7.655   3.308   3.696
 5999TIP3    H117940   7.700   3.229   3.666
 5999TIP3    H217941   7.605   3.337   3.620
 6000TIP3   OH217942   5.550   3.662   4.127
 6000TIP3    H117943   5.601   3.665   4.046
 6000TIP3    H217944   5.476   3.721   4.110
 6001TIP3   OH217945   5.096   3.057   4.915
 6001TIP3    H117946   5.159   3.128   4.904
 6001TIP3    H217947   5.013   3.094   4.884
 6002TIP3   OH217948   7.616   5.635   3.268
 6002TIP3    H117949   7.679   5.668   3.332
 6002TIP3    H217950   7.600   5.544   3.295
 6003TIP3   OH217951   5.257   6.840   6.131
 6003TIP3    H117952   5.198   6.772   6.164
 6003TIP3    H217953   5.209   6.882   6.060
 6004TIP3   OH217954   7.613   1.760   2.138
 6004TIP3    H117955   7.658   1.784   2.057
 6004TIP3    H217956   7.529   1.805   2.133
 6005TIP3   OH217957   0.995   3.338   5.954
 6005TIP3    H117958   1.042   3.284   5.891
 6005TIP3    H217959   0.916   3.288   5.975
 6006TIP3   OH217960   0.645   3.605   4.403
 6006TIP3    H117961   0.624   3.694   4.375
 6006TIP3    H217962   0.741   3.601   4.396
 6007TIP3   OH217963   6.065   6.377   0.014
 6007TIP3    H117964   6.137   6.432   0.046
 6007TIP3    H217965   6.074   6.295   0.062
 6008TIP3   OH217966   5.000   3.531   1.317
 6008TIP3    H117967   5.079   3.572   1.281
 6008TIP3    H217968   4.928   3.579   1.276
 6009TIP3   OH217969   5.659   7.147   3.826
 6009TIP3    H117970   5.689   7.233   3.856
 6009TIP3    H217971   5.566   7.159   3.809
 6010TIP3   OH217972   4.022   2.648   2.737
 6010TIP3    H117973   3.966   2.701   2.680
 6010TIP3    H217974   3.976   2.646   2.821
 6011TIP3   OH217975   2.550   4.446   2.373
 6011TIP3    H117976   2.578   4.372   2.320
 6011TIP3    H217977   2.579   4.523   2.324
 6012TIP3   OH217978   1.042   0.850   4.820
 6012TIP3    H117979   1.099   0.894   4.882
 6012TIP3    H217980   0.999   0.782   4.871
 6013TIP3   OH217981   5.032   1.251   1.023
 6013TIP3    H117982   5.082   1.207   0.955
 6013TIP3    H217983   4.983   1.319   0.977
 6014TIP3   OH217984   5.749   4.632   1.448
 6014TIP3    H117985   5.793   4.717   1.453
 6014TIP3    H217986   5.656   4.654   1.438
 6015TIP3   OH217987   5.368   7.485   3.257
 6015TIP3    H117988   5.451   7.509   3.215
 6015TIP3    H217989   5.386   7.491   3.350
 6016TIP3   OH217990   3.998   1.263   3.776
 6016TIP3    H117991   4.065   1.329   3.792
 6016TIP3    H217992   4.008   1.240   3.684
 6017TIP3   OH217993   5.838   0.397   1.717
 6017TIP3    H117994   5.826   0.467   1.781
 6017TIP3    H217995   5.755   0.350   1.718
 6018TIP3   OH217996   7.997   4.106   5.266
 6018TIP3    H117997   8.026   4.065   5.184
 6018TIP3    H217998   8.004   4.036   5.331
 6019TIP3   OH217999   4.736   0.621   4.775
 6019TIP3    H118000   4.678   0.565   4.826
 6019TIP3    H218001   4.763   0.566   4.701
 6020TIP3   OH218002   1.565   4.635   1.513
 6020TIP3    H118003   1.520   4.717   1.535
 6020TIP3    H218004   1.499   4.584   1.466
 6021TIP3   OH218005   3.534   5.228   6.180
 6021TIP3    H118006   3.456   5.264   6.224
 6021TIP3    H218007   3.607   5.277   6.217
 6022TIP3   OH218008   6.979   4.543   5.665
 6022TIP3    H118009   7.004   4.494   5.586
 6022TIP3    H218010   6.904   4.596   5.638
 6023TIP3   OH218011   4.552   4.180   2.531
 6023TIP3    H118012   4.460   4.158   2.514
 6023TIP3    H218013   4.601   4.104   2.499
 6024TIP3   OH218014   1.264   3.569   5.322
 6024TIP3    H118015   1.274   3.654   5.364
 6024TIP3    H218016   1.187   3.530   5.364
 6025TIP3   OH218017   2.582   3.444   1.926
 6025TIP3    H118018   2.535   3.394   1.992
 6025TIP3    H218019   2.533   3.430   1.845
 6026TIP3   OH218020   4.574   7.317   4.296
 6026TIP3    H118021   4.565   7.389   4.358
 6026TIP3    H218022   4.484   7.288   4.279
 6027TIP3   OH218023   1.595   4.660   4.235
 6027TIP3    H118024   1.569   4.750   4.255
 6027TIP3    H218025   1.543   4.637   4.158
 6028TIP3   OH218026   2.563   3.127   3.955
 6028TIP3    H118027   2.635   3.064   3.954
 6028TIP3    H218028   2.526   3.121   4.043
 6029TIP3   OH218029   5.878   1.868   0.149
 6029TIP3    H118030   5.898   1.908   0.065
 6029TIP3    H218031   5.961   1.871   0.197
 6030TIP3   OH218032   3.189   2.128   0.067
 6030TIP3    H118033   3.101   2.162   0.056
 6030TIP3    H218034   3.188   2.084   0.152
 6031TIP3   OH218035   6.249   6.219   2.290
 6031TIP3    H118036   6.319   6.266   2.246
 6031TIP3    H218037   6.197   6.181   2.220
 6032TIP3   OH218038   4.147   7.014   2.416
 6032TIP3    H118039   4.092   7.084   2.381
 6032TIP3    H218040   4.125   6.937   2.363
 6033TIP3   OH218041   1.396   5.841   4.451
 6033TIP3    H118042   1.351   5.879   4.526
 6033TIP3    H218043   1.347   5.872   4.375
 6034TIP3   OH218044   0.323   4.537   0.591
 6034TIP3    H118045   0.265   4.596   0.543
 6034TIP3    H218046   0.276   4.454   0.594
 6035TIP3   OH218047   2.985   6.200   2.314
 6035TIP3    H118048   2.948   6.239   2.235
 6035TIP3    H218049   2.927   6.126   2.333
 6036TIP3   OH218050   0.147   3.203   4.741
 6036TIP3    H118051   0.169   3.199   4.648
 6036TIP3    H218052   0.074   3.142   4.751
 6037TIP3   OH218053   5.745   0.385   3.872
 6037TIP3    H118054   5.763   0.464   3.821
 6037TIP3    H218055   5.658   0.400   3.909
 6038TIP3   OH218056   6.976   4.495   4.878
 6038TIP3    H118057   7.051   4.460   4.829
 6038TIP3    H218058   6.960   4.581   4.840
 6039TIP3   OH218059   6.496   4.376   4.978
 6039TIP3    H118060   6.475   4.293   4.935
 6039TIP3    H218061   6.563   4.416   4.922
 6040TIP3   OH218062   6.879   3.003   5.453
 6040TIP3    H118063   6.948   3.052   5.498
 6040TIP3    H218064   6.801   3.056   5.463
 6041TIP3   OH218065   7.297   6.356   4.079
 6041TIP3    H118066   7.264   6.277   4.037
 6041TIP3    H218067   7.292   6.423   4.010
 6042TIP3   OH218068   3.932   2.176   6.614
 6042TIP3    H118069   3.887   2.247   6.660
 6042TIP3    H218070   3.864   2.130   6.567
 6043TIP3   OH218071   2.524   5.872   5.281
 6043TIP3    H118072   2.591   5.841   5.220
 6043TIP3    H218073   2.442   5.843   5.242
 6044TIP3   OH218074   6.242   5.478   6.329
 6044TIP3    H118075   6.324   5.520   6.357
 6044TIP3    H218076   6.263   5.439   6.245
 6045TIP3   OH218077   6.086   2.631   2.787
 6045TIP3    H118078   6.119   2.721   2.784
 6045TIP3    H218079   6.164   2.578   2.808
 6046TIP3   OH218080   6.646   1.405   5.768
 6046TIP3    H118081   6.578   1.345   5.741
 6046TIP3    H218082   6.723   1.380   5.718
 6047TIP3   OH218083   1.293   2.611   6.355
 6047TIP3    H118084   1.371   2.574   6.396
 6047TIP3    H218085   1.262   2.542   6.296
 6048TIP3   OH218086   5.981   5.328   2.338
 6048TIP3    H118087   5.955   5.351   2.249
 6048TIP3    H218088   5.974   5.233   2.342
 6049TIP3   OH218089   7.926   4.298   1.952
 6049TIP3    H118090   7.939   4.212   1.990
 6049TIP3    H218091   7.982   4.299   1.875
 6050TIP3   OH218092   0.339   1.689   6.093
 6050TIP3    H118093   0.376   1.641   6.019
 6050TIP3    H218094   0.264   1.637   6.122
 6051TIP3   OH218095  -0.011   6.907   3.977
 6051TIP3    H118096  -0.009   7.002   3.963
 6051TIP3    H218097   0.068   6.874   3.935
 6052TIP3   OH218098   5.626   0.203   1.724
 6052TIP3    H118099   5.598   0.127   1.673
 6052TIP3    H218100   5.618   0.175   1.815
 6053TIP3   OH218101   7.916   0.155   5.360
 6053TIP3    H118102   7.962   0.140   5.277
 6053TIP3    H218103   7.974   0.214   5.409
 6054TIP3   OH218104   1.415   5.876   1.711
 6054TIP3    H118105   1.401   5.834   1.796
 6054TIP3    H218106   1.502   5.914   1.717
 6055TIP3   OH218107   4.284   6.347   0.754
 6055TIP3    H118108   4.379   6.340   0.766
 6055TIP3    H218109   4.248   6.274   0.805
 6056TIP3   OH218110   1.059   3.784   1.762
 6056TIP3    H118111   1.124   3.799   1.694
 6056TIP3    H218112   0.982   3.750   1.716
 6057TIP3   OH218113   6.365   2.783   4.666
 6057TIP3    H118114   6.336   2.723   4.598
 6057TIP3    H218115   6.434   2.835   4.626
 6058TIP3   OH218116   1.333   4.552   2.007
 6058TIP3    H118117   1.413   4.505   1.984
 6058TIP3    H218118   1.335   4.631   1.953
 6059TIP3   OH218119   2.057   1.916   1.284
 6059TIP3    H118120   2.038   1.944   1.194
 6059TIP3    H218121   1.994   1.846   1.301
 6060TIP3   OH218122   6.776   4.646   3.994
 6060TIP3    H118123   6.733   4.678   3.915
 6060TIP3    H218124   6.755   4.711   4.061
 6061TIP3   OH218125   5.053   5.757   0.789
 6061TIP3    H118126   5.110   5.794   0.722
 6061TIP3    H218127   5.043   5.826   0.855
 6062TIP3   OH218128   4.288   5.780   1.441
 6062TIP3    H118129   4.301   5.874   1.429
 6062TIP3    H218130   4.246   5.751   1.361
 6063TIP3   OH218131   1.718   5.840   6.090
 6063TIP3    H118132   1.789   5.904   6.081
 6063TIP3    H218133   1.762   5.759   6.118
 6064TIP3   OH218134   8.083   6.268   0.840
 6064TIP3    H118135   8.105   6.198   0.901
 6064TIP3    H218136   8.039   6.224   0.767
 6065TIP3   OH218137   3.993   1.905   0.983
 6065TIP3    H118138   3.942   1.840   1.032
 6065TIP3    H218139   3.979   1.882   0.891
 6066TIP3   OH218140   5.386   2.438   0.790
 6066TIP3    H118141   5.376   2.521   0.742
 6066TIP3    H218142   5.464   2.398   0.751
 6067TIP3   OH218143   0.244   3.123   4.204
 6067TIP3    H118144   0.314   3.084   4.153
 6067TIP3    H218145   0.178   3.147   4.139
 6068TIP3   OH218146   1.716   5.714   3.487
 6068TIP3    H118147   1.720   5.745   3.396
 6068TIP3    H218148   1.689   5.791   3.537
 6069TIP3   OH218149   0.377   1.297   2.568
 6069TIP3    H118150   0.366   1.391   2.553
 6069TIP3    H218151   0.391   1.290   2.663
 6070TIP3   OH218152   3.039   1.606   5.083
 6070TIP3    H118153   3.051   1.518   5.050
 6070TIP3    H218154   3.119   1.625   5.133
 6071TIP3   OH218155   5.246   6.306   1.973
 6071TIP3    H118156   5.243   6.395   1.937
 6071TIP3    H218157   5.271   6.318   2.064
 6072TIP3   OH218158   4.478   4.722   4.297
 6072TIP3    H118159   4.521   4.686   4.375
 6072TIP3    H218160   4.416   4.786   4.332
 6073TIP3   OH218161   0.135   3.069   0.223
 6073TIP3    H118162   0.074   2.996   0.230
 6073TIP3    H218163   0.170   3.061   0.134
 6074TIP3   OH218164   4.015   3.596   2.457
 6074TIP3    H118165   4.070   3.672   2.435
 6074TIP3    H218166   4.031   3.581   2.550
 6075TIP3   OH218167   7.663   2.823   5.176
 6075TIP3    H118168   7.634   2.816   5.267
 6075TIP3    H218169   7.758   2.836   5.182
 6076TIP3   OH218170   5.637   7.769   2.844
 6076TIP3    H118171   5.656   7.774   2.938
 6076TIP3    H218172   5.546   7.740   2.840
 6077TIP3   OH218173   5.758   7.670   3.445
 6077TIP3    H118174   5.733   7.577   3.442
 6077TIP3    H218175   5.707   7.711   3.374
 6078TIP3   OH218176   4.267   0.891   4.352
 6078TIP3    H118177   4.339   0.868   4.410
 6078TIP3    H218178   4.214   0.952   4.403
 6079TIP3   OH218179   0.429   3.126   5.526
 6079TIP3    H118180   0.480   3.077   5.462
 6079TIP3    H218181   0.426   3.071   5.604
 6080TIP3   OH218182   0.311   4.470   3.784
 6080TIP3    H118183   0.372   4.402   3.755
 6080TIP3    H218184   0.262   4.429   3.856
 6081TIP3   OH218185   1.844   4.365   2.253
 6081TIP3    H118186   1.777   4.425   2.286
 6081TIP3    H218187   1.873   4.317   2.331
 6082TIP3   OH218188   5.279   0.465   2.267
 6082TIP3    H118189   5.216   0.404   2.229
 6082TIP3    H218190   5.231   0.509   2.337
 6083TIP3   OH218191   0.263   1.424   3.295
 6083TIP3    H118192   0.253   1.375   3.214
 6083TIP3    H218193   0.180   1.470   3.306
 6084TIP3   OH218194   0.288   3.962   6.319
 6084TIP3    H118195   0.362   4.022   6.321
 6084TIP3    H218196   0.213   4.016   6.293
 6085TIP3   OH218197   5.458   5.161   4.766
 6085TIP3    H118198   5.502   5.106   4.830
 6085TIP3    H218199   5.529   5.202   4.716
 6086TIP3   OH218200   6.193   6.277   4.013
 6086TIP3    H118201   6.183   6.370   3.989
 6086TIP3    H218202   6.105   6.249   4.037
 6087TIP3   OH218203   6.638   4.381   2.458
 6087TIP3    H118204   6.670   4.302   2.414
 6087TIP3    H218205   6.625   4.355   2.549
 6088TIP3   OH218206   5.923   0.559   4.135
 6088TIP3    H118207   5.952   0.578   4.046
 6088TIP3    H218208   5.909   0.644   4.176
 6089TIP3   OH218209   7.966   5.571   5.518
 6089TIP3    H118210   8.044   5.566   5.573
 6089TIP3    H218211   7.983   5.645   5.459
 6090TIP3   OH218212   6.466   4.610   1.518
 6090TIP3    H118213   6.459   4.533   1.574
 6090TIP3    H218214   6.469   4.684   1.579
 6091TIP3   OH218215   2.167   5.049   5.427
 6091TIP3    H118216   2.239   5.038   5.489
 6091TIP3    H218217   2.092   5.005   5.468
 6092TIP3   OH218218   0.897   4.091   2.114
 6092TIP3    H118219   0.852   4.007   2.127
 6092TIP3    H218220   0.973   4.070   2.060
 6093TIP3   OH218221   7.772   0.496   4.861
 6093TIP3    H118222   7.678   0.515   4.868
 6093TIP3    H218223   7.791   0.441   4.937
 6094TIP3   OH218224   5.229   4.522   1.945
 6094TIP3    H118225   5.140   4.556   1.957
 6094TIP3    H218226   5.242   4.525   1.850
 6095TIP3   OH218227   2.051   3.033   0.640
 6095TIP3    H118228   2.087   2.966   0.698
 6095TIP3    H218229   1.988   2.986   0.585
 6096TIP3   OH218230   2.683   6.273   2.364
 6096TIP3    H118231   2.728   6.222   2.431
 6096TIP3    H218232   2.611   6.218   2.336
 6097TIP3   OH218233   3.017   0.369   6.243
 6097TIP3    H118234   3.092   0.390   6.298
 6097TIP3    H218235   3.039   0.284   6.205
 6098TIP3   OH218236   0.760   6.559   1.163
 6098TIP3    H118237   0.761   6.552   1.067
 6098TIP3    H218238   0.704   6.487   1.192
 6099TIP3   OH218239   2.405   0.304   6.729
 6099TIP3    H118240   2.456   0.242   6.782
 6099TIP3    H218241   2.468   0.372   6.704
 6100TIP3   OH218242   1.881   1.762   5.189
 6100TIP3    H118243   1.796   1.733   5.156
 6100TIP3    H218244   1.928   1.792   5.111
 6101TIP3   OH218245   6.082   5.475   3.145
 6101TIP3    H118246   6.076   5.463   3.050
 6101TIP3    H218247   6.167   5.517   3.159
 6102TIP3   OH218248   1.168   5.504   2.786
 6102TIP3    H118249   1.189   5.444   2.858
 6102TIP3    H218250   1.074   5.520   2.796
 6103TIP3   OH218251   1.639   6.877   5.179
 6103TIP3    H118252   1.703   6.876   5.250
 6103TIP3    H218253   1.687   6.907   5.103
 6104TIP3   OH218254   0.993   0.756   1.106
 6104TIP3    H118255   1.041   0.839   1.115
 6104TIP3    H218256   1.006   0.711   1.189
 6105TIP3   OH218257   5.367   2.713   0.607
 6105TIP3    H118258   5.344   2.651   0.538
 6105TIP3    H218259   5.284   2.755   0.630
 6106TIP3   OH218260   0.066   5.642   4.862
 6106TIP3    H118261   0.018   5.562   4.883
 6106TIP3    H218262   0.158   5.616   4.860
 6107TIP3   OH218263   2.874   2.662   3.923
 6107TIP3    H118264   2.823   2.602   3.978
 6107TIP3    H218265   2.954   2.614   3.901
 6108TIP3   OH218266   5.952   3.921   3.414
 6108TIP3    H118267   6.019   3.948   3.351
 6108TIP3    H218268   5.910   4.002   3.442
 6109TIP3   OH218269   3.093   0.651   3.362
 6109TIP3    H118270   3.142   0.594   3.421
 6109TIP3    H218271   3.160   0.705   3.320
 6110TIP3   OH218272   5.471   0.348   3.803
 6110TIP3    H118273   5.445   0.266   3.763
 6110TIP3    H218274   5.417   0.355   3.882
 6111TIP3   OH218275   5.734   5.996   2.475
 6111TIP3    H118276   5.809   5.989   2.535
 6111TIP3    H218277   5.771   6.037   2.396
 6112TIP3   OH218278   5.371   2.253   6.469
 6112TIP3    H118279   5.385   2.228   6.561
 6112TIP3    H218280   5.276   2.249   6.458
 6113TIP3   OH218281   3.525   1.117   2.669
 6113TIP3    H118282   3.594   1.052   2.680
 6113TIP3    H218283   3.445   1.070   2.691
 6114TIP3   OH218284   1.536   0.097   0.203
 6114TIP3    H118285   1.576   0.170   0.250
 6114TIP3    H218286   1.567   0.019   0.248
 6115TIP3   OH218287   6.536   2.747   1.634
 6115TIP3    H118288   6.522   2.735   1.540
 6115TIP3    H218289   6.537   2.658   1.670
 6116TIP3   OH218290   5.992   0.465   2.140
 6116TIP3    H118291   5.912   0.413   2.146
 6116TIP3    H218292   6.063   0.400   2.139
 6117TIP3   OH218293   0.374   2.915   5.700
 6117TIP3    H118294   0.331   2.881   5.622
 6117TIP3    H218295   0.457   2.868   5.705
 6118TIP3   OH218296   1.259   1.127   4.093
 6118TIP3    H118297   1.314   1.091   4.162
 6118TIP3    H218298   1.170   1.106   4.120
 6119TIP3   OH218299   8.196   0.092   3.985
 6119TIP3    H118300   8.209   0.179   3.948
 6119TIP3    H218301   8.144   0.106   4.064
 6120TIP3   OH218302   3.933   4.543   2.997
 6120TIP3    H118303   3.849   4.572   3.034
 6120TIP3    H218304   3.921   4.550   2.902
 6121TIP3   OH218305   5.463   6.050   2.981
 6121TIP3    H118306   5.377   6.035   2.941
 6121TIP3    H218307   5.506   6.111   2.921
 6122TIP3   OH218308   2.498   0.574   0.836
 6122TIP3    H118309   2.480   0.488   0.797
 6122TIP3    H218310   2.541   0.623   0.766
 6123TIP3   OH218311   0.704   5.818   6.341
 6123TIP3    H118312   0.623   5.789   6.298
 6123TIP3    H218313   0.758   5.852   6.269
 6124TIP3   OH218314   3.979   5.685   2.105
 6124TIP3    H118315   4.036   5.660   2.032
 6124TIP3    H218316   3.923   5.753   2.069
 6125TIP3   OH218317   4.868   1.185   6.311
 6125TIP3    H118318   4.906   1.244   6.247
 6125TIP3    H218319   4.774   1.205   6.310
 6126TIP3   OH218320   2.057   1.868   4.971
 6126TIP3    H118321   2.016   1.952   4.948
 6126TIP3    H218322   2.149   1.881   4.949
 6127TIP3   OH218323   7.244   6.489   1.448
 6127TIP3    H118324   7.243   6.465   1.541
 6127TIP3    H218325   7.300   6.567   1.444
 6128TIP3   OH218326   1.866   4.969   2.718
 6128TIP3    H118327   1.908   4.956   2.803
 6128TIP3    H218328   1.781   4.925   2.726
 6129TIP3   OH218329   2.723   1.926   3.617
 6129TIP3    H118330   2.793   1.937   3.553
 6129TIP3    H218331   2.672   1.852   3.585
 6130TIP3   OH218332   3.803   3.401   1.030
 6130TIP3    H118333   3.855   3.321   1.028
 6130TIP3    H218334   3.834   3.452   0.955
 6131TIP3   OH218335   3.999   3.498   1.994
 6131TIP3    H118336   4.055   3.441   2.046
 6131TIP3    H218337   3.953   3.438   1.934
 6132TIP3   OH218338   8.228   4.525   4.535
 6132TIP3    H118339   8.290   4.458   4.506
 6132TIP3    H218340   8.146   4.478   4.549
 6133TIP3   OH218341   6.337   6.213   0.236
 6133TIP3    H118342   6.335   6.130   0.283
 6133TIP3    H218343   6.249   6.224   0.200
 6134TIP3   OH218344   3.345   7.614   5.107
 6134TIP3    H118345   3.358   7.604   5.201
 6134TIP3    H218346   3.324   7.707   5.096
 6135TIP3   OH218347   2.400   5.093   2.677
 6135TIP3    H118348   2.443   5.099   2.592
 6135TIP3    H218349   2.337   5.022   2.667
 6136TIP3   OH218350   3.794   4.044   2.971
 6136TIP3    H118351   3.816   3.953   2.989
 6136TIP3    H218352   3.701   4.043   2.948
 6137TIP3   OH218353   2.628   5.164   3.127
 6137TIP3    H118354   2.567   5.220   3.175
 6137TIP3    H218355   2.623   5.080   3.172
 6138TIP3   OH218356   5.037   5.340   1.294
 6138TIP3    H118357   4.986   5.334   1.213
 6138TIP3    H218358   4.977   5.313   1.363
 6139TIP3   OH218359   5.690   3.287   4.497
 6139TIP3    H118360   5.779   3.260   4.520
 6139TIP3    H218361   5.699   3.331   4.413
 6140TIP3   OH218362   7.485   7.450   4.323
 6140TIP3    H118363   7.509   7.494   4.405
 6140TIP3    H218364   7.419   7.508   4.283
 6141TIP3   OH218365   6.827   1.899   1.581
 6141TIP3    H118366   6.835   1.825   1.522
 6141TIP3    H218367   6.733   1.906   1.597
 6142TIP3   OH218368   6.311   4.835   3.733
 6142TIP3    H118369   6.272   4.804   3.651
 6142TIP3    H218370   6.344   4.923   3.713
 6143TIP3   OH218371   5.248   2.253   0.624
 6143TIP3    H118372   5.185   2.214   0.685
 6143TIP3    H218373   5.306   2.306   0.680
 6144TIP3   OH218374   1.066   7.221   0.215
 6144TIP3    H118375   1.120   7.264   0.282
 6144TIP3    H218376   1.055   7.287   0.147
 6145TIP3   OH218377   7.451   7.404   4.739
 6145TIP3    H118378   7.508   7.389   4.814
 6145TIP3    H218379   7.441   7.317   4.699
 6146TIP3   OH218380   2.923   6.058   2.801
 6146TIP3    H118381   2.959   5.973   2.826
 6146TIP3    H218382   2.991   6.122   2.826
 6147TIP3   OH218383   7.729   2.549   6.142
 6147TIP3    H118384   7.787   2.506   6.080
 6147TIP3    H218385   7.746   2.507   6.225
 6148TIP3   OH218386   5.275   2.908   4.053
 6148TIP3    H118387   5.236   2.859   3.980
 6148TIP3    H218388   5.254   2.856   4.131
 6149TIP3   OH218389   6.605   0.793   0.223
 6149TIP3    H118390   6.581   0.804   0.315
 6149TIP3    H218391   6.531   0.747   0.184
 6150TIP3   OH218392   4.003   3.094   5.563
 6150TIP3    H118393   3.977   3.047   5.642
 6150TIP3    H218394   3.927   3.088   5.505
 6151TIP3   OH218395   0.837   7.577   4.677
 6151TIP3    H118396   0.785   7.500   4.697
 6151TIP3    H218397   0.801   7.609   4.594
 6152TIP3   OH218398   8.039   4.401   5.532
 6152TIP3    H118399   8.036   4.426   5.439
 6152TIP3    H218400   7.988   4.320   5.536
 6153TIP3   OH218401   7.261   5.855   0.313
 6153TIP3    H118402   7.239   5.919   0.380
 6153TIP3    H218403   7.193   5.788   0.319
 6154TIP3   OH218404   3.224   1.811   5.219
 6154TIP3    H118405   3.277   1.855   5.286
 6154TIP3    H218406   3.265   1.726   5.208
 6155TIP3   OH218407   4.280   5.058   5.067
 6155TIP3    H118408   4.230   5.100   4.997
 6155TIP3    H218409   4.354   5.116   5.082
 6156TIP3   OH218410   0.797   2.438   5.646
 6156TIP3    H118411   0.816   2.531   5.636
 6156TIP3    H218412   0.750   2.414   5.566
 6157TIP3   OH218413   7.787   6.848   4.473
 6157TIP3    H118414   7.721   6.779   4.475
 6157TIP3    H218415   7.838   6.831   4.394
 6158TIP3   OH218416   5.828   3.133   0.365
 6158TIP3    H118417   5.750   3.143   0.420
 6158TIP3    H218418   5.854   3.222   0.345
 6159TIP3   OH218419   5.829   0.679   4.598
 6159TIP3    H118420   5.914   0.644   4.571
 6159TIP3    H218421   5.766   0.631   4.545
 6160TIP3   OH218422   7.788   4.369   6.101
 6160TIP3    H118423   7.862   4.351   6.044
 6160TIP3    H218424   7.747   4.447   6.064
 6161TIP3   OH218425   6.406   7.191   1.949
 6161TIP3    H118426   6.313   7.184   1.928
 6161TIP3    H218427   6.408   7.223   2.039
 6162TIP3   OH218428   2.406   5.910   5.538
 6162TIP3    H118429   2.476   5.936   5.598
 6162TIP3    H218430   2.451   5.871   5.463
 6163TIP3   OH218431   1.004   1.623   5.322
 6163TIP3    H118432   1.014   1.655   5.412
 6163TIP3    H218433   1.087   1.643   5.280
 6164TIP3   OH218434   7.588   7.431   3.203
 6164TIP3    H118435   7.542   7.352   3.233
 6164TIP3    H218436   7.527   7.471   3.141
 6165TIP3   OH218437   6.399   4.126   3.066
 6165TIP3    H118438   6.476   4.099   3.116
 6165TIP3    H218439   6.336   4.055   3.077
 6166TIP3   OH218440   4.950   0.015   6.002
 6166TIP3    H118441   4.912  -0.061   6.046
 6166TIP3    H218442   4.922   0.090   6.054
 6167TIP3   OH218443   1.839   6.769   5.952
 6167TIP3    H118444   1.897   6.823   5.898
 6167TIP3    H218445   1.853   6.680   5.920
 6168TIP3   OH218446   4.447   7.104   2.976
 6168TIP3    H118447   4.458   7.124   2.883
 6168TIP3    H218448   4.487   7.178   3.022
 6169TIP3   OH218449   0.077   3.097   5.030
 6169TIP3    H118450   0.009   3.138   4.977
 6169TIP3    H218451   0.028   3.046   5.095
 6170TIP3   OH218452   3.921   5.900   5.701
 6170TIP3    H118453   3.874   5.944   5.772
 6170TIP3    H218454   4.011   5.893   5.732
 6171TIP3   OH218455   0.352   0.116   5.730
 6171TIP3    H118456   0.371   0.040   5.676
 6171TIP3    H218457   0.264   0.100   5.765
 6172TIP3   OH218458   0.585   1.685   1.481
 6172TIP3    H118459   0.671   1.726   1.488
 6172TIP3    H218460   0.562   1.693   1.388
 6173TIP3   OH218461   4.531   7.511   5.861
 6173TIP3    H118462   4.573   7.487   5.778
 6173TIP3    H218463   4.438   7.517   5.840
 6174TIP3   OH218464   5.130   3.569   3.634
 6174TIP3    H118465   5.101   3.554   3.544
 6174TIP3    H218466   5.101   3.658   3.654
 6175TIP3   OH218467   5.869   7.015   1.569
 6175TIP3    H118468   5.957   6.983   1.554
 6175TIP3    H218469   5.881   7.104   1.602
 6176TIP3   OH218470   5.819   7.024   4.982
 6176TIP3    H118471   5.855   6.940   5.010
 6176TIP3    H218472   5.750   7.001   4.919
 6177TIP3   OH218473   8.195   7.269   5.719
 6177TIP3    H118474   8.151   7.185   5.727
 6177TIP3    H218475   8.128   7.334   5.741
 6178TIP3   OH218476   6.922   3.376   1.763
 6178TIP3    H118477   6.961   3.435   1.828
 6178TIP3    H218478   6.895   3.434   1.691
 6179TIP3   OH218479   8.212   5.551   5.303
 6179TIP3    H118480   8.262   5.631   5.321
 6179TIP3    H218481   8.124   5.582   5.283
 6180TIP3   OH218482   5.301   4.822   4.407
 6180TIP3    H118483   5.266   4.910   4.392
 6180TIP3    H218484   5.309   4.784   4.319
 6181TIP3   OH218485   1.256   6.969   2.885
 6181TIP3    H118486   1.236   7.013   2.802
 6181TIP3    H218487   1.226   7.029   2.953
 6182TIP3   OH218488   7.223   6.138   2.954
 6182TIP3    H118489   7.219   6.123   2.859
 6182TIP3    H218490   7.174   6.066   2.992
 6183TIP3   OH218491   1.727   1.199   3.040
 6183TIP3    H118492   1.648   1.229   3.086
 6183TIP3    H218493   1.783   1.276   3.037
 6184TIP3   OH218494   1.164   3.565   3.027
 6184TIP3    H118495   1.119   3.650   3.025
 6184TIP3    H218496   1.199   3.559   3.116
 6185TIP3   OH218497   1.791   5.194   5.279
 6185TIP3    H118498   1.885   5.201   5.292
 6185TIP3    H218499   1.753   5.239   5.355
 6186TIP3   OH218500   4.870   2.278   4.386
 6186TIP3    H118501   4.856   2.371   4.372
 6186TIP3    H218502   4.942   2.274   4.449
 6187TIP3   OH218503   2.423   4.989   3.625
 6187TIP3    H118504   2.381   4.996   3.711
 6187TIP3    H218505   2.370   4.925   3.578
 6188TIP3   OH218506   1.471   1.393   6.678
 6188TIP3    H118507   1.385   1.431   6.659
 6188TIP3    H218508   1.460   1.299   6.663
 6189TIP3   OH218509   7.874   4.183   2.272
 6189TIP3    H118510   7.891   4.274   2.297
 6189TIP3    H218511   7.932   4.167   2.198
 6190TIP3   OH218512   0.315   0.662   6.144
 6190TIP3    H118513   0.309   0.669   6.239
 6190TIP3    H218514   0.390   0.605   6.129
 6191TIP3   OH218515   1.475   6.761   5.388
 6191TIP3    H118516   1.428   6.678   5.378
 6191TIP3    H218517   1.519   6.774   5.304
 6192TIP3   OH218518   3.949   0.556   5.643
 6192TIP3    H118519   4.031   0.508   5.640
 6192TIP3    H218520   3.935   0.586   5.553
 6193TIP3   OH218521   8.156   4.835   0.104
 6193TIP3    H118522   8.123   4.816   0.192
 6193TIP3    H218523   8.230   4.774   0.093
 6194TIP3   OH218524   3.347   6.854   4.133
 6194TIP3    H118525   3.332   6.763   4.106
 6194TIP3    H218526   3.433   6.852   4.176
 6195TIP3   OH218527   1.303   3.955   4.610
 6195TIP3    H118528   1.380   3.941   4.666
 6195TIP3    H218529   1.239   3.996   4.667
 6196TIP3   OH218530   6.266   1.694   1.569
 6196TIP3    H118531   6.191   1.652   1.609
 6196TIP3    H218532   6.296   1.757   1.634
 6197TIP3   OH218533   4.117   0.375   4.725
 6197TIP3    H118534   4.119   0.423   4.808
 6197TIP3    H218535   4.104   0.443   4.659
 6198TIP3   OH218536   3.884   2.715   1.448
 6198TIP3    H118537   3.916   2.636   1.493
 6198TIP3    H218538   3.791   2.698   1.433
 6199TIP3   OH218539   4.283   3.088   5.870
 6199TIP3    H118540   4.217   3.019   5.866
 6199TIP3    H218541   4.349   3.054   5.931
 6200TIP3   OH218542   2.337   7.271   1.512
 6200TIP3    H118543   2.272   7.290   1.580
 6200TIP3    H218544   2.386   7.352   1.503
 6201TIP3   OH218545   2.961   3.369   0.817
 6201TIP3    H118546   2.926   3.458   0.812
 6201TIP3    H218547   2.898   3.323   0.873
 6202TIP3   OH218548   7.022   4.256   0.476
 6202TIP3    H118549   7.001   4.333   0.527
 6202TIP3    H218550   6.939   4.210   0.465
 6203TIP3   OH218551   6.056   3.160   4.254
 6203TIP3    H118552   6.041   3.253   4.273
 6203TIP3    H218553   6.020   3.146   4.167
 6204TIP3   OH218554   0.860   0.892   6.314
 6204TIP3    H118555   0.817   0.943   6.383
 6204TIP3    H218556   0.953   0.908   6.327
 6205TIP3   OH218557   5.246   4.371   3.864
 6205TIP3    H118558   5.246   4.336   3.954
 6205TIP3    H218559   5.175   4.324   3.821
 6206TIP3   OH218560   4.527   3.063   1.396
 6206TIP3    H118561   4.586   2.993   1.367
 6206TIP3    H218562   4.501   3.037   1.484
 6207TIP3   OH218563   0.460   7.395   1.206
 6207TIP3    H118564   0.391   7.381   1.141
 6207TIP3    H218565   0.503   7.310   1.214
 6208TIP3   OH218566   3.991   1.878   6.258
 6208TIP3    H118567   4.036   1.867   6.342
 6208TIP3    H218568   3.928   1.948   6.273
 6209TIP3   OH218569   5.844   6.407   3.927
 6209TIP3    H118570   5.934   6.381   3.909
 6209TIP3    H218571   5.796   6.324   3.933
 6210TIP3   OH218572   3.370   6.409   5.509
 6210TIP3    H118573   3.360   6.481   5.447
 6210TIP3    H218574   3.450   6.364   5.480
 6211TIP3   OH218575   4.145   6.968   2.706
 6211TIP3    H118576   4.154   6.998   2.616
 6211TIP3    H218577   4.159   7.047   2.759
 6212TIP3   OH218578   7.676   4.521   1.450
 6212TIP3    H118579   7.680   4.535   1.545
 6212TIP3    H218580   7.615   4.448   1.440
 6213TIP3   OH218581   1.253   6.732   6.492
 6213TIP3    H118582   1.184   6.692   6.545
 6213TIP3    H218583   1.224   6.719   6.402
 6214TIP3   OH218584   3.526   7.618   2.785
 6214TIP3    H118585   3.585   7.558   2.830
 6214TIP3    H218586   3.440   7.575   2.789
 6215TIP3   OH218587   7.913   4.430   1.345
 6215TIP3    H118588   7.935   4.504   1.289
 6215TIP3    H218589   7.834   4.457   1.391
 6216TIP3   OH218590   6.545   4.496   4.381
 6216TIP3    H118591   6.596   4.555   4.436
 6216TIP3    H218592   6.609   4.453   4.325
 6217TIP3   OH218593   3.265   1.213   0.249
 6217TIP3    H118594   3.170   1.222   0.260
 6217TIP3    H218595   3.282   1.120   0.266
 6218TIP3   OH218596   1.539   3.122   2.915
 6218TIP3    H118597   1.521   3.195   2.856
 6218TIP3    H218598   1.527   3.044   2.861
 6219TIP3   OH218599   8.126   1.030   0.906
 6219TIP3    H118600   8.108   1.113   0.862
 6219TIP3    H218601   8.216   1.039   0.938
 6220TIP3   OH218602   0.549   2.400   1.299
 6220TIP3    H118603   0.540   2.396   1.394
 6220TIP3    H218604   0.596   2.319   1.277
 6221TIP3   OH218605   6.795   3.158   3.504
 6221TIP3    H118606   6.783   3.244   3.465
 6221TIP3    H218607   6.879   3.127   3.470
 6222TIP3   OH218608   6.803   1.306   5.172
 6222TIP3    H118609   6.866   1.235   5.176
 6222TIP3    H218610   6.857   1.385   5.167
 6223TIP3   OH218611   7.750   0.984   6.687
 6223TIP3    H118612   7.784   1.051   6.746
 6223TIP3    H218613   7.663   0.963   6.723
 6224TIP3   OH218614   5.046   3.322   6.726
 6224TIP3    H118615   4.953   3.335   6.747
 6224TIP3    H218616   5.045   3.254   6.658
 6225TIP3   OH218617   2.071   4.361   6.209
 6225TIP3    H118618   2.050   4.335   6.119
 6225TIP3    H218619   1.990   4.346   6.257
 6226TIP3   OH218620   4.974   5.825   0.330
 6226TIP3    H118621   5.022   5.790   0.405
 6226TIP3    H218622   4.960   5.748   0.274
 6227TIP3   OH218623   6.521   0.671   2.993
 6227TIP3    H118624   6.442   0.715   3.023
 6227TIP3    H218625   6.552   0.622   3.069
 6228TIP3   OH218626   5.036   2.566   4.234
 6228TIP3    H118627   4.982   2.571   4.313
 6228TIP3    H218628   5.103   2.633   4.246
 6229TIP3   OH218629   1.905   2.149   0.020
 6229TIP3    H118630   1.892   2.176   0.111
 6229TIP3    H218631   2.000   2.137   0.012
 6230TIP3   OH218632   3.658   1.783   3.746
 6230TIP3    H118633   3.649   1.688   3.751
 6230TIP3    H218634   3.745   1.797   3.708
 6231TIP3   OH218635   8.213   0.693   2.738
 6231TIP3    H118636   8.294   0.717   2.782
 6231TIP3    H218637   8.186   0.772   2.692
 6232TIP3   OH218638   5.915   5.438   1.163
 6232TIP3    H118639   5.828   5.456   1.198
 6232TIP3    H218640   5.965   5.406   1.238
 6233TIP3   OH218641   6.197   1.624   6.158
 6233TIP3    H118642   6.131   1.685   6.124
 6233TIP3    H218643   6.279   1.673   6.154
 6234TIP3   OH218644   0.848   4.751   4.689
 6234TIP3    H118645   0.835   4.712   4.775
 6234TIP3    H218646   0.842   4.846   4.704
 6235TIP3   OH218647   0.066   0.164   3.584
 6235TIP3    H118648  -0.001   0.215   3.537
 6235TIP3    H218649   0.139   0.158   3.522
 6236TIP3   OH218650   7.698   4.069   0.913
 6236TIP3    H118651   7.646   3.995   0.882
 6236TIP3    H218652   7.789   4.040   0.905
 6237TIP3   OH218653   0.680   3.148   4.157
 6237TIP3    H118654   0.738   3.074   4.142
 6237TIP3    H218655   0.687   3.165   4.251
 6238TIP3   OH218656   2.729   7.335   6.451
 6238TIP3    H118657   2.670   7.288   6.510
 6238TIP3    H218658   2.802   7.274   6.437
 6239TIP3   OH218659   6.429   0.912   1.929
 6239TIP3    H118660   6.505   0.860   1.903
 6239TIP3    H218661   6.449   0.940   2.019
 6240TIP3   OH218662   0.494   2.493   2.730
 6240TIP3    H118663   0.481   2.418   2.789
 6240TIP3    H218664   0.566   2.542   2.770
 6241TIP3   OH218665   7.390   0.660   3.098
 6241TIP3    H118666   7.352   0.747   3.112
 6241TIP3    H218667   7.485   0.674   3.107
 6242TIP3   OH218668   7.973   5.194   0.980
 6242TIP3    H118669   7.940   5.219   0.893
 6242TIP3    H218670   8.057   5.238   0.987
 6243TIP3   OH218671   5.443   1.901   2.187
 6243TIP3    H118672   5.352   1.920   2.210
 6243TIP3    H218673   5.443   1.808   2.162
 6244TIP3   OH218674   1.119   0.438   3.023
 6244TIP3    H118675   1.134   0.532   3.007
 6244TIP3    H218676   1.036   0.419   2.980
 6245TIP3   OH218677   0.936   5.378   4.533
 6245TIP3    H118678   0.918   5.459   4.581
 6245TIP3    H218679   1.006   5.401   4.472
 6246TIP3   OH218680   0.014   4.028   0.524
 6246TIP3    H118681   0.074   4.080   0.578
 6246TIP3    H218682  -0.026   4.090   0.464
 6247TIP3   OH218683   6.944   0.264   5.969
 6247TIP3    H118684   7.012   0.331   5.976
 6247TIP3    H218685   6.980   0.199   5.909
 6248TIP3   OH218686   6.689   3.203   5.504
 6248TIP3    H118687   6.658   3.185   5.415
 6248TIP3    H218688   6.626   3.159   5.560
 6249TIP3   OH218689   7.191   6.078   0.953
 6249TIP3    H118690   7.118   6.138   0.937
 6249TIP3    H218691   7.150   6.002   0.996
 6250TIP3   OH218692   5.852   1.600   2.088
 6250TIP3    H118693   5.817   1.595   1.999
 6250TIP3    H218694   5.916   1.672   2.085
 6251TIP3   OH218695   0.484   5.673   3.209
 6251TIP3    H118696   0.406   5.642   3.162
 6251TIP3    H218697   0.452   5.696   3.297
 6252TIP3   OH218698   3.129   3.426   0.543
 6252TIP3    H118699   3.116   3.333   0.529
 6252TIP3    H218700   3.130   3.437   0.638
 6253TIP3   OH218701   2.563   1.886   5.755
 6253TIP3    H118702   2.472   1.899   5.780
 6253TIP3    H218703   2.614   1.922   5.828
 6254TIP3   OH218704   3.548   7.154   3.144
 6254TIP3    H118705   3.546   7.060   3.163
 6254TIP3    H218706   3.460   7.185   3.167
 6255TIP3   OH218707   1.549   5.244   4.245
 6255TIP3    H118708   1.577   5.176   4.306
 6255TIP3    H218709   1.628   5.297   4.231
 6256TIP3   OH218710   8.124   3.278   3.908
 6256TIP3    H118711   8.119   3.197   3.857
 6256TIP3    H218712   8.063   3.264   3.980
 6257TIP3   OH218713   1.274   4.418   3.867
 6257TIP3    H118714   1.182   4.396   3.880
 6257TIP3    H218715   1.316   4.334   3.849
 6258TIP3   OH218716   5.347   6.015   5.609
 6258TIP3    H118717   5.388   5.961   5.676
 6258TIP3    H218718   5.367   6.105   5.634
 6259TIP3   OH218719   6.452   6.250   3.641
 6259TIP3    H118720   6.377   6.193   3.659
 6259TIP3    H218721   6.445   6.320   3.705
 6260TIP3   OH218722   7.041   5.349   6.544
 6260TIP3    H118723   6.965   5.359   6.487
 6260TIP3    H218724   7.007   5.367   6.632
 6261TIP3   OH218725   1.906   1.874   5.806
 6261TIP3    H118726   1.811   1.874   5.821
 6261TIP3    H218727   1.919   1.939   5.736
 6262TIP3   OH218728   7.325   1.061   2.853
 6262TIP3    H118729   7.326   1.007   2.932
 6262TIP3    H218730   7.362   1.145   2.882
 6263TIP3   OH218731   0.716   0.870   1.303
 6263TIP3    H118732   0.701   0.814   1.379
 6263TIP3    H218733   0.802   0.910   1.320
 6264TIP3   OH218734   1.764   0.142   6.354
 6264TIP3    H118735   1.748   0.229   6.318
 6264TIP3    H218736   1.706   0.136   6.429
 6265TIP3   OH218737   2.427   0.215   0.058
 6265TIP3    H118738   2.366   0.246   0.124
 6265TIP3    H218739   2.431   0.120   0.071
 6266TIP3   OH218740   6.117   4.156   1.563
 6266TIP3    H118741   6.065   4.142   1.484
 6266TIP3    H218742   6.054   4.156   1.634
 6267TIP3   OH218743   2.968   4.287   0.607
 6267TIP3    H118744   2.884   4.264   0.646
 6267TIP3    H218745   2.967   4.245   0.521
 6268TIP3   OH218746   5.549   6.916   1.695
 6268TIP3    H118747   5.525   7.005   1.721
 6268TIP3    H218748   5.533   6.914   1.600
 6269TIP3   OH218749   2.720   4.716   3.986
 6269TIP3    H118750   2.739   4.719   4.080
 6269TIP3    H218751   2.806   4.704   3.945
 6270TIP3   OH218752   0.599   1.614   5.904
 6270TIP3    H118753   0.567   1.524   5.895
 6270TIP3    H218754   0.688   1.605   5.938
 6271TIP3   OH218755   7.321   4.762   3.898
 6271TIP3    H118756   7.300   4.681   3.852
 6271TIP3    H218757   7.238   4.790   3.936
 6272TIP3   OH218758   6.664   4.522   4.813
 6272TIP3    H118759   6.745   4.528   4.762
 6272TIP3    H218760   6.674   4.589   4.881
 6273TIP3   OH218761   1.767   6.883   4.929
 6273TIP3    H118762   1.813   6.846   4.854
 6273TIP3    H218763   1.674   6.879   4.905
 6274TIP3   OH218764   1.336   0.431   1.089
 6274TIP3    H118765   1.396   0.496   1.125
 6274TIP3    H218766   1.273   0.414   1.160
 6275TIP3   OH218767   1.697   3.269   2.070
 6275TIP3    H118768   1.617   3.316   2.043
 6275TIP3    H218769   1.677   3.238   2.159
 6276TIP3   OH218770   2.493   1.715   3.183
 6276TIP3    H118771   2.558   1.732   3.114
 6276TIP3    H218772   2.445   1.638   3.152
 6277TIP3   OH218773   7.430   0.896   0.946
 6277TIP3    H118774   7.336   0.901   0.966
 6277TIP3    H218775   7.437   0.824   0.883
 6278TIP3   OH218776   2.549   4.856   3.397
 6278TIP3    H118777   2.536   4.761   3.394
 6278TIP3    H218778   2.504   4.885   3.476
 6279TIP3   OH218779   1.906   5.272   0.949
 6279TIP3    H118780   1.931   5.230   0.867
 6279TIP3    H218781   1.918   5.204   1.015
 6280TIP3   OH218782   2.656   5.394   4.368
 6280TIP3    H118783   2.575   5.347   4.389
 6280TIP3    H218784   2.692   5.419   4.453
 6281TIP3   OH218785   5.483   3.037   1.700
 6281TIP3    H118786   5.481   2.981   1.623
 6281TIP3    H218787   5.441   2.985   1.769
 6282TIP3   OH218788   1.427   3.532   0.024
 6282TIP3    H118789   1.481   3.456   0.007
 6282TIP3    H218790   1.387   3.514   0.110
 6283TIP3   OH218791   2.938   1.428   1.863
 6283TIP3    H118792   2.872   1.359   1.852
 6283TIP3    H218793   2.940   1.472   1.778
 6284TIP3   OH218794   3.967   6.995   3.587
 6284TIP3    H118795   3.963   7.077   3.539
 6284TIP3    H218796   3.924   6.932   3.529
 6285TIP3   OH218797   4.468   2.883   5.236
 6285TIP3    H118798   4.516   2.806   5.206
 6285TIP3    H218799   4.422   2.914   5.158
 6286TIP3   OH218800   5.910   1.073   2.339
 6286TIP3    H118801   5.957   1.047   2.419
 6286TIP3    H218802   5.936   1.007   2.275
 6287TIP3   OH218803   0.842   5.865   1.046
 6287TIP3    H118804   0.923   5.853   1.095
 6287TIP3    H218805   0.840   5.794   0.983
 6288TIP3   OH218806   3.760   6.355   0.388
 6288TIP3    H118807   3.743   6.277   0.441
 6288TIP3    H218808   3.856   6.359   0.381
 6289TIP3   OH218809   5.126   1.902   1.624
 6289TIP3    H118810   5.097   1.993   1.632
 6289TIP3    H218811   5.107   1.879   1.533
 6290TIP3   OH218812   0.171   7.408   3.992
 6290TIP3    H118813   0.232   7.341   4.022
 6290TIP3    H218814   0.102   7.408   4.058
 6291TIP3   OH218815   3.487   7.322   4.541
 6291TIP3    H118816   3.518   7.405   4.578
 6291TIP3    H218817   3.567   7.272   4.527
 6292TIP3   OH218818   7.370   1.484   3.717
 6292TIP3    H118819   7.443   1.486   3.656
 6292TIP3    H218820   7.351   1.576   3.736
 6293TIP3   OH218821   1.321   2.233   5.860
 6293TIP3    H118822   1.287   2.315   5.895
 6293TIP3    H218823   1.341   2.252   5.769
 6294TIP3   OH218824   4.699   2.793   2.447
 6294TIP3    H118825   4.671   2.876   2.484
 6294TIP3    H218826   4.781   2.772   2.493
 6295TIP3   OH218827   0.510   1.255   6.514
 6295TIP3    H118828   0.461   1.206   6.447
 6295TIP3    H218829   0.464   1.339   6.520
 6296TIP3   OH218830   5.328   1.461   3.348
 6296TIP3    H118831   5.339   1.514   3.426
 6296TIP3    H218832   5.325   1.524   3.276
 6297TIP3   OH218833   6.438   5.771   4.798
 6297TIP3    H118834   6.422   5.839   4.863
 6297TIP3    H218835   6.526   5.739   4.817
 6298TIP3   OH218836   3.312   1.449   1.630
 6298TIP3    H118837   3.367   1.380   1.595
 6298TIP3    H218838   3.363   1.530   1.618
 6299TIP3   OH218839   3.803   1.035   4.398
 6299TIP3    H118840   3.737   1.099   4.370
 6299TIP3    H218841   3.886   1.083   4.394
 6300TIP3   OH218842   2.216   6.245   1.417
 6300TIP3    H118843   2.184   6.155   1.408
 6300TIP3    H218844   2.309   6.241   1.396
 6301TIP3   OH218845   3.005   6.956   0.661
 6301TIP3    H118846   3.033   7.036   0.616
 6301TIP3    H218847   3.069   6.890   0.635
 6302TIP3   OH218848   5.142   1.775   5.357
 6302TIP3    H118849   5.231   1.766   5.323
 6302TIP3    H218850   5.108   1.853   5.313
 6303TIP3   OH218851   1.085   0.114   4.743
 6303TIP3    H118852   1.103   0.026   4.710
 6303TIP3    H218853   1.033   0.155   4.674
 6304TIP3   OH218854   1.101   0.421   5.373
 6304TIP3    H118855   1.167   0.449   5.437
 6304TIP3    H218856   1.102   0.489   5.306
 6305TIP3   OH218857   4.429   4.658   1.484
 6305TIP3    H118858   4.479   4.577   1.488
 6305TIP3    H218859   4.342   4.631   1.454
 6306TIP3   OH218860   4.897   6.589   4.239
 6306TIP3    H118861   4.878   6.602   4.332
 6306TIP3    H218862   4.811   6.572   4.199
 6307TIP3   OH218863   0.725   3.298   6.037
 6307TIP3    H118864   0.665   3.246   5.984
 6307TIP3    H218865   0.673   3.326   6.112
 6308TIP3   OH218866   0.909   2.040   0.986
 6308TIP3    H118867   0.968   1.980   1.031
 6308TIP3    H218868   0.914   2.121   1.037
 6309TIP3   OH218869   3.657   2.640   5.250
 6309TIP3    H118870   3.720   2.673   5.187
 6309TIP3    H218871   3.708   2.582   5.307
 6310TIP3   OH218872   4.725   7.297   6.385
 6310TIP3    H118873   4.761   7.377   6.346
 6310TIP3    H218874   4.760   7.297   6.474
 6311TIP3   OH218875   3.956   6.806   6.196
 6311TIP3    H118876   4.017   6.851   6.137
 6311TIP3    H218877   3.914   6.877   6.245
 6312TIP3   OH218878   0.190   5.042   3.128
 6312TIP3    H118879   0.115   4.988   3.105
 6312TIP3    H218880   0.206   5.024   3.221
 6313TIP3   OH218881   5.483   3.100   4.385
 6313TIP3    H118882   5.561   3.142   4.422
 6313TIP3    H218883   5.511   3.067   4.300
 6314TIP3   OH218884   0.172   4.174   5.581
 6314TIP3    H118885   0.246   4.151   5.526
 6314TIP3    H218886   0.193   4.137   5.667
 6315TIP3   OH218887   3.485   3.831   3.860
 6315TIP3    H118888   3.414   3.850   3.799
 6315TIP3    H218889   3.538   3.911   3.862
 6316TIP3   OH218890   6.005   2.583   1.753
 6316TIP3    H118891   6.063   2.628   1.693
 6316TIP3    H218892   6.013   2.631   1.835
 6317TIP3   OH218893   0.302   3.410   6.368
 6317TIP3    H118894   0.351   3.390   6.448
 6317TIP3    H218895   0.316   3.503   6.353
 6318TIP3   OH218896   5.742   2.520   6.661
 6318TIP3    H118897   5.747   2.425   6.650
 6318TIP3    H218898   5.819   2.542   6.713
 6319TIP3   OH218899   1.152   5.199   3.897
 6319TIP3    H118900   1.162   5.294   3.905
 6319TIP3    H218901   1.200   5.163   3.971
 6320TIP3   OH218902   6.540   5.644   3.498
 6320TIP3    H118903   6.570   5.558   3.526
 6320TIP3    H218904   6.446   5.644   3.515
 6321TIP3   OH218905   2.923   0.296   0.637
 6321TIP3    H118906   2.946   0.207   0.664
 6321TIP3    H218907   2.890   0.286   0.547
 6322TIP3   OH218908   7.313   7.356   6.279
 6322TIP3    H118909   7.229   7.390   6.248
 6322TIP3    H218910   7.354   7.321   6.200
 6323TIP3   OH218911   5.180   4.465   1.390
 6323TIP3    H118912   5.145   4.545   1.428
 6323TIP3    H218913   5.122   4.446   1.316
 6324TIP3   OH218914   3.636   5.090   3.912
 6324TIP3    H118915   3.664   5.165   3.964
 6324TIP3    H218916   3.543   5.104   3.898
 6325TIP3   OH218917   6.645   6.525   1.208
 6325TIP3    H118918   6.668   6.450   1.152
 6325TIP3    H218919   6.557   6.550   1.181
 6326TIP3   OH218920   0.132   5.650   4.568
 6326TIP3    H118921   0.108   5.578   4.626
 6326TIP3    H218922   0.094   5.626   4.483
 6327TIP3   OH218923   7.611   0.533   1.529
 6327TIP3    H118924   7.648   0.620   1.542
 6327TIP3    H218925   7.603   0.525   1.434
 6328TIP3   OH218926   3.323   3.053   1.796
 6328TIP3    H118927   3.418   3.057   1.784
 6328TIP3    H218928   3.288   3.105   1.724
 6329TIP3   OH218929   3.625   1.810   5.056
 6329TIP3    H118930   3.560   1.746   5.085
 6329TIP3    H218931   3.581   1.895   5.067
 6330TIP3   OH218932   2.131   3.825   5.020
 6330TIP3    H118933   2.179   3.893   5.068
 6330TIP3    H218934   2.085   3.776   5.088
 6331TIP3   OH218935   6.940   2.168   4.927
 6331TIP3    H118936   6.937   2.082   4.969
 6331TIP3    H218937   6.901   2.155   4.841
 6332TIP3   OH218938   1.014   7.229   3.336
 6332TIP3    H118939   1.005   7.225   3.431
 6332TIP3    H218940   0.986   7.142   3.306
 6333TIP3   OH218941   5.914   2.609   5.709
 6333TIP3    H118942   5.907   2.516   5.730
 6333TIP3    H218943   6.005   2.621   5.684
 6334TIP3   OH218944   2.496   1.231   2.046
 6334TIP3    H118945   2.490   1.141   2.015
 6334TIP3    H218946   2.406   1.255   2.068
 6335TIP3   OH218947   6.195   0.795   1.395
 6335TIP3    H118948   6.132   0.866   1.407
 6335TIP3    H218949   6.233   0.811   1.308
 6336TIP3   OH218950   1.522   3.244   6.594
 6336TIP3    H118951   1.547   3.178   6.658
 6336TIP3    H218952   1.434   3.218   6.566
 6337TIP3   OH218953   1.841   5.253   3.706
 6337TIP3    H118954   1.795   5.331   3.676
 6337TIP3    H218955   1.930   5.284   3.725
 6338TIP3   OH218956   2.068   6.971   2.767
 6338TIP3    H118957   2.111   7.049   2.800
 6338TIP3    H218958   2.073   6.979   2.672
 6339TIP3   OH218959   5.147   3.867   5.356
 6339TIP3    H118960   5.179   3.780   5.380
 6339TIP3    H218961   5.136   3.864   5.261
 6340TIP3   OH218962   5.751   2.072   5.931
 6340TIP3    H118963   5.762   1.977   5.932
 6340TIP3    H218964   5.701   2.090   5.852
 6341TIP3   OH218965   2.551   1.603   5.777
 6341TIP3    H118966   2.636   1.560   5.768
 6341TIP3    H218967   2.567   1.693   5.751
 6342TIP3   OH218968   4.377   7.162   4.211
 6342TIP3    H118969   4.298   7.119   4.243
 6342TIP3    H218970   4.413   7.101   4.147
 6343TIP3   OH218971   0.537   3.555   2.270
 6343TIP3    H118972   0.494   3.599   2.196
 6343TIP3    H218973   0.539   3.621   2.339
 6344TIP3   OH218974   0.624   6.424   3.720
 6344TIP3    H118975   0.656   6.510   3.745
 6344TIP3    H218976   0.665   6.406   3.635
 6345TIP3   OH218977   4.938   6.218   4.631
 6345TIP3    H118978   5.027   6.251   4.633
 6345TIP3    H218979   4.946   6.123   4.641
 6346TIP3   OH218980   2.268   3.835   3.249
 6346TIP3    H118981   2.270   3.904   3.315
 6346TIP3    H218982   2.329   3.864   3.181
 6347TIP3   OH218983   7.181   5.443   1.065
 6347TIP3    H118984   7.101   5.477   1.105
 6347TIP3    H218985   7.232   5.408   1.138
 6348TIP3   OH218986   7.751   1.867   3.945
 6348TIP3    H118987   7.766   1.849   3.852
 6348TIP3    H218988   7.663   1.833   3.962
 6349TIP3   OH218989   6.783   6.943   6.589
 6349TIP3    H118990   6.806   6.890   6.665
 6349TIP3    H218991   6.863   6.992   6.568
 6350TIP3   OH218992   2.823   1.161   6.506
 6350TIP3    H118993   2.830   1.112   6.588
 6350TIP3    H218994   2.741   1.131   6.466
 6351TIP3   OH218995   8.143   7.027   0.413
 6351TIP3    H118996   8.181   7.092   0.472
 6351TIP3    H218997   8.135   7.072   0.329
 6352TIP3   OH218998  -0.038   7.059   3.674
 6352TIP3    H118999   0.008   7.097   3.600
 6352TIP3    H219000   0.019   7.075   3.749
 6353TIP3   OH219001   2.270   0.865   0.395
 6353TIP3    H119002   2.224   0.887   0.477
 6353TIP3    H219003   2.252   0.772   0.382
 6354TIP3   OH219004   2.773   3.047   6.212
 6354TIP3    H119005   2.778   2.954   6.234
 6354TIP3    H219006   2.679   3.067   6.216
 6355TIP3   OH219007   4.857   0.232   5.461
 6355TIP3    H119008   4.862   0.297   5.532
 6355TIP3    H219009   4.908   0.158   5.493
 6356TIP3   OH219010   3.845   2.438   2.682
 6356TIP3    H119011   3.882   2.444   2.594
 6356TIP3    H219012   3.913   2.472   2.739
 6357TIP3   OH219013   0.513   1.088   1.310
 6357TIP3    H119014   0.430   1.135   1.302
 6357TIP3    H219015   0.574   1.152   1.345
 6358TIP3   OH219016   5.548   7.452   1.887
 6358TIP3    H119017   5.569   7.544   1.871
 6358TIP3    H219018   5.583   7.406   1.811
 6359TIP3   OH219019   4.586   1.297   3.210
 6359TIP3    H119020   4.578   1.384   3.249
 6359TIP3    H219021   4.535   1.240   3.267
 6360TIP3   OH219022   5.914   2.101   5.247
 6360TIP3    H119023   6.004   2.132   5.237
 6360TIP3    H219024   5.903   2.035   5.178
 6361TIP3   OH219025   6.935   3.103   0.436
 6361TIP3    H119026   6.849   3.145   0.439
 6361TIP3    H219027   6.916   3.009   0.441
 6362TIP3   OH219028   4.532   3.412   2.888
 6362TIP3    H119029   4.605   3.430   2.946
 6362TIP3    H219030   4.572   3.380   2.808
 6363TIP3   OH219031   5.051   1.947   3.476
 6363TIP3    H119032   5.076   1.902   3.396
 6363TIP3    H219033   4.966   1.986   3.457
 6364TIP3   OH219034   4.652   0.865   4.857
 6364TIP3    H119035   4.697   0.801   4.801
 6364TIP3    H219036   4.632   0.816   4.937
 6365TIP3   OH219037   0.598   3.173   1.782
 6365TIP3    H119038   0.660   3.229   1.828
 6365TIP3    H219039   0.522   3.167   1.840
 6366TIP3   OH219040   2.777   4.101   4.570
 6366TIP3    H119041   2.795   4.016   4.531
 6366TIP3    H219042   2.850   4.116   4.631
 6367TIP3   OH219043   2.113   0.691   2.691
 6367TIP3    H119044   2.173   0.736   2.631
 6367TIP3    H219045   2.096   0.756   2.760
 6368TIP3   OH219046   3.619   1.617   4.701
 6368TIP3    H119047   3.541   1.634   4.648
 6368TIP3    H219048   3.672   1.697   4.693
 6369TIP3   OH219049   1.591   6.401   5.594
 6369TIP3    H119050   1.612   6.392   5.501
 6369TIP3    H219051   1.579   6.495   5.607
 6370TIP3   OH219052   3.894   5.511   3.817
 6370TIP3    H119053   3.849   5.461   3.886
 6370TIP3    H219054   3.891   5.602   3.848
 6371TIP3   OH219055   2.894   5.850   3.474
 6371TIP3    H119056   2.947   5.818   3.547
 6371TIP3    H219057   2.840   5.776   3.449
 6372TIP3   OH219058  -0.036   0.396   2.566
 6372TIP3    H119059  -0.045   0.490   2.584
 6372TIP3    H219060   0.058   0.379   2.572
 6373TIP3   OH219061   7.008   4.299   3.981
 6373TIP3    H119062   7.087   4.339   3.944
 6373TIP3    H219063   6.951   4.285   3.905
 6374TIP3   OH219064   7.551   0.176   4.740
 6374TIP3    H119065   7.467   0.196   4.782
 6374TIP3    H219066   7.533   0.099   4.686
 6375TIP3   OH219067   3.445   0.120   2.676
 6375TIP3    H119068   3.501   0.163   2.611
 6375TIP3    H219069   3.506   0.079   2.737
 6376TIP3   OH219070   0.548   7.070   1.888
 6376TIP3    H119071   0.630   7.070   1.937
 6376TIP3    H219072   0.520   7.161   1.888
 6377TIP3   OH219073   6.408   0.891   5.753
 6377TIP3    H119074   6.329   0.836   5.754
 6377TIP3    H219075   6.422   0.911   5.661
 6378TIP3   OH219076   7.443   0.083   3.431
 6378TIP3    H119077   7.486   0.163   3.400
 6378TIP3    H219078   7.352   0.094   3.403
 6379TIP3   OH219079   1.126   4.808   6.610
 6379TIP3    H119080   1.090   4.720   6.615
 6379TIP3    H219081   1.210   4.802   6.655
 6380TIP3   OH219082   4.449   5.149   5.991
 6380TIP3    H119083   4.419   5.152   6.082
 6380TIP3    H219084   4.512   5.221   5.985
 6381TIP3   OH219085   6.667   1.631   3.759
 6381TIP3    H119086   6.619   1.591   3.687
 6381TIP3    H219087   6.707   1.709   3.721
 6382TIP3   OH219088   5.418   2.078   4.432
 6382TIP3    H119089   5.330   2.049   4.455
 6382TIP3    H219090   5.475   2.032   4.493
 6383TIP3   OH219091   1.427   1.955   3.406
 6383TIP3    H119092   1.482   1.984   3.479
 6383TIP3    H219093   1.350   2.012   3.411
 6384TIP3   OH219094   0.115   1.594   0.385
 6384TIP3    H119095   0.162   1.522   0.428
 6384TIP3    H219096   0.027   1.559   0.370
 6385TIP3   OH219097   0.709   5.182   2.071
 6385TIP3    H119098   0.709   5.253   2.136
 6385TIP3    H219099   0.768   5.212   2.003
 6386TIP3   OH219100   6.717   1.602   2.190
 6386TIP3    H119101   6.729   1.572   2.280
 6386TIP3    H219102   6.739   1.526   2.136
 6387TIP3   OH219103   6.145   3.141   3.676
 6387TIP3    H119104   6.097   3.059   3.662
 6387TIP3    H219105   6.177   3.166   3.590
 6388TIP3   OH219106   7.078   7.693   4.282
 6388TIP3    H119107   7.003   7.647   4.244
 6388TIP3    H219108   7.093   7.649   4.365
 6389TIP3   OH219109   4.054   5.122   2.065
 6389TIP3    H119110   3.974   5.092   2.107
 6389TIP3    H219111   4.102   5.042   2.043
 6390TIP3   OH219112   0.647   2.353   3.829
 6390TIP3    H119113   0.657   2.396   3.914
 6390TIP3    H219114   0.727   2.301   3.819
 6391TIP3   OH219115   7.692   0.474   3.418
 6391TIP3    H119116   7.661   0.464   3.328
 6391TIP3    H219117   7.698   0.568   3.431
 6392TIP3   OH219118   1.983   3.262   2.137
 6392TIP3    H119119   1.899   3.228   2.167
 6392TIP3    H219120   1.965   3.294   2.049
 6393TIP3   OH219121   1.960   5.989   3.572
 6393TIP3    H119122   1.876   6.025   3.543
 6393TIP3    H219123   2.025   6.030   3.514
 6394TIP3   OH219124   1.746   0.897   2.912
 6394TIP3    H119125   1.832   0.878   2.949
 6394TIP3    H219126   1.700   0.945   2.981
 6395TIP3   OH219127   5.385   6.037   2.150
 6395TIP3    H119128   5.372   6.131   2.164
 6395TIP3    H219129   5.457   6.032   2.088
 6396TIP3   OH219130   6.954   2.304   5.677
 6396TIP3    H119131   7.007   2.321   5.600
 6396TIP3    H219132   6.906   2.224   5.656
 6397TIP3   OH219133   6.673   1.336   4.520
 6397TIP3    H119134   6.653   1.251   4.560
 6397TIP3    H219135   6.686   1.316   4.428
 6398TIP3   OH219136   3.147   6.882   0.967
 6398TIP3    H119137   3.157   6.815   0.899
 6398TIP3    H219138   3.104   6.955   0.923
 6399TIP3   OH219139   1.136   7.633   0.865
 6399TIP3    H119140   1.176   7.555   0.904
 6399TIP3    H219141   1.062   7.599   0.815
 6400TIP3   OH219142   6.787   3.397   0.758
 6400TIP3    H119143   6.800   3.429   0.848
 6400TIP3    H219144   6.804   3.474   0.703
 6401TIP3   OH219145   5.072   4.014   2.652
 6401TIP3    H119146   4.989   3.970   2.637
 6401TIP3    H219147   5.050   4.108   2.647
 6402TIP3   OH219148   0.490   6.195   3.507
 6402TIP3    H119149   0.438   6.218   3.430
 6402TIP3    H219150   0.453   6.248   3.578
 6403TIP3   OH219151   1.628   1.368   6.448
 6403TIP3    H119152   1.577   1.410   6.518
 6403TIP3    H219153   1.692   1.434   6.423
 6404TIP3   OH219154   5.520   1.662   4.788
 6404TIP3    H119155   5.583   1.590   4.778
 6404TIP3    H219156   5.570   1.741   4.768
 6405TIP3   OH219157   7.780   7.613   3.173
 6405TIP3    H119158   7.725   7.535   3.183
 6405TIP3    H219159   7.722   7.686   3.198
 6406TIP3   OH219160   6.061   5.475   2.555
 6406TIP3    H119161   6.150   5.441   2.566
 6406TIP3    H219162   6.024   5.422   2.484
 6407TIP3   OH219163   2.237   2.501   4.091
 6407TIP3    H119164   2.190   2.584   4.094
 6407TIP3    H219165   2.298   2.505   4.164
 6408TIP3   OH219166   6.436   6.228   5.637
 6408TIP3    H119167   6.365   6.231   5.701
 6408TIP3    H219168   6.393   6.246   5.553
 6409TIP3   OH219169   0.863   1.854   4.592
 6409TIP3    H119170   0.771   1.879   4.586
 6409TIP3    H219171   0.910   1.929   4.556
 6410TIP3   OH219172   3.082   0.005   0.248
 6410TIP3    H119173   3.147   0.065   0.286
 6410TIP3    H219174   3.001   0.027   0.293
 6411TIP3   OH219175   4.967   1.333   1.342
 6411TIP3    H119176   4.908   1.404   1.317
 6411TIP3    H219177   5.051   1.376   1.359
 6412TIP3   OH219178   0.858   1.415   3.283
 6412TIP3    H119179   0.773   1.413   3.327
 6412TIP3    H219180   0.895   1.328   3.298
 6413TIP3   OH219181   3.814   5.718   0.822
 6413TIP3    H119182   3.846   5.803   0.853
 6413TIP3    H219183   3.816   5.662   0.900
 6414TIP3   OH219184   4.856   6.638   4.521
 6414TIP3    H119185   4.928   6.576   4.533
 6414TIP3    H219186   4.785   6.604   4.576
 6415TIP3   OH219187   4.679   4.143   2.796
 6415TIP3    H119188   4.662   4.191   2.716
 6415TIP3    H219189   4.721   4.061   2.767
 6416TIP3   OH219190   1.022   4.622   0.804
 6416TIP3    H119191   0.934   4.587   0.815
 6416TIP3    H219192   1.038   4.617   0.710
 6417TIP3   OH219193   3.389   6.562   2.909
 6417TIP3    H119194   3.309   6.530   2.868
 6417TIP3    H219195   3.400   6.508   2.987
 6418TIP3   OH219196   6.611  -0.015   2.151
 6418TIP3    H119197   6.682   0.045   2.172
 6418TIP3    H219198   6.554   0.035   2.093
 6419TIP3   OH219199   0.851   2.679   0.663
 6419TIP3    H119200   0.801   2.598   0.670
 6419TIP3    H219201   0.862   2.709   0.753
 6420TIP3   OH219202   2.001   0.309   2.849
 6420TIP3    H119203   2.055   0.313   2.771
 6420TIP3    H219204   1.930   0.249   2.826
 6421TIP3   OH219205   2.155   3.934   0.065
 6421TIP3    H119206   2.060   3.945   0.069
 6421TIP3    H219207   2.173   3.914  -0.027
 6422TIP3   OH219208   4.568   3.468   0.980
 6422TIP3    H119209   4.647   3.436   1.024
 6422TIP3    H219210   4.510   3.495   1.051
 6423TIP3   OH219211   6.504   7.331   3.108
 6423TIP3    H119212   6.454   7.324   3.189
 6423TIP3    H219213   6.544   7.418   3.112
 6424TIP3   OH219214   2.874   1.956   1.352
 6424TIP3    H119215   2.932   1.934   1.425
 6424TIP3    H219216   2.851   1.872   1.314
 6425TIP3   OH219217   8.261   1.518   0.025
 6425TIP3    H119218   8.217   1.575   0.089
 6425TIP3    H219219   8.227   1.431   0.044
 6426TIP3   OH219220   0.148   5.639   1.796
 6426TIP3    H119221   0.214   5.707   1.807
 6426TIP3    H219222   0.101   5.662   1.717
 6427TIP3   OH219223   2.874   7.025   2.083
 6427TIP3    H119224   2.806   7.022   2.150
 6427TIP3    H219225   2.889   6.934   2.059
 6428TIP3   OH219226   7.296   7.647   5.593
 6428TIP3    H119227   7.317   7.586   5.522
 6428TIP3    H219228   7.291   7.733   5.551
 6429TIP3   OH219229   7.228   1.105   5.465
 6429TIP3    H119230   7.292   1.045   5.426
 6429TIP3    H219231   7.250   1.190   5.429
 6430TIP3   OH219232   1.829   3.492   4.545
 6430TIP3    H119233   1.740   3.458   4.559
 6430TIP3    H219234   1.817   3.563   4.481
 6431TIP3   OH219235   7.229   3.259   4.244
 6431TIP3    H119236   7.194   3.339   4.283
 6431TIP3    H219237   7.186   3.253   4.159
 6432TIP3   OH219238   3.705   2.524   4.800
 6432TIP3    H119239   3.781   2.519   4.857
 6432TIP3    H219240   3.739   2.555   4.716
 6433TIP3   OH219241   2.246   5.978   1.313
 6433TIP3    H119242   2.314   5.966   1.248
 6433TIP3    H219243   2.267   5.916   1.383
 6434TIP3   OH219244   3.795   1.390   4.141
 6434TIP3    H119245   3.826   1.300   4.152
 6434TIP3    H219246   3.710   1.380   4.097
 6435TIP3   OH219247   1.228   5.739   4.194
 6435TIP3    H119248   1.317   5.720   4.163
 6435TIP3    H219249   1.180   5.765   4.116
 6436TIP3   OH219250   5.088   4.745   4.538
 6436TIP3    H119251   5.156   4.794   4.491
 6436TIP3    H219252   5.124   4.657   4.547
 6437TIP3   OH219253   3.461   6.145   6.060
 6437TIP3    H119254   3.430   6.166   5.971
 6437TIP3    H219255   3.463   6.049   6.062
 6438TIP3   OH219256   6.444   5.612   3.941
 6438TIP3    H119257   6.491   5.579   4.017
 6438TIP3    H219258   6.508   5.667   3.895
 6439TIP3   OH219259   3.941   0.166   4.957
 6439TIP3    H119260   3.899   0.089   4.921
 6439TIP3    H219261   4.019   0.178   4.903
 6440TIP3   OH219262   5.866   0.930   0.993
 6440TIP3    H119263   5.889   0.936   0.900
 6440TIP3    H219264   5.898   0.845   1.020
 6441TIP3   OH219265   2.849   0.773   3.514
 6441TIP3    H119266   2.868   0.847   3.572
 6441TIP3    H219267   2.767   0.737   3.548
 6442TIP3   OH219268   5.478   2.095   0.958
 6442TIP3    H119269   5.530   2.146   0.896
 6442TIP3    H219270   5.403   2.064   0.908
 6443TIP3   OH219271   2.673   6.951   6.489
 6443TIP3    H119272   2.697   7.010   6.417
 6443TIP3    H219273   2.664   6.865   6.449
 6444TIP3   OH219274   7.815   1.717   5.309
 6444TIP3    H119275   7.882   1.748   5.249
 6444TIP3    H219276   7.848   1.741   5.396
 6445TIP3   OH219277   1.799   5.761   3.220
 6445TIP3    H119278   1.773   5.798   3.135
 6445TIP3    H219279   1.895   5.759   3.217
 6446TIP3   OH219280   1.825   2.262   5.690
 6446TIP3    H119281   1.751   2.210   5.660
 6446TIP3    H219282   1.805   2.352   5.664
 6447TIP3   OH219283   4.075   0.285   5.795
 6447TIP3    H119284   4.086   0.376   5.822
 6447TIP3    H219285   4.063   0.237   5.877
 6448TIP3   OH219286   5.763   5.676   6.705
 6448TIP3    H119287   5.740   5.618   6.632
 6448TIP3    H219288   5.846   5.643   6.738
 6449TIP3   OH219289   1.106   4.647   0.522
 6449TIP3    H119290   1.159   4.717   0.484
 6449TIP3    H219291   1.133   4.568   0.476
 6450TIP3   OH219292   1.231   5.402   1.972
 6450TIP3    H119293   1.241   5.332   1.907
 6450TIP3    H219294   1.290   5.378   2.043
 6451TIP3   OH219295   2.038   7.140   0.279
 6451TIP3    H119296   1.982   7.084   0.225
 6451TIP3    H219297   1.976   7.196   0.327
 6452TIP3   OH219298   1.468   2.453   0.942
 6452TIP3    H119299   1.441   2.362   0.937
 6452TIP3    H219300   1.431   2.494   0.864
 6453TIP3   OH219301   7.446   2.031   3.495
 6453TIP3    H119302   7.389   2.103   3.468
 6453TIP3    H219303   7.439   2.029   3.591
 6454TIP3   OH219304   7.578   4.621   1.696
 6454TIP3    H119305   7.506   4.651   1.640
 6454TIP3    H219306   7.552   4.534   1.724
 6455TIP3   OH219307   1.625   5.407   6.551
 6455TIP3    H119308   1.613   5.476   6.616
 6455TIP3    H219309   1.537   5.394   6.514
 6456TIP3   OH219310   4.344   5.425   1.514
 6456TIP3    H119311   4.266   5.382   1.549
 6456TIP3    H219312   4.319   5.518   1.506
 6457TIP3   OH219313   3.571   5.340   1.973
 6457TIP3    H119314   3.567   5.276   2.043
 6457TIP3    H219315   3.632   5.407   2.004
 6458TIP3   OH219316   2.227   0.520   4.987
 6458TIP3    H119317   2.169   0.528   4.912
 6458TIP3    H219318   2.315   0.518   4.949
 6459TIP3   OH219319   0.828   3.650   5.682
 6459TIP3    H119320   0.775   3.571   5.697
 6459TIP3    H219321   0.887   3.653   5.758
 6460TIP3   OH219322   3.829   0.851   4.159
 6460TIP3    H119323   3.878   0.890   4.087
 6460TIP3    H219324   3.793   0.925   4.208
 6461TIP3   OH219325   5.997   4.099   2.464
 6461TIP3    H119326   5.917   4.150   2.478
 6461TIP3    H219327   6.042   4.145   2.393
 6462TIP3   OH219328   3.789   4.398   1.077
 6462TIP3    H119329   3.823   4.463   1.139
 6462TIP3    H219330   3.696   4.389   1.100
 6463TIP3   OH219331   6.575   4.416   5.260
 6463TIP3    H119332   6.534   4.420   5.174
 6463TIP3    H219333   6.568   4.324   5.287
 6464TIP3   OH219334   5.502   5.631   1.246
 6464TIP3    H119335   5.409   5.613   1.242
 6464TIP3    H219336   5.508   5.727   1.253
 6465TIP3   OH219337   7.600   6.983   1.877
 6465TIP3    H119338   7.559   7.069   1.873
 6465TIP3    H219339   7.689   7.000   1.909
 6466TIP3   OH219340   2.609   0.369   3.419
 6466TIP3    H119341   2.538   0.320   3.460
 6466TIP3    H219342   2.600   0.351   3.325
 6467TIP3   OH219343   0.853   0.021   1.902
 6467TIP3    H119344   0.825  -0.021   1.820
 6467TIP3    H219345   0.774   0.064   1.935
 6468TIP3   OH219346   5.211   1.565   5.966
 6468TIP3    H119347   5.125   1.544   5.929
 6468TIP3    H219348   5.192   1.633   6.032
 6469TIP3   OH219349   5.253   7.265   6.195
 6469TIP3    H119350   5.184   7.200   6.180
 6469TIP3    H219351   5.317   7.248   6.126
 6470TIP3   OH219352   4.883   6.455   6.552
 6470TIP3    H119353   4.880   6.360   6.559
 6470TIP3    H219354   4.808   6.486   6.603
 6471TIP3   OH219355   5.976   5.439   6.585
 6471TIP3    H119356   5.960   5.348   6.611
 6471TIP3    H219357   6.040   5.433   6.513
 6472TIP3   OH219358   3.585   0.485   1.675
 6472TIP3    H119359   3.504   0.515   1.717
 6472TIP3    H219360   3.607   0.404   1.720
 6473TIP3   OH219361   1.645   2.544   5.826
 6473TIP3    H119362   1.600   2.530   5.909
 6473TIP3    H219363   1.575   2.551   5.762
 6474TIP3   OH219364   5.034   3.210   1.879
 6474TIP3    H119365   5.120   3.251   1.895
 6474TIP3    H219366   5.051   3.116   1.886
 6475TIP3   OH219367   4.763   1.343   5.501
 6475TIP3    H119368   4.766   1.285   5.577
 6475TIP3    H219369   4.841   1.397   5.508
 6476TIP3   OH219370   2.849   1.414   6.445
 6476TIP3    H119371   2.848   1.322   6.470
 6476TIP3    H219372   2.934   1.426   6.401
 6477TIP3   OH219373   6.033   4.823   1.377
 6477TIP3    H119374   6.034   4.786   1.466
 6477TIP3    H219375   6.117   4.797   1.339
 6478TIP3   OH219376   2.778   1.226   5.283
 6478TIP3    H119377   2.809   1.202   5.371
 6478TIP3    H219378   2.698   1.175   5.271
 6479TIP3   OH219379   0.094   6.341   2.808
 6479TIP3    H119380   0.146   6.377   2.735
 6479TIP3    H219381   0.032   6.282   2.766
 6480TIP3   OH219382   5.880   5.911   1.045
 6480TIP3    H119383   5.933   5.835   1.070
 6480TIP3    H219384   5.868   5.901   0.950
 6481TIP3   OH219385   2.635   2.939   5.310
 6481TIP3    H119386   2.689   2.900   5.241
 6481TIP3    H219387   2.698   2.978   5.371
 6482TIP3   OH219388   3.429   0.091   6.125
 6482TIP3    H119389   3.510   0.078   6.175
 6482TIP3    H219390   3.447   0.054   6.039
 6483TIP3   OH219391   3.636   6.253   0.990
 6483TIP3    H119392   3.545   6.283   0.987
 6483TIP3    H219393   3.664   6.271   1.080
 6484TIP3   OH219394   2.420   1.178   1.212
 6484TIP3    H119395   2.496   1.193   1.156
 6484TIP3    H219396   2.455   1.138   1.291
 6485TIP3   OH219397   4.320   2.248   4.915
 6485TIP3    H119398   4.376   2.314   4.873
 6485TIP3    H219399   4.296   2.286   4.999
 6486TIP3   OH219400   3.362   1.659   5.747
 6486TIP3    H119401   3.406   1.575   5.765
 6486TIP3    H219402   3.273   1.635   5.723
 6487TIP3   OH219403   5.482   5.140   6.504
 6487TIP3    H119404   5.460   5.064   6.449
 6487TIP3    H219405   5.508   5.101   6.588
 6488TIP3   OH219406   0.187   5.699   6.097
 6488TIP3    H119407   0.219   5.689   6.187
 6488TIP3    H219408   0.162   5.610   6.072
 6489TIP3   OH219409   3.418   1.560   3.013
 6489TIP3    H119410   3.432   1.553   2.919
 6489TIP3    H219411   3.323   1.572   3.022
 6490TIP3   OH219412   7.840   2.187   6.091
 6490TIP3    H119413   7.876   2.134   6.021
 6490TIP3    H219414   7.890   2.269   6.088
 6491TIP3   OH219415   8.026   2.622   2.461
 6491TIP3    H119416   8.103   2.570   2.485
 6491TIP3    H219417   8.011   2.601   2.369
 6492TIP3   OH219418   6.077   2.713   0.034
 6492TIP3    H119419   6.007   2.744   0.092
 6492TIP3    H219420   6.158   2.743   0.076
 6493TIP3   OH219421   1.598   4.597   0.819
 6493TIP3    H119422   1.684   4.582   0.860
 6493TIP3    H219423   1.540   4.617   0.892
 6494TIP3   OH219424   4.381   3.837   0.145
 6494TIP3    H119425   4.380   3.875   0.058
 6494TIP3    H219426   4.292   3.848   0.178
 6495TIP3   OH219427   3.367   2.646   2.066
 6495TIP3    H119428   3.435   2.713   2.060
 6495TIP3    H219429   3.295   2.689   2.112
 6496TIP3   OH219430   4.639   7.374   2.507
 6496TIP3    H119431   4.552   7.354   2.473
 6496TIP3    H219432   4.679   7.430   2.441
 6497TIP3   OH219433   0.732   6.871   2.359
 6497TIP3    H119434   0.746   6.795   2.416
 6497TIP3    H219435   0.818   6.885   2.318
 6498TIP3   OH219436   3.201   1.004   0.436
 6498TIP3    H119437   3.107   0.990   0.452
 6498TIP3    H219438   3.245   0.951   0.503
 6499TIP3   OH219439   2.677   0.677   1.026
 6499TIP3    H119440   2.628   0.615   0.972
 6499TIP3    H219441   2.753   0.700   0.972
 6500TIP3   OH219442   7.980   7.134   5.368
 6500TIP3    H119443   8.024   7.077   5.431
 6500TIP3    H219444   7.932   7.074   5.311
 6501TIP3   OH219445   7.012   7.767   5.697
 6501TIP3    H119446   6.988   7.806   5.613
 6501TIP3    H219447   7.076   7.700   5.673
 6502TIP3   OH219448   5.180   1.900   2.287
 6502TIP3    H119449   5.205   1.966   2.352
 6502TIP3    H219450   5.197   1.816   2.330
 6503TIP3   OH219451   5.012   4.269   1.746
 6503TIP3    H119452   5.099   4.309   1.735
 6503TIP3    H219453   5.019   4.183   1.703
 6504TIP3   OH219454   4.857   2.068   5.110
 6504TIP3    H119455   4.837   2.128   5.038
 6504TIP3    H219456   4.779   2.069   5.164
 6505TIP3   OH219457   2.322   5.733   2.588
 6505TIP3    H119458   2.245   5.681   2.610
 6505TIP3    H219459   2.342   5.783   2.668
 6506TIP3   OH219460   5.644   4.187   5.087
 6506TIP3    H119461   5.702   4.169   5.013
 6506TIP3    H219462   5.680   4.135   5.159
 6507TIP3   OH219463   4.453   1.632   6.739
 6507TIP3    H119464   4.372   1.681   6.753
 6507TIP3    H219465   4.498   1.680   6.669
 6508TIP3   OH219466   0.925   0.612   2.381
 6508TIP3    H119467   0.956   0.643   2.296
 6508TIP3    H219468   0.969   0.669   2.444
 6509TIP3   OH219469   1.316   5.356   6.513
 6509TIP3    H119470   1.294   5.263   6.521
 6509TIP3    H219471   1.276   5.383   6.430
 6510TIP3   OH219472   2.962   4.300   5.466
 6510TIP3    H119473   2.904   4.349   5.524
 6510TIP3    H219474   2.943   4.208   5.485
 6511TIP3   OH219475   5.286   3.965   3.609
 6511TIP3    H119476   5.215   3.901   3.621
 6511TIP3    H219477   5.353   3.938   3.672
 6512TIP3   OH219478   4.630   6.138   4.840
 6512TIP3    H119479   4.651   6.046   4.856
 6512TIP3    H219480   4.596   6.140   4.750
 6513TIP3   OH219481   1.956   1.622   2.609
 6513TIP3    H119482   1.909   1.600   2.529
 6513TIP3    H219483   2.048   1.602   2.589
 6514TIP3   OH219484   0.601   4.955   5.827
 6514TIP3    H119485   0.640   4.876   5.865
 6514TIP3    H219486   0.670   5.021   5.831
 6515TIP3   OH219487   4.527   6.454   6.077
 6515TIP3    H119488   4.520   6.549   6.068
 6515TIP3    H219489   4.471   6.420   6.007
 6516TIP3   OH219490   8.072   4.371   5.208
 6516TIP3    H119491   8.132   4.381   5.134
 6516TIP3    H219492   8.072   4.277   5.225
 6517TIP3   OH219493   1.216   0.740   6.649
 6517TIP3    H119494   1.135   0.690   6.636
 6517TIP3    H219495   1.188   0.831   6.652
 6518TIP3   OH219496   5.885   1.595   6.007
 6518TIP3    H119497   5.801   1.578   6.051
 6518TIP3    H219498   5.862   1.607   5.915
 6519TIP3   OH219499   2.866   7.647   1.684
 6519TIP3    H119500   2.821   7.623   1.765
 6519TIP3    H219501   2.938   7.703   1.712
 6520TIP3   OH219502   2.492   6.325   4.865
 6520TIP3    H119503   2.424   6.258   4.875
 6520TIP3    H219504   2.574   6.278   4.880
 6521TIP3   OH219505   4.132   3.684   0.365
 6521TIP3    H119506   4.061   3.655   0.422
 6521TIP3    H219507   4.161   3.604   0.321
 6522TIP3   OH219508   7.429   0.259   5.926
 6522TIP3    H119509   7.514   0.291   5.894
 6522TIP3    H219510   7.390   0.215   5.851
 6523TIP3   OH219511   1.377   4.073   5.183
 6523TIP3    H119512   1.326   4.147   5.149
 6523TIP3    H219513   1.314   4.025   5.238
 6524TIP3   OH219514   7.422   7.421   5.120
 6524TIP3    H119515   7.414   7.387   5.209
 6524TIP3    H219516   7.421   7.516   5.130
 6525TIP3   OH219517   8.276   0.923   1.391
 6525TIP3    H119518   8.309   1.012   1.381
 6525TIP3    H219519   8.202   0.917   1.330
 6526TIP3   OH219520   5.179   1.185   4.019
 6526TIP3    H119521   5.137   1.161   4.102
 6526TIP3    H219522   5.106   1.214   3.963
 6527TIP3   OH219523   8.034   1.704   5.529
 6527TIP3    H119524   7.955   1.726   5.579
 6527TIP3    H219525   8.106   1.717   5.592
 6528TIP3   OH219526   6.570   7.102   0.891
 6528TIP3    H119527   6.644   7.159   0.868
 6528TIP3    H219528   6.496   7.138   0.843
 6529TIP3   OH219529   5.261   1.260   0.313
 6529TIP3    H119530   5.324   1.276   0.243
 6529TIP3    H219531   5.283   1.172   0.346
 6530TIP3   OH219532   0.068   5.648   5.809
 6530TIP3    H119533   0.128   5.599   5.752
 6530TIP3    H219534   0.066   5.597   5.890
 6531TIP3   OH219535   5.465   5.981   1.227
 6531TIP3    H119536   5.415   6.048   1.274
 6531TIP3    H219537   5.553   5.986   1.266
 6532TIP3   OH219538   0.016   4.560   3.112
 6532TIP3    H119539   0.028   4.592   3.022
 6532TIP3    H219540   0.060   4.624   3.167
 6533TIP3   OH219541   4.394   2.392   2.965
 6533TIP3    H119542   4.413   2.321   2.903
 6533TIP3    H219543   4.357   2.348   3.041
 6534TIP3   OH219544   2.712   6.404   4.284
 6534TIP3    H119545   2.715   6.375   4.375
 6534TIP3    H219546   2.795   6.374   4.246
 6535TIP3   OH219547   2.783   3.404   1.287
 6535TIP3    H119548   2.779   3.484   1.235
 6535TIP3    H219549   2.872   3.371   1.273
 6536TIP3   OH219550   0.979   5.577   1.912
 6536TIP3    H119551   0.980   5.665   1.950
 6536TIP3    H219552   1.043   5.528   1.963
 6537TIP3   OH219553   1.758   3.815   2.788
 6537TIP3    H119554   1.733   3.803   2.879
 6537TIP3    H219555   1.844   3.774   2.781
 6538TIP3   OH219556   2.680   2.079   3.050
 6538TIP3    H119557   2.712   2.158   3.093
 6538TIP3    H219558   2.674   2.103   2.957
 6539TIP3   OH219559   0.860   3.755   0.875
 6539TIP3    H119560   0.855   3.701   0.796
 6539TIP3    H219561   0.901   3.836   0.846
 6540TIP3   OH219562   8.148   6.319   2.622
 6540TIP3    H119563   8.145   6.226   2.646
 6540TIP3    H219564   8.062   6.353   2.648
 6541TIP3   OH219565   7.820   0.262   4.682
 6541TIP3    H119566   7.850   0.335   4.735
 6541TIP3    H219567   7.739   0.233   4.725
 6542TIP3   OH219568   3.007   4.589   0.758
 6542TIP3    H119569   3.102   4.603   0.755
 6542TIP3    H219570   2.984   4.563   0.669
 6543TIP3   OH219571   8.117   0.117   4.264
 6543TIP3    H119572   8.166   0.035   4.252
 6543TIP3    H219573   8.127   0.137   4.357
 6544TIP3   OH219574   7.893   3.262   2.367
 6544TIP3    H119575   7.898   3.280   2.461
 6544TIP3    H219576   7.815   3.208   2.357
 6545TIP3   OH219577   4.773   3.369   4.991
 6545TIP3    H119578   4.698   3.400   4.940
 6545TIP3    H219579   4.782   3.277   4.967
 6546TIP3   OH219580   1.406   5.052   3.782
 6546TIP3    H119581   1.312   5.058   3.767
 6546TIP3    H219582   1.440   5.136   3.752
 6547TIP3   OH219583   1.683   4.204   5.226
 6547TIP3    H119584   1.683   4.196   5.131
 6547TIP3    H219585   1.650   4.120   5.257
 6548TIP3   OH219586   3.970   2.006   1.577
 6548TIP3    H119587   4.047   1.953   1.553
 6548TIP3    H219588   3.939   2.042   1.494
 6549TIP3   OH219589   6.975   2.874   1.862
 6549TIP3    H119590   6.901   2.828   1.901
 6549TIP3    H219591   6.951   2.967   1.868
 6550TIP3   OH219592   6.639   1.884   3.614
 6550TIP3    H119593   6.641   1.977   3.590
 6550TIP3    H219594   6.567   1.848   3.562
 6551TIP3   OH219595   0.866   1.226   0.148
 6551TIP3    H119596   0.873   1.133   0.127
 6551TIP3    H219597   0.957   1.255   0.158
 6552TIP3   OH219598   1.752   0.942   0.200
 6552TIP3    H119599   1.832   0.990   0.223
 6552TIP3    H219600   1.784   0.862   0.157
 6553TIP3   OH219601   1.588   0.480   2.572
 6553TIP3    H119602   1.681   0.478   2.550
 6553TIP3    H219603   1.585   0.460   2.665
 6554TIP3   OH219604   7.437   1.591   3.216
 6554TIP3    H119605   7.504   1.636   3.267
 6554TIP3    H219606   7.395   1.532   3.278
 6555TIP3   OH219607   7.906   4.072   6.178
 6555TIP3    H119608   7.921   3.983   6.209
 6555TIP3    H219609   7.873   4.060   6.089
 6556TIP3   OH219610   6.618   5.078   0.353
 6556TIP3    H119611   6.699   5.125   0.373
 6556TIP3    H219612   6.643   4.986   0.352
 6557TIP3   OH219613   2.432   6.725   3.507
 6557TIP3    H119614   2.432   6.810   3.463
 6557TIP3    H219615   2.361   6.731   3.571
 6558TIP3   OH219616   4.778   3.762   3.685
 6558TIP3    H119617   4.773   3.837   3.627
 6558TIP3    H219618   4.770   3.686   3.627
 6559TIP3   OH219619   2.928   1.338   2.850
 6559TIP3    H119620   2.938   1.379   2.936
 6559TIP3    H219621   2.934   1.410   2.788
 6560TIP3   OH219622   3.856   3.151   4.555
 6560TIP3    H119623   3.797   3.215   4.516
 6560TIP3    H219624   3.836   3.069   4.510
 6561TIP3   OH219625   6.056   7.037   4.804
 6561TIP3    H119626   5.964   7.032   4.827
 6561TIP3    H219627   6.098   6.967   4.855
 6562TIP3   OH219628   3.341   0.737   2.126
 6562TIP3    H119629   3.310   0.718   2.215
 6562TIP3    H219630   3.316   0.828   2.110
 6563TIP3   OH219631   6.839   5.526   3.851
 6563TIP3    H119632   6.818   5.434   3.865
 6563TIP3    H219633   6.762   5.574   3.881
 6564TIP3   OH219634   2.426   3.954   5.758
 6564TIP3    H119635   2.368   3.949   5.682
 6564TIP3    H219636   2.469   3.868   5.761
 6565TIP3   OH219637   6.596   6.938   5.127
 6565TIP3    H119638   6.658   6.886   5.178
 6565TIP3    H219639   6.648   7.008   5.088
 6566TIP3   OH219640   7.453   5.932   2.781
 6566TIP3    H119641   7.369   5.971   2.758
 6566TIP3    H219642   7.450   5.924   2.876
 6567TIP3   OH219643   6.487   6.470   2.496
 6567TIP3    H119644   6.546   6.422   2.554
 6567TIP3    H219645   6.538   6.484   2.416
 6568TIP3   OH219646   1.854   4.917   2.420
 6568TIP3    H119647   1.874   4.963   2.502
 6568TIP3    H219648   1.922   4.850   2.413
 6569TIP3   OH219649   2.484   7.080   5.589
 6569TIP3    H119650   2.568   7.066   5.633
 6569TIP3    H219651   2.444   6.993   5.585
 6570TIP3   OH219652   0.238   0.296   1.652
 6570TIP3    H119653   0.254   0.202   1.640
 6570TIP3    H219654   0.232   0.331   1.563
 6571TIP3   OH219655   2.748   5.627   0.611
 6571TIP3    H119656   2.694   5.701   0.585
 6571TIP3    H219657   2.715   5.553   0.559
 6572TIP3   OH219658   3.228   0.857   5.030
 6572TIP3    H119659   3.207   0.777   5.078
 6572TIP3    H219660   3.180   0.850   4.948
 6573TIP3   OH219661   6.327   3.119   6.436
 6573TIP3    H119662   6.398   3.068   6.475
 6573TIP3    H219663   6.250   3.061   6.441
 6574TIP3   OH219664   1.932   6.105   2.568
 6574TIP3    H119665   2.019   6.074   2.591
 6574TIP3    H219666   1.901   6.044   2.501
 6575TIP3   OH219667   0.110   3.243   3.985
 6575TIP3    H119668   0.016   3.252   3.999
 6575TIP3    H219669   0.132   3.309   3.919
 6576TIP3   OH219670   6.220   0.179   0.132
 6576TIP3    H119671   6.184   0.149   0.048
 6576TIP3    H219672   6.148   0.172   0.194
 6577TIP3   OH219673   6.188   2.392   1.228
 6577TIP3    H119674   6.139   2.469   1.257
 6577TIP3    H219675   6.278   2.422   1.219
 6578TIP3   OH219676   5.399   7.772   3.592
 6578TIP3    H119677   5.417   7.781   3.499
 6578TIP3    H219678   5.461   7.832   3.634
 6579TIP3   OH219679   5.536   1.438   0.768
 6579TIP3    H119680   5.611   1.406   0.718
 6579TIP3    H219681   5.564   1.435   0.859
 6580TIP3   OH219682   2.955   4.030   3.730
 6580TIP3    H119683   2.889   4.002   3.794
 6580TIP3    H219684   2.947   3.968   3.658
 6581TIP3   OH219685   5.467   4.523   5.706
 6581TIP3    H119686   5.539   4.463   5.687
 6581TIP3    H219687   5.402   4.506   5.637
 6582TIP3   OH219688   7.253   5.292   4.051
 6582TIP3    H119689   7.304   5.353   4.103
 6582TIP3    H219690   7.302   5.210   4.054
 6583TIP3   OH219691   5.541   6.737   1.894
 6583TIP3    H119692   5.559   6.812   1.838
 6583TIP3    H219693   5.570   6.765   1.981
 6584TIP3   OH219694   7.857   4.495   5.316
 6584TIP3    H119695   7.853   4.582   5.276
 6584TIP3    H219696   7.947   4.467   5.301
 6585TIP3   OH219697   0.469   1.216   3.296
 6585TIP3    H119698   0.545   1.250   3.343
 6585TIP3    H219699   0.397   1.272   3.323
 6586TIP3   OH219700   2.833   2.154   0.593
 6586TIP3    H119701   2.856   2.074   0.546
 6586TIP3    H219702   2.799   2.213   0.526
 6587TIP3   OH219703   5.557   0.273   5.904
 6587TIP3    H119704   5.542   0.302   5.815
 6587TIP3    H219705   5.603   0.345   5.946
 6588TIP3   OH219706   3.307   4.258   6.021
 6588TIP3    H119707   3.334   4.350   6.017
 6588TIP3    H219708   3.266   4.241   5.936
 6589TIP3   OH219709   3.954   2.928   0.509
 6589TIP3    H119710   4.025   2.864   0.505
 6589TIP3    H219711   3.919   2.931   0.419
 6590TIP3   OH219712   2.950   0.191   6.464
 6590TIP3    H119713   3.023   0.148   6.419
 6590TIP3    H219714   2.941   0.276   6.420
 6591TIP3   OH219715   7.427   6.154   0.441
 6591TIP3    H119716   7.351   6.111   0.481
 6591TIP3    H219717   7.451   6.223   0.502
 6592TIP3   OH219718   4.246   5.233   0.609
 6592TIP3    H119719   4.275   5.144   0.626
 6592TIP3    H219720   4.187   5.226   0.534
 6593TIP3   OH219721   5.066   6.823   2.959
 6593TIP3    H119722   5.004   6.882   2.915
 6593TIP3    H219723   5.037   6.735   2.934
 6594TIP3   OH219724   7.161   1.724   0.669
 6594TIP3    H119725   7.151   1.766   0.754
 6594TIP3    H219726   7.072   1.709   0.639
 6595TIP3   OH219727   3.010   1.928   1.903
 6595TIP3    H119728   2.977   2.013   1.873
 6595TIP3    H219729   2.937   1.890   1.952
 6596TIP3   OH219730   2.211   5.450   0.844
 6596TIP3    H119731   2.227   5.517   0.910
 6596TIP3    H219732   2.198   5.370   0.893
 6597TIP3   OH219733   1.590   6.837   2.675
 6597TIP3    H119734   1.564   6.749   2.649
 6597TIP3    H219735   1.603   6.884   2.592
 6598TIP3   OH219736   4.386   0.403   3.546
 6598TIP3    H119737   4.407   0.492   3.518
 6598TIP3    H219738   4.408   0.402   3.640
 6599TIP3   OH219739   1.106   6.274   0.562
 6599TIP3    H119740   1.180   6.261   0.622
 6599TIP3    H219741   1.033   6.299   0.620
 6600TIP3   OH219742   2.949   0.876   2.546
 6600TIP3    H119743   2.986   0.929   2.616
 6600TIP3    H219744   2.987   0.911   2.466
 6601TIP3   OH219745   7.840   0.255   0.495
 6601TIP3    H119746   7.820   0.346   0.477
 6601TIP3    H219747   7.850   0.251   0.591
 6602TIP3   OH219748   4.589   5.588   2.947
 6602TIP3    H119749   4.628   5.666   2.910
 6602TIP3    H219750   4.652   5.558   3.013
 6603TIP3   OH219751   0.531   2.102   6.459
 6603TIP3    H119752   0.523   2.088   6.365
 6603TIP3    H219753   0.509   2.194   6.471
 6604TIP3   OH219754   4.644   2.259   5.622
 6604TIP3    H119755   4.587   2.201   5.672
 6604TIP3    H219756   4.684   2.202   5.556
 6605TIP3   OH219757   1.701   7.675   0.036
 6605TIP3    H119758   1.786   7.691   0.078
 6605TIP3    H219759   1.695   7.743  -0.031
 6606TIP3   OH219760   3.767   1.861   1.456
 6606TIP3    H119761   3.733   1.776   1.483
 6606TIP3    H219762   3.829   1.885   1.525
 6607TIP3   OH219763   6.147   3.444   2.097
 6607TIP3    H119764   6.098   3.510   2.047
 6607TIP3    H219765   6.235   3.446   2.058
 6608TIP3   OH219766   3.627   1.509   3.719
 6608TIP3    H119767   3.607   1.452   3.645
 6608TIP3    H219768   3.600   1.460   3.796
 6609TIP3   OH219769   6.899   6.264   5.042
 6609TIP3    H119770   6.925   6.173   5.054
 6609TIP3    H219771   6.866   6.291   5.128
 6610TIP3   OH219772   5.143   3.256   3.147
 6610TIP3    H119773   5.205   3.302   3.204
 6610TIP3    H219774   5.081   3.323   3.119
 6611TIP3   OH219775   3.034   6.696   1.192
 6611TIP3    H119776   3.089   6.665   1.264
 6611TIP3    H219777   3.089   6.756   1.142
 6612TIP3   OH219778   5.080   3.119   2.514
 6612TIP3    H119779   5.063   3.024   2.513
 6612TIP3    H219780   4.994   3.159   2.524
 6613TIP3   OH219781   2.795   7.526   2.309
 6613TIP3    H119782   2.713   7.498   2.268
 6613TIP3    H219783   2.792   7.488   2.397
 6614TIP3   OH219784   0.729   7.373   4.057
 6614TIP3    H119785   0.686   7.458   4.053
 6614TIP3    H219786   0.801   7.385   4.119
 6615TIP3   OH219787   1.659   6.206   2.389
 6615TIP3    H119788   1.693   6.178   2.305
 6615TIP3    H219789   1.678   6.300   2.392
 6616TIP3   OH219790   6.891   0.163   1.202
 6616TIP3    H119791   6.812   0.168   1.148
 6616TIP3    H219792   6.957   0.209   1.150
 6617TIP3   OH219793   7.172   0.585   4.402
 6617TIP3    H119794   7.208   0.668   4.433
 6617TIP3    H219795   7.232   0.558   4.332
 6618TIP3   OH219796   0.784   7.451   4.995
 6618TIP3    H119797   0.763   7.536   4.956
 6618TIP3    H219798   0.876   7.436   4.973
 6619TIP3   OH219799   2.856   7.834   0.731
 6619TIP3    H119800   2.801   7.756   0.720
 6619TIP3    H219801   2.812   7.885   0.799
 6620TIP3   OH219802   4.727   5.810   2.857
 6620TIP3    H119803   4.795   5.798   2.791
 6620TIP3    H219804   4.697   5.900   2.845
 6621TIP3   OH219805   0.284   5.139   0.430
 6621TIP3    H119806   0.312   5.224   0.463
 6621TIP3    H219807   0.336   5.126   0.350
 6622TIP3   OH219808   3.024   5.201   0.208
 6622TIP3    H119809   3.117   5.206   0.189
 6622TIP3    H219810   2.981   5.223   0.125
 6623TIP3   OH219811   2.866   2.181   6.019
 6623TIP3    H119812   2.929   2.236   6.067
 6623TIP3    H219813   2.780   2.211   6.049
 6624TIP3   OH219814   0.140   3.557   2.117
 6624TIP3    H119815   0.090   3.553   2.199
 6624TIP3    H219816   0.137   3.468   2.082
 6625TIP3   OH219817   8.016   0.619   5.849
 6625TIP3    H119818   7.941   0.675   5.870
 6625TIP3    H219819   8.013   0.549   5.915
 6626TIP3   OH219820   6.217   3.051   3.084
 6626TIP3    H119821   6.246   3.141   3.069
 6626TIP3    H219822   6.234   3.036   3.177
 6627TIP3   OH219823   7.476   2.600   0.750
 6627TIP3    H119824   7.492   2.636   0.663
 6627TIP3    H219825   7.497   2.508   0.742
 6628TIP3   OH219826   3.057   3.919   5.379
 6628TIP3    H119827   3.130   3.915   5.441
 6628TIP3    H219828   2.981   3.937   5.433
 6629TIP3   OH219829   3.883   3.971   1.101
 6629TIP3    H119830   3.791   3.965   1.078
 6629TIP3    H219831   3.919   3.884   1.084
 6630TIP3   OH219832   2.750   6.629   6.037
 6630TIP3    H119833   2.767   6.584   5.954
 6630TIP3    H219834   2.709   6.712   6.012
 6631TIP3   OH219835   1.100   3.324   0.094
 6631TIP3    H119836   1.015   3.280   0.089
 6631TIP3    H219837   1.086   3.394   0.158
 6632TIP3   OH219838   4.140   2.685   0.773
 6632TIP3    H119839   4.065   2.711   0.719
 6632TIP3    H219840   4.178   2.768   0.801
 6633TIP3   OH219841   6.026   7.514   1.125
 6633TIP3    H119842   6.089   7.450   1.158
 6633TIP3    H219843   6.062   7.599   1.151
 6634TIP3   OH219844   3.349   5.661   6.087
 6634TIP3    H119845   3.345   5.651   5.992
 6634TIP3    H219846   3.349   5.572   6.120
 6635TIP3   OH219847   1.394   6.576   4.835
 6635TIP3    H119848   1.311   6.559   4.879
 6635TIP3    H219849   1.451   6.505   4.864
 6636TIP3   OH219850   3.954   7.241   2.324
 6636TIP3    H119851   3.910   7.319   2.291
 6636TIP3    H219852   3.940   7.244   2.419
 6637TIP3   OH219853   2.358   1.000   1.714
 6637TIP3    H119854   2.278   0.991   1.661
 6637TIP3    H219855   2.419   0.937   1.676
 6638TIP3   OH219856   1.537   7.803   4.243
 6638TIP3    H119857   1.606   7.754   4.198
 6638TIP3    H219858   1.458   7.784   4.193
 6639TIP3   OH219859   1.247   2.571   5.420
 6639TIP3    H119860   1.200   2.614   5.492
 6639TIP3    H219861   1.183   2.511   5.382
 6640TIP3   OH219862   5.099   2.050   4.743
 6640TIP3    H119863   5.158   2.100   4.801
 6640TIP3    H219864   5.118   1.959   4.764
 6641TIP3   OH219865   0.054   6.375   0.311
 6641TIP3    H119866   0.025   6.443   0.251
 6641TIP3    H219867   0.030   6.408   0.398
 6642TIP3   OH219868   4.930   7.345   2.426
 6642TIP3    H119869   4.853   7.394   2.400
 6642TIP3    H219870   4.986   7.344   2.348
 6643TIP3   OH219871   6.100   0.182   3.106
 6643TIP3    H119872   6.072   0.267   3.072
 6643TIP3    H219873   6.175   0.202   3.162
 6644TIP3   OH219874   5.116   6.957   5.935
 6644TIP3    H119875   5.038   6.908   5.906
 6644TIP3    H219876   5.142   7.008   5.859
 6645TIP3   OH219877   6.037   0.550   0.352
 6645TIP3    H119878   6.067   0.540   0.442
 6645TIP3    H219879   6.088   0.486   0.302
 6646TIP3   OH219880   4.159   2.954   3.830
 6646TIP3    H119881   4.120   2.885   3.777
 6646TIP3    H219882   4.230   2.989   3.776
 6647TIP3   OH219883   6.692   0.698   1.445
 6647TIP3    H119884   6.654   0.616   1.413
 6647TIP3    H219885   6.616   0.753   1.465
 6648TIP3   OH219886   5.703   1.596   2.554
 6648TIP3    H119887   5.629   1.567   2.607
 6648TIP3    H219888   5.772   1.614   2.617
 6649TIP3   OH219889   2.916   3.163   2.222
 6649TIP3    H119890   2.924   3.169   2.318
 6649TIP3    H219891   2.827   3.192   2.204
 6650TIP3   OH219892   3.047   5.273   0.676
 6650TIP3    H119893   3.123   5.255   0.621
 6650TIP3    H219894   2.980   5.303   0.615
 6651TIP3   OH219895   2.758   1.445   0.463
 6651TIP3    H119896   2.802   1.463   0.379
 6651TIP3    H219897   2.801   1.367   0.496
 6652TIP3   OH219898   4.431   4.634   0.022
 6652TIP3    H119899   4.362   4.699   0.037
 6652TIP3    H219900   4.425   4.575   0.097
 6653TIP3   OH219901   2.585   5.646   5.487
 6653TIP3    H119902   2.656   5.710   5.481
 6653TIP3    H219903   2.551   5.656   5.576
 6654TIP3   OH219904   2.202   7.589   4.928
 6654TIP3    H119905   2.227   7.566   4.839
 6654TIP3    H219906   2.157   7.511   4.961
 6655TIP3   OH219907   6.789   1.043   4.849
 6655TIP3    H119908   6.880   1.073   4.849
 6655TIP3    H219909   6.768   1.031   4.942
 6656TIP3   OH219910   0.627   5.590   6.732
 6656TIP3    H119911   0.722   5.585   6.727
 6656TIP3    H219912   0.609   5.647   6.807
 6657TIP3   OH219913   4.545   3.726   6.379
 6657TIP3    H119914   4.560   3.647   6.326
 6657TIP3    H219915   4.506   3.693   6.460
 6658TIP3   OH219916   1.258   0.147   0.474
 6658TIP3    H119917   1.269   0.188   0.388
 6658TIP3    H219918   1.224   0.216   0.530
 6659TIP3   OH219919   1.051   5.762   3.732
 6659TIP3    H119920   0.988   5.708   3.780
 6659TIP3    H219921   1.130   5.760   3.785
 6660TIP3   OH219922   5.023   5.077   1.604
 6660TIP3    H119923   5.096   5.108   1.551
 6660TIP3    H219924   4.984   5.156   1.640
 6661TIP3   OH219925   4.741   2.597   4.536
 6661TIP3    H119926   4.803   2.540   4.582
 6661TIP3    H219927   4.785   2.683   4.533
 6662TIP3   OH219928   2.208   6.756   3.722
 6662TIP3    H119929   2.223   6.778   3.814
 6662TIP3    H219930   2.207   6.661   3.720
 6663TIP3   OH219931   0.253   3.161   2.440
 6663TIP3    H119932   0.219   3.122   2.359
 6663TIP3    H219933   0.229   3.254   2.434
 6664TIP3   OH219934   4.431   6.828   0.260
 6664TIP3    H119935   4.389   6.802   0.341
 6664TIP3    H219936   4.476   6.910   0.281
 6665TIP3   OH219937   7.934   4.893   1.338
 6665TIP3    H119938   7.943   4.987   1.352
 6665TIP3    H219939   7.842   4.874   1.358
 6666TIP3   OH219940   3.105   2.883   4.184
 6666TIP3    H119941   3.176   2.819   4.182
 6666TIP3    H219942   3.082   2.891   4.276
 6667TIP3   OH219943   8.255   4.429   2.604
 6667TIP3    H119944   8.169   4.435   2.562
 6667TIP3    H219945   8.317   4.428   2.531
 6668TIP3   OH219946   6.959   1.032   2.855
 6668TIP3    H119947   6.954   0.954   2.910
 6668TIP3    H219948   6.943   1.105   2.915
 6669TIP3   OH219949   5.439   0.135   6.372
 6669TIP3    H119950   5.433   0.043   6.348
 6669TIP3    H219951   5.527   0.144   6.410
 6670TIP3   OH219952   0.401   7.569   0.704
 6670TIP3    H119953   0.336   7.500   0.695
 6670TIP3    H219954   0.384   7.607   0.790
 6671TIP3   OH219955   1.377   6.301   2.236
 6671TIP3    H119956   1.362   6.375   2.295
 6671TIP3    H219957   1.430   6.337   2.165
 6672TIP3   OH219958   1.433   0.740   4.411
 6672TIP3    H119959   1.394   0.760   4.496
 6672TIP3    H219960   1.513   0.691   4.432
 6673TIP3   OH219961   2.424   7.700   0.449
 6673TIP3    H119962   2.420   7.605   0.438
 6673TIP3    H219963   2.430   7.713   0.544
 6674TIP3   OH219964   2.167   5.007   4.175
 6674TIP3    H119965   2.146   5.100   4.184
 6674TIP3    H219966   2.251   4.997   4.220
 6675TIP3   OH219967   3.189   4.753   0.356
 6675TIP3    H119968   3.100   4.724   0.338
 6675TIP3    H219969   3.226   4.776   0.271
 6676TIP3   OH219970   0.933   3.935   5.701
 6676TIP3    H119971   0.906   3.844   5.715
 6676TIP3    H219972   0.935   3.944   5.605
 6677TIP3   OH219973   1.242   6.913   6.715
 6677TIP3    H119974   1.299   6.990   6.718
 6677TIP3    H219975   1.255   6.877   6.627
 6678TIP3   OH219976   1.862   4.548   2.812
 6678TIP3    H119977   1.945   4.583   2.844
 6678TIP3    H219978   1.796   4.582   2.873
 6679TIP3   OH219979   3.925   0.840   6.455
 6679TIP3    H119980   3.869   0.909   6.419
 6679TIP3    H219981   3.919   0.768   6.392
 6680TIP3   OH219982   0.817   1.903   0.313
 6680TIP3    H119983   0.878   1.937   0.248
 6680TIP3    H219984   0.811   1.810   0.293
 6681TIP3   OH219985   6.954   2.943   2.858
 6681TIP3    H119986   6.912   2.858   2.846
 6681TIP3    H219987   6.884   3.007   2.839
 6682TIP3   OH219988   2.412   5.027   2.188
 6682TIP3    H119989   2.396   4.994   2.100
 6682TIP3    H219990   2.506   5.044   2.191
 6683TIP3   OH219991   2.693   4.839   6.584
 6683TIP3    H119992   2.634   4.851   6.509
 6683TIP3    H219993   2.711   4.745   6.585
 6684TIP3   OH219994   4.941   4.039   5.469
 6684TIP3    H119995   5.024   4.001   5.441
 6684TIP3    H219996   4.889   4.045   5.389
 6685TIP3   OH219997   2.237   5.903   4.473
 6685TIP3    H119998   2.265   5.825   4.426
 6685TIP3    H219999   2.167   5.873   4.531
 6686TIP3   OH220000   4.792   7.661   1.078
 6686TIP3    H120001   4.738   7.689   1.152
 6686TIP3    H220002   4.842   7.739   1.054
 6687TIP3   OH220003   3.977   5.051   0.601
 6687TIP3    H120004   4.005   5.094   0.520
 6687TIP3    H220005   3.925   5.117   0.647
 6688TIP3   OH220006   2.131   2.694   3.255
 6688TIP3    H120007   2.211   2.746   3.265
 6688TIP3    H220008   2.069   2.753   3.211
 6689TIP3   OH220009   5.649   1.167   3.310
 6689TIP3    H120010   5.660   1.080   3.349
 6689TIP3    H220011   5.663   1.228   3.383
 6690TIP3   OH220012   1.350   5.707   5.756
 6690TIP3    H120013   1.287   5.778   5.768
 6690TIP3    H220014   1.403   5.708   5.835
 6691TIP3   OH220015   6.807   2.710   0.963
 6691TIP3    H120016   6.869   2.716   0.890
 6691TIP3    H220017   6.861   2.688   1.039
 6692TIP3   OH220018   7.948   7.763   6.360
 6692TIP3    H120019   7.903   7.688   6.397
 6692TIP3    H220020   8.041   7.740   6.363
 6693TIP3   OH220021   1.191   7.519   4.978
 6693TIP3    H120022   1.273   7.519   4.928
 6693TIP3    H220023   1.218   7.505   5.069
 6694TIP3   OH220024   4.256   6.569   5.247
 6694TIP3    H120025   4.210   6.627   5.307
 6694TIP3    H220026   4.196   6.557   5.174
 6695TIP3   OH220027   7.024   1.204   6.387
 6695TIP3    H120028   6.945   1.240   6.347
 6695TIP3    H220029   7.067   1.157   6.316
 6696TIP3   OH220030   4.437   1.241   5.214
 6696TIP3    H120031   4.513   1.275   5.167
 6696TIP3    H220032   4.464   1.241   5.306
 6697TIP3   OH220033   2.406   2.331   2.161
 6697TIP3    H120034   2.373   2.401   2.105
 6697TIP3    H220035   2.355   2.340   2.242
 6698TIP3   OH220036   6.613   3.654   6.448
 6698TIP3    H120037   6.595   3.713   6.521
 6698TIP3    H220038   6.694   3.687   6.409
 6699TIP3   OH220039   6.457   6.390   6.570
 6699TIP3    H120040   6.407   6.395   6.488
 6699TIP3    H220041   6.438   6.302   6.603
 6700TIP3   OH220042   2.705   5.379   4.643
 6700TIP3    H120043   2.775   5.315   4.630
 6700TIP3    H220044   2.738   5.438   4.710
 6701TIP3   OH220045   4.387   5.514   0.567
 6701TIP3    H120046   4.335   5.477   0.639
 6701TIP3    H220047   4.434   5.587   0.606
 6702TIP3   OH220048   4.847   6.641   2.337
 6702TIP3    H120049   4.797   6.663   2.258
 6702TIP3    H220050   4.853   6.724   2.385
 6703TIP3   OH220051   2.328   5.740   6.467
 6703TIP3    H120052   2.263   5.696   6.413
 6703TIP3    H220053   2.290   5.741   6.555
 6704TIP3   OH220054   3.426   1.178   6.175
 6704TIP3    H120055   3.480   1.256   6.189
 6704TIP3    H220056   3.405   1.180   6.082
 6705TIP3   OH220057   0.990   3.402   6.759
 6705TIP3    H120058   1.068   3.440   6.799
 6705TIP3    H220059   1.020   3.367   6.675
 6706TIP3   OH220060   3.300   2.444   1.670
 6706TIP3    H120061   3.355   2.404   1.737
 6706TIP3    H220062   3.260   2.520   1.714
 6707TIP3   OH220063   7.122   3.088   2.437
 6707TIP3    H120064   7.128   3.180   2.463
 6707TIP3    H220065   7.212   3.061   2.421
 6708TIP3   OH220066   3.975   4.617   2.139
 6708TIP3    H120067   4.037   4.557   2.098
 6708TIP3    H220068   3.889   4.585   2.113
 6709TIP3   OH220069   7.347   5.349   3.225
 6709TIP3    H120070   7.269   5.368   3.173
 6709TIP3    H220071   7.316   5.291   3.295
 6710TIP3   OH220072   3.159   6.202   5.404
 6710TIP3    H120073   3.107   6.278   5.429
 6710TIP3    H220074   3.243   6.214   5.449
 6711TIP3   OH220075   7.679   3.965   3.988
 6711TIP3    H120076   7.753   4.002   4.036
 6711TIP3    H220077   7.713   3.948   3.900
 6712TIP3   OH220078   0.427   7.101   2.561
 6712TIP3    H120079   0.459   7.191   2.550
 6712TIP3    H220080   0.332   7.108   2.555
 6713TIP3   OH220081   7.692   1.468   4.869
 6713TIP3    H120082   7.696   1.379   4.834
 6713TIP3    H220083   7.652   1.520   4.799
 6714TIP3   OH220084   6.519   5.381   2.775
 6714TIP3    H120085   6.478   5.297   2.799
 6714TIP3    H220086   6.553   5.366   2.687
 6715TIP3   OH220087   5.324   2.616   6.647
 6715TIP3    H120088   5.253   2.553   6.633
 6715TIP3    H220089   5.393   2.589   6.588
 6716TIP3   OH220090   5.116   0.501   2.697
 6716TIP3    H120091   5.087   0.526   2.610
 6716TIP3    H220092   5.062   0.553   2.757
 6717TIP3   OH220093   0.898   0.398   3.700
 6717TIP3    H120094   0.903   0.355   3.615
 6717TIP3    H220095   0.851   0.337   3.756
 6718TIP3   OH220096   7.442   6.831   4.454
 6718TIP3    H120097   7.504   6.759   4.463
 6718TIP3    H220098   7.466   6.874   4.372
 6719TIP3   OH220099   2.926   4.415   5.201
 6719TIP3    H120100   2.874   4.340   5.171
 6719TIP3    H220101   2.942   4.397   5.294
 6720TIP3   OH220102   4.571   0.212   5.416
 6720TIP3    H120103   4.659   0.251   5.424
 6720TIP3    H220104   4.582   0.123   5.449
 6721TIP3   OH220105   1.705   6.857   0.930
 6721TIP3    H120106   1.743   6.936   0.970
 6721TIP3    H220107   1.774   6.792   0.937
 6722TIP3   OH220108   8.020   7.505   5.702
 6722TIP3    H120109   7.934   7.464   5.710
 6722TIP3    H220110   8.059   7.463   5.625
 6723TIP3   OH220111   4.884   5.886   1.751
 6723TIP3    H120112   4.938   5.807   1.749
 6723TIP3    H220113   4.944   5.957   1.728
 6724TIP3   OH220114   2.839   1.680   1.335
 6724TIP3    H120115   2.761   1.658   1.387
 6724TIP3    H220116   2.849   1.606   1.275
 6725TIP3   OH220117   7.512   1.146   3.190
 6725TIP3    H120118   7.457   1.216   3.153
 6725TIP3    H220119   7.459   1.109   3.260
 6726TIP3   OH220120   6.214   5.279   6.101
 6726TIP3    H120121   6.236   5.210   6.039
 6726TIP3    H220122   6.154   5.238   6.163
 6727TIP3   OH220123   7.875   1.840  -0.015
 6727TIP3    H120124   7.811   1.853   0.055
 6727TIP3    H220125   7.954   1.884   0.016
 6728TIP3   OH220126   7.187   0.189   2.753
 6728TIP3    H120127   7.257   0.208   2.816
 6728TIP3    H220128   7.136   0.120   2.793
 6729TIP3   OH220129   3.939   7.317   0.725
 6729TIP3    H120130   3.964   7.324   0.633
 6729TIP3    H220131   4.007   7.261   0.764
 6730TIP3   OH220132   5.706   6.687   3.747
 6730TIP3    H120133   5.622   6.728   3.727
 6730TIP3    H220134   5.717   6.621   3.680
 6731TIP3   OH220135   5.916   2.469   1.074
 6731TIP3    H120136   5.991   2.414   1.092
 6731TIP3    H220137   5.889   2.446   0.985
 6732TIP3   OH220138   3.391   2.489   4.565
 6732TIP3    H120139   3.386   2.404   4.520
 6732TIP3    H220140   3.477   2.523   4.541
 6733TIP3   OH220141   2.936   7.709   3.928
 6733TIP3    H120142   2.955   7.690   3.837
 6733TIP3    H220143   2.984   7.790   3.947
 6734TIP3   OH220144   2.861   6.599   0.069
 6734TIP3    H120145   2.836   6.644  -0.012
 6734TIP3    H220146   2.947   6.634   0.090
 6735TIP3   OH220147   6.224   6.654   5.729
 6735TIP3    H120148   6.235   6.694   5.815
 6735TIP3    H220149   6.293   6.693   5.675
 6736TIP3   OH220150   1.185   2.011   2.769
 6736TIP3    H120151   1.202   2.098   2.804
 6736TIP3    H220152   1.182   2.022   2.674
 6737TIP3   OH220153   2.235   7.106   0.725
 6737TIP3    H120154   2.163   7.134   0.667
 6737TIP3    H220155   2.236   7.011   0.717
 6738TIP3   OH220156   1.626   3.637   3.052
 6738TIP3    H120157   1.651   3.545   3.055
 6738TIP3    H220158   1.534   3.636   3.026
 6739TIP3   OH220159   6.182   1.329   6.555
 6739TIP3    H120160   6.111   1.267   6.540
 6739TIP3    H220161   6.171   1.396   6.487
 6740TIP3   OH220162   2.283   0.826   4.094
 6740TIP3    H120163   2.260   0.743   4.053
 6740TIP3    H220164   2.330   0.874   4.027
 6741TIP3   OH220165   4.310   6.696   4.228
 6741TIP3    H120166   4.347   6.646   4.301
 6741TIP3    H220167   4.222   6.659   4.217
 6742TIP3   OH220168   8.133   2.063   2.906
 6742TIP3    H120169   8.173   1.981   2.935
 6742TIP3    H220170   8.043   2.040   2.884
 6743TIP3   OH220171   6.807   6.435   0.294
 6743TIP3    H120172   6.734   6.496   0.290
 6743TIP3    H220173   6.768   6.352   0.320
 6744TIP3   OH220174   5.384   4.830   2.394
 6744TIP3    H120175   5.398   4.925   2.391
 6744TIP3    H220176   5.325   4.817   2.468
 6745TIP3   OH220177   4.669   6.133   6.193
 6745TIP3    H120178   4.641   6.048   6.159
 6745TIP3    H220179   4.664   6.123   6.288
 6746TIP3   OH220180   4.835   0.615   0.477
 6746TIP3    H120181   4.914   0.623   0.531
 6746TIP3    H220182   4.784   0.546   0.520
 6747TIP3   OH220183   1.511   2.851   5.662
 6747TIP3    H120184   1.511   2.758   5.639
 6747TIP3    H220185   1.559   2.893   5.590
 6748TIP3   OH220186   2.400   1.997   1.550
 6748TIP3    H120187   2.430   2.002   1.460
 6748TIP3    H220188   2.421   1.908   1.578
 6749TIP3   OH220189   4.744   7.587   6.363
 6749TIP3    H120190   4.720   7.628   6.279
 6749TIP3    H220191   4.830   7.624   6.383
 6750TIP3   OH220192   5.573   4.247   3.383
 6750TIP3    H120193   5.576   4.312   3.314
 6750TIP3    H220194   5.485   4.252   3.419
 6751TIP3   OH220195   6.272   3.507   1.200
 6751TIP3    H120196   6.226   3.530   1.281
 6751TIP3    H220197   6.297   3.416   1.212
 6752TIP3   OH220198   0.637   5.721   2.955
 6752TIP3    H120199   0.584   5.691   3.029
 6752TIP3    H220200   0.699   5.783   2.994
 6753TIP3   OH220201   6.955   4.360   2.007
 6753TIP3    H120202   6.968   4.381   2.100
 6753TIP3    H220203   6.935   4.443   1.966
 6754TIP3   OH220204   1.283   0.411   4.562
 6754TIP3    H120205   1.232   0.347   4.612
 6754TIP3    H220206   1.368   0.412   4.606
 6755TIP3   OH220207   0.344   7.649   5.346
 6755TIP3    H120208   0.401   7.652   5.269
 6755TIP3    H220209   0.320   7.557   5.355
 6756TIP3   OH220210   4.900   2.724   2.644
 6756TIP3    H120211   4.845   2.653   2.676
 6756TIP3    H220212   4.963   2.681   2.586
 6757TIP3   OH220213   5.203   4.200   4.708
 6757TIP3    H120214   5.276   4.256   4.682
 6757TIP3    H220215   5.231   4.162   4.791
 6758TIP3   OH220216   4.372   0.602   5.224
 6758TIP3    H120217   4.410   0.679   5.183
 6758TIP3    H220218   4.444   0.540   5.231
 6759TIP3   OH220219   4.415   7.498   1.635
 6759TIP3    H120220   4.327   7.530   1.651
 6759TIP3    H220221   4.457   7.566   1.584
 6760TIP3   OH220222   0.831   7.732   6.301
 6760TIP3    H120223   0.792   7.752   6.387
 6760TIP3    H220224   0.759   7.698   6.249
 6761TIP3   OH220225   1.663   3.006   1.972
 6761TIP3    H120226   1.567   3.002   1.970
 6761TIP3    H220227   1.683   3.099   1.980
 6762TIP3   OH220228   4.172   1.921   4.098
 6762TIP3    H120229   4.146   1.844   4.148
 6762TIP3    H220230   4.262   1.939   4.126
 6763TIP3   OH220231   3.236   0.308   2.090
 6763TIP3    H120232   3.265   0.278   2.004
 6763TIP3    H220233   3.141   0.301   2.087
 6764TIP3   OH220234   1.391   3.591   2.850
 6764TIP3    H120235   1.386   3.665   2.790
 6764TIP3    H220236   1.304   3.585   2.889
 6765TIP3   OH220237   6.997   2.255   2.937
 6765TIP3    H120238   7.068   2.318   2.947
 6765TIP3    H220239   6.917   2.308   2.944
 6766TIP3   OH220240   2.221   0.273   6.060
 6766TIP3    H120241   2.180   0.343   6.009
 6766TIP3    H220242   2.312   0.273   6.032
 6767TIP3   OH220243   0.852   0.953   5.092
 6767TIP3    H120244   0.878   0.881   5.149
 6767TIP3    H220245   0.800   0.912   5.023
 6768TIP3   OH220246   1.723   1.724   3.275
 6768TIP3    H120247   1.703   1.801   3.222
 6768TIP3    H220248   1.638   1.680   3.286
 6769TIP3   OH220249   2.026   2.801   6.664
 6769TIP3    H120250   2.049   2.854   6.588
 6769TIP3    H220251   1.944   2.839   6.696
 6770TIP3   OH220252   1.221   2.009   1.552
 6770TIP3    H120253   1.194   1.947   1.485
 6770TIP3    H220254   1.310   2.035   1.528
 6771TIP3   OH220255   3.852   4.041   0.612
 6771TIP3    H120256   3.874   3.970   0.672
 6771TIP3    H220257   3.805   4.105   0.666
 6772TIP3   OH220258   3.966   1.184   4.186
 6772TIP3    H120259   4.034   1.177   4.118
 6772TIP3    H220260   3.907   1.112   4.169
 6773TIP3   OH220261  -0.066   3.376   0.947
 6773TIP3    H120262  -0.039   3.331   0.868
 6773TIP3    H220263  -0.042   3.317   1.018
 6774TIP3   OH220264   4.078   6.663   5.446
 6774TIP3    H120265   4.138   6.710   5.503
 6774TIP3    H220266   3.999   6.718   5.445
 6775TIP3   OH220267   4.071   4.345   2.206
 6775TIP3    H120268   4.166   4.358   2.209
 6775TIP3    H220269   4.057   4.290   2.129
 6776TIP3   OH220270   0.684   7.648   0.145
 6776TIP3    H120271   0.760   7.628   0.090
 6776TIP3    H220272   0.613   7.596   0.108
 6777TIP3   OH220273   4.157   6.149   5.070
 6777TIP3    H120274   4.121   6.101   5.144
 6777TIP3    H220275   4.251   6.137   5.077
 6778TIP3   OH220276   2.586   3.973   1.665
 6778TIP3    H120277   2.498   3.999   1.693
 6778TIP3    H220278   2.603   3.891   1.713
 6779TIP3   OH220279   8.085   5.659   5.864
 6779TIP3    H120280   8.108   5.728   5.926
 6779TIP3    H220281   8.169   5.633   5.825
 6780TIP3   OH220282   2.580   6.313   5.463
 6780TIP3    H120283   2.586   6.401   5.426
 6780TIP3    H220284   2.625   6.257   5.400
 6781TIP3   OH220285   1.184   5.509   0.722
 6781TIP3    H120286   1.169   5.578   0.787
 6781TIP3    H220287   1.195   5.429   0.773
 6782TIP3   OH220288   6.385   5.086   0.929
 6782TIP3    H120289   6.369   5.040   0.847
 6782TIP3    H220290   6.409   5.175   0.903
 6783TIP3   OH220291   5.890   5.415   0.883
 6783TIP3    H120292   5.904   5.321   0.894
 6783TIP3    H220293   5.911   5.453   0.968
 6784TIP3   OH220294   3.581   6.592   0.063
 6784TIP3    H120295   3.661   6.549   0.094
 6784TIP3    H220296   3.589   6.592  -0.032
 6785TIP3   OH220297   3.065   1.943   2.896
 6785TIP3    H120298   3.153   1.979   2.903
 6785TIP3    H220299   3.010   2.005   2.944
 6786TIP3   OH220300   6.750   6.277   3.261
 6786TIP3    H120301   6.796   6.328   3.328
 6786TIP3    H220302   6.796   6.193   3.261
 6787TIP3   OH220303   6.551   7.580   4.918
 6787TIP3    H120304   6.490   7.628   4.861
 6787TIP3    H220305   6.496   7.538   4.983
 6788TIP3   OH220306   5.787   2.713   2.104
 6788TIP3    H120307   5.790   2.798   2.148
 6788TIP3    H220308   5.812   2.650   2.171
 6789TIP3   OH220309   6.446   1.022   3.238
 6789TIP3    H120310   6.409   0.933   3.233
 6789TIP3    H220311   6.389   1.074   3.182
 6790TIP3   OH220312   2.637   3.731   5.478
 6790TIP3    H120313   2.575   3.720   5.551
 6790TIP3    H220314   2.705   3.666   5.495
 6791TIP3   OH220315   5.111   1.158   4.449
 6791TIP3    H120316   5.124   1.064   4.461
 6791TIP3    H220317   5.060   1.165   4.369
 6792TIP3   OH220318   5.332   3.528   4.303
 6792TIP3    H120319   5.256   3.568   4.262
 6792TIP3    H220320   5.404   3.546   4.243
 6793TIP3   OH220321   3.021   5.955   5.642
 6793TIP3    H120322   3.115   5.934   5.644
 6793TIP3    H220323   2.995   5.957   5.734
 6794TIP3   OH220324   1.407   7.085   2.374
 6794TIP3    H120325   1.421   7.090   2.468
 6794TIP3    H220326   1.491   7.056   2.339
 6795TIP3   OH220327   2.855   7.750   0.184
 6795TIP3    H120328   2.764   7.741   0.212
 6795TIP3    H220329   2.857   7.710   0.097
 6796TIP3   OH220330   2.539   5.710   0.030
 6796TIP3    H120331   2.592   5.630   0.033
 6796TIP3    H220332   2.500   5.717   0.117
 6797TIP3   OH220333   1.963   2.405   3.672
 6797TIP3    H120334   1.974   2.323   3.624
 6797TIP3    H220335   1.900   2.455   3.621
 6798TIP3   OH220336   1.815   6.898   2.887
 6798TIP3    H120337   1.895   6.923   2.842
 6798TIP3    H220338   1.778   6.828   2.833
 6799TIP3   OH220339   6.471   7.790   0.804
 6799TIP3    H120340   6.447   7.738   0.881
 6799TIP3    H220341   6.415   7.867   0.808
 6800TIP3   OH220342   7.694   5.266   2.222
 6800TIP3    H120343   7.735   5.217   2.293
 6800TIP3    H220344   7.601   5.268   2.245
 6801TIP3   OH220345   7.812   0.158   2.213
 6801TIP3    H120346   7.803   0.063   2.205
 6801TIP3    H220347   7.903   0.176   2.188
 6802TIP3   OH220348   6.418   7.309   1.165
 6802TIP3    H120349   6.506   7.328   1.196
 6802TIP3    H220350   6.414   7.349   1.078
 6803TIP3   OH220351   7.962   4.913   1.019
 6803TIP3    H120352   7.959   5.009   1.016
 6803TIP3    H220353   7.942   4.891   1.109
 6804TIP3   OH220354   3.299   0.556   5.861
 6804TIP3    H120355   3.272   0.613   5.934
 6804TIP3    H220356   3.387   0.527   5.885
 6805TIP3   OH220357   3.815   2.960   4.016
 6805TIP3    H120358   3.866   3.015   4.076
 6805TIP3    H220359   3.871   2.884   3.999
 6806TIP3   OH220360   7.446   1.163   1.498
 6806TIP3    H120361   7.466   1.256   1.511
 6806TIP3    H220362   7.493   1.140   1.418
 6807TIP3   OH220363   0.857   0.409   6.310
 6807TIP3    H120364   0.812   0.359   6.242
 6807TIP3    H220365   0.909   0.473   6.262
 6808TIP3   OH220366   4.689   1.048   2.936
 6808TIP3    H120367   4.768   1.099   2.919
 6808TIP3    H220368   4.622   1.088   2.882
 6809TIP3   OH220369   8.251   6.429   1.107
 6809TIP3    H120370   8.282   6.342   1.131
 6809TIP3    H220371   8.260   6.481   1.188
 6810TIP3   OH220372   2.038   2.926   2.576
 6810TIP3    H120373   2.110   2.866   2.593
 6810TIP3    H220374   1.973   2.905   2.643
 6811TIP3   OH220375   4.333   7.091   6.071
 6811TIP3    H120376   4.331   7.172   6.020
 6811TIP3    H220377   4.243   7.080   6.101
 6812TIP3   OH220378   3.944   4.431   6.494
 6812TIP3    H120379   3.908   4.515   6.524
 6812TIP3    H220380   3.870   4.371   6.497
 6813TIP3   OH220381   5.846   6.948   3.855
 6813TIP3    H120382   5.786   7.022   3.846
 6813TIP3    H220383   5.871   6.927   3.765
 6814TIP3   OH220384   5.629   6.730   1.208
 6814TIP3    H120385   5.703   6.775   1.166
 6814TIP3    H220386   5.659   6.715   1.298
 6815TIP3   OH220387   7.088   6.318   2.081
 6815TIP3    H120388   7.099   6.412   2.100
 6815TIP3    H220389   7.114   6.309   1.990
 6816TIP3   OH220390   4.733   7.494   5.091
 6816TIP3    H120391   4.809   7.517   5.039
 6816TIP3    H220392   4.688   7.426   5.040
 6817TIP3   OH220393   7.308   2.439   6.656
 6817TIP3    H120394   7.394   2.400   6.643
 6817TIP3    H220395   7.286   2.476   6.570
 6818TIP3   OH220396   2.482   5.281   4.779
 6818TIP3    H120397   2.555   5.284   4.717
 6818TIP3    H220398   2.422   5.349   4.748
 6819TIP3   OH220399   3.184   2.097   6.194
 6819TIP3    H120400   3.182   2.172   6.135
 6819TIP3    H220401   3.241   2.125   6.266
 6820TIP3   OH220402   5.278   6.300   2.553
 6820TIP3    H120403   5.232   6.352   2.619
 6820TIP3    H220404   5.369   6.300   2.582
 6821TIP3   OH220405   6.529   3.246   3.642
 6821TIP3    H120406   6.528   3.336   3.609
 6821TIP3    H220407   6.616   3.214   3.620
 6822TIP3   OH220408   2.203   3.535   4.162
 6822TIP3    H120409   2.292   3.499   4.151
 6822TIP3    H220410   2.206   3.581   4.245
 6823TIP3   OH220411   5.082   4.162   5.718
 6823TIP3    H120412   5.055   4.177   5.627
 6823TIP3    H220413   5.163   4.213   5.727
 6824TIP3   OH220414   5.712   2.292   1.945
 6824TIP3    H120415   5.726   2.336   1.861
 6824TIP3    H220416   5.800   2.281   1.980
 6825TIP3   OH220417   7.774   6.167   0.371
 6825TIP3    H120418   7.733   6.082   0.384
 6825TIP3    H220419   7.786   6.202   0.460
 6826TIP3   OH220420   1.561   2.886   2.487
 6826TIP3    H120421   1.580   2.969   2.531
 6826TIP3    H220422   1.471   2.865   2.512
 6827TIP3   OH220423   0.473   7.638   3.336
 6827TIP3    H120424   0.417   7.638   3.414
 6827TIP3    H220425   0.434   7.573   3.278
 6828TIP3   OH220426   3.834   4.471   0.131
 6828TIP3    H120427   3.868   4.394   0.086
 6828TIP3    H220428   3.903   4.537   0.121
 6829TIP3   OH220429   4.142   3.137   1.511
 6829TIP3    H120430   4.111   3.047   1.501
 6829TIP3    H220431   4.191   3.136   1.593
 6830TIP3   OH220432   0.938   6.654   6.105
 6830TIP3    H120433   0.874   6.724   6.119
 6830TIP3    H220434   1.004   6.669   6.173
 6831TIP3   OH220435   0.116   3.639   1.384
 6831TIP3    H120436   0.160   3.718   1.413
 6831TIP3    H220437   0.128   3.577   1.456
 6832TIP3   OH220438   0.716   7.325   6.665
 6832TIP3    H120439   0.677   7.238   6.679
 6832TIP3    H220440   0.771   7.315   6.588
 6833TIP3   OH220441   5.489   3.619   4.619
 6833TIP3    H120442   5.547   3.662   4.681
 6833TIP3    H220443   5.513   3.655   4.534
 6834TIP3   OH220444   6.629   4.998   3.599
 6834TIP3    H120445   6.633   4.907   3.629
 6834TIP3    H220446   6.556   5.000   3.537
 6835TIP3   OH220447   7.007   6.980   0.239
 6835TIP3    H120448   7.021   6.935   0.155
 6835TIP3    H220449   6.945   6.924   0.286
 6836TIP3   OH220450   0.777   5.330   3.684
 6836TIP3    H120451   0.711   5.271   3.646
 6836TIP3    H220452   0.835   5.272   3.733
 6837TIP3   OH220453   6.051   5.966   0.434
 6837TIP3    H120454   6.127   5.923   0.396
 6837TIP3    H220455   6.019   5.905   0.500
 6838TIP3   OH220456   7.133   3.495   5.805
 6838TIP3    H120457   7.043   3.527   5.807
 6838TIP3    H220458   7.174   3.530   5.885
 6839TIP3   OH220459   3.192   2.769   2.208
 6839TIP3    H120460   3.115   2.823   2.186
 6839TIP3    H220461   3.214   2.796   2.297
 6840TIP3   OH220462   6.868   2.789   2.271
 6840TIP3    H120463   6.885   2.793   2.365
 6840TIP3    H220464   6.828   2.873   2.250
 6841TIP3   OH220465   3.196   0.610   4.693
 6841TIP3    H120466   3.104   0.626   4.675
 6841TIP3    H220467   3.228   0.691   4.733
 6842TIP3   OH220468   8.153   6.111   1.064
 6842TIP3    H120469   8.181   6.105   1.155
 6842TIP3    H220470   8.071   6.063   1.061
 6843TIP3   OH220471   1.442   6.630   1.526
 6843TIP3    H120472   1.438   6.720   1.495
 6843TIP3    H220473   1.514   6.591   1.475
 6844TIP3   OH220474   2.970   4.405   6.646
 6844TIP3    H120475   2.896   4.368   6.599
 6844TIP3    H220476   2.933   4.439   6.727
 6845TIP3   OH220477   3.504   7.626   1.064
 6845TIP3    H120478   3.534   7.621   0.973
 6845TIP3    H220479   3.545   7.705   1.098
 6846TIP3   OH220480   1.762   0.870   4.440
 6846TIP3    H120481   1.745   0.826   4.356
 6846TIP3    H220482   1.677   0.908   4.464
 6847TIP3   OH220483   3.315   1.652   4.549
 6847TIP3    H120484   3.381   1.696   4.495
 6847TIP3    H220485   3.270   1.723   4.595
 6848TIP3   OH220486   0.027   3.603   6.191
 6848TIP3    H120487   0.080   3.527   6.214
 6848TIP3    H220488  -0.058   3.586   6.232
 6849TIP3   OH220489   1.101   0.272   1.345
 6849TIP3    H120490   1.170   0.230   1.293
 6849TIP3    H220491   1.032   0.206   1.351
 6850TIP3   OH220492   4.602   1.412   1.882
 6850TIP3    H120493   4.628   1.474   1.950
 6850TIP3    H220494   4.612   1.326   1.922
 6851TIP3   OH220495   2.198   6.633   1.366
 6851TIP3    H120496   2.235   6.546   1.378
 6851TIP3    H220497   2.244   6.688   1.430
 6852TIP3   OH220498   0.404   4.892   0.071
 6852TIP3    H120499   0.456   4.940   0.135
 6852TIP3    H220500   0.446   4.806   0.065
 6853TIP3   OH220501   0.266   7.389   0.999
 6853TIP3    H120502   0.189   7.360   0.950
 6853TIP3    H220503   0.340   7.352   0.950
 6854TIP3   OH220504   3.669   3.221   2.524
 6854TIP3    H120505   3.691   3.248   2.434
 6854TIP3    H220506   3.669   3.303   2.573
 6855TIP3   OH220507   4.332   2.415   3.943
 6855TIP3    H120508   4.239   2.400   3.927
 6855TIP3    H220509   4.349   2.370   4.026
 6856TIP3   OH220510   7.019   4.027   1.092
 6856TIP3    H120511   7.022   3.982   1.176
 6856TIP3    H220512   7.107   4.063   1.081
 6857TIP3   OH220513   7.032   6.727   1.855
 6857TIP3    H120514   7.062   6.700   1.942
 6857TIP3    H220515   6.961   6.789   1.873
 6858TIP3   OH220516   0.226   5.884   5.848
 6858TIP3    H120517   0.157   5.818   5.853
 6858TIP3    H220518   0.233   5.918   5.937
 6859TIP3   OH220519   5.226   7.714   2.027
 6859TIP3    H120520   5.156   7.697   2.090
 6859TIP3    H220521   5.297   7.655   2.053
 6860TIP3   OH220522   2.702   4.484   1.252
 6860TIP3    H120523   2.755   4.515   1.179
 6860TIP3    H220524   2.763   4.434   1.306
 6861TIP3   OH220525   6.324   0.707   1.147
 6861TIP3    H120526   6.371   0.633   1.187
 6861TIP3    H220527   6.390   0.749   1.091
 6862TIP3   OH220528   1.885   0.392   4.358
 6862TIP3    H120529   1.826   0.319   4.374
 6862TIP3    H220530   1.947   0.389   4.430
 6863TIP3   OH220531   2.307   4.207   2.388
 6863TIP3    H120532   2.268   4.165   2.465
 6863TIP3    H220533   2.399   4.182   2.391
 6864TIP3   OH220534   3.909   5.115   6.649
 6864TIP3    H120535   3.888   5.205   6.671
 6864TIP3    H220536   3.826   5.076   6.621
 6865TIP3   OH220537   4.996   5.779   1.337
 6865TIP3    H120538   4.958   5.723   1.271
 6865TIP3    H220539   4.964   5.744   1.420
 6866TIP3   OH220540   6.018   7.797   3.737
 6866TIP3    H120541   5.923   7.803   3.745
 6866TIP3    H220542   6.038   7.704   3.748
 6867TIP3   OH220543   7.483   6.285   1.626
 6867TIP3    H120544   7.404   6.324   1.589
 6867TIP3    H220545   7.554   6.344   1.599
 6868TIP3   OH220546   5.081   2.272   4.568
 6868TIP3    H120547   5.170   2.306   4.575
 6868TIP3    H220548   5.076   2.205   4.636
 6869TIP3   OH220549   1.415   0.438   6.275
 6869TIP3    H120550   1.468   0.476   6.345
 6869TIP3    H220551   1.410   0.508   6.209
 6870TIP3   OH220552   6.420   1.038   6.137
 6870TIP3    H120553   6.357   1.076   6.077
 6870TIP3    H220554   6.499   1.024   6.084
 6871TIP3   OH220555   1.737   0.604   0.928
 6871TIP3    H120556   1.685   0.597   0.849
 6871TIP3    H220557   1.757   0.514   0.952
 6872TIP3   OH220558   5.087   7.533   5.971
 6872TIP3    H120559   5.136   7.544   6.052
 6872TIP3    H220560   5.017   7.472   5.993
 6873TIP3   OH220561   2.878   2.233   2.750
 6873TIP3    H120562   2.838   2.149   2.772
 6873TIP3    H220563   2.805   2.294   2.747
 6874TIP3   OH220564   8.062   7.612   3.545
 6874TIP3    H120565   8.092   7.699   3.520
 6874TIP3    H220566   8.083   7.556   3.470
 6875TIP3   OH220567   3.517   7.215   0.132
 6875TIP3    H120568   3.481   7.199   0.045
 6875TIP3    H220569   3.610   7.231   0.116
 6876TIP3   OH220570   0.831   4.690   0.544
 6876TIP3    H120571   0.797   4.655   0.461
 6876TIP3    H220572   0.926   4.678   0.538
 6877TIP3   OH220573   3.905   7.633   1.277
 6877TIP3    H120574   3.979   7.586   1.238
 6877TIP3    H220575   3.832   7.571   1.272
 6878TIP3   OH220576   0.664   1.093   2.877
 6878TIP3    H120577   0.680   1.080   2.971
 6878TIP3    H220578   0.751   1.108   2.840
 6879TIP3   OH220579   7.722   6.191   1.084
 6879TIP3    H120580   7.646   6.143   1.118
 6879TIP3    H220581   7.684   6.259   1.028
 6880TIP3   OH220582   2.113   2.643   5.858
 6880TIP3    H120583   2.194   2.592   5.857
 6880TIP3    H220584   2.118   2.697   5.779
 6881TIP3   OH220585   4.743   4.889   5.681
 6881TIP3    H120586   4.656   4.917   5.710
 6881TIP3    H220587   4.752   4.800   5.716
 6882TIP3   OH220588   7.023   7.557   6.516
 6882TIP3    H120589   7.006   7.614   6.440
 6882TIP3    H220590   7.105   7.590   6.553
 6883TIP3   OH220591   6.083   4.834   6.641
 6883TIP3    H120592   6.061   4.822   6.734
 6883TIP3    H220593   6.039   4.761   6.597
 6884TIP3   OH220594   0.663   6.937   5.623
 6884TIP3    H120595   0.581   6.977   5.596
 6884TIP3    H220596   0.637   6.858   5.671
 6885TIP3   OH220597   4.280   0.950   6.405
 6885TIP3    H120598   4.246   1.015   6.344
 6885TIP3    H220599   4.261   0.986   6.492
 6886TIP3   OH220600   7.384   0.412   6.469
 6886TIP3    H120601   7.401   0.371   6.554
 6886TIP3    H220602   7.340   0.345   6.418
 6887TIP3   OH220603   6.802   3.485   4.468
 6887TIP3    H120604   6.756   3.568   4.462
 6887TIP3    H220605   6.804   3.453   4.378
 6888TIP3   OH220606   6.922   5.518   2.835
 6888TIP3    H120607   7.007   5.551   2.808
 6888TIP3    H220608   6.908   5.556   2.922
 6889TIP3   OH220609   3.912   2.913   1.161
 6889TIP3    H120610   3.847   2.905   1.231
 6889TIP3    H220611   3.961   2.830   1.164
 6890TIP3   OH220612   6.687   2.194   3.900
 6890TIP3    H120613   6.771   2.175   3.858
 6890TIP3    H220614   6.650   2.264   3.846
 6891TIP3   OH220615   6.247   4.956   6.470
 6891TIP3    H120616   6.318   4.968   6.533
 6891TIP3    H220617   6.181   4.907   6.518
 6892TIP3   OH220618   5.841   5.184   3.186
 6892TIP3    H120619   5.810   5.144   3.267
 6892TIP3    H220620   5.800   5.271   3.186
 6893TIP3   OH220621   0.685   5.053   4.288
 6893TIP3    H120622   0.700   4.960   4.306
 6893TIP3    H220623   0.761   5.079   4.235
 6894TIP3   OH220624   3.366   0.802   0.826
 6894TIP3    H120625   3.300   0.850   0.875
 6894TIP3    H220626   3.346   0.710   0.844
 6895TIP3   OH220627   4.045   1.711   2.587
 6895TIP3    H120628   4.053   1.680   2.677
 6895TIP3    H220629   4.067   1.805   2.592
 6896TIP3   OH220630   2.622   0.798   3.879
 6896TIP3    H120631   2.610   0.893   3.880
 6896TIP3    H220632   2.631   0.774   3.971
 6897TIP3   OH220633   1.467   4.962   2.938
 6897TIP3    H120634   1.529   4.937   2.869
 6897TIP3    H220635   1.494   4.910   3.014
 6898TIP3   OH220636   2.404   5.210   2.403
 6898TIP3    H120637   2.371   5.300   2.400
 6898TIP3    H220638   2.363   5.168   2.328
 6899TIP3   OH220639   0.868   0.124   3.062
 6899TIP3    H120640   0.883   0.168   2.978
 6899TIP3    H220641   0.815   0.048   3.040
 6900TIP3   OH220642   1.003   6.238   6.694
 6900TIP3    H120643   0.936   6.306   6.708
 6900TIP3    H220644   1.074   6.262   6.753
 6901TIP3   OH220645   7.849   3.418   2.044
 6901TIP3    H120646   7.802   3.368   2.111
 6901TIP3    H220647   7.800   3.403   1.963
 6902TIP3   OH220648   4.226   6.282   3.120
 6902TIP3    H120649   4.191   6.353   3.066
 6902TIP3    H220650   4.157   6.216   3.121
 6903TIP3   OH220651   5.037   1.034   3.353
 6903TIP3    H120652   4.954   1.081   3.339
 6903TIP3    H220653   5.086   1.049   3.272
 6904TIP3   OH220654   3.958   1.913   5.279
 6904TIP3    H120655   4.047   1.947   5.273
 6904TIP3    H220656   3.944   1.897   5.372
 6905TIP3   OH220657   3.657   2.808   2.395
 6905TIP3    H120658   3.598   2.735   2.372
 6905TIP3    H220659   3.668   2.857   2.314
 6906TIP3   OH220660   2.835   0.907   6.127
 6906TIP3    H120661   2.883   0.968   6.182
 6906TIP3    H220662   2.878   0.822   6.143
 6907TIP3   OH220663   5.303   2.860   1.863
 6907TIP3    H120664   5.236   2.805   1.823
 6907TIP3    H220665   5.335   2.810   1.937
 6908TIP3   OH220666   1.835   4.505   0.886
 6908TIP3    H120667   1.855   4.470   0.799
 6908TIP3    H220668   1.918   4.503   0.932
 6909TIP3   OH220669   7.433   0.145   1.142
 6909TIP3    H120670   7.359   0.202   1.122
 6909TIP3    H220671   7.461   0.110   1.057
 6910TIP3   OH220672   5.144   4.852   2.560
 6910TIP3    H120673   5.086   4.836   2.634
 6910TIP3    H220674   5.111   4.932   2.520
 6911TIP3   OH220675   2.104   5.258   4.089
 6911TIP3    H120676   2.022   5.212   4.074
 6911TIP3    H220677   2.165   5.220   4.026
 6912TIP3   OH220678   4.377   4.835   0.826
 6912TIP3    H120679   4.346   4.860   0.739
 6912TIP3    H220680   4.320   4.763   0.852
 6913TIP3   OH220681   2.008   3.429   2.365
 6913TIP3    H120682   2.097   3.460   2.348
 6913TIP3    H220683   1.996   3.356   2.305
 6914TIP3   OH220684   4.720   6.169   0.397
 6914TIP3    H120685   4.698   6.251   0.353
 6914TIP3    H220686   4.767   6.118   0.331
 6915TIP3   OH220687   5.990   5.877   1.960
 6915TIP3    H120688   5.907   5.845   1.996
 6915TIP3    H220689   6.052   5.806   1.973
 6916TIP3   OH220690   5.522   3.567   2.905
 6916TIP3    H120691   5.470   3.524   2.973
 6916TIP3    H220692   5.507   3.516   2.826
 6917TIP3   OH220693   4.997   3.800   2.129
 6917TIP3    H120694   5.041   3.854   2.195
 6917TIP3    H220695   5.068   3.763   2.076
 6918TIP3   OH220696   0.889   7.347   5.536
 6918TIP3    H120697   0.981   7.327   5.520
 6918TIP3    H220698   0.843   7.315   5.459
 6919TIP3   OH220699   4.160   2.844   1.941
 6919TIP3    H120700   4.180   2.778   2.007
 6919TIP3    H220701   4.069   2.827   1.917
 6920TIP3   OH220702   2.983   5.695   0.964
 6920TIP3    H120703   2.971   5.675   0.871
 6920TIP3    H220704   2.929   5.774   0.978
 6921TIP3   OH220705   1.717   1.093   5.375
 6921TIP3    H120706   1.717   1.164   5.439
 6921TIP3    H220707   1.785   1.117   5.311
 6922TIP3   OH220708   7.546   0.946   0.643
 6922TIP3    H120709   7.616   1.008   0.621
 6922TIP3    H220710   7.476   0.966   0.581
 6923TIP3   OH220711   5.372   3.542   0.232
 6923TIP3    H120712   5.278   3.546   0.215
 6923TIP3    H220713   5.388   3.615   0.292
 6924TIP3   OH220714   7.995   5.992   0.106
 6924TIP3    H120715   7.921   6.027   0.058
 6924TIP3    H220716   7.958   5.920   0.158
 6925TIP3   OH220717   6.595   0.243   3.325
 6925TIP3    H120718   6.604   0.151   3.349
 6925TIP3    H220719   6.675   0.284   3.357
 6926TIP3   OH220720   5.925   0.343   2.960
 6926TIP3    H120721   5.985   0.320   2.889
 6926TIP3    H220722   5.863   0.404   2.921
 6927TIP3   OH220723   3.354   6.622   3.947
 6927TIP3    H120724   3.438   6.624   3.902
 6927TIP3    H220725   3.289   6.621   3.876
 6928TIP3   OH220726   4.177   4.812   0.421
 6928TIP3    H120727   4.095   4.854   0.394
 6928TIP3    H220728   4.244   4.850   0.364
 6929TIP3   OH220729   7.819   1.423   1.554
 6929TIP3    H120730   7.852   1.453   1.469
 6929TIP3    H220731   7.871   1.471   1.618
 6930TIP3   OH220732   4.208   6.927   0.547
 6930TIP3    H120733   4.232   6.869   0.474
 6930TIP3    H220734   4.114   6.939   0.537
 6931TIP3   OH220735   3.511   5.991   3.548
 6931TIP3    H120736   3.582   6.032   3.597
 6931TIP3    H220737   3.452   5.955   3.615
 6932TIP3   OH220738   1.967   2.866   3.074
 6932TIP3    H120739   1.898   2.799   3.074
 6932TIP3    H220740   1.944   2.923   3.001
 6933TIP3   OH220741   5.183   0.262   0.100
 6933TIP3    H120742   5.267   0.265   0.146
 6933TIP3    H220743   5.123   0.225   0.164
 6934TIP3   OH220744   0.528   2.738   5.968
 6934TIP3    H120745   0.538   2.762   5.876
 6934TIP3    H220746   0.617   2.729   6.001
 6935TIP3   OH220747   0.208   3.539   0.261
 6935TIP3    H120748   0.184   3.597   0.189
 6935TIP3    H220749   0.234   3.598   0.332
 6936TIP3   OH220750   6.222   3.074   3.914
 6936TIP3    H120751   6.312   3.089   3.944
 6936TIP3    H220752   6.216   3.124   3.832
 6937TIP3   OH220753   0.289   0.680   2.653
 6937TIP3    H120754   0.317   0.661   2.564
 6937TIP3    H220755   0.270   0.774   2.653
 6938TIP3   OH220756   6.980   7.292   6.611
 6938TIP3    H120757   7.026   7.370   6.578
 6938TIP3    H220758   6.905   7.283   6.552
 6939TIP3   OH220759   1.891   1.672   1.744
 6939TIP3    H120760   1.974   1.682   1.790
 6939TIP3    H220761   1.825   1.667   1.813
 6940TIP3   OH220762   4.925   3.370   5.793
 6940TIP3    H120763   4.927   3.434   5.863
 6940TIP3    H220764   4.832   3.349   5.782
 6941TIP3   OH220765  -0.001   5.131   1.236
 6941TIP3    H120766  -0.008   5.035   1.240
 6941TIP3    H220767   0.011   5.158   1.327
 6942TIP3   OH220768   8.076   1.123   5.013
 6942TIP3    H120769   8.030   1.054   4.965
 6942TIP3    H220770   8.008   1.183   5.041
 6943TIP3   OH220771   1.318   4.511   1.376
 6943TIP3    H120772   1.272   4.472   1.450
 6943TIP3    H220773   1.274   4.595   1.362
 6944TIP3   OH220774   5.126   1.203   0.739
 6944TIP3    H120775   5.120   1.133   0.675
 6944TIP3    H220776   5.196   1.260   0.705
 6945TIP3   OH220777   5.128   3.427   0.199
 6945TIP3    H120778   5.118   3.345   0.150
 6945TIP3    H220779   5.128   3.400   0.291
 6946TIP3   OH220780   4.214   5.897   5.347
 6946TIP3    H120781   4.141   5.837   5.362
 6946TIP3    H220782   4.185   5.980   5.386
 6947TIP3   OH220783   6.799   4.934   0.103
 6947TIP3    H120784   6.879   4.949   0.152
 6947TIP3    H220785   6.798   4.840   0.085
 6948TIP3   OH220786   0.696   4.819   3.535
 6948TIP3    H120787   0.718   4.739   3.487
 6948TIP3    H220788   0.645   4.788   3.610
 6949TIP3   OH220789   1.657   2.985   0.116
 6949TIP3    H120790   1.687   2.904   0.157
 6949TIP3    H220791   1.701   2.987   0.031
 6950TIP3   OH220792   0.887   0.971   0.065
 6950TIP3    H120793   0.886   0.997  -0.028
 6950TIP3    H220794   0.959   0.909   0.072
 6951TIP3   OH220795   1.734   7.121   1.715
 6951TIP3    H120796   1.655   7.133   1.767
 6951TIP3    H220797   1.729   7.189   1.647
 6952TIP3   OH220798   2.261   3.536   3.804
 6952TIP3    H120799   2.351   3.548   3.833
 6952TIP3    H220800   2.253   3.441   3.788
 6953TIP3   OH220801   1.243   3.079   5.994
 6953TIP3    H120802   1.255   2.993   6.035
 6953TIP3    H220803   1.313   3.133   6.030
 6954TIP3   OH220804   1.159   4.855   3.620
 6954TIP3    H120805   1.200   4.941   3.610
 6954TIP3    H220806   1.149   4.844   3.714
 6955TIP3   OH220807   4.376   5.690   2.076
 6955TIP3    H120808   4.312   5.657   2.139
 6955TIP3    H220809   4.460   5.684   2.122
 6956TIP3   OH220810   1.887   4.346   5.531
 6956TIP3    H120811   1.882   4.356   5.436
 6956TIP3    H220812   1.973   4.305   5.546
 6957TIP3   OH220813   1.878   1.387   1.054
 6957TIP3    H120814   1.814   1.334   1.102
 6957TIP3    H220815   1.957   1.333   1.052
 6958TIP3   OH220816   6.126   3.844   4.055
 6958TIP3    H120817   6.191   3.780   4.086
 6958TIP3    H220818   6.111   3.900   4.131
 6959TIP3   OH220819   8.097   5.657   3.205
 6959TIP3    H120820   8.017   5.621   3.243
 6959TIP3    H220821   8.164   5.642   3.272
 6960TIP3   OH220822   0.453   4.844   2.207
 6960TIP3    H120823   0.359   4.851   2.224
 6960TIP3    H220824   0.491   4.817   2.290
 6961TIP3   OH220825   7.570   3.937   1.634
 6961TIP3    H120826   7.525   3.939   1.549
 6961TIP3    H220827   7.589   3.844   1.648
 6962TIP3   OH220828   4.706   4.688   2.278
 6962TIP3    H120829   4.792   4.716   2.246
 6962TIP3    H220830   4.723   4.608   2.328
 6963TIP3   OH220831   5.723   2.934   1.139
 6963TIP3    H120832   5.680   2.957   1.056
 6963TIP3    H220833   5.776   2.857   1.118
 6964TIP3   OH220834   6.998   5.951   0.237
 6964TIP3    H120835   7.068   6.013   0.216
 6964TIP3    H220836   6.922   5.982   0.187
 6965TIP3   OH220837   6.036   4.794   3.101
 6965TIP3    H120838   5.995   4.716   3.063
 6965TIP3    H220839   6.120   4.764   3.134
 6966TIP3   OH220840   6.882   0.326   0.469
 6966TIP3    H120841   6.829   0.260   0.425
 6966TIP3    H220842   6.837   0.409   0.450
 6967TIP3   OH220843   1.031   5.305   5.032
 6967TIP3    H120844   1.105   5.244   5.024
 6967TIP3    H220845   0.956   5.248   5.048
 6968TIP3   OH220846   5.411   1.160   5.865
 6968TIP3    H120847   5.443   1.128   5.781
 6968TIP3    H220848   5.351   1.092   5.896
 6969TIP3   OH220849   2.096   0.226   0.404
 6969TIP3    H120850   2.152   0.170   0.458
 6969TIP3    H220851   2.012   0.228   0.451
 6970TIP3   OH220852   6.946   5.949   1.899
 6970TIP3    H120853   6.930   6.021   1.838
 6970TIP3    H220854   7.041   5.950   1.913
 6971TIP3   OH220855   0.775   0.330   3.984
 6971TIP3    H120856   0.847   0.288   4.032
 6971TIP3    H220857   0.757   0.272   3.911
 6972TIP3   OH220858   4.111   3.294   6.492
 6972TIP3    H120859   4.164   3.214   6.487
 6972TIP3    H220860   4.077   3.295   6.581
 6973TIP3   OH220861   7.569   2.389   6.530
 6973TIP3    H120862   7.597   2.474   6.562
 6973TIP3    H220863   7.647   2.333   6.539
 6974TIP3   OH220864   4.018   2.384   0.110
 6974TIP3    H120865   4.099   2.432   0.090
 6974TIP3    H220866   3.980   2.365   0.025
 6975TIP3   OH220867   8.288   4.391   0.485
 6975TIP3    H120868   8.293   4.365   0.577
 6975TIP3    H220869   8.196   4.380   0.461
 6976TIP3   OH220870   1.805   1.947   5.408
 6976TIP3    H120871   1.711   1.957   5.393
 6976TIP3    H220872   1.830   1.872   5.354
 6977TIP3   OH220873   8.289   1.227   5.220
 6977TIP3    H120874   8.301   1.184   5.135
 6977TIP3    H220875   8.198   1.208   5.244
 6978TIP3   OH220876   7.769   1.492   0.030
 6978TIP3    H120877   7.837   1.519   0.091
 6978TIP3    H220878   7.740   1.406   0.062
 6979TIP3   OH220879   3.869   0.035   1.305
 6979TIP3    H120880   3.878  -0.058   1.286
 6979TIP3    H220881   3.852   0.038   1.399
 6980TIP3   OH220882   1.741   1.667   0.158
 6980TIP3    H120883   1.726   1.591   0.102
 6980TIP3    H220884   1.835   1.682   0.155
 6981TIP3   OH220885   2.251   7.428   0.256
 6981TIP3    H120886   2.230   7.406   0.165
 6981TIP3    H220887   2.347   7.424   0.260
 6982TIP3   OH220888   4.470   0.343   0.342
 6982TIP3    H120889   4.431   0.259   0.364
 6982TIP3    H220890   4.401   0.407   0.362
 6983TIP3   OH220891   0.385   5.256   4.222
 6983TIP3    H120892   0.426   5.200   4.156
 6983TIP3    H220893   0.390   5.344   4.185
 6984TIP3   OH220894   2.283   7.527   5.410
 6984TIP3    H120895   2.342   7.486   5.473
 6984TIP3    H220896   2.340   7.565   5.344
 6985TIP3   OH220897   3.665   5.582   5.419
 6985TIP3    H120898   3.720   5.504   5.408
 6985TIP3    H220899   3.720   5.655   5.389
 6986TIP3   OH220900   1.344   2.383   5.622
 6986TIP3    H120901   1.370   2.472   5.598
 6986TIP3    H220902   1.255   2.374   5.587
 6987TIP3   OH220903   1.207   2.345   2.480
 6987TIP3    H120904   1.139   2.373   2.418
 6987TIP3    H220905   1.231   2.257   2.451
 6988TIP3   OH220906   7.089   1.926   2.089
 6988TIP3    H120907   7.100   1.840   2.130
 6988TIP3    H220908   7.107   1.912   1.996
 6989TIP3   OH220909   3.120   7.387   3.054
 6989TIP3    H120910   3.038   7.399   3.102
 6989TIP3    H220911   3.114   7.298   3.018
 6990TIP3   OH220912   7.510   1.140   0.283
 6990TIP3    H120913   7.467   1.212   0.237
 6990TIP3    H220914   7.583   1.115   0.227
 6991TIP3   OH220915   2.225   4.468   2.387
 6991TIP3    H120916   2.282   4.391   2.378
 6991TIP3    H220917   2.155   4.439   2.446
 6992TIP3   OH220918   6.757   5.753   6.279
 6992TIP3    H120919   6.695   5.806   6.229
 6992TIP3    H220920   6.819   5.816   6.316
 6993TIP3   OH220921   4.445   5.261   4.871
 6993TIP3    H120922   4.510   5.196   4.898
 6993TIP3    H220923   4.470   5.340   4.919
 6994TIP3   OH220924   5.909   0.308   1.463
 6994TIP3    H120925   5.832   0.290   1.409
 6994TIP3    H220926   5.873   0.327   1.549
 6995TIP3   OH220927   6.724   3.359   1.227
 6995TIP3    H120928   6.630   3.348   1.242
 6995TIP3    H220929   6.765   3.291   1.280
 6996TIP3   OH220930   4.145   1.339   4.762
 6996TIP3    H120931   4.226   1.319   4.716
 6996TIP3    H220932   4.136   1.434   4.755
 6997TIP3   OH220933   2.120   0.762   5.832
 6997TIP3    H120934   2.085   0.834   5.885
 6997TIP3    H220935   2.214   0.779   5.829
 6998TIP3   OH220936   2.938   7.754   2.477
 6998TIP3    H120937   2.882   7.728   2.404
 6998TIP3    H220938   2.891   7.725   2.555
 6999TIP3   OH220939   5.355   1.625   6.260
 6999TIP3    H120940   5.362   1.596   6.351
 6999TIP3    H220941   5.445   1.647   6.235
 7000TIP3   OH220942   0.438   2.659   1.849
 7000TIP3    H120943   0.376   2.589   1.872
 7000TIP3    H220944   0.523   2.616   1.853
 7001TIP3   OH220945   1.840   0.910   3.779
 7001TIP3    H120946   1.817   0.983   3.722
 7001TIP3    H220947   1.924   0.935   3.818
 7002TIP3   OH220948   7.679   4.827   0.909
 7002TIP3    H120949   7.768   4.845   0.938
 7002TIP3    H220950   7.630   4.812   0.990
 7003TIP3   OH220951   5.531   0.045   1.515
 7003TIP3    H120952   5.561  -0.042   1.541
 7003TIP3    H220953   5.590   0.070   1.444
 7004TIP3   OH220954   4.305   1.101   5.897
 7004TIP3    H120955   4.255   1.182   5.881
 7004TIP3    H220956   4.333   1.073   5.810
 7005TIP3   OH220957   3.730   3.342   1.300
 7005TIP3    H120958   3.739   3.367   1.208
 7005TIP3    H220959   3.815   3.306   1.323
 7006TIP3   OH220960   4.492   5.220   5.146
 7006TIP3    H120961   4.563   5.284   5.133
 7006TIP3    H220962   4.479   5.218   5.241
 7007TIP3   OH220963   6.601   5.466   1.367
 7007TIP3    H120964   6.570   5.380   1.340
 7007TIP3    H220965   6.607   5.516   1.286
 7008TIP3   OH220966   6.100   0.196   6.741
 7008TIP3    H120967   6.012   0.216   6.709
 7008TIP3    H220968   6.158   0.228   6.672
 7009TIP3   OH220969   8.206   0.555   5.189
 7009TIP3    H120970   8.246   0.618   5.248
 7009TIP3    H220971   8.235   0.470   5.220
 7010TIP3   OH220972   3.453   1.866   1.175
 7010TIP3    H120973   3.391   1.890   1.244
 7010TIP3    H220974   3.414   1.903   1.095
 7011TIP3   OH220975   0.937   7.780   5.921
 7011TIP3    H120976   0.951   7.686   5.919
 7011TIP3    H220977   0.852   7.793   5.879
 7012TIP3   OH220978   4.864   5.535   0.872
 7012TIP3    H120979   4.777   5.497   0.856
 7012TIP3    H220980   4.898   5.554   0.784
 7013TIP3   OH220981   2.094   5.820   3.733
 7013TIP3    H120982   2.181   5.851   3.711
 7013TIP3    H220983   2.035   5.873   3.679
 7014TIP3   OH220984   4.476   5.005   5.698
 7014TIP3    H120985   4.527   5.075   5.657
 7014TIP3    H220986   4.465   5.033   5.789
 7015TIP3   OH220987   3.767   1.274   0.242
 7015TIP3    H120988   3.687   1.227   0.262
 7015TIP3    H220989   3.837   1.210   0.255
 7016TIP3   OH220990   4.069   5.657   5.294
 7016TIP3    H120991   3.981   5.657   5.257
 7016TIP3    H220992   4.126   5.637   5.219
 7017TIP3   OH220993   7.235   7.540   1.112
 7017TIP3    H120994   7.178   7.545   1.035
 7017TIP3    H220995   7.322   7.560   1.079
 7018TIP3   OH220996   6.983   6.039   5.150
 7018TIP3    H120997   6.892   6.023   5.174
 7018TIP3    H220998   7.000   5.979   5.077
 7019TIP3   OH220999   2.601   7.107   1.885
 7019TIP3    H121000   2.580   7.189   1.840
 7019TIP3    H221001   2.552   7.111   1.967
 7020TIP3   OH221002   4.559   2.290   0.094
 7020TIP3    H121003   4.615   2.260   0.166
 7020TIP3    H221004   4.482   2.326   0.138
 7021TIP3   OH221005   8.010   4.439   0.449
 7021TIP3    H121006   8.006   4.533   0.465
 7021TIP3    H221007   7.957   4.426   0.370
 7022TIP3   OH221008   6.548   3.789   5.931
 7022TIP3    H121009   6.574   3.718   5.990
 7022TIP3    H221010   6.470   3.755   5.887
 7023TIP3   OH221011   0.941   1.960   6.358
 7023TIP3    H121012   0.893   2.027   6.309
 7023TIP3    H221013   0.903   1.963   6.446
 7024TIP3   OH221014   3.913   2.617   6.436
 7024TIP3    H121015   3.940   2.595   6.347
 7024TIP3    H221016   3.987   2.593   6.491
 7025TIP3   OH221017   3.848   1.367   4.503
 7025TIP3    H121018   3.923   1.360   4.445
 7025TIP3    H221019   3.884   1.355   4.591
 7026TIP3   OH221020   6.027   4.574   4.195
 7026TIP3    H121021   6.109   4.623   4.197
 7026TIP3    H221022   6.022   4.532   4.281
 7027TIP3   OH221023   6.089   4.276   2.650
 7027TIP3    H121024   6.089   4.218   2.726
 7027TIP3    H221025   6.052   4.223   2.579
 7028TIP3   OH221026   5.297   3.876   2.614
 7028TIP3    H121027   5.285   3.811   2.683
 7028TIP3    H221028   5.210   3.914   2.601
 7029TIP3   OH221029   3.560   2.831   5.463
 7029TIP3    H121030   3.491   2.875   5.414
 7029TIP3    H221031   3.540   2.738   5.454
 7030TIP3   OH221032   3.900   3.289   1.850
 7030TIP3    H121033   3.887   3.199   1.821
 7030TIP3    H221034   3.827   3.338   1.812
 7031TIP3   OH221035   4.607   6.992   5.692
 7031TIP3    H121036   4.611   7.070   5.747
 7031TIP3    H221037   4.622   6.919   5.753
 7032TIP3   OH221038   8.094   5.042   3.903
 7032TIP3    H121039   8.095   5.116   3.842
 7032TIP3    H221040   8.132   5.076   3.983
 7033TIP3   OH221041   5.438   0.643   5.808
 7033TIP3    H121042   5.375   0.650   5.736
 7033TIP3    H221043   5.523   0.658   5.767
 7034TIP3   OH221044   3.387   4.186   6.558
 7034TIP3    H121045   3.423   4.137   6.484
 7034TIP3    H221046   3.324   4.247   6.519
 7035TIP3   OH221047   1.235   7.220   2.202
 7035TIP3    H121048   1.300   7.180   2.260
 7035TIP3    H221049   1.287   7.251   2.128
 7036TIP3   OH221050   7.549   5.906   1.778
 7036TIP3    H121051   7.531   5.913   1.871
 7036TIP3    H221052   7.632   5.952   1.766
 7037TIP3   OH221053   1.850   5.591   2.883
 7037TIP3    H121054   1.791   5.652   2.928
 7037TIP3    H221055   1.795   5.550   2.816
 7038TIP3   OH221056   6.853   1.551   4.524
 7038TIP3    H121057   6.943   1.520   4.539
 7038TIP3    H221058   6.802   1.470   4.517
 7039TIP3   OH221059   6.178   2.588   0.958
 7039TIP3    H121060   6.205   2.604   1.049
 7039TIP3    H221061   6.144   2.499   0.959
 7040TIP3   OH221062   1.941   1.397   0.060
 7040TIP3    H121063   1.909   1.359  -0.022
 7040TIP3    H221064   1.870   1.381   0.123
 7041TIP3   OH221065   1.755   1.423   1.959
 7041TIP3    H121066   1.753   1.518   1.961
 7041TIP3    H221067   1.677   1.396   2.007
 7042TIP3   OH221068   7.275   0.663   6.449
 7042TIP3    H121069   7.332   0.702   6.515
 7042TIP3    H221070   7.302   0.571   6.446
 7043TIP3   OH221071   4.296   3.401   3.872
 7043TIP3    H121072   4.388   3.376   3.876
 7043TIP3    H221073   4.281   3.424   3.781
 7044TIP3   OH221074   2.651   4.290   5.165
 7044TIP3    H121075   2.722   4.234   5.132
 7044TIP3    H221076   2.656   4.369   5.111
 7045TIP3   OH221077   2.155   7.371   4.426
 7045TIP3    H121078   2.119   7.451   4.389
 7045TIP3    H221079   2.174   7.316   4.350
 7046TIP3   OH221080   3.860   2.719   5.095
 7046TIP3    H121081   3.851   2.631   5.057
 7046TIP3    H221082   3.875   2.776   5.019
 7047TIP3   OH221083   2.123   0.377   4.555
 7047TIP3    H121084   2.168   0.453   4.518
 7047TIP3    H221085   2.188   0.307   4.550
 7048TIP3   OH221086   5.151   0.027   3.304
 7048TIP3    H121087   5.152  -0.001   3.213
 7048TIP3    H221088   5.139  -0.054   3.355
 7049TIP3   OH221089   6.323   3.952   1.608
 7049TIP3    H121090   6.267   4.028   1.625
 7049TIP3    H221091   6.267   3.876   1.626
 7050TIP3   OH221092   6.920   1.938   5.096
 7050TIP3    H121093   6.829   1.933   5.125
 7050TIP3    H221094   6.941   1.848   5.070
 7051TIP3   OH221095   4.011   6.697   4.252
 7051TIP3    H121096   3.929   6.651   4.272
 7051TIP3    H221097   3.984   6.770   4.197
 7052TIP3   OH221098   1.271   6.597   4.354
 7052TIP3    H121099   1.235   6.682   4.328
 7052TIP3    H221100   1.283   6.550   4.271
 7053TIP3   OH221101   5.982   0.878   6.520
 7053TIP3    H121102   5.927   0.807   6.485
 7053TIP3    H221103   6.056   0.833   6.560
 7054TIP3   OH221104   0.796   1.702   0.772
 7054TIP3    H121105   0.717   1.745   0.738
 7054TIP3    H221106   0.868   1.756   0.741
 7055TIP3   OH221107   4.808   7.016   6.626
 7055TIP3    H121108   4.884   6.994   6.679
 7055TIP3    H221109   4.838   7.002   6.536
 7056TIP3   OH221110   8.298   4.559   4.052
 7056TIP3    H121111   8.243   4.618   4.002
 7056TIP3    H221112   8.239   4.489   4.080
 7057TIP3   OH221113   3.406   3.652   6.758
 7057TIP3    H121114   3.425   3.579   6.817
 7057TIP3    H221115   3.311   3.661   6.759
 7058TIP3   OH221116   3.300   4.535   0.466
 7058TIP3    H121117   3.257   4.486   0.536
 7058TIP3    H221118   3.261   4.623   0.472
 7059TIP3   OH221119   0.842   0.468   2.615
 7059TIP3    H121120   0.846   0.521   2.536
 7059TIP3    H221121   0.842   0.377   2.584
 7060TIP3   OH221122   3.159   6.321   0.208
 7060TIP3    H121123   3.253   6.302   0.200
 7060TIP3    H221124   3.134   6.355   0.122
 7061TIP3   OH221125   7.003   7.471  -0.010
 7061TIP3    H121126   7.052   7.391   0.007
 7061TIP3    H221127   6.917   7.455   0.029
 7062TIP3   OH221128   6.737   6.183   0.435
 7062TIP3    H121129   6.767   6.144   0.352
 7062TIP3    H221130   6.818   6.210   0.478
 7063TIP3   OH221131   0.304   7.420   3.214
 7063TIP3    H121132   0.263   7.350   3.164
 7063TIP3    H221133   0.322   7.381   3.300
 7064TIP3   OH221134   2.396   0.666   4.740
 7064TIP3    H121135   2.458   0.736   4.722
 7064TIP3    H221136   2.310   0.708   4.734
 7065TIP3   OH221137   6.835   2.489   3.819
 7065TIP3    H121138   6.919   2.442   3.815
 7065TIP3    H221139   6.842   2.557   3.752
 7066TIP3   OH221140   2.802   6.122   3.438
 7066TIP3    H121141   2.839   6.039   3.468
 7066TIP3    H221142   2.871   6.186   3.455
 7067TIP3   OH221143   1.679   7.376   6.711
 7067TIP3    H121144   1.629   7.456   6.695
 7067TIP3    H221145   1.698   7.377   6.805
 7068TIP3   OH221146   5.644   7.836   5.843
 7068TIP3    H121147   5.586   7.841   5.919
 7068TIP3    H221148   5.665   7.743   5.835
 7069TIP3   OH221149   1.445   5.556   4.371
 7069TIP3    H121150   1.534   5.534   4.400
 7069TIP3    H221151   1.441   5.651   4.378
 7070TIP3   OH221152   5.353   4.844   4.878
 7070TIP3    H121153   5.408   4.800   4.942
 7070TIP3    H221154   5.376   4.804   4.794
 7071TIP3   OH221155   4.571   5.932   0.121
 7071TIP3    H121156   4.645   5.991   0.138
 7071TIP3    H221157   4.600   5.848   0.157
 7072TIP3   OH221158   3.975   0.641   4.239
 7072TIP3    H121159   3.916   0.713   4.215
 7072TIP3    H221160   4.060   0.667   4.203
 7073TIP3   OH221161   7.728   2.139   3.837
 7073TIP3    H121162   7.769   2.055   3.858
 7073TIP3    H221163   7.724   2.185   3.921
 7074TIP3   OH221164   3.011   3.801   0.147
 7074TIP3    H121165   3.067   3.854   0.203
 7074TIP3    H221166   2.932   3.787   0.199
 7075TIP3   OH221167   4.185   6.222   6.447
 7075TIP3    H121168   4.136   6.272   6.382
 7075TIP3    H221169   4.276   6.227   6.417
 7076TIP3   OH221170   1.052   5.188   1.388
 7076TIP3    H121171   0.995   5.210   1.461
 7076TIP3    H221172   1.018   5.240   1.315
 7077TIP3   OH221173   3.598   2.581   2.670
 7077TIP3    H121174   3.626   2.630   2.592
 7077TIP3    H221175   3.672   2.525   2.691
 7078TIP3   OH221176   6.937   6.426   2.334
 7078TIP3    H121177   7.009   6.366   2.314
 7078TIP3    H221178   6.964   6.509   2.295
 7079TIP3   OH221179   4.157   0.885   2.207
 7079TIP3    H121180   4.124   0.804   2.168
 7079TIP3    H221181   4.078   0.929   2.239
 7080TIP3   OH221182   1.539   2.333   0.632
 7080TIP3    H121183   1.509   2.313   0.720
 7080TIP3    H221184   1.520   2.426   0.620
 7081TIP3   OH221185   4.799   6.668   2.663
 7081TIP3    H121186   4.741   6.594   2.680
 7081TIP3    H221187   4.746   6.745   2.682
 7082TIP3   OH221188   6.492   5.592   2.246
 7082TIP3    H121189   6.586   5.600   2.263
 7082TIP3    H221190   6.454   5.568   2.330
 7083TIP3   OH221191   0.339   1.514   0.922
 7083TIP3    H121192   0.289   1.495   0.843
 7083TIP3    H221193   0.405   1.578   0.895
 7084TIP3   OH221194   3.560   1.915   3.990
 7084TIP3    H121195   3.650   1.924   4.022
 7084TIP3    H221196   3.558   1.828   3.949
 7085TIP3   OH221197   7.225   5.256   5.690
 7085TIP3    H121198   7.306   5.307   5.700
 7085TIP3    H221199   7.198   5.235   5.779
 7086TIP3   OH221200   6.333   7.219   4.959
 7086TIP3    H121201   6.423   7.248   4.942
 7086TIP3    H221202   6.278   7.283   4.914
 7087TIP3   OH221203   4.436   0.127   4.970
 7087TIP3    H121204   4.481   0.168   5.044
 7087TIP3    H221205   4.489   0.050   4.948
 7088TIP3   OH221206   8.160   1.064   3.896
 7088TIP3    H121207   8.127   1.146   3.934
 7088TIP3    H221208   8.187   1.088   3.807
 7089TIP3   OH221209   8.167   0.940   4.597
 7089TIP3    H121210   8.250   0.962   4.640
 7089TIP3    H221211   8.192   0.888   4.521
 7090TIP3   OH221212   1.321   2.931   1.937
 7090TIP3    H121213   1.339   2.956   2.027
 7090TIP3    H221214   1.246   2.871   1.944
 7091TIP3   OH221215   6.276   3.658   6.384
 7091TIP3    H121216   6.367   3.628   6.389
 7091TIP3    H221217   6.229   3.583   6.348
 7092TIP3   OH221218   3.722   4.426   3.279
 7092TIP3    H121219   3.646   4.413   3.337
 7092TIP3    H221220   3.796   4.436   3.339
 7093TIP3   OH221221   6.142   1.166   5.147
 7093TIP3    H121222   6.183   1.166   5.234
 7093TIP3    H221223   6.200   1.219   5.093
 7094TIP3   OH221224   5.258   3.508   3.341
 7094TIP3    H121225   5.269   3.486   3.434
 7094TIP3    H221226   5.202   3.586   3.342
 7095TIP3   OH221227   7.389   1.477   2.669
 7095TIP3    H121228   7.310   1.431   2.699
 7095TIP3    H221229   7.364   1.516   2.586
 7096TIP3   OH221230   1.580   5.999   3.853
 7096TIP3    H121231   1.564   5.988   3.759
 7096TIP3    H221232   1.645   6.068   3.858
 7097TIP3   OH221233   6.704   2.172   0.989
 7097TIP3    H121234   6.708   2.268   0.995
 7097TIP3    H221235   6.788   2.147   0.951
 7098TIP3   OH221236   5.220   1.620   1.708
 7098TIP3    H121237   5.192   1.692   1.651
 7098TIP3    H221238   5.140   1.569   1.722
 7099TIP3   OH221239   4.730   7.173   1.462
 7099TIP3    H121240   4.650   7.190   1.511
 7099TIP3    H221241   4.781   7.254   1.469
 7100TIP3   OH221242   7.144   0.899   3.959
 7100TIP3    H121243   7.166   0.950   4.037
 7100TIP3    H221244   7.221   0.909   3.902
 7101TIP3   OH221245   4.517   1.558   3.914
 7101TIP3    H121246   4.469   1.629   3.958
 7101TIP3    H221247   4.523   1.489   3.980
 7102TIP3   OH221248   5.286   6.156   3.164
 7102TIP3    H121249   5.376   6.127   3.149
 7102TIP3    H221250   5.262   6.203   3.084
 7103TIP3   OH221251   0.134   1.907   4.126
 7103TIP3    H121252   0.092   1.990   4.145
 7103TIP3    H221253   0.069   1.840   4.149
 7104TIP3   OH221254   2.933   7.026   5.625
 7104TIP3    H121255   2.999   7.016   5.694
 7104TIP3    H221256   2.983   7.052   5.548
 7105TIP3   OH221257   4.186   0.419   6.209
 7105TIP3    H121258   4.278   0.420   6.181
 7105TIP3    H221259   4.151   0.338   6.173
 7106TIP3   OH221260   1.495   4.003   4.846
 7106TIP3    H121261   1.439   3.990   4.922
 7106TIP3    H221262   1.518   3.914   4.817
 7107TIP3   OH221263   7.105   1.714   5.057
 7107TIP3    H121264   7.192   1.753   5.044
 7107TIP3    H221265   7.104   1.638   4.999
 7108TIP3   OH221266   1.952   6.231   6.340
 7108TIP3    H121267   1.896   6.154   6.353
 7108TIP3    H221268   1.891   6.305   6.335
 7109TIP3   OH221269   2.336   4.564   6.193
 7109TIP3    H121270   2.313   4.486   6.142
 7109TIP3    H221271   2.427   4.583   6.170
 7110TIP3   OH221272   3.129   2.132   5.253
 7110TIP3    H121273   3.076   2.205   5.220
 7110TIP3    H221274   3.084   2.104   5.333
 7111TIP3   OH221275   4.224   4.387   3.302
 7111TIP3    H121276   4.187   4.471   3.275
 7111TIP3    H221277   4.314   4.407   3.327
 7112TIP3   OH221278   5.944   6.622   1.254
 7112TIP3    H121279   5.892   6.673   1.316
 7112TIP3    H221280   5.931   6.664   1.170
 7113TIP3   OH221281   3.288   0.997   6.598
 7113TIP3    H121282   3.247   0.946   6.668
 7113TIP3    H221283   3.249   0.963   6.518
 7114TIP3   OH221284   5.416   7.717   6.011
 7114TIP3    H121285   5.416   7.788   6.076
 7114TIP3    H221286   5.445   7.641   6.060
 7115TIP3   OH221287   2.695   1.605   1.983
 7115TIP3    H121288   2.716   1.581   1.892
 7115TIP3    H221289   2.693   1.521   2.030
 7116TIP3   OH221290   6.692   5.693   1.230
 7116TIP3    H121291   6.669   5.756   1.161
 7116TIP3    H221292   6.717   5.746   1.305
 7117TIP3   OH221293   4.059   6.074   0.752
 7117TIP3    H121294   3.993   6.030   0.698
 7117TIP3    H221295   4.016   6.151   0.786
 7118TIP3   OH221296   0.304   7.250   0.187
 7118TIP3    H121297   0.240   7.213   0.126
 7118TIP3    H221298   0.343   7.323   0.138
 7119TIP3   OH221299   3.187   6.452   6.588
 7119TIP3    H121300   3.199   6.383   6.652
 7119TIP3    H221301   3.274   6.489   6.575
 7120TIP3   OH221302   8.002   5.517   0.262
 7120TIP3    H121303   7.995   5.497   0.355
 7120TIP3    H221304   8.019   5.433   0.220
 7121TIP3   OH221305   7.754   4.107   1.363
 7121TIP3    H121306   7.780   4.026   1.408
 7121TIP3    H221307   7.742   4.170   1.434
 7122TIP3   OH221308   3.869   3.983   5.666
 7122TIP3    H121309   3.956   3.943   5.667
 7122TIP3    H221310   3.885   4.075   5.686
 7123TIP3   OH221311   1.039   0.454   4.110
 7123TIP3    H121312   1.011   0.541   4.085
 7123TIP3    H221313   1.129   0.466   4.142
 7124TIP3   OH221314   0.799   3.092   1.592
 7124TIP3    H121315   0.732   3.070   1.527
 7124TIP3    H221316   0.750   3.111   1.672
 7125TIP3   OH221317   3.666   1.662   5.670
 7125TIP3    H121318   3.586   1.705   5.639
 7125TIP3    H221319   3.698   1.613   5.594
 7126TIP3   OH221320   7.977   1.704   3.079
 7126TIP3    H121321   8.068   1.727   3.096
 7126TIP3    H221322   7.970   1.703   2.983
 7127TIP3   OH221323   4.918   4.006   3.528
 7127TIP3    H121324   4.824   4.025   3.520
 7127TIP3    H221325   4.953   4.017   3.440
 7128TIP3   OH221326   4.101   2.341   1.448
 7128TIP3    H121327   4.016   2.342   1.402
 7128TIP3    H221328   4.151   2.272   1.404
 7129TIP3   OH221329   7.923   7.134   1.635
 7129TIP3    H121330   7.913   7.043   1.664
 7129TIP3    H221331   7.858   7.182   1.686
 7130TIP3   OH221332   3.936   1.913   4.407
 7130TIP3    H121333   3.958   1.824   4.379
 7130TIP3    H221334   4.020   1.959   4.408
 7131TIP3   OH221335   2.032   3.415   2.634
 7131TIP3    H121336   1.979   3.490   2.663
 7131TIP3    H221337   2.016   3.410   2.540
 7132TIP3   OH221338   7.150   2.333   4.899
 7132TIP3    H121339   7.079   2.270   4.914
 7132TIP3    H221340   7.119   2.414   4.941
 7133TIP3   OH221341   2.515   2.285   0.775
 7133TIP3    H121342   2.601   2.260   0.741
 7133TIP3    H221343   2.531   2.361   0.830
 7134TIP3   OH221344   2.965   4.638   3.272
 7134TIP3    H121345   2.908   4.702   3.228
 7134TIP3    H221346   3.048   4.683   3.283
 7135TIP3   OH221347   1.767   3.208   0.601
 7135TIP3    H121348   1.774   3.178   0.510
 7135TIP3    H221349   1.855   3.193   0.637
 7136TIP3   OH221350   3.227   4.472   0.900
 7136TIP3    H121351   3.218   4.565   0.878
 7136TIP3    H221352   3.258   4.431   0.819
 7137TIP3   OH221353   1.008   5.906   4.095
 7137TIP3    H121354   0.928   5.871   4.133
 7137TIP3    H221355   0.978   5.974   4.034
 7138TIP3   OH221356   7.355   3.308   3.105
 7138TIP3    H121357   7.351   3.381   3.166
 7138TIP3    H221358   7.285   3.324   3.042
 7139TIP3   OH221359   4.028   0.390   2.967
 7139TIP3    H121360   3.980   0.471   2.983
 7139TIP3    H221361   3.974   0.322   3.007
 7140TIP3   OH221362   6.629   1.777   6.375
 7140TIP3    H121363   6.551   1.736   6.412
 7140TIP3    H221364   6.603   1.803   6.287
 7141TIP3   OH221365   1.497   7.685   2.613
 7141TIP3    H121366   1.514   7.608   2.668
 7141TIP3    H221367   1.528   7.759   2.664
 7142TIP3   OH221368   1.240   7.076   6.061
 7142TIP3    H121369   1.227   7.096   5.968
 7142TIP3    H221370   1.152   7.083   6.099
 7143TIP3   OH221371   1.057   0.946   4.436
 7143TIP3    H121372   1.085   0.864   4.395
 7143TIP3    H221373   1.057   0.927   4.530
 7144TIP3   OH221374   1.580   0.205   1.106
 7144TIP3    H121375   1.556   0.277   1.048
 7144TIP3    H221376   1.503   0.148   1.106
 7145TIP3   OH221377   4.239   5.984   4.492
 7145TIP3    H121378   4.219   5.925   4.566
 7145TIP3    H221379   4.154   6.018   4.466
 7146TIP3   OH221380   5.929   6.913   4.157
 7146TIP3    H121381   6.010   6.890   4.203
 7146TIP3    H221382   5.913   7.004   4.182
 7147TIP3   OH221383   2.156   3.971   0.765
 7147TIP3    H121384   2.065   3.974   0.736
 7147TIP3    H221385   2.169   4.054   0.810
 7148TIP3   OH221386   7.485   3.856   1.096
 7148TIP3    H121387   7.473   3.951   1.091
 7148TIP3    H221388   7.515   3.831   1.009
 7149TIP3   OH221389   5.054   1.818   2.911
 7149TIP3    H121390   4.978   1.811   2.853
 7149TIP3    H221391   5.093   1.731   2.911
 7150TIP3   OH221392   7.110   7.747   4.564
 7150TIP3    H121393   7.102   7.657   4.595
 7150TIP3    H221394   7.152   7.794   4.636
 7151TIP3   OH221395   6.762   7.046   0.536
 7151TIP3    H121396   6.809   7.066   0.618
 7151TIP3    H221397   6.787   7.118   0.477
 7152TIP3   OH221398   0.014   6.505   0.066
 7152TIP3    H121399   0.071   6.471  -0.004
 7152TIP3    H221400  -0.072   6.513   0.025
 7153TIP3   OH221401   1.312   3.207   2.708
 7153TIP3    H121402   1.265   3.214   2.625
 7153TIP3    H221403   1.248   3.232   2.775
 7154TIP3   OH221404   6.685   5.410   3.566
 7154TIP3    H121405   6.705   5.341   3.501
 7154TIP3    H221406   6.621   5.369   3.624
 7155TIP3   OH221407   5.112   3.122   5.806
 7155TIP3    H121408   5.030   3.170   5.793
 7155TIP3    H221409   5.173   3.164   5.746
 7156TIP3   OH221410   6.830   3.585   0.557
 7156TIP3    H121411   6.795   3.667   0.521
 7156TIP3    H221412   6.923   3.604   0.574
 7157TIP3   OH221413   0.390   2.581   6.149
 7157TIP3    H121414   0.314   2.629   6.182
 7157TIP3    H221415   0.438   2.646   6.097
 7158TIP3   OH221416   2.841   6.813   0.475
 7158TIP3    H121417   2.882   6.871   0.538
 7158TIP3    H221418   2.806   6.871   0.407
 7159TIP3   OH221419   0.044   3.345   2.851
 7159TIP3    H121420   0.136   3.367   2.863
 7159TIP3    H221421   0.044   3.252   2.828
 7160TIP3   OH221422   7.994   6.912   4.024
 7160TIP3    H121423   8.060   6.866   3.972
 7160TIP3    H221424   8.041   6.987   4.060
 7161TIP3   OH221425   5.354   4.381   6.452
 7161TIP3    H121426   5.373   4.326   6.376
 7161TIP3    H221427   5.314   4.322   6.515
 7162TIP3   OH221428   6.490   7.042   6.657
 7162TIP3    H121429   6.443   7.035   6.740
 7162TIP3    H221430   6.519   6.953   6.639
 7163TIP3   OH221431   3.313   7.552   0.728
 7163TIP3    H121432   3.304   7.629   0.785
 7163TIP3    H221433   3.369   7.492   0.778
 7164TIP3   OH221434   0.476   5.291   0.710
 7164TIP3    H121435   0.561   5.248   0.708
 7164TIP3    H221436   0.487   5.363   0.772
 7165TIP3   OH221437   8.183   4.839   4.225
 7165TIP3    H121438   8.132   4.758   4.222
 7165TIP3    H221439   8.158   4.886   4.145
 7166TIP3   OH221440   2.617   6.714   3.960
 7166TIP3    H121441   2.709   6.689   3.968
 7166TIP3    H221442   2.589   6.677   3.876
 7167TIP3   OH221443   0.527   4.413   3.111
 7167TIP3    H121444   0.446   4.430   3.159
 7167TIP3    H221445   0.533   4.485   3.047
 7168TIP3   OH221446   1.806   6.923   2.155
 7168TIP3    H121447   1.884   6.925   2.210
 7168TIP3    H221448   1.836   6.885   2.072
 7169TIP3   OH221449   8.052   2.761   1.132
 7169TIP3    H121450   7.964   2.792   1.152
 7169TIP3    H221451   8.051   2.669   1.157
 7170TIP3   OH221452   7.579   7.741   1.204
 7170TIP3    H121453   7.498   7.786   1.177
 7170TIP3    H221454   7.606   7.692   1.127
 7171TIP3   OH221455   1.931   1.351   3.120
 7171TIP3    H121456   2.016   1.311   3.098
 7171TIP3    H221457   1.951   1.443   3.136
 7172TIP3   OH221458   5.902   2.786   1.439
 7172TIP3    H121459   5.979   2.829   1.401
 7172TIP3    H221460   5.895   2.826   1.526
 7173TIP3   OH221461   6.338   6.177   1.887
 7173TIP3    H121462   6.293   6.193   1.804
 7173TIP3    H221463   6.380   6.092   1.876
 7174TIP3   OH221464   2.393   3.275   0.317
 7174TIP3    H121465   2.322   3.305   0.261
 7174TIP3    H221466   2.357   3.277   0.406
 7175TIP3   OH221467   0.825   6.361   1.745
 7175TIP3    H121468   0.791   6.406   1.668
 7175TIP3    H221469   0.755   6.302   1.772
 7176TIP3   OH221470   5.245   0.967   2.909
 7176TIP3    H121471   5.258   0.882   2.868
 7176TIP3    H221472   5.164   0.957   2.959
 7177TIP3   OH221473   1.293   0.925   4.968
 7177TIP3    H121474   1.370   0.982   4.970
 7177TIP3    H221475   1.266   0.917   5.059
 7178TIP3   OH221476   4.609   3.064   0.729
 7178TIP3    H121477   4.638   3.069   0.638
 7178TIP3    H221478   4.589   3.155   0.753
 7179TIP3   OH221479   7.210   7.447   5.375
 7179TIP3    H121480   7.175   7.409   5.294
 7179TIP3    H221481   7.278   7.385   5.403
 7180TIP3   OH221482   2.177   0.939   0.690
 7180TIP3    H121483   2.198   1.030   0.670
 7180TIP3    H221484   2.099   0.945   0.746
 7181TIP3   OH221485   2.240   5.684   0.121
 7181TIP3    H121486   2.303   5.721   0.184
 7181TIP3    H221487   2.227   5.754   0.057
 7182TIP3   OH221488   4.095   0.545   5.958
 7182TIP3    H121489   4.109   0.639   5.961
 7182TIP3    H221490   4.138   0.512   6.038
 7183TIP3   OH221491   3.818   6.694   3.796
 7183TIP3    H121492   3.861   6.778   3.782
 7183TIP3    H221493   3.848   6.639   3.723
 7184TIP3   OH221494   5.246   5.946   5.123
 7184TIP3    H121495   5.281   5.885   5.058
 7184TIP3    H221496   5.276   5.910   5.207
 7185TIP3   OH221497   7.168   5.686   0.526
 7185TIP3    H121498   7.203   5.734   0.601
 7185TIP3    H221499   7.180   5.594   0.548
 7186TIP3   OH221500   2.996   5.399   4.313
 7186TIP3    H121501   3.007   5.304   4.313
 7186TIP3    H221502   2.930   5.415   4.380
 7187TIP3   OH221503   3.316   1.661   2.206
 7187TIP3    H121504   3.262   1.735   2.179
 7187TIP3    H221505   3.386   1.657   2.141
 7188TIP3   OH221506   6.456   2.727   4.096
 7188TIP3    H121507   6.456   2.633   4.079
 7188TIP3    H221508   6.475   2.768   4.012
 7189TIP3   OH221509   5.222   2.549   5.922
 7189TIP3    H121510   5.263   2.636   5.920
 7189TIP3    H221511   5.219   2.522   5.830
 7190TIP3   OH221512   2.207   5.018   4.488
 7190TIP3    H121513   2.264   4.967   4.430
 7190TIP3    H221514   2.251   5.015   4.573
 7191TIP3   OH221515   3.791   3.785   2.442
 7191TIP3    H121516   3.798   3.801   2.536
 7191TIP3    H221517   3.858   3.720   2.423
 7192TIP3   OH221518   5.468   3.850   6.008
 7192TIP3    H121519   5.485   3.793   5.933
 7192TIP3    H221520   5.412   3.919   5.973
 7193TIP3   OH221521   3.447   5.967   2.626
 7193TIP3    H121522   3.463   5.901   2.693
 7193TIP3    H221523   3.398   5.921   2.558
 7194TIP3   OH221524   2.144   5.511   3.313
 7194TIP3    H121525   2.053   5.508   3.343
 7194TIP3    H221526   2.155   5.600   3.280
 7195TIP3   OH221527   1.195   0.220   4.967
 7195TIP3    H121528   1.185   0.162   4.891
 7195TIP3    H221529   1.106   0.239   4.994
 7196TIP3   OH221530   2.175   6.345   6.791
 7196TIP3    H121531   2.204   6.432   6.819
 7196TIP3    H221532   2.087   6.358   6.757
 7197TIP3   OH221533   2.770   6.021   4.643
 7197TIP3    H121534   2.843   6.082   4.637
 7197TIP3    H221535   2.806   5.937   4.615
 7198TIP3   OH221536   4.971   6.915   2.132
 7198TIP3    H121537   5.055   6.875   2.110
 7198TIP3    H221538   4.906   6.859   2.089
 7199TIP3   OH221539   3.258   3.325   6.468
 7199TIP3    H121540   3.244   3.291   6.556
 7199TIP3    H221541   3.170   3.332   6.431
 7200TIP3   OH221542   8.248   7.474   6.144
 7200TIP3    H121543   8.233   7.562   6.109
 7200TIP3    H221544   8.189   7.418   6.094
 7201TIP3   OH221545   5.080   6.088   5.612
 7201TIP3    H121546   5.167   6.050   5.613
 7201TIP3    H221547   5.094   6.180   5.589
 7202TIP3   OH221548   4.296   4.170   1.056
 7202TIP3    H121549   4.263   4.249   1.015
 7202TIP3    H221550   4.368   4.142   1.000
 7203TIP3   OH221551   8.176   0.346   3.461
 7203TIP3    H121552   8.083   0.335   3.440
 7203TIP3    H221553   8.221   0.340   3.377
 7204TIP3   OH221554   0.734   2.303   2.588
 7204TIP3    H121555   0.718   2.311   2.494
 7204TIP3    H221556   0.753   2.393   2.617
 7205TIP3   OH221557   0.108   6.041   2.545
 7205TIP3    H121558   0.185   6.082   2.585
 7205TIP3    H221559   0.078   5.977   2.609
 7206TIP3   OH221560   5.768   7.028   5.936
 7206TIP3    H121561   5.767   6.934   5.919
 7206TIP3    H221562   5.687   7.044   5.984
 7207TIP3   OH221563   8.321   6.067   5.279
 7207TIP3    H121564   8.254   6.062   5.348
 7207TIP3    H221565   8.273   6.096   5.201
 7208TIP3   OH221566   6.605   6.479   1.726
 7208TIP3    H121567   6.635   6.443   1.643
 7208TIP3    H221568   6.599   6.574   1.711
 7209TIP3   OH221569   1.245   5.092   6.426
 7209TIP3    H121570   1.170   5.033   6.423
 7209TIP3    H221571   1.311   5.044   6.477
 7210TIP3   OH221572   3.541   3.501   4.107
 7210TIP3    H121573   3.474   3.452   4.060
 7210TIP3    H221574   3.610   3.516   4.043
 7211TIP3   OH221575   6.362   2.403   5.939
 7211TIP3    H121576   6.347   2.495   5.960
 7211TIP3    H221577   6.410   2.369   6.015
 7212TIP3   OH221578   6.890   6.525   2.884
 7212TIP3    H121579   6.959   6.471   2.924
 7212TIP3    H221580   6.931   6.563   2.807
 7213TIP3   OH221581   7.927   6.301   1.202
 7213TIP3    H121582   7.848   6.249   1.196
 7213TIP3    H221583   7.989   6.259   1.142
 7214TIP3   OH221584   7.460   1.974   6.370
 7214TIP3    H121585   7.544   2.019   6.385
 7214TIP3    H221586   7.475   1.923   6.290
 7215TIP3   OH221587   5.570   2.234   3.068
 7215TIP3    H121588   5.477   2.226   3.090
 7215TIP3    H221589   5.586   2.165   3.005
 7216TIP3   OH221590   5.677   1.199   2.296
 7216TIP3    H121591   5.681   1.295   2.304
 7216TIP3    H221592   5.769   1.172   2.302
 7217TIP3   OH221593   0.680   7.642   2.774
 7217TIP3    H121594   0.646   7.558   2.744
 7217TIP3    H221595   0.633   7.707   2.722
 7218TIP3   OH221596   2.985   6.986   4.045
 7218TIP3    H121597   3.067   7.034   4.059
 7218TIP3    H221598   3.011   6.895   4.041
 7219TIP3   OH221599   1.609   5.602   0.848
 7219TIP3    H121600   1.571   5.609   0.760
 7219TIP3    H221601   1.653   5.686   0.861
 7220TIP3   OH221602   3.918   1.474   4.954
 7220TIP3    H121603   3.949   1.459   5.044
 7220TIP3    H221604   3.940   1.566   4.937
 7221TIP3   OH221605   2.114   0.956   3.869
 7221TIP3    H121606   2.208   0.967   3.882
 7221TIP3    H221607   2.080   0.938   3.956
 7222TIP3   OH221608   2.407   2.441   0.259
 7222TIP3    H121609   2.475   2.479   0.313
 7222TIP3    H221610   2.338   2.415   0.321
 7223TIP3   OH221611   5.805   6.724   4.412
 7223TIP3    H121612   5.867   6.707   4.483
 7223TIP3    H221613   5.847   6.791   4.359
 7224TIP3   OH221614   5.646   6.548   4.275
 7224TIP3    H121615   5.705   6.595   4.334
 7224TIP3    H221616   5.569   6.603   4.268
 7225TIP3   OH221617   0.296   6.243   2.625
 7225TIP3    H121618   0.378   6.249   2.575
 7225TIP3    H221619   0.324   6.226   2.715
 7226TIP3   OH221620   0.886   4.099   4.242
 7226TIP3    H121621   0.979   4.101   4.264
 7226TIP3    H221622   0.876   4.168   4.176
 7227TIP3   OH221623   7.515   5.006   0.052
 7227TIP3    H121624   7.585   4.942   0.063
 7227TIP3    H221625   7.553   5.074  -0.003
 7228TIP3   OH221626   1.332   5.351   2.976
 7228TIP3    H121627   1.328   5.258   2.952
 7228TIP3    H221628   1.300   5.355   3.066
 7229TIP3   OH221629   3.846   0.145   1.025
 7229TIP3    H121630   3.828   0.235   1.054
 7229TIP3    H221631   3.863   0.097   1.105
 7230TIP3   OH221632   6.860   2.390   3.249
 7230TIP3    H121633   6.906   2.327   3.305
 7230TIP3    H221634   6.928   2.449   3.218
 7231TIP3   OH221635   7.195   0.911   5.960
 7231TIP3    H121636   7.260   0.841   5.953
 7231TIP3    H221637   7.111   0.867   5.951
 7232TIP3   OH221638   2.142   7.270   1.726
 7232TIP3    H121639   2.173   7.360   1.741
 7232TIP3    H221640   2.063   7.263   1.779
 7233TIP3   OH221641   4.083   5.710   1.848
 7233TIP3    H121642   4.163   5.709   1.795
 7233TIP3    H221643   4.024   5.768   1.801
 7234TIP3   OH221644   4.449   2.809   0.650
 7234TIP3    H121645   4.484   2.733   0.603
 7234TIP3    H221646   4.513   2.878   0.635
 7235TIP3   OH221647   7.230   0.604   1.681
 7235TIP3    H121648   7.279   0.540   1.630
 7235TIP3    H221649   7.280   0.686   1.670
 7236TIP3   OH221650   4.606   5.879   6.145
 7236TIP3    H121651   4.550   5.844   6.214
 7236TIP3    H221652   4.682   5.822   6.144
 7237TIP3   OH221653   7.166   7.341   3.060
 7237TIP3    H121654   7.203   7.391   2.987
 7237TIP3    H221655   7.083   7.307   3.026
 7238TIP3   OH221656   6.741   1.498   5.389
 7238TIP3    H121657   6.835   1.519   5.387
 7238TIP3    H221658   6.720   1.475   5.299
 7239TIP3   OH221659   3.483   3.774   2.437
 7239TIP3    H121660   3.453   3.709   2.373
 7239TIP3    H221661   3.579   3.771   2.431
 7240TIP3   OH221662   1.557   6.018   4.215
 7240TIP3    H121663   1.640   6.022   4.167
 7240TIP3    H221664   1.583   5.994   4.304
 7241TIP3   OH221665   3.468   2.230   2.824
 7241TIP3    H121666   3.480   2.144   2.864
 7241TIP3    H221667   3.482   2.216   2.730
 7242TIP3   OH221668   0.270   3.425   1.507
 7242TIP3    H121669   0.338   3.433   1.440
 7242TIP3    H221670   0.315   3.435   1.590
 7243TIP3   OH221671   7.470   6.117   0.913
 7243TIP3    H121672   7.379   6.091   0.928
 7243TIP3    H221673   7.518   6.034   0.906
 7244TIP3   OH221674   6.319   6.669   1.720
 7244TIP3    H121675   6.401   6.620   1.723
 7244TIP3    H221676   6.306   6.699   1.810
 7245TIP3   OH221677   3.257   4.738   0.779
 7245TIP3    H121678   3.253   4.793   0.701
 7245TIP3    H221679   3.310   4.788   0.841
 7246TIP3   OH221680   1.425   6.235   5.190
 7246TIP3    H121681   1.348   6.291   5.190
 7246TIP3    H221682   1.397   6.154   5.232
 7247TIP3   OH221683   6.048   2.738   6.132
 7247TIP3    H121684   6.052   2.781   6.046
 7247TIP3    H221685   6.027   2.647   6.112
 7248TIP3   OH221686   0.330   2.087   5.522
 7248TIP3    H121687   0.403   2.090   5.584
 7248TIP3    H221688   0.369   2.108   5.438
 7249TIP3   OH221689   1.126   3.484   1.374
 7249TIP3    H121690   1.160   3.396   1.389
 7249TIP3    H221691   1.049   3.472   1.318
 7250TIP3   OH221692   5.372   2.712   5.437
 7250TIP3    H121693   5.357   2.805   5.453
 7250TIP3    H221694   5.438   2.710   5.368
 7251TIP3   OH221695   1.733   1.575   4.654
 7251TIP3    H121696   1.798   1.641   4.675
 7251TIP3    H221697   1.709   1.537   4.739
 7252TIP3   OH221698   6.240   1.325   3.328
 7252TIP3    H121699   6.231   1.230   3.321
 7252TIP3    H221700   6.169   1.360   3.274
 7253TIP3   OH221701   6.978   0.447   2.677
 7253TIP3    H121702   6.989   0.410   2.589
 7253TIP3    H221703   6.994   0.541   2.665
 7254TIP3   OH221704   4.931   1.800   5.038
 7254TIP3    H121705   5.024   1.777   5.032
 7254TIP3    H221706   4.932   1.895   5.054
 7255TIP3   OH221707   4.297   2.430   6.366
 7255TIP3    H121708   4.226   2.367   6.375
 7255TIP3    H221709   4.372   2.378   6.338
 7256TIP3   OH221710   7.075   5.891   1.376
 7256TIP3    H121711   7.161   5.929   1.395
 7256TIP3    H221712   7.086   5.797   1.393
 7257TIP3   OH221713   4.886   4.267   0.173
 7257TIP3    H121714   4.800   4.290   0.138
 7257TIP3    H221715   4.896   4.174   0.153
 7258TIP3   OH221716   6.040   2.683   2.006
 7258TIP3    H121717   5.950   2.712   2.024
 7258TIP3    H221718   6.092   2.722   2.077
 7259TIP3   OH221719   7.678   7.062   4.916
 7259TIP3    H121720   7.583   7.051   4.918
 7259TIP3    H221721   7.704   7.039   4.827
 7260TIP3   OH221722   4.465   2.553   4.250
 7260TIP3    H121723   4.427   2.495   4.315
 7260TIP3    H221724   4.522   2.496   4.198
 7261TIP3   OH221725   4.679   5.555   1.730
 7261TIP3    H121726   4.631   5.577   1.650
 7261TIP3    H221727   4.770   5.577   1.709
 7262TIP3   OH221728   2.180   3.114   5.892
 7262TIP3    H121729   2.110   3.057   5.922
 7262TIP3    H221730   2.251   3.100   5.955
 7263TIP3   OH221731   1.337   5.730   5.232
 7263TIP3    H121732   1.276   5.746   5.305
 7263TIP3    H221733   1.291   5.668   5.176
 7264TIP3   OH221734   5.136   1.722   3.893
 7264TIP3    H121735   5.102   1.801   3.935
 7264TIP3    H221736   5.091   1.650   3.936
 7265TIP3   OH221737   1.949   4.696   4.799
 7265TIP3    H121738   1.891   4.755   4.847
 7265TIP3    H221739   2.037   4.731   4.814
 7266TIP3   OH221740   4.694   1.779   2.050
 7266TIP3    H121741   4.783   1.784   2.085
 7266TIP3    H221742   4.647   1.850   2.093
 7267TIP3   OH221743   2.780   2.316   1.614
 7267TIP3    H121744   2.819   2.235   1.646
 7267TIP3    H221745   2.845   2.383   1.633
 7268TIP3   OH221746   1.687   2.775   3.028
 7268TIP3    H121747   1.658   2.800   2.941
 7268TIP3    H221748   1.617   2.805   3.087
 7269TIP3   OH221749   5.555   4.312   4.098
 7269TIP3    H121750   5.595   4.230   4.068
 7269TIP3    H221751   5.628   4.374   4.101
 7270TIP3   OH221752   1.465   4.933   0.737
 7270TIP3    H121753   1.490   4.899   0.651
 7270TIP3    H221754   1.371   4.915   0.743
 7271TIP3   OH221755   5.586   2.375   6.275
 7271TIP3    H121756   5.504   2.354   6.320
 7271TIP3    H221757   5.586   2.317   6.198
 7272TIP3   OH221758   1.306   2.056   4.799
 7272TIP3    H121759   1.380   2.063   4.738
 7272TIP3    H221760   1.254   1.984   4.764
 7273TIP3   OH221761   0.222   4.352   1.135
 7273TIP3    H121762   0.265   4.347   1.050
 7273TIP3    H221763   0.186   4.264   1.149
 7274TIP3   OH221764   1.349   3.815   3.354
 7274TIP3    H121765   1.383   3.897   3.319
 7274TIP3    H221766   1.408   3.793   3.426
 7275TIP3   OH221767   4.155   6.393   3.886
 7275TIP3    H121768   4.206   6.427   3.813
 7275TIP3    H221769   4.190   6.305   3.900
 7276TIP3   OH221770   0.283   6.447   2.071
 7276TIP3    H121771   0.193   6.421   2.053
 7276TIP3    H221772   0.311   6.390   2.142
 7277TIP3   OH221773   4.699   5.351   6.012
 7277TIP3    H121774   4.673   5.353   6.104
 7277TIP3    H221775   4.758   5.275   6.005
 7278TIP3   OH221776   2.313   4.981   4.730
 7278TIP3    H121777   2.355   5.042   4.790
 7278TIP3    H221778   2.325   4.895   4.770
 7279TIP3   OH221779   3.601   2.428   0.403
 7279TIP3    H121780   3.604   2.332   0.412
 7279TIP3    H221781   3.678   2.449   0.350
 7280TIP3   OH221782   2.716   3.075   2.043
 7280TIP3    H121783   2.641   3.062   1.985
 7280TIP3    H221784   2.714   2.999   2.101
 7281TIP3   OH221785   1.382   3.859   5.946
 7281TIP3    H121786   1.320   3.932   5.956
 7281TIP3    H221787   1.467   3.898   5.967
 7282TIP3   OH221788   2.201   3.364   0.137
 7282TIP3    H121789   2.245   3.349   0.054
 7282TIP3    H221790   2.131   3.427   0.115
 7283TIP3   OH221791   7.970   3.135   6.425
 7283TIP3    H121792   8.046   3.078   6.433
 7283TIP3    H221793   7.976   3.194   6.500
 7284TIP3   OH221794   5.216   3.969   4.537
 7284TIP3    H121795   5.152   3.931   4.598
 7284TIP3    H221796   5.229   4.058   4.569
 7285TIP3   OH221797   2.249   7.016   3.885
 7285TIP3    H121798   2.331   6.969   3.898
 7285TIP3    H221799   2.274   7.108   3.881
 7286TIP3   OH221800   4.195   6.364   2.702
 7286TIP3    H121801   4.256   6.309   2.653
 7286TIP3    H221802   4.160   6.306   2.770
 7287TIP3   OH221803   8.246   7.715   3.838
 7287TIP3    H121804   8.216   7.794   3.795
 7287TIP3    H221805   8.341   7.726   3.847
 7288TIP3   OH221806   5.708   1.037   0.708
 7288TIP3    H121807   5.663   1.109   0.754
 7288TIP3    H221808   5.669   0.958   0.745
 7289TIP3   OH221809   7.087   3.140   1.179
 7289TIP3    H121810   7.036   3.173   1.253
 7289TIP3    H221811   7.043   3.059   1.154
 7290TIP3   OH221812   2.399   3.388   6.276
 7290TIP3    H121813   2.456   3.435   6.336
 7290TIP3    H221814   2.358   3.457   6.223
 7291TIP3   OH221815   6.202   2.890   2.854
 7291TIP3    H121816   6.187   2.959   2.920
 7291TIP3    H221817   6.272   2.836   2.891
 7292TIP3   OH221818   0.372   4.478   5.264
 7292TIP3    H121819   0.309   4.497   5.333
 7292TIP3    H221820   0.440   4.425   5.307
 7293TIP3   OH221821   5.401   3.207   3.342
 7293TIP3    H121822   5.318   3.167   3.366
 7293TIP3    H221823   5.456   3.199   3.420
 7294TIP3   OH221824   3.681   6.993   0.904
 7294TIP3    H121825   3.696   6.960   0.993
 7294TIP3    H221826   3.733   6.935   0.848
 7295TIP3   OH221827   8.039   0.615   4.972
 7295TIP3    H121828   8.078   0.602   5.058
 7295TIP3    H221829   8.062   0.537   4.923
 7296TIP3   OH221830   6.011   2.096   2.322
 7296TIP3    H121831   6.090   2.050   2.293
 7296TIP3    H221832   6.039   2.186   2.333
 7297TIP3   OH221833   5.283   2.814   5.814
 7297TIP3    H121834   5.360   2.767   5.780
 7297TIP3    H221835   5.257   2.872   5.743
 7298TIP3   OH221836   1.422   6.905   5.620
 7298TIP3    H121837   1.436   6.855   5.540
 7298TIP3    H221838   1.463   6.853   5.689
 7299TIP3   OH221839   7.758   2.062   1.193
 7299TIP3    H121840   7.744   2.154   1.169
 7299TIP3    H221841   7.690   2.015   1.144
 7300TIP3   OH221842   8.132   4.688   2.256
 7300TIP3    H121843   8.122   4.740   2.177
 7300TIP3    H221844   8.214   4.640   2.242
 7301TIP3   OH221845   1.240   4.076   3.819
 7301TIP3    H121846   1.300   4.067   3.893
 7301TIP3    H221847   1.159   4.034   3.847
 7302TIP3   OH221848   1.247   7.442   3.166
 7302TIP3    H121849   1.152   7.438   3.178
 7302TIP3    H221850   1.259   7.449   3.071
 7303TIP3   OH221851   4.995   4.830   2.797
 7303TIP3    H121852   4.974   4.738   2.807
 7303TIP3    H221853   4.946   4.874   2.866
 7304TIP3   OH221854   8.146   2.715   2.122
 7304TIP3    H121855   8.237   2.686   2.123
 7304TIP3    H221856   8.151   2.810   2.124
 7305TIP3   OH221857   0.331   3.381   1.011
 7305TIP3    H121858   0.332   3.295   1.053
 7305TIP3    H221859   0.245   3.418   1.032
 7306TIP3   OH221860   3.336   4.871   6.040
 7306TIP3    H121861   3.414   4.840   5.993
 7306TIP3    H221862   3.351   4.846   6.131
 7307TIP3   OH221863   5.174   0.771   2.372
 7307TIP3    H121864   5.086   0.770   2.333
 7307TIP3    H221865   5.181   0.856   2.413
 7308TIP3   OH221866   4.668   0.661   1.588
 7308TIP3    H121867   4.604   0.691   1.652
 7308TIP3    H221868   4.671   0.732   1.523
 7309TIP3   OH221869   5.704   2.271   0.482
 7309TIP3    H121870   5.794   2.244   0.500
 7309TIP3    H221871   5.708   2.310   0.395
 7310TIP3   OH221872   4.636   3.192   4.117
 7310TIP3    H121873   4.611   3.281   4.095
 7310TIP3    H221874   4.635   3.145   4.033
 7311TIP3   OH221875   6.930   6.418   0.037
 7311TIP3    H121876   6.886   6.383   0.115
 7311TIP3    H221877   6.973   6.497   0.068
 7312TIP3   OH221878   5.808   4.374   1.548
 7312TIP3    H121879   5.832   4.376   1.641
 7312TIP3    H221880   5.792   4.465   1.526
 7313TIP3   OH221881   6.237   4.382   1.684
 7313TIP3    H121882   6.208   4.426   1.604
 7313TIP3    H221883   6.233   4.289   1.663
 7314TIP3   OH221884   5.618   7.506   3.121
 7314TIP3    H121885   5.712   7.509   3.142
 7314TIP3    H221886   5.615   7.465   3.034
 7315TIP3   OH221887   6.784   5.241   3.889
 7315TIP3    H121888   6.698   5.214   3.857
 7315TIP3    H221889   6.792   5.202   3.976
 7316TIP3   OH221890   4.346   4.777   5.754
 7316TIP3    H121891   4.366   4.779   5.848
 7316TIP3    H221892   4.404   4.843   5.716
 7317TIP3   OH221893   6.340   6.575   4.163
 7317TIP3    H121894   6.398   6.624   4.221
 7317TIP3    H221895   6.370   6.598   4.075
 7318TIP3   OH221896   6.889   0.611   6.783
 7318TIP3    H121897   6.876   0.516   6.790
 7318TIP3    H221898   6.830   0.637   6.712
 7319TIP3   OH221899   5.561   5.728   6.132
 7319TIP3    H121900   5.590   5.708   6.043
 7319TIP3    H221901   5.629   5.785   6.168
 7320TIP3   OH221902   4.007   0.062   0.436
 7320TIP3    H121903   3.943   0.099   0.497
 7320TIP3    H221904   3.966   0.070   0.350
 7321TIP3   OH221905   1.758   1.933   0.274
 7321TIP3    H121906   1.690   2.000   0.278
 7321TIP3    H221907   1.714   1.857   0.236
 7322TIP3   OH221908   2.182   6.478   3.733
 7322TIP3    H121909   2.097   6.460   3.774
 7322TIP3    H221910   2.166   6.469   3.639
 7323TIP3   OH221911   7.172   6.664   2.470
 7323TIP3    H121912   7.126   6.632   2.393
 7323TIP3    H221913   7.215   6.587   2.507
 7324TIP3   OH221914   8.221   2.878   0.259
 7324TIP3    H121915   8.158   2.881   0.331
 7324TIP3    H221916   8.169   2.852   0.183
 7325TIP3   OH221917   0.543   1.702   1.221
 7325TIP3    H121918   0.580   1.713   1.133
 7325TIP3    H221919   0.449   1.716   1.209
 7326TIP3   OH221920   2.847   5.673   3.130
 7326TIP3    H121921   2.911   5.612   3.167
 7326TIP3    H221922   2.764   5.625   3.133
 7327TIP3   OH221923   3.572   5.866   0.789
 7327TIP3    H121924   3.487   5.897   0.819
 7327TIP3    H221925   3.559   5.844   0.697
 7328TIP3   OH221926   5.427   3.529   3.854
 7328TIP3    H121927   5.389   3.480   3.928
 7328TIP3    H221928   5.515   3.552   3.883
 7329TIP3   OH221929   7.293   2.044   2.899
 7329TIP3    H121930   7.341   1.961   2.897
 7329TIP3    H221931   7.264   2.058   2.809
 7330TIP3   OH221932   4.158   1.616   6.632
 7330TIP3    H121933   4.183   1.616   6.539
 7330TIP3    H221934   4.141   1.707   6.653
 7331TIP3   OH221935   0.718   0.112   3.486
 7331TIP3    H121936   0.624   0.094   3.484
 7331TIP3    H221937   0.758   0.032   3.454
 7332TIP3   OH221938   4.886   0.890   2.527
 7332TIP3    H121939   4.941   0.968   2.535
 7332TIP3    H221940   4.904   0.856   2.440
 7333TIP3   OH221941   7.677   6.020   3.712
 7333TIP3    H121942   7.583   6.005   3.718
 7333TIP3    H221943   7.714   5.934   3.695
 7334TIP3   OH221944   0.209   0.745   2.082
 7334TIP3    H121945   0.174   0.680   2.142
 7334TIP3    H221946   0.206   0.827   2.131
 7335TIP3   OH221947   6.736   2.287   5.069
 7335TIP3    H121948   6.698   2.367   5.032
 7335TIP3    H221949   6.809   2.266   5.011
 7336TIP3   OH221950   0.021   6.193   1.778
 7336TIP3    H121951  -0.055   6.215   1.831
 7336TIP3    H221952   0.048   6.107   1.808
 7337TIP3   OH221953   5.116   0.438   3.112
 7337TIP3    H121954   5.156   0.511   3.065
 7337TIP3    H221955   5.153   0.360   3.071
 7338TIP3   OH221956   0.183   3.736   6.674
 7338TIP3    H121957   0.265   3.691   6.655
 7338TIP3    H221958   0.201   3.828   6.660
 7339TIP3   OH221959   5.127   0.765   5.986
 7339TIP3    H121960   5.172   0.841   6.023
 7339TIP3    H221961   5.130   0.780   5.891
 7340TIP3   OH221962   7.541   1.072   4.506
 7340TIP3    H121963   7.529   1.060   4.411
 7340TIP3    H221964   7.598   1.000   4.532
 7341TIP3   OH221965   6.983   0.414   1.021
 7341TIP3    H121966   6.940   0.484   1.070
 7341TIP3    H221967   6.919   0.388   0.955
 7342TIP3   OH221968   0.956   6.051   1.562
 7342TIP3    H121969   1.019   5.980   1.576
 7342TIP3    H221970   1.009   6.131   1.560
 7343TIP3   OH221971   4.559   6.333   0.829
 7343TIP3    H121972   4.618   6.279   0.881
 7343TIP3    H221973   4.577   6.423   0.858
 7344TIP3   OH221974   8.148   7.563   5.153
 7344TIP3    H121975   8.075   7.552   5.213
 7344TIP3    H221976   8.208   7.622   5.200
 7345TIP3   OH221977   4.776   2.775   6.656
 7345TIP3    H121978   4.840   2.723   6.608
 7345TIP3    H221979   4.710   2.712   6.685
 7346TIP3   OH221980   6.897   4.945   4.880
 7346TIP3    H121981   6.956   5.000   4.828
 7346TIP3    H221982   6.911   4.856   4.846
 7347TIP3   OH221983   8.025   0.957   3.192
 7347TIP3    H121984   8.085   0.964   3.118
 7347TIP3    H221985   7.943   0.995   3.160
 7348TIP3   OH221986   4.584   0.203   2.800
 7348TIP3    H121987   4.515   0.235   2.742
 7348TIP3    H221988   4.574   0.254   2.881
 7349TIP3   OH221989   5.097   0.522   4.103
 7349TIP3    H121990   5.156   0.584   4.146
 7349TIP3    H221991   5.154   0.450   4.075
 7350TIP3   OH221992   2.806   4.176   2.747
 7350TIP3    H121993   2.888   4.181   2.796
 7350TIP3    H221994   2.797   4.262   2.706
 7351TIP3   OH221995   4.861   2.606   6.474
 7351TIP3    H121996   4.914   2.686   6.471
 7351TIP3    H221997   4.835   2.592   6.382
 7352TIP3   OH221998   5.025   2.227   3.130
 7352TIP3    H121999   5.061   2.316   3.122
 7352TIP3    H222000   5.094   2.171   3.095
 7353TIP3   OH222001   5.696   5.177   3.852
 7353TIP3    H122002   5.622   5.118   3.841
 7353TIP3    H222003   5.675   5.253   3.799
 7354TIP3   OH222004   2.059   3.671   6.535
 7354TIP3    H122005   2.033   3.712   6.618
 7354TIP3    H222006   2.047   3.577   6.551
 7355TIP3   OH222007   3.302   2.391   6.264
 7355TIP3    H122008   3.272   2.362   6.350
 7355TIP3    H222009   3.371   2.329   6.240
 7356TIP3   OH222010   0.518   7.717   3.814
 7356TIP3    H122011   0.599   7.761   3.788
 7356TIP3    H222012   0.489   7.671   3.735
 7357TIP3   OH222013   1.518   3.702   4.419
 7357TIP3    H122014   1.611   3.720   4.403
 7357TIP3    H222015   1.479   3.696   4.331
 7358TIP3   OH222016   8.256   0.013   1.702
 7358TIP3    H122017   8.250   0.107   1.720
 7358TIP3    H222018   8.165  -0.015   1.689
 7359TIP3   OH222019   7.022   5.093   0.725
 7359TIP3    H122020   6.981   5.052   0.648
 7359TIP3    H222021   6.983   5.180   0.729
 7360TIP3   OH222022   1.672   5.273   5.509
 7360TIP3    H122023   1.585   5.240   5.531
 7360TIP3    H222024   1.701   5.320   5.587
 7361TIP3   OH222025   2.028   2.888   5.977
 7361TIP3    H122026   2.047   2.795   5.964
 7361TIP3    H222027   1.934   2.892   5.993
 7362TIP3   OH222028   5.670   0.051   6.125
 7362TIP3    H122029   5.651   0.142   6.103
 7362TIP3    H222030   5.585   0.007   6.120
 7363TIP3   OH222031   6.100   1.990   3.385
 7363TIP3    H122032   6.149   2.011   3.465
 7363TIP3    H222033   6.113   1.896   3.373
 7364TIP3   OH222034   2.749   5.472   2.577
 7364TIP3    H122035   2.667   5.449   2.620
 7364TIP3    H222036   2.749   5.422   2.495
 7365TIP3   OH222037   2.159   6.932   5.160
 7365TIP3    H122038   2.176   6.886   5.242
 7365TIP3    H222039   2.169   7.024   5.182
 7366TIP3   OH222040   6.988   2.162   0.656
 7366TIP3    H122041   6.920   2.183   0.592
 7366TIP3    H222042   6.967   2.073   0.685
 7367TIP3   OH222043   2.343   4.825   3.124
 7367TIP3    H122044   2.299   4.902   3.160
 7367TIP3    H222045   2.429   4.856   3.098
 7368TIP3   OH222046   3.625   3.320   3.511
 7368TIP3    H122047   3.701   3.368   3.478
 7368TIP3    H222048   3.581   3.381   3.569
 7369TIP3   OH222049   8.115   0.597   3.222
 7369TIP3    H122050   8.124   0.636   3.309
 7369TIP3    H222051   8.193   0.543   3.212
 7370TIP3   OH222052   5.777   1.804   1.238
 7370TIP3    H122053   5.844   1.756   1.189
 7370TIP3    H222054   5.723   1.845   1.170
 7371TIP3   OH222055   7.580   5.592   0.076
 7371TIP3    H122056   7.535   5.655   0.019
 7371TIP3    H222057   7.511   5.532   0.104
 7372TIP3   OH222058   3.266   3.904   0.363
 7372TIP3    H122059   3.211   3.833   0.397
 7372TIP3    H222060   3.336   3.858   0.316
 7373TIP3   OH222061   7.347   4.443   6.595
 7373TIP3    H122062   7.430   4.428   6.551
 7373TIP3    H222063   7.355   4.529   6.635
 7374TIP3   OH222064   1.330   3.908   2.172
 7374TIP3    H122065   1.333   4.001   2.194
 7374TIP3    H222066   1.416   3.874   2.195
 7375TIP3   OH222067   4.175   5.106   2.510
 7375TIP3    H122068   4.218   5.088   2.426
 7375TIP3    H222069   4.204   5.193   2.535
 7376TIP3   OH222070   5.547   2.180   0.213
 7376TIP3    H122071   5.491   2.176   0.290
 7376TIP3    H222072   5.502   2.126   0.148
 7377TIP3   OH222073   5.132   1.399   1.987
 7377TIP3    H122074   5.221   1.364   1.989
 7377TIP3    H222075   5.076   1.324   2.008
 7378TIP3   OH222076   6.376   3.902   3.550
 7378TIP3    H122077   6.327   3.913   3.632
 7378TIP3    H222078   6.452   3.849   3.574
 7379TIP3   OH222079   0.068   5.084   5.219
 7379TIP3    H122080   0.110   5.170   5.225
 7379TIP3    H222081  -0.019   5.102   5.184
 7380TIP3   OH222082   3.830   2.516   0.275
 7380TIP3    H122083   3.779   2.575   0.220
 7380TIP3    H222084   3.888   2.470   0.213
 7381TIP3   OH222085   6.475   1.093   5.001
 7381TIP3    H122086   6.553   1.044   5.027
 7381TIP3    H222087   6.414   1.025   4.971
 7382TIP3   OH222088   3.219   3.728   1.580
 7382TIP3    H122089   3.278   3.653   1.589
 7382TIP3    H222090   3.184   3.743   1.668
 7383TIP3   OH222091   0.935   6.669   5.272
 7383TIP3    H122092   0.867   6.734   5.291
 7383TIP3    H222093   0.887   6.587   5.259
 7384TIP3   OH222094   6.905   6.229   1.659
 7384TIP3    H122095   6.884   6.322   1.660
 7384TIP3    H222096   6.838   6.190   1.603
 7385TIP3   OH222097   6.677   1.769   4.537
 7385TIP3    H122098   6.733   1.692   4.539
 7385TIP3    H222099   6.683   1.802   4.447
 7386TIP3   OH222100   3.779   0.237   4.201
 7386TIP3    H122101   3.845   0.301   4.175
 7386TIP3    H222102   3.798   0.220   4.293
 7387TIP3   OH222103   2.765   1.678   0.117
 7387TIP3    H122104   2.726   1.642   0.037
 7387TIP3    H222105   2.829   1.611   0.143
 7388TIP3   OH222106   8.026   4.630   5.685
 7388TIP3    H122107   8.026   4.552   5.630
 7388TIP3    H222108   8.115   4.665   5.678
 7389TIP3   OH222109   3.326   7.580   6.154
 7389TIP3    H122110   3.276   7.648   6.199
 7389TIP3    H222111   3.263   7.539   6.095
 7390TIP3   OH222112   5.578   2.916   5.770
 7390TIP3    H122113   5.632   2.862   5.714
 7390TIP3    H222114   5.566   2.864   5.850
 7391TIP3   OH222115   5.204   4.801   5.641
 7391TIP3    H122116   5.142   4.746   5.593
 7391TIP3    H222117   5.220   4.753   5.723
 7392TIP3   OH222118   5.892   6.067   5.974
 7392TIP3    H122119   5.908   6.160   5.956
 7392TIP3    H222120   5.937   6.021   5.903
 7393TIP3   OH222121   6.204   0.693   5.760
 7393TIP3    H122122   6.258   0.615   5.750
 7393TIP3    H222123   6.149   0.696   5.682
 7394TIP3   OH222124   8.231   2.155   6.189
 7394TIP3    H122125   8.244   2.237   6.141
 7394TIP3    H222126   8.263   2.174   6.278
 7395TIP3   OH222127   4.400   7.477   3.927
 7395TIP3    H122128   4.425   7.400   3.877
 7395TIP3    H222129   4.482   7.509   3.965
 7396TIP3   OH222130   3.359   7.445   1.413
 7396TIP3    H122131   3.364   7.428   1.319
 7396TIP3    H222132   3.448   7.434   1.445
 7397TIP3   OH222133   5.813   3.818   1.812
 7397TIP3    H122134   5.747   3.884   1.834
 7397TIP3    H222135   5.802   3.804   1.718
 7398TIP3   OH222136   4.170   4.990   3.480
 7398TIP3    H122137   4.139   4.971   3.391
 7398TIP3    H222138   4.198   5.082   3.477
 7399TIP3   OH222139   3.578   4.255   0.469
 7399TIP3    H122140   3.668   4.221   0.471
 7399TIP3    H222141   3.583   4.330   0.409
 7400TIP3   OH222142   1.710   7.777   2.940
 7400TIP3    H122143   1.715   7.862   2.895
 7400TIP3    H222144   1.616   7.757   2.943
 7401TIP3   OH222145   3.665   1.312   1.185
 7401TIP3    H122146   3.610   1.379   1.225
 7401TIP3    H222147   3.647   1.320   1.091
 7402TIP3   OH222148   4.509   1.399   0.884
 7402TIP3    H122149   4.581   1.449   0.844
 7402TIP3    H222150   4.509   1.427   0.975
 7403TIP3   OH222151   3.756   2.141   2.986
 7403TIP3    H122152   3.794   2.097   2.910
 7403TIP3    H222153   3.830   2.182   3.030
 7404TIP3   OH222154   6.597   2.904   2.584
 7404TIP3    H122155   6.683   2.880   2.549
 7404TIP3    H222156   6.614   2.941   2.670
 7405TIP3   OH222157   2.567   1.961   0.630
 7405TIP3    H122158   2.653   1.919   0.623
 7405TIP3    H222159   2.558   1.984   0.722
 7406TIP3   OH222160   6.388   0.314   2.992
 7406TIP3    H122161   6.380   0.220   2.975
 7406TIP3    H222162   6.428   0.349   2.913
 7407TIP3   OH222163   3.336   7.397   1.134
 7407TIP3    H122164   3.246   7.431   1.132
 7407TIP3    H222165   3.389   7.467   1.096
 7408TIP3   OH222166   7.138   4.875   6.541
 7408TIP3    H122167   7.141   4.968   6.560
 7408TIP3    H222168   7.227   4.844   6.555
 7409TIP3   OH222169   2.606   6.468   0.996
 7409TIP3    H122170   2.668   6.534   1.027
 7409TIP3    H222171   2.647   6.432   0.918
 7410TIP3   OH222172   5.904   4.991   4.354
 7410TIP3    H122173   5.885   4.924   4.288
 7410TIP3    H222174   5.961   5.054   4.308
 7411TIP3   OH222175   3.068   7.488   5.673
 7411TIP3    H122176   3.019   7.408   5.695
 7411TIP3    H222177   3.059   7.544   5.750
 7412TIP3   OH222178   7.416   7.500   0.090
 7412TIP3    H122179   7.349   7.533   0.030
 7412TIP3    H222180   7.386   7.527   0.177
 7413TIP3   OH222181   0.955   0.513   0.114
 7413TIP3    H122182   0.950   0.444   0.180
 7413TIP3    H222183   0.878   0.499   0.059
 7414TIP3   OH222184   0.880   4.690   4.394
 7414TIP3    H122185   0.962   4.723   4.357
 7414TIP3    H222186   0.885   4.712   4.487
 7415TIP3   OH222187   1.046   7.535   1.920
 7415TIP3    H122188   0.973   7.595   1.933
 7415TIP3    H222189   1.041   7.511   1.827
 7416TIP3   OH222190   4.365   7.379   0.292
 7416TIP3    H122191   4.377   7.352   0.383
 7416TIP3    H222192   4.300   7.449   0.296
 7417TIP3   OH222193   6.416   2.905   1.836
 7417TIP3    H122194   6.405   2.869   1.924
 7417TIP3    H222195   6.486   2.852   1.798
 7418TIP3   OH222196   4.204   1.786   2.377
 7418TIP3    H122197   4.147   1.732   2.433
 7418TIP3    H222198   4.183   1.758   2.288
 7419TIP3   OH222199   5.978   0.846   2.972
 7419TIP3    H122200   5.983   0.809   2.884
 7419TIP3    H222201   5.961   0.771   3.029
 7420TIP3   OH222202   4.298   0.173   5.984
 7420TIP3    H122203   4.336   0.095   5.943
 7420TIP3    H222204   4.210   0.145   6.010
 7421TIP3   OH222205   7.902   3.992   6.662
 7421TIP3    H122206   7.926   4.032   6.745
 7421TIP3    H222207   7.977   4.009   6.605
 7422TIP3   OH222208   0.403   1.985   2.951
 7422TIP3    H122209   0.316   2.023   2.965
 7422TIP3    H222210   0.399   1.900   2.995
 7423TIP3   OH222211   1.222   0.295   3.686
 7423TIP3    H122212   1.236   0.263   3.597
 7423TIP3    H222213   1.155   0.363   3.676
 7424TIP3   OH222214   7.902   1.743   6.001
 7424TIP3    H122215   7.836   1.699   6.055
 7424TIP3    H222216   7.945   1.672   5.954
 7425TIP3   OH222217   7.400   3.302   6.078
 7425TIP3    H122218   7.447   3.268   6.001
 7425TIP3    H222219   7.440   3.256   6.152
 7426TIP3   OH222220   1.530   0.555   4.090
 7426TIP3    H122221   1.486   0.518   4.013
 7426TIP3    H222222   1.554   0.644   4.063
 7427TIP3   OH222223   2.369   4.041   1.797
 7427TIP3    H122224   2.287   4.088   1.810
 7427TIP3    H222225   2.379   3.987   1.875
 7428TIP3   OH222226   0.880   2.701   0.360
 7428TIP3    H122227   0.902   2.665   0.446
 7428TIP3    H222228   0.794   2.665   0.340
 7429TIP3   OH222229   0.542   3.833   0.077
 7429TIP3    H122230   0.545   3.922   0.041
 7429TIP3    H222231   0.463   3.794   0.040
 7430TIP3   OH222232   7.010   1.993   3.719
 7430TIP3    H122233   7.078   1.974   3.784
 7430TIP3    H222234   7.040   1.951   3.639
 7431TIP3   OH222235   3.058   2.397   6.091
 7431TIP3    H122236   3.009   2.479   6.096
 7431TIP3    H222237   3.138   2.414   6.141
 7432TIP3   OH222238   7.066   1.497   1.813
 7432TIP3    H122239   7.019   1.414   1.803
 7432TIP3    H222240   6.997   1.562   1.825
 7433TIP3   OH222241   5.304   6.757   5.416
 7433TIP3    H122242   5.372   6.749   5.482
 7433TIP3    H222243   5.277   6.849   5.421
 7434TIP3   OH222244   0.387   1.873   3.619
 7434TIP3    H122245   0.391   1.922   3.537
 7434TIP3    H222246   0.296   1.847   3.628
 7435TIP3   OH222247   0.157   1.585   2.361
 7435TIP3    H122248   0.095   1.655   2.379
 7435TIP3    H222249   0.105   1.505   2.362
 7436TIP3   OH222250   5.729   7.140   4.362
 7436TIP3    H122251   5.801   7.187   4.321
 7436TIP3    H222252   5.742   7.153   4.456
 7437TIP3   OH222253   3.113   1.035   4.408
 7437TIP3    H122254   3.185   1.096   4.422
 7437TIP3    H222255   3.155   0.950   4.397
 7438TIP3   OH222256   6.302   3.912   5.489
 7438TIP3    H122257   6.269   4.002   5.497
 7438TIP3    H222258   6.281   3.887   5.400
 7439TIP3   OH222259   5.968   6.272   3.655
 7439TIP3    H122260   5.952   6.183   3.686
 7439TIP3    H222261   6.027   6.262   3.581
 7440TIP3   OH222262   0.898   2.897   5.434
 7440TIP3    H122263   0.855   2.890   5.349
 7440TIP3    H222264   0.901   2.991   5.452
 7441TIP3   OH222265   4.281   0.113   0.386
 7441TIP3    H122266   4.344   0.097   0.457
 7441TIP3    H222267   4.196   0.093   0.424
 7442TIP3   OH222268   6.459   1.410   2.233
 7442TIP3    H122269   6.500   1.381   2.152
 7442TIP3    H222270   6.412   1.490   2.209
 7443TIP3   OH222271   3.095   7.520   1.055
 7443TIP3    H122272   3.022   7.525   1.117
 7443TIP3    H222273   3.114   7.612   1.034
 7444TIP3   OH222274   5.805   1.553   3.703
 7444TIP3    H122275   5.751   1.480   3.671
 7444TIP3    H222276   5.782   1.560   3.796
 7445TIP3   OH222277   6.692   5.260   5.707
 7445TIP3    H122278   6.692   5.237   5.800
 7445TIP3    H222279   6.764   5.323   5.697
 7446TIP3   OH222280   4.590   2.833   1.283
 7446TIP3    H122281   4.505   2.813   1.244
 7446TIP3    H222282   4.653   2.785   1.228
 7447TIP3   OH222283   7.498   4.049   3.192
 7447TIP3    H122284   7.496   3.957   3.169
 7447TIP3    H222285   7.527   4.094   3.113
 7448TIP3   OH222286   5.349   6.326   2.215
 7448TIP3    H122287   5.420   6.326   2.151
 7448TIP3    H222288   5.362   6.407   2.265
 7449TIP3   OH222289   4.582   6.120   1.371
 7449TIP3    H122290   4.633   6.044   1.396
 7449TIP3    H222291   4.492   6.098   1.397
 7450TIP3   OH222292   7.259   7.681   6.591
 7450TIP3    H122293   7.201   7.756   6.607
 7450TIP3    H222294   7.346   7.713   6.613
 7451TIP3   OH222295   7.899   6.710   5.914
 7451TIP3    H122296   7.896   6.759   5.996
 7451TIP3    H222297   7.851   6.629   5.933
 7452TIP3   OH222298   0.609   2.815   3.358
 7452TIP3    H122299   0.521   2.823   3.394
 7452TIP3    H222300   0.652   2.898   3.379
 7453TIP3   OH222301   0.966   7.104   2.502
 7453TIP3    H122302   0.881   7.130   2.466
 7453TIP3    H222303   0.945   7.038   2.568
 7454TIP3   OH222304   4.903   0.121   1.108
 7454TIP3    H122305   4.907   0.155   1.198
 7454TIP3    H222306   4.983   0.069   1.099
 7455TIP3   OH222307   2.486   1.112   0.057
 7455TIP3    H122308   2.474   1.194   0.104
 7455TIP3    H222309   2.439   1.047   0.109
 7456TIP3   OH222310   5.956   6.801   5.091
 7456TIP3    H122311   5.974   6.870   5.154
 7456TIP3    H222312   6.041   6.781   5.052
 7457TIP3   OH222313   3.834   6.913   0.307
 7457TIP3    H122314   3.882   6.938   0.386
 7457TIP3    H222315   3.900   6.913   0.238
 7458TIP3   OH222316   3.231   5.680   5.559
 7458TIP3    H122317   3.305   5.741   5.563
 7458TIP3    H222318   3.271   5.597   5.532
 7459TIP3   OH222319   6.859   7.171   1.284
 7459TIP3    H122320   6.906   7.138   1.207
 7459TIP3    H222321   6.907   7.135   1.358
 7460TIP3   OH222322   3.726   0.830   4.840
 7460TIP3    H122323   3.670   0.851   4.914
 7460TIP3    H222324   3.713   0.736   4.826
 7461TIP3   OH222325   6.626   2.890   6.720
 7461TIP3    H122326   6.669   2.834   6.784
 7461TIP3    H222327   6.697   2.918   6.662
 7462TIP3   OH222328   0.593   1.673   6.451
 7462TIP3    H122329   0.502   1.673   6.422
 7462TIP3    H222330   0.644   1.667   6.370
 7463TIP3   OH222331   1.786   3.903   4.514
 7463TIP3    H122332   1.861   3.954   4.484
 7463TIP3    H222333   1.794   3.820   4.467
 7464TIP3   OH222334   1.811   2.371   2.029
 7464TIP3    H122335   1.762   2.446   1.995
 7464TIP3    H222336   1.818   2.387   2.123
 7465TIP3   OH222337   3.820   3.305   4.212
 7465TIP3    H122338   3.898   3.250   4.214
 7465TIP3    H222339   3.791   3.304   4.121
 7466TIP3   OH222340   6.945   1.862   4.406
 7466TIP3    H122341   7.010   1.856   4.336
 7466TIP3    H222342   6.861   1.848   4.363
 7467TIP3   OH222343   8.148   3.504   3.773
 7467TIP3    H122344   8.119   3.432   3.828
 7467TIP3    H222345   8.094   3.578   3.800
 7468TIP3   OH222346   0.426   7.632   4.671
 7468TIP3    H122347   0.474   7.714   4.680
 7468TIP3    H222348   0.334   7.659   4.660
 7469TIP3   OH222349   2.727   0.949   2.168
 7469TIP3    H122350   2.726   0.916   2.258
 7469TIP3    H222351   2.636   0.943   2.139
 7470TIP3   OH222352   2.381   1.878   0.982
 7470TIP3    H122353   2.311   1.935   1.013
 7470TIP3    H222354   2.447   1.938   0.948
 7471TIP3   OH222355   3.874   2.747   1.775
 7471TIP3    H122356   3.933   2.715   1.707
 7471TIP3    H222357   3.801   2.686   1.775
 7472TIP3   OH222358   3.146   5.444   0.875
 7472TIP3    H122359   3.094   5.383   0.823
 7472TIP3    H222360   3.082   5.499   0.920
 7473TIP3   OH222361   0.133   1.024   4.715
 7473TIP3    H122362   0.117   1.055   4.804
 7473TIP3    H222363   0.138   1.103   4.662
 7474TIP3   OH222364   4.130   3.749   3.724
 7474TIP3    H122365   4.103   3.731   3.814
 7474TIP3    H222366   4.177   3.670   3.697
 7475TIP3   OH222367   5.093   5.306   4.742
 7475TIP3    H122368   5.121   5.321   4.652
 7475TIP3    H222369   5.118   5.216   4.760
 7476TIP3   OH222370   2.555   4.533   0.693
 7476TIP3    H122371   2.566   4.561   0.602
 7476TIP3    H222372   2.615   4.460   0.703
 7477TIP3   OH222373   1.286   5.707   3.862
 7477TIP3    H122374   1.342   5.673   3.793
 7477TIP3    H222375   1.346   5.735   3.931
 7478TIP3   OH222376   4.626   1.985   0.206
 7478TIP3    H122377   4.675   2.018   0.281
 7478TIP3    H222378   4.573   1.914   0.242
 7479TIP3   OH222379   7.232   6.008   0.577
 7479TIP3    H122380   7.287   5.952   0.632
 7479TIP3    H222381   7.198   6.074   0.638
 7480TIP3   OH222382   4.149   4.126   3.860
 7480TIP3    H122383   4.198   4.104   3.940
 7480TIP3    H222384   4.189   4.073   3.792
 7481TIP3   OH222385   3.618   7.370   1.987
 7481TIP3    H122386   3.627   7.287   1.941
 7481TIP3    H222387   3.537   7.361   2.038
 7482TIP3   OH222388   4.624   5.530   5.425
 7482TIP3    H122389   4.670   5.579   5.493
 7482TIP3    H222390   4.542   5.577   5.412
 7483TIP3   OH222391   5.618   0.410   4.923
 7483TIP3    H122392   5.660   0.496   4.920
 7483TIP3    H222393   5.686   0.348   4.897
 7484TIP3   OH222394   3.345   7.394   3.540
 7484TIP3    H122395   3.425   7.345   3.558
 7484TIP3    H222396   3.324   7.438   3.623
 7485TIP3   OH222397   6.818   0.834   2.387
 7485TIP3    H122398   6.904   0.842   2.346
 7485TIP3    H222399   6.837   0.823   2.480
 7486TIP3   OH222400   2.750   6.085   2.548
 7486TIP3    H122401   2.799   6.073   2.630
 7486TIP3    H222402   2.785   6.017   2.490
 7487TIP3   OH222403   1.758   4.007   6.406
 7487TIP3    H122404   1.775   3.913   6.399
 7487TIP3    H222405   1.666   4.017   6.381
 7488TIP3   OH222406   7.309   6.080   4.328
 7488TIP3    H122407   7.254   6.058   4.253
 7488TIP3    H222408   7.397   6.090   4.291
 7489TIP3   OH222409   6.532   0.619   6.479
 7489TIP3    H122410   6.621   0.625   6.514
 7489TIP3    H222411   6.517   0.703   6.436
 7490TIP3   OH222412   2.658   4.310   3.476
 7490TIP3    H122413   2.678   4.267   3.559
 7490TIP3    H222414   2.743   4.325   3.435
 7491TIP3   OH222415   1.763   4.680   3.541
 7491TIP3    H122416   1.701   4.674   3.468
 7491TIP3    H222417   1.813   4.760   3.523
 7492TIP3   OH222418   3.794   1.540   1.356
 7492TIP3    H122419   3.804   1.503   1.444
 7492TIP3    H222420   3.700   1.536   1.339
 7493TIP3   OH222421   5.595   2.464   0.611
 7493TIP3    H122422   5.509   2.472   0.571
 7493TIP3    H222423   5.639   2.396   0.559
 7494TIP3   OH222424   7.342   3.294   0.491
 7494TIP3    H122425   7.303   3.207   0.502
 7494TIP3    H222426   7.416   3.280   0.432
 7495TIP3   OH222427   1.490   2.706   3.884
 7495TIP3    H122428   1.414   2.649   3.898
 7495TIP3    H222429   1.521   2.682   3.796
 7496TIP3   OH222430   3.414   3.024   6.349
 7496TIP3    H122431   3.457   3.078   6.416
 7496TIP3    H222432   3.484   2.969   6.314
 7497TIP3   OH222433   7.187   4.337   1.849
 7497TIP3    H122434   7.109   4.327   1.904
 7497TIP3    H222435   7.257   4.362   1.910
 7498TIP3   OH222436   0.859   5.926   5.839
 7498TIP3    H122437   0.801   5.889   5.906
 7498TIP3    H222438   0.849   6.021   5.848
 7499TIP3   OH222439   2.652   6.622   2.023
 7499TIP3    H122440   2.667   6.623   2.117
 7499TIP3    H222441   2.684   6.536   1.994
 7500TIP3   OH222442   4.832   1.161   0.715
 7500TIP3    H122443   4.904   1.115   0.672
 7500TIP3    H222444   4.847   1.253   0.697
 7501TIP3   OH222445   8.110   5.279   5.359
 7501TIP3    H122446   8.191   5.325   5.378
 7501TIP3    H222447   8.076   5.254   5.445
 7502TIP3   OH222448   1.026   0.742   2.169
 7502TIP3    H122449   1.099   0.698   2.125
 7502TIP3    H222450   0.984   0.793   2.100
 7503TIP3   OH222451   6.648   5.743   3.834
 7503TIP3    H122452   6.604   5.824   3.861
 7503TIP3    H222453   6.715   5.772   3.772
 7504TIP3   OH222454   1.974   6.354   2.699
 7504TIP3    H122455   2.004   6.268   2.672
 7504TIP3    H222456   2.053   6.400   2.728
 7505TIP3   OH222457   7.310   2.743   3.747
 7505TIP3    H122458   7.316   2.760   3.653
 7505TIP3    H222459   7.337   2.652   3.756
 7506TIP3   OH222460   2.455   7.050   2.839
 7506TIP3    H122461   2.382   7.111   2.835
 7506TIP3    H222462   2.418   6.965   2.817
 7507TIP3   OH222463   2.381   1.013   3.901
 7507TIP3    H122464   2.428   1.073   3.958
 7507TIP3    H222465   2.444   0.990   3.833
 7508TIP3   OH222466   3.522   1.642   5.359
 7508TIP3    H122467   3.460   1.602   5.297
 7508TIP3    H222468   3.472   1.713   5.400
 7509TIP3   OH222469   6.082   0.602   6.314
 7509TIP3    H122470   5.995   0.642   6.312
 7509TIP3    H222471   6.099   0.575   6.223
 7510TIP3   OH222472   7.575   7.646   5.461
 7510TIP3    H122473   7.529   7.649   5.545
 7510TIP3    H222474   7.657   7.599   5.481
 7511TIP3   OH222475   5.940   0.818   4.249
 7511TIP3    H122476   6.015   0.839   4.195
 7511TIP3    H222477   5.965   0.843   4.337
 7512TIP3   OH222478   4.112   0.533   3.934
 7512TIP3    H122479   4.069   0.606   3.890
 7512TIP3    H222480   4.169   0.575   3.998
 7513TIP3   OH222481   2.407   3.367   1.713
 7513TIP3    H122482   2.319   3.357   1.749
 7513TIP3    H222483   2.400   3.443   1.655
 7514TIP3   OH222484   2.547   4.790   0.866
 7514TIP3    H122485   2.636   4.780   0.901
 7514TIP3    H222486   2.545   4.737   0.787
 7515TIP3   OH222487   7.940   4.193   0.561
 7515TIP3    H122488   7.973   4.207   0.650
 7515TIP3    H222489   7.961   4.274   0.514
 7516TIP3   OH222490   7.886   4.162   5.508
 7516TIP3    H122491   7.922   4.149   5.421
 7516TIP3    H222492   7.850   4.077   5.533
 7517TIP3   OH222493   2.679   5.192   2.437
 7517TIP3    H122494   2.584   5.195   2.421
 7517TIP3    H222495   2.687   5.173   2.530
 7518TIP3   OH222496   0.211   0.414   1.389
 7518TIP3    H122497   0.218   0.507   1.367
 7518TIP3    H222498   0.119   0.393   1.377
 7519TIP3   OH222499   2.078   2.683   2.310
 7519TIP3    H122500   2.166   2.718   2.321
 7519TIP3    H222501   2.045   2.669   2.399
 7520TIP3   OH222502   8.263   5.819   5.050
 7520TIP3    H122503   8.277   5.735   5.008
 7520TIP3    H222504   8.190   5.804   5.110
 7521TIP3   OH222505   6.721   6.039   2.546
 7521TIP3    H122506   6.688   6.110   2.601
 7521TIP3    H222507   6.674   6.049   2.463
 7522TIP3   OH222508   3.919   6.217   6.022
 7522TIP3    H122509   3.923   6.293   5.964
 7522TIP3    H222510   3.875   6.150   5.971
 7523TIP3   OH222511   1.141   7.182   2.727
 7523TIP3    H122512   1.080   7.161   2.656
 7523TIP3    H222513   1.109   7.265   2.762
 7524TIP3   OH222514   3.960   2.234   3.793
 7524TIP3    H122515   4.042   2.225   3.745
 7524TIP3    H222516   3.893   2.201   3.734
 7525TIP3   OH222517   0.345   1.783   2.096
 7525TIP3    H122518   0.291   1.762   2.020
 7525TIP3    H222519   0.387   1.700   2.119
 7526TIP3   OH222520   2.637   3.811   2.517
 7526TIP3    H122521   2.730   3.799   2.498
 7526TIP3    H222522   2.593   3.749   2.459
 7527TIP3   OH222523   2.301   1.266   1.759
 7527TIP3    H122524   2.370   1.310   1.710
 7527TIP3    H222525   2.331   1.176   1.768
 7528TIP3   OH222526   0.517   4.274   3.813
 7528TIP3    H122527   0.451   4.219   3.770
 7528TIP3    H222528   0.589   4.214   3.831
 7529TIP3   OH222529   7.784   0.316   5.092
 7529TIP3    H122530   7.750   0.393   5.138
 7529TIP3    H222531   7.867   0.296   5.136
 7530TIP3   OH222532   1.631   0.303   4.148
 7530TIP3    H122533   1.704   0.291   4.208
 7530TIP3    H222534   1.612   0.396   4.151
 7531TIP3   OH222535   5.355   7.002   6.378
 7531TIP3    H122536   5.447   7.030   6.374
 7531TIP3    H222537   5.338   6.968   6.290
 7532TIP3   OH222538   0.117   3.965   2.717
 7532TIP3    H122539   0.077   3.983   2.802
 7532TIP3    H222540   0.133   3.871   2.717
 7533TIP3   OH222541   2.078   0.130   5.432
 7533TIP3    H122542   2.154   0.157   5.380
 7533TIP3    H222543   2.087   0.036   5.442
 7534TIP3   OH222544   5.839   1.222   0.076
 7534TIP3    H122545   5.926   1.184   0.093
 7534TIP3    H222546   5.858   1.305   0.032
 7535TIP3   OH222547   4.708   1.248   5.116
 7535TIP3    H122548   4.723   1.220   5.025
 7535TIP3    H222549   4.796   1.254   5.154
 7536TIP3   OH222550   7.411   2.632   2.375
 7536TIP3    H122551   7.373   2.544   2.367
 7536TIP3    H222552   7.506   2.617   2.368
 7537TIP3   OH222553  -0.003   4.626   5.306
 7537TIP3    H122554   0.014   4.551   5.250
 7537TIP3    H222555   0.076   4.634   5.361
 7538TIP3   OH222556   0.096   7.770   1.095
 7538TIP3    H122557   0.035   7.767   1.169
 7538TIP3    H222558   0.134   7.857   1.098
 7539TIP3   OH222559   0.946   5.385   6.479
 7539TIP3    H122560   0.946   5.467   6.528
 7539TIP3    H222561   0.931   5.411   6.388
 7540TIP3   OH222562   5.059   4.719   4.843
 7540TIP3    H122563   5.129   4.727   4.908
 7540TIP3    H222564   5.098   4.667   4.772
 7541TIP3   OH222565   6.710   3.847   0.443
 7541TIP3    H122566   6.686   3.881   0.530
 7541TIP3    H222567   6.688   3.918   0.383
 7542TIP3   OH222568   3.843   1.463   0.052
 7542TIP3    H122569   3.805   1.425   0.132
 7542TIP3    H222570   3.851   1.389  -0.008
 7543TIP3   OH222571   4.846   7.255   2.954
 7543TIP3    H122572   4.816   7.315   2.886
 7543TIP3    H222573   4.787   7.271   3.028
 7544TIP3   OH222574   6.781   6.463   3.641
 7544TIP3    H122575   6.818   6.505   3.563
 7544TIP3    H222576   6.770   6.372   3.616
 7545TIP3   OH222577   5.797   1.280   3.125
 7545TIP3    H122578   5.731   1.248   3.187
 7545TIP3    H222579   5.865   1.213   3.125
 7546TIP3   OH222580   7.202   7.651   1.378
 7546TIP3    H122581   7.191   7.618   1.289
 7546TIP3    H222582   7.118   7.689   1.401
 7547TIP3   OH222583   6.575   6.823   0.532
 7547TIP3    H122584   6.503   6.885   0.527
 7547TIP3    H222585   6.654   6.877   0.542
 7548TIP3   OH222586   2.073   4.621   1.453
 7548TIP3    H122587   2.001   4.662   1.501
 7548TIP3    H222588   2.070   4.529   1.480
 7549TIP3   OH222589   4.850   6.464   4.751
 7549TIP3    H122590   4.762   6.460   4.788
 7549TIP3    H222591   4.871   6.372   4.731
 7550TIP3   OH222592   8.086   6.405   4.707
 7550TIP3    H122593   8.068   6.354   4.628
 7550TIP3    H222594   8.030   6.367   4.775
 7551TIP3   OH222595   5.408   7.081   4.954
 7551TIP3    H122596   5.313   7.081   4.951
 7551TIP3    H222597   5.430   7.094   5.047
 7552TIP3   OH222598   7.969   2.425   6.115
 7552TIP3    H122599   8.062   2.447   6.118
 7552TIP3    H222600   7.942   2.421   6.206
 7553TIP3   OH222601   2.084   5.279   4.672
 7553TIP3    H122602   2.146   5.214   4.705
 7553TIP3    H222603   2.009   5.272   4.730
 7554TIP3   OH222604   3.630   1.682   2.196
 7554TIP3    H122605   3.588   1.596   2.200
 7554TIP3    H222606   3.634   1.710   2.287
 7555TIP3   OH222607   5.468   6.494   6.552
 7555TIP3    H122608   5.375   6.494   6.577
 7555TIP3    H222609   5.470   6.542   6.469
 7556TIP3   OH222610   2.798   1.819   0.680
 7556TIP3    H122611   2.752   1.741   0.709
 7556TIP3    H222612   2.850   1.846   0.756
 7557TIP3   OH222613   4.915   4.255   6.115
 7557TIP3    H122614   4.835   4.220   6.075
 7557TIP3    H222615   4.901   4.246   6.209
 7558TIP3   OH222616   7.720   7.065   5.683
 7558TIP3    H122617   7.763   6.985   5.653
 7558TIP3    H222618   7.703   7.050   5.776
 7559TIP3   OH222619   6.721   3.781   3.420
 7559TIP3    H122620   6.662   3.756   3.491
 7559TIP3    H222621   6.799   3.813   3.465
 7560TIP3   OH222622   0.398   1.649   4.281
 7560TIP3    H122623   0.329   1.679   4.340
 7560TIP3    H222624   0.372   1.684   4.195
 7561TIP3   OH222625   7.522   2.323   5.457
 7561TIP3    H122626   7.538   2.315   5.551
 7561TIP3    H222627   7.601   2.366   5.423
 7562TIP3   OH222628   3.960   3.685   1.709
 7562TIP3    H122629   3.898   3.698   1.781
 7562TIP3    H222630   3.915   3.627   1.648
 7563TIP3   OH222631   8.134   6.228   4.095
 7563TIP3    H122632   8.178   6.261   4.016
 7563TIP3    H222633   8.186   6.263   4.167
 7564TIP3   OH222634   2.106   5.607   5.855
 7564TIP3    H122635   2.152   5.523   5.851
 7564TIP3    H222636   2.128   5.650   5.773
 7565TIP3   OH222637   6.451   4.706   3.924
 7565TIP3    H122638   6.368   4.720   3.970
 7565TIP3    H222639   6.430   4.724   3.832
 7566TIP3   OH222640   8.207   5.849   6.108
 7566TIP3    H122641   8.229   5.915   6.174
 7566TIP3    H222642   8.284   5.792   6.104
 7567TIP3   OH222643   7.432   2.654   0.289
 7567TIP3    H122644   7.339   2.652   0.267
 7567TIP3    H222645   7.444   2.579   0.348
 7568TIP3   OH222646   4.049   0.071   6.754
 7568TIP3    H122647   4.113   0.017   6.706
 7568TIP3    H222648   4.102   0.135   6.801
 7569TIP3   OH222649   2.428   7.615   4.199
 7569TIP3    H122650   2.520   7.587   4.205
 7569TIP3    H222651   2.429   7.683   4.132
 7570TIP3   OH222652   5.885   0.275   4.197
 7570TIP3    H122653   5.898   0.370   4.189
 7570TIP3    H222654   5.957   0.246   4.253
 7571TIP3   OH222655   2.014   0.894   4.147
 7571TIP3    H122656   1.939   0.846   4.180
 7571TIP3    H222657   2.089   0.835   4.159
 7572TIP3   OH222658   2.885   2.628   4.363
 7572TIP3    H122659   2.876   2.594   4.452
 7572TIP3    H222660   2.966   2.588   4.330
 7573TIP3   OH222661   2.402   5.978   0.529
 7573TIP3    H122662   2.391   6.073   0.530
 7573TIP3    H222663   2.325   5.944   0.574
 7574TIP3   OH222664   3.361   3.526   0.311
 7574TIP3    H122665   3.283   3.553   0.361
 7574TIP3    H222666   3.431   3.523   0.377
 7575TIP3   OH222667   6.028   5.823   5.313
 7575TIP3    H122668   6.117   5.789   5.304
 7575TIP3    H222669   6.014   5.827   5.408
 7576TIP3   OH222670   6.094   3.191   5.789
 7576TIP3    H122671   6.160   3.181   5.721
 7576TIP3    H222672   6.138   3.239   5.859
 7577TIP3   OH222673   4.326   3.390   4.931
 7577TIP3    H122674   4.400   3.389   4.990
 7577TIP3    H222675   4.350   3.329   4.861
 7578TIP3   OH222676   4.661   3.855   1.038
 7578TIP3    H122677   4.669   3.809   0.955
 7578TIP3    H222678   4.582   3.909   1.029
 7579TIP3   OH222679   1.172   6.503   1.515
 7579TIP3    H122680   1.247   6.563   1.518
 7579TIP3    H222681   1.136   6.515   1.427
 7580TIP3   OH222682   6.651   3.948   5.386
 7580TIP3    H122683   6.732   3.964   5.337
 7580TIP3    H222684   6.614   4.035   5.400
 7581TIP3   OH222685   4.023   7.547   6.211
 7581TIP3    H122686   3.955   7.525   6.275
 7581TIP3    H222687   4.100   7.566   6.264
 7582TIP3   OH222688   5.883   2.268   5.719
 7582TIP3    H122689   5.867   2.182   5.681
 7582TIP3    H222690   5.800   2.291   5.762
 7583TIP3   OH222691   0.550   0.694   2.058
 7583TIP3    H122692   0.528   0.772   2.108
 7583TIP3    H222693   0.606   0.642   2.117
 7584TIP3   OH222694   6.982   7.727   1.553
 7584TIP3    H122695   6.997   7.635   1.575
 7584TIP3    H222696   6.890   7.732   1.529
 7585TIP3   OH222697   5.927   1.071   6.064
 7585TIP3    H122698   5.922   1.145   6.002
 7585TIP3    H222699   5.971   1.002   6.015
 7586TIP3   OH222700   7.792   0.033   1.164
 7586TIP3    H122701   7.878   0.055   1.129
 7586TIP3    H222702   7.797   0.057   1.257
 7587TIP3   OH222703   6.053   6.171   0.224
 7587TIP3    H122704   6.042   6.105   0.293
 7587TIP3    H222705   5.973   6.164   0.172
 7588TIP3   OH222706   5.772   4.466   6.534
 7588TIP3    H122707   5.720   4.471   6.455
 7588TIP3    H222708   5.772   4.373   6.558
 7589TIP3   OH222709   0.794   2.087   5.352
 7589TIP3    H122710   0.760   2.147   5.419
 7589TIP3    H222711   0.802   2.141   5.273
 7590TIP3   OH222712   4.958   0.232   1.356
 7590TIP3    H122713   5.003   0.157   1.393
 7590TIP3    H222714   5.000   0.308   1.396
 7591TIP3   OH222715   6.913   7.377   5.457
 7591TIP3    H122716   6.963   7.437   5.402
 7591TIP3    H222717   6.942   7.396   5.546
 7592TIP3   OH222718   4.805   5.259   1.695
 7592TIP3    H122719   4.747   5.329   1.724
 7592TIP3    H222720   4.784   5.185   1.751
 7593TIP3   OH222721   1.862   5.154   3.973
 7593TIP3    H122722   1.782   5.105   3.990
 7593TIP3    H222723   1.853   5.185   3.883
 7594TIP3   OH222724   7.202   6.342   1.205
 7594TIP3    H122725   7.214   6.387   1.289
 7594TIP3    H222726   7.149   6.265   1.226
 7595TIP3   OH222727   4.459   7.290   3.711
 7595TIP3    H122728   4.396   7.222   3.686
 7595TIP3    H222729   4.515   7.247   3.776
 7596TIP3   OH222730   5.676   2.553   0.868
 7596TIP3    H122731   5.715   2.636   0.897
 7596TIP3    H222732   5.658   2.567   0.775
 7597TIP3   OH222733   0.304   2.751   4.041
 7597TIP3    H122734   0.347   2.835   4.058
 7597TIP3    H222735   0.237   2.744   4.109
 7598TIP3   OH222736   6.713   0.687   0.473
 7598TIP3    H122737   6.801   0.712   0.499
 7598TIP3    H222738   6.725   0.640   0.390
 7599TIP3   OH222739   8.296   7.689   5.947
 7599TIP3    H122740   8.327   7.756   5.887
 7599TIP3    H222741   8.201   7.686   5.935
 7600TIP3   OH222742   5.592   2.951   3.001
 7600TIP3    H122743   5.539   2.885   3.046
 7600TIP3    H222744   5.602   3.021   3.065
 7601TIP3   OH222745   3.946   0.736   2.806
 7601TIP3    H122746   3.880   0.673   2.834
 7601TIP3    H222747   3.926   0.752   2.714
 7602TIP3   OH222748   5.395   2.816   3.159
 7602TIP3    H122749   5.316   2.871   3.155
 7602TIP3    H222750   5.426   2.826   3.248
 7603TIP3   OH222751   4.803   3.314   0.072
 7603TIP3    H122752   4.755   3.267   0.004
 7603TIP3    H222753   4.890   3.273   0.074
 7604TIP3   OH222754   4.734   7.535   2.317
 7604TIP3    H122755   4.754   7.621   2.356
 7604TIP3    H222756   4.767   7.541   2.227
 7605TIP3   OH222757   0.222   1.483   2.954
 7605TIP3    H122758   0.129   1.500   2.972
 7605TIP3    H222759   0.231   1.388   2.966
 7606TIP3   OH222760   5.717   7.018   6.283
 7606TIP3    H122761   5.779   7.091   6.282
 7606TIP3    H222762   5.633   7.059   6.306
 7607TIP3   OH222763   4.340   5.365   6.768
 7607TIP3    H122764   4.328   5.403   6.681
 7607TIP3    H222765   4.271   5.299   6.774
 7608TIP3   OH222766   3.005   2.949   2.102
 7608TIP3    H122767   2.969   3.031   2.136
 7608TIP3    H222768   2.928   2.896   2.079
 7609TIP3   OH222769   3.968   7.467   0.069
 7609TIP3    H122770   4.026   7.488   0.142
 7609TIP3    H222771   4.010   7.508  -0.007
 7610TIP3   OH222772   6.716   0.733   4.336
 7610TIP3    H122773   6.738   0.811   4.387
 7610TIP3    H222774   6.670   0.767   4.259
 7611TIP3   OH222775   3.876   5.675   0.372
 7611TIP3    H122776   3.856   5.626   0.292
 7611TIP3    H222777   3.870   5.767   0.345
 7612TIP3   OH222778   2.916   0.886   3.244
 7612TIP3    H122779   2.978   0.947   3.204
 7612TIP3    H222780   2.830   0.921   3.222
 7613TIP3   OH222781   3.738   6.622   6.059
 7613TIP3    H122782   3.746   6.675   6.138
 7613TIP3    H222783   3.804   6.656   5.999
 7614TIP3   OH222784   7.390   4.407   2.005
 7614TIP3    H122785   7.351   4.483   2.049
 7614TIP3    H222786   7.475   4.396   2.047
 7615TIP3   OH222787   6.720   6.647   4.772
 7615TIP3    H122788   6.786   6.712   4.752
 7615TIP3    H222789   6.656   6.693   4.826
 7616TIP3   OH222790   1.450   5.104   5.581
 7616TIP3    H122791   1.439   5.009   5.576
 7616TIP3    H222792   1.365   5.139   5.553
 7617TIP3   OH222793   6.009   2.626   3.571
 7617TIP3    H122794   6.011   2.617   3.476
 7617TIP3    H222795   6.080   2.688   3.591
 7618TIP3   OH222796   6.839   3.527   3.541
 7618TIP3    H122797   6.766   3.575   3.580
 7618TIP3    H222798   6.811   3.512   3.451
 7619TIP3   OH222799   0.967   2.064   6.756
 7619TIP3    H122800   0.901   2.030   6.696
 7619TIP3    H222801   0.956   2.159   6.753
 7620TIP3   OH222802   6.141   3.917   0.758
 7620TIP3    H122803   6.068   3.869   0.797
 7620TIP3    H222804   6.205   3.925   0.828
 7621TIP3   OH222805   7.570   7.712   5.775
 7621TIP3    H122806   7.624   7.751   5.844
 7621TIP3    H222807   7.546   7.626   5.808
 7622TIP3   OH222808   6.478   1.771   3.928
 7622TIP3    H122809   6.546   1.729   3.875
 7622TIP3    H222810   6.494   1.740   4.017
 7623TIP3   OH222811   5.318   2.346   4.197
 7623TIP3    H122812   5.287   2.362   4.108
 7623TIP3    H222813   5.259   2.280   4.232
 7624TIP3   OH222814   4.056   3.456   4.165
 7624TIP3    H122815   4.046   3.367   4.130
 7624TIP3    H222816   3.995   3.459   4.238
 7625TIP3   OH222817   7.425   7.171   4.530
 7625TIP3    H122818   7.379   7.114   4.591
 7625TIP3    H222819   7.387   7.151   4.445
 7626TIP3   OH222820   4.558   4.184   4.420
 7626TIP3    H122821   4.614   4.172   4.344
 7626TIP3    H222822   4.570   4.104   4.472
 7627TIP3   OH222823   6.386   3.470   3.856
 7627TIP3    H122824   6.386   3.499   3.764
 7627TIP3    H222825   6.426   3.383   3.853
 7628TIP3   OH222826   7.319   5.925   6.106
 7628TIP3    H122827   7.402   5.973   6.102
 7628TIP3    H222828   7.331   5.865   6.180
 7629TIP3   OH222829   0.481   0.298   0.876
 7629TIP3    H122830   0.552   0.243   0.844
 7629TIP3    H222831   0.495   0.383   0.834
 7630TIP3   OH222832   1.463   3.247   5.740
 7630TIP3    H122833   1.514   3.324   5.764
 7630TIP3    H222834   1.501   3.218   5.656
 7631TIP3   OH222835   4.449   2.446   6.625
 7631TIP3    H122836   4.385   2.466   6.557
 7631TIP3    H222837   4.507   2.381   6.586
 7632TIP3   OH222838   1.508   6.823   2.019
 7632TIP3    H122839   1.484   6.743   2.066
 7632TIP3    H222840   1.598   6.808   1.989
 7633TIP3   OH222841   2.682   4.119   1.912
 7633TIP3    H122842   2.655   4.089   1.825
 7633TIP3    H222843   2.644   4.206   1.921
 7634TIP3   OH222844   2.544   7.813   0.680
 7634TIP3    H122845   2.526   7.841   0.769
 7634TIP3    H222846   2.588   7.728   0.690
 7635TIP3   OH222847   2.317   0.905   4.370
 7635TIP3    H122848   2.258   0.981   4.376
 7635TIP3    H222849   2.321   0.885   4.277
 7636TIP3   OH222850   0.609   2.782   1.616
 7636TIP3    H122851   0.651   2.713   1.668
 7636TIP3    H222852   0.521   2.748   1.599
 7637TIP3   OH222853   3.677   5.963   3.034
 7637TIP3    H122854   3.635   5.911   2.966
 7637TIP3    H222855   3.742   5.904   3.073
 7638TIP3   OH222856   0.416   0.402   0.590
 7638TIP3    H122857   0.347   0.464   0.566
 7638TIP3    H222858   0.389   0.319   0.551
 7639TIP3   OH222859   3.757   3.585   3.637
 7639TIP3    H122860   3.802   3.662   3.605
 7639TIP3    H222861   3.818   3.513   3.625
 7640TIP3   OH222862   4.232   3.602   2.971
 7640TIP3    H122863   4.178   3.636   2.900
 7640TIP3    H222864   4.318   3.639   2.956
 7641TIP3   OH222865   6.916   1.043   1.510
 7641TIP3    H122866   6.845   1.080   1.457
 7641TIP3    H222867   6.979   1.114   1.519
 7642TIP3   OH222868   1.925   5.591   0.917
 7642TIP3    H122869   1.965   5.671   0.883
 7642TIP3    H222870   1.979   5.520   0.883
 7643TIP3   OH222871   6.095   3.541   5.888
 7643TIP3    H122872   6.018   3.496   5.923
 7643TIP3    H222873   6.169   3.494   5.926
 7644TIP3   OH222874   2.428   6.027   0.237
 7644TIP3    H122875   2.394   6.017   0.325
 7644TIP3    H222876   2.514   6.068   0.249
 7645TIP3   OH222877   8.211   1.259   0.299
 7645TIP3    H122878   8.171   1.207   0.229
 7645TIP3    H222879   8.303   1.234   0.298
 7646TIP3   OH222880   6.034   5.715   3.324
 7646TIP3    H122881   6.013   5.639   3.270
 7646TIP3    H222882   6.120   5.696   3.361
 7647TIP3   OH222883   8.237   5.681   6.515
 7647TIP3    H122884   8.174   5.740   6.557
 7647TIP3    H222885   8.312   5.681   6.574
 7648TIP3   OH222886   7.141   6.543   3.202
 7648TIP3    H122887   7.218   6.506   3.245
 7648TIP3    H222888   7.133   6.495   3.120
 7649TIP3   OH222889   3.329   1.582   3.362
 7649TIP3    H122890   3.410   1.633   3.361
 7649TIP3    H222891   3.277   1.617   3.289
 7650TIP3   OH222892   2.918   7.666   4.485
 7650TIP3    H122893   2.935   7.588   4.537
 7650TIP3    H222894   3.000   7.716   4.489
 7651TIP3   OH222895   5.671   2.281   0.856
 7651TIP3    H122896   5.682   2.376   0.861
 7651TIP3    H222897   5.642   2.265   0.766
 7652TIP3   OH222898   3.329   7.803   2.363
 7652TIP3    H122899   3.411   7.778   2.321
 7652TIP3    H222900   3.288   7.720   2.387
 7653TIP3   OH222901   1.807   6.033   4.098
 7653TIP3    H122902   1.831   6.036   4.005
 7653TIP3    H222903   1.802   6.125   4.124
 7654TIP3   OH222904   2.587   4.879   6.110
 7654TIP3    H122905   2.631   4.953   6.153
 7654TIP3    H222906   2.658   4.821   6.083
 7655TIP3   OH222907   0.665   0.514   4.925
 7655TIP3    H122908   0.712   0.475   4.999
 7655TIP3    H222909   0.724   0.500   4.850
 7656TIP3   OH222910   1.957   6.928   0.083
 7656TIP3    H122911   1.929   6.881   0.005
 7656TIP3    H222912   2.048   6.901   0.097
 7657TIP3   OH222913   6.641   1.074   6.701
 7657TIP3    H122914   6.607   1.137   6.764
 7657TIP3    H222915   6.593   1.092   6.620
 7658TIP3   OH222916   0.914   2.461   4.148
 7658TIP3    H122917   0.897   2.386   4.204
 7658TIP3    H222918   1.000   2.493   4.176
 7659TIP3   OH222919   3.317   2.766   6.634
 7659TIP3    H122920   3.248   2.748   6.698
 7659TIP3    H222921   3.271   2.778   6.551
 7660TIP3   OH222922   6.722   5.352   4.981
 7660TIP3    H122923   6.744   5.441   4.956
 7660TIP3    H222924   6.639   5.334   4.936
 7661TIP3   OH222925   2.702   6.396   6.480
 7661TIP3    H122926   2.642   6.359   6.543
 7661TIP3    H222927   2.653   6.398   6.398
 7662TIP3   OH222928   5.532   7.330   6.638
 7662TIP3    H122929   5.596   7.393   6.670
 7662TIP3    H222930   5.448   7.373   6.649
 7663TIP3   OH222931   1.160   5.854   1.611
 7663TIP3    H122932   1.244   5.856   1.657
 7663TIP3    H222933   1.140   5.760   1.601
 7664TIP3   OH222934   5.449   6.672   0.241
 7664TIP3    H122935   5.383   6.682   0.310
 7664TIP3    H222936   5.484   6.760   0.228
 7665TIP3   OH222937   0.354   3.097   1.141
 7665TIP3    H122938   0.435   3.095   1.091
 7665TIP3    H222939   0.354   3.016   1.191
 7666TIP3   OH222940   6.461   5.575   5.763
 7666TIP3    H122941   6.443   5.488   5.799
 7666TIP3    H222942   6.556   5.585   5.771
 7667TIP3   OH222943   0.655   7.310   0.623
 7667TIP3    H122944   0.736   7.277   0.584
 7667TIP3    H222945   0.677   7.322   0.715
 7668TIP3   OH222946   4.986   6.924   2.488
 7668TIP3    H122947   4.916   6.989   2.482
 7668TIP3    H222948   5.064   6.971   2.458
 7669TIP3   OH222949   4.644   6.407   2.782
 7669TIP3    H122950   4.619   6.393   2.873
 7669TIP3    H222951   4.562   6.432   2.739
 7670TIP3   OH222952   1.162   2.502   5.965
 7670TIP3    H122953   1.129   2.576   6.017
 7670TIP3    H222954   1.104   2.429   5.988
 7671TIP3   OH222955   2.965   1.875   2.253
 7671TIP3    H122956   2.886   1.871   2.201
 7671TIP3    H222957   3.036   1.860   2.191
 7672TIP3   OH222958   1.884   4.099   2.132
 7672TIP3    H122959   1.817   4.106   2.200
 7672TIP3    H222960   1.961   4.141   2.170
 7673TIP3   OH222961   5.162   6.501   0.618
 7673TIP3    H122962   5.206   6.474   0.698
 7673TIP3    H222963   5.155   6.421   0.565
 7674TIP3   OH222964   2.574   5.759   4.227
 7674TIP3    H122965   2.636   5.777   4.297
 7674TIP3    H222966   2.548   5.845   4.195
 7675TIP3   OH222967   8.198   4.868   5.345
 7675TIP3    H122968   8.225   4.777   5.331
 7675TIP3    H222969   8.266   4.920   5.302
 7676TIP3   OH222970   6.179   3.432   6.241
 7676TIP3    H122971   6.152   3.378   6.315
 7676TIP3    H222972   6.112   3.499   6.234
 7677TIP3   OH222973   0.555   0.553   6.307
 7677TIP3    H122974   0.633   0.553   6.252
 7677TIP3    H222975   0.589   0.545   6.396
 7678TIP3   OH222976   1.957   3.646   5.161
 7678TIP3    H122977   1.895   3.606   5.222
 7678TIP3    H222978   2.000   3.572   5.118
 7679TIP3   OH222979   7.085   6.148   0.056
 7679TIP3    H122980   7.079   6.240   0.031
 7679TIP3    H222981   7.177   6.137   0.082
 7680TIP3   OH222982   1.579   6.689   0.649
 7680TIP3    H122983   1.651   6.649   0.601
 7680TIP3    H222984   1.558   6.627   0.718
 7681TIP3   OH222985   3.513   6.678   2.555
 7681TIP3    H122986   3.478   6.639   2.635
 7681TIP3    H222987   3.567   6.608   2.517
 7682TIP3   OH222988   7.199   4.547   3.737
 7682TIP3    H122989   7.258   4.519   3.667
 7682TIP3    H222990   7.117   4.567   3.691
 7683TIP3   OH222991   4.236   0.085   1.199
 7683TIP3    H122992   4.184   0.026   1.145
 7683TIP3    H222993   4.277   0.145   1.137
 7684TIP3   OH222994   4.719   5.935   5.327
 7684TIP3    H122995   4.644   5.887   5.362
 7684TIP3    H222996   4.745   5.993   5.399
 7685TIP3   OH222997   4.181   4.488   4.824
 7685TIP3    H122998   4.205   4.564   4.771
 7685TIP3    H222999   4.258   4.470   4.877
 7686TIP3   OH223000   0.209   2.330   5.294
 7686TIP3    H123001   0.275   2.261   5.299
 7686TIP3    H223002   0.144   2.305   5.360
 7687TIP3   OH223003   8.018   0.841   0.074
 7687TIP3    H123004   8.053   0.871   0.158
 7687TIP3    H223005   7.997   0.921   0.027
 7688TIP3   OH223006   3.576   5.065   3.392
 7688TIP3    H123007   3.665   5.096   3.380
 7688TIP3    H223008   3.572   5.038   3.483
 7689TIP3   OH223009   7.869   1.587   2.099
 7689TIP3    H123010   7.773   1.586   2.100
 7689TIP3    H223011   7.894   1.500   2.066
 7690TIP3   OH223012   8.044   6.527   1.925
 7690TIP3    H123013   8.041   6.583   2.002
 7690TIP3    H223014   8.103   6.572   1.865
 7691TIP3   OH223015   6.459   3.164   3.972
 7691TIP3    H123016   6.535   3.107   3.960
 7691TIP3    H223017   6.467   3.195   4.063
 7692TIP3   OH223018   6.943   6.115   5.508
 7692TIP3    H123019   6.882   6.053   5.550
 7692TIP3    H223020   7.016   6.121   5.568
 7693TIP3   OH223021   5.561   2.084   2.397
 7693TIP3    H123022   5.554   2.056   2.488
 7693TIP3    H223023   5.558   2.180   2.402
 7694TIP3   OH223024   1.703   0.608   5.849
 7694TIP3    H123025   1.787   0.615   5.804
 7694TIP3    H223026   1.722   0.631   5.940
 7695TIP3   OH223027   6.701   7.399   3.546
 7695TIP3    H123028   6.758   7.328   3.577
 7695TIP3    H223029   6.666   7.439   3.626
 7696TIP3   OH223030   7.403   3.595   0.523
 7696TIP3    H123031   7.353   3.653   0.581
 7696TIP3    H223032   7.346   3.520   0.510
 7697TIP3   OH223033   2.081   1.592   0.938
 7697TIP3    H123034   2.101   1.557   1.025
 7697TIP3    H223035   1.991   1.624   0.944
 7698TIP3   OH223036   3.045   4.953   3.659
 7698TIP3    H123037   3.004   5.002   3.587
 7698TIP3    H223038   3.060   5.019   3.727
 7699TIP3   OH223039   3.602   7.615   5.264
 7699TIP3    H123040   3.603   7.524   5.236
 7699TIP3    H223041   3.515   7.629   5.300
 7700TIP3   OH223042   0.434   4.782   5.377
 7700TIP3    H123043   0.500   4.840   5.415
 7700TIP3    H223044   0.424   4.712   5.441
 7701TIP3   OH223045   1.102   4.320   1.679
 7701TIP3    H123046   1.125   4.413   1.678
 7701TIP3    H223047   1.186   4.275   1.675
 7702TIP3   OH223048   0.371   5.731   4.340
 7702TIP3    H123049   0.447   5.677   4.364
 7702TIP3    H223050   0.310   5.721   4.414
 7703TIP3   OH223051   5.945   1.315   0.875
 7703TIP3    H123052   5.949   1.402   0.835
 7703TIP3    H223053   5.954   1.254   0.802
 7704TIP3   OH223054   0.418   0.767   4.913
 7704TIP3    H123055   0.392   0.678   4.890
 7704TIP3    H223056   0.470   0.758   4.993
 7705TIP3   OH223057   8.182   5.139   4.143
 7705TIP3    H123058   8.258   5.194   4.165
 7705TIP3    H223059   8.108   5.184   4.184
 7706TIP3   OH223060   8.083   3.471   2.518
 7706TIP3    H123061   8.059   3.379   2.528
 7706TIP3    H223062   8.023   3.518   2.576
 7707TIP3   OH223063   7.110   0.118   5.775
 7707TIP3    H123064   7.193   0.091   5.813
 7707TIP3    H223065   7.110   0.080   5.688
 7708TIP3   OH223066   3.002   7.618   3.277
 7708TIP3    H123067   3.034   7.559   3.345
 7708TIP3    H223068   3.069   7.687   3.272
 7709TIP3   OH223069   3.438   4.448   5.387
 7709TIP3    H123070   3.364   4.419   5.440
 7709TIP3    H223071   3.514   4.402   5.424
 7710TIP3   OH223072   2.179   0.457   6.325
 7710TIP3    H123073   2.145   0.442   6.413
 7710TIP3    H223074   2.221   0.375   6.301
 7711TIP3   OH223075   0.101   7.064   1.494
 7711TIP3    H123076   0.070   7.145   1.534
 7711TIP3    H223077   0.196   7.069   1.499
 7712TIP3   OH223078   5.115   6.693   4.115
 7712TIP3    H123079   5.057   6.636   4.166
 7712TIP3    H223080   5.164   6.633   4.060
 7713TIP3   OH223081   5.482   5.352   2.870
 7713TIP3    H123082   5.509   5.411   2.799
 7713TIP3    H223083   5.391   5.331   2.849
 7714TIP3   OH223084   6.012   4.165   0.058
 7714TIP3    H123085   6.068   4.106   0.109
 7714TIP3    H223086   6.073   4.214   0.002
 7715TIP3   OH223087   1.201   7.562   5.302
 7715TIP3    H123088   1.177   7.651   5.274
 7715TIP3    H223089   1.292   7.569   5.331
 7716TIP3   OH223090   2.995   5.704   5.388
 7716TIP3    H123091   3.013   5.672   5.476
 7716TIP3    H223092   3.081   5.727   5.353
 7717TIP3   OH223093   3.011   5.702   0.658
 7717TIP3    H123094   3.067   5.641   0.611
 7717TIP3    H223095   2.922   5.682   0.627
 7718TIP3   OH223096   8.039   4.417   2.174
 7718TIP3    H123097   8.053   4.510   2.157
 7718TIP3    H223098   8.014   4.381   2.089
 7719TIP3   OH223099   2.330   6.736   3.990
 7719TIP3    H123100   2.414   6.692   3.975
 7719TIP3    H223101   2.350   6.806   4.052
 7720TIP3   OH223102   2.001   3.549   0.127
 7720TIP3    H123103   1.983   3.642   0.110
 7720TIP3    H223104   1.965   3.533   0.214
 7721TIP3   OH223105   5.112   4.839   0.966
 7721TIP3    H123106   5.180   4.894   0.927
 7721TIP3    H223107   5.031   4.890   0.954
 7722TIP3   OH223108   1.437   1.240   0.020
 7722TIP3    H123109   1.391   1.225   0.103
 7722TIP3    H223110   1.404   1.172  -0.039
 7723TIP3   OH223111   0.002   2.240   3.855
 7723TIP3    H123112  -0.043   2.208   3.933
 7723TIP3    H223113   0.064   2.170   3.833
 7724TIP3   OH223114   2.367   3.927   4.098
 7724TIP3    H123115   2.406   3.958   4.179
 7724TIP3    H223116   2.282   3.971   4.093
 7725TIP3   OH223117   7.623   2.766   4.038
 7725TIP3    H123118   7.646   2.800   4.124
 7725TIP3    H223119   7.560   2.829   4.003
 7726TIP3   OH223120   6.689   3.346   5.976
 7726TIP3    H123121   6.681   3.335   5.881
 7726TIP3    H223122   6.676   3.440   5.991
 7727TIP3   OH223123   7.245   2.763   2.567
 7727TIP3    H123124   7.330   2.753   2.610
 7727TIP3    H223125   7.261   2.745   2.475
 7728TIP3   OH223126   6.204   6.471   1.562
 7728TIP3    H123127   6.245   6.555   1.583
 7728TIP3    H223128   6.178   6.479   1.470
 7729TIP3   OH223129   1.492   6.730   1.076
 7729TIP3    H123130   1.474   6.674   1.001
 7729TIP3    H223131   1.542   6.804   1.040
 7730TIP3   OH223132   6.318   2.161   2.325
 7730TIP3    H123133   6.288   2.085   2.276
 7730TIP3    H223134   6.403   2.182   2.288
 7731TIP3   OH223135   0.379   2.675   1.559
 7731TIP3    H123136   0.331   2.673   1.476
 7731TIP3    H223137   0.437   2.599   1.554
 7732TIP3   OH223138   7.795   2.056   4.692
 7732TIP3    H123139   7.852   2.134   4.689
 7732TIP3    H223140   7.804   2.017   4.605
 7733TIP3   OH223141   2.168   2.839   5.663
 7733TIP3    H123142   2.258   2.824   5.693
 7733TIP3    H223143   2.171   2.926   5.623
 7734TIP3   OH223144   0.050   5.300   2.135
 7734TIP3    H123145   0.025   5.388   2.110
 7734TIP3    H223146   0.117   5.274   2.072
 7735TIP3   OH223147   6.770   3.551   3.859
 7735TIP3    H123148   6.723   3.531   3.940
 7735TIP3    H223149   6.701   3.577   3.797
 7736TIP3   OH223150   5.773   0.628   2.546
 7736TIP3    H123151   5.795   0.537   2.568
 7736TIP3    H223152   5.809   0.641   2.459
 7737TIP3   OH223153   6.993   3.640   3.748
 7737TIP3    H123154   6.952   3.579   3.809
 7737TIP3    H223155   6.952   3.622   3.664
 7738TIP3   OH223156   8.016   7.485   4.162
 7738TIP3    H123157   7.942   7.435   4.127
 7738TIP3    H223158   8.089   7.463   4.105
 7739TIP3   OH223159   8.023   7.056   5.836
 7739TIP3    H123160   7.980   7.039   5.919
 7739TIP3    H223161   7.990   6.989   5.777
 7740TIP3   OH223162   1.247   4.228   2.384
 7740TIP3    H123163   1.207   4.302   2.337
 7740TIP3    H223164   1.266   4.263   2.471
 7741TIP3   OH223165   0.082   2.382   1.516
 7741TIP3    H123166   0.072   2.315   1.584
 7741TIP3    H223167   0.093   2.464   1.565
 7742TIP3   OH223168   8.050   0.775   1.939
 7742TIP3    H123169   8.098   0.785   2.021
 7742TIP3    H223170   8.007   0.859   1.926
 7743TIP3   OH223171   5.552   2.089   5.748
 7743TIP3    H123172   5.462   2.058   5.755
 7743TIP3    H223173   5.545   2.175   5.706
 7744TIP3   OH223174   2.243   7.078   1.359
 7744TIP3    H123175   2.305   7.138   1.402
 7744TIP3    H223176   2.278   6.991   1.378
 7745TIP3   OH223177   0.812   7.283   3.693
 7745TIP3    H123178   0.900   7.288   3.656
 7745TIP3    H223179   0.824   7.237   3.777
 7746TIP3   OH223180   0.114   5.810   1.111
 7746TIP3    H123181   0.136   5.896   1.073
 7746TIP3    H223182   0.198   5.764   1.114
 7747TIP3   OH223183   1.126   5.727   2.415
 7747TIP3    H123184   1.100   5.819   2.426
 7747TIP3    H223185   1.185   5.710   2.489
 7748TIP3   OH223186   7.100   7.247   0.141
 7748TIP3    H123187   7.065   7.165   0.177
 7748TIP3    H223188   7.174   7.220   0.087
 7749TIP3   OH223189   2.702   7.077   4.768
 7749TIP3    H123190   2.643   7.137   4.814
 7749TIP3    H223191   2.697   7.104   4.676
 7750TIP3   OH223192   1.851   6.478   5.207
 7750TIP3    H123193   1.851   6.574   5.209
 7750TIP3    H223194   1.911   6.456   5.136
 7751TIP3   OH223195   7.031   2.510   2.434
 7751TIP3    H123196   7.000   2.420   2.430
 7751TIP3    H223197   6.976   2.551   2.500
 7752TIP3   OH223198   1.446   1.607   6.322
 7752TIP3    H123199   1.477   1.537   6.264
 7752TIP3    H223200   1.522   1.629   6.376
 7753TIP3   OH223201   6.314   3.753   5.186
 7753TIP3    H123202   6.323   3.658   5.181
 7753TIP3    H223203   6.401   3.784   5.212
 7754TIP3   OH223204   3.172   3.924   4.288
 7754TIP3    H123205   3.127   3.959   4.210
 7754TIP3    H223206   3.265   3.927   4.266
 7755TIP3   OH223207   6.078   4.474   3.636
 7755TIP3    H123208   6.049   4.499   3.724
 7755TIP3    H223209   6.107   4.383   3.645
 7756TIP3   OH223210   7.245   5.929   1.743
 7756TIP3    H123211   7.250   5.874   1.822
 7756TIP3    H223212   7.334   5.931   1.710
 7757TIP3   OH223213   6.407   2.253   4.697
 7757TIP3    H123214   6.341   2.265   4.765
 7757TIP3    H223215   6.356   2.250   4.615
 7758TIP3   OH223216   4.905   3.071   0.797
 7758TIP3    H123217   4.849   3.058   0.874
 7758TIP3    H223218   4.902   2.987   0.752
 7759TIP3   OH223219   1.778   4.744   0.264
 7759TIP3    H123220   1.810   4.655   0.280
 7759TIP3    H223221   1.853   4.790   0.227
 7760TIP3   OH223222   4.448   5.114   2.427
 7760TIP3    H123223   4.523   5.168   2.450
 7760TIP3    H223224   4.486   5.033   2.392
 7761TIP3   OH223225   1.577   2.282   2.327
 7761TIP3    H123226   1.611   2.321   2.407
 7761TIP3    H223227   1.557   2.358   2.271
 7762TIP3   OH223228   4.665   7.449   6.109
 7762TIP3    H123229   4.604   7.405   6.168
 7762TIP3    H223230   4.614   7.464   6.029
 7763TIP3   OH223231   4.312   2.137   6.107
 7763TIP3    H123232   4.326   2.051   6.066
 7763TIP3    H223233   4.380   2.144   6.173
 7764TIP3   OH223234   1.530   1.091   4.523
 7764TIP3    H123235   1.450   1.132   4.555
 7764TIP3    H223236   1.597   1.159   4.532
 7765TIP3   OH223237   3.064   1.858   6.205
 7765TIP3    H123238   3.123   1.928   6.234
 7765TIP3    H223239   3.096   1.780   6.250
 7766TIP3   OH223240   5.098   0.392   6.667
 7766TIP3    H123241   5.035   0.451   6.707
 7766TIP3    H223242   5.170   0.449   6.638
 7767TIP3   OH223243   6.355   4.206   0.849
 7767TIP3    H123244   6.379   4.233   0.761
 7767TIP3    H223245   6.421   4.141   0.873
 7768TIP3   OH223246   5.900   1.306   2.469
 7768TIP3    H123247   5.962   1.246   2.429
 7768TIP3    H223248   5.870   1.361   2.396
 7769TIP3   OH223249   2.016   4.178   3.065
 7769TIP3    H123250   1.968   4.191   2.983
 7769TIP3    H223251   2.083   4.114   3.042
 7770TIP3   OH223252   3.556   5.823   0.510
 7770TIP3    H123253   3.599   5.796   0.429
 7770TIP3    H223254   3.465   5.793   0.501
 7771TIP3   OH223255   2.812   7.638   4.238
 7771TIP3    H123256   2.855   7.686   4.167
 7771TIP3    H223257   2.879   7.633   4.307
 7772TIP3   OH223258   4.425   0.455   4.160
 7772TIP3    H123259   4.358   0.520   4.142
 7772TIP3    H223260   4.388   0.372   4.130
 7773TIP3   OH223261   7.966   3.599   4.336
 7773TIP3    H123262   7.871   3.611   4.334
 7773TIP3    H223263   7.984   3.532   4.270
 7774TIP3   OH223264   4.097   7.301   2.796
 7774TIP3    H123265   4.123   7.266   2.882
 7774TIP3    H223266   4.164   7.365   2.775
 7775TIP3   OH223267   5.458   2.622   3.576
 7775TIP3    H123268   5.512   2.543   3.572
 7775TIP3    H223269   5.368   2.590   3.567
 7776TIP3   OH223270   1.862   5.292   6.493
 7776TIP3    H123271   1.768   5.302   6.506
 7776TIP3    H223272   1.902   5.327   6.573
 7777TIP3   OH223273   4.907   3.972   0.149
 7777TIP3    H123274   4.846   3.959   0.076
 7777TIP3    H223275   4.989   3.932   0.120
 7778TIP3   OH223276   4.704   2.013   3.050
 7778TIP3    H123277   4.758   2.040   3.125
 7778TIP3    H223278   4.732   1.924   3.031
 7779TIP3   OH223279   6.045   0.884   2.145
 7779TIP3    H123280   5.985   0.824   2.188
 7779TIP3    H223281   6.123   0.830   2.126
 7780TIP3   OH223282   1.965   3.813   4.146
 7780TIP3    H123283   2.043   3.794   4.199
 7780TIP3    H223284   1.999   3.844   4.063
 7781TIP3   OH223285   0.153   5.944   4.444
 7781TIP3    H123286   0.075   5.970   4.396
 7781TIP3    H223287   0.121   5.895   4.519
 7782TIP3   OH223288   1.374   5.372   0.075
 7782TIP3    H123289   1.423   5.347  -0.003
 7782TIP3    H223290   1.351   5.464   0.061
 7783TIP3   OH223291   0.615   2.087   1.544
 7783TIP3    H123292   0.639   2.001   1.509
 7783TIP3    H223293   0.613   2.075   1.639
 7784TIP3   OH223294   2.731   4.379   1.629
 7784TIP3    H123295   2.824   4.402   1.629
 7784TIP3    H223296   2.693   4.433   1.560
 7785TIP3   OH223297   7.942   4.950   0.678
 7785TIP3    H123298   8.001   5.002   0.623
 7785TIP3    H223299   7.955   4.985   0.766
 7786TIP3   OH223300   4.356   3.573   4.088
 7786TIP3    H123301   4.266   3.546   4.104
 7786TIP3    H223302   4.389   3.510   4.025
 7787TIP3   OH223303   7.376   1.114   2.593
 7787TIP3    H123304   7.460   1.160   2.608
 7787TIP3    H223305   7.349   1.086   2.680
 7788TIP3   OH223306   4.098   3.373   1.401
 7788TIP3    H123307   4.053   3.333   1.326
 7788TIP3    H223308   4.112   3.301   1.462
 7789TIP3   OH223309   1.399   2.110   1.251
 7789TIP3    H123310   1.437   2.047   1.312
 7789TIP3    H223311   1.467   2.176   1.240
 7790TIP3   OH223312   0.801   7.790   2.414
 7790TIP3    H123313   0.813   7.729   2.342
 7790TIP3    H223314   0.808   7.877   2.373
 7791TIP3   OH223315   2.596   3.986   2.774
 7791TIP3    H123316   2.681   4.029   2.785
 7791TIP3    H223317   2.604   3.938   2.691
 7792TIP3   OH223318   3.827   4.819   2.975
 7792TIP3    H123319   3.751   4.784   2.929
 7792TIP3    H223320   3.807   4.806   3.067
 7793TIP3   OH223321   0.587   7.047   0.898
 7793TIP3    H123322   0.541   6.972   0.860
 7793TIP3    H223323   0.581   7.033   0.992
 7794TIP3   OH223324   5.951   2.564   6.421
 7794TIP3    H123325   5.903   2.503   6.476
 7794TIP3    H223326   6.042   2.534   6.425
 7795TIP3   OH223327   1.797   3.500   4.875
 7795TIP3    H123328   1.832   3.587   4.856
 7795TIP3    H223329   1.704   3.506   4.852
 7796TIP3   OH223330   8.202   4.950   6.241
 7796TIP3    H123331   8.122   4.898   6.251
 7796TIP3    H223332   8.190   5.024   6.300
 7797TIP3   OH223333   6.824   2.938   1.518
 7797TIP3    H123334   6.802   2.852   1.483
 7797TIP3    H223335   6.775   2.944   1.600
 7798TIP3   OH223336   2.002   7.016   0.946
 7798TIP3    H123337   2.005   6.939   1.001
 7798TIP3    H223338   2.063   6.997   0.874
 7799TIP3   OH223339   5.470   6.908   5.987
 7799TIP3    H123340   5.416   6.875   6.059
 7799TIP3    H223341   5.466   6.839   5.921
 7800TIP3   OH223342   5.926   1.178   6.615
 7800TIP3    H123343   5.901   1.265   6.646
 7800TIP3    H223344   5.939   1.127   6.695
 7801TIP3   OH223345   8.244   2.115   4.156
 7801TIP3    H123346   8.268   2.173   4.228
 7801TIP3    H223347   8.151   2.131   4.141
 7802TIP3   OH223348   4.089   4.238   4.783
 7802TIP3    H123349   4.124   4.327   4.781
 7802TIP3    H223350   3.996   4.249   4.800
 7803TIP3   OH223351   1.435   7.747   1.522
 7803TIP3    H123352   1.455   7.822   1.467
 7803TIP3    H223353   1.362   7.775   1.577
 7804TIP3   OH223354   7.947   0.541   3.011
 7804TIP3    H123355   7.924   0.621   2.965
 7804TIP3    H223356   8.006   0.569   3.081
 7805TIP3   OH223357   3.420   6.537   6.474
 7805TIP3    H123358   3.475   6.580   6.539
 7805TIP3    H223359   3.470   6.459   6.448
 7806TIP3   OH223360   6.667   0.418   6.693
 7806TIP3    H123361   6.581   0.458   6.682
 7806TIP3    H223362   6.650   0.324   6.691
 7807TIP3   OH223363   4.672   4.403   2.448
 7807TIP3    H123364   4.654   4.383   2.356
 7807TIP3    H223365   4.628   4.333   2.497
 7808TIP3   OH223366   2.926   5.216   1.434
 7808TIP3    H123367   2.960   5.191   1.520
 7808TIP3    H223368   2.983   5.287   1.406
 7809TIP3   OH223369   5.770   5.486   2.809
 7809TIP3    H123370   5.727   5.571   2.800
 7809TIP3    H223371   5.737   5.435   2.735
 7810TIP3   OH223372   0.678   6.833   6.001
 7810TIP3    H123373   0.660   6.758   6.058
 7810TIP3    H223374   0.769   6.821   5.974
 7811TIP3   OH223375   7.322   2.800   5.151
 7811TIP3    H123376   7.245   2.744   5.147
 7811TIP3    H223377   7.289   2.889   5.143
 7812TIP3   OH223378   5.608   6.358   0.971
 7812TIP3    H123379   5.603   6.263   0.966
 7812TIP3    H223380   5.659   6.375   1.050
 7813TIP3   OH223381   1.953   7.654   2.902
 7813TIP3    H123382   2.012   7.726   2.924
 7813TIP3    H223383   1.865   7.688   2.922
 7814TIP3   OH223384   7.244   2.198   4.664
 7814TIP3    H123385   7.216   2.268   4.722
 7814TIP3    H223386   7.164   2.149   4.645
 7815TIP3   OH223387   4.142   1.044   4.545
 7815TIP3    H123388   4.065   1.011   4.591
 7815TIP3    H223389   4.192   1.090   4.612
 7816TIP3   OH223390   1.269   4.745   2.908
 7816TIP3    H123391   1.291   4.780   2.994
 7816TIP3    H223392   1.327   4.669   2.897
 7817TIP3   OH223393   5.990   0.744   2.707
 7817TIP3    H123394   6.049   0.780   2.641
 7817TIP3    H223395   5.909   0.726   2.661
 7818TIP3   OH223396   5.081   1.147   4.967
 7818TIP3    H123397   5.123   1.091   4.902
 7818TIP3    H223398   4.988   1.145   4.944
 7819TIP3   OH223399   2.724   2.258   0.340
 7819TIP3    H123400   2.724   2.166   0.313
 7819TIP3    H223401   2.632   2.281   0.347
 7820TIP3   OH223402   1.056   3.096   5.057
 7820TIP3    H123403   1.077   3.029   5.122
 7820TIP3    H223404   1.053   3.177   5.107
 7821TIP3   OH223405   4.769   0.401   3.435
 7821TIP3    H123406   4.850   0.371   3.394
 7821TIP3    H223407   4.781   0.496   3.445
 7822TIP3   OH223408   5.681   4.655   4.299
 7822TIP3    H123409   5.624   4.732   4.287
 7822TIP3    H223410   5.770   4.690   4.289
 7823TIP3   OH223411   3.457   5.627   2.073
 7823TIP3    H123412   3.428   5.577   2.149
 7823TIP3    H223413   3.540   5.586   2.048
 7824TIP3   OH223414   1.890   1.522   4.035
 7824TIP3    H123415   1.934   1.592   4.083
 7824TIP3    H223416   1.955   1.452   4.028
 7825TIP3   OH223417   2.286   2.356   3.635
 7825TIP3    H123418   2.322   2.298   3.568
 7825TIP3    H223419   2.216   2.404   3.590
 7826TIP3   OH223420   8.001   3.150   5.747
 7826TIP3    H123421   8.013   3.129   5.839
 7826TIP3    H223422   7.944   3.227   5.747
 7827TIP3   OH223423   6.563   2.690   0.875
 7827TIP3    H123424   6.640   2.728   0.917
 7827TIP3    H223425   6.571   2.717   0.783
 7828TIP3   OH223426   7.996   5.493   1.947
 7828TIP3    H123427   8.010   5.580   1.911
 7828TIP3    H223428   7.992   5.507   2.042
 7829TIP3   OH223429   4.812   5.895   1.032
 7829TIP3    H123430   4.874   5.940   1.089
 7829TIP3    H223431   4.834   5.802   1.042
 7830TIP3   OH223432   7.102   2.566   0.377
 7830TIP3    H123433   7.095   2.585   0.284
 7830TIP3    H223434   7.114   2.652   0.418
 7831TIP3   OH223435   0.937   0.611   6.595
 7831TIP3    H123436   0.921   0.615   6.501
 7831TIP3    H223437   0.914   0.698   6.627
 7832TIP3   OH223438   0.519   5.980   3.703
 7832TIP3    H123439   0.478   5.991   3.789
 7832TIP3    H223440   0.488   6.054   3.651
 7833TIP3   OH223441   4.392   6.517   3.294
 7833TIP3    H123442   4.387   6.462   3.373
 7833TIP3    H223443   4.312   6.570   3.296
 7834TIP3   OH223444   0.503   7.665   1.491
 7834TIP3    H123445   0.419   7.643   1.451
 7834TIP3    H223446   0.568   7.623   1.435
 7835TIP3   OH223447   2.201   2.972   6.495
 7835TIP3    H123448   2.265   2.920   6.544
 7835TIP3    H223449   2.229   3.062   6.508
 7836TIP3   OH223450   0.055   1.197   1.716
 7836TIP3    H123451  -0.027   1.169   1.756
 7836TIP3    H223452   0.032   1.215   1.624
 7837TIP3   OH223453   3.189   6.855   5.293
 7837TIP3    H123454   3.149   6.930   5.337
 7837TIP3    H223455   3.132   6.781   5.315
 7838TIP3   OH223456   0.412   4.322   3.477
 7838TIP3    H123457   0.501   4.327   3.442
 7838TIP3    H223458   0.405   4.233   3.513
 7839TIP3   OH223459   2.373   4.426   4.487
 7839TIP3    H123460   2.377   4.415   4.392
 7839TIP3    H223461   2.455   4.470   4.510
 7840TIP3   OH223462   4.001   5.376   2.167
 7840TIP3    H123463   3.995   5.309   2.099
 7840TIP3    H223464   3.954   5.339   2.242
 7841TIP3   OH223465   4.462   3.027   4.981
 7841TIP3    H123466   4.397   3.041   4.912
 7841TIP3    H223467   4.501   2.942   4.960
 7842TIP3   OH223468   0.147   7.341   2.704
 7842TIP3    H123469   0.167   7.292   2.783
 7842TIP3    H223470   0.223   7.398   2.691
 7843TIP3   OH223471   7.119   3.524   4.071
 7843TIP3    H123472   7.033   3.560   4.091
 7843TIP3    H223473   7.180   3.589   4.105
 7844TIP3   OH223474   2.080   0.006   3.250
 7844TIP3    H123475   2.063   0.061   3.326
 7844TIP3    H223476   1.994  -0.004   3.208
 7845TIP3   OH223477   0.982   7.534   0.677
 7845TIP3    H123478   0.964   7.541   0.583
 7845TIP3    H223479   0.896   7.539   0.718
 7846TIP3   OH223480   4.647   5.127   3.961
 7846TIP3    H123481   4.740   5.130   3.983
 7846TIP3    H223482   4.644   5.155   3.870
 7847TIP3   OH223483   1.463   5.009   0.219
 7847TIP3    H123484   1.551   5.043   0.201
 7847TIP3    H223485   1.451   4.938   0.157
 7848TIP3   OH223486   2.766   5.914   0.115
 7848TIP3    H123487   2.848   5.961   0.101
 7848TIP3    H223488   2.752   5.866   0.033
 7849TIP3   OH223489   2.892   0.653   1.551
 7849TIP3    H123490   2.799   0.643   1.530
 7849TIP3    H223491   2.934   0.672   1.468
 7850TIP3   OH223492   3.273   3.094   3.809
 7850TIP3    H123493   3.307   3.053   3.888
 7850TIP3    H223494   3.278   3.025   3.743
 7851TIP3   OH223495   6.093   1.110   6.381
 7851TIP3    H123496   6.160   1.062   6.429
 7851TIP3    H223497   6.138   1.143   6.303
 7852TIP3   OH223498   4.181   6.680   3.416
 7852TIP3    H123499   4.122   6.605   3.422
 7852TIP3    H223500   4.250   6.661   3.479
 7853TIP3   OH223501   3.993   5.488   1.155
 7853TIP3    H123502   3.907   5.494   1.114
 7853TIP3    H223503   4.055   5.486   1.082
 7854TIP3   OH223504   7.571   4.629   4.592
 7854TIP3    H123505   7.559   4.703   4.652
 7854TIP3    H223506   7.502   4.567   4.616
 7855TIP3   OH223507   5.911   0.272   1.171
 7855TIP3    H123508   5.952   0.355   1.193
 7855TIP3    H223509   5.818   0.293   1.161
 7856TIP3   OH223510   4.086   4.642   5.982
 7856TIP3    H123511   4.090   4.550   6.008
 7856TIP3    H223512   4.177   4.666   5.964
 7857TIP3   OH223513   2.607   4.593   4.654
 7857TIP3    H123514   2.617   4.640   4.736
 7857TIP3    H223515   2.654   4.647   4.590
 7858TIP3   OH223516   7.537   3.852   0.809
 7858TIP3    H123517   7.471   3.793   0.773
 7858TIP3    H223518   7.617   3.829   0.762
 7859TIP3   OH223519   8.259   6.106   1.323
 7859TIP3    H123520   8.227   6.112   1.413
 7859TIP3    H223521   8.249   6.014   1.300
 7860TIP3   OH223522   4.903   2.486   5.564
 7860TIP3    H123523   4.977   2.476   5.505
 7860TIP3    H223524   4.865   2.398   5.568
 7861TIP3   OH223525   4.541   1.721   0.901
 7861TIP3    H123526   4.537   1.785   0.972
 7861TIP3    H223527   4.623   1.741   0.855
 7862TIP3   OH223528   5.440   4.363   5.974
 7862TIP3    H123529   5.473   4.425   5.908
 7862TIP3    H223530   5.367   4.318   5.930
 7863TIP3   OH223531   6.667   1.110   3.860
 7863TIP3    H123532   6.741   1.086   3.916
 7863TIP3    H223533   6.687   1.199   3.831
 7864TIP3   OH223534   5.758   3.572   5.639
 7864TIP3    H123535   5.785   3.632   5.569
 7864TIP3    H223536   5.784   3.617   5.720
 7865TIP3   OH223537   4.221   2.821   2.674
 7865TIP3    H123538   4.304   2.773   2.673
 7865TIP3    H223539   4.154   2.752   2.674
 7866TIP3   OH223540   5.805   4.363   4.589
 7866TIP3    H123541   5.860   4.435   4.557
 7866TIP3    H223542   5.717   4.399   4.592
 7867TIP3   OH223543   3.162   1.837   2.423
 7867TIP3    H123544   3.234   1.819   2.364
 7867TIP3    H223545   3.085   1.842   2.367
 7868TIP3   OH223546   1.448   6.562   6.631
 7868TIP3    H123547   1.402   6.540   6.550
 7868TIP3    H223548   1.526   6.610   6.602
 7869TIP3   OH223549   5.484   7.374   3.862
 7869TIP3    H123550   5.391   7.356   3.871
 7869TIP3    H223551   5.496   7.460   3.903
 7870TIP3   OH223552   3.708   1.483   2.561
 7870TIP3    H123553   3.622   1.454   2.592
 7870TIP3    H223554   3.771   1.426   2.606
 7871TIP3   OH223555   2.826   6.379   2.147
 7871TIP3    H123556   2.755   6.378   2.211
 7871TIP3    H223557   2.783   6.372   2.062
 7872TIP3   OH223558   0.395   2.803   0.274
 7872TIP3    H123559   0.335   2.781   0.345
 7872TIP3    H223560   0.470   2.844   0.317
 7873TIP3   OH223561   0.728   5.922   4.764
 7873TIP3    H123562   0.702   5.840   4.807
 7873TIP3    H223563   0.757   5.978   4.836
 7874TIP3   OH223564   2.256   3.503   5.678
 7874TIP3    H123565   2.229   3.524   5.589
 7874TIP3    H223566   2.236   3.410   5.688
 7875TIP3   OH223567   2.193   1.866   2.394
 7875TIP3    H123568   2.192   1.937   2.458
 7875TIP3    H223569   2.119   1.886   2.336
 7876TIP3   OH223570   2.389   1.746   0.529
 7876TIP3    H123571   2.476   1.779   0.553
 7876TIP3    H223572   2.332   1.776   0.600
 7877TIP3   OH223573   4.927   7.834   2.615
 7877TIP3    H123574   4.910   7.866   2.704
 7877TIP3    H223575   5.022   7.840   2.606
 7878TIP3   OH223576   1.193   7.140   3.081
 7878TIP3    H123577   1.231   7.141   3.169
 7878TIP3    H223578   1.108   7.184   3.091
 7879TIP3   OH223579   1.700   5.418   1.059
 7879TIP3    H123580   1.782   5.388   1.022
 7879TIP3    H223581   1.649   5.449   0.984
 7880TIP3   OH223582   4.789   1.542   1.301
 7880TIP3    H123583   4.805   1.636   1.289
 7880TIP3    H223584   4.767   1.534   1.394
 7881TIP3   OH223585   4.183   1.362   5.578
 7881TIP3    H123586   4.243   1.433   5.557
 7881TIP3    H223587   4.169   1.318   5.494
 7882TIP3   OH223588   1.805   4.259   2.886
 7882TIP3    H123589   1.719   4.260   2.929
 7882TIP3    H223590   1.832   4.351   2.883
 7883TIP3   OH223591   4.054   3.303   2.660
 7883TIP3    H123592   4.032   3.366   2.728
 7883TIP3    H223593   4.147   3.318   2.642
 7884TIP3   OH223594   0.349   4.394   2.858
 7884TIP3    H123595   0.346   4.405   2.953
 7884TIP3    H223596   0.266   4.350   2.836
 7885TIP3   OH223597   6.238   2.720   1.210
 7885TIP3    H123598   6.225   2.784   1.279
 7885TIP3    H223599   6.319   2.748   1.167
 7886TIP3   OH223600   5.094   3.950   3.260
 7886TIP3    H123601   5.094   3.923   3.168
 7886TIP3    H223602   5.037   4.027   3.262
 7887TIP3   OH223603   5.044   6.083   1.671
 7887TIP3    H123604   5.125   6.131   1.689
 7887TIP3    H223605   5.053   6.054   1.580
 7888TIP3   OH223606   3.202   4.523   1.861
 7888TIP3    H123607   3.297   4.524   1.849
 7888TIP3    H223608   3.166   4.502   1.775
 7889TIP3   OH223609   1.460   5.431   3.309
 7889TIP3    H123610   1.481   5.346   3.270
 7889TIP3    H223611   1.480   5.494   3.240
 7890TIP3   OH223612   7.682   4.606   3.724
 7890TIP3    H123613   7.641   4.693   3.719
 7890TIP3    H223614   7.667   4.568   3.637
 7891TIP3   OH223615   4.692   4.108   4.203
 7891TIP3    H123616   4.685   4.027   4.153
 7891TIP3    H223617   4.692   4.177   4.137
 7892TIP3   OH223618   3.536   4.025   2.875
 7892TIP3    H123619   3.472   4.081   2.918
 7892TIP3    H223620   3.483   3.958   2.830
 7893TIP3   OH223621   5.047   4.286   2.660
 7893TIP3    H123622   5.073   4.375   2.686
 7893TIP3    H223623   5.025   4.294   2.567
 7894TIP3   OH223624   3.660   1.054   0.880
 7894TIP3    H123625   3.643   1.148   0.883
 7894TIP3    H223626   3.713   1.041   0.801
 7895TIP3   OH223627   7.627   1.516   4.178
 7895TIP3    H123628   7.705   1.467   4.152
 7895TIP3    H223629   7.591   1.466   4.251
 7896TIP3   OH223630   6.020   4.559   4.473
 7896TIP3    H123631   5.991   4.624   4.537
 7896TIP3    H223632   6.113   4.549   4.490
 7897TIP3   OH223633   4.137   2.429   1.012
 7897TIP3    H123634   4.079   2.354   1.002
 7897TIP3    H223635   4.132   2.475   0.928
 7898TIP3   OH223636   2.962   5.874   6.349
 7898TIP3    H123637   2.951   5.969   6.346
 7898TIP3    H223638   2.873   5.841   6.364
 7899TIP3   OH223639   8.203   0.957   0.583
 7899TIP3    H123640   8.265   0.915   0.644
 7899TIP3    H223641   8.117   0.926   0.612
 7900TIP3   OH223642   5.803   1.058   6.305
 7900TIP3    H123643   5.855   1.056   6.225
 7900TIP3    H223644   5.712   1.060   6.275
 7901TIP3   OH223645   0.745   6.699   4.051
 7901TIP3    H123646   0.780   6.786   4.073
 7901TIP3    H223647   0.773   6.684   3.960
 7902TIP3   OH223648   1.475   0.960   0.195
 7902TIP3    H123649   1.425   0.954   0.114
 7902TIP3    H223650   1.566   0.952   0.167
 7903TIP3   OH223651   8.165   0.412   6.304
 7903TIP3    H123652   8.220   0.341   6.337
 7903TIP3    H223653   8.165   0.477   6.375
 7904TIP3   OH223654   2.531   1.077   1.433
 7904TIP3    H123655   2.544   1.143   1.501
 7904TIP3    H223656   2.572   0.998   1.468
 7905TIP3   OH223657   5.258   6.739   1.548
 7905TIP3    H123658   5.339   6.766   1.506
 7905TIP3    H223659   5.214   6.685   1.482
 7906TIP3   OH223660   2.777   3.708   6.422
 7906TIP3    H123661   2.706   3.748   6.472
 7906TIP3    H223662   2.854   3.718   6.477
 7907TIP3   OH223663   4.755   2.105   2.621
 7907TIP3    H123664   4.842   2.075   2.597
 7907TIP3    H223665   4.723   2.152   2.544
 7908TIP3   OH223666   2.354   5.653   4.385
 7908TIP3    H123667   2.436   5.642   4.431
 7908TIP3    H223668   2.379   5.667   4.294
 7909TIP3   OH223669   1.737   1.126   4.842
 7909TIP3    H123670   1.666   1.061   4.833
 7909TIP3    H223671   1.725   1.184   4.767
 7910TIP3   OH223672   1.066   4.728   3.857
 7910TIP3    H123673   1.004   4.691   3.794
 7910TIP3    H223674   1.071   4.662   3.926
 7911TIP3   OH223675   1.715   0.339   4.888
 7911TIP3    H123676   1.714   0.414   4.948
 7911TIP3    H223677   1.806   0.312   4.884
 7912TIP3   OH223678   0.857   4.528   3.796
 7912TIP3    H123679   0.873   4.436   3.776
 7912TIP3    H223680   0.802   4.527   3.874
 7913TIP3   OH223681   0.616   2.696   3.759
 7913TIP3    H123682   0.629   2.716   3.666
 7913TIP3    H223683   0.529   2.655   3.762
 7914TIP3   OH223684   5.754   3.087   2.553
 7914TIP3    H123685   5.668   3.087   2.512
 7914TIP3    H223686   5.749   3.020   2.621
 7915TIP3   OH223687   1.590   3.929   1.286
 7915TIP3    H123688   1.592   3.864   1.357
 7915TIP3    H223689   1.666   3.984   1.301
 7916TIP3   OH223690   2.141   7.192   5.441
 7916TIP3    H123691   2.198   7.266   5.459
 7916TIP3    H223692   2.133   7.191   5.345
 7917TIP3   OH223693   7.178   2.132   3.377
 7917TIP3    H123694   7.084   2.125   3.391
 7917TIP3    H223695   7.188   2.205   3.316
 7918TIP3   OH223696   1.278   7.698   2.428
 7918TIP3    H123697   1.208   7.694   2.493
 7918TIP3    H223698   1.357   7.715   2.478
 7919TIP3   OH223699   3.871   6.282   0.863
 7919TIP3    H123700   3.923   6.309   0.938
 7919TIP3    H223701   3.782   6.272   0.897
 7920TIP3   OH223702   2.151   3.133   2.475
 7920TIP3    H123703   2.160   3.104   2.384
 7920TIP3    H223704   2.089   3.072   2.515
 7921TIP3   OH223705   2.213   6.810   5.393
 7921TIP3    H123706   2.142   6.764   5.437
 7921TIP3    H223707   2.277   6.828   5.462
 7922TIP3   OH223708   1.732   2.378   4.251
 7922TIP3    H123709   1.821   2.397   4.221
 7922TIP3    H223710   1.676   2.407   4.180
 7923TIP3   OH223711   0.429   4.574   3.430
 7923TIP3    H123712   0.398   4.487   3.454
 7923TIP3    H223713   0.382   4.594   3.348
 7924TIP3   OH223714   5.015   6.632   4.885
 7924TIP3    H123715   4.966   6.573   4.827
 7924TIP3    H223716   4.957   6.646   4.959
 7925TIP3   OH223717   4.542   2.636   3.913
 7925TIP3    H123718   4.485   2.570   3.952
 7925TIP3    H223719   4.483   2.688   3.859
 7926TIP3   OH223720   0.395   3.060   3.459
 7926TIP3    H123721   0.427   3.149   3.477
 7926TIP3    H223722   0.429   3.008   3.532
 7927TIP3   OH223723   3.610   7.560   6.122
 7927TIP3    H123724   3.516   7.565   6.109
 7927TIP3    H223725   3.643   7.646   6.096
 7928TIP3   OH223726   7.779   2.012   2.931
 7928TIP3    H123727   7.717   1.941   2.913
 7928TIP3    H223728   7.765   2.075   2.860
 7929TIP3   OH223729   3.253   3.969   5.964
 7929TIP3    H123730   3.234   3.889   6.013
 7929TIP3    H223731   3.334   3.949   5.916
 7930TIP3   OH223732   8.293   5.748   2.657
 7930TIP3    H123733   8.234   5.687   2.701
 7930TIP3    H223734   8.351   5.692   2.606
 7931TIP3   OH223735   0.582   6.382   5.159
 7931TIP3    H123736   0.589   6.413   5.068
 7931TIP3    H223737   0.568   6.287   5.150
 7932TIP3   OH223738   5.742   2.292   3.690
 7932TIP3    H123739   5.714   2.323   3.603
 7932TIP3    H223740   5.716   2.200   3.692
 7933TIP3   OH223741   6.880   3.208   6.307
 7933TIP3    H123742   6.891   3.298   6.336
 7933TIP3    H223743   6.797   3.180   6.347
 7934TIP3   OH223744   2.206   2.756   4.972
 7934TIP3    H123745   2.137   2.821   4.956
 7934TIP3    H223746   2.279   2.785   4.918
 7935TIP3   OH223747   4.687   2.227   1.347
 7935TIP3    H123748   4.630   2.238   1.271
 7935TIP3    H223749   4.674   2.306   1.399
 7936TIP3   OH223750   0.978   5.598   6.661
 7936TIP3    H123751   0.966   5.692   6.648
 7936TIP3    H223752   1.028   5.590   6.742
 7937TIP3   OH223753   7.942   6.042   5.180
 7937TIP3    H123754   7.951   5.954   5.217
 7937TIP3    H223755   7.957   6.030   5.086
 7938TIP3   OH223756   0.851   4.652   1.705
 7938TIP3    H123757   0.770   4.651   1.755
 7938TIP3    H223758   0.920   4.634   1.769
 7939TIP3   OH223759   5.508   5.166   5.387
 7939TIP3    H123760   5.517   5.165   5.483
 7939TIP3    H223761   5.527   5.257   5.363
 7940TIP3   OH223762   1.194   7.384   0.404
 7940TIP3    H123763   1.251   7.329   0.458
 7940TIP3    H223764   1.253   7.448   0.365
 7941TIP3   OH223765   6.333   4.872   4.585
 7941TIP3    H123766   6.244   4.904   4.603
 7941TIP3    H223767   6.386   4.910   4.655
 7942TIP3   OH223768   1.437   0.043   2.493
 7942TIP3    H123769   1.421  -0.019   2.421
 7942TIP3    H223770   1.474   0.120   2.449
 7943TIP3   OH223771   6.621   6.163   5.975
 7943TIP3    H123772   6.687   6.124   6.033
 7943TIP3    H223773   6.537   6.140   6.014
 7944TIP3   OH223774   4.432   7.822   3.302
 7944TIP3    H123775   4.451   7.771   3.223
 7944TIP3    H223776   4.382   7.762   3.357
 7945TIP3   OH223777   3.374   3.116   0.697
 7945TIP3    H123778   3.370   3.211   0.686
 7945TIP3    H223779   3.380   3.104   0.792
 7946TIP3   OH223780   5.799   3.635   3.643
 7946TIP3    H123781   5.759   3.712   3.603
 7946TIP3    H223782   5.764   3.561   3.593
 7947TIP3   OH223783   4.179   2.806   4.866
 7947TIP3    H123784   4.189   2.722   4.911
 7947TIP3    H223785   4.253   2.810   4.805
 7948TIP3   OH223786   4.808   7.386   5.337
 7948TIP3    H123787   4.768   7.460   5.291
 7948TIP3    H223788   4.769   7.309   5.296
 7949TIP3   OH223789   6.956   2.932   5.213
 7949TIP3    H123790   6.935   2.958   5.303
 7949TIP3    H223791   6.874   2.898   5.177
 7950TIP3   OH223792   4.544   2.766   4.911
 7950TIP3    H123793   4.485   2.728   4.846
 7950TIP3    H223794   4.552   2.698   4.978
 7951TIP3   OH223795   0.871   5.688   2.541
 7951TIP3    H123796   0.855   5.779   2.567
 7951TIP3    H223797   0.946   5.692   2.483
 7952TIP3   OH223798   1.894   0.107   2.609
 7952TIP3    H123799   1.803   0.088   2.633
 7952TIP3    H223800   1.892   0.195   2.572
 7953TIP3   OH223801   2.682   5.432   1.795
 7953TIP3    H123802   2.665   5.427   1.701
 7953TIP3    H223803   2.716   5.521   1.808
 7954TIP3   OH223804   1.342   6.510   2.408
 7954TIP3    H123805   1.412   6.530   2.471
 7954TIP3    H223806   1.262   6.508   2.461
 7955TIP3   OH223807   6.762   3.377   6.520
 7955TIP3    H123808   6.790   3.422   6.600
 7955TIP3    H223809   6.785   3.438   6.450
 7956TIP3   OH223810   2.192   2.971   3.591
 7956TIP3    H123811   2.258   2.985   3.659
 7956TIP3    H223812   2.229   2.904   3.534
 7957TIP3   OH223813   5.937   3.080   4.014
 7957TIP3    H123814   6.023   3.089   3.973
 7957TIP3    H223815   5.936   2.989   4.046
 7958TIP3   OH223816   2.707   1.998   4.705
 7958TIP3    H123817   2.784   1.946   4.731
 7958TIP3    H223818   2.633   1.947   4.736
 7959TIP3   OH223819   2.271   2.769   1.356
 7959TIP3    H123820   2.327   2.840   1.323
 7959TIP3    H223821   2.307   2.690   1.315
 7960TIP3   OH223822   1.390   7.104   0.796
 7960TIP3    H123823   1.479   7.132   0.774
 7960TIP3    H223824   1.352   7.179   0.841
 7961TIP3   OH223825   1.315   7.202   1.639
 7961TIP3    H123826   1.368   7.197   1.718
 7961TIP3    H223827   1.250   7.132   1.650
 7962TIP3   OH223828   2.315   5.916   3.990
 7962TIP3    H123829   2.334   5.921   3.897
 7962TIP3    H223830   2.222   5.895   3.994
 7963TIP3   OH223831   1.225   0.829   5.508
 7963TIP3    H123832   1.209   0.766   5.578
 7963TIP3    H223833   1.219   0.914   5.552
 7964TIP3   OH223834   1.067   3.017   1.555
 7964TIP3    H123835   0.982   3.053   1.581
 7964TIP3    H223836   1.046   2.935   1.510
 7965TIP3   OH223837   6.707   7.352   0.827
 7965TIP3    H123838   6.706   7.438   0.784
 7965TIP3    H223839   6.798   7.339   0.853
 7966TIP3   OH223840   5.614   6.880   4.046
 7966TIP3    H123841   5.558   6.829   4.105
 7966TIP3    H223842   5.568   6.962   4.034
 7967TIP3   OH223843   3.593   0.162   2.209
 7967TIP3    H123844   3.679   0.138   2.175
 7967TIP3    H223845   3.592   0.258   2.207
 7968TIP3   OH223846   3.474   4.377   6.751
 7968TIP3    H123847   3.455   4.314   6.681
 7968TIP3    H223848   3.389   4.395   6.791
 7969TIP3   OH223849   3.124   1.425   0.465
 7969TIP3    H123850   3.117   1.391   0.553
 7969TIP3    H223851   3.117   1.348   0.408
 7970TIP3   OH223852   0.860   5.266   1.171
 7970TIP3    H123853   0.893   5.320   1.099
 7970TIP3    H223854   0.834   5.184   1.129
 7971TIP3   OH223855   5.800   5.772   2.139
 7971TIP3    H123856   5.819   5.715   2.214
 7971TIP3    H223857   5.768   5.713   2.071
 7972TIP3   OH223858   1.270   5.070   2.800
 7972TIP3    H123859   1.298   5.031   2.717
 7972TIP3    H223860   1.336   5.043   2.863
 7973TIP3   OH223861   5.313   5.142   3.528
 7973TIP3    H123862   5.338   5.139   3.620
 7973TIP3    H223863   5.224   5.107   3.527
 7974TIP3   OH223864   7.009   7.767   5.424
 7974TIP3    H123865   6.996   7.842   5.365
 7974TIP3    H223866   7.006   7.691   5.366
 7975TIP3   OH223867   2.250   4.991   5.198
 7975TIP3    H123868   2.210   5.022   5.280
 7975TIP3    H223869   2.315   5.058   5.176
 7976TIP3   OH223870   3.024   6.334   3.492
 7976TIP3    H123871   3.036   6.399   3.423
 7976TIP3    H223872   3.056   6.252   3.453
 7977TIP3   OH223873   5.239   6.813   2.084
 7977TIP3    H123874   5.267   6.726   2.112
 7977TIP3    H223875   5.215   6.803   1.992
 7978TIP3   OH223876   0.611   5.626   4.433
 7978TIP3    H123877   0.606   5.576   4.514
 7978TIP3    H223878   0.704   5.625   4.410
 7979TIP3   OH223879   4.669   7.640   4.250
 7979TIP3    H123880   4.759   7.611   4.231
 7979TIP3    H223881   4.651   7.605   4.337
 7980TIP3   OH223882   8.019   2.018   1.108
 7980TIP3    H123883   8.055   2.105   1.125
 7980TIP3    H223884   7.928   2.023   1.137
 7981TIP3   OH223885   6.064   6.460   2.299
 7981TIP3    H123886   6.146   6.421   2.269
 7981TIP3    H223887   6.020   6.389   2.346
 7982TIP3   OH223888   7.129   3.554   1.165
 7982TIP3    H123889   7.072   3.629   1.145
 7982TIP3    H223890   7.128   3.550   1.261
 7983TIP3   OH223891   0.119   2.621   4.518
 7983TIP3    H123892   0.063   2.549   4.491
 7983TIP3    H223893   0.148   2.597   4.607
 7984TIP3   OH223894   6.641   1.731   0.143
 7984TIP3    H123895   6.712   1.667   0.155
 7984TIP3    H223896   6.665   1.805   0.199
 7985TIP3   OH223897   7.877   2.338   2.436
 7985TIP3    H123898   7.926   2.361   2.357
 7985TIP3    H223899   7.905   2.403   2.501
 7986TIP3   OH223900   1.014   1.078   4.200
 7986TIP3    H123901   1.012   1.054   4.293
 7986TIP3    H223902   0.930   1.048   4.166
 7987TIP3   OH223903   1.646   5.809   6.472
 7987TIP3    H123904   1.638   5.749   6.546
 7987TIP3    H223905   1.588   5.772   6.406
 7988TIP3   OH223906   0.557   4.967   1.305
 7988TIP3    H123907   0.608   4.887   1.314
 7988TIP3    H223908   0.565   5.011   1.390
 7989TIP3   OH223909   4.363   2.266   4.191
 7989TIP3    H123910   4.456   2.251   4.205
 7989TIP3    H223911   4.319   2.194   4.238
 7990TIP3   OH223912   4.651   1.316   4.647
 7990TIP3    H123913   4.603   1.388   4.606
 7990TIP3    H223914   4.697   1.357   4.720
 7991TIP3   OH223915   0.440   2.832   2.590
 7991TIP3    H123916   0.391   2.761   2.633
 7991TIP3    H223917   0.386   2.909   2.603
 7992TIP3   OH223918   0.358   3.625   4.188
 7992TIP3    H123919   0.421   3.593   4.124
 7992TIP3    H223920   0.289   3.665   4.135
 7993TIP3   OH223921   4.535   7.127   2.699
 7993TIP3    H123922   4.624   7.146   2.668
 7993TIP3    H223923   4.488   7.099   2.621
 7994TIP3   OH223924   0.797   3.744   1.622
 7994TIP3    H123925   0.776   3.766   1.531
 7994TIP3    H223926   0.776   3.651   1.630
 7995TIP3   OH223927   1.828   3.332   1.121
 7995TIP3    H123928   1.900   3.392   1.140
 7995TIP3    H223929   1.749   3.387   1.124
 7996TIP3   OH223930   0.080   3.739   3.020
 7996TIP3    H123931   0.163   3.747   2.975
 7996TIP3    H223932   0.074   3.646   3.044
 7997TIP3   OH223933   1.481   1.178   5.579
 7997TIP3    H123934   1.536   1.100   5.574
 7997TIP3    H223935   1.539   1.245   5.617
 7998TIP3   OH223936   7.319   2.711   0.937
 7998TIP3    H123937   7.321   2.804   0.957
 7998TIP3    H223938   7.397   2.696   0.884
 7999TIP3   OH223939   1.246   5.389   4.462
 7999TIP3    H123940   1.309   5.459   4.442
 7999TIP3    H223941   1.288   5.310   4.429
 8000TIP3   OH223942   2.863   0.996   3.916
 8000TIP3    H123943   2.922   0.963   3.984
 8000TIP3    H223944   2.825   1.075   3.955
 8001TIP3   OH223945   1.577   1.089   3.617
 8001TIP3    H123946   1.581   1.123   3.706
 8001TIP3    H223947   1.495   1.124   3.582
 8002TIP3   OH223948   7.160   4.105   3.555
 8002TIP3    H123949   7.155   4.107   3.650
 8002TIP3    H223950   7.084   4.155   3.526
 8003TIP3   OH223951   1.153   2.536   3.501
 8003TIP3    H123952   1.154   2.445   3.529
 8003TIP3    H223953   1.089   2.538   3.430
 8004TIP3   OH223954   5.673   5.436   1.314
 8004TIP3    H123955   5.686   5.458   1.406
 8004TIP3    H223956   5.597   5.489   1.287
 8005TIP3   OH223957   1.810   7.302   2.154
 8005TIP3    H123958   1.797   7.316   2.247
 8005TIP3    H223959   1.905   7.306   2.143
 8006TIP3   OH223960   4.001   4.814   6.351
 8006TIP3    H123961   3.986   4.908   6.339
 8006TIP3    H223962   4.096   4.804   6.350
 8007TIP3   OH223963   0.637   4.152   1.974
 8007TIP3    H123964   0.658   4.210   1.900
 8007TIP3    H223965   0.714   4.095   1.982
 8008TIP3   OH223966   1.524   6.060   3.103
 8008TIP3    H123967   1.539   6.079   3.011
 8008TIP3    H223968   1.587   6.115   3.150
 8009TIP3   OH223969   1.098   4.964   0.895
 8009TIP3    H123970   1.097   4.978   0.990
 8009TIP3    H223971   1.164   4.895   0.882
 8010TIP3   OH223972   7.272   5.476   2.084
 8010TIP3    H123973   7.223   5.436   2.012
 8010TIP3    H223974   7.205   5.523   2.134
 8011TIP3   OH223975   2.535   1.194   4.031
 8011TIP3    H123976   2.539   1.219   4.123
 8011TIP3    H223977   2.621   1.214   3.997
 8012TIP3   OH223978   5.132   2.566   5.421
 8012TIP3    H123979   5.201   2.628   5.396
 8012TIP3    H223980   5.149   2.489   5.367
 8013TIP3   OH223981   7.614   0.281   0.951
 8013TIP3    H123982   7.657   0.365   0.936
 8013TIP3    H223983   7.671   0.235   1.013
 8014TIP3   OH223984   1.727   2.773   2.156
 8014TIP3    H123985   1.806   2.801   2.201
 8014TIP3    H223986   1.678   2.854   2.141
 8015TIP3   OH223987   2.655   3.142   4.978
 8015TIP3    H123988   2.665   3.234   5.002
 8015TIP3    H223989   2.603   3.104   5.049
 8016TIP3   OH223990   4.676   4.419   1.671
 8016TIP3    H123991   4.696   4.327   1.690
 8016TIP3    H223992   4.677   4.462   1.757
 8017TIP3   OH223993   2.146   3.284   1.776
 8017TIP3    H123994   2.136   3.363   1.829
 8017TIP3    H223995   2.064   3.279   1.726
 8018TIP3   OH223996   7.766   6.589   3.767
 8018TIP3    H123997   7.694   6.587   3.704
 8018TIP3    H223998   7.734   6.537   3.841
 8019TIP3   OH223999   0.093   4.294   2.835
 8019TIP3    H124000   0.055   4.324   2.753
 8019TIP3    H224001   0.018   4.279   2.892
 8020TIP3   OH224002   2.048   3.864   5.886
 8020TIP3    H124003   2.041   3.959   5.892
 8020TIP3    H224004   2.045   3.834   5.977
 8021TIP3   OH224005   4.263   3.197   4.456
 8021TIP3    H124006   4.347   3.208   4.412
 8021TIP3    H224007   4.251   3.279   4.504
 8022TIP3   OH224008   6.214   6.846   5.425
 8022TIP3    H124009   6.263   6.780   5.473
 8022TIP3    H224010   6.280   6.910   5.399
 8023TIP3   OH224011   2.576   7.475   6.257
 8023TIP3    H124012   2.519   7.419   6.204
 8023TIP3    H224013   2.636   7.415   6.300
 8024TIP3   OH224014   7.752   6.742   6.769
 8024TIP3    H124015   7.779   6.667   6.716
 8024TIP3    H224016   7.659   6.725   6.788
 8025TIP3   OH224017   5.712   5.108   0.161
 8025TIP3    H124018   5.718   5.048   0.086
 8025TIP3    H224019   5.666   5.058   0.229
 8026TIP3   OH224020   1.772   4.331   3.376
 8026TIP3    H124021   1.795   4.414   3.335
 8026TIP3    H224022   1.766   4.269   3.303
 8027TIP3   OH224023   5.974   1.093   0.702
 8027TIP3    H124024   6.030   1.043   0.643
 8027TIP3    H224025   5.884   1.070   0.677
 8028TIP3   OH224026   1.083   4.186   5.235
 8028TIP3    H124027   1.136   4.244   5.181
 8028TIP3    H224028   1.006   4.238   5.258
 8029TIP3   OH224029   7.862   1.319   3.095
 8029TIP3    H124030   7.956   1.325   3.110
 8029TIP3    H224031   7.851   1.241   3.040
 8030TIP3   OH224032   4.456   2.196   5.266
 8030TIP3    H124033   4.450   2.100   5.270
 8030TIP3    H224034   4.509   2.214   5.189
 8031TIP3   OH224035   6.803   5.849   1.432
 8031TIP3    H124036   6.827   5.827   1.522
 8031TIP3    H224037   6.885   5.881   1.393
 8032TIP3   OH224038   7.219   7.166   2.702
 8032TIP3    H124039   7.202   7.234   2.636
 8032TIP3    H224040   7.138   7.162   2.753
 8033TIP3   OH224041   8.243   7.736   4.123
 8033TIP3    H124042   8.226   7.714   4.032
 8033TIP3    H224043   8.335   7.764   4.124
 8034TIP3   OH224044   5.692   7.700   0.168
 8034TIP3    H124045   5.606   7.664   0.146
 8034TIP3    H224046   5.700   7.777   0.112
 8035TIP3   OH224047   6.704   2.877   6.016
 8035TIP3    H124048   6.796   2.869   5.988
 8035TIP3    H224049   6.698   2.966   6.053
 8036TIP3   OH224050   6.989   5.869   2.473
 8036TIP3    H124051   7.062   5.833   2.524
 8036TIP3    H224052   6.993   5.963   2.489
 8037TIP3   OH224053   3.026   0.719   0.296
 8037TIP3    H124054   3.013   0.655   0.226
 8037TIP3    H224055   3.098   0.683   0.348
 8038TIP3   OH224056   5.455   5.509   6.612
 8038TIP3    H124057   5.519   5.513   6.541
 8038TIP3    H224058   5.371   5.525   6.569
 8039TIP3   OH224059   1.546   4.555   0.298
 8039TIP3    H124060   1.507   4.535   0.383
 8039TIP3    H224061   1.634   4.586   0.319
 8040TIP3   OH224062   0.800   1.913   4.964
 8040TIP3    H124063   0.716   1.925   4.920
 8040TIP3    H224064   0.812   1.992   5.017
 8041TIP3   OH224065   6.123   7.525   3.435
 8041TIP3    H124066   6.043   7.524   3.487
 8041TIP3    H224067   6.119   7.446   3.382
 8042TIP3   OH224068   2.404   0.494   2.771
 8042TIP3    H124069   2.413   0.589   2.780
 8042TIP3    H224070   2.469   0.470   2.705
 8043TIP3   OH224071   1.555   6.973   3.368
 8043TIP3    H124072   1.561   6.907   3.437
 8043TIP3    H224073   1.597   6.933   3.292
 8044TIP3   OH224074   1.351   3.055   6.369
 8044TIP3    H124075   1.447   3.050   6.378
 8044TIP3    H224076   1.337   3.111   6.293
 8045TIP3   OH224077   3.622   7.104   1.904
 8045TIP3    H124078   3.642   7.054   1.983
 8045TIP3    H224079   3.560   7.050   1.856
 8046TIP3   OH224080   7.516   6.312   5.528
 8046TIP3    H124081   7.443   6.271   5.483
 8046TIP3    H224082   7.575   6.240   5.550
 8047TIP3   OH224083   1.849   0.337   3.852
 8047TIP3    H124084   1.878   0.359   3.763
 8047TIP3    H224085   1.928   0.307   3.896
 8048TIP3   OH224086   3.714   5.568   2.078
 8048TIP3    H124087   3.801   5.582   2.116
 8048TIP3    H224088   3.720   5.604   1.990
 8049TIP3   OH224089   2.252   0.915   2.150
 8049TIP3    H124090   2.295   0.971   2.214
 8049TIP3    H224091   2.320   0.854   2.122
 8050TIP3   OH224092   1.330   7.439  -0.047
 8050TIP3    H124093   1.297   7.528  -0.032
 8050TIP3    H224094   1.323   7.396   0.038
 8051TIP3   OH224095   0.965   5.078   0.224
 8051TIP3    H124096   0.896   5.127   0.179
 8051TIP3    H224097   1.047   5.113   0.187
 8052TIP3   OH224098   7.363   6.944   4.690
 8052TIP3    H124099   7.389   6.880   4.624
 8052TIP3    H224100   7.370   6.897   4.773
 8053TIP3   OH224101   1.763   3.776   1.713
 8053TIP3    H124102   1.716   3.850   1.674
 8053TIP3    H224103   1.728   3.699   1.666
 8054TIP3   OH224104   3.896   7.511   2.639
 8054TIP3    H124105   3.806   7.538   2.621
 8054TIP3    H224106   3.891   7.417   2.656
 8055TIP3   OH224107   6.069   0.673   5.508
 8055TIP3    H124108   6.091   0.758   5.472
 8055TIP3    H224109   6.092   0.610   5.439
 8056TIP3   OH224110   7.878   2.123   1.959
 8056TIP3    H124111   7.888   2.218   1.950
 8056TIP3    H224112   7.804   2.102   1.902
 8057TIP3   OH224113   4.036   4.951   5.183
 8057TIP3    H124114   3.995   4.926   5.100
 8057TIP3    H224115   4.116   4.997   5.157
 8058TIP3   OH224116   7.338   3.220   1.699
 8058TIP3    H124117   7.298   3.144   1.657
 8058TIP3    H224118   7.404   3.250   1.636
 8059TIP3   OH224119   3.520   1.290   1.897
 8059TIP3    H124120   3.480   1.252   1.818
 8059TIP3    H224121   3.538   1.215   1.953
 8060TIP3   OH224122   5.506   4.658   5.464
 8060TIP3    H124123   5.521   4.749   5.437
 8060TIP3    H224124   5.417   4.638   5.435
 8061TIP3   OH224125   5.042   0.048   1.673
 8061TIP3    H124126   5.106   0.031   1.742
 8061TIP3    H224127   5.077   0.006   1.595
 8062TIP3   OH224128   4.150   4.254   1.740
 8062TIP3    H124129   4.144   4.188   1.809
 8062TIP3    H224130   4.135   4.204   1.659
 8063TIP3   OH224131   2.166   6.547   4.801
 8063TIP3    H124132   2.186   6.466   4.755
 8063TIP3    H224133   2.111   6.520   4.875
 8064TIP3   OH224134   1.805   6.200   2.143
 8064TIP3    H124135   1.859   6.128   2.177
 8064TIP3    H224136   1.851   6.229   2.065
 8065TIP3   OH224137   8.005   4.386   4.596
 8065TIP3    H124138   8.050   4.302   4.603
 8065TIP3    H224139   7.946   4.388   4.671
 8066TIP3   OH224140   3.514   7.351   3.885
 8066TIP3    H124141   3.433   7.399   3.872
 8066TIP3    H224142   3.561   7.400   3.953
 8067TIP3   OH224143   4.157   4.975   1.288
 8067TIP3    H124144   4.106   5.043   1.245
 8067TIP3    H224145   4.159   5.000   1.380
 8068TIP3   OH224146   6.251   6.087   3.721
 8068TIP3    H124147   6.209   6.048   3.798
 8068TIP3    H224148   6.246   6.018   3.655
 8069TIP3   OH224149   4.406   1.197   3.848
 8069TIP3    H124150   4.381   1.268   3.907
 8069TIP3    H224151   4.464   1.141   3.901
 8070TIP3   OH224152   8.231   5.984   2.797
 8070TIP3    H124153   8.246   5.896   2.761
 8070TIP3    H224154   8.310   6.002   2.848
 8071TIP3   OH224155   8.343   2.375   5.849
 8071TIP3    H124156   8.254   2.408   5.833
 8071TIP3    H224157   8.362   2.400   5.940
 8072TIP3   OH224158   6.168   2.549   5.682
 8072TIP3    H124159   6.205   2.566   5.769
 8072TIP3    H224160   6.244   2.525   5.628
 8073TIP3   OH224161   8.188   2.701   1.813
 8073TIP3    H124162   8.177   2.795   1.827
 8073TIP3    H224163   8.101   2.671   1.785
 8074TIP3   OH224164   7.525   5.544   6.231
 8074TIP3    H124165   7.586   5.511   6.297
 8074TIP3    H224166   7.500   5.467   6.180
 8075TIP3   OH224167   7.799   6.434   2.115
 8075TIP3    H124168   7.764   6.482   2.039
 8075TIP3    H224169   7.853   6.499   2.161
 8076TIP3   OH224170   2.410   3.921   0.625
 8076TIP3    H124171   2.382   4.008   0.596
 8076TIP3    H224172   2.333   3.884   0.667
 8077TIP3   OH224173   0.963   7.506   5.943
 8077TIP3    H124174   0.918   7.422   5.949
 8077TIP3    H224175   1.049   7.485   5.905
 8078TIP3   OH224176   1.794   5.171   2.958
 8078TIP3    H124177   1.761   5.242   3.013
 8078TIP3    H224178   1.831   5.108   3.020
 8079TIP3   OH224179   0.908   2.651   1.213
 8079TIP3    H124180   0.857   2.589   1.161
 8079TIP3    H224181   0.998   2.642   1.182
 8080TIP3   OH224182   3.450   4.312   1.027
 8080TIP3    H124183   3.493   4.337   1.109
 8080TIP3    H224184   3.376   4.372   1.020
 8081TIP3   OH224185   6.513   0.899   2.632
 8081TIP3    H124186   6.587   0.948   2.669
 8081TIP3    H224187   6.518   0.814   2.675
 8082TIP3   OH224188   4.468   5.469   1.907
 8082TIP3    H124189   4.443   5.549   1.954
 8082TIP3    H224190   4.555   5.488   1.872
 8083TIP3   OH224191   6.095   4.812   4.905
 8083TIP3    H124192   6.007   4.835   4.932
 8083TIP3    H224193   6.153   4.866   4.959
 8084TIP3   OH224194   0.942   1.124   2.917
 8084TIP3    H124195   1.002   1.059   2.952
 8084TIP3    H224196   0.902   1.164   2.994
 8085TIP3   OH224197   3.191   0.920   6.360
 8085TIP3    H124198   3.260   0.947   6.299
 8085TIP3    H224199   3.111   0.959   6.324
 8086TIP3   OH224200   7.715   4.688   5.044
 8086TIP3    H124201   7.788   4.728   5.090
 8086TIP3    H224202   7.653   4.760   5.031
 8087TIP3   OH224203   6.985   5.008   4.370
 8087TIP3    H124204   6.969   5.093   4.327
 8087TIP3    H224205   7.070   5.018   4.411
 8088TIP3   OH224206   5.102   1.563   2.206
 8088TIP3    H124207   5.042   1.635   2.185
 8088TIP3    H224208   5.101   1.507   2.128
 8089TIP3   OH224209   1.161   0.021   5.627
 8089TIP3    H124210   1.234   0.063   5.581
 8089TIP3    H224211   1.183   0.028   5.720
 8090TIP3   OH224212   2.378   2.853   5.375
 8090TIP3    H124213   2.395   2.788   5.443
 8090TIP3    H224214   2.465   2.879   5.344
 8091TIP3   OH224215   0.029   6.345   2.077
 8091TIP3    H124216  -0.038   6.304   2.021
 8091TIP3    H224217   0.003   6.320   2.166
 8092TIP3   OH224218   0.519   5.326   1.776
 8092TIP3    H124219   0.595   5.354   1.725
 8092TIP3    H224220   0.445   5.372   1.737
 8093TIP3   OH224221   0.857   4.324   5.078
 8093TIP3    H124222   0.879   4.368   5.160
 8093TIP3    H224223   0.762   4.319   5.079
 8094TIP3   OH224224   6.652   5.948   6.650
 8094TIP3    H124225   6.665   5.907   6.736
 8094TIP3    H224226   6.740   5.964   6.617
 8095TIP3   OH224227   3.602   5.704   3.559
 8095TIP3    H124228   3.683   5.746   3.532
 8095TIP3    H224229   3.593   5.725   3.652
 8096TIP3   OH224230   5.754   5.495   4.452
 8096TIP3    H124231   5.800   5.566   4.498
 8096TIP3    H224232   5.768   5.514   4.359
 8097TIP3   OH224233   1.469   3.187   6.084
 8097TIP3    H124234   1.534   3.165   6.151
 8097TIP3    H224235   1.514   3.171   6.001
 8098TIP3   OH224236   0.423   0.491   1.669
 8098TIP3    H124237   0.352   0.428   1.656
 8098TIP3    H224238   0.474   0.488   1.588
 8099TIP3   OH224239   1.741   3.853   2.004
 8099TIP3    H124240   1.797   3.924   2.035
 8099TIP3    H224241   1.759   3.848   1.910
 8100TIP3   OH224242   6.062   1.846   2.728
 8100TIP3    H124243   6.099   1.845   2.815
 8100TIP3    H224244   6.136   1.864   2.670
 8101TIP3   OH224245   3.014   6.004   5.922
 8101TIP3    H124246   3.057   5.937   5.976
 8101TIP3    H224247   2.935   6.026   5.971
 8102TIP3   OH224248   8.099   3.330   5.317
 8102TIP3    H124249   8.053   3.246   5.320
 8102TIP3    H224250   8.182   3.313   5.361
 8103TIP3   OH224251   6.862   4.979   6.125
 8103TIP3    H124252   6.892   5.019   6.043
 8103TIP3    H224253   6.943   4.965   6.175
 8104TIP3   OH224254   6.729   3.871   1.789
 8104TIP3    H124255   6.759   3.793   1.836
 8104TIP3    H224256   6.640   3.885   1.819
 8105TIP3   OH224257   2.665   6.103   5.286
 8105TIP3    H124258   2.749   6.090   5.332
 8105TIP3    H224259   2.617   6.021   5.300
 8106TIP3   OH224260   5.122   7.205   0.053
 8106TIP3    H124261   5.087   7.280   0.006
 8106TIP3    H224262   5.054   7.138   0.046
 8107TIP3   OH224263   8.026   2.259   3.750
 8107TIP3    H124264   8.021   2.310   3.669
 8107TIP3    H224265   8.120   2.250   3.767
 8108TIP3   OH224266   4.744   7.788   3.685
 8108TIP3    H124267   4.766   7.818   3.597
 8108TIP3    H224268   4.774   7.697   3.687
 8109TIP3   OH224269   6.297   7.238   6.263
 8109TIP3    H124270   6.258   7.203   6.344
 8109TIP3    H224271   6.320   7.160   6.213
 8110TIP3   OH224272   5.039   2.825   6.467
 8110TIP3    H124273   5.091   2.873   6.531
 8110TIP3    H224274   5.093   2.824   6.388
 8111TIP3   OH224275   4.305   4.911   4.367
 8111TIP3    H124276   4.255   4.938   4.444
 8111TIP3    H224277   4.323   4.993   4.321
 8112TIP3   OH224278   7.492   4.818   4.754
 8112TIP3    H124279   7.396   4.823   4.745
 8112TIP3    H224280   7.509   4.852   4.841
 8113TIP3   OH224281   6.082   1.223   4.801
 8113TIP3    H124282   6.141   1.272   4.744
 8113TIP3    H224283   6.066   1.281   4.875
 8114TIP3   OH224284   4.981   0.602   1.986
 8114TIP3    H124285   4.951   0.632   2.072
 8114TIP3    H224286   5.069   0.568   2.002
 8115TIP3   OH224287   0.783   4.144   5.511
 8115TIP3    H124288   0.776   4.049   5.502
 8115TIP3    H224289   0.865   4.158   5.558
 8116TIP3   OH224290   1.509   2.045   2.569
 8116TIP3    H124291   1.464   1.964   2.595
 8116TIP3    H224292   1.467   2.070   2.487
 8117TIP3   OH224293   1.418   6.575   0.852
 8117TIP3    H124294   1.335   6.533   0.876
 8117TIP3    H224295   1.471   6.505   0.815
 8118TIP3   OH224296   2.420   1.480   0.845
 8118TIP3    H124297   2.354   1.532   0.799
 8118TIP3    H224298   2.408   1.501   0.937
 8119TIP3   OH224299   6.712   0.939   0.966
 8119TIP3    H124300   6.790   0.919   0.914
 8119TIP3    H224301   6.659   0.995   0.909
 8120TIP3   OH224302   2.394   2.416   3.268
 8120TIP3    H124303   2.324   2.423   3.333
 8120TIP3    H224304   2.469   2.460   3.309
 8121TIP3   OH224305   3.408   4.228   4.710
 8121TIP3    H124306   3.467   4.200   4.640
 8121TIP3    H224307   3.460   4.286   4.765
 8122TIP3   OH224308   4.976   2.872   5.785
 8122TIP3    H124309   5.028   2.948   5.810
 8122TIP3    H224310   4.887   2.893   5.814
 8123TIP3   OH224311   5.530   4.734   3.631
 8123TIP3    H124312   5.461   4.721   3.566
 8123TIP3    H224313   5.553   4.646   3.660
 8124TIP3   OH224314   3.857   6.186   6.783
 8124TIP3    H124315   3.942   6.231   6.775
 8124TIP3    H224316   3.836   6.160   6.694
 8125TIP3   OH224317   7.518   0.808   1.423
 8125TIP3    H124318   7.563   0.796   1.507
 8125TIP3    H224319   7.425   0.806   1.445
 8126TIP3   OH224320   2.175   1.404   3.348
 8126TIP3    H124321   2.094   1.452   3.330
 8126TIP3    H224322   2.179   1.399   3.444
 8127TIP3   OH224323   2.978   4.939   0.256
 8127TIP3    H124324   2.991   4.892   0.174
 8127TIP3    H224325   2.992   5.031   0.234
 8128TIP3   OH224326   1.806   1.237   2.363
 8128TIP3    H124327   1.847   1.183   2.431
 8128TIP3    H224328   1.734   1.183   2.331
 8129TIP3   OH224329   6.412   4.697   5.864
 8129TIP3    H124330   6.348   4.731   5.928
 8129TIP3    H224331   6.364   4.693   5.782
 8130TIP3   OH224332   0.537   6.256   2.469
 8130TIP3    H124333   0.513   6.288   2.382
 8130TIP3    H224334   0.626   6.287   2.483
 8131TIP3   OH224335   3.344   0.903   3.304
 8131TIP3    H124336   3.403   0.978   3.303
 8131TIP3    H224337   3.268   0.933   3.354
 8132TIP3   OH224338   3.898   2.473   0.825
 8132TIP3    H124339   3.847   2.392   0.823
 8132TIP3    H224340   3.836   2.540   0.797
 8133TIP3   OH224341   4.514   3.427   5.105
 8133TIP3    H124342   4.499   3.505   5.158
 8133TIP3    H224343   4.608   3.411   5.112
 8134TIP3   OH224344   0.743   6.646   1.613
 8134TIP3    H124345   0.722   6.690   1.695
 8134TIP3    H224346   0.748   6.716   1.548
 8135TIP3   OH224347   2.242   4.634   3.305
 8135TIP3    H124348   2.256   4.548   3.265
 8135TIP3    H224349   2.293   4.695   3.252
 8136TIP3   OH224350   7.197   5.809   5.867
 8136TIP3    H124351   7.120   5.866   5.863
 8136TIP3    H224352   7.241   5.834   5.948
 8137TIP3   OH224353   8.098   2.625   4.682
 8137TIP3    H124354   8.130   2.606   4.770
 8137TIP3    H224355   8.016   2.672   4.696
 8138TIP3   OH224356   5.596   1.760   1.517
 8138TIP3    H124357   5.633   1.833   1.467
 8138TIP3    H224358   5.521   1.797   1.562
 8139TIP3   OH224359   0.977   6.384   4.407
 8139TIP3    H124360   0.939   6.452   4.352
 8139TIP3    H224361   0.942   6.302   4.372
 8140TIP3   OH224362   5.561   1.290   0.465
 8140TIP3    H124363   5.573   1.316   0.373
 8140TIP3    H224364   5.629   1.339   0.512
 8141TIP3   OH224365   5.661   0.150   1.287
 8141TIP3    H124366   5.586   0.118   1.236
 8141TIP3    H224367   5.672   0.241   1.260
 8142TIP3   OH224368   3.265   7.383   0.287
 8142TIP3    H124369   3.281   7.385   0.382
 8142TIP3    H224370   3.179   7.424   0.277
 8143TIP3   OH224371   7.292   5.623   3.084
 8143TIP3    H124372   7.229   5.552   3.073
 8143TIP3    H224373   7.375   5.578   3.099
 8144TIP3   OH224374   1.723   2.853   1.224
 8144TIP3    H124375   1.747   2.934   1.269
 8144TIP3    H224376   1.756   2.864   1.135
 8145TIP3   OH224377   7.332   6.632   5.999
 8145TIP3    H124378   7.287   6.567   6.053
 8145TIP3    H224379   7.266   6.663   5.938
 8146TIP3   OH224380   4.744   1.669   4.553
 8146TIP3    H124381   4.724   1.662   4.647
 8146TIP3    H224382   4.839   1.686   4.550
 8147TIP3   OH224383   7.203   4.980   1.926
 8147TIP3    H124384   7.263   4.969   2.000
 8147TIP3    H224385   7.183   4.891   1.897
 8148TIP3   OH224386   2.988   5.136   1.147
 8148TIP3    H124387   3.012   5.130   1.054
 8148TIP3    H224388   2.987   5.230   1.165
 8149TIP3   OH224389   7.285   5.264   0.886
 8149TIP3    H124390   7.254   5.343   0.931
 8149TIP3    H224391   7.222   5.196   0.911
 8150TIP3   OH224392   2.021   2.665   0.778
 8150TIP3    H124393   2.090   2.621   0.828
 8150TIP3    H224394   1.993   2.600   0.714
 8151TIP3   OH224395   1.986   7.070   4.770
 8151TIP3    H124396   1.968   7.062   4.676
 8151TIP3    H224397   2.039   6.993   4.791
 8152TIP3   OH224398   6.130   5.042   3.167
 8152TIP3    H124399   6.087   4.960   3.143
 8152TIP3    H224400   6.090   5.108   3.110
 8153TIP3   OH224401   5.778   2.817   0.883
 8153TIP3    H124402   5.692   2.830   0.845
 8153TIP3    H224403   5.831   2.889   0.850
 8154TIP3   OH224404   1.295   7.553   6.133
 8154TIP3    H124405   1.353   7.491   6.090
 8154TIP3    H224406   1.257   7.604   6.061
 8155TIP3   OH224407   2.652   3.861   6.204
 8155TIP3    H124408   2.688   3.817   6.280
 8155TIP3    H224409   2.714   3.844   6.134
 8156TIP3   OH224410   5.245   0.969   0.346
 8156TIP3    H124411   5.299   0.943   0.421
 8156TIP3    H224412   5.260   0.900   0.282
 8157TIP3   OH224413   8.167   7.504   4.414
 8157TIP3    H124414   8.072   7.507   4.418
 8157TIP3    H224415   8.194   7.469   4.499
 8158TIP3   OH224416   5.441   4.608   1.516
 8158TIP3    H124417   5.461   4.637   1.605
 8158TIP3    H224418   5.364   4.660   1.491
 8159TIP3   OH224419   8.256   2.600   4.944
 8159TIP3    H124420   8.331   2.645   4.983
 8159TIP3    H224421   8.294   2.533   4.888
 8160TIP3   OH224422   5.293   0.538   6.010
 8160TIP3    H124423   5.256   0.625   5.995
 8160TIP3    H224424   5.376   0.538   5.963
 8161TIP3   OH224425   2.302   0.856   5.316
 8161TIP3    H124426   2.344   0.809   5.388
 8161TIP3    H224427   2.284   0.943   5.351
 8162TIP3   OH224428   0.460   2.030   6.202
 8162TIP3    H124429   0.431   2.066   6.118
 8162TIP3    H224430   0.394   1.964   6.225
 8163TIP3   OH224431   1.938   1.571   5.368
 8163TIP3    H124432   1.943   1.633   5.296
 8163TIP3    H224433   1.845   1.569   5.392
 8164TIP3   OH224434   2.045   6.817   1.169
 8164TIP3    H124435   2.099   6.760   1.225
 8164TIP3    H224436   2.015   6.886   1.228
 8165TIP3   OH224437   2.366   0.215   1.428
 8165TIP3    H124438   2.381   0.137   1.374
 8165TIP3    H224439   2.425   0.281   1.391
 8166TIP3   OH224440   0.809   3.624   6.463
 8166TIP3    H124441   0.776   3.648   6.549
 8166TIP3    H224442   0.736   3.638   6.403
 8167TIP3   OH224443   2.960   3.053   6.019
 8167TIP3    H124444   2.890   3.087   6.074
 8167TIP3    H224445   3.038   3.055   6.074
 8168TIP3   OH224446   5.567   3.969   5.433
 8168TIP3    H124447   5.662   3.959   5.439
 8168TIP3    H224448   5.533   3.887   5.470
 8169TIP3   OH224449   1.357   2.884   2.995
 8169TIP3    H124450   1.321   2.795   2.996
 8169TIP3    H224451   1.290   2.938   3.037
 8170TIP3   OH224452   0.162   2.856   5.502
 8170TIP3    H124453   0.129   2.946   5.501
 8170TIP3    H224454   0.084   2.802   5.487
 8171TIP3   OH224455   3.382   3.248   2.726
 8171TIP3    H124456   3.473   3.226   2.703
 8171TIP3    H224457   3.373   3.220   2.817
 8172TIP3   OH224458   2.345   6.769   4.751
 8172TIP3    H124459   2.309   6.682   4.734
 8172TIP3    H224460   2.275   6.816   4.796
 8173TIP3   OH224461   7.917   6.028   6.419
 8173TIP3    H124462   7.913   5.952   6.362
 8173TIP3    H224463   7.907   6.103   6.360
 8174TIP3   OH224464   1.755   7.080   1.109
 8174TIP3    H124465   1.731   7.009   1.170
 8174TIP3    H224466   1.679   7.138   1.110
 8175TIP3   OH224467   6.355   1.204   4.240
 8175TIP3    H124468   6.319   1.122   4.206
 8175TIP3    H224469   6.385   1.182   4.328
 8176TIP3   OH224470   4.230   6.008   1.717
 8176TIP3    H124471   4.179   5.930   1.733
 8176TIP3    H224472   4.286   6.017   1.795
 8177TIP3   OH224473   3.944   3.698   6.396
 8177TIP3    H124474   4.016   3.650   6.356
 8177TIP3    H224475   3.950   3.786   6.360
 8178TIP3   OH224476   7.999   1.565   5.801
 8178TIP3    H124477   8.022   1.531   5.715
 8178TIP3    H224478   8.006   1.489   5.859
 8179TIP3   OH224479   0.199   6.450   6.498
 8179TIP3    H124480   0.120   6.485   6.455
 8179TIP3    H224481   0.271   6.495   6.455
 8180TIP3   OH224482   7.933   3.668   5.563
 8180TIP3    H124483   7.963   3.610   5.493
 8180TIP3    H224484   7.937   3.614   5.642
 8181TIP3   OH224485   3.078   7.461   3.473
 8181TIP3    H124486   3.173   7.448   3.471
 8181TIP3    H224487   3.044   7.385   3.521
 8182TIP3   OH224488   1.032   4.550   2.947
 8182TIP3    H124489   1.034   4.644   2.961
 8182TIP3    H224490   0.954   4.535   2.893
 8183TIP3   OH224491   7.986   3.873   4.323
 8183TIP3    H124492   7.971   3.885   4.417
 8183TIP3    H224493   7.985   3.778   4.312
 8184TIP3   OH224494   6.905   7.770   2.214
 8184TIP3    H124495   6.961   7.694   2.194
 8184TIP3    H224496   6.822   7.749   2.171
 8185TIP3   OH224497   6.479   4.059   4.913
 8185TIP3    H124498   6.416   4.085   4.846
 8185TIP3    H224499   6.507   3.971   4.886
 8186TIP3   OH224500   7.314   5.357   2.716
 8186TIP3    H124501   7.330   5.274   2.672
 8186TIP3    H224502   7.396   5.375   2.763
 8187TIP3   OH224503   6.374   2.190   2.585
 8187TIP3    H124504   6.337   2.180   2.497
 8187TIP3    H224505   6.469   2.188   2.573
 8188TIP3   OH224506   1.865   3.271   1.676
 8188TIP3    H124507   1.836   3.340   1.616
 8188TIP3    H224508   1.866   3.313   1.762
 8189TIP3   OH224509   5.611   4.378   2.018
 8189TIP3    H124510   5.650   4.301   2.059
 8189TIP3    H224511   5.571   4.426   2.090
 8190TIP3   OH224512   5.719   6.275   4.154
 8190TIP3    H124513   5.664   6.221   4.210
 8190TIP3    H224514   5.702   6.365   4.183
 8191TIP3   OH224515   1.917   4.128   6.603
 8191TIP3    H124516   1.846   4.137   6.667
 8191TIP3    H224517   1.878   4.080   6.530
 8192TIP3   OH224518   4.101   2.146   0.744
 8192TIP3    H124519   4.147   2.161   0.827
 8192TIP3    H224520   4.153   2.078   0.701
 8193TIP3   OH224521   4.894   0.228   0.548
 8193TIP3    H124522   4.937   0.271   0.622
 8193TIP3    H224523   4.965   0.213   0.485
 8194TIP3   OH224524   3.419   0.114   0.066
 8194TIP3    H124525   3.439   0.131  -0.026
 8194TIP3    H224526   3.394   0.021   0.069
 8195TIP3   OH224527   4.961   3.417   4.283
 8195TIP3    H124528   5.036   3.358   4.276
 8195TIP3    H224529   4.987   3.494   4.231
 8196TIP3   OH224530   2.134   0.297   0.908
 8196TIP3    H124531   2.175   0.211   0.904
 8196TIP3    H224532   2.040   0.279   0.905
 8197TIP3   OH224533   3.877   5.269   2.399
 8197TIP3    H124534   3.783   5.255   2.412
 8197TIP3    H224535   3.913   5.273   2.488
 8198TIP3   OH224536   1.642   6.296   4.483
 8198TIP3    H124537   1.559   6.250   4.499
 8198TIP3    H224538   1.701   6.227   4.454
 8199TIP3   OH224539   5.898   2.536   0.569
 8199TIP3    H124540   5.968   2.483   0.607
 8199TIP3    H224541   5.818   2.499   0.606
 8200TIP3   OH224542   2.554   5.889   3.095
 8200TIP3    H124543   2.483   5.940   3.133
 8200TIP3    H224544   2.615   5.876   3.168
 8201TIP3   OH224545   1.379   7.526   1.711
 8201TIP3    H124546   1.309   7.467   1.683
 8201TIP3    H224547   1.394   7.583   1.636
 8202TIP3   OH224548   7.934   3.230   6.170
 8202TIP3    H124549   7.971   3.185   6.247
 8202TIP3    H224550   7.903   3.314   6.205
 8203TIP3   OH224551   3.401   5.790   2.297
 8203TIP3    H124552   3.488   5.780   2.335
 8203TIP3    H224553   3.415   5.783   2.203
 8204TIP3   OH224554   5.723   2.307   4.556
 8204TIP3    H124555   5.742   2.227   4.506
 8204TIP3    H224556   5.712   2.375   4.489
 8205TIP3   OH224557   1.583   1.179   1.639
 8205TIP3    H124558   1.663   1.144   1.599
 8205TIP3    H224559   1.568   1.123   1.715
 8206TIP3   OH224560   5.564   5.355   1.938
 8206TIP3    H124561   5.475   5.392   1.935
 8206TIP3    H224562   5.553   5.271   1.982
 8207TIP3   OH224563   4.922   3.972   1.916
 8207TIP3    H124564   5.004   3.957   1.870
 8207TIP3    H224565   4.927   3.917   1.994
 8208TIP3   OH224566   4.684   4.982   4.880
 8208TIP3    H124567   4.733   4.917   4.829
 8208TIP3    H224568   4.649   4.932   4.954
 8209TIP3   OH224569   3.084   1.435   6.309
 8209TIP3    H124570   3.140   1.504   6.274
 8209TIP3    H224571   3.137   1.392   6.377
 8210TIP3   OH224572   4.525   3.167   4.418
 8210TIP3    H124573   4.583   3.172   4.342
 8210TIP3    H224574   4.546   3.083   4.459
 8211TIP3   OH224575   4.305   3.528   2.261
 8211TIP3    H124576   4.395   3.561   2.271
 8211TIP3    H224577   4.272   3.569   2.181
 8212TIP3   OH224578   3.495   6.163   2.429
 8212TIP3    H124579   3.412   6.146   2.384
 8212TIP3    H224580   3.491   6.110   2.508
 8213TIP3   OH224581   1.789   6.446   1.458
 8213TIP3    H124582   1.824   6.362   1.431
 8213TIP3    H224583   1.748   6.482   1.379
 8214TIP3   OH224584   2.873   4.458   3.628
 8214TIP3    H124585   2.958   4.485   3.662
 8214TIP3    H224586   2.893   4.426   3.540
 8215TIP3   OH224587   6.921   0.643   3.056
 8215TIP3    H124588   6.995   0.622   2.999
 8215TIP3    H224589   6.935   0.735   3.080
 8216TIP3   OH224590   1.170   2.074   3.452
 8216TIP3    H124591   1.117   2.001   3.483
 8216TIP3    H224592   1.172   2.135   3.526
 8217TIP3   OH224593   6.584   4.191   1.767
 8217TIP3    H124594   6.663   4.230   1.730
 8217TIP3    H224595   6.585   4.100   1.738
 8218TIP3   OH224596   2.703   1.658   4.658
 8218TIP3    H124597   2.674   1.725   4.721
 8218TIP3    H224598   2.797   1.651   4.673
 8219TIP3   OH224599   4.802   1.796   6.034
 8219TIP3    H124600   4.839   1.795   5.946
 8219TIP3    H224601   4.841   1.873   6.076
 8220TIP3   OH224602   3.847   5.881   5.453
 8220TIP3    H124603   3.771   5.936   5.434
 8220TIP3    H224604   3.860   5.890   5.548
 8221TIP3   OH224605   7.798   1.631   1.047
 8221TIP3    H124606   7.852   1.552   1.046
 8221TIP3    H224607   7.747   1.624   1.127
 8222TIP3   OH224608   0.753   2.812   4.411
 8222TIP3    H124609   0.751   2.800   4.506
 8222TIP3    H224610   0.814   2.885   4.397
 8223TIP3   OH224611   7.981   6.148   5.820
 8223TIP3    H124612   8.047   6.166   5.886
 8223TIP3    H224613   8.022   6.084   5.762
 8224TIP3   OH224614   6.784   1.915   2.649
 8224TIP3    H124615   6.849   1.980   2.621
 8224TIP3    H224616   6.832   1.857   2.709
 8225TIP3   OH224617   3.326   6.630   3.292
 8225TIP3    H124618   3.282   6.676   3.220
 8225TIP3    H224619   3.316   6.537   3.271
 8226TIP3   OH224620   2.545   6.063   6.197
 8226TIP3    H124621   2.479   6.132   6.201
 8226TIP3    H224622   2.535   6.015   6.279
 8227TIP3   OH224623   2.035   2.644   2.010
 8227TIP3    H124624   2.034   2.657   2.105
 8227TIP3    H224625   1.996   2.723   1.974
 8228TIP3   OH224626   5.629   5.913   3.944
 8228TIP3    H124627   5.634   5.978   4.014
 8228TIP3    H224628   5.591   5.961   3.870
 8229TIP3   OH224629   2.237   1.415   1.128
 8229TIP3    H124630   2.296   1.490   1.128
 8229TIP3    H224631   2.292   1.341   1.153
 8230TIP3   OH224632   3.340   3.725   1.112
 8230TIP3    H124633   3.409   3.665   1.085
 8230TIP3    H224634   3.291   3.678   1.179
 8231TIP3   OH224635   6.044   4.461   2.427
 8231TIP3    H124636   5.986   4.533   2.451
 8231TIP3    H224637   6.061   4.415   2.509
 8232TIP3   OH224638   2.684   3.682   4.634
 8232TIP3    H124639   2.618   3.751   4.638
 8232TIP3    H224640   2.712   3.671   4.725
 8233TIP3   OH224641   1.139   0.894   1.390
 8233TIP3    H124642   1.196   0.968   1.413
 8233TIP3    H224643   1.055   0.934   1.367
 8234TIP3   OH224644   0.992   3.951   5.010
 8234TIP3    H124645   1.050   3.927   5.082
 8234TIP3    H224646   1.009   4.045   4.996
 8235TIP3   OH224647   5.590   4.056   2.212
 8235TIP3    H124648   5.537   4.105   2.276
 8235TIP3    H224649   5.656   4.012   2.265
 8236TIP3   OH224650   2.925   2.203   3.345
 8236TIP3    H124651   2.843   2.252   3.359
 8236TIP3    H224652   2.982   2.265   3.299
 8237TIP3   OH224653   7.089   5.536   4.382
 8237TIP3    H124654   7.179   5.534   4.413
 8237TIP3    H224655   7.064   5.628   4.384
 8238TIP3   OH224656   6.537   5.904   4.541
 8238TIP3    H124657   6.477   5.905   4.467
 8238TIP3    H224658   6.481   5.884   4.617
 8239TIP3   OH224659   4.573   2.181   4.426
 8239TIP3    H124660   4.646   2.224   4.381
 8239TIP3    H224661   4.614   2.112   4.479
 8240TIP3   OH224662   1.614   6.054   2.016
 8240TIP3    H124663   1.677   6.081   2.083
 8240TIP3    H224664   1.596   5.962   2.037
 8241TIP3   OH224665   4.046   7.083   6.459
 8241TIP3    H124666   3.982   7.145   6.422
 8241TIP3    H224667   4.051   7.106   6.551
 8242TIP3   OH224668   3.619   7.449   1.515
 8242TIP3    H124669   3.699   7.399   1.498
 8242TIP3    H224670   3.640   7.501   1.593
 8243TIP3   OH224671   6.426   6.340   6.261
 8243TIP3    H124672   6.355   6.399   6.285
 8243TIP3    H224673   6.394   6.295   6.183
 8244TIP3   OH224674   6.074   3.066   5.322
 8244TIP3    H124675   5.987   3.046   5.286
 8244TIP3    H224676   6.072   3.160   5.339
 8245TIP3   OH224677   3.681   2.174   4.437
 8245TIP3    H124678   3.662   2.133   4.353
 8245TIP3    H224679   3.740   2.246   4.417
 8246TIP3   OH224680   4.404   2.305   2.043
 8246TIP3    H124681   4.481   2.362   2.045
 8246TIP3    H224682   4.372   2.311   1.953
 8247TIP3   OH224683   3.536   2.159   0.357
 8247TIP3    H124684   3.578   2.147   0.272
 8247TIP3    H224685   3.453   2.113   0.350
 8248TIP3   OH224686   0.435   5.073   5.235
 8248TIP3    H124687   0.418   5.114   5.151
 8248TIP3    H224688   0.492   4.999   5.215
 8249TIP3   OH224689   3.553   5.733   4.565
 8249TIP3    H124690   3.644   5.750   4.543
 8249TIP3    H224691   3.531   5.653   4.517
 8250TIP3   OH224692   7.343   6.451   0.966
 8250TIP3    H124693   7.302   6.529   1.003
 8250TIP3    H224694   7.310   6.379   1.020
 8251TIP3   OH224695   5.288   3.172   4.545
 8251TIP3    H124696   5.316   3.150   4.634
 8251TIP3    H224697   5.357   3.139   4.488
 8252TIP3   OH224698   4.641   5.855   3.756
 8252TIP3    H124699   4.674   5.934   3.713
 8252TIP3    H224700   4.547   5.870   3.765
 8253TIP3   OH224701   0.952   1.972   5.651
 8253TIP3    H124702   1.042   2.003   5.640
 8253TIP3    H224703   0.908   2.043   5.697
 8254TIP3   OH224704   6.887   5.169   5.081
 8254TIP3    H124705   6.828   5.239   5.053
 8254TIP3    H224706   6.867   5.096   5.023
 8255TIP3   OH224707   3.191   1.752   0.310
 8255TIP3    H124708   3.152   1.720   0.391
 8255TIP3    H224709   3.198   1.674   0.254
 8256TIP3   OH224710   1.399   5.321   5.859
 8256TIP3    H124711   1.434   5.342   5.773
 8256TIP3    H224712   1.476   5.309   5.914
 8257TIP3   OH224713   0.808   4.547   3.513
 8257TIP3    H124714   0.814   4.559   3.608
 8257TIP3    H224715   0.777   4.457   3.503
 8258TIP3   OH224716   6.183   7.256   4.664
 8258TIP3    H124717   6.124   7.186   4.691
 8258TIP3    H224718   6.226   7.222   4.585
 8259TIP3   OH224719   6.196   5.722   0.380
 8259TIP3    H124720   6.164   5.734   0.470
 8259TIP3    H224721   6.149   5.645   0.348
 8260TIP3   OH224722   0.966   7.223   5.110
 8260TIP3    H124723   1.046   7.228   5.162
 8260TIP3    H224724   0.897   7.210   5.175
 8261TIP3   OH224725   7.375   5.547   3.485
 8261TIP3    H124726   7.306   5.508   3.538
 8261TIP3    H224727   7.350   5.529   3.394
 8262TIP3   OH224728   6.773   1.772   0.951
 8262TIP3    H124729   6.849   1.714   0.939
 8262TIP3    H224730   6.715   1.722   1.009
 8263TIP3   OH224731   2.637   6.482   0.530
 8263TIP3    H124732   2.570   6.463   0.464
 8263TIP3    H224733   2.714   6.509   0.479
 8264TIP3   OH224734   0.710   3.310   0.748
 8264TIP3    H124735   0.662   3.380   0.793
 8264TIP3    H224736   0.758   3.265   0.817
 8265TIP3   OH224737   0.683   6.107   3.332
 8265TIP3    H124738   0.749   6.168   3.298
 8265TIP3    H224739   0.626   6.161   3.387
 8266TIP3   OH224740   5.898   1.318   5.198
 8266TIP3    H124741   5.927   1.407   5.218
 8266TIP3    H224742   5.979   1.270   5.181
 8267TIP3   OH224743   0.792   6.331   1.414
 8267TIP3    H124744   0.867   6.327   1.355
 8267TIP3    H224745   0.776   6.239   1.438
 8268TIP3   OH224746   7.640   2.200   0.579
 8268TIP3    H124747   7.636   2.110   0.545
 8268TIP3    H224748   7.696   2.247   0.517
 8269TIP3   OH224749   5.534   7.669   6.566
 8269TIP3    H124750   5.480   7.629   6.635
 8269TIP3    H224751   5.474   7.729   6.521
 8270TIP3   OH224752   3.115   7.536   6.712
 8270TIP3    H124753   3.071   7.605   6.663
 8270TIP3    H224754   3.045   7.482   6.746
 8271TIP3   OH224755   5.964   3.603   1.925
 8271TIP3    H124756   5.964   3.529   1.864
 8271TIP3    H224757   5.920   3.674   1.878
 8272TIP3   OH224758   3.889   1.914   5.912
 8272TIP3    H124759   3.813   1.861   5.939
 8272TIP3    H224760   3.958   1.850   5.896
 8273TIP3   OH224761   0.054   5.324   0.050
 8273TIP3    H124762   0.025   5.234   0.037
 8273TIP3    H224763   0.150   5.318   0.055
 8274TIP3   OH224764   6.515   1.313   2.474
 8274TIP3    H124765   6.567   1.234   2.455
 8274TIP3    H224766   6.485   1.342   2.388
 8275TIP3   OH224767   2.468   1.233   3.253
 8275TIP3    H124768   2.468   1.308   3.311
 8275TIP3    H224769   2.415   1.167   3.298
 8276TIP3   OH224770   3.932   6.175   4.665
 8276TIP3    H124771   3.933   6.096   4.611
 8276TIP3    H224772   3.855   6.165   4.721
 8277TIP3   OH224773   6.364   0.475   1.347
 8277TIP3    H124774   6.276   0.496   1.378
 8277TIP3    H224775   6.360   0.382   1.325
 8278TIP3   OH224776   3.679   6.078   4.726
 8278TIP3    H124777   3.670   6.172   4.739
 8278TIP3    H224778   3.635   6.039   4.801
 8279TIP3   OH224779   4.078   6.328   6.672
 8279TIP3    H124780   4.109   6.302   6.585
 8279TIP3    H224781   4.111   6.417   6.683
 8280TIP3   OH224782   7.138   1.630   3.396
 8280TIP3    H124783   7.141   1.712   3.444
 8280TIP3    H224784   7.084   1.572   3.450
 8281TIP3   OH224785   1.150   5.847   2.132
 8281TIP3    H124786   1.217   5.915   2.126
 8281TIP3    H224787   1.164   5.806   2.217
 8282TIP3   OH224788   6.882   5.689   0.909
 8282TIP3    H124789   6.871   5.647   0.823
 8282TIP3    H224790   6.868   5.782   0.892
 8283TIP3   OH224791   2.774   6.038   1.894
 8283TIP3    H124792   2.868   6.024   1.911
 8283TIP3    H224793   2.744   6.090   1.969
 8284TIP3   OH224794   7.896   7.244   0.944
 8284TIP3    H124795   7.935   7.197   1.018
 8284TIP3    H224796   7.963   7.307   0.919
 8285TIP3   OH224797   1.879   7.589   2.649
 8285TIP3    H124798   1.922   7.591   2.734
 8285TIP3    H224799   1.788   7.569   2.669
 8286TIP3   OH224800   3.116   4.282   2.201
 8286TIP3    H124801   3.044   4.246   2.148
 8286TIP3    H224802   3.113   4.231   2.282
 8287TIP3   OH224803   6.602   5.862   6.062
 8287TIP3    H124804   6.538   5.802   6.024
 8287TIP3    H224805   6.640   5.908   5.988
 8288TIP3   OH224806   0.665   1.641   2.852
 8288TIP3    H124807   0.707   1.652   2.767
 8288TIP3    H224808   0.730   1.671   2.915
 8289TIP3   OH224809   2.126   4.229   0.854
 8289TIP3    H124810   2.077   4.296   0.807
 8289TIP3    H224811   2.194   4.278   0.901
 8290TIP3   OH224812   6.900   3.964   3.533
 8290TIP3    H124813   6.904   4.059   3.522
 8290TIP3    H224814   6.944   3.947   3.616
 8291TIP3   OH224815   8.256   6.553   2.569
 8291TIP3    H124816   8.226   6.471   2.608
 8291TIP3    H224817   8.188   6.575   2.506
 8292TIP3   OH224818   7.478   7.415   3.725
 8292TIP3    H124819   7.453   7.480   3.658
 8292TIP3    H224820   7.394   7.383   3.759
 8293TIP3   OH224821   1.293   4.299   5.720
 8293TIP3    H124822   1.306   4.384   5.679
 8293TIP3    H224823   1.377   4.279   5.761
 8294TIP3   OH224824   1.229   5.022   1.533
 8294TIP3    H124825   1.175   5.077   1.476
 8294TIP3    H224826   1.293   5.081   1.571
 8295TIP3   OH224827   1.035   6.272   1.306
 8295TIP3    H124828   1.036   6.368   1.301
 8295TIP3    H224829   1.108   6.245   1.249
 8296TIP3   OH224830   7.374   1.299   4.744
 8296TIP3    H124831   7.466   1.291   4.771
 8296TIP3    H224832   7.338   1.366   4.802
 8297TIP3   OH224833   1.127   7.274   5.379
 8297TIP3    H124834   1.153   7.353   5.331
 8297TIP3    H224835   1.210   7.239   5.413
 8298TIP3   OH224836   3.608   3.028   3.514
 8298TIP3    H124837   3.614   3.123   3.526
 8298TIP3    H224838   3.559   3.017   3.434
 8299TIP3   OH224839   7.516   7.663   5.188
 8299TIP3    H124840   7.476   7.748   5.173
 8299TIP3    H224841   7.515   7.652   5.283
 8300TIP3   OH224842   5.564   1.133   0.930
 8300TIP3    H124843   5.623   1.140   1.005
 8300TIP3    H224844   5.500   1.203   0.944
 8301TIP3   OH224845   2.609   3.210   5.809
 8301TIP3    H124846   2.567   3.273   5.869
 8301TIP3    H224847   2.681   3.260   5.769
 8302TIP3   OH224848   7.398   3.986   4.045
 8302TIP3    H124849   7.488   3.980   4.013
 8302TIP3    H224850   7.401   4.057   4.110
 8303TIP3   OH224851   2.922   0.327   2.010
 8303TIP3    H124852   2.877   0.380   1.944
 8303TIP3    H224853   2.918   0.237   1.975
 8304TIP3   OH224854   6.975   5.689   3.320
 8304TIP3    H124855   6.895   5.651   3.356
 8304TIP3    H224856   7.040   5.620   3.330
 8305TIP3   OH224857   6.347   0.048   6.368
 8305TIP3    H124858   6.293  -0.029   6.388
 8305TIP3    H224859   6.359   0.092   6.453
 8306TIP3   OH224860   2.858   2.675   0.079
 8306TIP3    H124861   2.771   2.707   0.102
 8306TIP3    H224862   2.872   2.599   0.135
 8307TIP3   OH224863   0.469   5.984   2.479
 8307TIP3    H124864   0.460   6.079   2.477
 8307TIP3    H224865   0.471   5.958   2.386
 8308TIP3   OH224866   7.183   3.154   1.995
 8308TIP3    H124867   7.249   3.091   2.024
 8308TIP3    H224868   7.234   3.222   1.950
 8309TIP3   OH224869   2.151   0.300   6.596
 8309TIP3    H124870   2.177   0.217   6.555
 8309TIP3    H224871   2.218   0.316   6.662
 8310TIP3   OH224872   0.322   0.112   6.512
 8310TIP3    H124873   0.329   0.112   6.607
 8310TIP3    H224874   0.359   0.196   6.485
 8311TIP3   OH224875   1.877   2.953   2.337
 8311TIP3    H124876   1.913   2.925   2.421
 8311TIP3    H224877   1.952   2.987   2.289
 8312TIP3   OH224878   2.947   6.164   1.333
 8312TIP3    H124879   2.964   6.148   1.426
 8312TIP3    H224880   2.870   6.111   1.312
 8313TIP3   OH224881   6.733   7.795   5.196
 8313TIP3    H124882   6.641   7.820   5.194
 8313TIP3    H224883   6.781   7.877   5.182
 8314TIP3   OH224884   2.056   6.953   3.579
 8314TIP3    H124885   2.099   6.903   3.648
 8314TIP3    H224886   2.115   6.944   3.504
 8315TIP3   OH224887   4.106   6.576   2.576
 8315TIP3    H124888   4.151   6.491   2.583
 8315TIP3    H224889   4.168   6.631   2.529
 8316TIP3   OH224890   5.781   2.036   4.451
 8316TIP3    H124891   5.802   1.959   4.505
 8316TIP3    H224892   5.774   2.002   4.362
 8317TIP3   OH224893   4.305   6.519   5.739
 8317TIP3    H124894   4.337   6.478   5.658
 8317TIP3    H224895   4.288   6.610   5.715
 8318TIP3   OH224896   3.889   3.065   2.819
 8318TIP3    H124897   3.910   3.084   2.728
 8318TIP3    H224898   3.801   3.101   2.831
 8319TIP3   OH224899   7.009   6.148   1.280
 8319TIP3    H124900   6.921   6.177   1.257
 8319TIP3    H224901   7.004   6.052   1.278
 8320TIP3   OH224902   5.328   7.616   2.434
 8320TIP3    H124903   5.377   7.536   2.416
 8320TIP3    H224904   5.390   7.687   2.418
 8321TIP3   OH224905   5.811   3.847   0.550
 8321TIP3    H124906   5.720   3.817   0.553
 8321TIP3    H224907   5.860   3.771   0.519
 8322TIP3   OH224908   0.193   3.972   1.713
 8322TIP3    H124909   0.193   3.876   1.713
 8322TIP3    H224910   0.280   3.997   1.744
 8323TIP3   OH224911   1.048   3.974   3.951
 8323TIP3    H124912   1.045   3.980   4.047
 8323TIP3    H224913   0.967   3.929   3.927
 8324TIP3   OH224914   6.557   2.350   6.179
 8324TIP3    H124915   6.610   2.270   6.181
 8324TIP3    H224916   6.603   2.408   6.118
 8325TIP3   OH224917   1.689   6.275   5.318
 8325TIP3    H124918   1.620   6.266   5.252
 8325TIP3    H224919   1.743   6.347   5.287
 8326TIP3   OH224920   7.235   5.682   4.669
 8326TIP3    H124921   7.283   5.689   4.752
 8326TIP3    H224922   7.247   5.766   4.627
 8327TIP3   OH224923   5.125   5.979   4.496
 8327TIP3    H124924   5.208   5.932   4.497
 8327TIP3    H224925   5.119   6.017   4.408
 8328TIP3   OH224926   3.979   6.718   2.325
 8328TIP3    H124927   3.954   6.807   2.347
 8328TIP3    H224928   3.920   6.662   2.377
 8329TIP3   OH224929   6.937   4.107   3.226
 8329TIP3    H124930   6.940   4.072   3.137
 8329TIP3    H224931   7.003   4.057   3.273
 8330TIP3   OH224932   0.905   3.877   0.276
 8330TIP3    H124933   0.882   3.925   0.197
 8330TIP3    H224934   0.891   3.939   0.347
 8331TIP3   OH224935   2.073   0.436   1.777
 8331TIP3    H124936   2.128   0.455   1.701
 8331TIP3    H224937   1.990   0.406   1.739
 8332TIP3   OH224938   0.445   3.740   2.451
 8332TIP3    H124939   0.507   3.811   2.464
 8332TIP3    H224940   0.404   3.728   2.536
 8333TIP3   OH224941   7.415   4.802   6.564
 8333TIP3    H124942   7.459   4.886   6.579
 8333TIP3    H224943   7.435   4.750   6.642
 8334TIP3   OH224944   4.773   4.340   4.060
 8334TIP3    H124945   4.771   4.378   4.148
 8334TIP3    H224946   4.707   4.389   4.011
 8335TIP3   OH224947   5.227   5.726   3.457
 8335TIP3    H124948   5.158   5.763   3.402
 8335TIP3    H224949   5.265   5.657   3.403
 8336TIP3   OH224950   0.023   3.851   5.309
 8336TIP3    H124951  -0.001   3.811   5.393
 8336TIP3    H224952   0.011   3.945   5.323
 8337TIP3   OH224953   1.203   5.170   0.569
 8337TIP3    H124954   1.207   5.226   0.645
 8337TIP3    H224955   1.120   5.124   0.576
 8338TIP3   OH224956   7.206   5.855   2.037
 8338TIP3    H124957   7.291   5.810   2.040
 8338TIP3    H224958   7.152   5.806   2.098
 8339TIP3   OH224959   2.695   5.108   5.929
 8339TIP3    H124960   2.736   5.023   5.944
 8339TIP3    H224961   2.758   5.157   5.876
 8340TIP3   OH224962   5.236   6.703   0.423
 8340TIP3    H124963   5.199   6.668   0.503
 8340TIP3    H224964   5.192   6.654   0.353
 8341TIP3   OH224965   1.466   0.699   1.075
 8341TIP3    H124966   1.552   0.696   1.032
 8341TIP3    H224967   1.413   0.755   1.019
 8342TIP3   OH224968   2.622   6.879   4.607
 8342TIP3    H124969   2.621   6.954   4.668
 8342TIP3    H224970   2.549   6.824   4.636
 8343TIP3   OH224971   3.339   2.958   5.326
 8343TIP3    H124972   3.394   3.004   5.262
 8343TIP3    H224973   3.266   2.924   5.275
 8344TIP3   OH224974   6.614   1.038   5.898
 8344TIP3    H124975   6.701   0.998   5.905
 8344TIP3    H224976   6.560   0.971   5.858
 8345TIP3   OH224977   1.378   0.736   1.338
 8345TIP3    H124978   1.296   0.784   1.342
 8345TIP3    H224979   1.385   0.707   1.247
 8346TIP3   OH224980   0.656   2.848   1.055
 8346TIP3    H124981   0.689   2.879   1.140
 8346TIP3    H224982   0.662   2.925   0.998
 8347TIP3   OH224983   6.121   6.055   4.812
 8347TIP3    H124984   6.104   5.964   4.789
 8347TIP3    H224985   6.046   6.082   4.864
 8348TIP3   OH224986   7.625   4.593   6.020
 8348TIP3    H124987   7.594   4.604   6.110
 8348TIP3    H224988   7.660   4.678   5.996
 8349TIP3   OH224989   7.848   7.279   4.775
 8349TIP3    H124990   7.771   7.324   4.812
 8349TIP3    H224991   7.825   7.187   4.777
 8350TIP3   OH224992   3.857   5.958   0.609
 8350TIP3    H124993   3.823   5.873   0.636
 8350TIP3    H224994   3.779   6.009   0.586
 8351TIP3   OH224995   2.418   1.618   0.074
 8351TIP3    H124996   2.477   1.548   0.046
 8351TIP3    H224997   2.331   1.585   0.054
 8352TIP3   OH224998   5.569   5.149   0.972
 8352TIP3    H124999   5.638   5.169   1.035
 8352TIP3    H225000   5.509   5.223   0.979
 8353TIP3   OH225001   7.951   5.111   6.597
 8353TIP3    H125002   7.976   5.136   6.685
 8353TIP3    H225003   8.013   5.043   6.572
 8354TIP3   OH225004   3.962   2.498   1.618
 8354TIP3    H125005   4.029   2.449   1.569
 8354TIP3    H225006   3.892   2.434   1.633
 8355TIP3   OH225007   7.566   3.633   4.576
 8355TIP3    H125008   7.606   3.592   4.500
 8355TIP3    H225009   7.615   3.715   4.587
 8356TIP3   OH225010   1.106   6.569   4.017
 8356TIP3    H125011   1.105   6.643   4.077
 8356TIP3    H225012   1.137   6.495   4.071
 8357TIP3   OH225013   5.558   6.995   0.435
 8357TIP3    H125014   5.639   6.993   0.383
 8357TIP3    H225015   5.583   7.040   0.516
 8358TIP3   OH225016   5.471   4.765   4.612
 8358TIP3    H125017   5.416   4.800   4.542
 8358TIP3    H225018   5.543   4.828   4.619
 8359TIP3   OH225019   6.867   0.595   1.652
 8359TIP3    H125020   6.805   0.640   1.594
 8359TIP3    H225021   6.909   0.666   1.701
 8360TIP3   OH225022   7.184   3.888   6.093
 8360TIP3    H125023   7.253   3.828   6.068
 8360TIP3    H225024   7.226   3.974   6.093
 8361TIP3   OH225025   1.196   3.266   6.208
 8361TIP3    H125026   1.246   3.341   6.175
 8361TIP3    H225027   1.131   3.248   6.140
 8362TIP3   OH225028   0.332   7.064   5.294
 8362TIP3    H125029   0.309   6.980   5.255
 8362TIP3    H225030   0.341   7.124   5.220
 8363TIP3   OH225031   7.992   5.588   4.203
 8363TIP3    H125032   7.975   5.668   4.154
 8363TIP3    H225033   7.908   5.567   4.246
 8364TIP3   OH225034   0.640   0.974   2.171
 8364TIP3    H125035   0.700   1.017   2.109
 8364TIP3    H225036   0.571   1.039   2.187
 8365TIP3   OH225037   7.669   3.183   2.601
 8365TIP3    H125038   7.668   3.118   2.671
 8365TIP3    H225039   7.580   3.216   2.597
 8366TIP3   OH225040   6.101   3.832   4.431
 8366TIP3    H125041   6.032   3.782   4.388
 8366TIP3    H225042   6.074   3.838   4.522
 8367TIP3   OH225043   3.214   5.184   4.977
 8367TIP3    H125044   3.211   5.224   4.891
 8367TIP3    H225045   3.142   5.224   5.025
 8368TIP3   OH225046   7.340   2.535   1.998
 8368TIP3    H125047   7.431   2.560   1.982
 8368TIP3    H225048   7.289   2.610   1.967
 8369TIP3   OH225049   3.627   1.671   0.718
 8369TIP3    H125050   3.683   1.748   0.709
 8369TIP3    H225051   3.577   1.687   0.797
 8370TIP3   OH225052   1.573   4.066   6.032
 8370TIP3    H125053   1.516   4.137   6.002
 8370TIP3    H225054   1.645   4.065   5.969
 8371TIP3   OH225055   6.487   3.232   4.238
 8371TIP3    H125056   6.550   3.181   4.289
 8371TIP3    H225057   6.449   3.293   4.301
 8372TIP3   OH225058   7.295   6.358   5.193
 8372TIP3    H125059   7.255   6.281   5.233
 8372TIP3    H225060   7.227   6.425   5.196
 8373TIP3   OH225061   3.506   3.459   5.114
 8373TIP3    H125062   3.591   3.497   5.137
 8373TIP3    H225063   3.487   3.494   5.027
 8374TIP3   OH225064   7.233   0.027   3.671
 8374TIP3    H125065   7.284   0.105   3.691
 8374TIP3    H225066   7.298  -0.042   3.658
 8375TIP3   OH225067   4.581   3.118   3.426
 8375TIP3    H125068   4.517   3.069   3.478
 8375TIP3    H225069   4.631   3.051   3.380
 8376TIP3   OH225070   5.752   3.468   1.649
 8376TIP3    H125071   5.687   3.508   1.591
 8376TIP3    H225072   5.720   3.486   1.737
 8377TIP3   OH225073   6.535   0.435   4.916
 8377TIP3    H125074   6.565   0.493   4.846
 8377TIP3    H225075   6.615   0.396   4.950
 8378TIP3   OH225076   1.761   0.371   2.133
 8378TIP3    H125077   1.794   0.301   2.190
 8378TIP3    H225078   1.668   0.379   2.156
 8379TIP3   OH225079   2.531   7.687   2.149
 8379TIP3    H125080   2.550   7.596   2.127
 8379TIP3    H225081   2.439   7.698   2.126
 8380TIP3   OH225082   4.874   7.573   5.562
 8380TIP3    H125083   4.841   7.583   5.473
 8380TIP3    H225084   4.962   7.539   5.552
 8381TIP3   OH225085   2.268   4.384   6.492
 8381TIP3    H125086   2.298   4.462   6.539
 8381TIP3    H225087   2.335   4.370   6.425
 8382TIP3   OH225088   7.554   1.768   5.044
 8382TIP3    H125089   7.647   1.751   5.033
 8382TIP3    H225090   7.546   1.804   5.132
 8383TIP3   OH225091   4.790   7.388   1.090
 8383TIP3    H125092   4.696   7.372   1.096
 8383TIP3    H225093   4.798   7.483   1.102
 8384TIP3   OH225094   6.939   0.575   4.255
 8384TIP3    H125095   6.880   0.639   4.296
 8384TIP3    H225096   7.018   0.579   4.309
 8385TIP3   OH225097   6.258   4.469   1.099
 8385TIP3    H125098   6.295   4.470   1.010
 8385TIP3    H225099   6.280   4.555   1.135
 8386TIP3   OH225100   4.875   2.414   4.055
 8386TIP3    H125101   4.925   2.395   3.976
 8386TIP3    H225102   4.919   2.489   4.095
 8387TIP3   OH225103   2.708   6.365   1.453
 8387TIP3    H125104   2.797   6.398   1.461
 8387TIP3    H225105   2.668   6.383   1.539
 8388TIP3   OH225106   2.105   2.615   3.742
 8388TIP3    H125107   2.162   2.649   3.673
 8388TIP3    H225108   2.074   2.531   3.707
 8389TIP3   OH225109   3.595   2.605   4.423
 8389TIP3    H125110   3.648   2.637   4.496
 8389TIP3    H225111   3.645   2.629   4.345
 8390TIP3   OH225112   7.309   5.003   1.139
 8390TIP3    H125113   7.246   5.062   1.097
 8390TIP3    H225114   7.269   4.917   1.131
 8391TIP3   OH225115   4.183   5.003   1.562
 8391TIP3    H125116   4.159   4.911   1.566
 8391TIP3    H225117   4.163   5.037   1.649
 8392TIP3   OH225118   3.205   3.126   2.028
 8392TIP3    H125119   3.239   3.067   1.961
 8392TIP3    H225120   3.153   3.069   2.086
 8393TIP3   OH225121   4.769   4.316   4.544
 8393TIP3    H125122   4.684   4.308   4.500
 8393TIP3    H225123   4.751   4.365   4.624
 8394TIP3   OH225124   5.209   3.737   1.979
 8394TIP3    H125125   5.275   3.774   2.038
 8394TIP3    H225126   5.206   3.798   1.905
 8395TIP3   OH225127   2.609   7.407   2.087
 8395TIP3    H125128   2.623   7.372   1.999
 8395TIP3    H225129   2.565   7.336   2.134
 8396TIP3   OH225130   5.117   6.934   0.371
 8396TIP3    H125131   5.198   6.973   0.339
 8396TIP3    H225132   5.142   6.846   0.398
 8397TIP3   OH225133   6.760   5.581   6.717
 8397TIP3    H125134   6.720   5.512   6.770
 8397TIP3    H225135   6.687   5.621   6.670
 8398TIP3   OH225136   2.798   0.497   4.569
 8398TIP3    H125137   2.888   0.516   4.542
 8398TIP3    H225138   2.758   0.458   4.492
 8399TIP3   OH225139   1.232   4.960   3.111
 8399TIP3    H125140   1.309   4.977   3.056
 8399TIP3    H225141   1.161   4.948   3.049
 8400TIP3   OH225142   1.002   6.631   1.975
 8400TIP3    H125143   0.988   6.645   1.881
 8400TIP3    H225144   1.078   6.573   1.980
 8401TIP3   OH225145   8.251   1.013   4.317
 8401TIP3    H125146   8.221   1.094   4.357
 8401TIP3    H225147   8.316   1.041   4.252
 8402TIP3   OH225148   7.478   6.765   2.461
 8402TIP3    H125149   7.421   6.838   2.486
 8402TIP3    H225150   7.419   6.701   2.421
 8403TIP3   OH225151   5.998   1.339   0.442
 8403TIP3    H125152   5.979   1.378   0.357
 8403TIP3    H225153   6.040   1.256   0.422
 8404TIP3   OH225154   5.952   2.180   2.917
 8404TIP3    H125155   6.018   2.173   2.848
 8404TIP3    H225156   5.999   2.156   2.997
 8405TIP3   OH225157   6.245   6.027   5.228
 8405TIP3    H125158   6.211   6.073   5.304
 8405TIP3    H225159   6.258   5.937   5.258
 8406TIP3   OH225160   4.169   3.667   6.074
 8406TIP3    H125161   4.164   3.610   6.150
 8406TIP3    H225162   4.182   3.607   6.000
 8407TIP3   OH225163   3.505   4.402   0.678
 8407TIP3    H125164   3.525   4.353   0.599
 8407TIP3    H225165   3.411   4.421   0.671
 8408TIP3   OH225166   4.272   7.092   3.842
 8408TIP3    H125167   4.240   7.129   3.924
 8408TIP3    H225168   4.246   7.154   3.775
 8409TIP3   OH225169   3.603   0.857   4.471
 8409TIP3    H125170   3.676   0.911   4.441
 8409TIP3    H225171   3.525   0.898   4.433
 8410TIP3   OH225172   6.305   0.685   2.763
 8410TIP3    H125173   6.246   0.631   2.710
 8410TIP3    H225174   6.298   0.648   2.851
 8411TIP3   OH225175   2.568   7.415   5.487
 8411TIP3    H125176   2.658   7.412   5.518
 8411TIP3    H225177   2.540   7.323   5.486
 8412TIP3   OH225178   8.172   3.976   6.578
 8412TIP3    H125179   8.199   3.917   6.649
 8412TIP3    H225180   8.217   3.942   6.501
 8413TIP3   OH225181   0.045   2.603   3.880
 8413TIP3    H125182   0.123   2.643   3.919
 8413TIP3    H225183  -0.024   2.668   3.891
 8414TIP3   OH225184   3.010   7.501   0.331
 8414TIP3    H125185   2.919   7.488   0.359
 8414TIP3    H225186   3.029   7.592   0.353
 8415TIP3   OH225187   2.222   0.952   4.733
 8415TIP3    H125188   2.177   0.946   4.649
 8415TIP3    H225189   2.154   0.975   4.796
 8416TIP3   OH225190   8.216   6.201   2.383
 8416TIP3    H125191   8.195   6.287   2.419
 8416TIP3    H225192   8.299   6.177   2.425
 8417TIP3   OH225193   7.146   6.167   5.323
 8417TIP3    H125194   7.098   6.118   5.256
 8417TIP3    H225195   7.084   6.176   5.395
 8418TIP3   OH225196   6.539   7.370   2.388
 8418TIP3    H125197   6.634   7.363   2.398
 8418TIP3    H225198   6.515   7.446   2.440
 8419TIP3   OH225199   0.307   3.681   2.676
 8419TIP3    H125200   0.343   3.660   2.762
 8419TIP3    H225201   0.216   3.652   2.681
 8420TIP3   OH225202   6.595   6.898   5.695
 8420TIP3    H125203   6.649   6.884   5.773
 8420TIP3    H225204   6.654   6.938   5.631
 8421TIP3   OH225205   5.975   2.755   1.143
 8421TIP3    H125206   6.066   2.763   1.171
 8421TIP3    H225207   5.972   2.673   1.093
 8422TIP3   OH225208   6.316   0.633   2.225
 8422TIP3    H125209   6.283   0.656   2.138
 8422TIP3    H225210   6.410   0.648   2.219
 8423TIP3   OH225211   5.692   4.833   1.171
 8423TIP3    H125212   5.724   4.918   1.141
 8423TIP3    H225213   5.694   4.840   1.266
 8424TIP3   OH225214   5.189   3.995   6.240
 8424TIP3    H125215   5.110   3.977   6.189
 8424TIP3    H225216   5.181   3.941   6.318
 8425TIP3   OH225217   1.509   6.273   6.122
 8425TIP3    H125218   1.514   6.178   6.113
 8425TIP3    H225219   1.532   6.289   6.214
 8426TIP3   OH225220   0.235   6.898   3.094
 8426TIP3    H125221   0.319   6.865   3.062
 8426TIP3    H225222   0.169   6.845   3.050
 8427TIP3   OH225223   1.318   0.241   5.205
 8427TIP3    H125224   1.405   0.275   5.180
 8427TIP3    H225225   1.271   0.233   5.123
 8428TIP3   OH225226   4.877   0.111   0.226
 8428TIP3    H125227   4.857   0.189   0.277
 8428TIP3    H225228   4.882   0.142   0.135
 8429TIP3   OH225229   7.987   4.813   4.669
 8429TIP3    H125230   8.058   4.776   4.617
 8429TIP3    H225231   7.974   4.750   4.740
 8430TIP3   OH225232   1.358   5.865   1.288
 8430TIP3    H125233   1.314   5.942   1.325
 8430TIP3    H225234   1.388   5.815   1.364
 8431TIP3   OH225235   0.061   2.428   3.671
 8431TIP3    H125236   0.067   2.510   3.720
 8431TIP3    H225237   0.031   2.364   3.737
 8432TIP3   OH225238   7.753   3.603   0.407
 8432TIP3    H125239   7.711   3.668   0.464
 8432TIP3    H225240   7.823   3.566   0.461
 8433TIP3   OH225241   1.816   5.410   5.698
 8433TIP3    H125242   1.884   5.425   5.632
 8433TIP3    H225243   1.788   5.498   5.724
 8434TIP3   OH225244   5.780   0.675   5.396
 8434TIP3    H125245   5.859   0.640   5.436
 8434TIP3    H225246   5.801   0.766   5.377
 8435TIP3   OH225247   5.286   5.547   2.867
 8435TIP3    H125248   5.254   5.635   2.849
 8435TIP3    H225249   5.379   5.558   2.885
 8436TIP3   OH225250   2.678   5.147   1.373
 8436TIP3    H125251   2.667   5.052   1.359
 8436TIP3    H225252   2.767   5.156   1.405
 8437TIP3   OH225253   0.402   2.727   6.492
 8437TIP3    H125254   0.357   2.811   6.500
 8437TIP3    H225255   0.336   2.668   6.454
 8438TIP3   OH225256   0.162   7.176   2.097
 8438TIP3    H125257   0.233   7.193   2.036
 8438TIP3    H225258   0.094   7.135   2.043
 8439TIP3   OH225259   2.525   2.096   2.068
 8439TIP3    H125260   2.553   2.078   2.158
 8439TIP3    H225261   2.477   2.179   2.073
 8440TIP3   OH225262   5.927   4.919   2.875
 8440TIP3    H125263   5.858   4.870   2.921
 8440TIP3    H225264   6.007   4.901   2.924
 8441TIP3   OH225265   2.410   3.632   6.488
 8441TIP3    H125266   2.348   3.624   6.416
 8441TIP3    H225267   2.459   3.712   6.469
 8442TIP3   OH225268   7.293   3.412   0.211
 8442TIP3    H125269   7.237   3.381   0.283
 8442TIP3    H225270   7.380   3.420   0.249
 8443TIP3   OH225271   1.443   4.586   0.547
 8443TIP3    H125272   1.414   4.506   0.591
 8443TIP3    H225273   1.438   4.653   0.615
 8444TIP3   OH225274   4.303   3.213   0.968
 8444TIP3    H125275   4.337   3.205   1.058
 8444TIP3    H225276   4.371   3.261   0.921
 8445TIP3   OH225277   7.894   0.881   5.505
 8445TIP3    H125278   7.806   0.918   5.499
 8445TIP3    H225279   7.947   0.949   5.545
 8446TIP3   OH225280   5.988   6.967   6.116
 8446TIP3    H125281   6.007   7.047   6.067
 8446TIP3    H225282   5.894   6.952   6.103
 8447TIP3   OH225283   0.203   5.231   3.982
 8447TIP3    H125284   0.250   5.253   3.901
 8447TIP3    H225285   0.174   5.141   3.969
 8448TIP3   OH225286   5.224   7.796   0.128
 8448TIP3    H125287   5.211   7.851   0.205
 8448TIP3    H225288   5.143   7.803   0.079
 8449TIP3   OH225289   3.348   5.883   1.385
 8449TIP3    H125290   3.402   5.805   1.373
 8449TIP3    H225291   3.259   5.854   1.365
 8450TIP3   OH225292   7.334   5.178   1.769
 8450TIP3    H125293   7.272   5.108   1.787
 8450TIP3    H225294   7.420   5.140   1.784
 8451TIP3   OH225295   4.052   6.310   2.403
 8451TIP3    H125296   4.027   6.398   2.431
 8451TIP3    H225297   3.970   6.261   2.401
 8452TIP3   OH225298   4.718   5.355   5.256
 8452TIP3    H125299   4.674   5.407   5.323
 8452TIP3    H225300   4.753   5.419   5.194
 8453TIP3   OH225301   3.399   5.982   0.989
 8453TIP3    H125302   3.317   5.979   1.040
 8453TIP3    H225303   3.467   6.001   1.054
 8454TIP3   OH225304   7.170   4.944   5.644
 8454TIP3    H125305   7.204   5.014   5.588
 8454TIP3    H225306   7.084   4.976   5.672
 8455TIP3   OH225307   2.315   1.859   6.078
 8455TIP3    H125308   2.379   1.788   6.089
 8455TIP3    H225309   2.350   1.911   6.006
 8456TIP3   OH225310   1.525   0.573   0.128
 8456TIP3    H125311   1.524   0.651   0.184
 8456TIP3    H225312   1.433   0.545   0.125
 8457TIP3   OH225313   2.129   1.241   0.518
 8457TIP3    H125314   2.144   1.296   0.595
 8457TIP3    H225315   2.107   1.304   0.449
 8458TIP3   OH225316   0.357   6.175   1.983
 8458TIP3    H125317   0.270   6.206   2.007
 8458TIP3    H225318   0.360   6.085   2.014
 8459TIP3   OH225319   2.311   7.086   0.168
 8459TIP3    H125320   2.223   7.121   0.176
 8459TIP3    H225321   2.363   7.136   0.231
 8460TIP3   OH225322   1.261   5.951   3.533
 8460TIP3    H125323   1.193   5.906   3.483
 8460TIP3    H225324   1.213   6.006   3.595
 8461TIP3   OH225325   5.322   3.193   2.599
 8461TIP3    H125326   5.313   3.138   2.677
 8461TIP3    H225327   5.244   3.174   2.547
 8462TIP3   OH225328   6.401   7.678   0.004
 8462TIP3    H125329   6.364   7.766  -0.007
 8462TIP3    H225330   6.325   7.620   0.011
 8463TIP3   OH225331   1.204   2.482   4.215
 8463TIP3    H125332   1.253   2.414   4.169
 8463TIP3    H225333   1.270   2.536   4.258
 8464TIP3   OH225334   1.518   6.117   1.171
 8464TIP3    H125335   1.527   6.054   1.099
 8464TIP3    H225336   1.574   6.190   1.146
 8465TIP3   OH225337   7.833   1.287   5.025
 8465TIP3    H125338   7.770   1.348   4.986
 8465TIP3    H225339   7.821   1.297   5.119
 8466TIP3   OH225340   5.296   7.558   5.134
 8466TIP3    H125341   5.335   7.609   5.206
 8466TIP3    H225342   5.365   7.497   5.108
 8467TIP3   OH225343   0.416   5.986   3.957
 8467TIP3    H125344   0.386   6.048   4.024
 8467TIP3    H225345   0.339   5.933   3.936
 8468TIP3   OH225346   4.504   4.471   0.257
 8468TIP3    H125347   4.575   4.530   0.283
 8468TIP3    H225348   4.430   4.496   0.313
 8469TIP3   OH225349   7.231   2.302   1.581
 8469TIP3    H125350   7.183   2.262   1.509
 8469TIP3    H225351   7.184   2.274   1.659
 8470TIP3   OH225352   1.374   0.020   3.701
 8470TIP3    H125353   1.358   0.114   3.707
 8470TIP3    H225354   1.406   0.006   3.611
 8471TIP3   OH225355   1.293   7.710   4.424
 8471TIP3    H125356   1.360   7.644   4.407
 8471TIP3    H225357   1.341   7.783   4.465
 8472TIP3   OH225358   7.416   5.193   5.233
 8472TIP3    H125359   7.352   5.185   5.163
 8472TIP3    H225360   7.434   5.102   5.259
 8473TIP3   OH225361   3.402   1.892   3.632
 8473TIP3    H125362   3.493   1.880   3.658
 8473TIP3    H225363   3.353   1.831   3.686
 8474TIP3   OH225364   1.243   4.721   0.206
 8474TIP3    H125365   1.237   4.809   0.243
 8474TIP3    H225366   1.153   4.688   0.206
 8475TIP3   OH225367   5.073   5.068   3.428
 8475TIP3    H125368   4.992   5.112   3.455
 8475TIP3    H225369   5.060   5.050   3.335
 8476TIP3   OH225370   0.657   7.622   6.090
 8476TIP3    H125371   0.654   7.580   6.005
 8476TIP3    H225372   0.591   7.577   6.142
 8477TIP3   OH225373   1.349   0.914   2.102
 8477TIP3    H125374   1.287   0.946   2.169
 8477TIP3    H225375   1.415   0.865   2.151
 8478TIP3   OH225376   7.920   7.093   2.729
 8478TIP3    H125377   7.837   7.128   2.762
 8478TIP3    H225378   7.935   7.014   2.781
 8479TIP3   OH225379   1.320   0.206   0.774
 8479TIP3    H125380   1.247   0.254   0.734
 8479TIP3    H225381   1.303   0.211   0.868
 8480TIP3   OH225382   6.042   0.032   4.596
 8480TIP3    H125383   6.050   0.077   4.512
 8480TIP3    H225384   6.129   0.041   4.635
 8481TIP3   OH225385   3.573   7.375   2.991
 8481TIP3    H125386   3.665   7.390   3.014
 8481TIP3    H225387   3.544   7.309   3.053
 8482TIP3   OH225388   4.306   6.572   4.728
 8482TIP3    H125389   4.218   6.578   4.765
 8482TIP3    H225390   4.347   6.500   4.775
 8483TIP3   OH225391   7.256   7.208   3.996
 8483TIP3    H125392   7.342   7.244   4.019
 8483TIP3    H225393   7.274   7.116   3.974
 8484TIP3   OH225394   5.809   5.876   3.519
 8484TIP3    H125395   5.853   5.874   3.434
 8484TIP3    H225396   5.775   5.787   3.530
 8485TIP3   OH225397   0.885   3.190   1.055
 8485TIP3    H125398   0.935   3.263   1.018
 8485TIP3    H225399   0.926   3.172   1.139
 8486TIP3   OH225400   2.150   1.329   4.868
 8486TIP3    H125401   2.240   1.317   4.838
 8486TIP3    H225402   2.147   1.419   4.900
 8487TIP3   OH225403   7.619   6.914   5.925
 8487TIP3    H125404   7.575   6.833   5.898
 8487TIP3    H225405   7.552   6.981   5.921
 8488TIP3   OH225406   7.467   6.336   0.656
 8488TIP3    H125407   7.516   6.290   0.724
 8488TIP3    H225408   7.375   6.326   0.683
 8489TIP3   OH225409   2.365   6.951   4.151
 8489TIP3    H125410   2.433   7.003   4.108
 8489TIP3    H225411   2.397   6.938   4.241
 8490TIP3   OH225412   0.191   7.576   2.023
 8490TIP3    H125413   0.196   7.668   1.997
 8490TIP3    H225414   0.101   7.551   2.003
 8491TIP3   OH225415   0.146   1.138   1.260
 8491TIP3    H125416   0.121   1.095   1.178
 8491TIP3    H225417   0.215   1.199   1.235
 8492TIP3   OH225418   4.679   5.693   5.647
 8492TIP3    H125419   4.632   5.776   5.653
 8492TIP3    H225420   4.769   5.715   5.671
 8493TIP3   OH225421   7.485   5.970   6.499
 8493TIP3    H125422   7.559   5.948   6.556
 8493TIP3    H225423   7.443   5.886   6.481
 8494TIP3   OH225424   6.438   1.331   1.697
 8494TIP3    H125425   6.514   1.273   1.698
 8494TIP3    H225426   6.407   1.331   1.788
 8495TIP3   OH225427   3.233   0.576   3.760
 8495TIP3    H125428   3.196   0.661   3.785
 8495TIP3    H225429   3.291   0.553   3.832
 8496TIP3   OH225430   3.984   1.035   2.339
 8496TIP3    H125431   3.931   1.113   2.346
 8496TIP3    H225432   4.013   1.018   2.428
 8497TIP3   OH225433   7.456   2.928   3.873
 8497TIP3    H125434   7.388   2.996   3.869
 8497TIP3    H225435   7.409   2.847   3.848
 8498TIP3   OH225436   2.063   3.253   3.639
 8498TIP3    H125437   2.077   3.159   3.627
 8498TIP3    H225438   2.132   3.281   3.698
 8499TIP3   OH225439   2.945   5.252   4.673
 8499TIP3    H125440   3.032   5.289   4.687
 8499TIP3    H225441   2.925   5.204   4.753
 8500TIP3   OH225442   7.153   3.720   2.327
 8500TIP3    H125443   7.209   3.690   2.398
 8500TIP3    H225444   7.176   3.665   2.253
 8501TIP3   OH225445   5.107   2.847   2.473
 8501TIP3    H125446   5.177   2.820   2.533
 8501TIP3    H225447   5.069   2.765   2.442
 8502TIP3   OH225448   1.454   1.381   3.744
 8502TIP3    H125449   1.513   1.406   3.815
 8502TIP3    H225450   1.369   1.416   3.770
 8503TIP3   OH225451   3.675   0.581   4.438
 8503TIP3    H125452   3.665   0.619   4.351
 8503TIP3    H225453   3.672   0.656   4.498
 8504TIP3   OH225454   1.830   1.042   1.182
 8504TIP3    H125455   1.920   1.041   1.147
 8504TIP3    H225456   1.780   0.988   1.120
 8505TIP3   OH225457   6.617   2.216   3.269
 8505TIP3    H125458   6.690   2.278   3.270
 8505TIP3    H225459   6.659   2.131   3.254
 8506TIP3   OH225460   6.576   7.041   4.072
 8506TIP3    H125461   6.595   7.083   3.989
 8506TIP3    H225462   6.651   7.063   4.128
 8507TIP3   OH225463   3.136   0.605   2.990
 8507TIP3    H125464   3.160   0.524   3.034
 8507TIP3    H225465   3.127   0.581   2.898
 8508TIP3   OH225466   4.802   4.364   6.573
 8508TIP3    H125467   4.796   4.459   6.557
 8508TIP3    H225468   4.879   4.337   6.524
 8509TIP3   OH225469   4.245   6.697   2.360
 8509TIP3    H125470   4.297   6.756   2.306
 8509TIP3    H225471   4.155   6.713   2.334
 8510TIP3   OH225472   0.827   6.569   5.767
 8510TIP3    H125473   0.841   6.521   5.685
 8510TIP3    H225474   0.891   6.533   5.828
 8511TIP3   OH225475   7.927   7.675   2.197
 8511TIP3    H125476   7.952   7.767   2.199
 8511TIP3    H225477   7.992   7.631   2.251
 8512TIP3   OH225478   4.124   6.608   2.122
 8512TIP3    H125479   4.058   6.636   2.186
 8512TIP3    H225480   4.133   6.682   2.063
 8513TIP3   OH225481   3.944   4.890   0.321
 8513TIP3    H125482   3.875   4.866   0.383
 8513TIP3    H225483   3.909   4.964   0.272
 8514TIP3   OH225484   1.290   0.511   3.848
 8514TIP3    H125485   1.261   0.420   3.838
 8514TIP3    H225486   1.381   0.511   3.818
 8515TIP3   OH225487   2.064   5.650   0.493
 8515TIP3    H125488   2.028   5.658   0.405
 8515TIP3    H225489   2.001   5.595   0.540
 8516TIP3   OH225490   0.382   5.996   1.210
 8516TIP3    H125491   0.410   5.941   1.137
 8516TIP3    H225492   0.406   5.945   1.288
 8517TIP3   OH225493   5.901   1.629   2.755
 8517TIP3    H125494   5.870   1.642   2.844
 8517TIP3    H225495   5.940   1.713   2.730
 8518TIP3   OH225496   0.174   3.416   5.050
 8518TIP3    H125497   0.151   3.331   5.087
 8518TIP3    H225498   0.206   3.468   5.124
 8519TIP3   OH225499   3.052   6.690   1.756
 8519TIP3    H125500   2.981   6.741   1.796
 8519TIP3    H225501   3.060   6.727   1.668
 8520TIP3   OH225502   0.500   6.250   5.398
 8520TIP3    H125503   0.417   6.260   5.351
 8520TIP3    H225504   0.530   6.162   5.373
 8521TIP3   OH225505   5.879   4.402   0.702
 8521TIP3    H125506   5.928   4.470   0.749
 8521TIP3    H225507   5.935   4.380   0.627
 8522TIP3   OH225508   4.584   0.216   3.852
 8522TIP3    H125509   4.626   0.130   3.852
 8522TIP3    H225510   4.599   0.250   3.764
 8523TIP3   OH225511   7.106   0.143   6.195
 8523TIP3    H125512   7.012   0.155   6.189
 8523TIP3    H225513   7.122   0.055   6.162
 8524TIP3   OH225514   0.711   7.331   0.250
 8524TIP3    H125515   0.633   7.366   0.292
 8524TIP3    H225516   0.779   7.396   0.266
 8525TIP3   OH225517   1.981   1.528   4.369
 8525TIP3    H125518   1.893   1.504   4.398
 8525TIP3    H225519   2.022   1.569   4.445
 8526TIP3   OH225520   2.220   6.145   5.476
 8526TIP3    H125521   2.156   6.141   5.547
 8526TIP3    H225522   2.299   6.106   5.513
 8527TIP3   OH225523   7.982   5.707   1.189
 8527TIP3    H125524   7.970   5.705   1.094
 8527TIP3    H225525   7.992   5.614   1.213
 8528TIP3   OH225526   4.084   4.851   2.039
 8528TIP3    H125527   4.000   4.818   2.070
 8528TIP3    H225528   4.132   4.772   2.012
 8529TIP3   OH225529   6.847   0.964   4.020
 8529TIP3    H125530   6.882   0.995   4.103
 8529TIP3    H225531   6.921   0.920   3.978
 8530TIP3   OH225532   1.255   4.382   2.885
 8530TIP3    H125533   1.193   4.316   2.856
 8530TIP3    H225534   1.202   4.461   2.896
 8531TIP3   OH225535   6.126   0.156   0.578
 8531TIP3    H125536   6.112   0.105   0.498
 8531TIP3    H225537   6.039   0.158   0.620
 8532TIP3   OH225538   2.742   5.721   6.281
 8532TIP3    H125539   2.683   5.665   6.332
 8532TIP3    H225540   2.755   5.674   6.199
 8533TIP3   OH225541   1.546   6.549   4.353
 8533TIP3    H125542   1.604   6.504   4.414
 8533TIP3    H225543   1.481   6.592   4.408
 8534TIP3   OH225544   0.531   7.016   2.252
 8534TIP3    H125545   0.478   6.961   2.195
 8534TIP3    H225546   0.606   6.962   2.276
 8535TIP3   OH225547   2.270   5.496   2.353
 8535TIP3    H125548   2.275   5.560   2.424
 8535TIP3    H225549   2.234   5.418   2.394
 8536TIP3   OH225550   1.060   6.161   4.938
 8536TIP3    H125551   1.119   6.219   4.987
 8536TIP3    H225552   1.037   6.212   4.860
 8537TIP3   OH225553   4.595   4.861   1.619
 8537TIP3    H125554   4.543   4.942   1.615
 8537TIP3    H225555   4.561   4.807   1.547
 8538TIP3   OH225556   0.777   6.636   0.851
 8538TIP3    H125557   0.767   6.707   0.788
 8538TIP3    H225558   0.734   6.561   0.810
 8539TIP3   OH225559   1.013   6.327   3.640
 8539TIP3    H125560   0.941   6.329   3.704
 8539TIP3    H225561   1.074   6.263   3.675
 8540TIP3   OH225562   1.403   3.164   5.160
 8540TIP3    H125563   1.395   3.072   5.137
 8540TIP3    H225564   1.352   3.174   5.241
 8541TIP3   OH225565   5.554   7.335   5.382
 8541TIP3    H125566   5.580   7.419   5.419
 8541TIP3    H225567   5.592   7.335   5.294
 8542TIP3   OH225568   6.851   2.692   3.619
 8542TIP3    H125569   6.831   2.780   3.586
 8542TIP3    H225570   6.906   2.653   3.551
 8543TIP3   OH225571   4.058   6.299   4.403
 8543TIP3    H125572   3.979   6.263   4.443
 8543TIP3    H225573   4.031   6.320   4.313
 8544TIP3   OH225574   6.609   2.142   3.534
 8544TIP3    H125575   6.596   2.161   3.441
 8544TIP3    H225576   6.642   2.224   3.571
 8545TIP3   OH225577   2.558   2.782   3.640
 8545TIP3    H125578   2.568   2.870   3.677
 8545TIP3    H225579   2.577   2.794   3.547
 8546TIP3   OH225580   1.940   1.665   3.550
 8546TIP3    H125581   1.875   1.628   3.490
 8546TIP3    H225582   1.990   1.727   3.497
 8547TIP3   OH225583   2.048   4.073   3.770
 8547TIP3    H125584   2.096   4.146   3.731
 8547TIP3    H225585   1.967   4.068   3.719
 8548TIP3   OH225586   5.443   6.724   4.227
 8548TIP3    H125587   5.438   6.811   4.267
 8548TIP3    H225588   5.360   6.682   4.251
 8549TIP3   OH225589   5.897   2.974   4.705
 8549TIP3    H125590   5.987   2.966   4.737
 8549TIP3    H225591   5.899   3.052   4.649
 8550TIP3   OH225592   6.754   5.728   0.421
 8550TIP3    H125593   6.708   5.807   0.395
 8550TIP3    H225594   6.694   5.657   0.400
 8551TIP3   OH225595   1.819   1.040   2.585
 8551TIP3    H125596   1.728   1.020   2.610
 8551TIP3    H225597   1.859   1.071   2.667
 8552TIP3   OH225598   8.200   2.324   2.384
 8552TIP3    H125599   8.249   2.405   2.392
 8552TIP3    H225600   8.201   2.287   2.473
 8553TIP3   OH225601   4.301   2.779   2.319
 8553TIP3    H125602   4.214   2.815   2.336
 8553TIP3    H225603   4.291   2.726   2.240
 8554TIP3   OH225604   1.072   2.597   6.535
 8554TIP3    H125605   1.121   2.524   6.496
 8554TIP3    H225606   1.088   2.670   6.475
 8555TIP3   OH225607   4.239   0.207   3.159
 8555TIP3    H125608   4.271   0.142   3.223
 8555TIP3    H225609   4.148   0.181   3.143
 8556TIP3   OH225610   6.552   6.987   1.858
 8556TIP3    H125611   6.487   7.053   1.882
 8556TIP3    H225612   6.572   6.942   1.940
 8557TIP3   OH225613   4.577   4.689   5.514
 8557TIP3    H125614   4.600   4.654   5.428
 8557TIP3    H225615   4.619   4.775   5.517
 8558TIP3   OH225616   0.522   2.179   4.371
 8558TIP3    H125617   0.492   2.162   4.281
 8558TIP3    H225618   0.526   2.274   4.377
 8559TIP3   OH225619   7.253   6.828   1.302
 8559TIP3    H125620   7.166   6.798   1.325
 8559TIP3    H225621   7.306   6.749   1.297
 8560TIP3   OH225622   0.054   4.221   3.462
 8560TIP3    H125623  -0.035   4.228   3.429
 8560TIP3    H225624   0.069   4.305   3.507
 8561TIP3   OH225625   5.239   7.009   5.451
 8561TIP3    H125626   5.156   7.040   5.416
 8561TIP3    H225627   5.295   7.086   5.453
 8562TIP3   OH225628   0.766   7.601   1.314
 8562TIP3    H125629   0.766   7.527   1.253
 8562TIP3    H225630   0.840   7.585   1.372
 8563TIP3   OH225631   7.842   4.793   3.320
 8563TIP3    H125632   7.806   4.879   3.342
 8563TIP3    H225633   7.884   4.806   3.235
 8564TIP3   OH225634   7.815   5.782   5.033
 8564TIP3    H125635   7.872   5.838   4.980
 8564TIP3    H225636   7.863   5.771   5.116
 8565TIP3   OH225637   3.728   5.871   1.201
 8565TIP3    H125638   3.709   5.958   1.237
 8565TIP3    H225639   3.726   5.884   1.106
 8566TIP3   OH225640   0.230   1.881   6.253
 8566TIP3    H125641   0.273   1.800   6.226
 8566TIP3    H225642   0.145   1.852   6.286
 8567TIP3   OH225643   7.624   5.584   4.519
 8567TIP3    H125644   7.656   5.604   4.607
 8567TIP3    H225645   7.642   5.663   4.468
 8568TIP3   OH225646   1.274   1.632   5.162
 8568TIP3    H125647   1.207   1.656   5.099
 8568TIP3    H225648   1.301   1.715   5.202
 8569TIP3   OH225649   3.727   6.271   3.265
 8569TIP3    H125650   3.785   6.196   3.275
 8569TIP3    H225651   3.775   6.331   3.207
 8570TIP3   OH225652   2.444   1.591   4.263
 8570TIP3    H125653   2.379   1.622   4.200
 8570TIP3    H225654   2.507   1.663   4.269
 8571TIP3   OH225655   1.652   6.889   2.409
 8571TIP3    H125656   1.655   6.883   2.313
 8571TIP3    H225657   1.729   6.840   2.438
 8572TIP3   OH225658   4.238   4.914   6.478
 8572TIP3    H125659   4.280   4.917   6.564
 8572TIP3    H225660   4.260   4.827   6.444
 8573TIP3   OH225661   8.138   1.990   5.684
 8573TIP3    H125662   8.204   2.044   5.729
 8573TIP3    H225663   8.175   1.902   5.685
 8574TIP3   OH225664   1.926   2.828   4.303
 8574TIP3    H125665   1.935   2.757   4.366
 8574TIP3    H225666   1.866   2.890   4.345
 8575TIP3   OH225667   6.866   4.373   1.470
 8575TIP3    H125668   6.861   4.310   1.398
 8575TIP3    H225669   6.810   4.445   1.443
 8576TIP3   OH225670   3.875   6.337   3.792
 8576TIP3    H125671   3.827   6.376   3.719
 8576TIP3    H225672   3.950   6.395   3.804
 8577TIP3   OH225673   2.467   6.582   3.766
 8577TIP3    H125674   2.371   6.585   3.760
 8577TIP3    H225675   2.495   6.537   3.687
 8578TIP3   OH225676   6.354   7.129   3.529
 8578TIP3    H125677   6.402   7.084   3.459
 8578TIP3    H225678   6.277   7.075   3.544
 8579TIP3   OH225679   5.147   4.659   2.207
 8579TIP3    H125680   5.066   4.707   2.192
 8579TIP3    H225681   5.184   4.699   2.286
 8580TIP3   OH225682   1.768   6.055   6.399
 8580TIP3    H125683   1.736   5.967   6.418
 8580TIP3    H225684   1.689   6.110   6.403
 8581TIP3   OH225685   5.800   7.234   2.380
 8581TIP3    H125686   5.840   7.318   2.403
 8581TIP3    H225687   5.771   7.197   2.463
 8582TIP3   OH225688   0.355   4.023   4.360
 8582TIP3    H125689   0.420   4.068   4.415
 8582TIP3    H225690   0.303   3.973   4.423
 8583TIP3   OH225691   5.100   1.591   0.148
 8583TIP3    H125692   5.177   1.570   0.094
 8583TIP3    H225693   5.054   1.508   0.158
 8584TIP3   OH225694   2.085   4.022   2.540
 8584TIP3    H125695   2.025   3.971   2.485
 8584TIP3    H225696   2.167   3.974   2.536
 8585TIP3   OH225697   2.230   2.843   4.615
 8585TIP3    H125698   2.249   2.892   4.535
 8585TIP3    H225699   2.135   2.840   4.619
 8586TIP3   OH225700   8.188   6.634   4.808
 8586TIP3    H125701   8.176   6.695   4.735
 8586TIP3    H225702   8.143   6.554   4.780
 8587TIP3   OH225703   1.975   1.251   4.033
 8587TIP3    H125704   1.940   1.210   4.112
 8587TIP3    H225705   1.915   1.223   3.963
 8588TIP3   OH225706   1.287   7.716   4.149
 8588TIP3    H125707   1.250   7.635   4.114
 8588TIP3    H225708   1.257   7.718   4.240
 8589TIP3   OH225709   5.354   3.872   2.183
 8589TIP3    H125710   5.293   3.919   2.240
 8589TIP3    H225711   5.437   3.917   2.196
 8590TIP3   OH225712   1.393   6.312   1.590
 8590TIP3    H125713   1.370   6.402   1.566
 8590TIP3    H225714   1.378   6.309   1.685
 8591TIP3   OH225715   8.265   7.672   0.865
 8591TIP3    H125716   8.314   7.685   0.783
 8591TIP3    H225717   8.316   7.720   0.930
 8592TIP3   OH225718   1.091   4.720   1.439
 8592TIP3    H125719   1.142   4.681   1.510
 8592TIP3    H225720   1.014   4.664   1.430
 8593TIP3   OH225721   4.846   2.512   1.946
 8593TIP3    H125722   4.796   2.489   1.868
 8593TIP3    H225723   4.826   2.604   1.961
 8594TIP3   OH225724   0.802   3.125   2.622
 8594TIP3    H125725   0.737   3.162   2.563
 8594TIP3    H225726   0.757   3.052   2.664
 8595TIP3   OH225727   1.955   5.118   6.328
 8595TIP3    H125728   2.048   5.129   6.349
 8595TIP3    H225729   1.909   5.171   6.392
 8596TIP3   OH225730   6.308   6.275   5.412
 8596TIP3    H125731   6.225   6.229   5.424
 8596TIP3    H225732   6.285   6.368   5.416
 8597TIP3   OH225733   5.455   0.676   1.342
 8597TIP3    H125734   5.468   0.582   1.359
 8597TIP3    H225735   5.501   0.720   1.413
 8598TIP3   OH225736   1.235   3.228   1.421
 8598TIP3    H125737   1.208   3.215   1.512
 8598TIP3    H225738   1.174   3.175   1.370
 8599TIP3   OH225739   7.244   1.649   1.648
 8599TIP3    H125740   7.306   1.688   1.710
 8599TIP3    H225741   7.184   1.599   1.703
 8600TIP3   OH225742   2.403   7.629   5.121
 8600TIP3    H125743   2.344   7.648   5.048
 8600TIP3    H225744   2.412   7.712   5.167
 8601TIP3   OH225745   1.909   5.637   5.215
 8601TIP3    H125746   1.946   5.612   5.300
 8601TIP3    H225747   1.821   5.668   5.235
 8602TIP3   OH225748   3.987   1.454   2.305
 8602TIP3    H125749   3.921   1.385   2.313
 8602TIP3    H225750   3.939   1.536   2.319
 8603TIP3   OH225751   1.796   1.142   1.842
 8603TIP3    H125752   1.841   1.114   1.762
 8603TIP3    H225753   1.787   1.062   1.893
 8604TIP3   OH225754   1.950   2.975   4.578
 8604TIP3    H125755   2.013   3.039   4.611
 8604TIP3    H225756   1.875   3.027   4.551
 8605TIP3   OH225757   0.244   2.618   3.157
 8605TIP3    H125758   0.335   2.594   3.140
 8605TIP3    H225759   0.224   2.685   3.091
 8606TIP3   OH225760   1.239   0.865   5.236
 8606TIP3    H125761   1.334   0.879   5.233
 8606TIP3    H225762   1.219   0.853   5.329
 8607TIP3   OH225763   3.795   2.302   1.668
 8607TIP3    H125764   3.837   2.220   1.696
 8607TIP3    H225765   3.744   2.278   1.591
 8608TIP3   OH225766   4.322   0.993   5.234
 8608TIP3    H125767   4.333   1.087   5.221
 8608TIP3    H225768   4.234   0.984   5.271
 8609TIP3   OH225769   2.949   0.958   4.844
 8609TIP3    H125770   2.920   0.958   4.935
 8609TIP3    H225771   2.873   0.985   4.794
 8610TIP3   OH225772   5.046   1.617   6.655
 8610TIP3    H125773   4.973   1.628   6.593
 8610TIP3    H225774   5.021   1.671   6.730
 8611TIP3   OH225775   3.171   3.073   5.034
 8611TIP3    H125776   3.258   3.111   5.020
 8611TIP3    H225777   3.130   3.130   5.099
 8612TIP3   OH225778   1.284   6.178   3.720
 8612TIP3    H125779   1.276   6.268   3.751
 8612TIP3    H225780   1.236   6.126   3.785
 8613TIP3   OH225781   7.378   1.489   0.810
 8613TIP3    H125782   7.328   1.459   0.885
 8613TIP3    H225783   7.314   1.494   0.739
 8614TIP3   OH225784   0.126   4.791   1.925
 8614TIP3    H125785   0.215   4.817   1.900
 8614TIP3    H225786   0.083   4.874   1.947
 8615TIP3   OH225787   3.897   6.879   1.770
 8615TIP3    H125788   3.805   6.853   1.769
 8615TIP3    H225789   3.895   6.975   1.767
 8616TIP3   OH225790   6.836   6.844   3.865
 8616TIP3    H125791   6.842   6.932   3.904
 8616TIP3    H225792   6.748   6.841   3.828
 8617TIP3   OH225793   5.652   5.419   4.976
 8617TIP3    H125794   5.726   5.449   4.924
 8617TIP3    H225795   5.575   5.446   4.926
 8618TIP3   OH225796   6.342   6.372   2.089
 8618TIP3    H125797   6.312   6.332   2.007
 8618TIP3    H225798   6.436   6.382   2.078
 8619TIP3   OH225799   1.652   4.637   2.649
 8619TIP3    H125800   1.736   4.603   2.682
 8619TIP3    H225801   1.587   4.575   2.682
 8620TIP3   OH225802   3.695   6.312   1.952
 8620TIP3    H125803   3.675   6.219   1.965
 8620TIP3    H225804   3.613   6.357   1.973
 8621TIP3   OH225805   5.546   0.459   2.357
 8621TIP3    H125806   5.460   0.469   2.318
 8621TIP3    H225807   5.530   0.459   2.451
 8622TIP3   OH225808   1.456   1.554   4.193
 8622TIP3    H125809   1.459   1.542   4.098
 8622TIP3    H225810   1.533   1.508   4.226
 8623TIP3   OH225811   6.807   0.107   4.401
 8623TIP3    H125812   6.764   0.191   4.380
 8623TIP3    H225813   6.827   0.069   4.315
 8624TIP3   OH225814   2.435   2.544   4.275
 8624TIP3    H125815   2.481   2.536   4.358
 8624TIP3    H225816   2.390   2.629   4.280
 8625TIP3   OH225817   8.085   3.841   1.744
 8625TIP3    H125818   8.177   3.834   1.717
 8625TIP3    H225819   8.087   3.892   1.825
 8626TIP3   OH225820   3.029   1.786   1.144
 8626TIP3    H125821   2.988   1.724   1.204
 8626TIP3    H225822   3.069   1.851   1.201
 8627TIP3   OH225823   5.199   3.274   4.255
 8627TIP3    H125824   5.247   3.216   4.313
 8627TIP3    H225825   5.225   3.362   4.282
 8628TIP3   OH225826   7.463   3.297   0.751
 8628TIP3    H125827   7.402   3.268   0.819
 8628TIP3    H225828   7.421   3.272   0.669
 8629TIP3   OH225829   8.159   0.193   5.732
 8629TIP3    H125830   8.210   0.114   5.714
 8629TIP3    H225831   8.208   0.263   5.689
 8630TIP3   OH225832   0.331   3.363   4.840
 8630TIP3    H125833   0.299   3.396   4.925
 8630TIP3    H225834   0.268   3.294   4.817
 8631TIP3   OH225835   2.246   7.877   6.464
 8631TIP3    H125836   2.276   7.804   6.409
 8631TIP3    H225837   2.150   7.876   6.454
 8632TIP3   OH225838   2.720   6.479   5.147
 8632TIP3    H125839   2.652   6.478   5.215
 8632TIP3    H225840   2.700   6.404   5.091
 8633TIP3   OH225841   4.001   7.596   4.240
 8633TIP3    H125842   4.082   7.545   4.245
 8633TIP3    H225843   4.030   7.687   4.233
 8634TIP3   OH225844   3.603   0.331   2.506
 8634TIP3    H125845   3.545   0.406   2.509
 8634TIP3    H225846   3.684   0.361   2.547
 8635TIP3   OH225847   1.988   4.361   1.595
 8635TIP3    H125848   1.903   4.384   1.558
 8635TIP3    H225849   2.008   4.275   1.558
 8636TIP3   OH225850   1.655   1.942   5.868
 8636TIP3    H125851   1.662   2.034   5.892
 8636TIP3    H225852   1.650   1.896   5.952
 8637TIP3   OH225853   7.725   3.617   2.577
 8637TIP3    H125854   7.781   3.557   2.529
 8637TIP3    H225855   7.682   3.562   2.643
 8638TIP3   OH225856   1.898   1.810   3.888
 8638TIP3    H125857   1.850   1.737   3.928
 8638TIP3    H225858   1.852   1.826   3.806
 8639TIP3   OH225859   0.739   3.367   2.267
 8639TIP3    H125860   0.783   3.363   2.352
 8639TIP3    H225861   0.701   3.454   2.264
 8640TIP3   OH225862   3.965   5.968   5.187
 8640TIP3    H125863   3.903   6.040   5.197
 8640TIP3    H225864   3.937   5.903   5.252
 8641TIP3   OH225865   6.746   0.257   0.163
 8641TIP3    H125866   6.740   0.203   0.084
 8641TIP3    H225867   6.664   0.243   0.209
 8642TIP3   OH225868   2.008   5.893   5.079
 8642TIP3    H125869   1.956   5.812   5.079
 8642TIP3    H225870   2.037   5.902   5.170
 8643TIP3   OH225871   7.080   0.244   3.938
 8643TIP3    H125872   7.036   0.287   3.865
 8643TIP3    H225873   7.025   0.263   4.014
 8644TIP3   OH225874   6.593   3.151   4.917
 8644TIP3    H125875   6.688   3.160   4.919
 8644TIP3    H225876   6.562   3.208   4.987
 8645TIP3   OH225877   0.742   0.256   6.094
 8645TIP3    H125878   0.665   0.271   6.040
 8645TIP3    H225879   0.714   0.193   6.160
 8646TIP3   OH225880   8.055   5.209   1.926
 8646TIP3    H125881   8.128   5.187   1.867
 8646TIP3    H225882   8.052   5.304   1.926
 8647TIP3   OH225883   4.732   4.798   0.972
 8647TIP3    H125884   4.749   4.843   0.889
 8647TIP3    H225885   4.722   4.868   1.036
 8648TIP3   OH225886   5.806   3.003   6.313
 8648TIP3    H125887   5.845   3.011   6.226
 8648TIP3    H225888   5.877   2.967   6.367
 8649TIP3   OH225889   3.376   1.909   5.461
 8649TIP3    H125890   3.391   1.905   5.556
 8649TIP3    H225891   3.370   2.002   5.442
 8650TIP3   OH225892   3.802   2.669   0.654
 8650TIP3    H125893   3.733   2.723   0.692
 8650TIP3    H225894   3.756   2.613   0.591
 8651TIP3   OH225895   0.616   2.825   6.615
 8651TIP3    H125896   0.541   2.795   6.564
 8651TIP3    H225897   0.686   2.763   6.594
 8652TIP3   OH225898   7.485   6.250   3.890
 8652TIP3    H125899   7.486   6.157   3.870
 8652TIP3    H225900   7.398   6.266   3.926
 8653TIP3   OH225901   3.834   7.220   3.457
 8653TIP3    H125902   3.755   7.176   3.489
 8653TIP3    H225903   3.833   7.306   3.500
 8654TIP3   OH225904   4.150   7.773   5.145
 8654TIP3    H125905   4.154   7.798   5.053
 8654TIP3    H225906   4.061   7.740   5.157
 8655TIP3   OH225907   3.294   1.953   0.685
 8655TIP3    H125908   3.238   2.026   0.658
 8655TIP3    H225909   3.382   1.978   0.657
 8656TIP3   OH225910   4.824   0.358   2.211
 8656TIP3    H125911   4.753   0.385   2.152
 8656TIP3    H225912   4.880   0.435   2.218
 8657TIP3   OH225913   5.119   7.210   2.916
 8657TIP3    H125914   5.031   7.212   2.952
 8657TIP3    H225915   5.107   7.221   2.822
 8658TIP3   OH225916   3.859   6.867   5.455
 8658TIP3    H125917   3.777   6.912   5.473
 8658TIP3    H225918   3.927   6.927   5.485
 8659TIP3   OH225919   3.199   1.456   4.700
 8659TIP3    H125920   3.256   1.496   4.634
 8659TIP3    H225921   3.256   1.395   4.747
 8660TIP3   OH225922   3.941   7.249   6.232
 8660TIP3    H125923   3.949   7.332   6.186
 8660TIP3    H225924   3.957   7.270   6.324
 8661TIP3   OH225925   3.403   6.288   6.276
 8661TIP3    H125926   3.437   6.237   6.202
 8661TIP3    H225927   3.447   6.372   6.270
 8662TIP3   OH225928   6.014   6.326   5.144
 8662TIP3    H125929   6.045   6.238   5.119
 8662TIP3    H225930   6.030   6.379   5.066
 8663TIP3   OH225931   6.419   1.475   0.675
 8663TIP3    H125932   6.421   1.447   0.767
 8663TIP3    H225933   6.470   1.556   0.673
 8664TIP3   OH225934   7.901   5.771   0.482
 8664TIP3    H125935   7.813   5.808   0.490
 8664TIP3    H225936   7.945   5.796   0.563
 8665TIP3   OH225937   3.802   6.573   1.132
 8665TIP3    H125938   3.774   6.484   1.154
 8665TIP3    H225939   3.721   6.618   1.108
 8666TIP3   OH225940   3.447   0.254   6.416
 8666TIP3    H125941   3.467   0.164   6.444
 8666TIP3    H225942   3.376   0.244   6.353
 8667TIP3   OH225943   5.026   6.076   1.395
 8667TIP3    H125944   4.976   5.996   1.384
 8667TIP3    H225945   4.989   6.137   1.331
 8668TIP3   OH225946   8.263   1.598   5.011
 8668TIP3    H125947   8.344   1.550   5.025
 8668TIP3    H225948   8.277   1.683   5.054
 8669TIP3   OH225949   6.101   5.760   3.632
 8669TIP3    H125950   6.011   5.791   3.640
 8669TIP3    H225951   6.122   5.726   3.719
 8670TIP3   OH225952   3.152   4.687   1.276
 8670TIP3    H125953   3.133   4.780   1.272
 8670TIP3    H225954   3.174   4.671   1.368
 8671TIP3   OH225955   6.824   1.700   1.405
 8671TIP3    H125956   6.901   1.649   1.379
 8671TIP3    H225957   6.767   1.699   1.328
 8672TIP3   OH225958   1.647   3.644   3.959
 8672TIP3    H125959   1.700   3.717   3.928
 8672TIP3    H225960   1.645   3.583   3.884
 8673TIP3   OH225961   3.227   6.467   5.751
 8673TIP3    H125962   3.277   6.480   5.670
 8673TIP3    H225963   3.256   6.538   5.809
 8674TIP3   OH225964   3.882   5.545   4.722
 8674TIP3    H125965   3.903   5.481   4.654
 8674TIP3    H225966   3.953   5.537   4.786
 8675TIP3   OH225967   2.751   7.395   1.659
 8675TIP3    H125968   2.802   7.341   1.598
 8675TIP3    H225969   2.788   7.482   1.650
 8676TIP3   OH225970   5.637   4.482   3.714
 8676TIP3    H125971   5.584   4.402   3.716
 8676TIP3    H225972   5.705   4.467   3.779
 8677TIP3   OH225973   7.756   1.937   4.442
 8677TIP3    H125974   7.796   1.946   4.355
 8677TIP3    H225975   7.810   1.872   4.487
 8678TIP3   OH225976   3.517   0.196   4.153
 8678TIP3    H125977   3.485   0.278   4.191
 8678TIP3    H225978   3.610   0.195   4.175
 8679TIP3   OH225979   8.262   7.783   0.017
 8679TIP3    H125980   8.349   7.822   0.017
 8679TIP3    H225981   8.277   7.690   0.037
 8680TIP3   OH225982   1.770   0.176   5.922
 8680TIP3    H125983   1.727   0.241   5.977
 8680TIP3    H225984   1.830   0.130   5.982
 8681TIP3   OH225985   0.239   5.708   6.370
 8681TIP3    H125986   0.193   5.752   6.441
 8681TIP3    H225987   0.326   5.689   6.405
 8682TIP3   OH225988   2.181   5.226   2.881
 8682TIP3    H125989   2.276   5.212   2.887
 8682TIP3    H225990   2.158   5.264   2.966
 8683TIP3   OH225991   0.715   0.469   4.552
 8683TIP3    H125992   0.780   0.465   4.482
 8683TIP3    H225993   0.767   0.467   4.632
 8684TIP3   OH225994   0.785   5.129   4.532
 8684TIP3    H125995   0.737   5.128   4.449
 8684TIP3    H225996   0.844   5.204   4.526
 8685TIP3   OH225997   8.180   5.023   1.590
 8685TIP3    H125998   8.092   5.056   1.577
 8685TIP3    H225999   8.228   5.095   1.631
 8686TIP3   OH226000   1.125   3.771   4.798
 8686TIP3    H126001   1.062   3.842   4.805
 8686TIP3    H226002   1.105   3.730   4.713
 8687TIP3   OH226003   7.430   2.017   2.131
 8687TIP3    H126004   7.381   2.082   2.082
 8687TIP3    H226005   7.522   2.040   2.116
 8688TIP3   OH226006   3.826   7.276   1.460
 8688TIP3    H126007   3.874   7.194   1.443
 8688TIP3    H226008   3.823   7.320   1.375
 8689TIP3   OH226009   0.851   5.547   3.815
 8689TIP3    H126010   0.872   5.501   3.897
 8689TIP3    H226011   0.837   5.476   3.752
 8690TIP3   OH226012   2.657   0.984   3.204
 8690TIP3    H126013   2.603   1.026   3.270
 8690TIP3    H226014   2.670   1.050   3.137
 8691TIP3   OH226015   2.126   2.912   1.564
 8691TIP3    H126016   2.039   2.949   1.578
 8691TIP3    H226017   2.184   2.988   1.563
 8692TIP3   OH226018   8.095   0.915   1.670
 8692TIP3    H126019   8.082   0.855   1.744
 8692TIP3    H226020   8.152   0.867   1.610
 8693TIP3   OH226021   2.362   4.673   6.468
 8693TIP3    H126022   2.346   4.638   6.381
 8693TIP3    H226023   2.401   4.759   6.453
 8694TIP3   OH226024   6.989   0.384   1.774
 8694TIP3    H126025   6.941   0.313   1.731
 8694TIP3    H226026   6.982   0.458   1.714
 8695TIP3   OH226027   4.212   6.660   0.387
 8695TIP3    H126028   4.225   6.566   0.401
 8695TIP3    H226029   4.122   6.677   0.416
 8696TIP3   OH226030   7.114   1.416   6.643
 8696TIP3    H126031   7.169   1.488   6.674
 8696TIP3    H226032   7.173   1.341   6.641
 8697TIP3   OH226033   1.783   4.096   3.950
 8697TIP3    H126034   1.696   4.098   3.990
 8697TIP3    H226035   1.842   4.115   4.022
 8698TIP3   OH226036   1.940   1.529   6.580
 8698TIP3    H126037   2.032   1.558   6.583
 8698TIP3    H226038   1.908   1.540   6.669
 8699TIP3   OH226039   5.935   6.003   6.387
 8699TIP3    H126040   5.863   5.973   6.443
 8699TIP3    H226041   6.014   5.988   6.438
 8700TIP3   OH226042   1.898   7.228   1.893
 8700TIP3    H126043   1.840   7.268   1.959
 8700TIP3    H226044   1.838   7.184   1.833
 8701TIP3   OH226045   3.450   6.824   1.889
 8701TIP3    H126046   3.424   6.793   1.976
 8701TIP3    H226047   3.386   6.892   1.868
 8702TIP3   OH226048   2.259   1.410   1.452
 8702TIP3    H126049   2.275   1.476   1.520
 8702TIP3    H226050   2.210   1.456   1.384
 8703TIP3   OH226051   7.498   1.994   1.067
 8703TIP3    H126052   7.480   1.905   1.038
 8703TIP3    H226053   7.539   2.037   0.992
 8704TIP3   OH226054   6.462   2.809   4.368
 8704TIP3    H126055   6.460   2.787   4.275
 8704TIP3    H226056   6.405   2.884   4.377
 8705TIP3   OH226057   4.696   0.191   1.446
 8705TIP3    H126058   4.775   0.220   1.400
 8705TIP3    H226059   4.717   0.203   1.539
 8706TIP3   OH226060   5.491   6.600   6.271
 8706TIP3    H126061   5.556   6.668   6.252
 8706TIP3    H226062   5.489   6.546   6.192
 8707TIP3   OH226063   2.370   1.337   6.065
 8707TIP3    H126064   2.335   1.367   5.980
 8707TIP3    H226065   2.318   1.259   6.086
 8708TIP3   OH226066   2.331   0.811   1.378
 8708TIP3    H126067   2.326   0.741   1.313
 8708TIP3    H226068   2.423   0.840   1.375
 8709TIP3   OH226069   7.287   0.156   4.606
 8709TIP3    H126070   7.227   0.175   4.678
 8709TIP3    H226071   7.309   0.242   4.570
 8710TIP3   OH226072   7.230   3.846   1.498
 8710TIP3    H126073   7.144   3.866   1.533
 8710TIP3    H226074   7.228   3.752   1.480
 8711TIP3   OH226075   5.913   6.288   3.102
 8711TIP3    H126076   5.940   6.212   3.154
 8711TIP3    H226077   5.904   6.255   3.013
 8712TIP3   OH226078   7.457   2.384   2.644
 8712TIP3    H126079   7.397   2.349   2.578
 8712TIP3    H226080   7.416   2.362   2.728
 8713TIP3   OH226081   1.049   2.219   5.000
 8713TIP3    H126082   1.103   2.214   4.921
 8713TIP3    H226083   0.959   2.217   4.968
 8714TIP3   OH226084   6.801   7.313   1.581
 8714TIP3    H126085   6.714   7.335   1.615
 8714TIP3    H226086   6.805   7.217   1.588
 8715TIP3   OH226087   3.149   7.647   2.169
 8715TIP3    H126088   3.135   7.622   2.260
 8715TIP3    H226089   3.093   7.588   2.119
 8716TIP3   OH226090   2.158   0.623   2.418
 8716TIP3    H126091   2.244   0.603   2.380
 8716TIP3    H226092   2.146   0.557   2.487
 8717TIP3   OH226093   3.215   5.903   2.867
 8717TIP3    H126094   3.264   5.900   2.949
 8717TIP3    H226095   3.128   5.871   2.889
 8718TIP3   OH226096   3.710   3.118   0.873
 8718TIP3    H126097   3.802   3.094   0.865
 8718TIP3    H226098   3.695   3.181   0.803
 8719TIP3   OH226099   4.320   2.967   6.745
 8719TIP3    H126100   4.324   2.885   6.696
 8719TIP3    H226101   4.313   3.035   6.679
 8720TIP3   OH226102   4.227   1.643   3.717
 8720TIP3    H126103   4.240   1.730   3.756
 8720TIP3    H226104   4.285   1.586   3.766
 8721TIP3   OH226105   1.134   6.094   4.277
 8721TIP3    H126106   1.128   6.018   4.219
 8721TIP3    H226107   1.046   6.105   4.312
 8722TIP3   OH226108   0.847   2.086   0.536
 8722TIP3    H126109   0.755   2.109   0.546
 8722TIP3    H226110   0.850   2.039   0.452
 8723TIP3   OH226111   5.621   0.930   4.923
 8723TIP3    H126112   5.697   0.967   4.968
 8723TIP3    H226113   5.547   0.982   4.956
 8724TIP3   OH226114   2.655   4.571   6.559
 8724TIP3    H126115   2.563   4.596   6.552
 8724TIP3    H226116   2.659   4.484   6.518
 8725TIP3   OH226117   2.754   1.110   5.646
 8725TIP3    H126118   2.795   1.060   5.717
 8725TIP3    H226119   2.818   1.107   5.575
 8726TIP3   OH226120   4.157   4.203   5.954
 8726TIP3    H126121   4.065   4.226   5.972
 8726TIP3    H226122   4.172   4.124   6.006
 8727TIP3   OH226123   0.232   5.938   2.782
 8727TIP3    H126124   0.197   5.860   2.825
 8727TIP3    H226125   0.303   5.905   2.727
 8728TIP3   OH226126   0.416   0.628   2.392
 8728TIP3    H126127   0.492   0.677   2.361
 8728TIP3    H226128   0.453   0.563   2.453
 8729TIP3   OH226129   0.423   2.346   4.112
 8729TIP3    H126130   0.347   2.385   4.157
 8729TIP3    H226131   0.486   2.418   4.106
 8730TIP3   OH226132   1.960   5.466   1.729
 8730TIP3    H126133   1.915   5.387   1.759
 8730TIP3    H226134   2.053   5.441   1.727
 8731TIP3   OH226135   5.461   5.619   3.814
 8731TIP3    H126136   5.392   5.560   3.784
 8731TIP3    H226137   5.461   5.690   3.750
 8732TIP3   OH226138   5.614   6.169   3.800
 8732TIP3    H126139   5.585   6.160   3.710
 8732TIP3    H226140   5.596   6.260   3.823
 8733TIP3   OH226141   7.563   1.189   0.852
 8733TIP3    H126142   7.649   1.149   0.837
 8733TIP3    H226143   7.532   1.211   0.764
 8734TIP3   OH226144   7.236   0.909   3.106
 8734TIP3    H126145   7.145   0.890   3.131
 8734TIP3    H226146   7.266   0.970   3.173
 8735TIP3   OH226147   3.333   1.380   5.477
 8735TIP3    H126148   3.395   1.350   5.543
 8735TIP3    H226149   3.372   1.355   5.394
 8736TIP3   OH226150   2.178   3.185   3.003
 8736TIP3    H126151   2.243   3.114   3.002
 8736TIP3    H226152   2.148   3.191   2.913
 8737TIP3   OH226153   3.200   0.227   1.575
 8737TIP3    H126154   3.288   0.216   1.540
 8737TIP3    H226155   3.159   0.291   1.517
 8738TIP3   OH226156   3.876   3.535   2.227
 8738TIP3    H126157   3.922   3.540   2.311
 8738TIP3    H226158   3.945   3.519   2.163
 8739TIP3   OH226159   7.714   2.447   3.114
 8739TIP3    H126160   7.706   2.534   3.155
 8739TIP3    H226161   7.784   2.404   3.163
 8740TIP3   OH226162   7.650   1.968   6.721
 8740TIP3    H126163   7.694   1.947   6.639
 8740TIP3    H226164   7.562   1.994   6.695
 8741TIP3   OH226165   0.445   0.171   2.596
 8741TIP3    H126166   0.427   0.123   2.676
 8741TIP3    H226167   0.502   0.113   2.545
 8742TIP3   OH226168   4.370   4.201   3.511
 8742TIP3    H126169   4.341   4.122   3.558
 8742TIP3    H226170   4.290   4.254   3.504
 8743TIP3   OH226171   3.474   6.937   4.752
 8743TIP3    H126172   3.524   6.856   4.742
 8743TIP3    H226173   3.442   6.934   4.842
 8744TIP3   OH226174   6.711   4.811   0.390
 8744TIP3    H126175   6.623   4.774   0.381
 8744TIP3    H226176   6.770   4.740   0.367
 8745TIP3   OH226177   3.020   1.124   6.293
 8745TIP3    H126178   3.038   1.198   6.236
 8745TIP3    H226179   3.001   1.164   6.378
 8746TIP3   OH226180   1.080   5.768   0.323
 8746TIP3    H126181   1.118   5.682   0.340
 8746TIP3    H226182   1.076   5.811   0.408
 8747TIP3   OH226183   2.764   6.422   3.186
 8747TIP3    H126184   2.745   6.389   3.098
 8747TIP3    H226185   2.860   6.419   3.192
 8748TIP3   OH226186   6.439   6.126   6.670
 8748TIP3    H126187   6.383   6.086   6.736
 8748TIP3    H226188   6.519   6.074   6.670
 8749TIP3   OH226189   2.469   3.598   2.676
 8749TIP3    H126190   2.559   3.621   2.698
 8749TIP3    H226191   2.451   3.645   2.595
 8750TIP3   OH226192   6.265   1.624   3.089
 8750TIP3    H126193   6.221   1.573   3.022
 8750TIP3    H226194   6.333   1.566   3.123
 8751TIP3   OH226195   1.271   0.160   3.452
 8751TIP3    H126196   1.204   0.186   3.388
 8751TIP3    H226197   1.290   0.069   3.431
 8752TIP3   OH226198   1.767   4.084   2.668
 8752TIP3    H126199   1.734   4.009   2.718
 8752TIP3    H226200   1.795   4.146   2.735
 8753TIP3   OH226201   2.815   6.652   4.898
 8753TIP3    H126202   2.850   6.703   4.825
 8753TIP3    H226203   2.721   6.671   4.897
 8754TIP3   OH226204   0.954   0.952   2.357
 8754TIP3    H126205   0.970   0.888   2.287
 8754TIP3    H226206   0.886   0.912   2.411
 8755TIP3   OH226207   7.935   1.067   1.950
 8755TIP3    H126208   8.028   1.071   1.930
 8755TIP3    H226209   7.892   1.067   1.864
 8756TIP3   OH226210   2.958   6.342   1.692
 8756TIP3    H126211   3.040   6.374   1.655
 8756TIP3    H226212   2.932   6.271   1.634
 8757TIP3   OH226213   3.268   3.652   3.725
 8757TIP3    H126214   3.224   3.711   3.663
 8757TIP3    H226215   3.262   3.565   3.684
 8758TIP3   OH226216   3.412   6.990   3.627
 8758TIP3    H126217   3.415   6.955   3.716
 8758TIP3    H226218   3.321   6.980   3.600
 8759TIP3   OH226219   2.534   5.266   4.092
 8759TIP3    H126220   2.546   5.360   4.099
 8759TIP3    H226221   2.564   5.232   4.177
 8760TIP3   OH226222   7.895   2.424   6.379
 8760TIP3    H126223   7.865   2.355   6.439
 8760TIP3    H226224   7.933   2.490   6.436
 8761TIP3   OH226225   7.484   0.519   0.594
 8761TIP3    H126226   7.408   0.565   0.559
 8761TIP3    H226227   7.455   0.428   0.604
 8762TIP3   OH226228   5.284   0.189   4.092
 8762TIP3    H126229   5.321   0.218   4.176
 8762TIP3    H226230   5.190   0.197   4.103
 8763TIP3   OH226231   6.332   1.554   3.717
 8763TIP3    H126232   6.254   1.501   3.736
 8763TIP3    H226233   6.318   1.636   3.763
 8764TIP3   OH226234   8.067   5.974   2.427
 8764TIP3    H126235   8.131   5.928   2.480
 8764TIP3    H226236   8.116   6.046   2.387
 8765TIP3   OH226237   3.142   3.621   6.760
 8765TIP3    H126238   3.093   3.540   6.777
 8765TIP3    H226239   3.078   3.680   6.721
 8766TIP3   OH226240   2.282   5.660   1.049
 8766TIP3    H126241   2.262   5.585   1.106
 8766TIP3    H226242   2.374   5.679   1.067
 8767TIP3   OH226243   3.439   5.624   4.267
 8767TIP3    H126244   3.384   5.564   4.318
 8767TIP3    H226245   3.497   5.566   4.217
 8768TIP3   OH226246   3.303   7.157   4.653
 8768TIP3    H126247   3.345   7.216   4.591
 8768TIP3    H226248   3.367   7.088   4.668
 8769TIP3   OH226249   0.624   7.069  -0.011
 8769TIP3    H126250   0.607   7.077   0.083
 8769TIP3    H226251   0.719   7.078  -0.019
 8770TIP3   OH226252   4.620   1.469   5.291
 8770TIP3    H126253   4.613   1.437   5.381
 8770TIP3    H226254   4.683   1.410   5.250
 8771TIP3   OH226255   5.247   4.361   1.672
 8771TIP3    H126256   5.343   4.362   1.679
 8771TIP3    H226257   5.230   4.382   1.580
 8772TIP3   OH226258   4.638   5.003   0.721
 8772TIP3    H126259   4.618   5.091   0.752
 8772TIP3    H226260   4.556   4.974   0.680
 8773TIP3   OH226261   0.223   0.704   5.174
 8773TIP3    H126262   0.175   0.696   5.091
 8773TIP3    H226263   0.202   0.624   5.221
 8774TIP3   OH226264   3.623   5.124   1.331
 8774TIP3    H126265   3.694   5.092   1.275
 8774TIP3    H226266   3.543   5.096   1.287
 8775TIP3   OH226267   4.213   0.551   6.599
 8775TIP3    H126268   4.139   0.506   6.559
 8775TIP3    H226269   4.289   0.496   6.580
 8776TIP3   OH226270   6.033   6.951   5.616
 8776TIP3    H126271   5.941   6.944   5.592
 8776TIP3    H226272   6.076   6.881   5.567
 8777TIP3   OH226273   1.953   0.661   4.568
 8777TIP3    H126274   1.960   0.752   4.540
 8777TIP3    H226275   1.871   0.656   4.617
 8778TIP3   OH226276   5.226   4.510   4.425
 8778TIP3    H126277   5.216   4.426   4.470
 8778TIP3    H226278   5.261   4.487   4.339
 8779TIP3   OH226279   1.011   0.443   1.549
 8779TIP3    H126280   1.066   0.517   1.523
 8779TIP3    H226281   1.024   0.378   1.480
 8780TIP3   OH226282   1.539   6.588   3.037
 8780TIP3    H126283   1.528   6.653   2.968
 8780TIP3    H226284   1.450   6.572   3.070
 8781TIP3   OH226285   0.474   4.437   0.893
 8781TIP3    H126286   0.413   4.364   0.887
 8781TIP3    H226287   0.491   4.463   0.802
 8782TIP3   OH226288   6.894   5.939   6.514
 8782TIP3    H126289   6.965   5.888   6.553
 8782TIP3    H226290   6.939   6.008   6.466
 8783TIP3   OH226291   7.713   5.007   5.960
 8783TIP3    H126292   7.724   4.939   5.894
 8783TIP3    H226293   7.674   4.961   6.035
 8784TIP3   OH226294   6.201   1.587   3.978
 8784TIP3    H126295   6.285   1.620   4.010
 8784TIP3    H226296   6.144   1.664   3.978
 8785TIP3   OH226297   0.722   2.915   2.266
 8785TIP3    H126298   0.800   2.971   2.269
 8785TIP3    H226299   0.714   2.890   2.174
 8786TIP3   OH226300   6.843   6.808   5.812
 8786TIP3    H126301   6.874   6.871   5.877
 8786TIP3    H226302   6.797   6.741   5.863
 8787TIP3   OH226303   0.553   7.551   6.596
 8787TIP3    H126304   0.622   7.484   6.606
 8787TIP3    H226305   0.491   7.531   6.667
 8788TIP3   OH226306   1.270   0.239   1.587
 8788TIP3    H126307   1.230   0.290   1.516
 8788TIP3    H226308   1.362   0.234   1.564
 8789TIP3   OH226309   3.770   1.828   0.280
 8789TIP3    H126310   3.687   1.784   0.298
 8789TIP3    H226311   3.834   1.779   0.332
 8790TIP3   OH226312   0.628   3.475   2.650
 8790TIP3    H126313   0.630   3.561   2.691
 8790TIP3    H226314   0.587   3.418   2.714
 8791TIP3   OH226315   6.164   6.234   3.437
 8791TIP3    H126316   6.172   6.139   3.430
 8791TIP3    H226317   6.196   6.267   3.353
 8792TIP3   OH226318   0.654   5.711   4.941
 8792TIP3    H126319   0.664   5.619   4.967
 8792TIP3    H226320   0.572   5.713   4.892
 8793TIP3   OH226321   7.152   1.662   2.140
 8793TIP3    H126322   7.236   1.626   2.111
 8793TIP3    H226323   7.094   1.587   2.146
 8794TIP3   OH226324   2.963   5.820   6.687
 8794TIP3    H126325   2.878   5.846   6.652
 8794TIP3    H226326   3.018   5.898   6.676
 8795TIP3   OH226327   4.424   1.970   1.415
 8795TIP3    H126328   4.501   1.974   1.472
 8795TIP3    H226329   4.460   1.954   1.328
 8796TIP3   OH226330   3.890   4.874   4.880
 8796TIP3    H126331   3.876   4.780   4.887
 8796TIP3    H226332   3.957   4.884   4.813
 8797TIP3   OH226333   5.577   7.753   2.112
 8797TIP3    H126334   5.520   7.679   2.131
 8797TIP3    H226335   5.522   7.830   2.125
 8798TIP3   OH226336   1.897   5.676   2.538
 8798TIP3    H126337   1.862   5.686   2.450
 8798TIP3    H226338   1.901   5.581   2.551
 8799TIP3   OH226339   1.644   4.922   3.446
 8799TIP3    H126340   1.667   4.951   3.535
 8799TIP3    H226341   1.572   4.861   3.459
 8800TIP3   OH226342   3.283   6.809   6.182
 8800TIP3    H126343   3.245   6.803   6.270
 8800TIP3    H226344   3.238   6.742   6.132
 8801TIP3   OH226345   0.074   6.464   6.752
 8801TIP3    H126346   0.123   6.471   6.670
 8801TIP3    H226347  -0.018   6.469   6.726
 8802TIP3   OH226348   1.043   2.035   5.262
 8802TIP3    H126349   0.954   2.021   5.293
 8802TIP3    H226350   1.036   2.110   5.202
 8803TIP3   OH226351   0.917   2.378   1.998
 8803TIP3    H126352   0.983   2.444   2.017
 8803TIP3    H226353   0.868   2.414   1.923
 8804TIP3   OH226354   5.936   6.317   4.740
 8804TIP3    H126355   5.925   6.234   4.693
 8804TIP3    H226356   5.846   6.346   4.757
 8805TIP3   OH226357   2.873   5.292   5.789
 8805TIP3    H126358   2.919   5.357   5.843
 8805TIP3    H226359   2.937   5.266   5.723
 8806TIP3   OH226360   1.088   4.814   4.292
 8806TIP3    H126361   1.184   4.806   4.295
 8806TIP3    H226362   1.073   4.893   4.241
 8807TIP3   OH226363   5.297   4.237   4.084
 8807TIP3    H126364   5.380   4.274   4.114
 8807TIP3    H226365   5.239   4.243   4.160
 8808TIP3   OH226366   7.239   6.366   0.292
 8808TIP3    H126367   7.312   6.320   0.333
 8808TIP3    H226368   7.280   6.418   0.222
 8809TIP3   OH226369   2.098   1.709   5.947
 8809TIP3    H126370   2.149   1.776   5.992
 8809TIP3    H226371   2.027   1.757   5.904
 8810TIP3   OH226372   1.701   6.190   5.740
 8810TIP3    H126373   1.791   6.223   5.742
 8810TIP3    H226374   1.650   6.263   5.705
 8811TIP3   OH226375   4.395   1.037   1.269
 8811TIP3    H126376   4.456   1.082   1.211
 8811TIP3    H226377   4.329   1.103   1.290
 8812TIP3   OH226378   4.801   2.864   4.864
 8812TIP3    H126379   4.829   2.824   4.946
 8812TIP3    H226380   4.714   2.827   4.847
 8813TIP3   OH226381   1.823   7.572   3.160
 8813TIP3    H126382   1.826   7.584   3.065
 8813TIP3    H226383   1.792   7.657   3.194
 8814TIP3   OH226384   7.883   4.350   3.663
 8814TIP3    H126385   7.876   4.428   3.607
 8814TIP3    H226386   7.884   4.385   3.752
 8815TIP3   OH226387   4.247   4.089   2.029
 8815TIP3    H126388   4.271   4.008   1.984
 8815TIP3    H226389   4.153   4.100   2.010
 8816TIP3   OH226390   5.105   3.983   2.320
 8816TIP3    H126391   5.068   3.914   2.375
 8816TIP3    H226392   5.068   4.064   2.356
 8817TIP3   OH226393   0.462   0.938   2.716
 8817TIP3    H126394   0.513   0.857   2.726
 8817TIP3    H226395   0.508   1.002   2.770
 8818TIP3   OH226396   4.833   1.211   3.220
 8818TIP3    H126397   4.748   1.253   3.236
 8818TIP3    H226398   4.897   1.282   3.229
 8819TIP3   OH226399   6.125   4.184   1.038
 8819TIP3    H126400   6.121   4.272   1.075
 8819TIP3    H226401   6.201   4.186   0.979
 8820TIP3   OH226402   8.242   5.015   2.275
 8820TIP3    H126403   8.230   5.092   2.331
 8820TIP3    H226404   8.177   5.027   2.205
 8821TIP3   OH226405   6.515   1.301   5.195
 8821TIP3    H126406   6.492   1.230   5.135
 8821TIP3    H226407   6.610   1.309   5.187
 8822TIP3   OH226408   3.823   1.777   6.649
 8822TIP3    H126409   3.879   1.749   6.722
 8822TIP3    H226410   3.853   1.866   6.629
 8823TIP3   OH226411   1.635   2.976   3.868
 8823TIP3    H126412   1.549   2.988   3.827
 8823TIP3    H226413   1.637   2.884   3.893
 8824TIP3   OH226414   3.581   3.307   6.058
 8824TIP3    H126415   3.552   3.322   6.148
 8824TIP3    H226416   3.628   3.224   6.061
 8825TIP3   OH226417   0.062   0.402   3.254
 8825TIP3    H126418   0.142   0.357   3.280
 8825TIP3    H226419   0.083   0.441   3.169
 8826TIP3   OH226420   0.912   4.876   1.920
 8826TIP3    H126421   0.933   4.872   2.013
 8826TIP3    H226422   0.818   4.857   1.916
 8827TIP3   OH226423   2.680   6.280   2.938
 8827TIP3    H126424   2.607   6.221   2.920
 8827TIP3    H226425   2.751   6.246   2.883
 8828TIP3   OH226426   2.878   7.132   6.359
 8828TIP3    H126427   2.933   7.054   6.351
 8828TIP3    H226428   2.880   7.171   6.271
 8829TIP3   OH226429   5.233   2.856   3.751
 8829TIP3    H126430   5.241   2.810   3.668
 8829TIP3    H226431   5.244   2.788   3.817
 8830TIP3   OH226432   2.107   0.697   5.208
 8830TIP3    H126433   2.169   0.763   5.240
 8830TIP3    H226434   2.137   0.678   5.119
 8831TIP3   OH226435   7.176   4.661   0.434
 8831TIP3    H126436   7.241   4.644   0.502
 8831TIP3    H226437   7.226   4.698   0.362
 8832TIP3   OH226438   4.136   0.959   3.598
 8832TIP3    H126439   4.048   0.922   3.602
 8832TIP3    H226440   4.144   0.993   3.509
 8833TIP3   OH226441   0.094   5.364   0.713
 8833TIP3    H126442   0.168   5.407   0.669
 8833TIP3    H226443   0.134   5.308   0.779
 8834TIP3   OH226444   2.991   7.276   0.968
 8834TIP3    H126445   3.018   7.365   0.991
 8834TIP3    H226446   2.976   7.233   1.052
 8835TIP3   OH226447   3.381   6.187   5.744
 8835TIP3    H126448   3.467   6.228   5.735
 8835TIP3    H226449   3.319   6.256   5.720
 8836TIP3   OH226450   5.534   7.447   0.309
 8836TIP3    H126451   5.440   7.459   0.292
 8836TIP3    H226452   5.563   7.386   0.241
 8837TIP3   OH226453   2.696   2.407   3.966
 8837TIP3    H126454   2.661   2.475   4.023
 8837TIP3    H226455   2.621   2.381   3.912
 8838TIP3   OH226456   3.593   7.767   1.952
 8838TIP3    H126457   3.507   7.727   1.944
 8838TIP3    H226458   3.654   7.693   1.949
 8839TIP3   OH226459   5.596   3.348   5.641
 8839TIP3    H126460   5.566   3.316   5.726
 8839TIP3    H226461   5.650   3.425   5.661
 8840TIP3   OH226462   8.196   2.152   2.615
 8840TIP3    H126463   8.277   2.126   2.660
 8840TIP3    H226464   8.126   2.131   2.677
 8841TIP3   OH226465   1.630   5.169   0.660
 8841TIP3    H126466   1.628   5.130   0.747
 8841TIP3    H226467   1.550   5.137   0.618
 8842TIP3   OH226468   2.764   1.747   4.062
 8842TIP3    H126469   2.684   1.782   4.023
 8842TIP3    H226470   2.778   1.799   4.141
 8843TIP3   OH226471   1.484   1.656   1.776
 8843TIP3    H126472   1.429   1.590   1.734
 8843TIP3    H226473   1.536   1.693   1.705
 8844TIP3   OH226474   6.155   0.436   0.628
 8844TIP3    H126475   6.238   0.483   0.635
 8844TIP3    H226476   6.180   0.346   0.610
 8845TIP3   OH226477   2.567   7.717   0.201
 8845TIP3    H126478   2.509   7.731   0.276
 8845TIP3    H226479   2.541   7.632   0.166
 8846TIP3   OH226480   3.134   3.797   2.942
 8846TIP3    H126481   3.143   3.709   2.979
 8846TIP3    H226482   3.142   3.856   3.016
 8847TIP3   OH226483   6.340   5.132   1.822
 8847TIP3    H126484   6.368   5.206   1.768
 8847TIP3    H226485   6.358   5.160   1.911
 8848TIP3   OH226486   5.218   5.650   5.432
 8848TIP3    H126487   5.226   5.599   5.513
 8848TIP3    H226488   5.146   5.608   5.385
 8849TIP3   OH226489   5.826   6.587   5.010
 8849TIP3    H126490   5.775   6.528   5.066
 8849TIP3    H226491   5.848   6.661   5.067
 8850TIP3   OH226492   7.633   0.270   6.359
 8850TIP3    H126493   7.679   0.346   6.395
 8850TIP3    H226494   7.548   0.303   6.332
 8851TIP3   OH226495   3.810   2.126   0.602
 8851TIP3    H126496   3.876   2.155   0.539
 8851TIP3    H226497   3.774   2.207   0.639
 8852TIP3   OH226498   1.558   4.331   1.707
 8852TIP3    H126499   1.604   4.368   1.782
 8852TIP3    H226500   1.607   4.361   1.630
 8853TIP3   OH226501   2.622   5.978   3.684
 8853TIP3    H126502   2.648   6.069   3.667
 8853TIP3    H226503   2.689   5.945   3.743
 8854TIP3   OH226504   4.076   1.402   2.576
 8854TIP3    H126505   4.136   1.475   2.589
 8854TIP3    H226506   4.052   1.407   2.484
 8855TIP3   OH226507   2.163   3.847   5.617
 8855TIP3    H126508   2.103   3.853   5.692
 8855TIP3    H226509   2.145   3.760   5.580
 8856TIP3   OH226510   1.939   4.139   1.046
 8856TIP3    H126511   1.865   4.157   0.989
 8856TIP3    H226512   2.015   4.141   0.988
 8857TIP3   OH226513   4.261   5.429   6.504
 8857TIP3    H126514   4.215   5.502   6.545
 8857TIP3    H226515   4.300   5.467   6.425
 8858TIP3   OH226516   2.596   0.078   4.546
 8858TIP3    H126517   2.653   0.150   4.574
 8858TIP3    H226518   2.619   0.063   4.455
 8859TIP3   OH226519   6.672   4.256   2.960
 8859TIP3    H126520   6.628   4.315   3.020
 8859TIP3    H226521   6.757   4.297   2.943
 8860TIP3   OH226522   5.584   1.149   1.523
 8860TIP3    H126523   5.640   1.220   1.490
 8860TIP3    H226524   5.514   1.141   1.457
 8861TIP3   OH226525   7.504   5.170   5.880
 8861TIP3    H126526   7.534   5.182   5.790
 8861TIP3    H226527   7.565   5.106   5.916
 8862TIP3   OH226528   3.351   5.419   2.950
 8862TIP3    H126529   3.338   5.472   2.871
 8862TIP3    H226530   3.298   5.462   3.016
 8863TIP3   OH226531   1.582   0.353   4.648
 8863TIP3    H126532   1.571   0.295   4.573
 8863TIP3    H226533   1.597   0.295   4.723
 8864TIP3   OH226534   7.727   6.125   5.557
 8864TIP3    H126535   7.689   6.038   5.571
 8864TIP3    H226536   7.812   6.108   5.517
 8865TIP3   OH226537   4.834   4.895   6.223
 8865TIP3    H126538   4.873   4.846   6.295
 8865TIP3    H226539   4.898   4.962   6.201
 8866TIP3   OH226540   7.533   2.361   1.322
 8866TIP3    H126541   7.497   2.370   1.234
 8866TIP3    H226542   7.498   2.278   1.354
 8867TIP3   OH226543   3.562   7.318   5.600
 8867TIP3    H126544   3.557   7.397   5.654
 8867TIP3    H226545   3.633   7.336   5.539
 8868TIP3   OH226546   6.939   0.377   5.381
 8868TIP3    H126547   6.996   0.410   5.312
 8868TIP3    H226548   6.997   0.364   5.456
 8869TIP3   OH226549   2.187   5.969   2.968
 8869TIP3    H126550   2.248   5.921   2.913
 8869TIP3    H226551   2.104   5.922   2.960
 8870TIP3   OH226552   1.427   4.823   5.309
 8870TIP3    H126553   1.486   4.897   5.318
 8870TIP3    H226554   1.354   4.857   5.257
 8871TIP3   OH226555   6.358   0.384   5.138
 8871TIP3    H126556   6.397   0.382   5.051
 8871TIP3    H226557   6.344   0.477   5.156
 8872TIP3   OH226558   6.744   1.878   0.429
 8872TIP3    H126559   6.802   1.810   0.464
 8872TIP3    H226560   6.775   1.959   0.469
 8873TIP3   OH226561   5.096   6.214   3.406
 8873TIP3    H126562   5.126   6.251   3.488
 8873TIP3    H226563   5.170   6.225   3.346
 8874TIP3   OH226564   6.269   3.366   0.822
 8874TIP3    H126565   6.338   3.307   0.793
 8874TIP3    H226566   6.314   3.446   0.846
 8875TIP3   OH226567   7.618   0.776   4.090
 8875TIP3    H126568   7.570   0.858   4.101
 8875TIP3    H226569   7.618   0.761   3.995
 8876TIP3   OH226570   7.477   1.291   2.198
 8876TIP3    H126571   7.437   1.218   2.247
 8876TIP3    H226572   7.480   1.261   2.108
 8877TIP3   OH226573   6.922   2.358   0.891
 8877TIP3    H126574   6.950   2.297   0.824
 8877TIP3    H226575   6.989   2.426   0.892
 8878TIP3   OH226576   4.930   3.967   0.426
 8878TIP3    H126577   4.950   3.972   0.332
 8878TIP3    H226578   4.917   3.874   0.442
 8879TIP3   OH226579   1.333   1.234   3.533
 8879TIP3    H126580   1.325   1.299   3.602
 8879TIP3    H226581   1.247   1.194   3.528
 8880TIP3   OH226582   3.627   7.193   4.785
 8880TIP3    H126583   3.689   7.140   4.736
 8880TIP3    H226584   3.614   7.146   4.868
 8881TIP3   OH226585   3.122   5.561   4.953
 8881TIP3    H126586   3.148   5.517   4.872
 8881TIP3    H226587   3.161   5.508   5.023
 8882TIP3   OH226588   3.225   0.840   5.609
 8882TIP3    H126589   3.183   0.925   5.615
 8882TIP3    H226590   3.261   0.825   5.697
 8883TIP3   OH226591   3.535   6.412   4.257
 8883TIP3    H126592   3.606   6.348   4.268
 8883TIP3    H226593   3.567   6.471   4.189
 8884TIP3   OH226594   5.023   3.601   4.638
 8884TIP3    H126595   5.100   3.545   4.648
 8884TIP3    H226596   5.033   3.640   4.551
 8885TIP3   OH226597   7.280   6.495   1.761
 8885TIP3    H126598   7.312   6.528   1.844
 8885TIP3    H226599   7.227   6.419   1.784
 8886TIP3   OH226600   4.490   2.413   4.536
 8886TIP3    H126601   4.565   2.465   4.509
 8886TIP3    H226602   4.505   2.327   4.497
 8887TIP3   OH226603   1.350   2.852   6.117
 8887TIP3    H126604   1.346   2.835   6.211
 8887TIP3    H226605   1.441   2.831   6.094
 8888TIP3   OH226606   5.537   1.189   6.474
 8888TIP3    H126607   5.517   1.283   6.473
 8888TIP3    H226608   5.534   1.164   6.566
 8889TIP3   OH226609   6.886   3.521   6.309
 8889TIP3    H126610   6.830   3.599   6.302
 8889TIP3    H226611   6.915   3.505   6.220
 8890TIP3   OH226612   7.782   4.472   4.878
 8890TIP3    H126613   7.806   4.399   4.934
 8890TIP3    H226614   7.756   4.542   4.938
 8891TIP3   OH226615   5.606   4.257   0.781
 8891TIP3    H126616   5.519   4.219   0.791
 8891TIP3    H226617   5.635   4.272   0.871
 8892TIP3   OH226618   0.513   1.802   3.249
 8892TIP3    H126619   0.466   1.775   3.171
 8892TIP3    H226620   0.454   1.863   3.293
 8893TIP3   OH226621   4.838   3.848   5.002
 8893TIP3    H126622   4.797   3.820   4.920
 8893TIP3    H226623   4.781   3.919   5.034
 8894TIP3   OH226624   4.607   0.767   0.710
 8894TIP3    H126625   4.646   0.688   0.672
 8894TIP3    H226626   4.554   0.804   0.639
 8895TIP3   OH226627   3.608   5.330   3.190
 8895TIP3    H126628   3.529   5.277   3.190
 8895TIP3    H226629   3.616   5.362   3.280
 8896TIP3   OH226630   6.590   5.493   2.501
 8896TIP3    H126631   6.612   5.569   2.554
 8896TIP3    H226632   6.663   5.485   2.439
 8897TIP3   OH226633   2.681   5.360   3.774
 8897TIP3    H126634   2.717   5.271   3.778
 8897TIP3    H226635   2.612   5.356   3.708
 8898TIP3   OH226636   1.389   5.842   1.014
 8898TIP3    H126637   1.457   5.898   0.977
 8898TIP3    H226638   1.404   5.844   1.108
 8899TIP3   OH226639   0.592   5.705   3.971
 8899TIP3    H126640   0.571   5.769   3.903
 8899TIP3    H226641   0.669   5.659   3.938
 8900TIP3   OH226642   7.765   7.521   2.376
 8900TIP3    H126643   7.780   7.537   2.469
 8900TIP3    H226644   7.788   7.603   2.333
 8901TIP3   OH226645   6.632   4.226   4.494
 8901TIP3    H126646   6.590   4.311   4.506
 8901TIP3    H226647   6.706   4.243   4.436
 8902TIP3   OH226648   8.287   3.481   4.785
 8902TIP3    H126649   8.372   3.504   4.746
 8902TIP3    H226650   8.307   3.405   4.840
 8903TIP3   OH226651   6.448   4.613   6.305
 8903TIP3    H126652   6.484   4.533   6.269
 8903TIP3    H226653   6.465   4.680   6.239
 8904TIP3   OH226654   3.016   4.053   0.006
 8904TIP3    H126655   2.975   3.967   0.016
 8904TIP3    H226656   2.951   4.114   0.042
 8905TIP3   OH226657   7.693   1.531   3.721
 8905TIP3    H126658   7.629   1.467   3.687
 8905TIP3    H226659   7.767   1.477   3.749
 8906TIP3   OH226660   6.386   7.310   5.272
 8906TIP3    H126661   6.442   7.353   5.207
 8906TIP3    H226662   6.446   7.256   5.322
 8907TIP3   OH226663   7.631   1.454   2.997
 8907TIP3    H126664   7.585   1.517   3.052
 8907TIP3    H226665   7.724   1.478   3.006
 8908TIP3   OH226666   5.985   5.760   5.862
 8908TIP3    H126667   6.037   5.681   5.877
 8908TIP3    H226668   6.047   5.824   5.828
 8909TIP3   OH226669   3.920   5.211   4.583
 8909TIP3    H126670   3.860   5.145   4.549
 8909TIP3    H226671   3.907   5.287   4.527
 8910TIP3   OH226672   3.198   1.294   6.507
 8910TIP3    H126673   3.233   1.317   6.593
 8910TIP3    H226674   3.215   1.200   6.499
 8911TIP3   OH226675   2.431   3.282   0.850
 8911TIP3    H126676   2.462   3.331   0.926
 8911TIP3    H226677   2.340   3.262   0.870
 8912TIP3   OH226678   6.584   6.471   5.923
 8912TIP3    H126679   6.616   6.561   5.922
 8912TIP3    H226680   6.497   6.477   5.962
 8913TIP3   OH226681   1.290   3.067   1.702
 8913TIP3    H126682   1.289   3.023   1.787
 8913TIP3    H226683   1.209   3.037   1.659
 8914TIP3   OH226684   2.127   1.595   4.971
 8914TIP3    H126685   2.221   1.615   4.977
 8914TIP3    H226686   2.089   1.673   4.932
 8915TIP3   OH226687   7.773   2.746   1.506
 8915TIP3    H126688   7.681   2.764   1.523
 8915TIP3    H226689   7.775   2.656   1.473
 8916TIP3   OH226690   6.482   1.939   4.633
 8916TIP3    H126691   6.555   1.889   4.598
 8916TIP3    H226692   6.509   2.031   4.624
 8917TIP3   OH226693   0.071   7.741   5.281
 8917TIP3    H126694   0.087   7.816   5.224
 8917TIP3    H226695   0.151   7.689   5.275
 8918TIP3   OH226696   7.311   1.419   3.389
 8918TIP3    H126697   7.245   1.356   3.362
 8918TIP3    H226698   7.262   1.497   3.413
 8919TIP3   OH226699   1.881   6.724   4.724
 8919TIP3    H126700   1.941   6.771   4.666
 8919TIP3    H226701   1.875   6.636   4.685
 8920TIP3   OH226702   5.755   5.239   5.636
 8920TIP3    H126703   5.793   5.157   5.604
 8920TIP3    H226704   5.765   5.300   5.563
 8921TIP3   OH226705   4.036   2.864   2.984
 8921TIP3    H126706   4.107   2.815   2.944
 8921TIP3    H226707   4.025   2.942   2.929
 8922TIP3   OH226708   7.411   7.058   2.996
 8922TIP3    H126709   7.495   7.012   3.006
 8922TIP3    H226710   7.363   7.005   2.932
 8923TIP3   OH226711   0.523   3.328   4.615
 8923TIP3    H126712   0.575   3.405   4.638
 8923TIP3    H226713   0.455   3.324   4.682
 8924TIP3   OH226714   7.307   5.836   0.762
 8924TIP3    H126715   7.400   5.826   0.786
 8924TIP3    H226716   7.260   5.786   0.829
 8925TIP3   OH226717   2.359   3.912   6.026
 8925TIP3    H126718   2.309   3.861   5.962
 8925TIP3    H226719   2.433   3.946   5.976
 8926TIP3   OH226720   1.200   6.454   0.317
 8926TIP3    H126721   1.153   6.434   0.236
 8926TIP3    H226722   1.169   6.388   0.380
 8927TIP3   OH226723   1.003   0.846   1.728
 8927TIP3    H126724   0.964   0.762   1.749
 8927TIP3    H226725   1.063   0.827   1.655
 8928TIP3   OH226726   1.773   0.993   3.208
 8928TIP3    H126727   1.823   0.931   3.155
 8928TIP3    H226728   1.773   1.073   3.155
 8929TIP3   OH226729   3.124   0.008   5.927
 8929TIP3    H126730   3.143   0.011   5.833
 8929TIP3    H226731   3.138   0.097   5.957
 8930TIP3   OH226732   5.274   4.557   4.726
 8930TIP3    H126733   5.302   4.575   4.636
 8930TIP3    H226734   5.344   4.504   4.763
 8931TIP3   OH226735   0.835   6.127   4.316
 8931TIP3    H126736   0.800   6.127   4.405
 8931TIP3    H226737   0.758   6.121   4.260
 8932TIP3   OH226738   4.989   2.404   2.140
 8932TIP3    H126739   4.925   2.440   2.080
 8932TIP3    H226740   5.074   2.424   2.100
 8933TIP3   OH226741   2.294   6.440   5.244
 8933TIP3    H126742   2.248   6.357   5.232
 8933TIP3    H226743   2.313   6.470   5.156
 8934TIP3   OH226744   1.555   1.650   2.367
 8934TIP3    H126745   1.466   1.680   2.383
 8934TIP3    H226746   1.601   1.729   2.336
 8935TIP3   OH226747   5.916   4.164   1.376
 8935TIP3    H126748   5.860   4.227   1.422
 8935TIP3    H226749   5.913   4.193   1.285
 8936TIP3   OH226750   1.704   4.776   6.746
 8936TIP3    H126751   1.770   4.826   6.699
 8936TIP3    H226752   1.728   4.684   6.732
 8937TIP3   OH226753   1.043   4.292   3.761
 8937TIP3    H126754   1.003   4.247   3.835
 8937TIP3    H226755   1.087   4.223   3.711
 8938TIP3   OH226756   1.728   1.811   2.226
 8938TIP3    H126757   1.811   1.785   2.185
 8938TIP3    H226758   1.737   1.905   2.240
 8939TIP3   OH226759   5.163   1.423   6.294
 8939TIP3    H126760   5.217   1.494   6.260
 8939TIP3    H226761   5.087   1.467   6.334
 8940TIP3   OH226762   6.892   0.859   1.731
 8940TIP3    H126763   6.955   0.914   1.777
 8940TIP3    H226764   6.885   0.899   1.644
 8941TIP3   OH226765   0.845   7.170   3.936
 8941TIP3    H126766   0.786   7.234   3.976
 8941TIP3    H226767   0.933   7.199   3.962
 8942TIP3   OH226768   4.563   6.605   5.437
 8942TIP3    H126769   4.573   6.546   5.363
 8942TIP3    H226770   4.517   6.552   5.503
 8943TIP3   OH226771   2.873   4.112   0.893
 8943TIP3    H126772   2.896   4.205   0.901
 8943TIP3    H226773   2.853   4.085   0.983
 8944TIP3   OH226774   7.133   3.841   1.855
 8944TIP3    H126775   7.210   3.893   1.832
 8944TIP3    H226776   7.130   3.844   1.951
 8945TIP3   OH226777   6.804   4.323   0.136
 8945TIP3    H126778   6.860   4.249   0.160
 8945TIP3    H226779   6.733   4.320   0.201
 8946TIP3   OH226780   7.035   6.231   4.652
 8946TIP3    H126781   6.940   6.243   4.648
 8946TIP3    H226782   7.064   6.247   4.562
 8947TIP3   OH226783   0.565   4.216   2.850
 8947TIP3    H126784   0.501   4.153   2.817
 8947TIP3    H226785   0.518   4.299   2.854
 8948TIP3   OH226786   3.901   5.139   4.267
 8948TIP3    H126787   3.893   5.200   4.193
 8948TIP3    H226788   3.811   5.125   4.296
 8949TIP3   OH226789   5.273   4.929   6.032
 8949TIP3    H126790   5.289   4.926   6.126
 8949TIP3    H226791   5.179   4.918   6.023
 8950TIP3   OH226792   2.895   3.114   1.190
 8950TIP3    H126793   2.849   3.048   1.138
 8950TIP3    H226794   2.984   3.080   1.198
 8951TIP3   OH226795   7.225   1.947   5.486
 8951TIP3    H126796   7.224   1.986   5.574
 8951TIP3    H226797   7.222   2.021   5.426
 8952TIP3   OH226798   7.939   5.428   5.172
 8952TIP3    H126799   8.007   5.409   5.236
 8952TIP3    H226800   7.922   5.522   5.182
 8953TIP3   OH226801   2.907   6.040   0.831
 8953TIP3    H126802   2.939   6.130   0.828
 8953TIP3    H226803   2.957   5.995   0.763
 8954TIP3   OH226804   3.138   7.757   4.807
 8954TIP3    H126805   3.196   7.791   4.739
 8954TIP3    H226806   3.103   7.835   4.851
 8955TIP3   OH226807   6.674   6.491   6.305
 8955TIP3    H126808   6.602   6.429   6.315
 8955TIP3    H226809   6.677   6.510   6.211
 8956TIP3   OH226810   5.844   3.441   4.790
 8956TIP3    H126811   5.770   3.381   4.786
 8956TIP3    H226812   5.840   3.491   4.709
 8957TIP3   OH226813   8.009   2.954   5.046
 8957TIP3    H126814   7.966   2.873   5.071
 8957TIP3    H226815   8.050   2.986   5.126
 8958TIP3   OH226816   5.587   6.267   0.489
 8958TIP3    H126817   5.673   6.226   0.475
 8958TIP3    H226818   5.591   6.301   0.578
 8959TIP3   OH226819   4.132   3.459   4.539
 8959TIP3    H126820   4.097   3.508   4.613
 8959TIP3    H226821   4.062   3.462   4.473
 8960TIP3   OH226822   3.797   0.355   0.628
 8960TIP3    H126823   3.835   0.279   0.672
 8960TIP3    H226824   3.843   0.359   0.544
 8961TIP3   OH226825   6.311   4.974   4.953
 8961TIP3    H126826   6.265   5.036   4.897
 8961TIP3    H226827   6.346   5.028   5.025
 8962TIP3   OH226828   7.581   6.277   0.023
 8962TIP3    H126829   7.506   6.232   0.061
 8962TIP3    H226830   7.579   6.252  -0.069
 8963TIP3   OH226831   5.276   0.708   2.811
 8963TIP3    H126832   5.235   0.639   2.758
 8963TIP3    H226833   5.364   0.716   2.775
 8964TIP3   OH226834   7.921   6.202   3.925
 8964TIP3    H126835   7.998   6.212   3.982
 8964TIP3    H226836   7.949   6.236   3.841
 8965TIP3   OH226837   1.172   5.371   3.238
 8965TIP3    H126838   1.190   5.448   3.291
 8965TIP3    H226839   1.153   5.302   3.302
 8966TIP3   OH226840   3.120   4.726   5.276
 8966TIP3    H126841   3.213   4.721   5.299
 8966TIP3    H226842   3.098   4.819   5.283
 8967TIP3   OH226843   2.327   2.702   6.615
 8967TIP3    H126844   2.237   2.686   6.642
 8967TIP3    H226845   2.336   2.654   6.532
 8968TIP3   OH226846   6.552   1.918   1.536
 8968TIP3    H126847   6.490   1.971   1.486
 8968TIP3    H226848   6.572   1.845   1.477
 8969TIP3   OH226849   5.559   6.329   5.266
 8969TIP3    H126850   5.469   6.353   5.288
 8969TIP3    H226851   5.566   6.342   5.172
 8970TIP3   OH226852   4.173   3.518   0.115
 8970TIP3    H126853   4.114   3.590   0.135
 8970TIP3    H226854   4.174   3.513   0.020
 8971TIP3   OH226855   3.087   3.277   1.840
 8971TIP3    H126856   3.122   3.228   1.914
 8971TIP3    H226857   3.005   3.314   1.872
 8972TIP3   OH226858   5.971   5.627   1.518
 8972TIP3    H126859   5.924   5.660   1.441
 8972TIP3    H226860   6.063   5.634   1.494
 8973TIP3   OH226861   5.112   6.036   4.204
 8973TIP3    H126862   5.018   6.024   4.190
 8973TIP3    H226863   5.124   6.130   4.210
 8974TIP3   OH226864   1.057   2.437   4.447
 8974TIP3    H126865   1.133   2.430   4.505
 8974TIP3    H226866   1.094   2.456   4.361
 8975TIP3   OH226867   5.296   1.694   3.188
 8975TIP3    H126868   5.286   1.679   3.094
 8975TIP3    H226869   5.213   1.731   3.216
 8976TIP3   OH226870   4.421   6.069   5.056
 8976TIP3    H126871   4.463   6.111   5.131
 8976TIP3    H226872   4.465   6.108   4.980
 8977TIP3   OH226873   3.347   1.575   5.163
 8977TIP3    H126874   3.360   1.576   5.068
 8977TIP3    H226875   3.337   1.482   5.185
 8978TIP3   OH226876   8.302   0.435   2.863
 8978TIP3    H126877   8.364   0.427   2.790
 8978TIP3    H226878   8.234   0.494   2.831
 8979TIP3   OH226879   6.051   7.151  -0.012
 8979TIP3    H126880   6.070   7.225   0.045
 8979TIP3    H226881   6.098   7.077   0.027
 8980TIP3   OH226882   2.254   3.032   6.191
 8980TIP3    H126883   2.279   2.946   6.157
 8980TIP3    H226884   2.217   3.013   6.278
 8981TIP3   OH226885   3.245   2.339   2.946
 8981TIP3    H126886   3.184   2.350   2.874
 8981TIP3    H226887   3.322   2.298   2.906
 8982TIP3   OH226888   4.800   5.611   0.591
 8982TIP3    H126889   4.886   5.621   0.551
 8982TIP3    H226890   4.775   5.520   0.571
 8983TIP3   OH226891   2.410   3.655   1.901
 8983TIP3    H126892   2.503   3.635   1.888
 8983TIP3    H226893   2.406   3.695   1.988
 8984TIP3   OH226894   0.746   5.811   0.428
 8984TIP3    H126895   0.698   5.849   0.502
 8984TIP3    H226896   0.832   5.854   0.430
 8985TIP3   OH226897   6.529   0.323   2.050
 8985TIP3    H126898   6.574   0.390   1.998
 8985TIP3    H226899   6.586   0.311   2.126
 8986TIP3   OH226900   3.467   0.762   0.394
 8986TIP3    H126901   3.431   0.807   0.471
 8986TIP3    H226902   3.562   0.772   0.403
 8987TIP3   OH226903   3.323   5.057   6.532
 8987TIP3    H126904   3.396   5.095   6.580
 8987TIP3    H226905   3.273   5.010   6.598
 8988TIP3   OH226906   5.427   4.286   3.695
 8988TIP3    H126907   5.354   4.295   3.757
 8988TIP3    H226908   5.386   4.291   3.609
 8989TIP3   OH226909   7.602   3.198   4.942
 8989TIP3    H126910   7.582   3.117   4.894
 8989TIP3    H226911   7.637   3.257   4.875
 8990TIP3   OH226912   7.648   0.609   0.068
 8990TIP3    H126913   7.637   0.680   0.005
 8990TIP3    H226914   7.720   0.557   0.033
 8991TIP3   OH226915   2.826   2.569   1.207
 8991TIP3    H126916   2.858   2.630   1.274
 8991TIP3    H226917   2.905   2.539   1.162
 8992TIP3   OH226918   7.127   2.150   1.372
 8992TIP3    H126919   7.218   2.129   1.354
 8992TIP3    H226920   7.078   2.075   1.339
 8993TIP3   OH226921   0.708   1.436   1.166
 8993TIP3    H126922   0.688   1.404   1.077
 8993TIP3    H226923   0.685   1.529   1.163
 8994TIP3   OH226924   1.718   2.130   4.388
 8994TIP3    H126925   1.722   2.218   4.350
 8994TIP3    H226926   1.712   2.144   4.482
 8995TIP3   OH226927   8.117   2.864   6.026
 8995TIP3    H126928   8.162   2.948   6.029
 8995TIP3    H226929   8.031   2.885   5.990
 8996TIP3   OH226930   7.176   3.900   5.680
 8996TIP3    H126931   7.186   3.818   5.632
 8996TIP3    H226932   7.257   3.909   5.729
 8997TIP3   OH226933   3.239   5.565   2.717
 8997TIP3    H126934   3.281   5.577   2.632
 8997TIP3    H226935   3.155   5.524   2.697
 8998TIP3   OH226936   5.534   2.370   3.537
 8998TIP3    H126937   5.497   2.357   3.625
 8998TIP3    H226938   5.478   2.317   3.480
 8999TIP3   OH226939   4.640   4.011   5.099
 8999TIP3    H126940   4.666   4.015   5.191
 8999TIP3    H226941   4.554   3.970   5.099
 9000TIP3   OH226942   7.744   5.238   1.947
 9000TIP3    H126943   7.725   5.240   2.041
 9000TIP3    H226944   7.806   5.310   1.934
 9001TIP3   OH226945   3.048   3.008   3.954
 9001TIP3    H126946   3.115   3.052   3.903
 9001TIP3    H226947   3.096   2.968   4.027
 9002TIP3   OH226948   5.262   4.698   5.886
 9002TIP3    H126949   5.272   4.782   5.931
 9002TIP3    H226950   5.352   4.669   5.870
 9003TIP3   OH226951   0.312   6.692   1.541
 9003TIP3    H126952   0.310   6.635   1.618
 9003TIP3    H226953   0.238   6.662   1.487
 9004TIP3   OH226954   2.807   0.324   4.246
 9004TIP3    H126955   2.822   0.411   4.208
 9004TIP3    H226956   2.731   0.336   4.303
 9005TIP3   OH226957   6.444   6.103   0.888
 9005TIP3    H126958   6.511   6.118   0.822
 9005TIP3    H226959   6.485   6.128   0.971
 9006TIP3   OH226960   5.077   5.088   0.300
 9006TIP3    H126961   5.113   5.061   0.384
 9006TIP3    H226962   5.143   5.061   0.236
 9007TIP3   OH226963   5.621   0.763   0.822
 9007TIP3    H126964   5.563   0.687   0.826
 9007TIP3    H226965   5.649   0.776   0.913
 9008TIP3   OH226966   0.426   5.759   4.814
 9008TIP3    H126967   0.361   5.824   4.840
 9008TIP3    H226968   0.376   5.697   4.761
 9009TIP3   OH226969   3.947   7.269   4.739
 9009TIP3    H126970   4.003   7.229   4.805
 9009TIP3    H226971   3.995   7.347   4.710
 9010TIP3   OH226972   7.165   1.309   2.753
 9010TIP3    H126973   7.161   1.226   2.801
 9010TIP3    H226974   7.090   1.359   2.785
 9011TIP3   OH226975   3.740   3.756   2.734
 9011TIP3    H126976   3.748   3.849   2.710
 9011TIP3    H226977   3.695   3.757   2.819
 9012TIP3   OH226978   7.724   4.488   6.359
 9012TIP3    H126979   7.733   4.415   6.420
 9012TIP3    H226980   7.771   4.459   6.281
 9013TIP3   OH226981   6.395   7.019   5.319
 9013TIP3    H126982   6.450   6.990   5.246
 9013TIP3    H226983   6.454   7.068   5.376
 9014TIP3   OH226984   4.929   4.813   3.761
 9014TIP3    H126985   4.844   4.818   3.718
 9014TIP3    H226986   4.921   4.742   3.825
 9015TIP3   OH226987   2.033   6.316   1.991
 9015TIP3    H126988   2.076   6.264   1.924
 9015TIP3    H226989   2.099   6.329   2.059
 9016TIP3   OH226990   3.453   2.667   0.432
 9016TIP3    H126991   3.360   2.646   0.418
 9016TIP3    H226992   3.499   2.586   0.412
 9017TIP3   OH226993   1.204   6.415   4.553
 9017TIP3    H126994   1.255   6.485   4.513
 9017TIP3    H226995   1.126   6.408   4.498
 9018TIP3   OH226996   6.539   4.678   0.708
 9018TIP3    H126997   6.624   4.712   0.734
 9018TIP3    H226998   6.477   4.747   0.731
 9019TIP3   OH226999   1.296   1.646   5.680
 9019TIP3    H127000   1.380   1.642   5.634
 9019TIP3    H227001   1.307   1.715   5.744
 9020TIP3   OH227002   3.237   2.574   2.697
 9020TIP3    H127003   3.284   2.573   2.780
 9020TIP3    H227004   3.203   2.485   2.688
 9021TIP3   OH227005   5.902   0.052   3.542
 9021TIP3    H127006   5.957   0.114   3.589
 9021TIP3    H227007   5.963  -0.003   3.494
 9022TIP3   OH227008   1.964   5.727   2.123
 9022TIP3    H127009   1.921   5.670   2.060
 9022TIP3    H227010   1.892   5.764   2.175
 9023TIP3   OH227011   0.616   4.512   0.448
 9023TIP3    H127012   0.522   4.501   0.435
 9023TIP3    H227013   0.632   4.476   0.535
 9024TIP3   OH227014   1.285   0.616   2.724
 9024TIP3    H127015   1.290   0.522   2.707
 9024TIP3    H227016   1.352   0.632   2.791
 9025TIP3   OH227017   3.502   7.485   5.803
 9025TIP3    H127018   3.438   7.433   5.852
 9025TIP3    H227019   3.454   7.564   5.777
 9026TIP3   OH227020   6.194   6.124   4.318
 9026TIP3    H127021   6.204   6.113   4.223
 9026TIP3    H227022   6.171   6.216   4.330
 9027TIP3   OH227023   4.832   4.908   0.131
 9027TIP3    H127024   4.907   4.870   0.086
 9027TIP3    H227025   4.806   4.982   0.077
 9028TIP3   OH227026   0.397   5.576   4.117
 9028TIP3    H127027   0.475   5.621   4.086
 9028TIP3    H227028   0.356   5.637   4.178
 9029TIP3   OH227029   6.155   5.872   2.356
 9029TIP3    H127030   6.116   5.785   2.348
 9029TIP3    H227031   6.213   5.879   2.280
 9030TIP3   OH227032   1.558   2.472   1.677
 9030TIP3    H127033   1.516   2.492   1.593
 9030TIP3    H227034   1.635   2.420   1.654
 9031TIP3   OH227035   1.492   6.931   3.959
 9031TIP3    H127036   1.586   6.929   3.980
 9031TIP3    H227037   1.486   6.989   3.884
 9032TIP3   OH227038   3.208   1.221   3.540
 9032TIP3    H127039   3.298   1.245   3.516
 9032TIP3    H227040   3.165   1.304   3.559
 9033TIP3   OH227041   5.216   2.221   2.067
 9033TIP3    H127042   5.222   2.264   2.152
 9033TIP3    H227043   5.286   2.261   2.015
 9034TIP3   OH227044   3.541   4.127   2.022
 9034TIP3    H127045   3.549   4.059   2.089
 9034TIP3    H227046   3.607   4.104   1.957
 9035TIP3   OH227047   4.220   3.662   2.023
 9035TIP3    H127048   4.146   3.630   1.971
 9035TIP3    H227049   4.250   3.740   1.977
 9036TIP3   OH227050   5.939   6.264   2.516
 9036TIP3    H127051   5.994   6.187   2.532
 9036TIP3    H227052   5.937   6.311   2.599
 9037TIP3   OH227053   5.459   6.964   4.358
 9037TIP3    H127054   5.541   6.971   4.406
 9037TIP3    H227055   5.409   7.041   4.385
 9038TIP3   OH227056   6.447   1.602   6.509
 9038TIP3    H127057   6.496   1.537   6.559
 9038TIP3    H227058   6.412   1.662   6.576
 9039TIP3   OH227059   5.280   4.651   1.052
 9039TIP3    H127060   5.238   4.578   1.096
 9039TIP3    H227061   5.223   4.726   1.070
 9040TIP3   OH227062   2.508   0.361   1.964
 9040TIP3    H127063   2.421   0.363   1.924
 9040TIP3    H227064   2.547   0.280   1.930
 9041TIP3   OH227065   4.492   5.259   0.730
 9041TIP3    H127066   4.443   5.205   0.791
 9041TIP3    H227067   4.426   5.295   0.671
 9042TIP3   OH227068   6.993   5.092   1.810
 9042TIP3    H127069   7.072   5.057   1.851
 9042TIP3    H227070   6.935   5.112   1.883
 9043TIP3   OH227071   6.459   1.103   0.459
 9043TIP3    H127072   6.493   1.183   0.499
 9043TIP3    H227073   6.509   1.093   0.378
 9044TIP3   OH227074   5.097   0.356   6.082
 9044TIP3    H127075   5.131   0.347   6.170
 9044TIP3    H227076   5.160   0.412   6.037
 9045TIP3   OH227077   4.576   0.969   3.998
 9045TIP3    H127078   4.609   0.961   3.909
 9045TIP3    H227079   4.624   0.902   4.047
 9046TIP3   OH227080   1.059   7.420   2.164
 9046TIP3    H127081   1.115   7.343   2.169
 9046TIP3    H227082   1.073   7.454   2.076
 9047TIP3   OH227083   0.809   0.794   0.894
 9047TIP3    H127084   0.836   0.767   0.982
 9047TIP3    H227085   0.868   0.866   0.873
 9048TIP3   OH227086   7.919   5.888   2.137
 9048TIP3    H127087   7.987   5.820   2.138
 9048TIP3    H227088   7.967   5.970   2.124
 9049TIP3   OH227089   5.671   4.869   3.201
 9049TIP3    H127090   5.729   4.847   3.273
 9049TIP3    H227091   5.589   4.894   3.243
 9050TIP3   OH227092   1.652   1.685   6.496
 9050TIP3    H127093   1.674   1.776   6.475
 9050TIP3    H227094   1.676   1.676   6.588
 9051TIP3   OH227095   5.611   1.590   1.292
 9051TIP3    H127096   5.673   1.656   1.264
 9051TIP3    H227097   5.594   1.610   1.384
 9052TIP3   OH227098   0.172   2.555   6.398
 9052TIP3    H127099   0.135   2.606   6.470
 9052TIP3    H227100   0.096   2.531   6.344
 9053TIP3   OH227101   0.695   1.121   5.427
 9053TIP3    H127102   0.752   1.044   5.431
 9053TIP3    H227103   0.756   1.195   5.419
 9054TIP3   OH227104   1.602   7.553   1.005
 9054TIP3    H127105   1.556   7.635   1.021
 9054TIP3    H227106   1.533   7.487   1.004
 9055TIP3   OH227107   5.032   6.806   4.651
 9055TIP3    H127108   4.958   6.793   4.592
 9055TIP3    H227109   5.009   6.756   4.730
 9056TIP3   OH227110   4.311   1.163   0.281
 9056TIP3    H127111   4.244   1.149   0.213
 9056TIP3    H227112   4.261   1.166   0.363
 9057TIP3   OH227113   4.629   6.608   0.895
 9057TIP3    H127114   4.661   6.623   0.806
 9057TIP3    H227115   4.572   6.683   0.912
 9058TIP3   OH227116   3.568   4.508   6.140
 9058TIP3    H127117   3.635   4.575   6.152
 9058TIP3    H227118   3.536   4.489   6.228
 9059TIP3   OH227119   2.611   6.327   2.674
 9059TIP3    H127120   2.635   6.339   2.766
 9059TIP3    H227121   2.692   6.338   2.625
 9060TIP3   OH227122   4.096   4.876   3.755
 9060TIP3    H127123   4.078   4.878   3.661
 9060TIP3    H227124   4.105   4.784   3.776
 9061TIP3   OH227125   5.364   1.639   0.832
 9061TIP3    H127126   5.411   1.559   0.812
 9061TIP3    H227127   5.425   1.689   0.887
 9062TIP3   OH227128   4.553   6.379   4.669
 9062TIP3    H127129   4.462   6.364   4.641
 9062TIP3    H227130   4.601   6.304   4.635
 9063TIP3   OH227131   6.504   1.413   0.418
 9063TIP3    H127132   6.448   1.458   0.481
 9063TIP3    H227133   6.448   1.401   0.341
 9064TIP3   OH227134   8.076   4.661   1.565
 9064TIP3    H127135   8.139   4.709   1.512
 9064TIP3    H227136   8.000   4.719   1.570
 9065TIP3   OH227137   5.090   4.683   4.086
 9065TIP3    H127138   5.020   4.628   4.051
 9065TIP3    H227139   5.049   4.769   4.097
 9066TIP3   OH227140   6.058   6.097   1.135
 9066TIP3    H127141   5.993   6.037   1.099
 9066TIP3    H227142   6.120   6.112   1.064
 9067TIP3   OH227143   6.740   4.443   3.651
 9067TIP3    H127144   6.684   4.482   3.584
 9067TIP3    H227145   6.679   4.405   3.715
 9068TIP3   OH227146   8.150   3.693   1.298
 9068TIP3    H127147   8.232   3.675   1.345
 9068TIP3    H227148   8.159   3.646   1.215
 9069TIP3   OH227149   4.651   4.324   6.826
 9069TIP3    H127150   4.698   4.356   6.748
 9069TIP3    H227151   4.568   4.290   6.791
 9070TIP3   OH227152   1.347   5.349   2.254
 9070TIP3    H127153   1.390   5.404   2.319
 9070TIP3    H227154   1.305   5.280   2.305
 9071TIP3   OH227155   2.534   6.975   3.938
 9071TIP3    H127156   2.580   6.895   3.965
 9071TIP3    H227157   2.577   7.000   3.856
 9072TIP3   OH227158   0.423   1.602   2.419
 9072TIP3    H127159   0.328   1.606   2.407
 9072TIP3    H227160   0.451   1.693   2.425
 9073TIP3   OH227161   6.886   1.990   2.929
 9073TIP3    H127162   6.968   1.986   2.978
 9073TIP3    H227163   6.888   2.074   2.884
 9074TIP3   OH227164   1.086   0.736   3.300
 9074TIP3    H127165   0.993   0.759   3.312
 9074TIP3    H227166   1.095   0.723   3.206
 9075TIP3   OH227167   6.021   2.492   6.028
 9075TIP3    H127168   6.097   2.442   5.996
 9075TIP3    H227169   5.951   2.428   6.034
 9076TIP3   OH227170   3.616   5.765   0.227
 9076TIP3    H127171   3.610   5.856   0.199
 9076TIP3    H227172   3.527   5.730   0.217
 9077TIP3   OH227173   4.711   4.697   1.828
 9077TIP3    H127174   4.671   4.748   1.757
 9077TIP3    H227175   4.637   4.674   1.885
 9078TIP3   OH227176   3.803   1.298   2.923
 9078TIP3    H127177   3.709   1.319   2.922
 9078TIP3    H227178   3.827   1.300   3.016
 9079TIP3   OH227179   7.604   4.023   6.711
 9079TIP3    H127180   7.513   4.052   6.714
 9079TIP3    H227181   7.628   4.026   6.618
 9080TIP3   OH227182   2.512   3.796   0.296
 9080TIP3    H127183   2.485   3.882   0.326
 9080TIP3    H227184   2.430   3.748   0.282
 9081TIP3   OH227185   6.252   1.761   4.574
 9081TIP3    H127186   6.327   1.821   4.570
 9081TIP3    H227187   6.189   1.797   4.512
 9082TIP3   OH227188   3.721   1.497   1.858
 9082TIP3    H127189   3.665   1.547   1.799
 9082TIP3    H227190   3.676   1.413   1.869
 9083TIP3   OH227191   0.733   2.155   2.834
 9083TIP3    H127192   0.727   2.198   2.749
 9083TIP3    H227193   0.712   2.064   2.817
 9084TIP3   OH227194   4.586   6.767   4.412
 9084TIP3    H127195   4.576   6.758   4.507
 9084TIP3    H227196   4.496   6.773   4.379
 9085TIP3   OH227197   5.294   1.333   6.642
 9085TIP3    H127198   5.221   1.384   6.605
 9085TIP3    H227199   5.269   1.242   6.626
 9086TIP3   OH227200   0.041   6.678   3.049
 9086TIP3    H127201  -0.017   6.640   3.115
 9086TIP3    H227202  -0.012   6.680   2.969
 9087TIP3   OH227203   8.163   5.761   0.942
 9087TIP3    H127204   8.245   5.801   0.971
 9087TIP3    H227205   8.170   5.669   0.968
 9088TIP3   OH227206   5.867   2.028   5.591
 9088TIP3    H127207   5.941   1.986   5.547
 9088TIP3    H227208   5.801   1.959   5.600
 9089TIP3   OH227209   7.589   0.766   3.477
 9089TIP3    H127210   7.574   0.784   3.384
 9089TIP3    H227211   7.579   0.852   3.520
 9090TIP3   OH227212   1.043   2.333   6.379
 9090TIP3    H127213   0.996   2.409   6.346
 9090TIP3    H227214   1.108   2.314   6.311
 9091TIP3   OH227215   6.508   4.721   5.562
 9091TIP3    H127216   6.506   4.651   5.496
 9091TIP3    H227217   6.418   4.751   5.568
 9092TIP3   OH227218   7.204   2.887   5.729
 9092TIP3    H127219   7.115   2.922   5.739
 9092TIP3    H227220   7.234   2.872   5.818
 9093TIP3   OH227221   8.046   3.851   2.534
 9093TIP3    H127222   8.033   3.805   2.618
 9093TIP3    H227223   8.030   3.943   2.555
 9094TIP3   OH227224   7.934   0.882   0.652
 9094TIP3    H127225   7.916   0.788   0.656
 9094TIP3    H227226   7.885   0.912   0.575
 9095TIP3   OH227227   0.823   1.540   6.039
 9095TIP3    H127228   0.795   1.588   6.116
 9095TIP3    H227229   0.850   1.454   6.072
 9096TIP3   OH227230   5.243   0.060   5.568
 9096TIP3    H127231   5.218   0.078   5.658
 9096TIP3    H227232   5.161   0.037   5.524
 9097TIP3   OH227233   6.991   1.494   1.209
 9097TIP3    H127234   6.927   1.516   1.141
 9097TIP3    H227235   6.967   1.405   1.236
 9098TIP3   OH227236   0.654   7.604   4.460
 9098TIP3    H127237   0.694   7.545   4.396
 9098TIP3    H227238   0.587   7.551   4.502
 9099TIP3   OH227239   0.442   0.074   3.465
 9099TIP3    H127240   0.398   0.141   3.516
 9099TIP3    H227241   0.400  -0.008   3.492
 9100TIP3   OH227242   1.966   7.801   2.071
 9100TIP3    H127243   1.970   7.714   2.032
 9100TIP3    H227244   1.966   7.862   1.997
 9101TIP3   OH227245   2.696   6.181   5.012
 9101TIP3    H127246   2.702   6.150   5.102
 9101TIP3    H227247   2.663   6.105   4.963
 9102TIP3   OH227248   5.463   7.173   1.785
 9102TIP3    H127249   5.370   7.193   1.769
 9102TIP3    H227250   5.501   7.257   1.810
 9103TIP3   OH227251   3.324   3.661   4.256
 9103TIP3    H127252   3.312   3.664   4.161
 9103TIP3    H227253   3.241   3.625   4.289
 9104TIP3   OH227254   1.932   5.826   6.464
 9104TIP3    H127255   1.844   5.857   6.442
 9104TIP3    H227256   1.978   5.825   6.380
 9105TIP3   OH227257   5.654   5.011   0.734
 9105TIP3    H127258   5.709   4.940   0.767
 9105TIP3    H227259   5.624   5.057   0.813
 9106TIP3   OH227260   3.295   6.867   5.692
 9106TIP3    H127261   3.259   6.850   5.779
 9106TIP3    H227262   3.322   6.959   5.695
 9107TIP3   OH227263   2.632   4.266   0.360
 9107TIP3    H127264   2.641   4.360   0.379
 9107TIP3    H227265   2.718   4.241   0.325
 9108TIP3   OH227266   5.091   2.231   5.576
 9108TIP3    H127267   5.021   2.166   5.568
 9108TIP3    H227268   5.095   2.274   5.491
 9109TIP3   OH227269   2.254   5.182   6.371
 9109TIP3    H127270   2.258   5.263   6.420
 9109TIP3    H227271   2.341   5.171   6.333
 9110TIP3   OH227272   4.553   2.676   0.291
 9110TIP3    H127273   4.475   2.725   0.266
 9110TIP3    H227274   4.625   2.739   0.282
 9111TIP3   OH227275   0.345   0.602   4.351
 9111TIP3    H127276   0.285   0.544   4.398
 9111TIP3    H227277   0.309   0.690   4.363
 9112TIP3   OH227278   2.426   0.724   2.057
 9112TIP3    H127279   2.340   0.694   2.029
 9112TIP3    H227280   2.458   0.657   2.117
 9113TIP3   OH227281   4.226   7.056   1.124
 9113TIP3    H127282   4.301   7.016   1.080
 9113TIP3    H227283   4.261   7.084   1.209
 9114TIP3   OH227284   3.610   7.080   0.555
 9114TIP3    H127285   3.539   7.095   0.617
 9114TIP3    H227286   3.617   6.985   0.547
 9115TIP3   OH227287   5.113   0.451   4.726
 9115TIP3    H127288   5.192   0.458   4.673
 9115TIP3    H227289   5.041   0.466   4.664
 9116TIP3   OH227290   1.465   0.806   5.702
 9116TIP3    H127291   1.426   0.787   5.616
 9116TIP3    H227292   1.550   0.844   5.682
 9117TIP3   OH227293   0.423   4.588   2.028
 9117TIP3    H127294   0.484   4.601   2.101
 9117TIP3    H227295   0.360   4.524   2.060
 9118TIP3   OH227296   0.350   3.890   3.596
 9118TIP3    H127297   0.288   3.953   3.632
 9118TIP3    H227298   0.414   3.943   3.549
 9119TIP3   OH227299   5.343   3.948   3.344
 9119TIP3    H127300   5.328   3.965   3.437
 9119TIP3    H227301   5.255   3.948   3.306
 9120TIP3   OH227302   7.361   3.979   1.871
 9120TIP3    H127303   7.419   3.979   1.947
 9120TIP3    H227304   7.415   3.943   1.800
 9121TIP3   OH227305   3.412   4.845   6.312
 9121TIP3    H127306   3.497   4.877   6.282
 9121TIP3    H227307   3.380   4.913   6.371
 9122TIP3   OH227308   5.789   5.703   3.996
 9122TIP3    H127309   5.805   5.661   3.911
 9122TIP3    H227310   5.717   5.764   3.979
 9123TIP3   OH227311   3.528   0.991   1.106
 9123TIP3    H127312   3.603   0.952   1.151
 9123TIP3    H227313   3.561   1.011   1.018
 9124TIP3   OH227314   3.826   5.136   3.480
 9124TIP3    H127315   3.861   5.221   3.452
 9124TIP3    H227316   3.847   5.131   3.573
 9125TIP3   OH227317  -0.025   5.088   0.891
 9125TIP3    H127318  -0.023   4.996   0.918
 9125TIP3    H227319   0.066   5.115   0.894
 9126TIP3   OH227320   2.974   6.731   3.462
 9126TIP3    H127321   2.934   6.725   3.549
 9126TIP3    H227322   2.916   6.789   3.413
 9127TIP3   OH227323   8.035   1.405   5.571
 9127TIP3    H127324   8.053   1.328   5.625
 9127TIP3    H227325   8.089   1.394   5.493
 9128TIP3   OH227326   0.572   2.615   5.257
 9128TIP3    H127327   0.530   2.648   5.178
 9128TIP3    H227328   0.572   2.520   5.248
 9129TIP3   OH227329   8.019   5.826   4.463
 9129TIP3    H127330   8.079   5.790   4.529
 9129TIP3    H227331   7.973   5.749   4.428
 9130TIP3   OH227332   1.358   7.730   1.892
 9130TIP3    H127333   1.348   7.653   1.836
 9130TIP3    H227334   1.291   7.719   1.960
 9131TIP3   OH227335   3.773   4.123   0.106
 9131TIP3    H127336   3.700   4.185   0.096
 9131TIP3    H227337   3.850   4.172   0.076
 9132TIP3   OH227338   3.924   0.277   1.612
 9132TIP3    H127339   3.894   0.296   1.701
 9132TIP3    H227340   3.979   0.351   1.588
 9133TIP3   OH227341   4.821   6.192   1.212
 9133TIP3    H127342   4.745   6.188   1.271
 9133TIP3    H227343   4.800   6.262   1.151
 9134TIP3   OH227344   1.097   3.258   4.234
 9134TIP3    H127345   1.011   3.296   4.213
 9134TIP3    H227346   1.136   3.240   4.148
 9135TIP3   OH227347   2.663   0.788   4.931
 9135TIP3    H127348   2.617   0.833   5.002
 9135TIP3    H227349   2.712   0.718   4.974
 9136TIP3   OH227350   0.928   3.765   5.361
 9136TIP3    H127351   0.845   3.766   5.407
 9136TIP3    H227352   0.962   3.854   5.369
 9137TIP3   OH227353   1.591   4.339   5.933
 9137TIP3    H127354   1.670   4.288   5.949
 9137TIP3    H227355   1.613   4.396   5.859
 9138TIP3   OH227356   7.547   4.784   0.666
 9138TIP3    H127357   7.586   4.792   0.753
 9138TIP3    H227358   7.604   4.722   0.620
 9139TIP3   OH227359   6.179   5.633   3.872
 9139TIP3    H127360   6.135   5.558   3.912
 9139TIP3    H227361   6.267   5.601   3.851
 9140TIP3   OH227362   4.254   1.317   2.307
 9140TIP3    H127363   4.169   1.358   2.291
 9140TIP3    H227364   4.314   1.390   2.319
 9141TIP3   OH227365   0.074   1.619   6.133
 9141TIP3    H127366   0.045   1.710   6.139
 9141TIP3    H227367   0.046   1.590   6.046
 9142TIP3   OH227368   4.200   1.609   4.734
 9142TIP3    H127369   4.155   1.680   4.780
 9142TIP3    H227370   4.205   1.638   4.643
 9143TIP3   OH227371   2.380   0.627   1.160
 9143TIP3    H127372   2.450   0.665   1.107
 9143TIP3    H227373   2.312   0.605   1.096
 9144TIP3   OH227374   0.036   1.563   3.299
 9144TIP3    H127375   0.048   1.628   3.230
 9144TIP3    H227376  -0.046   1.587   3.342
 9145TIP3   OH227377   5.097   4.618   6.487
 9145TIP3    H127378   5.169   4.661   6.534
 9145TIP3    H227379   5.018   4.648   6.532
 9146TIP3   OH227380   3.629   2.174   1.993
 9146TIP3    H127381   3.655   2.117   1.921
 9146TIP3    H227382   3.712   2.202   2.033
 9147TIP3   OH227383   7.247   6.163   3.262
 9147TIP3    H127384   7.199   6.112   3.328
 9147TIP3    H227385   7.200   6.146   3.180
 9148TIP3   OH227386   2.646   2.393   4.956
 9148TIP3    H127387   2.562   2.423   4.991
 9148TIP3    H227388   2.683   2.338   5.025
 9149TIP3   OH227389   7.189   6.136   3.930
 9149TIP3    H127390   7.208   6.055   3.977
 9149TIP3    H227391   7.098   6.156   3.954
 9150TIP3   OH227392   7.871   3.021   5.526
 9150TIP3    H127393   7.858   2.929   5.504
 9150TIP3    H227394   7.906   3.020   5.615
 9151TIP3   OH227395   3.328   5.357   6.297
 9151TIP3    H127396   3.294   5.302   6.368
 9151TIP3    H227397   3.249   5.397   6.259
 9152TIP3   OH227398   3.246   2.833   3.698
 9152TIP3    H127399   3.287   2.766   3.754
 9152TIP3    H227400   3.291   2.824   3.614
 9153TIP3   OH227401   2.157   5.052   0.895
 9153TIP3    H127402   2.245   5.024   0.866
 9153TIP3    H227403   2.110   4.970   0.910
 9154TIP3   OH227404   2.534   6.018   4.102
 9154TIP3    H127405   2.448   5.999   4.066
 9154TIP3    H227406   2.569   6.089   4.048
 9155TIP3   OH227407   4.509   4.413   1.469
 9155TIP3    H127408   4.552   4.396   1.553
 9155TIP3    H227409   4.525   4.335   1.417
 9156TIP3   OH227410   5.965   4.670   5.716
 9156TIP3    H127411   5.917   4.750   5.739
 9156TIP3    H227412   5.903   4.618   5.666
 9157TIP3   OH227413   2.552   2.835   6.167
 9157TIP3    H127414   2.476   2.803   6.120
 9157TIP3    H227415   2.605   2.878   6.100
 9158TIP3   OH227416   7.818   5.758   0.937
 9158TIP3    H127417   7.882   5.765   0.866
 9158TIP3    H227418   7.814   5.665   0.958
 9159TIP3   OH227419   1.452   1.479   2.621
 9159TIP3    H127420   1.463   1.564   2.579
 9159TIP3    H227421   1.404   1.427   2.557
 9160TIP3   OH227422   3.653   7.286   6.366
 9160TIP3    H127423   3.564   7.321   6.354
 9160TIP3    H227424   3.641   7.209   6.421
 9161TIP3   OH227425   4.684   7.769   4.524
 9161TIP3    H127426   4.746   7.822   4.474
 9161TIP3    H227427   4.621   7.833   4.559
 9162TIP3   OH227428   2.154   1.123   4.342
 9162TIP3    H127429   2.189   1.210   4.321
 9162TIP3    H227430   2.077   1.114   4.286
 9163TIP3   OH227431   1.264   1.864   5.303
 9163TIP3    H127432   1.228   1.861   5.392
 9163TIP3    H227433   1.196   1.906   5.251
 9164TIP3   OH227434   0.591   5.077   6.631
 9164TIP3    H127435   0.512   5.036   6.595
 9164TIP3    H227436   0.594   5.047   6.722
 9165TIP3   OH227437   6.736   3.449   2.992
 9165TIP3    H127438   6.821   3.467   2.952
 9165TIP3    H227439   6.730   3.511   3.066
 9166TIP3   OH227440   3.861   7.759   3.344
 9166TIP3    H127441   3.849   7.669   3.375
 9166TIP3    H227442   3.858   7.751   3.249
 9167TIP3   OH227443   7.737   7.531   6.401
 9167TIP3    H127444   7.643   7.542   6.403
 9167TIP3    H227445   7.750   7.436   6.408
 9168TIP3   OH227446   3.460   2.130   6.679
 9168TIP3    H127447   3.534   2.189   6.694
 9168TIP3    H227448   3.482   2.050   6.727
 9169TIP3   OH227449   4.644   6.449   2.480
 9169TIP3    H127450   4.716   6.511   2.483
 9169TIP3    H227451   4.652   6.399   2.561
 9170TIP3   OH227452   1.823   2.769   5.501
 9170TIP3    H127453   1.861   2.839   5.555
 9170TIP3    H227454   1.896   2.738   5.448
 9171TIP3   OH227455   0.989   0.059   0.506
 9171TIP3    H127456   0.968   0.111   0.584
 9171TIP3    H227457   1.083   0.070   0.494
 9172TIP3   OH227458   5.687   7.762   4.434
 9172TIP3    H127459   5.674   7.670   4.411
 9172TIP3    H227460   5.669   7.767   4.528
 9173TIP3   OH227461   6.504   2.470   4.021
 9173TIP3    H127462   6.498   2.447   3.929
 9173TIP3    H227463   6.598   2.466   4.041
 9174TIP3   OH227464   6.729   5.714   4.545
 9174TIP3    H127465   6.668   5.783   4.520
 9174TIP3    H227466   6.808   5.760   4.573
 9175TIP3   OH227467   2.388   0.717   5.540
 9175TIP3    H127468   2.469   0.735   5.493
 9175TIP3    H227469   2.411   0.726   5.633
 9176TIP3   OH227470   5.032   3.681   3.349
 9176TIP3    H127471   4.940   3.696   3.328
 9176TIP3    H227472   5.073   3.768   3.344
 9177TIP3   OH227473   5.682   1.756   0.829
 9177TIP3    H127474   5.696   1.809   0.907
 9177TIP3    H227475   5.745   1.789   0.765
 9178TIP3   OH227476   2.757   6.808   5.424
 9178TIP3    H127477   2.692   6.742   5.399
 9178TIP3    H227478   2.834   6.758   5.450
 9179TIP3   OH227479   5.603   3.672   1.045
 9179TIP3    H127480   5.632   3.612   0.976
 9179TIP3    H227481   5.648   3.754   1.026
 9180TIP3   OH227482   6.211   5.237   0.235
 9180TIP3    H127483   6.146   5.288   0.284
 9180TIP3    H227484   6.286   5.295   0.226
 9181TIP3   OH227485   6.136   3.157   2.036
 9181TIP3    H127486   6.114   3.242   2.074
 9181TIP3    H227487   6.184   3.112   2.105
 9182TIP3   OH227488   5.591   6.040   4.278
 9182TIP3    H127489   5.621   5.951   4.297
 9182TIP3    H227490   5.498   6.030   4.255
 9183TIP3   OH227491   2.356   2.348   6.223
 9183TIP3    H127492   2.331   2.362   6.132
 9183TIP3    H227493   2.297   2.279   6.254
 9184TIP3   OH227494   1.178   5.651   6.348
 9184TIP3    H127495   1.099   5.667   6.401
 9184TIP3    H227496   1.187   5.556   6.346
 9185TIP3   OH227497   2.544   6.152   0.836
 9185TIP3    H127498   2.623   6.205   0.821
 9185TIP3    H227499   2.576   6.074   0.881
 9186TIP3   OH227500   2.342   0.641   3.122
 9186TIP3    H127501   2.268   0.650   3.181
 9186TIP3    H227502   2.313   0.579   3.056
 9187TIP3   OH227503   2.792   1.274   2.443
 9187TIP3    H127504   2.884   1.255   2.424
 9187TIP3    H227505   2.757   1.309   2.361
 9188TIP3   OH227506   1.639   2.688   1.417
 9188TIP3    H127507   1.644   2.601   1.377
 9188TIP3    H227508   1.674   2.747   1.351
 9189TIP3   OH227509   8.023   2.142   0.265
 9189TIP3    H127510   7.996   2.057   0.300
 9189TIP3    H227511   8.080   2.121   0.192
 9190TIP3   OH227512   7.929   2.220   5.781
 9190TIP3    H127513   7.939   2.144   5.838
 9190TIP3    H227514   7.869   2.191   5.712
 9191TIP3   OH227515   2.186   4.663   4.270
 9191TIP3    H127516   2.111   4.655   4.328
 9191TIP3    H227517   2.158   4.724   4.202
 9192TIP3   OH227518   6.896   5.579   3.579
 9192TIP3    H127519   6.894   5.584   3.675
 9192TIP3    H227520   6.830   5.513   3.557
 9193TIP3   OH227521   5.999   2.205   4.474
 9193TIP3    H127522   5.972   2.278   4.418
 9193TIP3    H227523   5.925   2.144   4.470
 9194TIP3   OH227524   1.432   7.188   0.213
 9194TIP3    H127525   1.353   7.136   0.201
 9194TIP3    H227526   1.430   7.215   0.305
 9195TIP3   OH227527   1.148   6.531   2.604
 9195TIP3    H127528   1.170   6.544   2.696
 9195TIP3    H227529   1.138   6.436   2.595
 9196TIP3   OH227530   4.910   0.418   1.005
 9196TIP3    H127531   4.929   0.481   1.074
 9196TIP3    H227532   4.930   0.333   1.044
 9197TIP3   OH227533   1.466   3.493   0.851
 9197TIP3    H127534   1.459   3.430   0.779
 9197TIP3    H227535   1.544   3.467   0.899
 9198TIP3   OH227536   1.041   3.566   5.514
 9198TIP3    H127537   1.012   3.622   5.443
 9198TIP3    H227538   0.972   3.572   5.580
 9199TIP3   OH227539   1.188   3.226   6.538
 9199TIP3    H127540   1.147   3.309   6.511
 9199TIP3    H227541   1.205   3.180   6.456
 9200TIP3   OH227542   1.351   0.092   4.540
 9200TIP3    H127543   1.326   0.159   4.476
 9200TIP3    H227544   1.416   0.039   4.495
 9201TIP3   OH227545   0.927   0.270   4.948
 9201TIP3    H127546   0.867   0.197   4.942
 9201TIP3    H227547   0.930   0.307   4.860
 9202TIP3   OH227548   3.795   5.664   2.648
 9202TIP3    H127549   3.840   5.728   2.593
 9202TIP3    H227550   3.859   5.592   2.657
 9203TIP3   OH227551   6.697   0.077   5.806
 9203TIP3    H127552   6.784   0.059   5.769
 9203TIP3    H227553   6.653   0.128   5.738
 9204TIP3   OH227554   0.787   6.136   3.698
 9204TIP3    H127555   0.731   6.194   3.646
 9204TIP3    H227556   0.758   6.149   3.788
 9205TIP3   OH227557   7.870   1.084   1.649
 9205TIP3    H127558   7.886   1.170   1.611
 9205TIP3    H227559   7.952   1.036   1.635
 9206TIP3   OH227560   5.101   4.651   6.203
 9206TIP3    H127561   5.074   4.645   6.295
 9206TIP3    H227562   5.196   4.637   6.204
 9207TIP3   OH227563   7.401   0.718   5.916
 9207TIP3    H127564   7.463   0.774   5.961
 9207TIP3    H227565   7.397   0.639   5.970
 9208TIP3   OH227566   3.251   5.822   1.994
 9208TIP3    H127567   3.331   5.773   2.014
 9208TIP3    H227568   3.180   5.765   2.025
 9209TIP3   OH227569   0.888   6.527   4.897
 9209TIP3    H127570   0.828   6.597   4.921
 9209TIP3    H227571   0.835   6.447   4.897
 9210TIP3   OH227572   5.807   0.341   2.328
 9210TIP3    H127573   5.716   0.367   2.316
 9210TIP3    H227574   5.816   0.327   2.422
 9211TIP3   OH227575   3.856   7.112   4.547
 9211TIP3    H127576   3.851   7.156   4.463
 9211TIP3    H227577   3.886   7.179   4.608
 9212TIP3   OH227578   6.805   0.316   3.463
 9212TIP3    H127579   6.809   0.227   3.499
 9212TIP3    H227580   6.879   0.361   3.503
 9213TIP3   OH227581   4.309   4.135   2.666
 9213TIP3    H127582   4.233   4.084   2.635
 9213TIP3    H227583   4.287   4.156   2.756
 9214TIP3   OH227584   5.373   5.755   2.122
 9214TIP3    H127585   5.380   5.838   2.169
 9214TIP3    H227586   5.450   5.705   2.150
 9215TIP3   OH227587   4.276   5.149   3.094
 9215TIP3    H127588   4.359   5.185   3.064
 9215TIP3    H227589   4.227   5.129   3.014
 9216TIP3   OH227590   6.210   5.376   3.729
 9216TIP3    H127591   6.164   5.392   3.812
 9216TIP3    H227592   6.140   5.360   3.666
 9217TIP3   OH227593   8.241   5.226   5.787
 9217TIP3    H127594   8.259   5.195   5.876
 9217TIP3    H227595   8.171   5.290   5.799
 9218TIP3   OH227596   4.321   1.598   5.541
 9218TIP3    H127597   4.259   1.669   5.559
 9218TIP3    H227598   4.321   1.590   5.445
 9219TIP3   OH227599   5.592   6.124   5.491
 9219TIP3    H127600   5.572   6.190   5.424
 9219TIP3    H227601   5.550   6.158   5.570
 9220TIP3   OH227602   6.335   2.080   1.428
 9220TIP3    H127603   6.299   2.048   1.345
 9220TIP3    H227604   6.356   2.172   1.411
 9221TIP3   OH227605   6.042   1.937   4.770
 9221TIP3    H127606   6.112   1.883   4.808
 9221TIP3    H227607   6.078   2.026   4.771
 9222TIP3   OH227608   2.952   3.902   1.698
 9222TIP3    H127609   2.862   3.912   1.669
 9222TIP3    H227610   2.990   3.990   1.687
 9223TIP3   OH227611   7.433   3.046   3.008
 9223TIP3    H127612   7.357   3.015   2.959
 9223TIP3    H227613   7.401   3.119   3.060
 9224TIP3   OH227614   0.316   2.328   3.870
 9224TIP3    H127615   0.342   2.347   3.960
 9224TIP3    H227616   0.227   2.292   3.879
 9225TIP3   OH227617   2.654   2.918   1.074
 9225TIP3    H127618   2.625   2.961   0.994
 9225TIP3    H227619   2.750   2.919   1.068
 9226TIP3   OH227620   4.270   7.359   0.942
 9226TIP3    H127621   4.319   7.436   0.970
 9226TIP3    H227622   4.245   7.379   0.851
 9227TIP3   OH227623   4.181   0.192   1.778
 9227TIP3    H127624   4.149   0.118   1.829
 9227TIP3    H227625   4.262   0.161   1.738
 9228TIP3   OH227626   3.487   4.028   2.561
 9228TIP3    H127627   3.577   4.054   2.579
 9228TIP3    H227628   3.494   3.938   2.530
 9229TIP3   OH227629   5.191   5.544   6.530
 9229TIP3    H127630   5.163   5.629   6.497
 9229TIP3    H227631   5.125   5.521   6.596
 9230TIP3   OH227632   3.854   4.530   0.811
 9230TIP3    H127633   3.928   4.495   0.761
 9230TIP3    H227634   3.843   4.468   0.883
 9231TIP3   OH227635   2.155   5.893   4.798
 9231TIP3    H127636   2.090   5.866   4.734
 9231TIP3    H227637   2.113   5.878   4.883
 9232TIP3   OH227638   3.105   0.630   4.061
 9232TIP3    H127639   3.079   0.717   4.090
 9232TIP3    H227640   3.025   0.578   4.065
 9233TIP3   OH227641   0.337   1.066   5.596
 9233TIP3    H127642   0.259   1.120   5.584
 9233TIP3    H227643   0.324   0.992   5.536
 9234TIP3   OH227644   0.686   1.283   1.412
 9234TIP3    H127645   0.734   1.328   1.482
 9234TIP3    H227646   0.699   1.338   1.335
 9235TIP3   OH227647   4.310   6.155   3.869
 9235TIP3    H127648   4.335   6.117   3.785
 9235TIP3    H227649   4.289   6.079   3.924
 9236TIP3   OH227650   0.892   2.523   0.070
 9236TIP3    H127651   0.925   2.443   0.029
 9236TIP3    H227652   0.827   2.493   0.132
 9237TIP3   OH227653   7.623   6.085   6.274
 9237TIP3    H127654   7.571   6.035   6.337
 9237TIP3    H227655   7.653   6.020   6.211
 9238TIP3   OH227656   6.291   4.568   3.503
 9238TIP3    H127657   6.325   4.479   3.509
 9238TIP3    H227658   6.210   4.566   3.555
 9239TIP3   OH227659   0.499   0.256   0.335
 9239TIP3    H127660   0.591   0.276   0.355
 9239TIP3    H227661   0.482   0.173   0.378
 9240TIP3   OH227662   5.828   5.534   4.795
 9240TIP3    H127663   5.858   5.589   4.723
 9240TIP3    H227664   5.795   5.455   4.754
 9241TIP3   OH227665   1.442   4.255   0.095
 9241TIP3    H127666   1.513   4.203   0.135
 9241TIP3    H227667   1.420   4.207   0.016
 9242TIP3   OH227668   7.706   0.484   1.870
 9242TIP3    H127669   7.711   0.388   1.875
 9242TIP3    H227670   7.613   0.503   1.867
 9243TIP3   OH227671   0.227   5.247   1.437
 9243TIP3    H127672   0.268   5.197   1.366
 9243TIP3    H227673   0.232   5.189   1.513
 9244TIP3   OH227674   4.205   2.439   4.659
 9244TIP3    H127675   4.262   2.415   4.586
 9244TIP3    H227676   4.161   2.519   4.630
 9245TIP3   OH227677   8.233   4.511   1.349
 9245TIP3    H127678   8.147   4.485   1.380
 9245TIP3    H227679   8.227   4.508   1.254
 9246TIP3   OH227680   5.570   4.875   1.441
 9246TIP3    H127681   5.485   4.833   1.428
 9246TIP3    H227682   5.556   4.966   1.418
 9247TIP3   OH227683   5.197   5.810   2.859
 9247TIP3    H127684   5.281   5.833   2.818
 9247TIP3    H227685   5.137   5.879   2.831
 9248TIP3   OH227686   2.058   3.202   4.676
 9248TIP3    H127687   2.057   3.296   4.693
 9248TIP3    H227688   2.151   3.181   4.661
 9249TIP3   OH227689   0.680   0.733   4.643
 9249TIP3    H127690   0.591   0.759   4.619
 9249TIP3    H227691   0.686   0.641   4.616
 9250TIP3   OH227692   5.041   0.966   0.595
 9250TIP3    H127693   5.073   0.877   0.609
 9250TIP3    H227694   5.005   0.964   0.506
 9251TIP3   OH227695   5.302   2.414   0.135
 9251TIP3    H127696   5.332   2.327   0.108
 9251TIP3    H227697   5.290   2.461   0.052
 9252TIP3   OH227698   7.977   6.848   4.832
 9252TIP3    H127699   8.040   6.811   4.771
 9252TIP3    H227700   8.030   6.899   4.894
 9253TIP3   OH227701   1.209   6.899   2.295
 9253TIP3    H127702   1.275   6.965   2.317
 9253TIP3    H227703   1.167   6.877   2.379
 9254TIP3   OH227704   7.380   6.474   2.348
 9254TIP3    H127705   7.436   6.414   2.298
 9254TIP3    H227706   7.330   6.520   2.281
 9255TIP3   OH227707   6.218   0.198   1.307
 9255TIP3    H127708   6.186   0.213   1.218
 9255TIP3    H227709   6.282   0.128   1.298
 9256TIP3   OH227710   0.797   3.677   4.109
 9256TIP3    H127711   0.770   3.748   4.167
 9256TIP3    H227712   0.889   3.661   4.131
 9257TIP3   OH227713   4.117   5.136   1.798
 9257TIP3    H127714   4.098   5.166   1.887
 9257TIP3    H227715   4.130   5.217   1.748
 9258TIP3   OH227716   4.148   6.859   4.434
 9258TIP3    H127717   4.139   6.797   4.361
 9258TIP3    H227718   4.086   6.828   4.500
 9259TIP3   OH227719   6.268   7.386   3.722
 9259TIP3    H127720   6.214   7.386   3.643
 9259TIP3    H227721   6.253   7.299   3.760
 9260TIP3   OH227722   1.532   2.571   5.159
 9260TIP3    H127723   1.574   2.604   5.080
 9260TIP3    H227724   1.521   2.648   5.215
 9261TIP3   OH227725   1.690   3.334   6.374
 9261TIP3    H127726   1.641   3.282   6.438
 9261TIP3    H227727   1.782   3.319   6.398
 9262TIP3   OH227728   4.102   1.885   2.965
 9262TIP3    H127729   4.171   1.855   2.906
 9262TIP3    H227730   4.037   1.925   2.908
 9263TIP3   OH227731   6.699   5.186   1.533
 9263TIP3    H127732   6.725   5.247   1.602
 9263TIP3    H227733   6.776   5.131   1.520
 9264TIP3   OH227734   1.352   1.348   2.402
 9264TIP3    H127735   1.405   1.376   2.327
 9264TIP3    H227736   1.262   1.366   2.375
 9265TIP3   OH227737   3.816   0.589   3.008
 9265TIP3    H127738   3.785   0.591   3.099
 9265TIP3    H227739   3.758   0.525   2.965
 9266TIP3   OH227740   5.582   5.557   2.292
 9266TIP3    H127741   5.657   5.577   2.349
 9266TIP3    H227742   5.599   5.468   2.261
 9267TIP3   OH227743   6.583   5.243   2.294
 9267TIP3    H127744   6.631   5.321   2.323
 9267TIP3    H227745   6.638   5.206   2.225
 9268TIP3   OH227746   1.595   4.479   2.265
 9268TIP3    H127747   1.609   4.571   2.285
 9268TIP3    H227748   1.565   4.478   2.174
 9269TIP3   OH227749   1.149   7.152   4.021
 9269TIP3    H127750   1.162   7.106   3.939
 9269TIP3    H227751   1.229   7.136   4.071
 9270TIP3   OH227752   6.938   3.365   4.775
 9270TIP3    H127753   7.025   3.375   4.736
 9270TIP3    H227754   6.923   3.448   4.821
 9271TIP3   OH227755   5.397   2.723   2.091
 9271TIP3    H127756   5.423   2.811   2.119
 9271TIP3    H227757   5.461   2.664   2.130
 9272TIP3   OH227758   1.662   0.448   1.719
 9272TIP3    H127759   1.712   0.525   1.746
 9272TIP3    H227760   1.726   0.390   1.678
 9273TIP3   OH227761   5.414   1.940   3.204
 9273TIP3    H127762   5.359   1.972   3.133
 9273TIP3    H227763   5.400   1.845   3.204
 9274TIP3   OH227764   5.776   1.988   2.175
 9274TIP3    H127765   5.833   1.968   2.100
 9274TIP3    H227766   5.810   2.070   2.210
 9275TIP3   OH227767   8.124   1.908   4.772
 9275TIP3    H127768   8.108   1.920   4.678
 9275TIP3    H227769   8.040   1.925   4.813
 9276TIP3   OH227770   0.994   5.778   5.014
 9276TIP3    H127771   0.993   5.707   5.078
 9276TIP3    H227772   1.082   5.775   4.976
 9277TIP3   OH227773   4.927   2.246   0.944
 9277TIP3    H127774   4.932   2.268   1.038
 9277TIP3    H227775   4.893   2.325   0.903
 9278TIP3   OH227776   1.229   0.386   6.774
 9278TIP3    H127777   1.239   0.359   6.683
 9278TIP3    H227778   1.304   0.347   6.819
 9279TIP3   OH227779   6.811   2.092   5.585
 9279TIP3    H127780   6.812   2.093   5.489
 9279TIP3    H227781   6.811   1.999   5.608
 9280TIP3   OH227782   2.744   2.952   2.482
 9280TIP3    H127783   2.798   2.876   2.463
 9280TIP3    H227784   2.807   3.020   2.507
 9281TIP3   OH227785   3.268   6.173   5.106
 9281TIP3    H127786   3.232   6.190   5.193
 9281TIP3    H227787   3.198   6.127   5.060
 9282TIP3   OH227788   5.107   0.975   0.081
 9282TIP3    H127789   5.184   1.030   0.071
 9282TIP3    H227790   5.136   0.887   0.058
 9283TIP3   OH227791   6.669   5.429   4.528
 9283TIP3    H127792   6.705   5.454   4.443
 9283TIP3    H227793   6.701   5.496   4.588
 9284TIP3   OH227794   7.906   6.885   1.711
 9284TIP3    H127795   7.972   6.831   1.669
 9284TIP3    H227796   7.880   6.836   1.789
 9285TIP3   OH227797   2.079   7.051   1.999
 9285TIP3    H127798   2.021   7.123   1.973
 9285TIP3    H227799   2.082   7.055   2.094
 9286TIP3   OH227800   7.706   7.230   5.450
 9286TIP3    H127801   7.698   7.173   5.526
 9286TIP3    H227802   7.791   7.208   5.412
 9287TIP3   OH227803   0.164   4.404   1.506
 9287TIP3    H127804   0.197   4.491   1.532
 9287TIP3    H227805   0.084   4.423   1.456
 9288TIP3   OH227806   7.489   0.593   5.438
 9288TIP3    H127807   7.448   0.675   5.466
 9288TIP3    H227808   7.422   0.551   5.383
 9289TIP3   OH227809   7.356   6.466   0.077
 9289TIP3    H127810   7.426   6.400   0.071
 9289TIP3    H227811   7.296   6.443   0.006
 9290TIP3   OH227812   0.122   6.492   4.988
 9290TIP3    H127813   0.055   6.429   5.015
 9290TIP3    H227814   0.196   6.475   5.047
 9291TIP3   OH227815   0.070   4.686   0.597
 9291TIP3    H127816   0.138   4.711   0.659
 9291TIP3    H227817   0.002   4.645   0.651
 9292TIP3   OH227818   0.730   0.686   1.526
 9292TIP3    H127819   0.692   0.722   1.607
 9292TIP3    H227820   0.667   0.620   1.497
 9293TIP3   OH227821   4.835   6.125   0.150
 9293TIP3    H127822   4.928   6.148   0.151
 9293TIP3    H227823   4.806   6.148   0.062
 9294TIP3   OH227824   2.572   6.065   1.706
 9294TIP3    H127825   2.643   6.042   1.767
 9294TIP3    H227826   2.497   6.014   1.737
 9295TIP3   OH227827   4.190   5.136   5.419
 9295TIP3    H127828   4.248   5.096   5.484
 9295TIP3    H227829   4.124   5.182   5.471
 9296TIP3   OH227830   6.181   7.145   6.514
 9296TIP3    H127831   6.110   7.091   6.549
 9296TIP3    H227832   6.142   7.231   6.501
 9297TIP3   OH227833   4.093   1.828   1.867
 9297TIP3    H127834   4.018   1.773   1.844
 9297TIP3    H227835   4.105   1.814   1.961
 9298TIP3   OH227836   6.841   6.003   3.252
 9298TIP3    H127837   6.929   5.990   3.286
 9298TIP3    H227838   6.795   5.922   3.272
 9299TIP3   OH227839   2.048   6.037   2.263
 9299TIP3    H127840   2.116   5.972   2.281
 9299TIP3    H227841   1.968   5.987   2.254
 9300TIP3   OH227842   2.543   3.862   3.901
 9300TIP3    H127843   2.580   3.783   3.941
 9300TIP3    H227844   2.476   3.890   3.963
 9301TIP3   OH227845   1.625   1.746   5.013
 9301TIP3    H127846   1.529   1.742   5.005
 9301TIP3    H227847   1.657   1.683   4.948
 9302TIP3   OH227848   6.846   6.101   2.992
 9302TIP3    H127849   6.916   6.050   2.952
 9302TIP3    H227850   6.849   6.077   3.085
 9303TIP3   OH227851   4.239   3.622   1.634
 9303TIP3    H127852   4.230   3.637   1.540
 9303TIP3    H227853   4.152   3.643   1.670
 9304TIP3   OH227854   0.827   2.222   3.369
 9304TIP3    H127855   0.850   2.157   3.435
 9304TIP3    H227856   0.736   2.244   3.387
 9305TIP3   OH227857   6.900   3.635   4.186
 9305TIP3    H127858   6.829   3.573   4.172
 9305TIP3    H227859   6.860   3.707   4.235
 9306TIP3   OH227860   8.075   3.140   0.747
 9306TIP3    H127861   8.140   3.146   0.817
 9306TIP3    H227862   8.045   3.230   0.734
 9307TIP3   OH227863   1.398   7.470   4.325
 9307TIP3    H127864   1.360   7.511   4.248
 9307TIP3    H227865   1.463   7.408   4.291
 9308TIP3   OH227866   2.160   3.667   3.435
 9308TIP3    H127867   2.190   3.748   3.394
 9308TIP3    H227868   2.221   3.600   3.405
 9309TIP3   OH227869   2.913   3.432   6.008
 9309TIP3    H127870   2.846   3.383   5.960
 9309TIP3    H227871   2.994   3.416   5.960
 9310TIP3   OH227872   3.412   0.353   6.068
 9310TIP3    H127873   3.454   0.400   5.996
 9310TIP3    H227874   3.448   0.264   6.063
 9311TIP3   OH227875   1.395   3.795   2.646
 9311TIP3    H127876   1.357   3.818   2.561
 9311TIP3    H227877   1.388   3.875   2.698
 9312TIP3   OH227878   0.203   1.029   6.522
 9312TIP3    H127879   0.254   0.996   6.596
 9312TIP3    H227880   0.214   0.962   6.454
 9313TIP3   OH227881   7.021   7.430   3.522
 9313TIP3    H127882   7.083   7.442   3.594
 9313TIP3    H227883   6.975   7.349   3.542
 9314TIP3   OH227884   7.868   6.833   0.804
 9314TIP3    H127885   7.858   6.881   0.886
 9314TIP3    H227886   7.892   6.900   0.740
 9315TIP3   OH227887   1.631   2.185   5.996
 9315TIP3    H127888   1.682   2.195   6.077
 9315TIP3    H227889   1.601   2.274   5.976
 9316TIP3   OH227890   4.859   2.568   1.546
 9316TIP3    H127891   4.788   2.631   1.536
 9316TIP3    H227892   4.830   2.510   1.616
 9317TIP3   OH227893   4.944   5.650   5.233
 9317TIP3    H127894   4.955   5.729   5.181
 9317TIP3    H227895   4.906   5.680   5.316
 9318TIP3   OH227896   1.383   3.246   4.447
 9318TIP3    H127897   1.453   3.239   4.512
 9318TIP3    H227898   1.377   3.159   4.407
 9319TIP3   OH227899   0.569   6.742   4.800
 9319TIP3    H127900   0.644   6.732   4.859
 9319TIP3    H227901   0.521   6.660   4.810
 9320TIP3   OH227902   2.275   7.734   2.007
 9320TIP3    H127903   2.262   7.828   2.009
 9320TIP3    H227904   2.327   7.717   1.929
 9321TIP3   OH227905   4.858   7.009   1.647
 9321TIP3    H127906   4.950   7.012   1.621
 9321TIP3    H227907   4.812   7.060   1.581
 9322TIP3   OH227908   8.011   6.348   3.676
 9322TIP3    H127909   7.979   6.358   3.587
 9322TIP3    H227910   7.981   6.427   3.722
 9323TIP3   OH227911   2.200   4.653   0.284
 9323TIP3    H127912   2.150   4.659   0.366
 9323TIP3    H227913   2.200   4.742   0.249
 9324TIP3   OH227914   7.163   2.338   3.222
 9324TIP3    H127915   7.249   2.376   3.202
 9324TIP3    H227916   7.100   2.397   3.180
 9325TIP3   OH227917   3.033   0.888   4.147
 9325TIP3    H127918   3.021   0.931   4.232
 9325TIP3    H227919   3.088   0.949   4.098
 9326TIP3   OH227920   6.892   2.997   0.849
 9326TIP3    H127921   6.946   2.976   0.925
 9326TIP3    H227922   6.884   2.914   0.802
 9327TIP3   OH227923   8.205   2.026   2.357
 9327TIP3    H127924   8.232   2.077   2.433
 9327TIP3    H227925   8.227   1.936   2.379
 9328TIP3   OH227926   3.964   6.691   0.007
 9328TIP3    H127927   3.881   6.736   0.022
 9328TIP3    H227928   4.001   6.734  -0.071
 9329TIP3   OH227929   4.884   2.395   5.930
 9329TIP3    H127930   4.947   2.412   6.000
 9329TIP3    H227931   4.879   2.478   5.882
 9330TIP3   OH227932   4.572   7.778   5.869
 9330TIP3    H127933   4.595   7.808   5.956
 9330TIP3    H227934   4.554   7.684   5.880
 9331TIP3   OH227935   7.237   6.119   2.668
 9331TIP3    H127936   7.293   6.094   2.594
 9331TIP3    H227937   7.150   6.131   2.630
 9332TIP3   OH227938   5.776   5.193   5.128
 9332TIP3    H127939   5.745   5.276   5.092
 9332TIP3    H227940   5.810   5.216   5.214
 9333TIP3   OH227941   2.073   3.809   0.357
 9333TIP3    H127942   2.140   3.859   0.311
 9333TIP3    H227943   1.990   3.838   0.318
 9334TIP3   OH227944   2.807   1.312   3.908
 9334TIP3    H127945   2.897   1.346   3.909
 9334TIP3    H227946   2.752   1.389   3.918
 9335TIP3   OH227947   0.524   3.786   5.318
 9335TIP3    H127948   0.455   3.812   5.379
 9335TIP3    H227949   0.488   3.808   5.232
 9336TIP3   OH227950   0.543   5.145   0.958
 9336TIP3    H127951   0.452   5.133   0.984
 9336TIP3    H227952   0.567   5.230   0.996
 9337TIP3   OH227953   1.584   5.288   2.098
 9337TIP3    H127954   1.501   5.295   2.145
 9337TIP3    H227955   1.643   5.242   2.159
 9338TIP3   OH227956   3.571   7.133   4.045
 9338TIP3    H127957   3.589   7.074   3.972
 9338TIP3    H227958   3.532   7.210   4.004
 9339TIP3   OH227959   4.070   4.283   0.575
 9339TIP3    H127960   4.057   4.313   0.485
 9339TIP3    H227961   4.018   4.203   0.581
 9340TIP3   OH227962   4.911   0.592   2.954
 9340TIP3    H127963   4.943   0.522   3.011
 9340TIP3    H227964   4.845   0.550   2.899
 9341TIP3   OH227965   5.074   1.706   0.852
 9341TIP3    H127966   5.036   1.674   0.933
 9341TIP3    H227967   5.168   1.699   0.864
 9342TIP3   OH227968   7.543   2.544   4.660
 9342TIP3    H127969   7.564   2.453   4.637
 9342TIP3    H227970   7.494   2.537   4.741
 9343TIP3   OH227971   3.609   2.041   0.100
 9343TIP3    H127972   3.683   1.994   0.139
 9343TIP3    H227973   3.556   1.973   0.060
 9344TIP3   OH227974   6.430   0.826   4.591
 9344TIP3    H127975   6.395   0.824   4.502
 9344TIP3    H227976   6.389   0.902   4.631
 9345TIP3   OH227977   5.832   4.926   4.792
 9345TIP3    H127978   5.816   5.005   4.844
 9345TIP3    H227979   5.754   4.872   4.806
 9346TIP3   OH227980   0.615   0.085   6.279
 9346TIP3    H127981   0.614   0.031   6.358
 9346TIP3    H227982   0.564   0.162   6.303
 9347TIP3   OH227983   2.113   2.242   2.101
 9347TIP3    H127984   2.038   2.283   2.057
 9347TIP3    H227985   2.188   2.296   2.077
 9348TIP3   OH227986   6.671   5.734   2.577
 9348TIP3    H127987   6.746   5.782   2.613
 9348TIP3    H227988   6.603   5.800   2.566
 9349TIP3   OH227989   0.094   6.049   3.739
 9349TIP3    H127990   0.138   5.987   3.797
 9349TIP3    H227991   0.151   6.126   3.739
 9350TIP3   OH227992   4.273   2.834   3.452
 9350TIP3    H127993   4.234   2.902   3.397
 9350TIP3    H227994   4.331   2.882   3.511
 9351TIP3   OH227995   6.684   3.056   4.429
 9351TIP3    H127996   6.694   2.963   4.449
 9351TIP3    H227997   6.767   3.096   4.457
 9352TIP3   OH227998   4.067   5.967   2.341
 9352TIP3    H127999   4.061   6.048   2.392
 9352TIP3    H228000   4.142   5.981   2.283
 9353TIP3   OH228001   3.841   5.761   3.111
 9353TIP3    H128002   3.819   5.669   3.092
 9353TIP3    H228003   3.905   5.757   3.181
 9354TIP3   OH228004   5.449   5.953   6.467
 9354TIP3    H128005   5.406   6.026   6.510
 9354TIP3    H228006   5.538   5.954   6.500
 9355TIP3   OH228007   5.823   4.242   2.121
 9355TIP3    H128008   5.777   4.192   2.189
 9355TIP3    H228009   5.915   4.237   2.145
 9356TIP3   OH228010   5.383   1.727   5.282
 9356TIP3    H128011   5.422   1.648   5.244
 9356TIP3    H228012   5.449   1.795   5.270
 9357TIP3   OH228013   2.164   6.368   1.064
 9357TIP3    H128014   2.192   6.277   1.070
 9357TIP3    H228015   2.245   6.419   1.061
 9358TIP3   OH228016   3.542   0.209   1.830
 9358TIP3    H128017   3.507   0.123   1.853
 9358TIP3    H228018   3.464   0.262   1.814
 9359TIP3   OH228019   5.152   6.263   4.954
 9359TIP3    H128020   5.140   6.172   4.981
 9359TIP3    H228021   5.066   6.290   4.921
 9360TIP3   OH228022   0.290   0.513   3.823
 9360TIP3    H128023   0.227   0.468   3.879
 9360TIP3    H228024   0.316   0.590   3.874
 9361TIP3   OH228025   1.510   3.182   1.350
 9361TIP3    H128026   1.419   3.209   1.339
 9361TIP3    H228027   1.506   3.114   1.417
 9362TIP3   OH228028   7.113   7.094   4.920
 9362TIP3    H128029   7.205   7.090   4.948
 9362TIP3    H228030   7.070   7.024   4.969
 9363TIP3   OH228031   5.609   3.977   1.954
 9363TIP3    H128032   5.611   4.022   2.038
 9363TIP3    H228033   5.583   4.044   1.891
 9364TIP3   OH228034   3.222   4.757   3.278
 9364TIP3    H128035   3.277   4.789   3.207
 9364TIP3    H228036   3.246   4.810   3.354
 9365TIP3   OH228037   3.297   7.287   2.342
 9365TIP3    H128038   3.242   7.209   2.338
 9365TIP3    H228039   3.303   7.308   2.435
 9366TIP3   OH228040   3.014   2.593   4.911
 9366TIP3    H128041   2.937   2.637   4.948
 9366TIP3    H228042   3.066   2.663   4.872
 9367TIP3   OH228043   7.583   3.093   0.368
 9367TIP3    H128044   7.627   3.173   0.341
 9367TIP3    H228045   7.644   3.052   0.430
 9368TIP3   OH228046   5.352   7.045   0.276
 9368TIP3    H128047   5.431   7.040   0.329
 9368TIP3    H228048   5.380   7.084   0.193
 9369TIP3   OH228049   7.412   4.061   2.343
 9369TIP3    H128050   7.497   4.096   2.371
 9369TIP3    H228051   7.370   4.032   2.424
 9370TIP3   OH228052   7.196   4.280   1.579
 9370TIP3    H128053   7.192   4.299   1.673
 9370TIP3    H228054   7.201   4.366   1.538
 9371TIP3   OH228055   1.482   3.033   1.107
 9371TIP3    H128056   1.459   3.110   1.160
 9371TIP3    H228057   1.521   2.972   1.169
 9372TIP3   OH228058   1.899   5.911   4.333
 9372TIP3    H128059   1.888   5.952   4.247
 9372TIP3    H228060   1.818   5.932   4.380
 9373TIP3   OH228061   3.173   1.546   0.105
 9373TIP3    H128062   3.177   1.558   0.010
 9373TIP3    H228063   3.227   1.469   0.122
 9374TIP3   OH228064   2.051   0.819   1.979
 9374TIP3    H128065   2.119   0.870   2.024
 9374TIP3    H228066   2.068   0.728   2.005
 9375TIP3   OH228067   3.337   6.249   1.374
 9375TIP3    H128068   3.360   6.340   1.390
 9375TIP3    H228069   3.327   6.211   1.462
 9376TIP3   OH228070   6.843   3.148   3.118
 9376TIP3    H128071   6.882   3.165   3.032
 9376TIP3    H228072   6.751   3.127   3.099
 9377TIP3   OH228073   5.066   0.166   4.831
 9377TIP3    H128074   4.992   0.109   4.808
 9377TIP3    H228075   5.043   0.251   4.793
 9378TIP3   OH228076   4.151   0.128   3.920
 9378TIP3    H128077   4.087   0.078   3.969
 9378TIP3    H228078   4.200   0.063   3.870
 9379TIP3   OH228079   2.396   0.025   6.728
 9379TIP3    H128080   2.397   0.106   6.677
 9379TIP3    H228081   2.321  -0.024   6.695
 9380TIP3   OH228082   6.595   2.818   6.313
 9380TIP3    H128083   6.637   2.838   6.230
 9380TIP3    H228084   6.542   2.740   6.296
 9381TIP3   OH228085   4.335   5.810   5.097
 9381TIP3    H128086   4.294   5.826   5.182
 9381TIP3    H228087   4.370   5.895   5.071
 9382TIP3   OH228088   0.233   7.636   3.832
 9382TIP3    H128089   0.223   7.560   3.888
 9382TIP3    H228090   0.325   7.662   3.844
 9383TIP3   OH228091   0.433   3.380   0.198
 9383TIP3    H128092   0.364   3.433   0.238
 9383TIP3    H228093   0.438   3.412   0.107
 9384TIP3   OH228094   3.068   1.213   0.757
 9384TIP3    H128095   3.075   1.302   0.790
 9384TIP3    H228096   3.149   1.170   0.787
 9385TIP3   OH228097   0.596   7.558   5.167
 9385TIP3    H128098   0.652   7.537   5.093
 9385TIP3    H228099   0.641   7.521   5.243
 9386TIP3   OH228100   5.564   7.026   2.006
 9386TIP3    H128101   5.651   7.009   1.971
 9386TIP3    H228102   5.517   7.068   1.935
 9387TIP3   OH228103   4.009   4.880   4.314
 9387TIP3    H128104   4.045   4.951   4.367
 9387TIP3    H228105   3.980   4.923   4.233
 9388TIP3   OH228106   3.706   3.935   0.872
 9388TIP3    H128107   3.687   4.019   0.830
 9388TIP3    H228108   3.770   3.894   0.815
 9389TIP3   OH228109   3.117   4.663   6.137
 9389TIP3    H128110   3.105   4.623   6.224
 9389TIP3    H228111   3.111   4.757   6.154
 9390TIP3   OH228112   6.395   2.540   6.654
 9390TIP3    H128113   6.385   2.634   6.667
 9390TIP3    H228114   6.431   2.531   6.566
 9391TIP3   OH228115   3.437   2.366   1.903
 9391TIP3    H128116   3.501   2.302   1.934
 9391TIP3    H228117   3.423   2.424   1.978
 9392TIP3   OH228118   5.365   0.903   5.880
 9392TIP3    H128119   5.387   0.826   5.827
 9392TIP3    H228120   5.411   0.890   5.962
 9393TIP3   OH228121   3.722   4.174   1.832
 9393TIP3    H128122   3.752   4.146   1.745
 9393TIP3    H228123   3.740   4.268   1.835
 9394TIP3   OH228124   6.450   6.757   2.363
 9394TIP3    H128125   6.454   6.666   2.333
 9394TIP3    H228126   6.361   6.767   2.395
 9395TIP3   OH228127   3.611   2.949   2.616
 9395TIP3    H128128   3.631   3.039   2.593
 9395TIP3    H228129   3.615   2.901   2.533
 9396TIP3   OH228130   3.538   7.692   0.356
 9396TIP3    H128131   3.444   7.699   0.373
 9396TIP3    H228132   3.571   7.636   0.426
 9397TIP3   OH228133   2.465   6.654   0.651
 9397TIP3    H128134   2.539   6.609   0.610
 9397TIP3    H228135   2.420   6.586   0.701
 9398TIP3   OH228136   8.140   5.683   3.887
 9398TIP3    H128137   8.092   5.729   3.955
 9398TIP3    H228138   8.209   5.636   3.934
 9399TIP3   OH228139   2.628   1.011   1.036
 9399TIP3    H128140   2.579   0.944   0.988
 9399TIP3    H228141   2.700   1.034   0.977
 9400TIP3   OH228142   3.486   1.218   2.405
 9400TIP3    H128143   3.532   1.191   2.485
 9400TIP3    H228144   3.448   1.303   2.426
 9401TIP3   OH228145   4.593   1.941   5.603
 9401TIP3    H128146   4.509   1.950   5.648
 9401TIP3    H228147   4.652   1.904   5.669
 9402TIP3   OH228148   3.232   7.274   5.959
 9402TIP3    H128149   3.261   7.194   6.003
 9402TIP3    H228150   3.203   7.245   5.873
 9403TIP3   OH228151   4.625   5.466   3.956
 9403TIP3    H128152   4.598   5.401   4.021
 9403TIP3    H228153   4.545   5.513   3.934
 9404TIP3   OH228154   2.320   4.723   4.837
 9404TIP3    H128155   2.253   4.728   4.905
 9404TIP3    H228156   2.285   4.660   4.774
 9405TIP3   OH228157   4.521   0.787   0.995
 9405TIP3    H128158   4.536   0.794   0.900
 9405TIP3    H228159   4.448   0.726   1.003
 9406TIP3   OH228160   5.426   6.737   1.015
 9406TIP3    H128161   5.497   6.721   1.078
 9406TIP3    H228162   5.378   6.812   1.051
 9407TIP3   OH228163   1.668   4.487   0.014
 9407TIP3    H128164   1.626   4.423   0.072
 9407TIP3    H228165   1.620   4.481  -0.068
 9408TIP3   OH228166   4.552   2.207   3.516
 9408TIP3    H128167   4.501   2.272   3.565
 9408TIP3    H228168   4.597   2.156   3.584
 9409TIP3   OH228169   6.217   5.899   2.714
 9409TIP3    H128170   6.244   5.980   2.759
 9409TIP3    H228171   6.200   5.837   2.785
 9410TIP3   OH228172   6.298   7.626   4.688
 9410TIP3    H128173   6.250   7.708   4.678
 9410TIP3    H228174   6.232   7.563   4.718
 9411TIP3   OH228175   2.776   3.495   3.177
 9411TIP3    H128176   2.725   3.506   3.096
 9411TIP3    H228177   2.828   3.416   3.162
 9412TIP3   OH228178   8.034   4.747   6.410
 9412TIP3    H128179   8.047   4.667   6.359
 9412TIP3    H228180   7.958   4.789   6.370
 9413TIP3   OH228181   3.054   6.683   2.373
 9413TIP3    H128182   3.044   6.594   2.407
 9413TIP3    H228183   3.123   6.676   2.307
 9414TIP3   OH228184   6.566   6.340   0.153
 9414TIP3    H128185   6.509   6.293   0.214
 9414TIP3    H228186   6.646   6.288   0.150
 9415TIP3   OH228187   7.280   3.608   3.507
 9415TIP3    H128188   7.329   3.685   3.479
 9415TIP3    H228189   7.305   3.596   3.599
 9416TIP3   OH228190   3.071   6.890   1.568
 9416TIP3    H128191   3.008   6.890   1.496
 9416TIP3    H228192   3.041   6.959   1.626
 9417TIP3   OH228193   1.337   6.267   4.808
 9417TIP3    H128194   1.287   6.329   4.756
 9417TIP3    H228195   1.427   6.276   4.777
 9418TIP3   OH228196   2.265   1.722   1.356
 9418TIP3    H128197   2.232   1.700   1.443
 9418TIP3    H228198   2.229   1.808   1.337
 9419TIP3   OH228199   4.095   0.562   0.826
 9419TIP3    H128200   4.169   0.504   0.845
 9419TIP3    H228201   4.056   0.579   0.911
 9420TIP3   OH228202   2.948   3.384   2.734
 9420TIP3    H128203   2.948   3.294   2.767
 9420TIP3    H228204   3.039   3.400   2.709
 9421TIP3   OH228205   7.359   1.190   1.092
 9421TIP3    H128206   7.385   1.259   1.153
 9421TIP3    H228207   7.438   1.173   1.041
 9422TIP3   OH228208   7.009   0.695   5.024
 9422TIP3    H128209   6.956   0.642   5.083
 9422TIP3    H228210   6.956   0.703   4.945
 9423TIP3   OH228211   2.027   3.121   0.183
 9423TIP3    H128212   2.091   3.189   0.161
 9423TIP3    H228213   2.064   3.041   0.147
 9424TIP3   OH228214   3.789   1.918   2.823
 9424TIP3    H128215   3.842   1.948   2.749
 9424TIP3    H228216   3.717   1.869   2.782
 9425TIP3   OH228217   5.437   4.992   3.344
 9425TIP3    H128218   5.359   4.956   3.302
 9425TIP3    H228219   5.411   5.079   3.373
 9426TIP3   OH228220   7.060   0.635   1.920
 9426TIP3    H128221   7.057   0.566   1.853
 9426TIP3    H228222   7.146   0.676   1.908
 9427TIP3   OH228223   0.481   7.457   0.456
 9427TIP3    H128224   0.453   7.499   0.537
 9427TIP3    H228225   0.548   7.395   0.484
 9428TIP3   OH228226   6.578   0.520   0.699
 9428TIP3    H128227   6.500   0.562   0.737
 9428TIP3    H228228   6.613   0.587   0.640
 9429TIP3   OH228229   5.915   6.236   1.337
 9429TIP3    H128230   5.953   6.310   1.383
 9429TIP3    H228231   5.982   6.210   1.273
 9430TIP3   OH228232   5.924   2.914   0.231
 9430TIP3    H128233   5.890   2.830   0.261
 9430TIP3    H228234   5.873   2.979   0.278
 9431TIP3   OH228235   1.013   3.409   6.446
 9431TIP3    H128236   1.019   3.440   6.356
 9431TIP3    H228237   0.931   3.446   6.478
 9432TIP3   OH228238   2.453   4.208   1.521
 9432TIP3    H128239   2.534   4.232   1.477
 9432TIP3    H228240   2.475   4.211   1.614
 9433TIP3   OH228241   1.886   3.144   0.906
 9433TIP3    H128242   1.849   3.056   0.911
 9433TIP3    H228243   1.883   3.177   0.996
 9434TIP3   OH228244   2.133   7.581   1.470
 9434TIP3    H128245   2.190   7.657   1.462
 9434TIP3    H228246   2.189   7.513   1.507
 9435TIP3   OH228247   7.064   0.638   5.964
 9435TIP3    H128248   7.104   0.560   6.004
 9435TIP3    H228249   6.975   0.610   5.943
 9436TIP3   OH228250   6.645   0.499   3.655
 9436TIP3    H128251   6.619   0.442   3.583
 9436TIP3    H228252   6.594   0.579   3.642
 9437TIP3   OH228253   1.404   6.293   0.596
 9437TIP3    H128254   1.437   6.305   0.507
 9437TIP3    H228255   1.383   6.200   0.602
 9438TIP3   OH228256   3.284   5.655   1.648
 9438TIP3    H128257   3.214   5.684   1.706
 9438TIP3    H228258   3.245   5.585   1.595
 9439TIP3   OH228259   4.415   3.987   6.700
 9439TIP3    H128260   4.387   3.963   6.788
 9439TIP3    H228261   4.411   4.082   6.698
 9440TIP3   OH228262   6.747   1.894   5.775
 9440TIP3    H128263   6.798   1.931   5.847
 9440TIP3    H228264   6.657   1.921   5.794
 9441TIP3   OH228265   1.076   4.199   6.345
 9441TIP3    H128266   0.994   4.248   6.338
 9441TIP3    H228267   1.092   4.193   6.439
 9442TIP3   OH228268   6.738   7.158   5.840
 9442TIP3    H128269   6.785   7.193   5.916
 9442TIP3    H228270   6.748   7.226   5.773
 9443TIP3   OH228271   3.516   6.562   0.462
 9443TIP3    H128272   3.548   6.472   0.457
 9443TIP3    H228273   3.443   6.565   0.401
 9444TIP3   OH228274   2.154   4.181   2.154
 9444TIP3    H128275   2.209   4.183   2.232
 9444TIP3    H228276   2.196   4.241   2.093
 9445TIP3   OH228277   0.071   0.343   4.848
 9445TIP3    H128278   0.144   0.400   4.823
 9445TIP3    H228279   0.111   0.275   4.903
 9446TIP3   OH228280   4.748   6.337   5.503
 9446TIP3    H128281   4.787   6.422   5.524
 9446TIP3    H228282   4.773   6.321   5.412
 9447TIP3   OH228283   8.024   1.631   4.832
 9447TIP3    H128284   8.049   1.545   4.800
 9447TIP3    H228285   8.103   1.664   4.875
 9448TIP3   OH228286   3.199   0.387   5.281
 9448TIP3    H128287   3.223   0.429   5.364
 9448TIP3    H228288   3.244   0.303   5.284
 9449TIP3   OH228289   4.316   0.517   2.943
 9449TIP3    H128290   4.293   0.610   2.950
 9449TIP3    H228291   4.232   0.473   2.929
 9450TIP3   OH228292   4.616   1.603   6.021
 9450TIP3    H128293   4.658   1.560   5.946
 9450TIP3    H228294   4.675   1.675   6.043
 9451TIP3   OH228295   3.573   1.481   6.743
 9451TIP3    H128296   3.620   1.415   6.795
 9451TIP3    H228297   3.573   1.559   6.798
 9452TIP3   OH228298   6.922   3.873   6.064
 9452TIP3    H128299   6.893   3.964   6.077
 9452TIP3    H228300   7.017   3.878   6.068
 9453TIP3   OH228301   7.611   6.728   0.292
 9453TIP3    H128302   7.544   6.791   0.264
 9453TIP3    H228303   7.638   6.759   0.378
 9454TIP3   OH228304   6.588   2.453   2.547
 9454TIP3    H128305   6.678   2.477   2.570
 9454TIP3    H228306   6.598   2.385   2.480
 9455TIP3   OH228307   6.802   0.086   3.848
 9455TIP3    H128308   6.888   0.047   3.864
 9455TIP3    H228309   6.789   0.076   3.753
 9456TIP3   OH228310   3.085   0.647   2.062
 9456TIP3    H128311   3.048   0.563   2.092
 9456TIP3    H228312   3.170   0.652   2.106
 9457TIP3   OH228313   0.060   7.688   0.601
 9457TIP3    H128314   0.049   7.745   0.525
 9457TIP3    H228315   0.074   7.601   0.564
 9458TIP3   OH228316   1.888   4.067   1.816
 9458TIP3    H128317   1.941   4.009   1.761
 9458TIP3    H228318   1.929   4.061   1.902
 9459TIP3   OH228319   2.416   1.642   2.915
 9459TIP3    H128320   2.375   1.574   2.968
 9459TIP3    H228321   2.500   1.604   2.889
 9460TIP3   OH228322   3.939   3.714   1.054
 9460TIP3    H128323   3.878   3.663   1.106
 9460TIP3    H228324   4.021   3.665   1.057
 9461TIP3   OH228325   2.110   5.217   0.665
 9461TIP3    H128326   2.164   5.291   0.695
 9461TIP3    H228327   2.115   5.154   0.736
 9462TIP3   OH228328   6.173   2.703   1.576
 9462TIP3    H128329   6.164   2.781   1.520
 9462TIP3    H228330   6.251   2.659   1.543
 9463TIP3   OH228331   6.974   3.919   3.844
 9463TIP3    H128332   7.002   3.829   3.831
 9463TIP3    H228333   6.960   3.927   3.938
 9464TIP3   OH228334   5.673   7.523   1.178
 9464TIP3    H128335   5.746   7.464   1.160
 9464TIP3    H228336   5.614   7.473   1.234
 9465TIP3   OH228337   1.862   2.072   3.941
 9465TIP3    H128338   1.866   1.978   3.923
 9465TIP3    H228339   1.774   2.086   3.977
 9466TIP3   OH228340   6.283   0.262   6.215
 9466TIP3    H128341   6.365   0.310   6.222
 9466TIP3    H228342   6.296   0.184   6.269
 9467TIP3   OH228343   0.010   2.878   4.012
 9467TIP3    H128344  -0.081   2.857   4.029
 9467TIP3    H228345   0.056   2.851   4.092
 9468TIP3   OH228346   3.418   2.434   2.491
 9468TIP3    H128347   3.425   2.340   2.509
 9468TIP3    H228348   3.434   2.475   2.576
 9469TIP3   OH228349   4.406   2.739   5.655
 9469TIP3    H128350   4.478   2.691   5.615
 9469TIP3    H228351   4.385   2.690   5.735
 9470TIP3   OH228352   2.127   3.405   5.964
 9470TIP3    H128353   2.098   3.393   6.054
 9470TIP3    H228354   2.143   3.316   5.932
 9471TIP3   OH228355   5.957   3.014   0.816
 9471TIP3    H128356   5.935   3.032   0.724
 9471TIP3    H228357   5.907   3.080   0.865
 9472TIP3   OH228358   5.145   2.313   5.303
 9472TIP3    H128359   5.115   2.348   5.219
 9472TIP3    H228360   5.205   2.242   5.280
 9473TIP3   OH228361   3.889   3.356   4.860
 9473TIP3    H128362   3.949   3.430   4.845
 9473TIP3    H228363   3.946   3.282   4.876
 9474TIP3   OH228364   5.555   7.209   6.379
 9474TIP3    H128365   5.594   7.233   6.463
 9474TIP3    H228366   5.594   7.270   6.316
 9475TIP3   OH228367   7.576   3.519   5.615
 9475TIP3    H128368   7.586   3.469   5.534
 9475TIP3    H228369   7.539   3.602   5.588
 9476TIP3   OH228370   5.990   7.009   6.670
 9476TIP3    H128371   5.904   7.011   6.630
 9476TIP3    H228372   5.991   6.927   6.720
 9477TIP3   OH228373   6.534   2.658   6.063
 9477TIP3    H128374   6.528   2.743   6.020
 9477TIP3    H228375   6.617   2.621   6.032
 9478TIP3   OH228376   2.600   2.123   1.757
 9478TIP3    H128377   2.538   2.177   1.709
 9478TIP3    H228378   2.596   2.156   1.847
 9479TIP3   OH228379   3.664   6.606   2.830
 9479TIP3    H128380   3.654   6.511   2.835
 9479TIP3    H228381   3.574   6.640   2.835
 9480TIP3   OH228382   2.033   4.596   4.490
 9480TIP3    H128383   2.086   4.601   4.569
 9480TIP3    H228384   2.007   4.504   4.483
 9481TIP3   OH228385   4.901   7.085   1.225
 9481TIP3    H128386   4.877   7.173   1.254
 9481TIP3    H228387   4.995   7.080   1.238
 9482TIP3   OH228388   7.750   0.928   2.719
 9482TIP3    H128389   7.690   0.853   2.718
 9482TIP3    H228390   7.768   0.944   2.627
 9483TIP3   OH228391   4.811   3.559   5.483
 9483TIP3    H128392   4.861   3.625   5.530
 9483TIP3    H228393   4.802   3.593   5.394
 9484TIP3   OH228394   6.466   5.058   3.385
 9484TIP3    H128395   6.514   4.997   3.329
 9484TIP3    H228396   6.406   5.103   3.327
 9485TIP3   OH228397   6.853   7.649   4.956
 9485TIP3    H128398   6.856   7.735   4.916
 9485TIP3    H228399   6.781   7.654   5.020
 9486TIP3   OH228400   2.569   6.240   2.013
 9486TIP3    H128401   2.535   6.277   1.932
 9486TIP3    H228402   2.504   6.175   2.040
 9487TIP3   OH228403   3.130   4.223   1.840
 9487TIP3    H128404   3.181   4.304   1.834
 9487TIP3    H228405   3.118   4.195   1.750
 9488TIP3   OH228406   5.158   3.040   6.623
 9488TIP3    H128407   5.117   3.009   6.704
 9488TIP3    H228408   5.252   3.043   6.644
 9489TIP3   OH228409   2.462   6.037   1.128
 9489TIP3    H128410   2.512   6.052   1.207
 9489TIP3    H228411   2.527   6.014   1.062
 9490TIP3   OH228412   7.384   5.126   4.679
 9490TIP3    H128413   7.391   5.038   4.715
 9490TIP3    H228414   7.474   5.159   4.678
 9491TIP3   OH228415   1.243   5.398   6.243
 9491TIP3    H128416   1.314   5.356   6.195
 9491TIP3    H228417   1.209   5.463   6.182
 9492TIP3   OH228418   6.313   5.071   5.967
 9492TIP3    H128419   6.262   4.997   5.999
 9492TIP3    H228420   6.404   5.043   5.976
 9493TIP3   OH228421   4.619   6.734   5.792
 9493TIP3    H128422   4.632   6.658   5.735
 9493TIP3    H228423   4.594   6.696   5.877
 9494TIP3   OH228424   5.337   4.999   0.873
 9494TIP3    H128425   5.399   5.071   0.857
 9494TIP3    H228426   5.384   4.940   0.932
 9495TIP3   OH228427   5.544   7.231   3.110
 9495TIP3    H128428   5.542   7.316   3.153
 9495TIP3    H228429   5.480   7.237   3.039
 9496TIP3   OH228430   4.200   2.636   4.236
 9496TIP3    H128431   4.232   2.726   4.241
 9496TIP3    H228432   4.279   2.582   4.225
 9497TIP3   OH228433   0.045   2.943   6.688
 9497TIP3    H128434   0.135   2.973   6.695
 9497TIP3    H228435  -0.007   3.024   6.687
 9498TIP3   OH228436   6.529   5.876   0.718
 9498TIP3    H128437   6.489   5.942   0.775
 9498TIP3    H228438   6.525   5.795   0.769
 9499TIP3   OH228439   6.289   3.064   0.863
 9499TIP3    H128440   6.339   3.105   0.934
 9499TIP3    H228441   6.276   2.974   0.892
 9500TIP3   OH228442   0.272   2.159   4.514
 9500TIP3    H128443   0.355   2.183   4.473
 9500TIP3    H228444   0.269   2.211   4.594
 9501TIP3   OH228445   2.571   7.534   4.808
 9501TIP3    H128446   2.611   7.607   4.760
 9501TIP3    H228447   2.591   7.551   4.900
 9502TIP3   OH228448   7.824   5.374   4.435
 9502TIP3    H128449   7.769   5.447   4.464
 9502TIP3    H228450   7.770   5.296   4.448
 9503TIP3   OH228451   1.769   7.139   6.563
 9503TIP3    H128452   1.729   7.210   6.613
 9503TIP3    H228453   1.725   7.060   6.594
 9504TIP3   OH228454   5.783   1.476   4.772
 9504TIP3    H128455   5.836   1.519   4.705
 9504TIP3    H228456   5.781   1.384   4.745
 9505TIP3   OH228457   7.392   7.459   1.981
 9505TIP3    H128458   7.363   7.446   1.890
 9505TIP3    H228459   7.326   7.415   2.033
 9506TIP3   OH228460   7.621   1.041   1.334
 9506TIP3    H128461   7.617   0.955   1.377
 9506TIP3    H228462   7.610   1.021   1.241
 9507TIP3   OH228463   5.562   3.069   1.312
 9507TIP3    H128464   5.633   3.020   1.271
 9507TIP3    H228465   5.605   3.119   1.382
 9508TIP3   OH228466   3.116   1.261   3.829
 9508TIP3    H128467   3.094   1.188   3.888
 9508TIP3    H228468   3.137   1.220   3.746
 9509TIP3   OH228469   0.412   7.403   1.676
 9509TIP3    H128470   0.492   7.438   1.714
 9509TIP3    H228471   0.412   7.435   1.586
 9510TIP3   OH228472   6.152   1.496   0.598
 9510TIP3    H128473   6.236   1.455   0.617
 9510TIP3    H228474   6.099   1.426   0.559
 9511TIP3   OH228475   0.609   1.820   6.696
 9511TIP3    H128476   0.608   1.762   6.621
 9511TIP3    H228477   0.517   1.841   6.712
 9512TIP3   OH228478   6.164   7.181   5.166
 9512TIP3    H128479   6.218   7.186   5.087
 9512TIP3    H228480   6.225   7.202   5.237
 9513TIP3   OH228481   4.713   3.919   3.990
 9513TIP3    H128482   4.710   3.954   3.902
 9513TIP3    H228483   4.630   3.872   4.001
 9514TIP3   OH228484   3.810   7.128   3.185
 9514TIP3    H128485   3.842   7.127   3.275
 9514TIP3    H228486   3.715   7.140   3.194
 9515TIP3   OH228487   8.019   6.563   0.885
 9515TIP3    H128488   8.024   6.470   0.905
 9515TIP3    H228489   7.955   6.569   0.815
 9516TIP3   OH228490   6.270   4.320   0.308
 9516TIP3    H128491   6.277   4.236   0.262
 9516TIP3    H228492   6.269   4.386   0.238
 9517TIP3   OH228493   5.937   4.952   6.066
 9517TIP3    H128494   5.981   5.014   6.125
 9517TIP3    H228495   5.883   4.898   6.125
 9518TIP3   OH228496   0.962   5.882   5.291
 9518TIP3    H128497   0.982   5.874   5.198
 9518TIP3    H228498   0.924   5.798   5.316
 9519TIP3   OH228499   0.864   0.393   4.341
 9519TIP3    H128500   0.928   0.425   4.277
 9519TIP3    H228501   0.781   0.434   4.314
 9520TIP3   OH228502   3.456   5.601   4.804
 9520TIP3    H128503   3.388   5.548   4.763
 9520TIP3    H228504   3.507   5.635   4.731
 9521TIP3   OH228505   5.438   6.768   5.021
 9521TIP3    H128506   5.377   6.701   5.053
 9521TIP3    H228507   5.462   6.739   4.933
 9522TIP3   OH228508   6.668   2.079   6.149
 9522TIP3    H128509   6.622   1.996   6.163
 9522TIP3    H228510   6.734   2.059   6.083
 9523TIP3   OH228511   5.358   7.346   5.778
 9523TIP3    H128512   5.349   7.434   5.817
 9523TIP3    H228513   5.444   7.347   5.736
 9524TIP3   OH228514   2.884   3.753   6.032
 9524TIP3    H128515   2.956   3.745   6.095
 9524TIP3    H228516   2.853   3.663   6.020
 9525TIP3   OH228517   1.908   7.604   4.402
 9525TIP3    H128518   1.967   7.551   4.348
 9525TIP3    H228519   1.877   7.673   4.342
 9526TIP3   OH228520   7.842   4.872   4.388
 9526TIP3    H128521   7.809   4.783   4.377
 9526TIP3    H228522   7.900   4.867   4.465
 9527TIP3   OH228523   7.147   1.362   2.377
 9527TIP3    H128524   7.194   1.434   2.419
 9527TIP3    H228525   7.165   1.373   2.283
 9528TIP3   OH228526   4.923   4.594   0.958
 9528TIP3    H128527   5.001   4.650   0.967
 9528TIP3    H228528   4.850   4.650   0.983
 9529TIP3   OH228529   4.484   4.167   0.861
 9529TIP3    H128530   4.566   4.215   0.864
 9529TIP3    H228531   4.491   4.111   0.784
 9530TIP3   OH228532   0.836   6.691   3.248
 9530TIP3    H128533   0.756   6.722   3.290
 9530TIP3    H228534   0.807   6.655   3.164
 9531TIP3   OH228535   1.880   0.363   2.515
 9531TIP3    H128536   1.886   0.459   2.515
 9531TIP3    H228537   1.964   0.334   2.480
 9532TIP3   OH228538   5.742   5.175   1.166
 9532TIP3    H128539   5.806   5.138   1.227
 9532TIP3    H228540   5.726   5.263   1.200
 9533TIP3   OH228541   6.104   0.489   1.416
 9533TIP3    H128542   6.082   0.559   1.477
 9533TIP3    H228543   6.064   0.516   1.333
 9534TIP3   OH228544   2.791   6.842   4.400
 9534TIP3    H128545   2.740   6.843   4.481
 9534TIP3    H228546   2.746   6.780   4.343
 9535TIP3   OH228547   4.790   6.692   3.003
 9535TIP3    H128548   4.729   6.646   3.061
 9535TIP3    H228549   4.740   6.766   2.969
 9536TIP3   OH228550   7.733   7.256   0.517
 9536TIP3    H128551   7.799   7.188   0.528
 9536TIP3    H228552   7.699   7.273   0.605
 9537TIP3   OH228553   3.151   2.627   4.612
 9537TIP3    H128554   3.234   2.586   4.589
 9537TIP3    H228555   3.175   2.696   4.675
 9538TIP3   OH228556   1.533   3.513   5.297
 9538TIP3    H128557   1.448   3.535   5.336
 9538TIP3    H228558   1.535   3.562   5.215
 9539TIP3   OH228559   0.994   1.920   1.690
 9539TIP3    H128560   1.071   1.935   1.635
 9539TIP3    H228561   0.985   2.000   1.742
 9540TIP3   OH228562   0.143   4.982   0.616
 9540TIP3    H128563   0.210   5.014   0.555
 9540TIP3    H228564   0.117   4.897   0.581
 9541TIP3   OH228565   5.339   1.207   1.971
 9541TIP3    H128566   5.401   1.183   1.902
 9541TIP3    H228567   5.274   1.138   1.971
 9542TIP3   OH228568   7.892   5.565   6.518
 9542TIP3    H128569   7.932   5.606   6.440
 9542TIP3    H228570   7.816   5.519   6.484
 9543TIP3   OH228571   0.253   0.694   1.333
 9543TIP3    H128572   0.311   0.727   1.401
 9543TIP3    H228573   0.190   0.764   1.318
 9544TIP3   OH228574   7.016   5.538   1.656
 9544TIP3    H128575   7.090   5.581   1.613
 9544TIP3    H228576   6.975   5.486   1.587
 9545TIP3   OH228577   6.648   2.561   3.300
 9545TIP3    H128578   6.725   2.507   3.281
 9545TIP3    H228579   6.657   2.637   3.244
 9546TIP3   OH228580   1.487   5.746   0.106
 9546TIP3    H128581   1.498   5.821   0.047
 9546TIP3    H228582   1.402   5.709   0.083
 9547TIP3   OH228583   7.808   6.167   6.686
 9547TIP3    H128584   7.863   6.110   6.632
 9547TIP3    H228585   7.720   6.130   6.679
 9548TIP3   OH228586   7.993   4.044   2.034
 9548TIP3    H128587   7.926   3.985   2.070
 9548TIP3    H228588   8.075   4.012   2.070
 9549TIP3   OH228589   3.459   2.409   5.145
 9549TIP3    H128590   3.548   2.428   5.176
 9549TIP3    H228591   3.403   2.437   5.217
 9550TIP3   OH228592   6.080   0.902   5.917
 9550TIP3    H128593   6.139   0.877   5.846
 9550TIP3    H228594   6.037   0.821   5.943
 9551TIP3   OH228595   2.048   4.205   0.198
 9551TIP3    H128596   2.038   4.186   0.104
 9551TIP3    H228597   1.963   4.241   0.224
 9552TIP3   OH228598   7.659   6.826   3.234
 9552TIP3    H128599   7.675   6.883   3.158
 9552TIP3    H228600   7.745   6.811   3.271
 9553TIP3   OH228601   1.706   0.868   0.464
 9553TIP3    H128602   1.711   0.906   0.376
 9553TIP3    H228603   1.768   0.919   0.516
 9554TIP3   OH228604   3.262   6.153   3.808
 9554TIP3    H128605   3.167   6.143   3.794
 9554TIP3    H228606   3.283   6.238   3.769
 9555TIP3   OH228607   4.123   5.524   0.879
 9555TIP3    H128608   4.100   5.434   0.856
 9555TIP3    H228609   4.081   5.577   0.811
 9556TIP3   OH228610   1.614   7.190   3.569
 9556TIP3    H128611   1.710   7.192   3.575
 9556TIP3    H228612   1.595   7.119   3.509
 9557TIP3   OH228613   0.976   6.028   3.219
 9557TIP3    H128614   0.968   6.012   3.313
 9557TIP3    H228615   1.046   5.968   3.190
 9558TIP3   OH228616   4.784   1.435   2.236
 9558TIP3    H128617   4.824   1.437   2.323
 9558TIP3    H228618   4.833   1.368   2.188
 9559TIP3   OH228619   2.494   1.407   3.476
 9559TIP3    H128620   2.482   1.488   3.525
 9559TIP3    H228621   2.418   1.354   3.501
 9560TIP3   OH228622   1.642   7.444   2.708
 9560TIP3    H128623   1.650   7.437   2.804
 9560TIP3    H228624   1.577   7.378   2.685
 9561TIP3   OH228625   6.772   2.174   1.433
 9561TIP3    H128626   6.792   2.096   1.380
 9561TIP3    H228627   6.836   2.172   1.504
 9562TIP3   OH228628   4.216   6.205   1.002
 9562TIP3    H128629   4.146   6.266   1.023
 9562TIP3    H228630   4.276   6.211   1.077
 9563TIP3   OH228631   3.244   4.197   4.465
 9563TIP3    H128632   3.299   4.248   4.525
 9563TIP3    H228633   3.282   4.109   4.466
 9564TIP3   OH228634   5.408   4.711   1.808
 9564TIP3    H128635   5.416   4.702   1.903
 9564TIP3    H228636   5.425   4.804   1.791
 9565TIP3   OH228637   0.227   1.416   4.361
 9565TIP3    H128638   0.206   1.509   4.367
 9565TIP3    H228639   0.220   1.395   4.268
 9566TIP3   OH228640   2.367   6.739   5.179
 9566TIP3    H128641   2.304   6.771   5.243
 9566TIP3    H228642   2.317   6.681   5.122
 9567TIP3   OH228643   3.823   7.259   4.299
 9567TIP3    H128644   3.750   7.198   4.292
 9567TIP3    H228645   3.849   7.275   4.208
 9568TIP3   OH228646   5.375   5.239   3.108
 9568TIP3    H128647   5.430   5.161   3.117
 9568TIP3    H228648   5.402   5.278   3.025
 9569TIP3   OH228649   5.830   2.250   6.674
 9569TIP3    H128650   5.769   2.243   6.747
 9569TIP3    H228651   5.802   2.182   6.613
 9570TIP3   OH228652   1.236   6.835   5.022
 9570TIP3    H128653   1.273   6.887   5.093
 9570TIP3    H228654   1.162   6.887   4.990
 9571TIP3   OH228655   5.309   0.417   5.164
 9571TIP3    H128656   5.378   0.439   5.226
 9571TIP3    H228657   5.317   0.482   5.094
 9572TIP3   OH228658   4.560   0.954   0.435
 9572TIP3    H128659   4.567   1.049   0.426
 9572TIP3    H228660   4.631   0.930   0.494
 9573TIP3   OH228661   3.201   7.188   1.531
 9573TIP3    H128662   3.236   7.268   1.571
 9573TIP3    H228663   3.212   7.121   1.598
 9574TIP3   OH228664   1.994   5.044   5.047
 9574TIP3    H128665   2.079   5.039   5.092
 9574TIP3    H228666   1.944   4.971   5.082
 9575TIP3   OH228667   5.094   5.113   0.010
 9575TIP3    H128668   5.152   5.187   0.026
 9575TIP3    H228669   5.007   5.151   0.008
 9576TIP3   OH228670   4.984   0.069   4.339
 9576TIP3    H128671   4.971   0.125   4.262
 9576TIP3    H228672   5.077   0.078   4.360
 9577TIP3   OH228673   3.176   0.918   0.983
 9577TIP3    H128674   3.102   0.873   0.943
 9577TIP3    H228675   3.192   0.871   1.065
 9578TIP3   OH228676   6.974   3.433   2.244
 9578TIP3    H128677   7.043   3.481   2.198
 9578TIP3    H228678   6.978   3.344   2.207
 9579TIP3   OH228679   2.220   1.380   4.276
 9579TIP3    H128680   2.129   1.408   4.273
 9579TIP3    H228681   2.252   1.412   4.361
 9580TIP3   OH228682   4.591   5.986   0.582
 9580TIP3    H128683   4.608   5.922   0.513
 9580TIP3    H228684   4.604   6.071   0.539
 9581TIP3   OH228685   7.538   5.840   1.163
 9581TIP3    H128686   7.605   5.805   1.222
 9581TIP3    H228687   7.466   5.778   1.169
 9582TIP3   OH228688   4.646   3.528   6.222
 9582TIP3    H128689   4.730   3.484   6.233
 9582TIP3    H228690   4.615   3.501   6.136
 9583TIP3   OH228691   3.512   4.727   4.720
 9583TIP3    H128692   3.479   4.805   4.675
 9583TIP3    H228693   3.574   4.688   4.658
 9584TIP3   OH228694   0.912   5.302   2.506
 9584TIP3    H128695   0.980   5.307   2.574
 9584TIP3    H228696   0.930   5.377   2.449
 9585TIP3   OH228697   6.919   1.013   4.272
 9585TIP3    H128698   7.012   1.035   4.279
 9585TIP3    H228699   6.894   0.987   4.361
 9586TIP3   OH228700   2.864   4.111   5.135
 9586TIP3    H128701   2.958   4.094   5.124
 9586TIP3    H228702   2.837   4.052   5.205
 9587TIP3   OH228703   5.501   0.606   0.217
 9587TIP3    H128704   5.544   0.580   0.298
 9587TIP3    H228705   5.525   0.538   0.154
 9588TIP3   OH228706   7.887   2.792   3.752
 9588TIP3    H128707   7.809   2.821   3.703
 9588TIP3    H228708   7.874   2.698   3.765
 9589TIP3   OH228709   1.044   1.829   0.743
 9589TIP3    H128710   1.049   1.830   0.839
 9589TIP3    H228711   1.034   1.921   0.719
 9590TIP3   OH228712   6.464   1.980   1.795
 9590TIP3    H128713   6.399   2.051   1.793
 9590TIP3    H228714   6.491   1.970   1.704
 9591TIP3   OH228715   7.002   3.897   1.333
 9591TIP3    H128716   6.985   3.974   1.388
 9591TIP3    H228717   7.004   3.824   1.395
 9592TIP3   OH228718   5.037   2.146   0.412
 9592TIP3    H128719   4.998   2.071   0.457
 9592TIP3    H228720   5.114   2.169   0.465
 9593TIP3   OH228721   3.369   1.357   3.191
 9593TIP3    H128722   3.366   1.408   3.272
 9593TIP3    H228723   3.405   1.417   3.126
 9594TIP3   OH228724   2.117   2.492   3.450
 9594TIP3    H128725   2.055   2.431   3.409
 9594TIP3    H228726   2.119   2.567   3.390
 9595TIP3   OH228727   5.396   1.396   1.233
 9595TIP3    H128728   5.406   1.303   1.254
 9595TIP3    H228729   5.486   1.429   1.226
 9596TIP3   OH228730   0.882   3.669   0.623
 9596TIP3    H128731   0.853   3.595   0.569
 9596TIP3    H228732   0.957   3.704   0.576
 9597TIP3   OH228733   6.460   3.132   0.621
 9597TIP3    H128734   6.555   3.128   0.634
 9597TIP3    H228735   6.423   3.118   0.708
 9598TIP3   OH228736   7.372   0.499   5.211
 9598TIP3    H128737   7.388   0.406   5.194
 9598TIP3    H228738   7.397   0.543   5.129
 9599TIP3   OH228739   1.727   6.787   3.763
 9599TIP3    H128740   1.729   6.857   3.828
 9599TIP3    H228741   1.819   6.768   3.746
 9600TIP3   OH228742   6.868   6.645   0.663
 9600TIP3    H128743   6.888   6.735   0.688
 9600TIP3    H228744   6.953   6.603   0.651
 9601TIP3   OH228745   6.682   5.308   1.774
 9601TIP3    H128746   6.704   5.253   1.850
 9601TIP3    H228747   6.655   5.391   1.813
 9602TIP3   OH228748   5.243   0.738   0.199
 9602TIP3    H128749   5.317   0.678   0.202
 9602TIP3    H228750   5.196   0.715   0.120
 9603TIP3   OH228751   4.299   0.800   0.643
 9603TIP3    H128752   4.237   0.813   0.570
 9603TIP3    H228753   4.269   0.719   0.685
 9604TIP3   OH228754   6.232   6.953   5.020
 9604TIP3    H128755   6.188   7.022   5.069
 9604TIP3    H228756   6.310   6.994   4.983
 9605TIP3   OH228757   1.052   3.088   2.583
 9605TIP3    H128758   1.054   3.025   2.511
 9605TIP3    H228759   0.959   3.104   2.599
 9606TIP3   OH228760   0.781   2.391   4.541
 9606TIP3    H128761   0.855   2.424   4.489
 9606TIP3    H228762   0.762   2.305   4.503
 9607TIP3   OH228763   6.478   3.756   6.214
 9607TIP3    H128764   6.483   3.835   6.160
 9607TIP3    H228765   6.517   3.782   6.297
 9608TIP3   OH228766   6.954   4.084   1.529
 9608TIP3    H128767   6.941   4.044   1.615
 9608TIP3    H228768   6.982   4.173   1.548
 9609TIP3   OH228769   7.489   5.939   5.224
 9609TIP3    H128770   7.494   6.009   5.289
 9609TIP3    H228771   7.559   5.879   5.248
 9610TIP3   OH228772   1.746   6.936   4.013
 9610TIP3    H128773   1.736   6.888   4.095
 9610TIP3    H228774   1.811   7.004   4.032
 9611TIP3   OH228775   3.169   4.853   2.981
 9611TIP3    H128776   3.151   4.770   2.937
 9611TIP3    H228777   3.254   4.880   2.947
 9612TIP3   OH228778   2.193   0.575   0.296
 9612TIP3    H128779   2.132   0.552   0.366
 9612TIP3    H228780   2.141   0.572   0.216
 9613TIP3   OH228781   2.724   4.601   5.920
 9613TIP3    H128782   2.818   4.586   5.925
 9613TIP3    H228783   2.704   4.605   5.826
 9614TIP3   OH228784   0.562   5.639   5.416
 9614TIP3    H128785   0.622   5.702   5.457
 9614TIP3    H228786   0.603   5.619   5.332
 9615TIP3   OH228787   1.742   5.844   0.775
 9615TIP3    H128788   1.738   5.806   0.688
 9615TIP3    H228789   1.758   5.937   0.761
 9616TIP3   OH228790   4.836   2.526   3.015
 9616TIP3    H128791   4.751   2.487   3.036
 9616TIP3    H228792   4.879   2.461   2.961
 9617TIP3   OH228793   7.347   2.908   4.423
 9617TIP3    H128794   7.376   2.842   4.486
 9617TIP3    H228795   7.348   2.990   4.472
 9618TIP3   OH228796   7.615   5.090   0.739
 9618TIP3    H128797   7.627   4.995   0.737
 9618TIP3    H228798   7.701   5.126   0.716
 9619TIP3   OH228799   4.421   2.825   3.079
 9619TIP3    H128800   4.485   2.761   3.109
 9619TIP3    H228801   4.344   2.772   3.055
 9620TIP3   OH228802   4.565   0.416   6.710
 9620TIP3    H128803   4.498   0.406   6.778
 9620TIP3    H228804   4.560   0.508   6.685
 9621TIP3   OH228805   2.831   0.024   0.345
 9621TIP3    H128806   2.795   0.111   0.363
 9621TIP3    H228807   2.774  -0.011   0.277
 9622TIP3   OH228808   1.235   4.497   2.502
 9622TIP3    H128809   1.149   4.507   2.543
 9622TIP3    H228810   1.218   4.506   2.408
 9623TIP3   OH228811   4.286   1.310   1.326
 9623TIP3    H128812   4.196   1.312   1.296
 9623TIP3    H228813   4.320   1.398   1.308
 9624TIP3   OH228814   2.908   0.089   3.454
 9624TIP3    H128815   2.881  -0.003   3.452
 9624TIP3    H228816   2.827   0.139   3.455
 9625TIP3   OH228817   3.506   3.592   6.021
 9625TIP3    H128818   3.581   3.614   6.077
 9625TIP3    H228819   3.512   3.497   6.010
 9626TIP3   OH228820   7.651   3.513   4.333
 9626TIP3    H128821   7.674   3.423   4.353
 9626TIP3    H228822   7.635   3.514   4.239
 9627TIP3   OH228823   3.126   7.565   2.416
 9627TIP3    H128824   3.126   7.478   2.456
 9627TIP3    H228825   3.070   7.618   2.474
 9628TIP3   OH228826   1.364   2.978   4.228
 9628TIP3    H128827   1.340   2.946   4.141
 9628TIP3    H228828   1.351   3.073   4.224
 9629TIP3   OH228829   0.558   2.009   2.232
 9629TIP3    H128830   0.584   1.971   2.147
 9629TIP3    H228831   0.601   2.094   2.233
 9630TIP3   OH228832   7.582   3.453   2.787
 9630TIP3    H128833   7.578   3.391   2.860
 9630TIP3    H228834   7.510   3.426   2.730
 9631TIP3   OH228835   5.991   5.927   2.564
 9631TIP3    H128836   6.051   5.896   2.632
 9631TIP3    H228837   6.045   5.933   2.485
 9632TIP3   OH228838   2.218   2.206   4.330
 9632TIP3    H128839   2.155   2.137   4.311
 9632TIP3    H228840   2.199   2.275   4.266
 9633TIP3   OH228841   1.343   7.749   0.023
 9633TIP3    H128842   1.346   7.769  -0.070
 9633TIP3    H228843   1.386   7.823   0.065
 9634TIP3   OH228844   3.114   3.138   4.500
 9634TIP3    H128845   3.078   3.049   4.503
 9634TIP3    H228846   3.039   3.194   4.480
 9635TIP3   OH228847   6.147   7.492   2.251
 9635TIP3    H128848   6.056   7.510   2.231
 9635TIP3    H228849   6.171   7.558   2.316
 9636TIP3   OH228850   8.146   5.342   2.766
 9636TIP3    H128851   8.132   5.253   2.734
 9636TIP3    H228852   8.112   5.340   2.856
 9637TIP3   OH228853   4.332   3.918   6.348
 9637TIP3    H128854   4.397   3.925   6.418
 9637TIP3    H228855   4.343   3.829   6.314
 9638TIP3   OH228856   7.805   7.770   5.658
 9638TIP3    H128857   7.711   7.777   5.674
 9638TIP3    H228858   7.818   7.678   5.633
 9639TIP3   OH228859   0.513   0.910   4.105
 9639TIP3    H128860   0.435   0.856   4.089
 9639TIP3    H228861   0.515   0.920   4.201
 9640TIP3   OH228862   2.846   3.362   4.624
 9640TIP3    H128863   2.763   3.403   4.646
 9640TIP3    H228864   2.824   3.294   4.560
 9641TIP3   OH228865   4.954   6.758   5.632
 9641TIP3    H128866   4.932   6.834   5.578
 9641TIP3    H228867   4.928   6.784   5.720
 9642TIP3   OH228868   1.589   0.268   2.398
 9642TIP3    H128869   1.631   0.311   2.473
 9642TIP3    H228870   1.532   0.336   2.361
 9643TIP3   OH228871   3.504   6.532   1.945
 9643TIP3    H128872   3.584   6.584   1.953
 9643TIP3    H228873   3.487   6.527   1.851
 9644TIP3   OH228874   6.717   3.560   5.291
 9644TIP3    H128875   6.694   3.604   5.209
 9644TIP3    H228876   6.643   3.501   5.308
 9645TIP3   OH228877   0.966   3.694   4.490
 9645TIP3    H128878   1.061   3.701   4.484
 9645TIP3    H228879   0.947   3.607   4.456
 9646TIP3   OH228880   6.438   5.324   2.029
 9646TIP3    H128881   6.454   5.418   2.041
 9646TIP3    H228882   6.525   5.285   2.026
 9647TIP3   OH228883   3.722   3.726   3.990
 9647TIP3    H128884   3.685   3.723   4.078
 9647TIP3    H228885   3.662   3.783   3.941
 9648TIP3   OH228886   4.896   6.890   0.227
 9648TIP3    H128887   4.874   6.797   0.226
 9648TIP3    H228888   4.980   6.894   0.272
 9649TIP3   OH228889   7.297   6.519   4.932
 9649TIP3    H128890   7.285   6.580   5.005
 9649TIP3    H228891   7.211   6.481   4.918
 9650TIP3   OH228892   1.303   2.440   5.054
 9650TIP3    H128893   1.227   2.450   5.111
 9650TIP3    H228894   1.369   2.499   5.091
 9651TIP3   OH228895   5.082   7.105   0.961
 9651TIP3    H128896   5.147   7.078   0.897
 9651TIP3    H228897   5.079   7.033   1.024
 9652TIP3   OH228898   2.203   6.830   0.734
 9652TIP3    H128899   2.264   6.788   0.674
 9652TIP3    H228900   2.132   6.767   0.743
 9653TIP3   OH228901   5.160   0.172   3.610
 9653TIP3    H128902   5.198   0.195   3.525
 9653TIP3    H228903   5.229   0.124   3.655
 9654TIP3   OH228904   4.267   3.587   3.250
 9654TIP3    H128905   4.226   3.567   3.166
 9654TIP3    H228906   4.320   3.509   3.270
 9655TIP3   OH228907   2.048   0.032   2.164
 9655TIP3    H128908   1.958   0.058   2.185
 9655TIP3    H228909   2.094   0.037   2.248
 9656TIP3   OH228910   2.992   0.617   5.949
 9656TIP3    H128911   2.926   0.589   6.012
 9656TIP3    H228912   2.964   0.579   5.866
 9657TIP3   OH228913   5.934   6.714   6.422
 9657TIP3    H128914   5.881   6.671   6.489
 9657TIP3    H228915   5.879   6.711   6.344
 9658TIP3   OH228916   1.353   0.582   0.709
 9658TIP3    H128917   1.407   0.650   0.667
 9658TIP3    H228918   1.344   0.612   0.800
 9659TIP3   OH228919   4.231   0.753   5.409
 9659TIP3    H128920   4.293   0.708   5.351
 9659TIP3    H228921   4.169   0.796   5.350
 9660TIP3   OH228922   5.194   2.546   2.036
 9660TIP3    H128923   5.170   2.563   1.945
 9660TIP3    H228924   5.266   2.606   2.053
 9661TIP3   OH228925   0.178   0.770   0.657
 9661TIP3    H128926   0.142   0.711   0.591
 9661TIP3    H228927   0.241   0.824   0.609
 9662TIP3   OH228928   1.896   4.774   5.135
 9662TIP3    H128929   1.831   4.714   5.098
 9662TIP3    H228930   1.868   4.786   5.226
 9663TIP3   OH228931   2.891   6.717   4.015
 9663TIP3    H128932   2.961   6.718   3.950
 9663TIP3    H228933   2.935   6.701   4.099
 9664TIP3   OH228934   0.951   1.722   6.565
 9664TIP3    H128935   0.943   1.742   6.658
 9664TIP3    H228936   1.043   1.740   6.545
 9665TIP3   OH228937   8.018   2.481   3.555
 9665TIP3    H128938   8.092   2.522   3.510
 9665TIP3    H228939   7.947   2.484   3.490
 9666TIP3   OH228940   5.923   3.370   4.217
 9666TIP3    H128941   5.829   3.388   4.225
 9666TIP3    H228942   5.960   3.450   4.179
 9667TIP3   OH228943   7.211   0.128   2.459
 9667TIP3    H128944   7.213   0.151   2.552
 9667TIP3    H228945   7.228   0.034   2.458
 9668TIP3   OH228946   6.329   1.706   2.142
 9668TIP3    H128947   6.255   1.648   2.159
 9668TIP3    H228948   6.339   1.704   2.047
 9669TIP3   OH228949   1.197   4.593   1.672
 9669TIP3    H128950   1.170   4.571   1.761
 9669TIP3    H228951   1.261   4.663   1.683
 9670TIP3   OH228952   2.744   2.015   2.752
 9670TIP3    H128953   2.683   1.943   2.765
 9670TIP3    H228954   2.820   1.974   2.711
 9671TIP3   OH228955   6.234   0.990   4.884
 9671TIP3    H128956   6.216   0.910   4.834
 9671TIP3    H228957   6.178   1.056   4.844
 9672TIP3   OH228958   6.203   6.359   4.648
 9672TIP3    H128959   6.110   6.340   4.651
 9672TIP3    H228960   6.242   6.284   4.603
 9673TIP3   OH228961   3.645   1.779   5.928
 9673TIP3    H128962   3.556   1.750   5.947
 9673TIP3    H228963   3.662   1.746   5.839
 9674TIP3   OH228964   2.141   6.319   4.635
 9674TIP3    H128965   2.156   6.337   4.542
 9674TIP3    H228966   2.212   6.260   4.660
 9675TIP3   OH228967   1.526   1.772   5.546
 9675TIP3    H128968   1.498   1.835   5.612
 9675TIP3    H228969   1.551   1.825   5.470
 9676TIP3   OH228970   7.500   4.886   3.484
 9676TIP3    H128971   7.544   4.971   3.476
 9676TIP3    H228972   7.458   4.889   3.570
 9677TIP3   OH228973   2.027   0.353   5.109
 9677TIP3    H128974   2.099   0.415   5.094
 9677TIP3    H228975   2.046   0.280   5.050
 9678TIP3   OH228976   3.802   7.533   6.353
 9678TIP3    H128977   3.780   7.443   6.375
 9678TIP3    H228978   3.732   7.561   6.293
 9679TIP3   OH228979   5.512   5.707   2.995
 9679TIP3    H128980   5.602   5.708   2.964
 9679TIP3    H228981   5.476   5.792   2.969
 9680TIP3   OH228982   8.086   0.999   1.183
 9680TIP3    H128983   8.086   1.031   1.093
 9680TIP3    H228984   8.014   1.045   1.225
 9681TIP3   OH228985   6.224   6.935   6.297
 9681TIP3    H128986   6.137   6.955   6.264
 9681TIP3    H228987   6.209   6.872   6.368
 9682TIP3   OH228988   3.328   5.865   3.114
 9682TIP3    H128989   3.316   5.845   3.207
 9682TIP3    H228990   3.386   5.796   3.082
 9683TIP3   OH228991   7.199   4.731   1.804
 9683TIP3    H128992   7.259   4.696   1.870
 9683TIP3    H228993   7.242   4.714   1.721
 9684TIP3   OH228994   0.007   7.337   1.459
 9684TIP3    H128995  -0.087   7.333   1.443
 9684TIP3    H228996   0.043   7.383   1.383
 9685TIP3   OH228997   3.893   1.754   5.072
 9685TIP3    H128998   3.918   1.811   5.144
 9685TIP3    H228999   3.806   1.785   5.045
 9686TIP3   OH229000   6.501   6.610   0.407
 9686TIP3    H129001   6.431   6.629   0.344
 9686TIP3    H229002   6.527   6.696   0.441
 9687TIP3   OH229003   1.745   5.121   2.230
 9687TIP3    H129004   1.772   5.053   2.292
 9687TIP3    H229005   1.821   5.178   2.222
 9688TIP3   OH229006   5.596   6.262   3.184
 9688TIP3    H129007   5.577   6.173   3.214
 9688TIP3    H229008   5.686   6.256   3.150
 9689TIP3   OH229009   2.915   6.949   1.369
 9689TIP3    H129010   2.916   7.008   1.294
 9689TIP3    H229011   2.848   6.884   1.348
 9690TIP3   OH229012   6.613   5.553   4.173
 9690TIP3    H129013   6.688   5.604   4.144
 9690TIP3    H229014   6.648   5.465   4.186
 9691TIP3   OH229015   7.850   3.531   6.659
 9691TIP3    H129016   7.777   3.494   6.608
 9691TIP3    H229017   7.833   3.625   6.657
 9692TIP3   OH229018   0.239   5.119   6.205
 9692TIP3    H129019   0.314   5.138   6.150
 9692TIP3    H229020   0.237   5.024   6.213
 9693TIP3   OH229021   1.860   5.445   5.018
 9693TIP3    H129022   1.884   5.484   5.102
 9693TIP3    H229023   1.843   5.519   4.961
 9694TIP3   OH229024   1.533   3.209   1.640
 9694TIP3    H129025   1.587   3.134   1.665
 9694TIP3    H229026   1.443   3.182   1.660
 9695TIP3   OH229027   4.056   1.564   1.436
 9695TIP3    H129028   3.979   1.547   1.381
 9695TIP3    H229029   4.088   1.649   1.406
 9696TIP3   OH229030   1.660   2.451   2.550
 9696TIP3    H129031   1.612   2.471   2.630
 9696TIP3    H229032   1.692   2.535   2.519
 9697TIP3   OH229033   3.341   3.267   4.660
 9697TIP3    H129034   3.312   3.346   4.615
 9697TIP3    H229035   3.274   3.202   4.638
 9698TIP3   OH229036   1.318   7.018   4.456
 9698TIP3    H129037   1.298   6.984   4.543
 9698TIP3    H229038   1.405   7.056   4.465
 9699TIP3   OH229039   8.121   2.030   6.502
 9699TIP3    H129040   8.054   2.017   6.435
 9699TIP3    H229041   8.071   2.036   6.584
 9700TIP3   OH229042   7.517   7.660   6.093
 9700TIP3    H129043   7.446   7.628   6.150
 9700TIP3    H229044   7.510   7.755   6.098
 9701TIP3   OH229045   1.364   5.187   0.989
 9701TIP3    H129046   1.357   5.276   0.954
 9701TIP3    H229047   1.453   5.160   0.967
 9702TIP3   OH229048   5.737   2.619   6.259
 9702TIP3    H129049   5.743   2.525   6.242
 9702TIP3    H229050   5.828   2.646   6.274
 9703TIP3   OH229051   0.365   2.880   4.680
 9703TIP3    H129052   0.419   2.920   4.747
 9703TIP3    H229053   0.354   2.947   4.613
 9704TIP3   OH229054   8.132   2.157   1.805
 9704TIP3    H129055   8.095   2.092   1.864
 9704TIP3    H229056   8.142   2.236   1.858
 9705TIP3   OH229057   2.057   4.204   0.473
 9705TIP3    H129058   2.091   4.127   0.520
 9705TIP3    H229059   2.067   4.181   0.380
 9706TIP3   OH229060   6.085   4.801   0.699
 9706TIP3    H129061   6.172   4.839   0.682
 9706TIP3    H229062   6.103   4.717   0.741
 9707TIP3   OH229063   1.427   1.137   6.628
 9707TIP3    H129064   1.371   1.129   6.551
 9707TIP3    H229065   1.506   1.088   6.605
 9708TIP3   OH229066   8.265   3.561   6.671
 9708TIP3    H129067   8.286   3.488   6.612
 9708TIP3    H229068   8.349   3.603   6.688
 9709TIP3   OH229069   5.729   5.145   2.274
 9709TIP3    H129070   5.770   5.058   2.272
 9709TIP3    H229071   5.637   5.127   2.293
 9710TIP3   OH229072   5.201   6.677   4.394
 9710TIP3    H129073   5.149   6.597   4.397
 9710TIP3    H229074   5.152   6.740   4.446
 9711TIP3   OH229075   4.840   2.819   3.014
 9711TIP3    H129076   4.766   2.846   2.959
 9711TIP3    H229077   4.836   2.723   3.015
 9712TIP3   OH229078   3.085   2.913   1.802
 9712TIP3    H129079   3.162   2.954   1.762
 9712TIP3    H229080   3.082   2.950   1.891
 9713TIP3   OH229081   4.854   5.604   6.462
 9713TIP3    H129082   4.899   5.520   6.457
 9713TIP3    H229083   4.923   5.669   6.449
 9714TIP3   OH229084   3.059   2.833   3.113
 9714TIP3    H129085   3.111   2.786   3.048
 9714TIP3    H229086   3.071   2.784   3.194
 9715TIP3   OH229087   3.205   4.352   1.411
 9715TIP3    H129088   3.156   4.419   1.457
 9715TIP3    H229089   3.188   4.368   1.318
 9716TIP3   OH229090   5.117   0.942   6.203
 9716TIP3    H129091   5.075   0.857   6.195
 9716TIP3    H229092   5.081   0.980   6.284
 9717TIP3   OH229093   1.958   1.076   0.854
 9717TIP3    H129094   1.941   1.000   0.910
 9717TIP3    H229095   1.892   1.071   0.786
 9718TIP3   OH229096   2.458   0.054   5.483
 9718TIP3    H129097   2.395   0.034   5.553
 9718TIP3    H229098   2.404   0.092   5.414
 9719TIP3   OH229099   3.503   6.719   4.494
 9719TIP3    H129100   3.578   6.702   4.551
 9719TIP3    H229101   3.538   6.777   4.426
 9720TIP3   OH229102   2.215   0.440   1.488
 9720TIP3    H129103   2.140   0.478   1.443
 9720TIP3    H229104   2.252   0.378   1.425
 9721TIP3   OH229105   2.633   2.246   6.150
 9721TIP3    H129106   2.692   2.312   6.186
 9721TIP3    H229107   2.546   2.282   6.164
 9722TIP3   OH229108   3.654   3.266   2.866
 9722TIP3    H129109   3.570   3.270   2.911
 9722TIP3    H229110   3.718   3.291   2.933
 9723TIP3   OH229111   6.400   5.997   1.290
 9723TIP3    H129112   6.326   6.011   1.349
 9723TIP3    H229113   6.476   5.991   1.348
 9724TIP3   OH229114   3.843   7.732   0.034
 9724TIP3    H129115   3.893   7.789  -0.025
 9724TIP3    H229116   3.816   7.790   0.106
 9725TIP3   OH229117   4.621   6.692   4.711
 9725TIP3    H129118   4.541   6.640   4.706
 9725TIP3    H229119   4.675   6.647   4.775
 9726TIP3   OH229120   3.860   2.056   1.808
 9726TIP3    H129121   3.911   2.030   1.730
 9726TIP3    H229122   3.869   1.981   1.867
 9727TIP3   OH229123   1.921   6.323   5.558
 9727TIP3    H129124   1.910   6.358   5.469
 9727TIP3    H229125   2.014   6.335   5.578
 9728TIP3   OH229126   1.426   2.682   3.459
 9728TIP3    H129127   1.335   2.656   3.475
 9728TIP3    H229128   1.476   2.638   3.527
 9729TIP3   OH229129   4.926   4.606   0.540
 9729TIP3    H129130   4.967   4.665   0.477
 9729TIP3    H229131   4.990   4.597   0.611
 9730TIP3   OH229132   1.071   7.799   6.422
 9730TIP3    H129133   1.007   7.742   6.379
 9730TIP3    H229134   1.072   7.770   6.513
 9731TIP3   OH229135   0.800   3.409   1.384
 9731TIP3    H129136   0.789   3.432   1.476
 9731TIP3    H229137   0.728   3.349   1.366
 9732TIP3   OH229138   0.652   4.811   2.012
 9732TIP3    H129139   0.630   4.745   1.947
 9732TIP3    H229140   0.575   4.817   2.068
 9733TIP3   OH229141   2.827   3.223   6.409
 9733TIP3    H129142   2.822   3.160   6.337
 9733TIP3    H229143   2.738   3.224   6.446
 9734TIP3   OH229144   5.921   4.959   3.552
 9734TIP3    H129145   5.977   4.915   3.488
 9734TIP3    H229146   5.845   4.902   3.560
 9735TIP3   OH229147   4.295   6.517   1.459
 9735TIP3    H129148   4.376   6.568   1.469
 9735TIP3    H229149   4.296   6.457   1.534
 9736TIP3   OH229150   5.058   5.774   6.435
 9736TIP3    H129151   5.035   5.865   6.415
 9736TIP3    H229152   5.110   5.746   6.360
 9737TIP3   OH229153   4.053   6.751   0.803
 9737TIP3    H129154   4.061   6.804   0.883
 9737TIP3    H229155   4.139   6.754   0.763
 9738TIP3   OH229156   0.442   4.840   6.236
 9738TIP3    H129157   0.347   4.829   6.232
 9738TIP3    H229158   0.468   4.790   6.313
 9739TIP3   OH229159   3.920   3.076   2.524
 9739TIP3    H129160   3.855   3.146   2.517
 9739TIP3    H229161   4.001   3.121   2.546
 9740TIP3   OH229162   1.383   1.690   0.805
 9740TIP3    H129163   1.347   1.602   0.802
 9740TIP3    H229164   1.455   1.686   0.868
 9741TIP3   OH229165   2.804   0.470   0.168
 9741TIP3    H129166   2.771   0.408   0.103
 9741TIP3    H229167   2.813   0.553   0.120
 9742TIP3   OH229168   6.000   1.278   1.355
 9742TIP3    H129169   5.997   1.184   1.339
 9742TIP3    H229170   5.908   1.303   1.363
 9743TIP3   OH229171   1.769   4.117   3.199
 9743TIP3    H129172   1.853   4.139   3.159
 9743TIP3    H229173   1.768   4.022   3.201
 9744TIP3   OH229174   4.193   6.097   2.790
 9744TIP3    H129175   4.174   6.024   2.731
 9744TIP3    H229176   4.280   6.076   2.826
 9745TIP3   OH229177   0.753   6.715   2.760
 9745TIP3    H129178   0.762   6.678   2.672
 9745TIP3    H229179   0.795   6.801   2.754
 9746TIP3   OH229180   7.825   2.307   0.388
 9746TIP3    H129181   7.902   2.298   0.332
 9746TIP3    H229182   7.860   2.342   0.470
 9747TIP3   OH229183   6.486   6.276   4.113
 9747TIP3    H129184   6.483   6.331   4.035
 9747TIP3    H229185   6.397   6.279   4.148
 9748TIP3   OH229186   0.481   4.658   1.527
 9748TIP3    H129187   0.518   4.676   1.441
 9748TIP3    H229188   0.391   4.691   1.521
 9749TIP3   OH229189   2.499   4.549   5.203
 9749TIP3    H129190   2.566   4.547   5.134
 9749TIP3    H229191   2.429   4.493   5.171
 9750TIP3   OH229192   4.107   7.132   0.313
 9750TIP3    H129193   4.192   7.155   0.351
 9750TIP3    H229194   4.053   7.106   0.388
 9751TIP3   OH229195   3.931   1.138   5.056
 9751TIP3    H129196   3.976   1.070   5.006
 9751TIP3    H229197   3.993   1.211   5.058
 9752TIP3   OH229198   7.176   2.291   5.491
 9752TIP3    H129199   7.173   2.233   5.415
 9752TIP3    H229200   7.261   2.335   5.484
 9753TIP3   OH229201   7.622   3.388   5.368
 9753TIP3    H129202   7.599   3.300   5.337
 9753TIP3    H229203   7.661   3.430   5.292
 9754TIP3   OH229204   5.027   4.431   4.845
 9754TIP3    H129205   5.090   4.500   4.824
 9754TIP3    H229206   5.059   4.353   4.800
 9755TIP3   OH229207   7.950   0.235   0.749
 9755TIP3    H129208   8.000   0.313   0.776
 9755TIP3    H229209   8.017   0.168   0.733
 9756TIP3   OH229210   7.523   1.721   5.745
 9756TIP3    H129211   7.505   1.630   5.768
 9756TIP3    H229212   7.452   1.771   5.786
 9757TIP3   OH229213   5.452   2.172   3.351
 9757TIP3    H129214   5.458   2.087   3.306
 9757TIP3    H229215   5.413   2.152   3.436
 9758TIP3   OH229216   0.333   7.326   2.930
 9758TIP3    H129217   0.278   7.273   2.987
 9758TIP3    H229218   0.404   7.267   2.904
 9759TIP3   OH229219   2.970   1.881   0.223
 9759TIP3    H129220   3.060   1.849   0.236
 9759TIP3    H229221   2.945   1.845   0.137
 9760TIP3   OH229222   4.590   3.440   2.287
 9760TIP3    H129223   4.603   3.345   2.294
 9760TIP3    H229224   4.669   3.477   2.327
 9761TIP3   OH229225   5.369   5.697   1.875
 9761TIP3    H129226   5.388   5.727   1.964
 9761TIP3    H229227   5.328   5.773   1.832
 9762TIP3   OH229228   5.110   1.771   1.366
 9762TIP3    H129229   5.163   1.691   1.358
 9762TIP3    H229230   5.118   1.813   1.281
 9763TIP3   OH229231   0.642   3.609   3.160
 9763TIP3    H129232   0.565   3.657   3.191
 9763TIP3    H229233   0.714   3.672   3.170
 9764TIP3   OH229234   0.988   4.061   1.552
 9764TIP3    H129235   1.065   4.007   1.574
 9764TIP3    H229236   1.002   4.143   1.601
 9765TIP3   OH229237   0.595   7.602   1.078
 9765TIP3    H129238   0.643   7.629   1.156
 9765TIP3    H229239   0.553   7.520   1.103
 9766TIP3   OH229240   1.781   1.066   5.873
 9766TIP3    H129241   1.876   1.072   5.864
 9766TIP3    H229242   1.767   1.016   5.953
 9767TIP3   OH229243   4.577   0.014   0.270
 9767TIP3    H129244   4.597   0.080   0.337
 9767TIP3    H229245   4.505  -0.037   0.307
 9768TIP3   OH229246   3.524   1.730   0.395
 9768TIP3    H129247   3.480   1.650   0.423
 9768TIP3    H229248   3.499   1.796   0.460
 9769TIP3   OH229249   5.164   6.999   1.572
 9769TIP3    H129250   5.204   6.913   1.585
 9769TIP3    H229251   5.196   7.052   1.645
 9770TIP3   OH229252   7.286   5.786   6.738
 9770TIP3    H129253   7.338   5.822   6.810
 9770TIP3    H229254   7.226   5.857   6.715
 9771TIP3   OH229255   5.680   2.609   3.189
 9771TIP3    H129256   5.720   2.689   3.155
 9771TIP3    H229257   5.615   2.640   3.253
 9772TIP3   OH229258   1.019   1.787   2.808
 9772TIP3    H129259   1.059   1.872   2.791
 9772TIP3    H229260   0.951   1.805   2.873
 9773TIP3   OH229261   0.477   7.248   3.949
 9773TIP3    H129262   0.546   7.304   3.982
 9773TIP3    H229263   0.495   7.162   3.987
 9774TIP3   OH229264   6.126   2.856   4.799
 9774TIP3    H129265   6.095   2.766   4.812
 9774TIP3    H229266   6.210   2.846   4.753
 9775TIP3   OH229267   6.155   2.925   1.389
 9775TIP3    H129268   6.225   2.952   1.448
 9775TIP3    H229269   6.108   3.006   1.369
 9776TIP3   OH229270   3.705   6.731   1.962
 9776TIP3    H129271   3.726   6.816   2.001
 9776TIP3    H229272   3.790   6.692   1.942
 9777TIP3   OH229273   0.708   1.448   6.593
 9777TIP3    H129274   0.675   1.523   6.543
 9777TIP3    H229275   0.668   1.372   6.551
 9778TIP3   OH229276   4.285   1.075   2.416
 9778TIP3    H129277   4.246   1.015   2.352
 9778TIP3    H229278   4.275   1.162   2.377
 9779TIP3   OH229279   5.692   5.676   5.890
 9779TIP3    H129280   5.681   5.604   5.828
 9779TIP3    H229281   5.784   5.701   5.881
 9780TIP3   OH229282   6.140   4.983   1.741
 9780TIP3    H129283   6.212   5.043   1.763
 9780TIP3    H229284   6.084   4.983   1.819
 9781TIP3   OH229285   0.984   4.158   2.363
 9781TIP3    H129286   0.949   4.159   2.274
 9781TIP3    H229287   1.078   4.172   2.352
 9782TIP3   OH229288   7.688   7.673   4.791
 9782TIP3    H129289   7.754   7.742   4.794
 9782TIP3    H229290   7.689   7.634   4.878
 9783TIP3   OH229291   0.534   2.250   1.856
 9783TIP3    H129292   0.580   2.224   1.936
 9783TIP3    H229293   0.525   2.345   1.863
 9784TIP3   OH229294   4.241   1.776   5.177
 9784TIP3    H129295   4.270   1.686   5.192
 9784TIP3    H229296   4.320   1.823   5.149
 9785TIP3   OH229297   1.719   6.398   0.813
 9785TIP3    H129298   1.670   6.328   0.769
 9785TIP3    H229299   1.804   6.399   0.770
 9786TIP3   OH229300   6.780   6.297   5.739
 9786TIP3    H129301   6.865   6.338   5.755
 9786TIP3    H229302   6.781   6.273   5.647
 9787TIP3   OH229303   3.554   1.852   2.633
 9787TIP3    H129304   3.545   1.933   2.583
 9787TIP3    H229305   3.518   1.785   2.575
 9788TIP3   OH229306   3.343   7.010   0.638
 9788TIP3    H129307   3.275   7.034   0.700
 9788TIP3    H229308   3.402   6.953   0.687
 9789TIP3   OH229309   7.553   7.031   1.463
 9789TIP3    H129310   7.532   6.964   1.529
 9789TIP3    H229311   7.647   7.024   1.450
 9790TIP3   OH229312   7.025   3.061   3.757
 9790TIP3    H129313   6.998   3.147   3.788
 9790TIP3    H229314   7.030   3.070   3.662
 9791TIP3   OH229315   3.006   5.138   3.383
 9791TIP3    H129316   2.980   5.208   3.323
 9791TIP3    H229317   3.015   5.061   3.327
 9792TIP3   OH229318   5.711   1.512   3.266
 9792TIP3    H129319   5.776   1.450   3.234
 9792TIP3    H229320   5.736   1.596   3.227
 9793TIP3   OH229321   2.110   0.478   5.871
 9793TIP3    H129322   2.047   0.478   5.943
 9793TIP3    H229323   2.118   0.570   5.846
 9794TIP3   OH229324   4.055   3.153   4.222
 9794TIP3    H129325   4.094   3.180   4.305
 9794TIP3    H229326   4.128   3.155   4.160
 9795TIP3   OH229327   5.595   5.402   3.491
 9795TIP3    H129328   5.631   5.331   3.439
 9795TIP3    H229329   5.502   5.404   3.467
 9796TIP3   OH229330   1.221   4.146   3.548
 9796TIP3    H129331   1.306   4.177   3.516
 9796TIP3    H229332   1.240   4.107   3.633
 9797TIP3   OH229333   2.139   4.166   2.779
 9797TIP3    H129334   2.134   4.090   2.837
 9797TIP3    H229335   2.077   4.147   2.709
 9798TIP3   OH229336   4.164   4.404   0.311
 9798TIP3    H129337   4.199   4.355   0.237
 9798TIP3    H229338   4.241   4.435   0.359
 9799TIP3   OH229339   8.245   7.408   1.883
 9799TIP3    H129340   8.154   7.414   1.854
 9799TIP3    H229341   8.297   7.430   1.806
 9800TIP3   OH229342   7.373   3.057   2.241
 9800TIP3    H129343   7.452   3.031   2.288
 9800TIP3    H229344   7.327   2.975   2.225
 9801TIP3   OH229345   3.465   0.107   3.902
 9801TIP3    H129346   3.371   0.127   3.908
 9801TIP3    H229347   3.501   0.138   3.985
 9802TIP3   OH229348   5.541   3.730   5.772
 9802TIP3    H129349   5.546   3.645   5.816
 9802TIP3    H229350   5.565   3.711   5.681
 9803TIP3   OH229351   1.849   6.711   3.335
 9803TIP3    H129352   1.792   6.694   3.410
 9803TIP3    H229353   1.791   6.741   3.266
 9804TIP3   OH229354   3.871   5.498   1.402
 9804TIP3    H129355   3.776   5.500   1.408
 9804TIP3    H229356   3.890   5.517   1.310
 9805TIP3   OH229357   1.894   7.134   3.661
 9805TIP3    H129358   1.980   7.115   3.625
 9805TIP3    H229359   1.884   7.072   3.734
 9806TIP3   OH229360   4.291   2.424   5.571
 9806TIP3    H129361   4.241   2.412   5.652
 9806TIP3    H229362   4.255   2.503   5.532
 9807TIP3   OH229363   4.005   3.683   5.354
 9807TIP3    H129364   3.949   3.703   5.429
 9807TIP3    H229365   4.061   3.612   5.385
 9808TIP3   OH229366   7.817   1.227   4.434
 9808TIP3    H129367   7.748   1.293   4.426
 9808TIP3    H229368   7.810   1.174   4.355
 9809TIP3   OH229369   3.735   2.338   2.316
 9809TIP3    H129370   3.688   2.414   2.351
 9809TIP3    H229371   3.683   2.263   2.343
 9810TIP3   OH229372   5.671   6.709   3.458
 9810TIP3    H129373   5.650   6.700   3.365
 9810TIP3    H229374   5.606   6.655   3.503
 9811TIP3   OH229375   4.348   3.787   3.423
 9811TIP3    H129376   4.292   3.720   3.383
 9811TIP3    H229377   4.358   3.853   3.354
 9812TIP3   OH229378   4.907   0.089   3.474
 9812TIP3    H129379   4.977   0.096   3.410
 9812TIP3    H229380   4.951   0.096   3.559
 9813TIP3   OH229381   3.479   6.267   3.392
 9813TIP3    H129382   3.480   6.196   3.457
 9813TIP3    H229383   3.558   6.254   3.341
 9814TIP3   OH229384   6.928   1.689   2.802
 9814TIP3    H129385   6.939   1.717   2.893
 9814TIP3    H229386   6.932   1.593   2.806
 9815TIP3   OH229387   3.044   0.189   4.722
 9815TIP3    H129388   3.109   0.119   4.731
 9815TIP3    H229389   3.023   0.214   4.812
 9816TIP3   OH229390   8.144   6.017   5.642
 9816TIP3    H129391   8.194   6.098   5.642
 9816TIP3    H229392   8.086   6.024   5.566
 9817TIP3   OH229393   7.878   6.232   2.468
 9817TIP3    H129394   7.804   6.259   2.414
 9817TIP3    H229395   7.882   6.297   2.538
 9818TIP3   OH229396   3.721   3.088   5.756
 9818TIP3    H129397   3.716   3.078   5.851
 9818TIP3    H229398   3.783   3.021   5.728
 9819TIP3   OH229399   7.586   7.243   1.976
 9819TIP3    H129400   7.534   7.318   1.948
 9819TIP3    H229401   7.550   7.220   2.062
 9820TIP3   OH229402   3.450   2.181   5.486
 9820TIP3    H129403   3.450   2.138   5.572
 9820TIP3    H229404   3.518   2.136   5.436
 9821TIP3   OH229405   6.957   1.197   5.987
 9821TIP3    H129406   6.975   1.128   6.051
 9821TIP3    H229407   6.958   1.151   5.903
 9822TIP3   OH229408   2.443   3.233   5.594
 9822TIP3    H129409   2.359   3.218   5.637
 9822TIP3    H229410   2.508   3.207   5.659
 9823TIP3   OH229411   0.018   2.089   1.443
 9823TIP3    H129412   0.080   2.158   1.465
 9823TIP3    H229413   0.042   2.063   1.353
 9824TIP3   OH229414   3.962   7.310   0.449
 9824TIP3    H129415   3.902   7.376   0.413
 9824TIP3    H229416   4.014   7.281   0.374
 9825TIP3   OH229417   1.173   2.252   3.138
 9825TIP3    H129418   1.188   2.159   3.153
 9825TIP3    H229419   1.092   2.271   3.186
 9826TIP3   OH229420   2.300   4.357   2.883
 9826TIP3    H129421   2.243   4.291   2.845
 9826TIP3    H229422   2.349   4.392   2.809
 9827TIP3   OH229423   0.563   4.737   6.467
 9827TIP3    H129424   0.560   4.642   6.454
 9827TIP3    H229425   0.612   4.748   6.548
 9828TIP3   OH229426   3.964   3.439   0.483
 9828TIP3    H129427   3.907   3.388   0.426
 9828TIP3    H229428   4.037   3.380   0.503
 9829TIP3   OH229429   2.151   6.431   3.438
 9829TIP3    H129430   2.132   6.503   3.378
 9829TIP3    H229431   2.169   6.356   3.381
 9830TIP3   OH229432   1.495   6.127   2.844
 9830TIP3    H129433   1.569   6.152   2.789
 9830TIP3    H229434   1.427   6.191   2.824
 9831TIP3   OH229435   1.548   2.495   6.079
 9831TIP3    H129436   1.541   2.442   6.158
 9831TIP3    H229437   1.554   2.585   6.111
 9832TIP3   OH229438   2.523   7.411   0.432
 9832TIP3    H129439   2.602   7.454   0.464
 9832TIP3    H229440   2.499   7.350   0.501
 9833TIP3   OH229441   2.618   4.360   3.146
 9833TIP3    H129442   2.646   4.269   3.140
 9833TIP3    H229443   2.568   4.365   3.227
 9834TIP3   OH229444   1.983   5.168   6.065
 9834TIP3    H129445   2.058   5.109   6.074
 9834TIP3    H229446   1.936   5.159   6.148
 9835TIP3   OH229447   6.495   5.631   0.228
 9835TIP3    H129448   6.574   5.578   0.241
 9835TIP3    H229449   6.430   5.592   0.285
 9836TIP3   OH229450   1.838   0.704   0.101
 9836TIP3    H129451   1.798   0.624   0.067
 9836TIP3    H229452   1.928   0.702   0.067
 9837TIP3   OH229453   1.273   1.069   0.837
 9837TIP3    H129454   1.241   1.052   0.749
 9837TIP3    H229455   1.356   1.115   0.824
 9838TIP3   OH229456   1.589   4.137   4.603
 9838TIP3    H129457   1.533   4.134   4.681
 9838TIP3    H229458   1.649   4.064   4.614
 9839TIP3   OH229459   5.216   5.057   4.766
 9839TIP3    H129460   5.270   4.989   4.807
 9839TIP3    H229461   5.277   5.126   4.742
 9840TIP3   OH229462   2.847   4.690   5.257
 9840TIP3    H129463   2.916   4.747   5.291
 9840TIP3    H229464   2.891   4.629   5.198
 9841TIP3   OH229465   5.110   7.372   3.231
 9841TIP3    H129466   5.105   7.386   3.137
 9841TIP3    H229467   5.195   7.409   3.256
 9842TIP3   OH229468   7.409   6.413   6.457
 9842TIP3    H129469   7.504   6.425   6.457
 9842TIP3    H229470   7.388   6.395   6.549
 9843TIP3   OH229471   5.088   2.730   1.796
 9843TIP3    H129472   5.075   2.693   1.708
 9843TIP3    H229473   5.010   2.783   1.811
 9844TIP3   OH229474   3.579   2.757   1.938
 9844TIP3    H129475   3.621   2.680   1.977
 9844TIP3    H229476   3.576   2.739   1.844
 9845TIP3   OH229477   1.692   3.447   3.781
 9845TIP3    H129478   1.747   3.392   3.836
 9845TIP3    H229479   1.713   3.419   3.692
 9846TIP3   OH229480   5.192   3.044   3.469
 9846TIP3    H129481   5.112   3.060   3.418
 9846TIP3    H229482   5.185   2.953   3.496
 9847TIP3   OH229483   3.657   6.572   4.663
 9847TIP3    H129484   3.741   6.594   4.702
 9847TIP3    H229485   3.676   6.500   4.602
 9848TIP3   OH229486   1.634   5.138   0.952
 9848TIP3    H129487   1.710   5.080   0.959
 9848TIP3    H229488   1.659   5.215   1.003
 9849TIP3   OH229489   5.220   7.035   3.094
 9849TIP3    H129490   5.188   6.953   3.055
 9849TIP3    H229491   5.188   7.104   3.035
 9850TIP3   OH229492   4.392   4.312   4.583
 9850TIP3    H129493   4.436   4.268   4.511
 9850TIP3    H229494   4.427   4.270   4.662
 9851TIP3   OH229495   1.685   1.533   1.357
 9851TIP3    H129496   1.670   1.463   1.293
 9851TIP3    H229497   1.616   1.520   1.422
 9852TIP3   OH229498   7.231  -0.031   0.145
 9852TIP3    H129499   7.240   0.064   0.151
 9852TIP3    H229500   7.159  -0.045   0.083
 9853TIP3   OH229501   3.576   6.320   6.563
 9853TIP3    H129502   3.548   6.292   6.650
 9853TIP3    H229503   3.626   6.245   6.529
 9854TIP3   OH229504   3.763   1.229   5.957
 9854TIP3    H129505   3.714   1.271   6.029
 9854TIP3    H229506   3.768   1.137   5.983
 9855TIP3   OH229507   1.570   2.310   5.227
 9855TIP3    H129508   1.556   2.250   5.154
 9855TIP3    H229509   1.549   2.396   5.191
 9856TIP3   OH229510   5.384   3.975   4.298
 9856TIP3    H129511   5.317   3.975   4.230
 9856TIP3    H229512   5.334   3.976   4.380
 9857TIP3   OH229513   8.290   2.884   1.215
 9857TIP3    H129514   8.209   2.860   1.171
 9857TIP3    H229515   8.270   2.967   1.259
 9858TIP3   OH229516   8.030   6.421   5.698
 9858TIP3    H129517   7.988   6.452   5.617
 9858TIP3    H229518   7.976   6.348   5.727
 9859TIP3   OH229519   1.147   6.050   2.780
 9859TIP3    H129520   1.142   6.015   2.869
 9859TIP3    H229521   1.188   5.981   2.729
 9860TIP3   OH229522   4.594   7.418   5.610
 9860TIP3    H129523   4.665   7.386   5.554
 9860TIP3    H229524   4.564   7.498   5.568
 9861TIP3   OH229525   5.631   0.549   4.402
 9861TIP3    H129526   5.543   0.576   4.428
 9861TIP3    H229527   5.637   0.457   4.430
 9862TIP3   OH229528   5.212   7.532   6.209
 9862TIP3    H129529   5.292   7.569   6.247
 9862TIP3    H229530   5.234   7.440   6.192
 9863TIP3   OH229531   7.432   6.266   2.162
 9863TIP3    H129532   7.456   6.259   2.069
 9863TIP3    H229533   7.357   6.209   2.172
 9864TIP3   OH229534   0.640   2.722   4.710
 9864TIP3    H129535   0.668   2.814   4.714
 9864TIP3    H229536   0.563   2.723   4.653
 9865TIP3   OH229537   2.206   0.585   4.395
 9865TIP3    H129538   2.235   0.663   4.348
 9865TIP3    H229539   2.135   0.616   4.451
 9866TIP3   OH229540   4.761   5.887   4.924
 9866TIP3    H129541   4.798   5.860   5.008
 9866TIP3    H229542   4.834   5.924   4.876
 9867TIP3   OH229543   5.743   7.177   4.628
 9867TIP3    H129544   5.651   7.204   4.623
 9867TIP3    H229545   5.744   7.104   4.690
 9868TIP3   OH229546   6.336   0.271   5.402
 9868TIP3    H129547   6.319   0.309   5.316
 9868TIP3    H229548   6.285   0.190   5.404
 9869TIP3   OH229549   4.734   5.644   4.685
 9869TIP3    H129550   4.774   5.559   4.702
 9869TIP3    H229551   4.711   5.677   4.773
 9870TIP3   OH229552   4.649   5.016   1.172
 9870TIP3    H129553   4.595   4.939   1.188
 9870TIP3    H229554   4.633   5.073   1.248
 9871TIP3   OH229555   2.952   1.865   6.622
 9871TIP3    H129556   2.968   1.771   6.611
 9871TIP3    H229557   2.984   1.905   6.542
 9872TIP3   OH229558   1.883   7.765   5.506
 9872TIP3    H129559   1.914   7.787   5.594
 9872TIP3    H229560   1.942   7.696   5.477
 9873TIP3   OH229561   6.042   0.795   0.139
 9873TIP3    H129562   6.046   0.786   0.235
 9873TIP3    H229563   5.977   0.730   0.113
 9874TIP3   OH229564   7.977   3.434   1.178
 9874TIP3    H129565   7.929   3.491   1.118
 9874TIP3    H229566   8.009   3.363   1.123
 9875TIP3   OH229567   3.171   7.467   1.623
 9875TIP3    H129568   3.212   7.466   1.536
 9875TIP3    H229569   3.227   7.525   1.675
 9876TIP3   OH229570   3.240   0.057   5.648
 9876TIP3    H129571   3.201   0.144   5.635
 9876TIP3    H229572   3.318   0.057   5.592
 9877TIP3   OH229573   0.585   1.352   5.837
 9877TIP3    H129574   0.619   1.272   5.878
 9877TIP3    H229575   0.552   1.323   5.752
 9878TIP3   OH229576   5.173   2.706   0.397
 9878TIP3    H129577   5.155   2.616   0.370
 9878TIP3    H229578   5.230   2.740   0.328
 9879TIP3   OH229579   1.036   4.276   3.400
 9879TIP3    H129580   1.101   4.234   3.457
 9879TIP3    H229581   0.967   4.306   3.459
 9880TIP3   OH229582   4.951   5.900   5.155
 9880TIP3    H129583   4.877   5.914   5.213
 9880TIP3    H229584   5.020   5.956   5.190
 9881TIP3   OH229585   1.529   4.367   4.964
 9881TIP3    H129586   1.489   4.350   4.879
 9881TIP3    H229587   1.598   4.301   4.972
 9882TIP3   OH229588   4.547   6.824   5.157
 9882TIP3    H129589   4.583   6.854   5.241
 9882TIP3    H229590   4.512   6.904   5.116
 9883TIP3   OH229591   1.258   6.096   1.452
 9883TIP3    H129592   1.257   6.036   1.526
 9883TIP3    H229593   1.250   6.183   1.491
 9884TIP3   OH229594   0.255   0.955   3.658
 9884TIP3    H129595   0.247   0.931   3.566
 9884TIP3    H229596   0.334   0.911   3.688
 9885TIP3   OH229597   3.995   1.587   0.643
 9885TIP3    H129598   3.935   1.518   0.614
 9885TIP3    H229599   3.938   1.655   0.678
 9886TIP3   OH229600   2.818   7.133   1.182
 9886TIP3    H129601   2.738   7.160   1.228
 9886TIP3    H229602   2.788   7.074   1.113
 9887TIP3   OH229603   2.572   0.471   2.559
 9887TIP3    H129604   2.590   0.381   2.531
 9887TIP3    H229605   2.658   0.507   2.579
 9888TIP3   OH229606   5.587   7.707   4.950
 9888TIP3    H129607   5.663   7.657   4.979
 9888TIP3    H229608   5.623   7.788   4.913
 9889TIP3   OH229609   2.617   0.523   4.356
 9889TIP3    H129610   2.596   0.615   4.336
 9889TIP3    H229611   2.547   0.473   4.314
 9890TIP3   OH229612   2.829   0.185   3.974
 9890TIP3    H129613   2.864   0.268   3.940
 9890TIP3    H229614   2.886   0.163   4.048
 9891TIP3   OH229615   6.725   1.183  -0.033
 9891TIP3    H129616   6.811   1.202  -0.072
 9891TIP3    H229617   6.709   1.091  -0.055
 9892TIP3   OH229618   4.211   2.153   4.661
 9892TIP3    H129619   4.257   2.213   4.720
 9892TIP3    H229620   4.129   2.198   4.640
 9893TIP3   OH229621   3.279   3.994   3.447
 9893TIP3    H129622   3.355   4.017   3.501
 9893TIP3    H229623   3.217   4.065   3.463
 9894TIP3   OH229624   4.179   4.431   2.847
 9894TIP3    H129625   4.180   4.468   2.758
 9894TIP3    H229626   4.133   4.497   2.900
 9895TIP3   OH229627   0.125   0.845   3.230
 9895TIP3    H129628   0.129   0.936   3.199
 9895TIP3    H229629   0.050   0.843   3.289
 9896TIP3   OH229630   4.507   0.673   6.697
 9896TIP3    H129631   4.471   0.760   6.715
 9896TIP3    H229632   4.534   0.677   6.606
 9897TIP3   OH229633   0.538   0.179   4.181
 9897TIP3    H129634   0.565   0.264   4.215
 9897TIP3    H229635   0.485   0.200   4.104
 9898TIP3   OH229636   4.739   5.120   6.499
 9898TIP3    H129637   4.798   5.150   6.431
 9898TIP3    H229638   4.691   5.199   6.527
 9899TIP3   OH229639   5.205   2.631   3.951
 9899TIP3    H129640   5.209   2.547   3.905
 9899TIP3    H229641   5.141   2.617   4.020
 9900TIP3   OH229642   2.073   4.506   3.545
 9900TIP3    H129643   2.010   4.577   3.536
 9900TIP3    H229644   2.152   4.537   3.500
 9901TIP3   OH229645   4.623   2.957   0.482
 9901TIP3    H129646   4.559   2.965   0.411
 9901TIP3    H229647   4.703   2.926   0.439
 9902TIP3   OH229648   2.809   4.919   1.183
 9902TIP3    H129649   2.824   5.010   1.158
 9902TIP3    H229650   2.824   4.869   1.102
 9903TIP3   OH229651   1.709   4.759   6.403
 9903TIP3    H129652   1.702   4.680   6.458
 9903TIP3    H229653   1.797   4.791   6.419
 9904TIP3   OH229654   7.454   2.706   5.900
 9904TIP3    H129655   7.407   2.775   5.947
 9904TIP3    H229656   7.433   2.721   5.808
 9905TIP3   OH229657   0.173   2.773   5.041
 9905TIP3    H129658   0.254   2.820   5.061
 9905TIP3    H229659   0.143   2.741   5.126
 9906TIP3   OH229660   5.248   3.361   5.179
 9906TIP3    H129661   5.251   3.266   5.164
 9906TIP3    H229662   5.164   3.388   5.143
 9907TIP3   OH229663   1.667   4.709   1.195
 9907TIP3    H129664   1.609   4.746   1.128
 9907TIP3    H229665   1.679   4.780   1.258
 9908TIP3   OH229666   1.397   5.710   1.944
 9908TIP3    H129667   1.336   5.709   2.017
 9908TIP3    H229668   1.482   5.731   1.985
 9909TIP3   OH229669   1.150   6.567   4.966
 9909TIP3    H129670   1.143   6.662   4.977
 9909TIP3    H229671   1.062   6.539   4.942
 9910TIP3   OH229672   8.125   3.873   4.581
 9910TIP3    H129673   8.119   3.829   4.666
 9910TIP3    H229674   8.173   3.812   4.525
 9911TIP3   OH229675   5.585   5.406   5.288
 9911TIP3    H129676   5.569   5.384   5.197
 9911TIP3    H229677   5.593   5.502   5.289
 9912TIP3   OH229678   2.082   0.589   1.242
 9912TIP3    H129679   2.138   0.514   1.223
 9912TIP3    H229680   2.131   0.665   1.212
 9913TIP3   OH229681   3.592   4.072   6.317
 9913TIP3    H129682   3.629   4.054   6.231
 9913TIP3    H229683   3.560   3.988   6.347
 9914TIP3   OH229684   4.621   7.046   6.040
 9914TIP3    H129685   4.623   7.104   5.964
 9914TIP3    H229686   4.532   7.055   6.074
 9915TIP3   OH229687   4.862   4.603   0.072
 9915TIP3    H129688   4.950   4.586   0.104
 9915TIP3    H229689   4.806   4.543   0.121
 9916TIP3   OH229690   7.297   3.155   6.391
 9916TIP3    H129691   7.388   3.160   6.360
 9916TIP3    H229692   7.305   3.133   6.484
 9917TIP3   OH229693   4.223   4.907   2.281
 9917TIP3    H129694   4.177   4.833   2.319
 9917TIP3    H229695   4.188   4.914   2.192
 9918TIP3   OH229696   2.838   2.770   0.730
 9918TIP3    H129697   2.898   2.813   0.668
 9918TIP3    H229698   2.865   2.803   0.816
 9919TIP3   OH229699   8.012   0.123   4.868
 9919TIP3    H129700   8.033   0.031   4.879
 9919TIP3    H229701   7.933   0.124   4.813
 9920TIP3   OH229702   8.167   6.764   0.299
 9920TIP3    H129703   8.147   6.847   0.340
 9920TIP3    H229704   8.141   6.776   0.207
 9921TIP3   OH229705   7.609   6.430   0.915
 9921TIP3    H129706   7.647   6.470   0.837
 9921TIP3    H229707   7.514   6.435   0.901
 9922TIP3   OH229708   2.174   0.568   2.014
 9922TIP3    H129709   2.196   0.489   2.065
 9922TIP3    H229710   2.127   0.534   1.938
 9923TIP3   OH229711   2.313   6.622   3.070
 9923TIP3    H129712   2.265   6.613   3.152
 9923TIP3    H229713   2.274   6.698   3.027
 9924TIP3   OH229714   5.531   7.371   5.011
 9924TIP3    H129715   5.490   7.321   4.940
 9924TIP3    H229716   5.565   7.304   5.071
 9925TIP3   OH229717   6.068   1.674   0.420
 9925TIP3    H129718   6.141   1.734   0.408
 9925TIP3    H229719   6.087   1.629   0.502
 9926TIP3   OH229720   1.057   3.558   4.974
 9926TIP3    H129721   1.145   3.536   5.007
 9926TIP3    H229722   1.067   3.645   4.937
 9927TIP3   OH229723   2.424   1.557   5.405
 9927TIP3    H129724   2.511   1.518   5.410
 9927TIP3    H229725   2.439   1.651   5.415
 9928TIP3   OH229726   3.063   5.428   1.756
 9928TIP3    H129727   3.077   5.475   1.674
 9928TIP3    H229728   2.972   5.445   1.779
 9929TIP3   OH229729   4.185   2.229   3.662
 9929TIP3    H129730   4.269   2.275   3.664
 9929TIP3    H229731   4.209   2.136   3.658
 9930TIP3   OH229732   5.831   2.311   2.728
 9930TIP3    H129733   5.826   2.220   2.700
 9930TIP3    H229734   5.870   2.307   2.815
 9931TIP3   OH229735   0.275   4.956   2.559
 9931TIP3    H129736   0.355   5.008   2.560
 9931TIP3    H229737   0.253   4.948   2.466
 9932TIP3   OH229738   4.630   0.715   2.075
 9932TIP3    H129739   4.652   0.799   2.034
 9932TIP3    H229740   4.707   0.694   2.128
 9933TIP3   OH229741   0.684   4.935   6.140
 9933TIP3    H129742   0.593   4.909   6.132
 9933TIP3    H229743   0.693   4.962   6.232
 9934TIP3   OH229744   2.001   3.467   3.340
 9934TIP3    H129745   2.062   3.520   3.392
 9934TIP3    H229746   1.936   3.530   3.309
 9935TIP3   OH229747   5.472   0.633   3.134
 9935TIP3    H129748   5.439   0.596   3.215
 9935TIP3    H229749   5.494   0.557   3.080
 9936TIP3   OH229750   3.346   1.424   2.507
 9936TIP3    H129751   3.295   1.422   2.588
 9936TIP3    H229752   3.282   1.415   2.437
 9937TIP3   OH229753   3.137   1.980   5.027
 9937TIP3    H129754   3.171   1.910   5.082
 9937TIP3    H229755   3.127   2.054   5.087
 9938TIP3   OH229756   5.060   2.190   1.405
 9938TIP3    H129757   5.063   2.194   1.501
 9938TIP3    H229758   5.073   2.280   1.377
 9939TIP3   OH229759   5.492   7.426   2.662
 9939TIP3    H129760   5.547   7.461   2.591
 9939TIP3    H229761   5.554   7.407   2.733
 9940TIP3   OH229762   1.169   2.654   0.207
 9940TIP3    H129763   1.163   2.715   0.133
 9940TIP3    H229764   1.097   2.679   0.264
 9941TIP3   OH229765   6.056   6.794   0.514
 9941TIP3    H129766   6.021   6.761   0.431
 9941TIP3    H229767   6.034   6.887   0.514
 9942TIP3   OH229768   8.137   1.331   3.091
 9942TIP3    H129769   8.150   1.382   3.011
 9942TIP3    H229770   8.214   1.274   3.095
 9943TIP3   OH229771   3.745   6.484   1.500
 9943TIP3    H129772   3.705   6.562   1.462
 9943TIP3    H229773   3.831   6.514   1.530
 9944TIP3   OH229774   7.309   3.682   6.338
 9944TIP3    H129775   7.241   3.714   6.278
 9944TIP3    H229776   7.288   3.590   6.352
 9945TIP3   OH229777   5.693   7.678   0.759
 9945TIP3    H129778   5.670   7.660   0.668
 9945TIP3    H229779   5.715   7.771   0.760
 9946TIP3   OH229780   2.088   2.317   3.908
 9946TIP3    H129781   2.068   2.392   3.852
 9946TIP3    H229782   2.146   2.353   3.975
 9947TIP3   OH229783   7.795   4.764   5.871
 9947TIP3    H129784   7.745   4.715   5.805
 9947TIP3    H229785   7.885   4.762   5.838
 9948TIP3   OH229786   1.323   1.357   0.783
 9948TIP3    H129787   1.261   1.375   0.854
 9948TIP3    H229788   1.406   1.341   0.828
 9949TIP3   OH229789   3.383   4.711   5.432
 9949TIP3    H129790   3.412   4.636   5.381
 9949TIP3    H229791   3.430   4.702   5.516
 9950TIP3   OH229792   0.534   0.962   4.367
 9950TIP3    H129793   0.501   0.910   4.439
 9950TIP3    H229794   0.485   1.045   4.373
 9951TIP3   OH229795   1.213   0.871   3.517
 9951TIP3    H129796   1.173   0.814   3.450
 9951TIP3    H229797   1.157   0.949   3.518
 9952TIP3   OH229798   0.141   6.671   0.232
 9952TIP3    H129799   0.113   6.619   0.156
 9952TIP3    H229800   0.059   6.697   0.275
 9953TIP3   OH229801   6.662   4.824   0.969
 9953TIP3    H129802   6.667   4.855   0.879
 9953TIP3    H229803   6.749   4.840   1.005
 9954TIP3   OH229804   5.512   7.686   0.989
 9954TIP3    H129805   5.600   7.654   0.968
 9954TIP3    H229806   5.457   7.608   0.990
 9955TIP3   OH229807   3.336   7.720   5.800
 9955TIP3    H129808   3.372   7.770   5.873
 9955TIP3    H229809   3.249   7.694   5.831
 9956TIP3   OH229810   6.861   5.176   1.121
 9956TIP3    H129811   6.928   5.191   1.188
 9956TIP3    H229812   6.801   5.112   1.161
 9957TIP3   OH229813   4.194   3.962   6.118
 9957TIP3    H129814   4.264   3.944   6.180
 9957TIP3    H229815   4.160   3.875   6.095
 9958TIP3   OH229816   2.219   4.501   4.718
 9958TIP3    H129817   2.212   4.416   4.763
 9958TIP3    H229818   2.281   4.486   4.647
 9959TIP3   OH229819   7.251   5.710   2.460
 9959TIP3    H129820   7.310   5.728   2.533
 9959TIP3    H229821   7.200   5.634   2.487
 9960TIP3   OH229822   7.306   6.848   5.768
 9960TIP3    H129823   7.299   6.874   5.860
 9960TIP3    H229824   7.344   6.925   5.725
 9961TIP3   OH229825   1.103   6.614   3.737
 9961TIP3    H129826   1.125   6.600   3.829
 9961TIP3    H229827   1.120   6.529   3.696
 9962TIP3   OH229828   1.028   4.799   5.215
 9962TIP3    H129829   1.065   4.870   5.268
 9962TIP3    H229830   1.098   4.733   5.212
 9963TIP3   OH229831   5.790   5.035   6.755
 9963TIP3    H129832   5.742   5.037   6.672
 9963TIP3    H229833   5.876   4.999   6.732
 9964TIP3   OH229834   6.277   0.368   1.629
 9964TIP3    H129835   6.292   0.457   1.661
 9964TIP3    H229836   6.362   0.325   1.637
 9965TIP3   OH229837   0.853   0.703   5.485
 9965TIP3    H129838   0.870   0.784   5.534
 9965TIP3    H229839   0.885   0.721   5.397
 9966TIP3   OH229840   2.249   3.570   4.450
 9966TIP3    H129841   2.338   3.579   4.416
 9966TIP3    H229842   2.230   3.654   4.491
 9967TIP3   OH229843   5.612   4.955   6.116
 9967TIP3    H129844   5.518   4.946   6.127
 9967TIP3    H229845   5.649   4.880   6.164
 9968TIP3   OH229846   6.753   6.824   6.253
 9968TIP3    H129847   6.688   6.819   6.323
 9968TIP3    H229848   6.804   6.903   6.274
 9969TIP3   OH229849   6.920   2.074   4.090
 9969TIP3    H129850   7.007   2.113   4.095
 9969TIP3    H229851   6.873   2.129   4.028
 9970TIP3   OH229852   3.858   4.746   3.500
 9970TIP3    H129853   3.899   4.659   3.500
 9970TIP3    H229854   3.774   4.732   3.456
 9971TIP3   OH229855   1.273   3.735   1.317
 9971TIP3    H129856   1.277   3.754   1.223
 9971TIP3    H229857   1.243   3.644   1.322
 9972TIP3   OH229858   5.798   0.248   0.474
 9972TIP3    H129859   5.764   0.338   0.475
 9972TIP3    H229860   5.832   0.235   0.562
 9973TIP3   OH229861   5.573   5.995   3.228
 9973TIP3    H129862   5.610   5.910   3.248
 9973TIP3    H229863   5.546   5.988   3.136
 9974TIP3   OH229864   7.920   2.534   3.831
 9974TIP3    H129865   7.945   2.492   3.749
 9974TIP3    H229866   7.991   2.516   3.892
 9975TIP3   OH229867   3.116   5.871   2.613
 9975TIP3    H129868   3.041   5.813   2.608
 9975TIP3    H229869   3.146   5.867   2.704
 9976TIP3   OH229870   6.432   7.370   0.901
 9976TIP3    H129871   6.522   7.354   0.874
 9976TIP3    H229872   6.380   7.306   0.851
 9977TIP3   OH229873   0.071   0.072   6.271
 9977TIP3    H129874   0.075   0.108   6.360
 9977TIP3    H229875   0.120   0.135   6.218
 9978TIP3   OH229876   3.068   5.827   1.346
 9978TIP3    H129877   2.987   5.843   1.395
 9978TIP3    H229878   3.092   5.737   1.369
 9979TIP3   OH229879   1.345   6.774   3.671
 9979TIP3    H129880   1.258   6.743   3.697
 9979TIP3    H229881   1.368   6.840   3.736
 9980TIP3   OH229882   3.643   6.644   6.686
 9980TIP3    H129883   3.712   6.644   6.620
 9980TIP3    H229884   3.658   6.564   6.737
 9981TIP3   OH229885   0.874   3.176   0.077
 9981TIP3    H129886   0.881   3.082   0.093
 9981TIP3    H229887   0.809   3.206   0.141
 9982TIP3   OH229888   5.851   3.094   0.001
 9982TIP3    H129889   5.904   3.049   0.066
 9982TIP3    H229890   5.858   3.187   0.025
 9983TIP3   OH229891   6.578   7.261   4.854
 9983TIP3    H129892   6.640   7.204   4.899
 9983TIP3    H229893   6.634   7.325   4.808
 9984TIP3   OH229894   1.465   5.655   3.667
 9984TIP3    H129895   1.540   5.637   3.611
 9984TIP3    H229896   1.416   5.724   3.622
 9985TIP3   OH229897   7.780   2.347   1.125
 9985TIP3    H129898   7.706   2.361   1.184
 9985TIP3    H229899   7.740   2.319   1.042
 9986TIP3   OH229900   3.534   3.551   3.789
 9986TIP3    H129901   3.616   3.583   3.753
 9986TIP3    H229902   3.481   3.629   3.802
 9987TIP3   OH229903   6.880   0.843   0.025
 9987TIP3    H129904   6.840   0.864   0.110
 9987TIP3    H229905   6.961   0.798   0.048
 9988TIP3   OH229906   2.277   1.569   6.231
 9988TIP3    H129907   2.193   1.599   6.197
 9988TIP3    H229908   2.337   1.574   6.156
 9989TIP3   OH229909   0.522   3.762   0.810
 9989TIP3    H129910   0.436   3.737   0.842
 9989TIP3    H229911   0.550   3.833   0.868
 9990TIP3   OH229912   2.305   2.695   3.542
 9990TIP3    H129913   2.382   2.674   3.595
 9990TIP3    H229914   2.336   2.693   3.452
 9991TIP3   OH229915   4.551   1.814   3.606
 9991TIP3    H129916   4.612   1.840   3.537
 9991TIP3    H229917   4.464   1.836   3.570
 9992TIP3   OH229918   2.576   5.302   1.180
 9992TIP3    H129919   2.547   5.320   1.269
 9992TIP3    H229920   2.643   5.235   1.190
 9993TIP3   OH229921   5.334   0.905   4.278
 9993TIP3    H129922   5.416   0.857   4.264
 9993TIP3    H229923   5.266   0.839   4.263
 9994TIP3   OH229924   6.909   7.693   3.460
 9994TIP3    H129925   6.943   7.612   3.498
 9994TIP3    H229926   6.981   7.728   3.409
 9995TIP3   OH229927   3.039   6.416   5.547
 9995TIP3    H129928   3.035   6.511   5.540
 9995TIP3    H229929   3.105   6.400   5.614
 9996TIP3   OH229930   1.268   4.201   0.302
 9996TIP3    H129931   1.312   4.229   0.221
 9996TIP3    H229932   1.282   4.106   0.304
 9997TIP3   OH229933   7.053   1.795   4.630
 9997TIP3    H129934   6.983   1.826   4.688
 9997TIP3    H229935   7.018   1.806   4.542
 9998TIP3   OH229936   0.071   7.352   5.514
 9998TIP3    H129937   0.037   7.285   5.573
 9998TIP3    H229938   0.032   7.433   5.546
 9999TIP3   OH229939   7.187   5.871   5.001
 9999TIP3    H129940   7.129   5.916   4.939
 9999TIP3    H229941   7.270   5.863   4.954
10000TIP3   OH229942   3.189   0.409   3.192
10000TIP3    H129943   3.107   0.386   3.235
10000TIP3    H229944   3.256   0.389   3.257
10001TIP3   OH229945   5.242   3.068   2.019
10001TIP3    H129946   5.284   3.026   1.944
10001TIP3    H229947   5.176   3.005   2.049
10002TIP3   OH229948   2.614   2.532   6.420
10002TIP3    H129949   2.647   2.612   6.461
10002TIP3    H229950   2.686   2.504   6.363
10003TIP3   OH229951   6.595   2.485   4.917
10003TIP3    H129952   6.587   2.459   4.826
10003TIP3    H229953   6.571   2.578   4.918
10004TIP3   OH229954   6.170   0.931   5.415
10004TIP3    H129955   6.217   0.886   5.345
10004TIP3    H229956   6.238   0.962   5.474
10005TIP3   OH229957   5.447   3.455   2.661
10005TIP3    H129958   5.399   3.534   2.636
10005TIP3    H229959   5.392   3.383   2.632
10006TIP3   OH229960   5.450   0.122   1.089
10006TIP3    H129961   5.437   0.215   1.070
10006TIP3    H229962   5.361   0.087   1.099
10007TIP3   OH229963   4.333   7.662   6.099
10007TIP3    H129964   4.331   7.604   6.022
10007TIP3    H229965   4.297   7.609   6.170
10008TIP3   OH229966   6.379   5.571   4.336
10008TIP3    H129967   6.336   5.627   4.271
10008TIP3    H229968   6.470   5.567   4.306
10009TIP3   OH229969   3.610   6.955   5.526
10009TIP3    H129970   3.598   6.914   5.612
10009TIP3    H229971   3.531   7.007   5.513
10010TIP3   OH229972   2.257   2.298   2.402
10010TIP3    H129973   2.284   2.251   2.481
10010TIP3    H229974   2.172   2.262   2.379
10011TIP3   OH229975   6.105   1.054   3.396
10011TIP3    H129976   6.073   1.106   3.470
10011TIP3    H229977   6.123   0.968   3.433
10012TIP3   OH229978   5.405   1.255   3.514
10012TIP3    H129979   5.332   1.204   3.547
10012TIP3    H229980   5.371   1.300   3.436
10013TIP3   OH229981   5.987   6.264   0.698
10013TIP3    H129982   5.899   6.290   0.724
10013TIP3    H229983   6.029   6.346   0.670
10014TIP3   OH229984   6.375   3.798   4.420
10014TIP3    H129985   6.279   3.803   4.420
10014TIP3    H229986   6.404   3.886   4.396
10015TIP3   OH229987   7.115   6.574   5.157
10015TIP3    H129988   7.021   6.563   5.145
10015TIP3    H229989   7.125   6.663   5.190
10016TIP3   OH229990   8.196   0.843   2.150
10016TIP3    H129991   8.158   0.778   2.208
10016TIP3    H229992   8.268   0.881   2.200
10017TIP3   OH229993   7.142   3.951   3.342
10017TIP3    H129994   7.131   3.993   3.427
10017TIP3    H229995   7.234   3.924   3.340
10018TIP3   OH229996   1.864   7.748   4.138
10018TIP3    H129997   1.790   7.695   4.108
10018TIP3    H229998   1.916   7.764   4.059
10019TIP3   OH229999   2.777   5.449   1.515
10019TIP3    H130000   2.871   5.461   1.522
10019TIP3    H230001   2.764   5.403   1.432
10020TIP3   OH230002   6.713   4.179   6.469
10020TIP3    H130003   6.683   4.242   6.534
10020TIP3    H230004   6.802   4.156   6.497
10021TIP3   OH230005   3.608   6.768   6.328
10021TIP3    H130006   3.641   6.683   6.358
10021TIP3    H230007   3.520   6.774   6.366
10022TIP3   OH230008   0.476   2.978   2.317
10022TIP3    H130009   0.466   2.979   2.412
10022TIP3    H230010   0.563   2.942   2.302
10023TIP3   OH230011   6.161   0.925   0.573
10023TIP3    H130012   6.235   0.882   0.530
10023TIP3    H230013   6.100   0.943   0.502
10024TIP3   OH230014   8.157   4.387   0.161
10024TIP3    H130015   8.158   4.304   0.207
10024TIP3    H230016   8.064   4.408   0.151
10025TIP3   OH230017   1.333   3.920   0.357
10025TIP3    H130018   1.385   3.896   0.433
10025TIP3    H230019   1.371   3.870   0.285
10026TIP3   OH230020   7.434   7.209   3.242
10026TIP3    H130021   7.342   7.233   3.248
10026TIP3    H230022   7.444   7.172   3.155
10027TIP3   OH230023   2.215   1.913   4.504
10027TIP3    H130024   2.292   1.966   4.481
10027TIP3    H230025   2.145   1.947   4.449
10028TIP3   OH230026   0.092   7.154   3.891
10028TIP3    H130027   0.083   7.248   3.873
10028TIP3    H230028   0.147   7.150   3.969
10029TIP3   OH230029   5.846   0.760   3.590
10029TIP3    H130030   5.784   0.707   3.539
10029TIP3    H230031   5.826   0.850   3.565
10030TIP3   OH230032   2.550   3.274   4.247
10030TIP3    H130033   2.573   3.182   4.236
10030TIP3    H230034   2.496   3.276   4.326
10031TIP3   OH230035   0.869   3.415   2.499
10031TIP3    H130036   0.898   3.507   2.500
10031TIP3    H230037   0.809   3.409   2.573
10032TIP3   OH230038   0.526   2.748   2.916
10032TIP3    H130039   0.617   2.728   2.937
10032TIP3    H230040   0.476   2.678   2.958
10033TIP3   OH230041   6.250   1.871   0.422
10033TIP3    H130042   6.233   1.944   0.481
10033TIP3    H230043   6.339   1.843   0.444
10034TIP3   OH230044   7.321   1.222   3.652
10034TIP3    H130045   7.303   1.314   3.636
10034TIP3    H230046   7.382   1.221   3.726
10035TIP3   OH230047   3.164   6.816   2.838
10035TIP3    H130048   3.148   6.739   2.783
10035TIP3    H230049   3.162   6.890   2.777
10036TIP3   OH230050   6.093   1.890   1.958
10036TIP3    H130051   6.048   1.843   1.888
10036TIP3    H230052   6.065   1.981   1.947
10037TIP3   OH230053   4.898   2.089   5.471
10037TIP3    H130054   4.972   2.070   5.413
10037TIP3    H230055   4.853   2.005   5.480
10038TIP3   OH230056   2.727   6.202   3.994
10038TIP3    H130057   2.792   6.248   4.048
10038TIP3    H230058   2.740   6.239   3.906
10039TIP3   OH230059   6.249   1.809   2.508
10039TIP3    H130060   6.335   1.833   2.542
10039TIP3    H230061   6.236   1.866   2.432
10040TIP3   OH230062   3.925   3.217   3.063
10040TIP3    H130063   3.937   3.154   2.992
10040TIP3    H230064   4.000   3.277   3.054
10041TIP3   OH230065   3.984   5.361   6.483
10041TIP3    H130066   3.955   5.391   6.396
10041TIP3    H230067   4.076   5.388   6.488
10042TIP3   OH230068   6.818   4.576   0.298
10042TIP3    H130069   6.890   4.576   0.234
10042TIP3    H230070   6.776   4.491   0.286
10043TIP3   OH230071   8.231   7.653   6.557
10043TIP3    H130072   8.237   7.749   6.562
10043TIP3    H230073   8.159   7.631   6.616
10044TIP3   OH230074   4.137   3.194   3.591
10044TIP3    H130075   4.217   3.143   3.601
10044TIP3    H230076   4.146   3.238   3.507
10045TIP3   OH230077   3.306   3.429   5.668
10045TIP3    H130078   3.309   3.361   5.600
10045TIP3    H230079   3.333   3.509   5.623
10046TIP3   OH230080   7.888   3.659   1.318
10046TIP3    H130081   7.877   3.741   1.270
10046TIP3    H230082   7.983   3.649   1.328
10047TIP3   OH230083   0.659   0.776   3.003
10047TIP3    H130084   0.646   0.722   3.081
10047TIP3    H230085   0.674   0.864   3.037
10048TIP3   OH230086   2.718   6.997   0.252
10048TIP3    H130087   2.743   6.982   0.161
10048TIP3    H230088   2.657   7.071   0.248
10049TIP3   OH230089   5.046   1.011   1.263
10049TIP3    H130090   4.995   0.931   1.248
10049TIP3    H230091   5.122   0.981   1.313
10050TIP3   OH230092   2.156   7.201   5.152
10050TIP3    H130093   2.104   7.261   5.097
10050TIP3    H230094   2.244   7.205   5.114
10051TIP3   OH230095   0.600   0.431   4.318
10051TIP3    H130096   0.589   0.418   4.412
10051TIP3    H230097   0.533   0.495   4.294
10052TIP3   OH230098   0.336   1.037   2.465
10052TIP3    H130099   0.361   1.129   2.473
10052TIP3    H230100   0.399   0.990   2.520
10053TIP3   OH230101   5.147   2.415   1.299
10053TIP3    H130102   5.107   2.435   1.214
10053TIP3    H230103   5.241   2.413   1.282
10054TIP3   OH230104   4.586   3.129   2.354
10054TIP3    H130105   4.600   3.084   2.437
10054TIP3    H230106   4.498   3.102   2.327
10055TIP3   OH230107   4.457   3.371   3.587
10055TIP3    H130108   4.494   3.410   3.508
10055TIP3    H230109   4.494   3.282   3.589
10056TIP3   OH230110   8.000   6.099   5.450
10056TIP3    H130111   7.982   6.068   5.362
10056TIP3    H230112   8.036   6.187   5.438
10057TIP3   OH230113   2.387   7.497   2.983
10057TIP3    H130114   2.316   7.500   3.048
10057TIP3    H230115   2.435   7.418   3.003
10058TIP3   OH230116   3.188   0.083   1.275
10058TIP3    H130117   3.153   0.118   1.193
10058TIP3    H230118   3.123   0.107   1.341
10059TIP3   OH230119   1.453   1.853   1.094
10059TIP3    H130120   1.443   1.945   1.120
10059TIP3    H230121   1.365   1.825   1.070
10060TIP3   OH230122   5.657   5.877   5.401
10060TIP3    H130123   5.644   5.965   5.437
10060TIP3    H230124   5.609   5.820   5.461
10061TIP3   OH230125   1.761   6.420   6.306
10061TIP3    H130126   1.771   6.511   6.335
10061TIP3    H230127   1.686   6.387   6.355
10062TIP3   OH230128   3.582   5.849   4.287
10062TIP3    H130129   3.569   5.901   4.366
10062TIP3    H230130   3.514   5.782   4.290
10063TIP3   OH230131   4.241   0.067   4.535
10063TIP3    H130132   4.194   0.099   4.612
10063TIP3    H230133   4.296  -0.004   4.569
10064TIP3   OH230134   4.197   1.260   5.045
10064TIP3    H130135   4.164   1.297   4.963
10064TIP3    H230136   4.291   1.275   5.042
10065TIP3   OH230137   0.467   7.055   3.412
10065TIP3    H130138   0.416   6.978   3.385
10065TIP3    H230139   0.431   7.079   3.497
10066TIP3   OH230140   1.246   5.443   3.948
10066TIP3    H130141   1.313   5.430   3.881
10066TIP3    H230142   1.234   5.538   3.953
10067TIP3   OH230143   7.163   4.826   5.398
10067TIP3    H130144   7.161   4.859   5.488
10067TIP3    H230145   7.100   4.880   5.351
10068TIP3   OH230146   3.487   5.269   6.683
10068TIP3    H130147   3.470   5.363   6.678
10068TIP3    H230148   3.492   5.250   6.777
10069TIP3   OH230149   0.028   5.638   3.380
10069TIP3    H130150   0.068   5.566   3.428
10069TIP3    H230151   0.027   5.711   3.442
10070TIP3   OH230152   8.099   1.455   6.372
10070TIP3    H130153   8.106   1.476   6.278
10070TIP3    H230154   8.103   1.359   6.375
10071TIP3   OH230155   6.257   3.837   3.799
10071TIP3    H130156   6.313   3.766   3.766
10071TIP3    H230157   6.243   3.817   3.891
10072TIP3   OH230158   0.889   7.316   6.455
10072TIP3    H130159   0.970   7.271   6.478
10072TIP3    H230160   0.910   7.363   6.374
10073TIP3   OH230161   1.069   4.253   4.940
10073TIP3    H130162   1.144   4.285   4.991
10073TIP3    H230163   0.993   4.292   4.982
10074TIP3   OH230164   1.779   3.695   4.322
10074TIP3    H130165   1.857   3.715   4.270
10074TIP3    H230166   1.735   3.626   4.272
10075TIP3   OH230167   4.269   6.919   0.005
10075TIP3    H130168   4.277   6.909   0.100
10075TIP3    H230169   4.265   6.829  -0.028
10076TIP3   OH230170   0.779   1.890   3.380
10076TIP3    H130171   0.849   1.826   3.369
10076TIP3    H230172   0.717   1.870   3.310
10077TIP3   OH230173   5.378   0.724   4.828
10077TIP3    H130174   5.464   0.765   4.841
10077TIP3    H230175   5.319   0.798   4.813
10078TIP3   OH230176   1.383   4.313   0.585
10078TIP3    H130177   1.361   4.278   0.498
10078TIP3    H230178   1.357   4.243   0.645
10079TIP3   OH230179   3.411   3.338   3.895
10079TIP3    H130180   3.451   3.400   3.834
10079TIP3    H230181   3.388   3.262   3.841
10080TIP3   OH230182   1.631   4.994   5.356
10080TIP3    H130183   1.608   5.027   5.443
10080TIP3    H230184   1.707   5.046   5.329
10081TIP3   OH230185   6.565   6.138   4.828
10081TIP3    H130186   6.588   6.226   4.858
10081TIP3    H230187   6.514   6.101   4.899
10082TIP3   OH230188   5.181   0.219   0.919
10082TIP3    H130189   5.178   0.159   0.993
10082TIP3    H230190   5.237   0.291   0.949
10083TIP3   OH230191   3.244   4.242   4.164
10083TIP3    H130192   3.197   4.164   4.135
10083TIP3    H230193   3.264   4.226   4.256
10084TIP3   OH230194   8.001   1.917   2.697
10084TIP3    H130195   7.944   1.959   2.634
10084TIP3    H230196   7.945   1.855   2.743
10085TIP3   OH230197   3.672   5.346   0.862
10085TIP3    H130198   3.646   5.405   0.792
10085TIP3    H230199   3.607   5.276   0.860
10086TIP3   OH230200   6.804   5.938   0.770
10086TIP3    H130201   6.726   5.893   0.737
10086TIP3    H230202   6.854   5.960   0.692
10087TIP3   OH230203   7.968   4.724   0.474
10087TIP3    H130204   7.933   4.798   0.523
10087TIP3    H230205   8.041   4.760   0.424
10088TIP3   OH230206   2.860   1.518   6.025
10088TIP3    H130207   2.836   1.554   5.940
10088TIP3    H230208   2.778   1.487   6.063
10089TIP3   OH230209   7.055   7.259   0.583
10089TIP3    H130210   7.110   7.181   0.571
10089TIP3    H230211   6.999   7.238   0.657
10090TIP3   OH230212   5.604   7.647   3.922
10090TIP3    H130213   5.560   7.726   3.951
10090TIP3    H230214   5.647   7.672   3.840
10091TIP3   OH230215   1.174   4.456   2.222
10091TIP3    H130216   1.229   4.495   2.153
10091TIP3    H230217   1.087   4.494   2.206
10092TIP3   OH230218   7.316   4.355   2.903
10092TIP3    H130219   7.357   4.317   2.825
10092TIP3    H230220   7.223   4.361   2.881
10093TIP3   OH230221   5.280   3.688  -0.042
10093TIP3    H130222   5.245   3.640   0.034
10093TIP3    H230223   5.205   3.737  -0.076
10094TIP3   OH230224   4.575   6.244   4.321
10094TIP3    H130225   4.596   6.336   4.307
10094TIP3    H230226   4.485   6.245   4.354
10095TIP3   OH230227   4.382   6.462   1.127
10095TIP3    H130228   4.410   6.525   1.060
10095TIP3    H230229   4.297   6.495   1.156
10096TIP3   OH230230   3.915   2.468   4.964
10096TIP3    H130231   4.008   2.490   4.952
10096TIP3    H230232   3.915   2.372   4.971
10097TIP3   OH230233   4.777   6.701   2.076
10097TIP3    H130234   4.822   6.631   2.028
10097TIP3    H230235   4.684   6.689   2.054
10098TIP3   OH230236   3.563   1.279   0.519
10098TIP3    H130237   3.509   1.342   0.567
10098TIP3    H230238   3.533   1.286   0.429
10099TIP3   OH230239   2.935   4.377   0.915
10099TIP3    H130240   2.980   4.444   0.862
10099TIP3    H230241   2.901   4.425   0.990
10100TIP3   OH230242   5.330   3.072   5.174
10100TIP3    H130243   5.296   3.075   5.085
10100TIP3    H230244   5.254   3.052   5.229
10101TIP3   OH230245   6.819   0.409   0.798
10101TIP3    H130246   6.746   0.454   0.756
10101TIP3    H230247   6.894   0.427   0.742
10102TIP3   OH230248   7.054   3.312   0.317
10102TIP3    H130249   7.000   3.242   0.354
10102TIP3    H230250   6.992   3.369   0.272
10103TIP3   OH230251   0.386   6.799   0.187
10103TIP3    H130252   0.423   6.736   0.125
10103TIP3    H230253   0.314   6.752   0.229
10104TIP3   OH230254   2.235   6.728   6.244
10104TIP3    H130255   2.322   6.757   6.216
10104TIP3    H230256   2.215   6.655   6.186
10105TIP3   OH230257   0.255   4.910   4.906
10105TIP3    H130258   0.187   4.945   4.849
10105TIP3    H230259   0.302   4.987   4.939
10106TIP3   OH230260   2.910   2.580   5.220
10106TIP3    H130261   2.985   2.639   5.227
10106TIP3    H230262   2.859   2.614   5.146
10107TIP3   OH230263   8.052   0.664   0.406
10107TIP3    H130264   7.978   0.659   0.346
10107TIP3    H230265   8.015   0.646   0.492
10108TIP3   OH230266   6.814   4.150   3.788
10108TIP3    H130267   6.852   4.063   3.799
10108TIP3    H230268   6.722   4.133   3.766
10109TIP3   OH230269   0.498   5.354   6.634
10109TIP3    H130270   0.541   5.269   6.647
10109TIP3    H230271   0.568   5.418   6.643
10110TIP3   OH230272   7.232   2.903   6.595
10110TIP3    H130273   7.314   2.858   6.616
10110TIP3    H230274   7.203   2.863   6.513
10111TIP3   OH230275   8.215   0.222   1.999
10111TIP3    H130276   8.306   0.233   1.973
10111TIP3    H230277   8.216   0.150   2.062
10112TIP3   OH230278   3.882   6.823   6.560
10112TIP3    H130279   3.889   6.829   6.655
10112TIP3    H230280   3.947   6.886   6.527
10113TIP3   OH230281   7.114   3.518   0.503
10113TIP3    H130282   7.131   3.466   0.582
10113TIP3    H230283   7.094   3.453   0.435
10114TIP3   OH230284   2.187   4.928   1.210
10114TIP3    H130285   2.237   4.926   1.292
10114TIP3    H230286   2.253   4.934   1.141
10115TIP3   OH230287   0.250   6.054   0.983
10115TIP3    H130288   0.195   6.112   0.930
10115TIP3    H230289   0.255   6.098   1.068
10116TIP3   OH230290   3.422   3.111   1.396
10116TIP3    H130291   3.414   3.192   1.345
10116TIP3    H230292   3.496   3.126   1.454
10117TIP3   OH230293   2.364   1.898   3.408
10117TIP3    H130294   2.440   1.926   3.357
10117TIP3    H230295   2.402   1.854   3.485
10118TIP3   OH230296   6.531   6.555   5.102
10118TIP3    H130297   6.569   6.467   5.104
10118TIP3    H230298   6.505   6.568   5.011
10119TIP3   OH230299   0.426   1.221   4.356
10119TIP3    H130300   0.359   1.287   4.375
10119TIP3    H230301   0.482   1.262   4.289
10120TIP3   OH230302   1.324   7.124   3.323
10120TIP3    H130303   1.393   7.058   3.333
10120TIP3    H230304   1.253   7.094   3.380
10121TIP3   OH230305   6.777   5.881   5.780
10121TIP3    H130306   6.705   5.931   5.742
10121TIP3    H230307   6.837   5.867   5.708
10122TIP3   OH230308   2.668   3.742   1.804
10122TIP3    H130309   2.733   3.685   1.762
10122TIP3    H230310   2.700   3.751   1.894
10123TIP3   OH230311   4.093   5.572   2.770
10123TIP3    H130312   4.067   5.650   2.819
10123TIP3    H230313   4.139   5.605   2.693
10124TIP3   OH230314   2.227   2.381   4.519
10124TIP3    H130315   2.247   2.306   4.463
10124TIP3    H230316   2.155   2.350   4.575
10125TIP3   OH230317   1.260   0.930   5.849
10125TIP3    H130318   1.333   0.892   5.801
10125TIP3    H230319   1.239   1.011   5.803
10126TIP3   OH230320   4.229   5.671   2.565
10126TIP3    H130321   4.317   5.708   2.555
10126TIP3    H230322   4.213   5.625   2.483
10127TIP3   OH230323   0.172   7.057   1.046
10127TIP3    H130324   0.223   6.991   1.093
10127TIP3    H230325   0.089   7.062   1.094
10128TIP3   OH230326   0.041   0.270   0.929
10128TIP3    H130327   0.009   0.345   0.879
10128TIP3    H230328   0.099   0.308   0.995
10129TIP3   OH230329   5.367   0.837   5.572
10129TIP3    H130330   5.366   0.930   5.596
10129TIP3    H230331   5.279   0.805   5.593
10130TIP3   OH230332   0.295   3.395   2.795
10130TIP3    H130333   0.327   3.317   2.749
10130TIP3    H230334   0.365   3.416   2.857
10131TIP3   OH230335   5.662   1.855   5.616
10131TIP3    H130336   5.618   1.787   5.565
10131TIP3    H230337   5.602   1.929   5.614
10132TIP3   OH230338   0.364   2.622   3.799
10132TIP3    H130339   0.335   2.657   3.883
10132TIP3    H230340   0.366   2.527   3.811
10133TIP3   OH230341   7.027   0.999   4.675
10133TIP3    H130342   7.059   1.039   4.594
10133TIP3    H230343   7.073   0.915   4.680
10134TIP3   OH230344   1.221   4.591   5.330
10134TIP3    H130345   1.309   4.566   5.301
10134TIP3    H230346   1.220   4.572   5.423
10135TIP3   OH230347   1.212   1.018   2.320
10135TIP3    H130348   1.118   1.017   2.332
10135TIP3    H230349   1.248   1.032   2.407
10136TIP3   OH230350   3.944   5.817   0.113
10136TIP3    H130351   3.874   5.857   0.061
10136TIP3    H230352   3.955   5.875   0.188
10137TIP3   OH230353   7.956   6.676   3.568
10137TIP3    H130354   7.899   6.670   3.644
10137TIP3    H230355   8.035   6.719   3.600
10138TIP3   OH230356   2.004   4.818   4.099
10138TIP3    H130357   2.058   4.896   4.111
10138TIP3    H230358   1.951   4.813   4.179
10139TIP3   OH230359   3.498   0.988   2.994
10139TIP3    H130360   3.516   1.057   3.058
10139TIP3    H230361   3.566   0.923   3.010
10140TIP3   OH230362   4.967   7.777   6.067
10140TIP3    H130363   5.056   7.741   6.066
10140TIP3    H230364   4.932   7.757   5.981
10141TIP3   OH230365   5.963   6.184   4.108
10141TIP3    H130366   5.881   6.230   4.125
10141TIP3    H230367   5.951   6.097   4.146
10142TIP3   OH230368   0.271   4.311   6.516
10142TIP3    H130369   0.357   4.351   6.506
10142TIP3    H230370   0.243   4.291   6.427
10143TIP3   OH230371   6.121   7.442   3.031
10143TIP3    H130372   6.109   7.400   3.116
10143TIP3    H230373   6.174   7.380   2.981
10144TIP3   OH230374   5.561   3.004   5.320
10144TIP3    H130375   5.488   3.035   5.266
10144TIP3    H230376   5.560   3.062   5.396
10145TIP3   OH230377   7.100   5.646   2.197
10145TIP3    H130378   7.005   5.662   2.197
10145TIP3    H230379   7.128   5.668   2.285
10146TIP3   OH230380   8.223   5.716   0.363
10146TIP3    H130381   8.133   5.708   0.395
10146TIP3    H230382   8.277   5.692   0.438
10147TIP3   OH230383   6.238   5.939   6.200
10147TIP3    H130384   6.160   5.918   6.252
10147TIP3    H230385   6.236   5.875   6.129
10148TIP3   OH230386   8.235   2.998   1.853
10148TIP3    H130387   8.232   3.014   1.948
10148TIP3    H230388   8.204   3.080   1.814
10149TIP3   OH230389   2.769   7.476   1.069
10149TIP3    H130390   2.810   7.561   1.085
10149TIP3    H230391   2.730   7.452   1.153
10150TIP3   OH230392   6.483   7.470   6.133
10150TIP3    H130393   6.516   7.474   6.043
10150TIP3    H230394   6.561   7.469   6.188
10151TIP3   OH230395   6.636   4.878   3.270
10151TIP3    H130396   6.727   4.869   3.296
10151TIP3    H230397   6.618   4.798   3.220
10152TIP3   OH230398   4.802   4.648   2.567
10152TIP3    H130399   4.764   4.570   2.526
10152TIP3    H230400   4.726   4.703   2.587
10153TIP3   OH230401   3.552   1.042   6.527
10153TIP3    H130402   3.467   1.016   6.563
10153TIP3    H230403   3.557   1.136   6.544
10154TIP3   OH230404   2.990   1.314   4.918
10154TIP3    H130405   2.978   1.315   4.823
10154TIP3    H230406   3.039   1.233   4.934
10155TIP3   OH230407   3.535   2.796   6.018
10155TIP3    H130408   3.482   2.725   6.054
10155TIP3    H230409   3.498   2.813   5.932
10156TIP3   OH230410   7.684   6.674   2.656
10156TIP3    H130411   7.605   6.717   2.623
10156TIP3    H230412   7.747   6.744   2.666
10157TIP3   OH230413   1.765   7.359   2.418
10157TIP3    H130414   1.712   7.314   2.484
10157TIP3    H230415   1.731   7.448   2.417
10158TIP3   OH230416   3.762   1.147   3.505
10158TIP3    H130417   3.788   1.194   3.426
10158TIP3    H230418   3.700   1.205   3.549
10159TIP3   OH230419   1.395   7.472   2.316
10159TIP3    H130420   1.405   7.530   2.391
10159TIP3    H230421   1.306   7.439   2.322
10160TIP3   OH230422   7.114   0.426   6.123
10160TIP3    H130423   7.102   0.337   6.158
10160TIP3    H230424   7.208   0.441   6.130
10161TIP3   OH230425   3.901   6.872   3.333
10161TIP3    H130426   3.921   6.873   3.239
10161TIP3    H230427   3.958   6.804   3.369
10162TIP3   OH230428   7.768   4.259   2.928
10162TIP3    H130429   7.797   4.288   3.014
10162TIP3    H230430   7.839   4.282   2.868
10163TIP3   OH230431   7.998   0.013   1.625
10163TIP3    H130432   7.915   0.059   1.615
10163TIP3    H230433   8.055   0.050   1.557
10164TIP3   OH230434   4.590   7.758   1.340
10164TIP3    H130435   4.615   7.835   1.288
10164TIP3    H230436   4.535   7.793   1.410
10165TIP3   OH230437   3.358   7.306   2.055
10165TIP3    H130438   3.324   7.284   2.142
10165TIP3    H230439   3.288   7.282   1.995
10166TIP3   OH230440   0.606   1.951   2.708
10166TIP3    H130441   0.527   1.954   2.762
10166TIP3    H230442   0.574   1.934   2.619
10167TIP3   OH230443   4.841   5.279   6.270
10167TIP3    H130444   4.839   5.344   6.200
10167TIP3    H230445   4.754   5.282   6.309
10168TIP3   OH230446   2.284   2.312   6.594
10168TIP3    H130447   2.208   2.362   6.566
10168TIP3    H230448   2.301   2.341   6.683
10169TIP3   OH230449   6.235   3.717   4.779
10169TIP3    H130450   6.185   3.794   4.753
10169TIP3    H230451   6.172   3.661   4.824
10170TIP3   OH230452   3.132   4.039   2.733
10170TIP3    H130453   3.210   4.090   2.712
10170TIP3    H230454   3.113   3.990   2.653
10171TIP3   OH230455   3.121   1.718   3.215
10171TIP3    H130456   3.186   1.788   3.211
10171TIP3    H230457   3.048   1.756   3.265
10172TIP3   OH230458   8.146   6.796   4.577
10172TIP3    H130459   8.232   6.770   4.544
10172TIP3    H230460   8.108   6.846   4.505
10173TIP3   OH230461   4.343   7.157   1.842
10173TIP3    H130462   4.311   7.085   1.788
10173TIP3    H230463   4.278   7.227   1.830
10174TIP3   OH230464   4.934   6.081   2.129
10174TIP3    H130465   5.017   6.039   2.150
10174TIP3    H230466   4.932   6.160   2.183
10175TIP3   OH230467   3.284   0.534   0.840
10175TIP3    H130468   3.229   0.499   0.771
10175TIP3    H230469   3.336   0.460   0.870
10176TIP3   OH230470   2.523   2.643   5.588
10176TIP3    H130471   2.596   2.582   5.588
10176TIP3    H230472   2.445   2.588   5.577
10177TIP3   OH230473   4.219   1.445   3.947
10177TIP3    H130474   4.257   1.474   4.030
10177TIP3    H230475   4.135   1.491   3.942
10178TIP3   OH230476   0.555   5.701   0.907
10178TIP3    H130477   0.523   5.790   0.898
10178TIP3    H230478   0.519   5.670   0.990
10179TIP3   OH230479   7.279   4.102   1.365
10179TIP3    H130480   7.266   4.154   1.444
10179TIP3    H230481   7.269   4.011   1.393
10180TIP3   OH230482   5.715   7.359   2.864
10180TIP3    H130483   5.790   7.379   2.808
10180TIP3    H230484   5.724   7.265   2.882
10181TIP3   OH230485   0.561   0.405   1.165
10181TIP3    H130486   0.547   0.451   1.082
10181TIP3    H230487   0.572   0.314   1.140
10182TIP3   OH230488   5.316   6.250   0.829
10182TIP3    H130489   5.367   6.331   0.834
10182TIP3    H230490   5.351   6.204   0.753
10183TIP3   OH230491   6.729   1.962   1.175
10183TIP3    H130492   6.665   1.891   1.165
10183TIP3    H230493   6.707   2.024   1.105
10184TIP3   OH230494   3.752   0.772   3.426
10184TIP3    H130495   3.710   0.734   3.348
10184TIP3    H230496   3.831   0.814   3.393
10185TIP3   OH230497   4.221   0.991   3.852
10185TIP3    H130498   4.282   1.063   3.869
10185TIP3    H230499   4.202   0.997   3.758
10186TIP3   OH230500   6.636   4.330   0.359
10186TIP3    H130501   6.665   4.288   0.441
10186TIP3    H230502   6.577   4.399   0.388
10187TIP3   OH230503   1.566   7.310   4.168
10187TIP3    H130504   1.650   7.300   4.124
10187TIP3    H230505   1.527   7.223   4.165
10188TIP3   OH230506   2.221   6.170   0.414
10188TIP3    H130507   2.194   6.124   0.334
10188TIP3    H230508   2.172   6.127   0.484
10189TIP3   OH230509   0.898   3.138   2.258
10189TIP3    H130510   0.867   3.220   2.297
10189TIP3    H230511   0.929   3.163   2.171
10190TIP3   OH230512   0.711   2.982   4.684
10190TIP3    H130513   0.687   3.071   4.658
10190TIP3    H230514   0.766   2.994   4.762
10191TIP3   OH230515   0.622   4.357   0.657
10191TIP3    H130516   0.712   4.341   0.628
10191TIP3    H230517   0.593   4.274   0.693
10192TIP3   OH230518   1.836   6.846   5.397
10192TIP3    H130519   1.897   6.809   5.333
10192TIP3    H230520   1.892   6.879   5.467
10193TIP3   OH230521   5.343   1.310   0.964
10193TIP3    H130522   5.335   1.383   0.902
10193TIP3    H230523   5.310   1.346   1.046
10194TIP3   OH230524   4.699   2.365   2.457
10194TIP3    H130525   4.636   2.435   2.436
10194TIP3    H230526   4.688   2.301   2.388
10195TIP3   OH230527   5.706   5.157   3.428
10195TIP3    H130528   5.782   5.108   3.461
10195TIP3    H230529   5.634   5.094   3.432
10196TIP3   OH230530   8.067   4.657   0.742
10196TIP3    H130531   8.063   4.705   0.658
10196TIP3    H230532   7.976   4.640   0.764
10197TIP3   OH230533   6.640   4.726   4.476
10197TIP3    H130534   6.679   4.751   4.392
10197TIP3    H230535   6.593   4.804   4.506
10198TIP3   OH230536   2.821   1.949   4.231
10198TIP3    H130537   2.810   2.007   4.156
10198TIP3    H230538   2.857   2.005   4.300
10199TIP3   OH230539   1.229   1.668   6.784
10199TIP3    H130540   1.254   1.680   6.692
10199TIP3    H230541   1.243   1.754   6.824
10200TIP3   OH230542   5.863   7.539   2.131
10200TIP3    H130543   5.805   7.463   2.128
10200TIP3    H230544   5.804   7.614   2.138
10201TIP3   OH230545   2.323   1.407   5.814
10201TIP3    H130546   2.327   1.389   5.720
10201TIP3    H230547   2.381   1.483   5.826
10202TIP3   OH230548   7.713   1.447   5.779
10202TIP3    H130549   7.716   1.493   5.695
10202TIP3    H230550   7.621   1.452   5.806
10203TIP3   OH230551   2.166   7.595   4.246
10203TIP3    H130552   2.261   7.583   4.254
10203TIP3    H230553   2.151   7.684   4.277
10204TIP3   OH230554   5.794   3.674   2.810
10204TIP3    H130555   5.730   3.650   2.743
10204TIP3    H230556   5.819   3.764   2.788
10205TIP3   OH230557   6.375   6.200   2.539
10205TIP3    H130558   6.332   6.211   2.454
10205TIP3    H230559   6.303   6.182   2.599
10206TIP3   OH230560   2.690   0.243   0.034
10206TIP3    H130561   2.700   0.149   0.050
10206TIP3    H230562   2.596   0.258   0.032
10207TIP3   OH230563   4.240   2.356   2.263
10207TIP3    H130564   4.274   2.320   2.182
10207TIP3    H230565   4.164   2.301   2.283
10208TIP3   OH230566   6.171   2.257   0.349
10208TIP3    H130567   6.111   2.296   0.285
10208TIP3    H230568   6.256   2.298   0.329
10209TIP3   OH230569   6.780   2.776   4.435
10209TIP3    H130570   6.874   2.789   4.437
10209TIP3    H230571   6.765   2.694   4.481
10210TIP3   OH230572   7.284   0.781   2.020
10210TIP3    H130573   7.217   0.847   2.035
10210TIP3    H230574   7.340   0.785   2.097
10211TIP3   OH230575   1.063   2.464   3.775
10211TIP3    H130576   1.004   2.529   3.813
10211TIP3    H230577   1.076   2.494   3.685
10212TIP3   OH230578   3.980   3.043   0.752
10212TIP3    H130579   3.949   2.990   0.679
10212TIP3    H230580   4.074   3.049   0.739
10213TIP3   OH230581   6.355   5.998   4.952
10213TIP3    H130582   6.328   6.004   5.043
10213TIP3    H230583   6.280   6.030   4.903
10214TIP3   OH230584   5.066   4.477   0.209
10214TIP3    H130585   5.006   4.406   0.186
10214TIP3    H230586   5.097   4.454   0.297
10215TIP3   OH230587   6.859   3.237   3.875
10215TIP3    H130588   6.803   3.189   3.937
10215TIP3    H230589   6.837   3.329   3.889
10216TIP3   OH230590   7.857   2.860   0.909
10216TIP3    H130591   7.857   2.954   0.894
10216TIP3    H230592   7.862   2.851   1.004
10217TIP3   OH230593   1.466   1.915   6.274
10217TIP3    H130594   1.442   1.823   6.287
10217TIP3    H230595   1.545   1.912   6.219
10218TIP3   OH230596   5.118   1.413   4.491
10218TIP3    H130597   5.120   1.320   4.468
10218TIP3    H230598   5.191   1.424   4.553
10219TIP3   OH230599   3.407   0.185   1.403
10219TIP3    H130600   3.474   0.192   1.335
10219TIP3    H230601   3.329   0.153   1.358
10220TIP3   OH230602   2.022   0.726   4.897
10220TIP3    H130603   2.040   0.820   4.892
10220TIP3    H230604   1.948   0.713   4.838
10221TIP3   OH230605   4.088   5.512   4.910
10221TIP3    H130606   4.145   5.483   4.981
10221TIP3    H230607   4.145   5.565   4.854
10222TIP3   OH230608   2.568   1.463   6.539
10222TIP3    H130609   2.534   1.552   6.524
10222TIP3    H230610   2.657   1.465   6.505
10223TIP3   OH230611   1.463   6.102   6.551
10223TIP3    H130612   1.389   6.042   6.561
10223TIP3    H230613   1.449   6.168   6.618
10224TIP3   OH230614   5.726   3.529   0.808
10224TIP3    H130615   5.821   3.517   0.806
10224TIP3    H230616   5.694   3.475   0.736
10225TIP3   OH230617   4.529   3.341   5.589
10225TIP3    H130618   4.597   3.284   5.553
10225TIP3    H230619   4.568   3.378   5.668
10226TIP3   OH230620   2.375   6.533   4.993
10226TIP3    H130621   2.332   6.566   4.914
10226TIP3    H230622   2.413   6.450   4.966
10227TIP3   OH230623   6.274   6.752   4.603
10227TIP3    H130624   6.309   6.828   4.649
10227TIP3    H230625   6.319   6.677   4.641
10228TIP3   OH230626   3.946   3.452   2.863
10228TIP3    H130627   4.018   3.417   2.916
10228TIP3    H230628   3.885   3.489   2.927
10229TIP3   OH230629   7.364   0.812   4.423
10229TIP3    H130630   7.454   0.814   4.453
10229TIP3    H230631   7.361   0.877   4.352
10230TIP3   OH230632   5.419   2.360   2.737
10230TIP3    H130633   5.449   2.363   2.646
10230TIP3    H230634   5.492   2.395   2.788
10231TIP3   OH230635   1.590   4.273   6.695
10231TIP3    H130636   1.587   4.180   6.716
10231TIP3    H230637   1.593   4.277   6.600
10232TIP3   OH230638   2.734   1.557   3.696
10232TIP3    H130639   2.668   1.540   3.764
10232TIP3    H230640   2.682   1.579   3.619
10233TIP3   OH230641   1.029   5.165   6.189
10233TIP3    H130642   1.071   5.131   6.269
10233TIP3    H230643   1.030   5.260   6.201
10234TIP3   OH230644   1.485   0.935   5.313
10234TIP3    H130645   1.570   0.980   5.311
10234TIP3    H230646   1.499   0.861   5.371
10235TIP3   OH230647   2.446   4.533   0.403
10235TIP3    H130648   2.435   4.543   0.309
10235TIP3    H230649   2.373   4.582   0.441
10236TIP3   OH230650   1.973   2.297   3.317
10236TIP3    H130651   2.025   2.241   3.259
10236TIP3    H230652   1.889   2.305   3.273
10237TIP3   OH230653   4.321   3.426   2.695
10237TIP3    H130654   4.269   3.498   2.730
10237TIP3    H230655   4.397   3.421   2.752
10238TIP3   OH230656   5.226   4.662   6.722
10238TIP3    H130657   5.175   4.737   6.755
10238TIP3    H230658   5.253   4.615   6.801
10239TIP3   OH230659   1.500   7.284   5.345
10239TIP3    H130660   1.426   7.226   5.328
10239TIP3    H230661   1.537   7.301   5.258
10240TIP3   OH230662   6.170   4.336   5.294
10240TIP3    H130663   6.216   4.266   5.340
10240TIP3    H230664   6.186   4.414   5.347
10241TIP3   OH230665   2.296   3.987   3.463
10241TIP3    H130666   2.361   3.958   3.527
10241TIP3    H230667   2.265   4.071   3.496
10242TIP3   OH230668   1.356   5.301   2.620
10242TIP3    H130669   1.263   5.309   2.639
10242TIP3    H230670   1.394   5.261   2.698
10243TIP3   OH230671   0.466   3.665   6.628
10243TIP3    H130672   0.531   3.624   6.686
10243TIP3    H230673   0.472   3.758   6.647
10244TIP3   OH230674   5.665   3.149   0.619
10244TIP3    H130675   5.686   3.190   0.703
10244TIP3    H230676   5.647   3.057   0.641
10245TIP3   OH230677   2.671   5.676   0.895
10245TIP3    H130678   2.699   5.696   0.806
10245TIP3    H230679   2.665   5.580   0.897
10246TIP3   OH230680   3.968   6.357   4.090
10246TIP3    H130681   4.032   6.386   4.026
10246TIP3    H230682   3.957   6.263   4.073
10247TIP3   OH230683   1.849   1.884   4.189
10247TIP3    H130684   1.779   1.839   4.142
10247TIP3    H230685   1.812   1.970   4.211
10248TIP3   OH230686   4.422   5.514   1.259
10248TIP3    H130687   4.368   5.526   1.181
10248TIP3    H230688   4.394   5.430   1.295
10249TIP3   OH230689   6.653   6.544   4.152
10249TIP3    H130690   6.592   6.471   4.159
10249TIP3    H230691   6.615   6.601   4.085
10250TIP3   OH230692   3.606   7.126   2.416
10250TIP3    H130693   3.578   7.210   2.454
10250TIP3    H230694   3.637   7.149   2.328
10251TIP3   OH230695   4.372   6.401   5.483
10251TIP3    H130696   4.320   6.406   5.403
10251TIP3    H230697   4.362   6.311   5.513
10252TIP3   OH230698   3.728   3.471   2.644
10252TIP3    H130699   3.735   3.565   2.660
10252TIP3    H230700   3.775   3.430   2.716
10253TIP3   OH230701   3.768   5.997   0.949
10253TIP3    H130702   3.731   6.082   0.973
10253TIP3    H230703   3.724   5.974   0.868
10254TIP3   OH230704   5.513   4.411   0.145
10254TIP3    H130705   5.576   4.376   0.083
10254TIP3    H230706   5.444   4.344   0.149
10255TIP3   OH230707   6.507   2.843   3.846
10255TIP3    H130708   6.602   2.846   3.857
10255TIP3    H230709   6.488   2.915   3.785
10256TIP3   OH230710   4.746   2.958   2.141
10256TIP3    H130711   4.754   2.975   2.235
10256TIP3    H230712   4.652   2.963   2.124
10257TIP3   OH230713   3.165   2.210   0.575
10257TIP3    H130714   3.126   2.222   0.488
10257TIP3    H230715   3.235   2.275   0.578
10258TIP3   OH230716   3.013   0.711   6.252
10258TIP3    H130717   3.101   0.738   6.279
10258TIP3    H230718   3.026   0.624   6.214
10259TIP3   OH230719   7.544   7.717   3.938
10259TIP3    H130720   7.521   7.702   3.846
10259TIP3    H230721   7.469   7.684   3.987
10260TIP3   OH230722   1.060   3.343   3.755
10260TIP3    H130723   1.079   3.258   3.713
10260TIP3    H230724   0.996   3.322   3.822
10261TIP3   OH230725   2.700   4.617   0.069
10261TIP3    H130726   2.620   4.585   0.112
10261TIP3    H230727   2.704   4.568  -0.013
10262TIP3   OH230728   1.833   0.528   3.038
10262TIP3    H130729   1.839   0.473   2.961
10262TIP3    H230730   1.739   0.536   3.055
10263TIP3   OH230731   4.250   4.322   6.499
10263TIP3    H130732   4.159   4.350   6.490
10263TIP3    H230733   4.277   4.299   6.411
10264TIP3   OH230734   3.624   4.980   6.216
10264TIP3    H130735   3.588   5.066   6.240
10264TIP3    H230736   3.703   5.001   6.166
10265TIP3   OH230737   1.261   1.550   1.421
10265TIP3    H130738   1.316   1.601   1.481
10265TIP3    H230739   1.176   1.595   1.422
10266TIP3   OH230740   5.851   6.140   0.486
10266TIP3    H130741   5.887   6.196   0.555
10266TIP3    H230742   5.916   6.071   0.475
10267TIP3   OH230743   1.544   4.854   3.165
10267TIP3    H130744   1.621   4.798   3.177
10267TIP3    H230745   1.499   4.851   3.249
10268TIP3   OH230746   5.673   0.016   2.918
10268TIP3    H130747   5.639   0.054   2.837
10268TIP3    H230748   5.652  -0.077   2.912
10269TIP3   OH230749   6.170   7.329   1.269
10269TIP3    H130750   6.265   7.324   1.260
10269TIP3    H230751   6.146   7.250   1.317
10270TIP3   OH230752   1.694   6.487   2.377
10270TIP3    H130753   1.775   6.533   2.397
10270TIP3    H230754   1.660   6.531   2.299
10271TIP3   OH230755   0.698   7.021   2.582
10271TIP3    H130756   0.712   6.947   2.523
10271TIP3    H230757   0.613   7.056   2.556
10272TIP3   OH230758   6.774   2.449   4.078
10272TIP3    H130759   6.833   2.511   4.121
10272TIP3    H230760   6.788   2.462   3.985
10273TIP3   OH230761   4.452   6.008   2.859
10273TIP3    H130762   4.453   6.005   2.763
10273TIP3    H230763   4.524   6.066   2.882
10274TIP3   OH230764   3.472   4.171   5.684
10274TIP3    H130765   3.549   4.223   5.660
10274TIP3    H230766   3.415   4.231   5.731
10275TIP3   OH230767   0.985   1.287   5.912
10275TIP3    H130768   1.080   1.289   5.926
10275TIP3    H230769   0.972   1.332   5.829
10276TIP3   OH230770   1.138   2.934   5.299
10276TIP3    H130771   1.190   2.994   5.352
10276TIP3    H230772   1.075   2.895   5.360
10277TIP3   OH230773   3.142   3.535   3.014
10277TIP3    H130774   3.219   3.486   3.043
10277TIP3    H230775   3.077   3.467   2.994
10278TIP3   OH230776   0.926   7.697   4.415
10278TIP3    H130777   1.009   7.742   4.399
10278TIP3    H230778   0.874   7.760   4.465
10279TIP3   OH230779   7.409   3.599   1.638
10279TIP3    H130780   7.424   3.605   1.733
10279TIP3    H230781   7.497   3.590   1.601
10280TIP3   OH230782   5.506   7.227   0.991
10280TIP3    H130783   5.572   7.183   0.938
10280TIP3    H230784   5.479   7.302   0.939
10281TIP3   OH230785   2.623   1.815   4.374
10281TIP3    H130786   2.671   1.888   4.336
10281TIP3    H230787   2.613   1.838   4.466
10282TIP3   OH230788   2.883   3.457   1.916
10282TIP3    H130789   2.911   3.507   1.839
10282TIP3    H230790   2.789   3.469   1.919
10283TIP3   OH230791   4.769   3.502   3.571
10283TIP3    H130792   4.741   3.426   3.622
10283TIP3    H230793   4.732   3.488   3.484
10284TIP3   OH230794   0.895   4.788  -0.050
10284TIP3    H130795   0.853   4.758   0.030
10284TIP3    H230796   0.984   4.812  -0.024
10285TIP3   OH230797   4.720   7.059   3.259
10285TIP3    H130798   4.787   6.992   3.274
10285TIP3    H230799   4.696   7.049   3.167
10286TIP3   OH230800   4.020   6.374   0.342
10286TIP3    H130801   4.068   6.328   0.274
10286TIP3    H230802   4.088   6.407   0.402
10287TIP3   OH230803   1.274   0.461   4.264
10287TIP3    H130804   1.297   0.471   4.357
10287TIP3    H230805   1.321   0.532   4.221
10288TIP3   OH230806   1.557   1.112   2.334
10288TIP3    H130807   1.484   1.092   2.393
10288TIP3    H230808   1.604   1.030   2.326
10289TIP3   OH230809   6.855   4.686   4.671
10289TIP3    H130810   6.772   4.716   4.635
10289TIP3    H230811   6.919   4.704   4.602
10290TIP3   OH230812   7.923   5.451   0.529
10290TIP3    H130813   7.850   5.504   0.500
10290TIP3    H230814   7.978   5.511   0.579
10291TIP3   OH230815   3.325   5.235   1.038
10291TIP3    H130816   3.386   5.245   0.966
10291TIP3    H230817   3.330   5.319   1.085
10292TIP3   OH230818   0.024   3.164   4.423
10292TIP3    H130819   0.096   3.153   4.361
10292TIP3    H230820   0.012   3.076   4.461
10293TIP3   OH230821   6.066   6.965   3.229
10293TIP3    H130822   6.110   6.922   3.303
10293TIP3    H230823   6.092   6.915   3.153
10294TIP3   OH230824   0.376   4.675   3.153
10294TIP3    H130825   0.284   4.699   3.144
10294TIP3    H230826   0.417   4.752   3.193
10295TIP3   OH230827   6.045   2.887   3.695
10295TIP3    H130828   5.991   2.810   3.676
10295TIP3    H230829   6.077   2.872   3.784
10296TIP3   OH230830   2.481   4.938   5.523
10296TIP3    H130831   2.527   4.937   5.607
10296TIP3    H230832   2.434   4.854   5.521
10297TIP3   OH230833   0.638   0.777   2.349
10297TIP3    H130834   0.649   0.838   2.276
10297TIP3    H230835   0.692   0.813   2.419
10298TIP3   OH230836   2.817   7.343   2.900
10298TIP3    H130837   2.730   7.305   2.917
10298TIP3    H230838   2.855   7.286   2.833
10299TIP3   OH230839   5.669   7.688   1.851
10299TIP3    H130840   5.609   7.737   1.794
10299TIP3    H230841   5.647   7.718   1.939
10300TIP3   OH230842   0.811   3.099   6.202
10300TIP3    H130843   0.780   3.139   6.121
10300TIP3    H230844   0.851   3.171   6.251
10301TIP3   OH230845   4.261   1.513   1.722
10301TIP3    H130846   4.342   1.554   1.691
10301TIP3    H230847   4.219   1.580   1.775
10302TIP3   OH230848   7.400   2.878   3.501
10302TIP3    H130849   7.372   2.965   3.531
10302TIP3    H230850   7.440   2.894   3.416
10303TIP3   OH230851   1.295   0.524   5.547
10303TIP3    H130852   1.391   0.529   5.549
10303TIP3    H230853   1.268   0.545   5.636
10304TIP3   OH230854   7.748   6.492   4.712
10304TIP3    H130855   7.764   6.568   4.767
10304TIP3    H230856   7.773   6.520   4.624
10305TIP3   OH230857   5.363   1.268   6.156
10305TIP3    H130858   5.331   1.340   6.209
10305TIP3    H230859   5.294   1.252   6.092
10306TIP3   OH230860   5.409   0.129   2.209
10306TIP3    H130861   5.328   0.179   2.210
10306TIP3    H230862   5.384   0.041   2.180
10307TIP3   OH230863   5.273   2.177   2.423
10307TIP3    H130864   5.309   2.264   2.405
10307TIP3    H230865   5.348   2.126   2.453
10308TIP3   OH230866   7.808   6.754   1.950
10308TIP3    H130867   7.774   6.801   2.026
10308TIP3    H230868   7.740   6.690   1.929
10309TIP3   OH230869   1.550   1.931   5.334
10309TIP3    H130870   1.459   1.902   5.332
10309TIP3    H230871   1.569   1.957   5.243
10310TIP3   OH230872  -0.005   3.639   5.506
10310TIP3    H130873   0.008   3.544   5.506
10310TIP3    H230874   0.041   3.670   5.584
10311TIP3   OH230875   7.803   2.797   1.229
10311TIP3    H130876   7.725   2.744   1.213
10311TIP3    H230877   7.787   2.837   1.314
10312TIP3   OH230878   7.794   2.557   0.664
10312TIP3    H130879   7.733   2.595   0.600
10312TIP3    H230880   7.822   2.632   0.716
10313TIP3   OH230881   5.764   4.476   4.127
10313TIP3    H130882   5.705   4.539   4.169
10313TIP3    H230883   5.851   4.501   4.157
10314TIP3   OH230884   2.898   0.825   0.895
10314TIP3    H130885   2.944   0.835   0.812
10314TIP3    H230886   2.849   0.906   0.905
10315TIP3   OH230887   2.064   3.198   2.763
10315TIP3    H130888   2.145   3.156   2.734
10315TIP3    H230889   2.047   3.266   2.698
10316TIP3   OH230890   1.677   0.201   4.437
10316TIP3    H130891   1.769   0.176   4.427
10316TIP3    H230892   1.635   0.124   4.476
10317TIP3   OH230893   2.217   5.054   3.230
10317TIP3    H130894   2.271   5.132   3.244
10317TIP3    H230895   2.135   5.074   3.275
10318TIP3   OH230896   5.062   1.366   2.405
10318TIP3    H130897   5.083   1.431   2.337
10318TIP3    H230898   4.992   1.406   2.455
10319TIP3   OH230899   7.862   6.578   5.550
10319TIP3    H130900   7.868   6.554   5.457
10319TIP3    H230901   7.769   6.573   5.570
10320TIP3   OH230902   6.121   7.177   1.931
10320TIP3    H130903   6.118   7.087   1.899
10320TIP3    H230904   6.064   7.176   2.009
10321TIP3   OH230905   7.805   3.376   1.763
10321TIP3    H130906   7.845   3.289   1.766
10321TIP3    H230907   7.877   3.435   1.739
10322TIP3   OH230908   6.049   4.091   2.844
10322TIP3    H130909   5.957   4.066   2.849
10322TIP3    H230910   6.064   4.145   2.921
10323TIP3   OH230911   0.455   0.302   6.360
10323TIP3    H130912   0.484   0.382   6.317
10323TIP3    H230913   0.514   0.293   6.435
10324TIP3   OH230914   0.378   0.592   2.900
10324TIP3    H130915   0.342   0.616   2.815
10324TIP3    H230916   0.433   0.516   2.881
10325TIP3   OH230917   4.157   2.969   3.261
10325TIP3    H130918   4.061   2.963   3.267
10325TIP3    H230919   4.178   2.931   3.176
10326TIP3   OH230920   7.004   6.412   6.781
10326TIP3    H130921   6.977   6.503   6.767
10326TIP3    H230922   7.000   6.372   6.695
10327TIP3   OH230923   6.146   5.679   6.166
10327TIP3    H130924   6.122   5.630   6.087
10327TIP3    H230925   6.179   5.612   6.226
10328TIP3   OH230926   3.052   1.204   2.350
10328TIP3    H130927   3.101   1.128   2.381
10328TIP3    H230928   3.119   1.262   2.315
10329TIP3   OH230929   6.906   7.533   4.140
10329TIP3    H130930   6.939   7.576   4.062
10329TIP3    H230931   6.811   7.526   4.126
10330TIP3   OH230932   0.049   2.090   5.828
10330TIP3    H130933   0.110   2.030   5.870
10330TIP3    H230934   0.078   2.177   5.857
10331TIP3   OH230935   7.878   7.792   1.262
10331TIP3    H130936   7.919   7.766   1.180
10331TIP3    H230937   7.784   7.776   1.249
10332TIP3   OH230938   0.986   2.146   1.842
10332TIP3    H130939   1.014   2.111   1.926
10332TIP3    H230940   0.944   2.230   1.863
10333TIP3   OH230941   8.239   1.671   6.433
10333TIP3    H130942   8.218   1.577   6.430
10333TIP3    H230943   8.173   1.712   6.378
10334TIP3   OH230944   2.007   4.448   5.009
10334TIP3    H130945   1.942   4.429   4.942
10334TIP3    H230946   2.028   4.541   4.996
10335TIP3   OH230947   1.893   6.770   2.477
10335TIP3    H130948   1.940   6.841   2.432
10335TIP3    H230949   1.930   6.690   2.439
10336TIP3   OH230950   3.855   4.415   2.738
10336TIP3    H130951   3.761   4.417   2.723
10336TIP3    H230952   3.891   4.474   2.672
10337TIP3   OH230953   1.154   4.711   2.649
10337TIP3    H130954   1.225   4.674   2.597
10337TIP3    H230955   1.197   4.741   2.729
10338TIP3   OH230956   2.919   1.048   5.428
10338TIP3    H130957   2.928   0.975   5.367
10338TIP3    H230958   3.008   1.064   5.459
10339TIP3   OH230959   3.336   7.048   6.066
10339TIP3    H130960   3.313   6.961   6.099
10339TIP3    H230961   3.423   7.037   6.027
10340TIP3   OH230962   4.024   3.486   5.919
10340TIP3    H130963   3.988   3.494   5.830
10340TIP3    H230964   3.950   3.454   5.972
10341TIP3   OH230965   6.185   4.038   6.413
10341TIP3    H130966   6.090   4.044   6.413
10341TIP3    H230967   6.206   3.983   6.337
10342TIP3   OH230968   1.816   2.556   3.503
10342TIP3    H130969   1.829   2.639   3.457
10342TIP3    H230970   1.784   2.496   3.437
10343TIP3   OH230971   3.336   5.829   3.378
10343TIP3    H130972   3.367   5.744   3.410
10343TIP3    H230973   3.379   5.894   3.434
10344TIP3   OH230974   6.586   2.115   0.539
10344TIP3    H130975   6.575   2.095   0.632
10344TIP3    H230976   6.497   2.118   0.504
10345TIP3   OH230977   4.016   0.729   4.681
10345TIP3    H130978   3.936   0.681   4.701
10345TIP3    H230979   3.986   0.817   4.658
10346TIP3   OH230980   5.190   2.795   4.311
10346TIP3    H130981   5.142   2.876   4.322
10346TIP3    H230982   5.271   2.808   4.360
10347TIP3   OH230983   7.129   0.655   3.728
10347TIP3    H130984   7.102   0.645   3.819
10347TIP3    H230985   7.155   0.747   3.721
10348TIP3   OH230986   6.881   3.580   1.326
10348TIP3    H130987   6.895   3.640   1.252
10348TIP3    H230988   6.828   3.509   1.289
10349TIP3   OH230989   1.257   5.326   1.231
10349TIP3    H130990   1.266   5.396   1.296
10349TIP3    H230991   1.250   5.371   1.147
10350TIP3   OH230992   8.023   5.324   4.251
10350TIP3    H130993   7.961   5.333   4.323
10350TIP3    H230994   8.030   5.412   4.213
10351TIP3   OH230995   8.227   2.638   0.841
10351TIP3    H130996   8.227   2.720   0.890
10351TIP3    H230997   8.147   2.641   0.788
10352TIP3   OH230998   0.626   0.863   5.941
10352TIP3    H130999   0.572   0.851   5.863
10352TIP3    H231000   0.570   0.912   6.001
10353TIP3   OH231001   6.247   4.655   3.256
10353TIP3    H131002   6.266   4.624   3.344
10353TIP3    H231003   6.289   4.591   3.198
10354TIP3   OH231004   6.857   6.376   6.007
10354TIP3    H131005   6.930   6.314   5.999
10354TIP3    H231006   6.888   6.441   6.070
10355TIP3   OH231007   6.998   0.070   4.579
10355TIP3    H131008   6.924   0.073   4.519
10355TIP3    H231009   7.024   0.162   4.590
10356TIP3   OH231010   1.211   6.353   4.170
10356TIP3    H131011   1.269   6.296   4.119
10356TIP3    H231012   1.161   6.293   4.225
10357TIP3   OH231013   2.021   1.554   5.661
10357TIP3    H131014   2.104   1.585   5.698
10357TIP3    H231015   2.015   1.596   5.575
10358TIP3   OH231016   4.294   5.895   3.939
10358TIP3    H131017   4.264   5.853   3.859
10358TIP3    H231018   4.382   5.860   3.953
10359TIP3   OH231019   2.720   0.728   1.834
10359TIP3    H131020   2.790   0.783   1.868
10359TIP3    H231021   2.758   0.686   1.757
10360TIP3   OH231022   0.819   6.449   2.029
10360TIP3    H131023   0.881   6.520   2.010
10360TIP3    H231024   0.802   6.408   1.944
10361TIP3   OH231025   6.391   1.564   4.426
10361TIP3    H131026   6.455   1.537   4.492
10361TIP3    H231027   6.337   1.630   4.470
10362TIP3   OH231028   5.553   5.686   5.553
10362TIP3    H131029   5.622   5.620   5.544
10362TIP3    H231030   5.476   5.636   5.580
10363TIP3   OH231031   0.890   3.227   4.608
10363TIP3    H131032   0.976   3.264   4.589
10363TIP3    H231033   0.887   3.221   4.703
10364TIP3   OH231034   5.069   6.863   1.083
10364TIP3    H131035   5.080   6.813   1.164
10364TIP3    H231036   5.100   6.804   1.014
10365TIP3   OH231037   5.894   2.824   5.927
10365TIP3    H131038   5.916   2.737   5.893
10365TIP3    H231039   5.798   2.825   5.929
10366TIP3   OH231040   3.258   0.965   3.750
10366TIP3    H131041   3.233   0.882   3.708
10366TIP3    H231042   3.305   1.013   3.682
10367TIP3   OH231043   4.148   3.259   3.327
10367TIP3    H131044   4.140   3.170   3.291
10367TIP3    H231045   4.227   3.294   3.286
10368TIP3   OH231046   7.913   4.449   3.079
10368TIP3    H131047   7.956   4.516   3.025
10368TIP3    H231048   7.838   4.494   3.118
10369TIP3   OH231049   2.533   7.437   3.962
10369TIP3    H131050   2.565   7.526   3.974
10369TIP3    H231051   2.580   7.405   3.885
10370TIP3   OH231052   5.984   0.008  -0.008
10370TIP3    H131053   5.987  -0.005   0.087
10370TIP3    H231054   5.908   0.065  -0.021
10371TIP3   OH231055   7.252   2.205   0.411
10371TIP3    H131056   7.214   2.275   0.464
10371TIP3    H231057   7.242   2.126   0.464
10372TIP3   OH231058   3.312   7.025   4.364
10372TIP3    H131059   3.309   6.962   4.292
10372TIP3    H231060   3.220   7.034   4.391
10373TIP3   OH231061   0.270   1.902   1.689
10373TIP3    H131062   0.223   1.832   1.645
10373TIP3    H231063   0.340   1.858   1.738
10374TIP3   OH231064   2.459   6.475   1.383
10374TIP3    H131065   2.548   6.446   1.364
10374TIP3    H231066   2.455   6.480   1.479
10375TIP3   OH231067   4.825   6.082   5.533
10375TIP3    H131068   4.917   6.067   5.553
10375TIP3    H231069   4.811   6.175   5.550
10376TIP3   OH231070   5.240   2.992   2.819
10376TIP3    H131071   5.148   2.976   2.801
10376TIP3    H231072   5.286   2.926   2.767
10377TIP3   OH231073   5.434   7.175   6.005
10377TIP3    H131074   5.433   7.082   5.983
10377TIP3    H231075   5.382   7.216   5.936
10378TIP3   OH231076   0.576   2.680   4.236
10378TIP3    H131077   0.649   2.724   4.280
10378TIP3    H231078   0.505   2.683   4.299
10379TIP3   OH231079   4.410   5.099   6.252
10379TIP3    H131080   4.459   5.021   6.280
10379TIP3    H231081   4.325   5.090   6.295
10380TIP3   OH231082   4.794   3.894   2.728
10380TIP3    H131083   4.719   3.843   2.696
10380TIP3    H231084   4.836   3.836   2.792
10381TIP3   OH231085   0.635   7.154   1.601
10381TIP3    H131086   0.677   7.122   1.680
10381TIP3    H231087   0.701   7.207   1.557
10382TIP3   OH231088   4.371   4.842   6.713
10382TIP3    H131089   4.325   4.758   6.701
10382TIP3    H231090   4.464   4.818   6.709
10383TIP3   OH231091   4.857   5.562   2.065
10383TIP3    H131092   4.848   5.642   2.012
10383TIP3    H231093   4.931   5.516   2.027
10384TIP3   OH231094   2.663   1.909  -0.012
10384TIP3    H131095   2.702   1.880  -0.095
10384TIP3    H231096   2.696   1.847   0.053
10385TIP3   OH231097   2.271   7.138   4.571
10385TIP3    H131098   2.225   7.205   4.520
10385TIP3    H231099   2.353   7.124   4.522
10386TIP3   OH231100   5.815   7.079   2.885
10386TIP3    H131101   5.907   7.103   2.880
10386TIP3    H231102   5.798   7.068   2.979
10387TIP3   OH231103   8.045   0.913   2.470
10387TIP3    H131104   8.041   0.850   2.398
10387TIP3    H231105   7.955   0.946   2.478
10388TIP3   OH231106   5.696   6.444   4.559
10388TIP3    H131107   5.619   6.502   4.560
10388TIP3    H231108   5.764   6.494   4.605
10389TIP3   OH231109   6.546   1.357   4.084
10389TIP3    H131110   6.536   1.452   4.089
10389TIP3    H231111   6.461   1.323   4.112
10390TIP3   OH231112   2.418   7.579   3.709
10390TIP3    H131113   2.379   7.507   3.659
10390TIP3    H231114   2.503   7.545   3.737
10391TIP3   OH231115   5.944   0.451   3.568
10391TIP3    H131116   5.852   0.463   3.545
10391TIP3    H231117   5.946   0.369   3.617
10392TIP3   OH231118   1.204   2.044   2.467
10392TIP3    H131119   1.269   2.048   2.396
10392TIP3    H231120   1.124   2.012   2.424
10393TIP3   OH231121   7.168   6.404   2.967
10393TIP3    H131122   7.243   6.444   2.921
10393TIP3    H231123   7.178   6.310   2.951
10394TIP3   OH231124   0.683   6.774   5.302
10394TIP3    H131125   0.588   6.770   5.289
10394TIP3    H231126   0.693   6.786   5.397
10395TIP3   OH231127   1.847   3.205   3.860
10395TIP3    H131128   1.937   3.222   3.890
10395TIP3    H231129   1.836   3.111   3.873
10396TIP3   OH231130   5.596   4.039   5.725
10396TIP3    H131131   5.578   3.945   5.726
10396TIP3    H231132   5.649   4.054   5.803
10397TIP3   OH231133   4.347   0.816   1.428
10397TIP3    H131134   4.381   0.832   1.516
10397TIP3    H231135   4.336   0.903   1.390
10398TIP3   OH231136   6.366   1.960   4.882
10398TIP3    H131137   6.423   2.023   4.928
10398TIP3    H231138   6.405   1.951   4.795
10399TIP3   OH231139   2.684   2.604   4.143
10399TIP3    H131140   2.594   2.625   4.170
10399TIP3    H231141   2.731   2.590   4.225
10400TIP3   OH231142   3.751   0.274   0.349
10400TIP3    H131143   3.736   0.232   0.264
10400TIP3    H231144   3.697   0.224   0.410
10401TIP3   OH231145   4.542   5.169   2.943
10401TIP3    H131146   4.618   5.227   2.952
10401TIP3    H231147   4.562   5.116   2.866
10402TIP3   OH231148   1.479   1.636   3.261
10402TIP3    H131149   1.433   1.694   3.201
10402TIP3    H231150   1.419   1.563   3.276
10403TIP3   OH231151   2.591   0.040   3.400
10403TIP3    H131152   2.581   0.102   3.327
10403TIP3    H231153   2.607   0.095   3.476
10404TIP3   OH231154   3.081   6.570   2.031
10404TIP3    H131155   3.123   6.488   2.056
10404TIP3    H231156   3.054   6.557   1.940
10405TIP3   OH231157   7.056   4.681   3.012
10405TIP3    H131158   7.000   4.670   3.089
10405TIP3    H231159   7.136   4.721   3.046
10406TIP3   OH231160   7.915   1.313   1.107
10406TIP3    H131161   7.896   1.247   1.174
10406TIP3    H231162   8.005   1.341   1.126
10407TIP3   OH231163   4.173   6.396   1.907
10407TIP3    H131164   4.197   6.468   1.966
10407TIP3    H231165   4.168   6.319   1.964
10408TIP3   OH231166   1.230   6.107   1.123
10408TIP3    H131167   1.318   6.098   1.159
10408TIP3    H231168   1.240   6.164   1.047
10409TIP3   OH231169   8.160   6.058   4.715
10409TIP3    H131170   8.196   5.991   4.657
10409TIP3    H231171   8.142   6.132   4.658
10410TIP3   OH231172   6.878   6.486   3.883
10410TIP3    H131173   6.837   6.464   3.799
10410TIP3    H231174   6.884   6.581   3.883
10411TIP3   OH231175   1.967   1.108   0.276
10411TIP3    H131176   1.902   1.177   0.266
10411TIP3    H231177   2.012   1.129   0.358
10412TIP3   OH231178   5.360   2.313   4.582
10412TIP3    H131179   5.345   2.395   4.535
10412TIP3    H231180   5.379   2.249   4.513
10413TIP3   OH231181   7.013   3.840   3.135
10413TIP3    H131182   7.011   3.858   3.229
10413TIP3    H231183   7.096   3.876   3.105
10414TIP3   OH231184   1.582   5.079   4.005
10414TIP3    H131185   1.560   5.136   4.079
10414TIP3    H231186   1.504   5.079   3.950
10415TIP3   OH231187   4.981   4.349   5.477
10415TIP3    H131188   4.912   4.283   5.485
10415TIP3    H231189   5.006   4.346   5.384
10416TIP3   OH231190   3.985   1.423   1.654
10416TIP3    H131191   4.064   1.420   1.708
10416TIP3    H231192   4.008   1.481   1.581
10417TIP3   OH231193   2.308   0.969   6.297
10417TIP3    H131194   2.273   0.880   6.290
10417TIP3    H231195   2.306   0.988   6.391
10418TIP3   OH231196   7.204   4.127   0.846
10418TIP3    H131197   7.254   4.140   0.927
10418TIP3    H231198   7.150   4.206   0.838
10419TIP3   OH231199   6.287   0.524   3.640
10419TIP3    H131200   6.324   0.601   3.599
10419TIP3    H231201   6.235   0.559   3.713
10420TIP3   OH231202   4.684   6.741   3.422
10420TIP3    H131203   4.724   6.767   3.339
10420TIP3    H231204   4.674   6.822   3.471
10421TIP3   OH231205   7.232   7.030   1.101
10421TIP3    H131206   7.258   6.972   1.174
10421TIP3    H231207   7.222   7.116   1.142
10422TIP3   OH231208   5.059   0.708   1.466
10422TIP3    H131209   5.007   0.676   1.539
10422TIP3    H231210   5.141   0.738   1.506
10423TIP3   OH231211   0.015   2.919   4.764
10423TIP3    H131212   0.004   2.833   4.806
10423TIP3    H231213   0.010   2.982   4.836
10424TIP3   OH231214   4.406   6.325   6.284
10424TIP3    H131215   4.473   6.360   6.226
10424TIP3    H231216   4.389   6.394   6.347
10425TIP3   OH231217   3.691   7.363   5.958
10425TIP3    H131218   3.639   7.423   5.903
10425TIP3    H231219   3.664   7.385   6.047
10426TIP3   OH231220   3.011   3.326   1.578
10426TIP3    H131221   3.035   3.279   1.657
10426TIP3    H231222   2.960   3.401   1.608
10427TIP3   OH231223   7.580   1.368   4.451
10427TIP3    H131224   7.554   1.299   4.513
10427TIP3    H231225   7.497   1.408   4.423
10428TIP3   OH231226   4.384   5.815   3.420
10428TIP3    H131227   4.475   5.844   3.424
10428TIP3    H231228   4.354   5.843   3.334
10429TIP3   OH231229   7.604   1.811   2.914
10429TIP3    H131230   7.620   1.748   2.984
10429TIP3    H231231   7.511   1.801   2.894
10430TIP3   OH231232   1.579   4.272   1.042
10430TIP3    H131233   1.500   4.316   1.076
10430TIP3    H231234   1.578   4.186   1.083
10431TIP3   OH231235   1.567   7.075   2.136
10431TIP3    H131236   1.660   7.050   2.132
10431TIP3    H231237   1.520   6.992   2.129
10432TIP3   OH231238   5.525   2.358   2.485
10432TIP3    H131239   5.459   2.419   2.451
10432TIP3    H231240   5.608   2.390   2.450
10433TIP3   OH231241   1.100   2.254   0.348
10433TIP3    H131242   1.111   2.306   0.268
10433TIP3    H231243   1.099   2.319   0.418
10434TIP3   OH231244   4.384   3.007   0.306
10434TIP3    H131245   4.315   3.047   0.252
10434TIP3    H231246   4.338   2.948   0.365
10435TIP3   OH231247   8.260   3.089   5.948
10435TIP3    H131248   8.350   3.086   5.917
10435TIP3    H231249   8.238   3.182   5.947
10436TIP3   OH231250   6.496   5.324   6.183
10436TIP3    H131251   6.492   5.404   6.130
10436TIP3    H231252   6.424   5.270   6.150
10437TIP3   OH231253   7.751   2.197   4.111
10437TIP3    H131254   7.785   2.265   4.169
10437TIP3    H231255   7.664   2.178   4.145
10438TIP3   OH231256   5.832   2.978   4.323
10438TIP3    H131257   5.843   2.904   4.265
10438TIP3    H231258   5.921   3.008   4.341
10439TIP3   OH231259   7.660   6.108   4.382
10439TIP3    H131260   7.632   6.082   4.470
10439TIP3    H231261   7.595   6.173   4.354
10440TIP3   OH231262   8.256   5.347   6.662
10440TIP3    H131263   8.347   5.337   6.635
10440TIP3    H231264   8.246   5.288   6.736
10441TIP3   OH231265   5.936   0.922   0.406
10441TIP3    H131266   5.876   0.994   0.388
10441TIP3    H231267   5.883   0.843   0.395
10442TIP3   OH231268   8.133   3.327   3.488
10442TIP3    H131269   8.211   3.296   3.535
10442TIP3    H231270   8.166   3.396   3.430
10443TIP3   OH231271   6.146   2.861   5.775
10443TIP3    H131272   6.155   2.882   5.682
10443TIP3    H231273   6.054   2.878   5.794
10444TIP3   OH231274   1.642   3.932   5.243
10444TIP3    H131275   1.550   3.959   5.240
10444TIP3    H231276   1.663   3.907   5.153
10445TIP3   OH231277   3.645   5.151   2.501
10445TIP3    H131278   3.564   5.117   2.464
10445TIP3    H231279   3.684   5.076   2.547
10446TIP3   OH231280   3.645   0.645   3.202
10446TIP3    H131281   3.569   0.653   3.143
10446TIP3    H231282   3.609   0.605   3.281
10447TIP3   OH231283   7.842   1.970   1.425
10447TIP3    H131284   7.902   2.016   1.484
10447TIP3    H231285   7.819   2.035   1.358
10448TIP3   OH231286   1.784   1.316   0.267
10448TIP3    H131287   1.692   1.339   0.265
10448TIP3    H231288   1.823   1.375   0.331
10449TIP3   OH231289   0.793   6.974   2.031
10449TIP3    H131290   0.859   6.992   2.099
10449TIP3    H231291   0.770   6.883   2.045
10450TIP3   OH231292   1.432   1.563   4.663
10450TIP3    H131293   1.522   1.572   4.632
10450TIP3    H231294   1.380   1.556   4.584
10451TIP3   OH231295   0.224   0.444   2.286
10451TIP3    H131296   0.276   0.502   2.343
10451TIP3    H231297   0.271   0.443   2.203
10452TIP3   OH231298   0.058   6.324   4.772
10452TIP3    H131299   0.086   6.398   4.827
10452TIP3    H231300  -0.026   6.353   4.735
10453TIP3   OH231301   2.889   6.954   2.888
10453TIP3    H131302   2.853   6.933   2.974
10453TIP3    H231303   2.926   6.872   2.857
10454TIP3   OH231304   1.932   0.917   1.748
10454TIP3    H131305   2.002   0.919   1.683
10454TIP3    H231306   1.972   0.873   1.824
10455TIP3   OH231307   2.978   6.302   0.420
10455TIP3    H131308   3.041   6.330   0.353
10455TIP3    H231309   2.922   6.379   0.433
10456TIP3   OH231310   3.609   6.767   4.134
10456TIP3    H131311   3.626   6.675   4.114
10456TIP3    H231312   3.681   6.792   4.191
10457TIP3   OH231313   2.777   4.327   6.447
10457TIP3    H131314   2.821   4.249   6.415
10457TIP3    H231315   2.696   4.332   6.397
10458TIP3   OH231316   3.205   3.456   2.739
10458TIP3    H131317   3.279   3.396   2.734
10458TIP3    H231318   3.187   3.465   2.833
10459TIP3   OH231319   5.046   0.291   5.259
10459TIP3    H131320   5.010   0.308   5.345
10459TIP3    H231321   5.130   0.337   5.258
10460TIP3   OH231322   1.857   0.630   2.499
10460TIP3    H131323   1.944   0.671   2.501
10460TIP3    H231324   1.800   0.696   2.460
10461TIP3   OH231325   3.912   4.934   0.942
10461TIP3    H131326   3.981   4.945   0.877
10461TIP3    H231327   3.935   4.854   0.989
10462TIP3   OH231328   7.973   0.374   6.709
10462TIP3    H131329   7.996   0.282   6.716
10462TIP3    H231330   8.052   0.417   6.676
10463TIP3   OH231331   6.177   7.383   4.049
10463TIP3    H131332   6.233   7.316   4.088
10463TIP3    H231333   6.231   7.462   4.049
10464TIP3   OH231334   2.965   6.981   1.793
10464TIP3    H131335   3.041   6.948   1.840
10464TIP3    H231336   2.905   7.010   1.862
10465TIP3   OH231337   0.070   1.209   3.392
10465TIP3    H131338   0.099   1.210   3.300
10465TIP3    H231339   0.105   1.290   3.429
10466TIP3   OH231340   4.723   3.521   3.111
10466TIP3    H131341   4.748   3.610   3.135
10466TIP3    H231342   4.695   3.480   3.194
10467TIP3   OH231343   7.723   0.487   0.451
10467TIP3    H131344   7.641   0.498   0.498
10467TIP3    H231345   7.722   0.556   0.384
10468TIP3   OH231346   6.564   2.489   1.702
10468TIP3    H131347   6.526   2.492   1.790
10468TIP3    H231348   6.537   2.404   1.668
10469TIP3   OH231349   7.227   4.860   4.737
10469TIP3    H131350   7.191   4.813   4.811
10469TIP3    H231351   7.175   4.941   4.732
10470TIP3   OH231352   6.108   4.655   0.173
10470TIP3    H131353   6.160   4.730   0.202
10470TIP3    H231354   6.140   4.637   0.085
10471TIP3   OH231355   4.026   4.817   2.789
10471TIP3    H131356   3.955   4.792   2.847
10471TIP3    H231357   4.100   4.835   2.847
10472TIP3   OH231358   0.532   5.042   2.557
10472TIP3    H131359   0.604   5.068   2.499
10472TIP3    H231360   0.518   5.117   2.614
10473TIP3   OH231361   2.832   3.745   5.185
10473TIP3    H131362   2.866   3.672   5.237
10473TIP3    H231363   2.802   3.808   5.250
10474TIP3   OH231364   7.138   4.066   5.452
10474TIP3    H131365   7.164   3.982   5.491
10474TIP3    H231366   7.091   4.111   5.522
10475TIP3   OH231367   4.401   0.373   1.140
10475TIP3    H131368   4.470   0.309   1.157
10475TIP3    H231369   4.425   0.411   1.055
10476TIP3   OH231370   1.485   6.675   6.118
10476TIP3    H131371   1.487   6.690   6.212
10476TIP3    H231372   1.413   6.728   6.086
10477TIP3   OH231373   5.161   4.070   1.331
10477TIP3    H131374   5.081   4.037   1.289
10477TIP3    H231375   5.230   4.052   1.268
10478TIP3   OH231376   5.183   2.986   3.080
10478TIP3    H131377   5.214   2.977   2.989
10478TIP3    H231378   5.170   3.080   3.091
10479TIP3   OH231379   0.794   3.988   3.630
10479TIP3    H131380   0.784   3.913   3.572
10479TIP3    H231381   0.813   3.950   3.715
10480TIP3   OH231382   2.097   3.820   2.234
10480TIP3    H131383   2.125   3.763   2.306
10480TIP3    H231384   2.006   3.842   2.254
10481TIP3   OH231385   1.303   6.417   6.433
10481TIP3    H131386   1.276   6.504   6.401
10481TIP3    H231387   1.222   6.367   6.437
10482TIP3   OH231388   2.525   7.345   5.860
10482TIP3    H131389   2.560   7.432   5.841
10482TIP3    H231390   2.466   7.358   5.934
10483TIP3   OH231391   8.151   1.163   6.228
10483TIP3    H131392   8.197   1.080   6.223
10483TIP3    H231393   8.126   1.172   6.320
10484TIP3   OH231394   4.275   4.663   6.341
10484TIP3    H131395   4.302   4.670   6.249
10484TIP3    H231396   4.234   4.577   6.347
10485TIP3   OH231397   6.873   6.987   1.935
10485TIP3    H131398   6.866   7.078   1.905
10485TIP3    H231399   6.857   6.992   2.029
10486TIP3   OH231400   6.059   1.073   0.112
10486TIP3    H131401   6.066   1.097   0.204
10486TIP3    H231402   6.034   0.980   0.113
10487TIP3   OH231403   4.920   0.592   6.699
10487TIP3    H131404   4.940   0.676   6.657
10487TIP3    H231405   4.853   0.614   6.764
10488TIP3   OH231406   6.081   6.541   4.180
10488TIP3    H131407   6.056   6.491   4.258
10488TIP3    H231408   6.176   6.549   4.187
10489TIP3   OH231409   4.261   5.636   4.742
10489TIP3    H131410   4.334   5.654   4.801
10489TIP3    H231411   4.231   5.722   4.714
10490TIP3   OH231412   3.393   4.606   2.972
10490TIP3    H131413   3.410   4.641   2.885
10490TIP3    H231414   3.436   4.520   2.973
10491TIP3   OH231415   0.407   1.667   0.261
10491TIP3    H131416   0.312   1.671   0.271
10491TIP3    H231417   0.432   1.755   0.233
10492TIP3   OH231418   4.320   2.123   0.936
10492TIP3    H131419   4.356   2.044   0.977
10492TIP3    H231420   4.332   2.191   1.002
10493TIP3   OH231421   5.165   6.412   1.635
10493TIP3    H131422   5.116   6.474   1.688
10493TIP3    H231423   5.140   6.433   1.545
10494TIP3   OH231424   0.195   0.250   1.920
10494TIP3    H131425   0.222   0.278   1.833
10494TIP3    H231426   0.241   0.308   1.980
10495TIP3   OH231427   8.162   4.290   6.496
10495TIP3    H131428   8.208   4.206   6.493
10495TIP3    H231429   8.124   4.300   6.408
10496TIP3   OH231430   6.560   0.985   4.270
10496TIP3    H131431   6.596   1.073   4.279
10496TIP3    H231432   6.488   0.982   4.332
10497TIP3   OH231433   8.219   4.925   4.965
10497TIP3    H131434   8.246   4.952   4.877
10497TIP3    H231435   8.167   4.998   4.998
10498TIP3   OH231436   6.750   7.509   6.253
10498TIP3    H131437   6.757   7.602   6.276
10498TIP3    H231438   6.754   7.508   6.157
10499TIP3   OH231439   1.788   5.544   1.999
10499TIP3    H131440   1.735   5.511   2.072
10499TIP3    H231441   1.792   5.471   1.937
10500TIP3   OH231442   7.750   7.124   1.272
10500TIP3    H131443   7.791   7.209   1.287
10500TIP3    H231444   7.666   7.145   1.231
10501TIP3   OH231445   5.910   2.410   3.110
10501TIP3    H131446   5.846   2.451   3.052
10501TIP3    H231447   5.863   2.400   3.194
10502TIP3   OH231448   0.978   4.243   1.291
10502TIP3    H131449   1.019   4.189   1.358
10502TIP3    H231450   0.971   4.186   1.215
10503TIP3   OH231451   4.920   5.817   3.350
10503TIP3    H131452   4.899   5.727   3.374
10503TIP3    H231453   4.964   5.810   3.266
10504TIP3   OH231454   4.973   3.047   3.308
10504TIP3    H131455   5.012   3.113   3.250
10504TIP3    H231456   4.974   2.966   3.258
10505TIP3   OH231457   6.519   6.858   2.131
10505TIP3    H131458   6.599   6.808   2.148
10505TIP3    H231459   6.471   6.858   2.214
10506TIP3   OH231460   8.118   6.064   3.643
10506TIP3    H131461   8.204   6.044   3.678
10506TIP3    H231462   8.106   6.158   3.659
10507TIP3   OH231463   5.574   1.992   2.648
10507TIP3    H131464   5.666   2.017   2.656
10507TIP3    H231465   5.547   1.970   2.737
10508TIP3   OH231466   3.650   6.291   2.706
10508TIP3    H131467   3.743   6.307   2.718
10508TIP3    H231468   3.639   6.279   2.612
10509TIP3   OH231469   0.398   5.309   2.444
10509TIP3    H131470   0.410   5.292   2.351
10509TIP3    H231471   0.487   5.304   2.481
10510TIP3   OH231472   0.912   0.254   5.333
10510TIP3    H131473   0.997   0.291   5.359
10510TIP3    H231474   0.935   0.181   5.274
10511TIP3   OH231475   3.422   5.226   0.757
10511TIP3    H131476   3.385   5.293   0.699
10511TIP3    H231477   3.427   5.148   0.701
10512TIP3   OH231478   3.584   7.114   4.326
10512TIP3    H131479   3.556   7.130   4.236
10512TIP3    H231480   3.502   7.102   4.374
10513TIP3   OH231481   2.481   3.399   5.931
10513TIP3    H131482   2.410   3.452   5.895
10513TIP3    H231483   2.514   3.450   6.005
10514TIP3   OH231484   2.416   5.331   3.288
10514TIP3    H131485   2.434   5.340   3.381
10514TIP3    H231486   2.341   5.389   3.272
10515TIP3   OH231487   6.050   7.700   5.566
10515TIP3    H131488   6.099   7.633   5.612
10515TIP3    H231489   6.118   7.759   5.532
10516TIP3   OH231490   2.585   4.864   4.472
10516TIP3    H131491   2.654   4.878   4.537
10516TIP3    H231492   2.619   4.795   4.415
10517TIP3   OH231493   0.515   1.584   4.767
10517TIP3    H131494   0.461   1.608   4.844
10517TIP3    H231495   0.596   1.634   4.779
10518TIP3   OH231496   8.174   5.298   2.352
10518TIP3    H131497   8.215   5.355   2.416
10518TIP3    H231498   8.232   5.301   2.276
10519TIP3   OH231499   3.606   2.197   4.144
10519TIP3    H131500   3.657   2.132   4.096
10519TIP3    H231501   3.546   2.234   4.078
10520TIP3   OH231502   1.032   3.406   0.949
10520TIP3    H131503   0.983   3.465   1.006
10520TIP3    H231504   1.079   3.464   0.889
10521TIP3   OH231505   7.014   5.539   2.486
10521TIP3    H131506   6.933   5.538   2.537
10521TIP3    H231507   7.004   5.468   2.422
10522TIP3   OH231508   5.617   4.380   1.292
10522TIP3    H131509   5.550   4.314   1.310
10522TIP3    H231510   5.642   4.415   1.378
10523TIP3   OH231511   0.229   7.699   3.097
10523TIP3    H131512   0.233   7.765   3.166
10523TIP3    H231513   0.217   7.616   3.143
10524TIP3   OH231514   2.184   4.162   6.646
10524TIP3    H131515   2.091   4.140   6.638
10524TIP3    H231516   2.198   4.231   6.581
10525TIP3   OH231517   6.174   4.811   4.103
10525TIP3    H131518   6.233   4.821   4.177
10525TIP3    H231519   6.119   4.889   4.105
10526TIP3   OH231520   0.462   7.295   4.487
10526TIP3    H131521   0.386   7.314   4.543
10526TIP3    H231522   0.437   7.327   4.400
10527TIP3   OH231523   0.050   0.733   0.428
10527TIP3    H131524  -0.042   0.709   0.431
10527TIP3    H231525   0.061   0.774   0.342
10528TIP3   OH231526   4.755   2.498   2.692
10528TIP3    H131527   4.775   2.421   2.745
10528TIP3    H231528   4.750   2.464   2.602
10529TIP3   OH231529   6.906   1.348   0.525
10529TIP3    H131530   6.864   1.317   0.445
10529TIP3    H231531   6.881   1.440   0.531
10530TIP3   OH231532   1.983   7.073   3.961
10530TIP3    H131533   2.004   7.049   4.051
10530TIP3    H231534   2.053   7.035   3.909
10531TIP3   OH231535   0.228   0.304   1.114
10531TIP3    H131536   0.273   0.227   1.082
10531TIP3    H231537   0.261   0.315   1.204
10532TIP3   OH231538   3.651   4.174   0.780
10532TIP3    H131539   3.571   4.151   0.827
10532TIP3    H231540   3.642   4.268   0.761
10533TIP3   OH231541   1.239   2.043   0.503
10533TIP3    H131542   1.167   2.055   0.442
10533TIP3    H231543   1.257   2.131   0.537
10534TIP3   OH231544   7.264   4.247   4.986
10534TIP3    H131545   7.264   4.154   4.963
10534TIP3    H231546   7.247   4.249   5.080
10535TIP3   OH231547   5.928   6.959   0.752
10535TIP3    H131548   5.885   6.875   0.770
10535TIP3    H231549   5.926   6.967   0.657
10536TIP3   OH231550  -0.007   3.956   1.968
10536TIP3    H131551   0.066   3.917   1.920
10536TIP3    H231552   0.019   4.048   1.982
10537TIP3   OH231553   1.342   1.652   0.513
10537TIP3    H131554   1.426   1.650   0.467
10537TIP3    H231555   1.362   1.693   0.597
10538TIP3   OH231556   3.579   4.454   2.737
10538TIP3    H131557   3.555   4.399   2.811
10538TIP3    H231558   3.536   4.414   2.661
10539TIP3   OH231559   2.969   7.246   5.799
10539TIP3    H131560   2.971   7.173   5.860
10539TIP3    H231561   2.926   7.211   5.721
10540TIP3   OH231562   6.739   7.468   2.759
10540TIP3    H131563   6.687   7.421   2.823
10540TIP3    H231564   6.745   7.557   2.793
10541TIP3   OH231565   5.730   6.152   5.036
10541TIP3    H131566   5.663   6.098   5.078
10541TIP3    H231567   5.812   6.107   5.055
10542TIP3   OH231568   4.793   5.974   3.114
10542TIP3    H131569   4.882   6.002   3.134
10542TIP3    H231570   4.803   5.910   3.044
10543TIP3   OH231571   1.840   2.373   5.201
10543TIP3    H131572   1.752   2.408   5.209
10543TIP3    H231573   1.833   2.283   5.233
10544TIP3   OH231574   1.925   4.416   4.714
10544TIP3    H131575   1.858   4.398   4.647
10544TIP3    H231576   1.918   4.510   4.729
10545TIP3   OH231577   0.732   4.336   1.807
10545TIP3    H131578   0.772   4.326   1.721
10545TIP3    H231579   0.806   4.339   1.868
10546TIP3   OH231580   3.548   3.494   0.872
10546TIP3    H131581   3.591   3.576   0.896
10546TIP3    H231582   3.601   3.426   0.913
10547TIP3   OH231583   2.984   7.089   0.342
10547TIP3    H131584   3.019   7.127   0.422
10547TIP3    H231585   2.890   7.082   0.358
10548TIP3   OH231586   3.074   7.102   5.408
10548TIP3    H131587   3.110   7.187   5.433
10548TIP3    H231588   3.039   7.116   5.320
10549TIP3   OH231589   5.066   6.170   0.908
10549TIP3    H131590   5.069   6.108   0.981
10549TIP3    H231591   5.157   6.195   0.894
10550TIP3   OH231592   7.938   0.288   2.826
10550TIP3    H131593   7.920   0.348   2.897
10550TIP3    H231594   8.007   0.231   2.860
10551TIP3   OH231595   0.486   3.305   0.529
10551TIP3    H131596   0.475   3.231   0.469
10551TIP3    H231597   0.580   3.315   0.539
10552TIP3   OH231598   5.779   3.366   2.735
10552TIP3    H131599   5.698   3.316   2.744
10552TIP3    H231600   5.756   3.437   2.675
10553TIP3   OH231601   6.940   7.155   5.276
10553TIP3    H131602   6.912   7.214   5.346
10553TIP3    H231603   6.990   7.211   5.216
10554TIP3   OH231604   7.275   7.223   6.655
10554TIP3    H131605   7.202   7.173   6.619
10554TIP3    H231606   7.235   7.283   6.718
10555TIP3   OH231607   7.638   7.362   4.942
10555TIP3    H131608   7.556   7.351   4.991
10555TIP3    H231609   7.704   7.323   4.999
10556TIP3   OH231610   1.149   7.507   2.668
10556TIP3    H131611   1.060   7.542   2.661
10556TIP3    H231612   1.166   7.466   2.583
10557TIP3   OH231613   7.377   3.917   3.680
10557TIP3    H131614   7.356   4.005   3.648
10557TIP3    H231615   7.453   3.891   3.628
10558TIP3   OH231616   7.445   3.756   5.537
10558TIP3    H131617   7.442   3.833   5.594
10558TIP3    H231618   7.355   3.725   5.533
10559TIP3   OH231619   7.791   3.109   3.584
10559TIP3    H131620   7.840   3.102   3.502
10559TIP3    H231621   7.739   3.029   3.588
10560TIP3   OH231622   8.027   0.150   1.103
10560TIP3    H131623   8.096   0.143   1.037
10560TIP3    H231624   7.994   0.239   1.095
10561TIP3   OH231625   8.106   6.205   3.065
10561TIP3    H131626   8.071   6.223   3.152
10561TIP3    H231627   8.130   6.112   3.068
10562TIP3   OH231628   7.401   0.657   5.007
10562TIP3    H131629   7.310   0.684   5.017
10562TIP3    H231630   7.449   0.740   5.002
10563TIP3   OH231631   7.192   7.836   5.075
10563TIP3    H131632   7.280   7.845   5.112
10563TIP3    H231633   7.173   7.742   5.081
10564TIP3   OH231634   8.160   3.230   4.892
10564TIP3    H131635   8.121   3.285   4.960
10564TIP3    H231636   8.118   3.259   4.811
10565TIP3   OH231637   7.196   2.212   4.215
10565TIP3    H131638   7.259   2.190   4.283
10565TIP3    H231639   7.198   2.307   4.210
10566TIP3   OH231640   8.098   7.219   3.323
10566TIP3    H131641   8.077   7.312   3.316
10566TIP3    H231642   8.015   7.177   3.348
10567TIP3   OH231643   0.809   2.757   6.115
10567TIP3    H131644   0.767   2.825   6.168
10567TIP3    H231645   0.836   2.691   6.178
10568TIP3   OH231646   7.284   6.092   4.787
10568TIP3    H131647   7.234   6.168   4.756
10568TIP3    H231648   7.326   6.122   4.868
10569TIP3   OH231649   4.004   3.378   5.530
10569TIP3    H131650   4.090   3.366   5.570
10569TIP3    H231651   3.942   3.350   5.597
10570TIP3   OH231652   6.343   2.296   3.181
10570TIP3    H131653   6.437   2.307   3.198
10570TIP3    H231654   6.303   2.295   3.268
10571TIP3   OH231655   0.675   1.345   3.776
10571TIP3    H131656   0.662   1.422   3.831
10571TIP3    H231657   0.642   1.272   3.828
10572TIP3   OH231658   6.797   4.087   2.703
10572TIP3    H131659   6.847   4.132   2.635
10572TIP3    H231660   6.841   4.002   2.713
10573TIP3   OH231661   0.225   1.080   4.184
10573TIP3    H131662   0.281   1.137   4.238
10573TIP3    H231663   0.258   1.092   4.095
10574TIP3   OH231664   2.730   5.413   6.408
10574TIP3    H131665   2.809   5.460   6.384
10574TIP3    H231666   2.711   5.441   6.498
10575TIP3   OH231667   4.537   4.402   5.401
10575TIP3    H131668   4.580   4.383   5.484
10575TIP3    H231669   4.481   4.325   5.385
10576TIP3   OH231670   5.781   6.945   1.882
10576TIP3    H131671   5.872   6.919   1.868
10576TIP3    H231672   5.745   6.952   1.793
10577TIP3   OH231673   5.412   2.507   0.396
10577TIP3    H131674   5.447   2.592   0.369
10577TIP3    H231675   5.368   2.473   0.318
10578TIP3   OH231676   5.954   3.508   1.226
10578TIP3    H131677   6.005   3.483   1.149
10578TIP3    H231678   5.890   3.439   1.236
10579TIP3   OH231679   0.490   1.884   2.461
10579TIP3    H131680   0.412   1.940   2.467
10579TIP3    H231681   0.529   1.908   2.377
10580TIP3   OH231682   4.669   3.646   4.163
10580TIP3    H131683   4.589   3.603   4.132
10580TIP3    H231684   4.721   3.659   4.084
10581TIP3   OH231685   3.245   1.023   4.020
10581TIP3    H131686   3.310   0.995   4.085
10581TIP3    H231687   3.282   0.997   3.936
10582TIP3   OH231688   7.480   0.810   2.231
10582TIP3    H131689   7.557   0.828   2.178
10582TIP3    H231690   7.478   0.715   2.240
10583TIP3   OH231691   7.611   0.767   3.206
10583TIP3    H131692   7.702   0.744   3.225
10583TIP3    H231693   7.612   0.862   3.193
10584TIP3   OH231694   8.298   7.741   4.397
10584TIP3    H131695   8.250   7.658   4.392
10584TIP3    H231696   8.296   7.775   4.307
10585TIP3   OH231697   5.921   5.162   0.369
10585TIP3    H131698   5.904   5.070   0.388
10585TIP3    H231699   5.859   5.184   0.299
10586TIP3   OH231700   3.791   7.723   3.971
10586TIP3    H131701   3.762   7.767   3.891
10586TIP3    H231702   3.877   7.687   3.949
10587TIP3   OH231703   2.458   6.971   0.460
10587TIP3    H131704   2.441   7.061   0.487
10587TIP3    H231705   2.502   6.931   0.536
10588TIP3   OH231706   0.557   4.697   5.901
10588TIP3    H131707   0.596   4.673   5.986
10588TIP3    H231708   0.463   4.692   5.916
10589TIP3   OH231709   1.876   5.482   3.384
10589TIP3    H131710   1.839   5.403   3.347
10589TIP3    H231711   1.816   5.552   3.357
10590TIP3   OH231712   7.240   4.668   3.426
10590TIP3    H131713   7.290   4.591   3.454
10590TIP3    H231714   7.304   4.725   3.385
10591TIP3   OH231715   1.698   6.855   1.265
10591TIP3    H131716   1.702   6.763   1.240
10591TIP3    H231717   1.741   6.860   1.350
10592TIP3   OH231718   1.741   5.875   0.186
10592TIP3    H131719   1.771   5.933   0.116
10592TIP3    H231720   1.651   5.853   0.161
10593TIP3   OH231721   5.703   7.481   2.460
10593TIP3    H131722   5.669   7.565   2.429
10593TIP3    H231723   5.639   7.417   2.431
10594TIP3   OH231724   2.866   1.613   5.298
10594TIP3    H131725   2.898   1.599   5.209
10594TIP3    H231726   2.816   1.695   5.292
10595TIP3   OH231727   4.052   6.727   2.800
10595TIP3    H131728   4.051   6.665   2.727
10595TIP3    H231729   4.112   6.796   2.772
10596TIP3   OH231730   2.166   3.223   0.862
10596TIP3    H131731   2.074   3.214   0.835
10596TIP3    H231732   2.184   3.145   0.914
10597TIP3   OH231733   1.117   4.767   1.175
10597TIP3    H131734   1.132   4.861   1.163
10597TIP3    H231735   1.131   4.752   1.268
10598TIP3   OH231736   3.564   1.158   5.054
10598TIP3    H131737   3.659   1.166   5.044
10598TIP3    H231738   3.549   1.065   5.071
10599TIP3   OH231739   2.586   3.343   3.372
10599TIP3    H131740   2.570   3.299   3.289
10599TIP3    H231741   2.642   3.417   3.350
10600TIP3   OH231742   4.919   1.230   2.050
10600TIP3    H131743   4.964   1.149   2.076
10600TIP3    H231744   4.835   1.201   2.016
10601TIP3   OH231745   3.242   4.953   1.757
10601TIP3    H131746   3.258   4.886   1.690
10601TIP3    H231747   3.185   4.910   1.821
10602TIP3   OH231748   1.204   7.477   6.372
10602TIP3    H131749   1.256   7.527   6.310
10602TIP3    H231750   1.120   7.462   6.328
10603TIP3   OH231751   2.028   3.422   5.001
10603TIP3    H131752   1.945   3.454   4.965
10603TIP3    H231753   2.002   3.355   5.064
10604TIP3   OH231754   6.932   5.727   4.714
10604TIP3    H131755   7.024   5.740   4.694
10604TIP3    H231756   6.925   5.633   4.731
10605TIP3   OH231757   8.105   5.058   5.988
10605TIP3    H131758   8.101   5.009   5.906
10605TIP3    H231759   8.136   4.995   6.052
10606TIP3   OH231760   3.478   4.898   4.513
10606TIP3    H131761   3.463   4.863   4.425
10606TIP3    H231762   3.460   4.991   4.505
10607TIP3   OH231763   0.732   0.714   6.147
10607TIP3    H131764   0.757   0.773   6.218
10607TIP3    H231765   0.697   0.772   6.078
10608TIP3   OH231766   3.560   5.969   4.954
10608TIP3    H131767   3.467   5.965   4.930
10608TIP3    H231768   3.591   5.879   4.943
10609TIP3   OH231769   1.205   7.065   0.612
10609TIP3    H131770   1.225   6.992   0.554
10609TIP3    H231771   1.268   7.056   0.684
10610TIP3   OH231772   0.659   5.284   2.579
10610TIP3    H131773   0.752   5.289   2.555
10610TIP3    H231774   0.658   5.291   2.674
10611TIP3   OH231775   6.874   1.930   6.011
10611TIP3    H131776   6.842   1.862   6.071
10611TIP3    H231777   6.970   1.926   6.019
10612TIP3   OH231778   2.026   6.955   5.574
10612TIP3    H131779   2.025   6.984   5.665
10612TIP3    H231780   2.091   7.011   5.531
10613TIP3   OH231781   4.526   3.967   5.640
10613TIP3    H131782   4.472   4.046   5.635
10613TIP3    H231783   4.603   3.993   5.690
10614TIP3   OH231784   4.589   5.598   6.456
10614TIP3    H131785   4.582   5.514   6.501
10614TIP3    H231786   4.678   5.598   6.419
10615TIP3   OH231787   6.010   7.324   3.617
10615TIP3    H131788   5.950   7.282   3.555
10615TIP3    H231789   6.016   7.262   3.689
10616TIP3   OH231790   4.217   7.764   1.671
10616TIP3    H131791   4.152   7.755   1.602
10616TIP3    H231792   4.181   7.830   1.731
10617TIP3   OH231793   7.394   6.849   4.099
10617TIP3    H131794   7.456   6.915   4.128
10617TIP3    H231795   7.415   6.772   4.152
10618TIP3   OH231796   0.774   3.977   1.165
10618TIP3    H131797   0.747   3.972   1.256
10618TIP3    H231798   0.864   3.946   1.164
10619TIP3   OH231799   6.545   0.458   2.791
10619TIP3    H131800   6.536   0.521   2.862
10619TIP3    H231801   6.585   0.507   2.719
10620TIP3   OH231802   2.030   6.890   4.561
10620TIP3    H131803   2.123   6.914   4.568
10620TIP3    H231804   2.031   6.809   4.511
10621TIP3   OH231805   1.322   2.498   3.918
10621TIP3    H131806   1.335   2.421   3.973
10621TIP3    H231807   1.261   2.468   3.850
10622TIP3   OH231808   2.054   0.202   4.880
10622TIP3    H131809   2.141   0.181   4.848
10622TIP3    H231810   2.049   0.298   4.875
10623TIP3   OH231811   4.798   7.134   2.561
10623TIP3    H131812   4.839   7.217   2.537
10623TIP3    H231813   4.741   7.113   2.487
10624TIP3   OH231814   6.769   7.059   1.664
10624TIP3    H131815   6.817   6.987   1.623
10624TIP3    H231816   6.722   7.018   1.737
10625TIP3   OH231817   3.755   0.384   4.952
10625TIP3    H131818   3.814   0.456   4.972
10625TIP3    H231819   3.808   0.305   4.963
10626TIP3   OH231820   0.671   0.235   3.744
10626TIP3    H131821   0.689   0.182   3.666
10626TIP3    H231822   0.580   0.216   3.765
10627TIP3   OH231823   1.031   6.031   3.767
10627TIP3    H131824   0.956   6.064   3.718
10627TIP3    H231825   1.040   5.940   3.737
10628TIP3   OH231826   4.935   6.054   2.850
10628TIP3    H131827   4.973   6.032   2.935
10628TIP3    H231828   5.006   6.042   2.787
10629TIP3   OH231829   8.119   7.108   4.494
10629TIP3    H131830   8.097   7.161   4.571
10629TIP3    H231831   8.069   7.147   4.423
10630TIP3   OH231832   4.362   3.520   1.168
10630TIP3    H131833   4.393   3.561   1.249
10630TIP3    H231834   4.333   3.433   1.195
10631TIP3   OH231835   7.505   7.150   2.701
10631TIP3    H131836   7.524   7.102   2.621
10631TIP3    H231837   7.411   7.138   2.714
10632TIP3   OH231838   0.901   5.680   3.508
10632TIP3    H131839   0.815   5.704   3.541
10632TIP3    H231840   0.963   5.721   3.569
10633TIP3   OH231841   3.674   3.366   6.687
10633TIP3    H131842   3.607   3.378   6.754
10633TIP3    H231843   3.710   3.454   6.673
10634TIP3   OH231844   0.708   3.872   5.483
10634TIP3    H131845   0.643   3.831   5.426
10634TIP3    H231846   0.668   3.870   5.570
10635TIP3   OH231847   6.965   6.924   5.068
10635TIP3    H131848   7.036   6.934   5.131
10635TIP3    H231849   6.968   6.831   5.044
10636TIP3   OH231850   4.042   7.408   1.583
10636TIP3    H131851   4.098   7.443   1.514
10636TIP3    H231852   3.961   7.384   1.538
10637TIP3   OH231853   3.671   3.129   3.138
10637TIP3    H131854   3.763   3.106   3.149
10637TIP3    H231855   3.668   3.224   3.144
10638TIP3   OH231856   3.445   5.889   1.635
10638TIP3    H131857   3.411   5.805   1.667
10638TIP3    H231858   3.412   5.895   1.546
10639TIP3   OH231859   2.542   2.393   1.498
10639TIP3    H131860   2.486   2.340   1.554
10639TIP3    H231861   2.631   2.366   1.521
10640TIP3   OH231862   4.753   1.120   5.675
10640TIP3    H131863   4.691   1.058   5.714
10640TIP3    H231864   4.838   1.095   5.712
10641TIP3   OH231865   6.055   1.587   5.546
10641TIP3    H131866   5.996   1.567   5.474
10641TIP3    H231867   6.057   1.682   5.551
10642TIP3   OH231868   6.182   4.830   6.018
10642TIP3    H131869   6.087   4.825   6.012
10642TIP3    H231870   6.206   4.762   6.081
10643TIP3   OH231871   7.745   2.722   0.114
10643TIP3    H131872   7.656   2.718   0.150
10643TIP3    H231873   7.773   2.812   0.132
10644TIP3   OH231874   2.750   3.857   1.445
10644TIP3    H131875   2.714   3.898   1.524
10644TIP3    H231876   2.694   3.887   1.374
10645TIP3   OH231877   0.966   0.611   4.980
10645TIP3    H131878   1.042   0.579   5.029
10645TIP3    H231879   0.905   0.642   5.046
10646TIP3   OH231880   7.379   0.490   6.103
10646TIP3    H131881   7.393   0.414   6.045
10646TIP3    H231882   7.467   0.517   6.128
10647TIP3   OH231883   3.088   0.855   2.828
10647TIP3    H131884   2.994   0.871   2.842
10647TIP3    H231885   3.110   0.785   2.889
10648TIP3   OH231886   8.105   3.485   4.535
10648TIP3    H131887   8.199   3.500   4.545
10648TIP3    H231888   8.080   3.541   4.461
10649TIP3   OH231889   2.381   2.384   5.034
10649TIP3    H131890   2.309   2.322   5.045
10649TIP3    H231891   2.371   2.416   4.944
10650TIP3   OH231892   7.313   0.175   6.356
10650TIP3    H131893   7.237   0.147   6.306
10650TIP3    H231894   7.385   0.122   6.322
10651TIP3   OH231895   8.054   3.539   6.014
10651TIP3    H131896   8.008   3.458   5.994
10651TIP3    H231897   8.013   3.605   5.958
10652TIP3   OH231898   5.202   2.024   3.012
10652TIP3    H131899   5.142   1.959   2.977
10652TIP3    H231900   5.234   2.071   2.935
10653TIP3   OH231901   0.978   0.420   2.059
10653TIP3    H131902   0.922   0.468   1.999
10653TIP3    H231903   1.065   0.424   2.019
10654TIP3   OH231904   2.396   7.515   6.575
10654TIP3    H131905   2.410   7.575   6.648
10654TIP3    H231906   2.372   7.572   6.501
10655TIP3   OH231907   2.086   4.475   1.828
10655TIP3    H131908   2.058   4.448   1.740
10655TIP3    H231909   2.010   4.458   1.884
10656TIP3   OH231910   6.125   2.401   0.641
10656TIP3    H131911   6.117   2.402   0.736
10656TIP3    H231912   6.195   2.463   0.621
10657TIP3   OH231913   7.947   5.949   4.861
10657TIP3    H131914   7.896   6.028   4.844
10657TIP3    H231915   8.021   5.953   4.800
10658TIP3   OH231916   1.109   2.718   6.106
10658TIP3    H131917   1.058   2.741   6.184
10658TIP3    H231918   1.181   2.781   6.104
10659TIP3   OH231919   4.673   1.440   4.304
10659TIP3    H131920   4.687   1.522   4.258
10659TIP3    H231921   4.723   1.449   4.385
10660TIP3   OH231922   5.657   1.531   6.147
10660TIP3    H131923   5.602   1.503   6.074
10660TIP3    H231924   5.652   1.459   6.210
10661TIP3   OH231925   6.433   5.545   2.968
10661TIP3    H131926   6.463   5.493   2.894
10661TIP3    H231927   6.412   5.480   3.036
10662TIP3   OH231928   3.736   6.382   3.559
10662TIP3    H131929   3.784   6.349   3.483
10662TIP3    H231930   3.657   6.421   3.521
10663TIP3   OH231931   4.688   6.464   5.005
10663TIP3    H131932   4.675   6.372   4.982
10663TIP3    H231933   4.620   6.482   5.070
10664TIP3   OH231934   0.387   1.064   0.162
10664TIP3    H131935   0.421   1.062   0.073
10664TIP3    H231936   0.457   1.024   0.215
10665TIP3   OH231937   4.744   5.646   6.082
10665TIP3    H131938   4.767   5.684   5.997
10665TIP3    H231939   4.803   5.571   6.092
10666TIP3   OH231940   1.831   5.224   0.496
10666TIP3    H131941   1.909   5.224   0.551
10666TIP3    H231942   1.758   5.231   0.558
10667TIP3   OH231943   4.593   4.902   6.556
10667TIP3    H131944   4.585   4.851   6.475
10667TIP3    H231945   4.639   4.982   6.529
10668TIP3   OH231946   3.362   6.896   1.486
10668TIP3    H131947   3.276   6.904   1.527
10668TIP3    H231948   3.345   6.860   1.399
10669TIP3   OH231949   3.761   7.521   4.344
10669TIP3    H131950   3.782   7.430   4.365
10669TIP3    H231951   3.834   7.550   4.289
10670TIP3   OH231952   6.239   4.637   4.742
10670TIP3    H131953   6.184   4.705   4.780
10670TIP3    H231954   6.289   4.681   4.673
10671TIP3   OH231955   8.212   1.013   1.933
10671TIP3    H131956   8.213   0.948   2.003
10671TIP3    H231957   8.236   0.963   1.855
10672TIP3   OH231958   6.510   3.654   1.167
10672TIP3    H131959   6.437   3.598   1.192
10672TIP3    H231960   6.494   3.737   1.212
10673TIP3   OH231961   2.047   0.870   2.342
10673TIP3    H131962   2.115   0.891   2.278
10673TIP3    H231963   2.078   0.790   2.384
10674TIP3   OH231964   7.036   5.770   0.033
10674TIP3    H131965   7.117   5.812   0.005
10674TIP3    H231966   7.034   5.782   0.128
10675TIP3   OH231967   3.746   4.080   3.248
10675TIP3    H131968   3.749   4.092   3.153
10675TIP3    H231969   3.797   4.152   3.283
10676TIP3   OH231970   6.268   3.961   2.493
10676TIP3    H131971   6.333   3.930   2.556
10676TIP3    H231972   6.184   3.950   2.537
10677TIP3   OH231973   2.587   5.630   6.575
10677TIP3    H131974   2.496   5.657   6.566
10677TIP3    H231975   2.594   5.599   6.665
10678TIP3   OH231976   7.199   3.521   6.068
10678TIP3    H131977   7.106   3.500   6.072
10678TIP3    H231978   7.243   3.436   6.073
10679TIP3   OH231979   6.310   5.926   0.260
10679TIP3    H131980   6.267   5.842   0.278
10679TIP3    H231981   6.377   5.933   0.329
10680TIP3   OH231982   5.085   3.757   4.425
10680TIP3    H131983   5.139   3.832   4.451
10680TIP3    H231984   5.105   3.745   4.332
10681TIP3   OH231985   2.359   4.897   0.406
10681TIP3    H131986   2.410   4.827   0.366
10681TIP3    H231987   2.272   4.889   0.367
10682TIP3   OH231988   6.163   0.497   2.600
10682TIP3    H131989   6.254   0.466   2.601
10682TIP3    H231990   6.159   0.558   2.527
10683TIP3   OH231991   0.399   4.034   2.144
10683TIP3    H131992   0.396   4.102   2.076
10683TIP3    H231993   0.343   3.964   2.110
10684TIP3   OH231994   6.325   3.185   2.497
10684TIP3    H131995   6.319   3.090   2.502
10684TIP3    H231996   6.375   3.202   2.417
10685TIP3   OH231997   6.021   3.653   0.465
10685TIP3    H131998   6.010   3.677   0.373
10685TIP3    H231999   6.101   3.600   0.466
10686TIP3   OH232000   5.308   5.320   5.468
10686TIP3    H132001   5.265   5.385   5.412
10686TIP3    H232002   5.351   5.260   5.407
10687TIP3   OH232003   7.894   5.883   1.612
10687TIP3    H132004   7.914   5.891   1.519
10687TIP3    H232005   7.861   5.969   1.637
10688TIP3   OH232006   0.449   6.469   4.708
10688TIP3    H132007   0.363   6.491   4.743
10688TIP3    H232008   0.440   6.481   4.613
10689TIP3   OH232009   3.295   7.769   3.952
10689TIP3    H132010   3.217   7.825   3.952
10689TIP3    H232011   3.292   7.724   4.037
10690TIP3   OH232012   1.588   0.357   0.850
10690TIP3    H132013   1.499   0.389   0.858
10690TIP3    H232014   1.607   0.360   0.756
10691TIP3   OH232015   2.465   3.091   5.179
10691TIP3    H132016   2.460   3.162   5.243
10691TIP3    H232017   2.509   3.020   5.225
10692TIP3   OH232018   2.273   0.519   3.684
10692TIP3    H132019   2.305   0.429   3.696
10692TIP3    H232020   2.322   0.552   3.609
10693TIP3   OH232021   2.010   7.054   3.074
10693TIP3    H132022   1.954   7.029   3.002
10693TIP3    H232023   1.955   7.110   3.129
10694TIP3   OH232024   1.049   0.192   0.084
10694TIP3    H132025   1.118   0.235   0.033
10694TIP3    H232026   1.091   0.112   0.117
10695TIP3   OH232027   3.591   4.025   6.678
10695TIP3    H132028   3.666   4.053   6.732
10695TIP3    H232029   3.593   4.084   6.603
10696TIP3   OH232030   1.723   2.429   4.936
10696TIP3    H132031   1.703   2.520   4.915
10696TIP3    H232032   1.640   2.384   4.928
10697TIP3   OH232033   6.555   7.052   3.069
10697TIP3    H132034   6.518   7.139   3.084
10697TIP3    H232035   6.593   7.057   2.981
10698TIP3   OH232036   0.315   2.526   1.236
10698TIP3    H132037   0.392   2.475   1.263
10698TIP3    H232038   0.245   2.461   1.229
10699TIP3   OH232039   7.666   4.204   4.402
10699TIP3    H132040   7.641   4.118   4.435
10699TIP3    H232041   7.641   4.264   4.472
10700TIP3   OH232042   5.039   3.509   3.877
10700TIP3    H132043   5.084   3.539   3.798
10700TIP3    H232044   5.012   3.420   3.858
10701TIP3   OH232045   7.421   1.559   5.287
10701TIP3    H132046   7.363   1.634   5.269
10701TIP3    H232047   7.502   1.580   5.241
10702TIP3   OH232048   1.403   5.691   1.527
10702TIP3    H132049   1.427   5.610   1.571
10702TIP3    H232050   1.400   5.756   1.597
10703TIP3   OH232051   3.044   6.397   3.222
10703TIP3    H132052   3.094   6.317   3.210
10703TIP3    H232053   3.097   6.465   3.181
10704TIP3   OH232054   3.327   5.030   2.086
10704TIP3    H132055   3.299   4.956   2.139
10704TIP3    H232056   3.247   5.081   2.071
10705TIP3   OH232057   7.994   7.008   3.548
10705TIP3    H132058   8.080   7.034   3.581
10705TIP3    H232059   7.959   7.088   3.508
10706TIP3   OH232060   7.721   1.808   1.810
10706TIP3    H132061   7.795   1.786   1.755
10706TIP3    H232062   7.703   1.900   1.791
10707TIP3   OH232063   1.252   2.409   6.193
10707TIP3    H132064   1.314   2.336   6.182
10707TIP3    H232065   1.253   2.453   6.108
10708TIP3   OH232066   6.502   4.209   2.753
10708TIP3    H132067   6.574   4.238   2.809
10708TIP3    H232068   6.443   4.162   2.812
10709TIP3   OH232069   3.973   4.635   4.021
10709TIP3    H132070   4.041   4.647   4.088
10709TIP3    H232071   4.014   4.576   3.957
10710TIP3   OH232072   4.220   6.331   0.143
10710TIP3    H132073   4.220   6.427   0.143
10710TIP3    H232074   4.283   6.308   0.075
10711TIP3   OH232075   2.267   2.753   2.679
10711TIP3    H132076   2.243   2.665   2.650
10711TIP3    H232077   2.232   2.759   2.768
10712TIP3   OH232078   7.213   4.111   3.842
10712TIP3    H132079   7.136   4.060   3.867
10712TIP3    H232080   7.287   4.057   3.869
10713TIP3   OH232081   7.604   5.624   5.054
10713TIP3    H132082   7.672   5.690   5.064
10713TIP3    H232083   7.604   5.577   5.137
10714TIP3   OH232084   0.985   5.119   1.676
10714TIP3    H132085   0.929   5.132   1.753
10714TIP3    H232086   0.956   5.036   1.640
10715TIP3   OH232087   3.151   3.001   0.911
10715TIP3    H132088   3.159   3.083   0.862
10715TIP3    H232089   3.205   2.939   0.862
10716TIP3   OH232090   7.587   7.094   3.431
10716TIP3    H132091   7.546   7.162   3.378
10716TIP3    H232092   7.533   7.016   3.417
10717TIP3   OH232093   7.382   3.896   0.044
10717TIP3    H132094   7.468   3.855   0.057
10717TIP3    H232095   7.324   3.849   0.104
10718TIP3   OH232096   0.432   1.398   0.319
10718TIP3    H132097   0.525   1.378   0.320
10718TIP3    H232098   0.428   1.493   0.310
10719TIP3   OH232099   1.316   3.055   4.875
10719TIP3    H132100   1.229   3.053   4.916
10719TIP3    H232101   1.301   3.023   4.787
10720TIP3   OH232102   2.411   5.430   1.447
10720TIP3    H132103   2.361   5.448   1.368
10720TIP3    H232104   2.345   5.401   1.511
10721TIP3   OH232105   3.234   6.402   1.622
10721TIP3    H132106   3.293   6.332   1.649
10721TIP3    H232107   3.279   6.483   1.647
10722TIP3   OH232108   8.288   3.081   2.780
10722TIP3    H132109   8.247   3.080   2.693
10722TIP3    H232110   8.271   2.994   2.816
10723TIP3   OH232111   0.276   1.734   1.135
10723TIP3    H132112   0.233   1.662   1.088
10723TIP3    H232113   0.294   1.799   1.068
10724TIP3   OH232114   2.143   3.014   1.882
10724TIP3    H132115   2.061   2.966   1.874
10724TIP3    H232116   2.121   3.104   1.859
10725TIP3   OH232117   6.221   0.213   1.045
10725TIP3    H132118   6.154   0.265   1.001
10725TIP3    H232119   6.297   0.219   0.988
10726TIP3   OH232120   3.892   6.832   4.580
10726TIP3    H132121   3.884   6.795   4.668
10726TIP3    H232122   3.894   6.927   4.594
10727TIP3   OH232123   4.781   3.813   4.376
10727TIP3    H132124   4.767   3.762   4.296
10727TIP3    H232125   4.869   3.850   4.366
10728TIP3   OH232126   0.270   4.261   6.223
10728TIP3    H132127   0.356   4.229   6.250
10728TIP3    H232128   0.272   4.257   6.127
10729TIP3   OH232129   4.641   5.952   1.851
10729TIP3    H132130   4.617   6.023   1.791
10729TIP3    H232131   4.730   5.928   1.825
10730TIP3   OH232132   1.619   7.218   5.030
10730TIP3    H132133   1.701   7.176   5.052
10730TIP3    H232134   1.582   7.165   4.959
10731TIP3   OH232135   1.820   1.003   3.501
10731TIP3    H132136   1.738   1.048   3.520
10731TIP3    H232137   1.850   1.040   3.418
10732TIP3   OH232138   4.878   1.751   6.417
10732TIP3    H132139   4.825   1.696   6.473
10732TIP3    H232140   4.836   1.747   6.331
10733TIP3   OH232141   1.466   4.473   5.264
10733TIP3    H132142   1.532   4.539   5.288
10733TIP3    H232143   1.511   4.389   5.277
10734TIP3   OH232144   0.489   1.599   0.620
10734TIP3    H132145   0.394   1.607   0.612
10734TIP3    H232146   0.523   1.682   0.587
10735TIP3   OH232147   7.603   3.290   1.576
10735TIP3    H132148   7.641   3.320   1.493
10735TIP3    H232149   7.655   3.332   1.644
10736TIP3   OH232150   3.379   7.140   5.711
10736TIP3    H132151   3.442   7.203   5.677
10736TIP3    H232152   3.429   7.084   5.771
10737TIP3   OH232153   4.417   5.202   1.823
10737TIP3    H132154   4.435   5.162   1.909
10737TIP3    H232155   4.418   5.296   1.841
10738TIP3   OH232156   2.209  -0.001   2.453
10738TIP3    H132157   2.188   0.018   2.544
10738TIP3    H232158   2.303  -0.020   2.452
10739TIP3   OH232159   6.128   1.515   2.180
10739TIP3    H132160   6.134   1.429   2.223
10739TIP3    H232161   6.036   1.524   2.156
10740TIP3   OH232162   1.151   4.506   4.489
10740TIP3    H132163   1.151   4.601   4.483
10740TIP3    H232164   1.115   4.487   4.576
10741TIP3   OH232165   0.041   1.278   5.744
10741TIP3    H132166   0.050   1.272   5.649
10741TIP3    H232167   0.089   1.202   5.777
10742TIP3   OH232168   3.783   6.893   1.163
10742TIP3    H132169   3.787   6.805   1.200
10742TIP3    H232170   3.735   6.944   1.229
10743TIP3   OH232171   5.552   0.714   2.736
10743TIP3    H132172   5.589   0.771   2.803
10743TIP3    H232173   5.629   0.683   2.686
10744TIP3   OH232174   2.632   5.242   5.635
10744TIP3    H132175   2.559   5.198   5.680
10744TIP3    H232176   2.702   5.244   5.700
10745TIP3   OH232177   5.929   0.265   5.196
10745TIP3    H132178   5.941   0.171   5.189
10745TIP3    H232179   5.834   0.278   5.197
10746TIP3   OH232180   1.977   1.271   4.638
10746TIP3    H132181   1.995   1.282   4.731
10746TIP3    H232182   2.058   1.297   4.595
10747TIP3   OH232183   0.340   6.237   0.244
10747TIP3    H132184   0.389   6.160   0.215
10747TIP3    H232185   0.259   6.236   0.193
10748TIP3   OH232186   1.460   2.131   1.817
10748TIP3    H132187   1.549   2.157   1.840
10748TIP3    H232188   1.448   2.047   1.863
10749TIP3   OH232189   1.413   5.527   1.745
10749TIP3    H132190   1.331   5.481   1.727
10749TIP3    H232191   1.400   5.568   1.830
10750TIP3   OH232192   3.560   7.796   3.071
10750TIP3    H132193   3.516   7.831   3.149
10750TIP3    H232194   3.490   7.785   3.007
10751TIP3   OH232195   1.936   6.415   1.188
10751TIP3    H132196   2.005   6.402   1.123
10751TIP3    H232197   1.970   6.376   1.268
10752TIP3   OH232198   6.622   7.411   4.261
10752TIP3    H132199   6.620   7.494   4.213
10752TIP3    H232200   6.595   7.434   4.350
10753TIP3   OH232201   6.324   1.308   0.132
10753TIP3    H132202   6.280   1.389   0.105
10753TIP3    H232203   6.416   1.322   0.108
10754TIP3   OH232204   4.308   5.538   3.276
10754TIP3    H132205   4.318   5.633   3.279
10754TIP3    H232206   4.265   5.521   3.192
10755TIP3   OH232207   4.597   3.676   1.642
10755TIP3    H132208   4.690   3.676   1.623
10755TIP3    H232209   4.581   3.592   1.687
10756TIP3   OH232210   8.150   1.320   4.021
10756TIP3    H132211   8.128   1.394   3.965
10756TIP3    H232212   8.233   1.343   4.061
10757TIP3   OH232213   2.951   3.436   2.425
10757TIP3    H132214   2.991   3.355   2.392
10757TIP3    H232215   2.895   3.407   2.497
10758TIP3   OH232216   6.974   6.129   2.552
10758TIP3    H132217   6.895   6.080   2.575
10758TIP3    H232218   6.942   6.202   2.500
10759TIP3   OH232219   4.700   2.266   0.343
10759TIP3    H132220   4.770   2.222   0.390
10759TIP3    H232221   4.721   2.359   0.350
10760TIP3   OH232222   3.987   4.506   3.463
10760TIP3    H132223   4.071   4.463   3.447
10760TIP3    H232224   3.944   4.453   3.529
10761TIP3   OH232225   2.085   4.021   4.037
10761TIP3    H132226   2.063   4.048   3.948
10761TIP3    H232227   2.034   4.079   4.094
10762TIP3   OH232228   8.210   6.414   0.609
10762TIP3    H132229   8.300   6.404   0.641
10762TIP3    H232230   8.156   6.380   0.680
10763TIP3   OH232231   3.422   3.776   4.708
10763TIP3    H132232   3.509   3.738   4.693
10763TIP3    H232233   3.412   3.776   4.803
10764TIP3   OH232234   0.124   4.893   6.419
10764TIP3    H132235   0.168   4.809   6.407
10764TIP3    H232236   0.078   4.908   6.336
10765TIP3   OH232237   2.762   7.037   4.210
10765TIP3    H132238   2.774   6.980   4.286
10765TIP3    H232239   2.831   7.011   4.149
10766TIP3   OH232240   0.260   4.093   6.685
10766TIP3    H132241   0.241   4.114   6.777
10766TIP3    H232242   0.255   4.177   6.640
10767TIP3   OH232243   7.980   3.314   5.068
10767TIP3    H132244   7.967   3.219   5.075
10767TIP3    H232245   8.008   3.341   5.155
10768TIP3   OH232246   4.204   6.874   6.715
10768TIP3    H132247   4.213   6.962   6.677
10768TIP3    H232248   4.257   6.877   6.795
10769TIP3   OH232249   0.445   4.844   3.444
10769TIP3    H132250   0.527   4.863   3.489
10769TIP3    H232251   0.438   4.749   3.445
10770TIP3   OH232252   8.014   2.062   6.744
10770TIP3    H132253   7.990   2.097   6.830
10770TIP3    H232254   8.048   1.974   6.763
10771TIP3   OH232255   2.241   0.760   6.518
10771TIP3    H132256   2.159   0.712   6.505
10771TIP3    H232257   2.277   0.725   6.599
10772TIP3   OH232258   4.571   4.781   1.273
10772TIP3    H132259   4.514   4.739   1.337
10772TIP3    H232260   4.636   4.714   1.252
10773TIP3   OH232261   0.331   3.917   1.219
10773TIP3    H132262   0.268   3.850   1.193
10773TIP3    H232263   0.277   3.993   1.241
10774TIP3   OH232264   1.414   1.421   5.026
10774TIP3    H132265   1.422   1.345   5.083
10774TIP3    H232266   1.382   1.491   5.084
10775TIP3   OH232267   0.096   3.696   1.760
10775TIP3    H132268   0.058   3.628   1.703
10775TIP3    H232269   0.102   3.655   1.846
10776TIP3   OH232270   2.054   2.604   0.356
10776TIP3    H132271   2.080   2.582   0.266
10776TIP3    H232272   2.086   2.693   0.369
10777TIP3   OH232273   6.923   2.566   1.180
10777TIP3    H132274   6.913   2.588   1.273
10777TIP3    H232275   7.007   2.520   1.175
10778TIP3   OH232276   1.399   2.937   0.316
10778TIP3    H132277   1.316   2.977   0.341
10778TIP3    H232278   1.459   3.011   0.304
10779TIP3   OH232279   0.966   3.206   1.338
10779TIP3    H132280   0.955   3.160   1.421
10779TIP3    H232281   0.906   3.280   1.344
10780TIP3   OH232282   7.110   2.761   1.643
10780TIP3    H132283   7.055   2.829   1.681
10780TIP3    H232284   7.159   2.725   1.717
10781TIP3   OH232285   3.490   4.672   5.735
10781TIP3    H132286   3.576   4.676   5.692
10781TIP3    H232287   3.504   4.615   5.811
10782TIP3   OH232288   6.393   2.541   1.472
10782TIP3    H132289   6.430   2.482   1.538
10782TIP3    H232290   6.431   2.510   1.389
10783TIP3   OH232291   1.412   4.310   4.287
10783TIP3    H132292   1.319   4.321   4.265
10783TIP3    H232293   1.431   4.381   4.348
10784TIP3   OH232294   4.267   6.374   3.496
10784TIP3    H132295   4.306   6.288   3.478
10784TIP3    H232296   4.293   6.393   3.586
10785TIP3   OH232297   5.238   7.287   3.863
10785TIP3    H132298   5.201   7.353   3.804
10785TIP3    H232299   5.167   7.267   3.924
10786TIP3   OH232300   5.469   5.700   0.870
10786TIP3    H132301   5.530   5.626   0.867
10786TIP3    H232302   5.485   5.747   0.788
10787TIP3   OH232303   2.965   3.109   2.781
10787TIP3    H132304   2.893   3.104   2.844
10787TIP3    H232305   3.021   3.034   2.802
10788TIP3   OH232306   1.060   5.136   2.084
10788TIP3    H132307   1.060   5.059   2.141
10788TIP3    H232308   0.970   5.143   2.054
10789TIP3   OH232309   7.339   7.564   3.523
10789TIP3    H132310   7.278   7.638   3.519
10789TIP3    H232311   7.319   7.512   3.445
10790TIP3   OH232312   3.829   2.159   2.678
10790TIP3    H132313   3.736   2.142   2.663
10790TIP3    H232314   3.833   2.253   2.699
10791TIP3   OH232315   5.081   5.931   1.118
10791TIP3    H132316   5.166   5.915   1.077
10791TIP3    H232317   5.084   5.883   1.201
10792TIP3   OH232318   1.203   5.005   1.837
10792TIP3    H132319   1.117   5.009   1.878
10792TIP3    H232320   1.185   4.976   1.747
10793TIP3   OH232321   1.237   6.870   1.556
10793TIP3    H132322   1.289   6.885   1.477
10793TIP3    H232323   1.147   6.888   1.529
10794TIP3   OH232324   6.840   5.220   4.698
10794TIP3    H132325   6.850   5.282   4.771
10794TIP3    H232326   6.762   5.250   4.652
10795TIP3   OH232327   0.667   5.119   3.536
10795TIP3    H132328   0.731   5.126   3.465
10795TIP3    H232329   0.658   5.025   3.552
10796TIP3   OH232330   3.103   5.437   6.174
10796TIP3    H132331   3.071   5.484   6.098
10796TIP3    H232332   3.066   5.484   6.249
10797TIP3   OH232333   5.287   2.515   4.421
10797TIP3    H132334   5.249   2.601   4.404
10797TIP3    H232335   5.300   2.476   4.335
10798TIP3   OH232336   4.298   1.901   6.341
10798TIP3    H132337   4.344   1.985   6.340
10798TIP3    H232338   4.252   1.898   6.257
10799TIP3   OH232339   4.393   7.640   2.448
10799TIP3    H132340   4.384   7.633   2.353
10799TIP3    H232341   4.303   7.645   2.481
10800TIP3   OH232342   2.301   7.521   4.696
10800TIP3    H132343   2.395   7.529   4.682
10800TIP3    H232344   2.285   7.427   4.700
10801TIP3   OH232345   1.453   0.525   3.474
10801TIP3    H132346   1.357   0.529   3.475
10801TIP3    H232347   1.480   0.609   3.512
10802TIP3   OH232348   5.986   6.665   3.637
10802TIP3    H132349   5.916   6.600   3.643
10802TIP3    H232350   5.941   6.749   3.645
10803TIP3   OH232351   2.712   2.713   6.577
10803TIP3    H132352   2.759   2.679   6.653
10803TIP3    H232353   2.649   2.776   6.614
10804TIP3   OH232354   7.908   3.141   5.299
10804TIP3    H132355   7.823   3.177   5.273
10804TIP3    H232356   7.893   3.107   5.387
10805TIP3   OH232357   6.328   6.475   1.041
10805TIP3    H132358   6.354   6.385   1.023
10805TIP3    H232359   6.304   6.511   0.956
10806TIP3   OH232360   3.053   5.645   2.032
10806TIP3    H132361   3.052   5.550   2.026
10806TIP3    H232362   3.010   5.664   2.116
10807TIP3   OH232363   6.393   1.613   0.201
10807TIP3    H132364   6.464   1.651   0.148
10807TIP3    H232365   6.408   1.648   0.289
10808TIP3   OH232366   7.000   4.625   0.079
10808TIP3    H132367   7.052   4.698   0.045
10808TIP3    H232368   6.995   4.563   0.007
10809TIP3   OH232369   7.187   5.828   5.530
10809TIP3    H132370   7.204   5.842   5.437
10809TIP3    H232371   7.170   5.916   5.565
10810TIP3   OH232372   5.399   5.893   0.266
10810TIP3    H132373   5.476   5.871   0.214
10810TIP3    H232374   5.333   5.918   0.201
10811TIP3   OH232375   0.479   3.950   1.858
10811TIP3    H132376   0.521   3.991   1.934
10811TIP3    H232377   0.491   4.013   1.787
10812TIP3   OH232378   6.436   4.699   6.571
10812TIP3    H132379   6.402   4.622   6.616
10812TIP3    H232380   6.446   4.671   6.480
10813TIP3   OH232381   4.563   4.060   0.608
10813TIP3    H132382   4.615   4.138   0.590
10813TIP3    H232383   4.490   4.065   0.546
10814TIP3   OH232384   0.844   0.354   1.233
10814TIP3    H132385   0.875   0.285   1.292
10814TIP3    H232386   0.752   0.365   1.254
10815TIP3   OH232387   3.898   2.060   4.758
10815TIP3    H132388   3.895   2.083   4.665
10815TIP3    H232389   3.981   2.014   4.769
10816TIP3   OH232390   3.100   0.233   3.643
10816TIP3    H132391   3.049   0.289   3.702
10816TIP3    H232392   3.034   0.189   3.589
10817TIP3   OH232393   6.748   0.539   5.181
10817TIP3    H132394   6.683   0.509   5.244
10817TIP3    H232395   6.772   0.461   5.131
10818TIP3   OH232396   5.778   5.058   2.691
10818TIP3    H132397   5.818   5.022   2.612
10818TIP3    H232398   5.820   5.012   2.763
10819TIP3   OH232399   4.924   5.508   3.337
10819TIP3    H132400   4.987   5.440   3.314
10819TIP3    H232401   4.873   5.471   3.408
10820TIP3   OH232402   8.008   2.173   4.010
10820TIP3    H132403   7.927   2.194   4.056
10820TIP3    H232404   7.995   2.207   3.921
10821TIP3   OH232405   7.087   1.314   3.293
10821TIP3    H132406   7.060   1.326   3.202
10821TIP3    H232407   7.009   1.337   3.343
10822TIP3   OH232408   1.444   2.961   1.497
10822TIP3    H132409   1.470   2.878   1.536
10822TIP3    H232410   1.396   3.006   1.567
10823TIP3   OH232411   2.636   0.748   5.361
10823TIP3    H132412   2.656   0.842   5.360
10823TIP3    H232413   2.688   0.713   5.288
10824TIP3   OH232414   7.618   5.110   1.430
10824TIP3    H132415   7.680   5.108   1.503
10824TIP3    H232416   7.670   5.137   1.354
10825TIP3   OH232417   0.952   0.947   1.996
10825TIP3    H132418   0.939   0.909   1.909
10825TIP3    H232419   0.907   1.032   1.993
10826TIP3   OH232420   6.932   2.606   1.472
10826TIP3    H132421   6.996   2.654   1.525
10826TIP3    H232422   6.916   2.526   1.521
10827TIP3   OH232423   5.387   1.971   4.996
10827TIP3    H132424   5.410   1.961   4.903
10827TIP3    H232425   5.450   1.917   5.043
10828TIP3   OH232426   4.823   3.145   4.326
10828TIP3    H132427   4.843   3.236   4.347
10828TIP3    H232428   4.768   3.150   4.248
10829TIP3   OH232429   8.226   1.546   2.921
10829TIP3    H132430   8.243   1.579   2.833
10829TIP3    H232431   8.245   1.620   2.979
10830TIP3   OH232432   8.025   3.562   1.716
10830TIP3    H132433   8.098   3.532   1.663
10830TIP3    H232434   8.049   3.651   1.742
10831TIP3   OH232435   6.025   2.621   3.265
10831TIP3    H132436   5.986   2.703   3.234
10831TIP3    H232437   5.976   2.553   3.219
10832TIP3   OH232438   6.369   4.539   0.867
10832TIP3    H132439   6.431   4.608   0.842
10832TIP3    H232440   6.402   4.461   0.825
10833TIP3   OH232441   4.260   4.159   5.028
10833TIP3    H132442   4.301   4.245   5.037
10833TIP3    H232443   4.194   4.170   4.960
10834TIP3   OH232444   1.756   0.642   2.001
10834TIP3    H132445   1.790   0.556   2.023
10834TIP3    H232446   1.770   0.651   1.907
10835TIP3   OH232447   0.618   4.355   5.327
10835TIP3    H132448   0.568   4.274   5.313
10835TIP3    H232449   0.633   4.358   5.421
10836TIP3   OH232450   6.466   3.871   1.347
10836TIP3    H132451   6.372   3.886   1.338
10836TIP3    H232452   6.484   3.887   1.440
10837TIP3   OH232453   7.885   4.758   5.245
10837TIP3    H132454   7.881   4.853   5.259
10837TIP3    H232455   7.970   4.743   5.203
10838TIP3   OH232456   0.251   4.373   2.161
10838TIP3    H132457   0.194   4.331   2.096
10838TIP3    H232458   0.297   4.300   2.203
10839TIP3   OH232459   4.977   7.835   6.558
10839TIP3    H132460   4.976   7.793   6.472
10839TIP3    H232461   4.975   7.929   6.539
10840TIP3   OH232462   7.370   4.127   6.240
10840TIP3    H132463   7.292   4.122   6.295
10840TIP3    H232464   7.411   4.210   6.264
10841TIP3   OH232465   1.822   7.432   3.667
10841TIP3    H132466   1.864   7.349   3.692
10841TIP3    H232467   1.754   7.445   3.733
10842TIP3   OH232468   0.309   1.350   1.183
10842TIP3    H132469   0.350   1.372   1.267
10842TIP3    H232470   0.359   1.400   1.118
10843TIP3   OH232471   6.967   4.021   6.478
10843TIP3    H132472   6.991   3.937   6.517
10843TIP3    H232473   7.048   4.072   6.478
10844TIP3   OH232474   7.435   1.484   5.830
10844TIP3    H132475   7.410   1.472   5.738
10844TIP3    H232476   7.375   1.428   5.879
10845TIP3   OH232477   3.962   5.208   1.247
10845TIP3    H132478   3.996   5.296   1.230
10845TIP3    H232479   3.895   5.194   1.179
10846TIP3   OH232480   7.579   6.096   4.669
10846TIP3    H132481   7.659   6.119   4.716
10846TIP3    H232482   7.510   6.102   4.735
10847TIP3   OH232483   5.221   5.950   1.943
10847TIP3    H132484   5.280   5.974   2.015
10847TIP3    H232485   5.245   6.010   1.873
10848TIP3   OH232486   3.146   2.313   2.685
10848TIP3    H132487   3.054   2.288   2.684
10848TIP3    H232488   3.190   2.246   2.632
10849TIP3   OH232489   1.160   1.412   3.952
10849TIP3    H132490   1.227   1.478   3.971
10849TIP3    H232491   1.143   1.421   3.859
10850TIP3   OH232492   1.050   5.544   5.153
10850TIP3    H132493   1.054   5.468   5.095
10850TIP3    H232494   1.018   5.509   5.236
10851TIP3   OH232495   6.175   5.530   5.252
10851TIP3    H132496   6.245   5.497   5.196
10851TIP3    H232497   6.104   5.552   5.192
10852TIP3   OH232498   5.663   2.916   0.424
10852TIP3    H132499   5.624   2.835   0.392
10852TIP3    H232500   5.746   2.889   0.464
10853TIP3   OH232501   4.696   3.016   1.674
10853TIP3    H132502   4.617   3.045   1.719
10853TIP3    H232503   4.758   3.089   1.685
10854TIP3   OH232504   0.884   4.887   1.563
10854TIP3    H132505   0.947   4.842   1.508
10854TIP3    H232506   0.863   4.824   1.632
10855TIP3   OH232507   0.610   7.558   3.580
10855TIP3    H132508   0.616   7.559   3.485
10855TIP3    H232509   0.580   7.469   3.602
10856TIP3   OH232510   7.037   0.732   0.504
10856TIP3    H132511   7.122   0.695   0.481
10856TIP3    H232512   7.035   0.818   0.462
10857TIP3   OH232513   2.717   4.250   3.749
10857TIP3    H132514   2.784   4.312   3.720
10857TIP3    H232515   2.767   4.172   3.775
10858TIP3   OH232516   4.704   5.701   0.180
10858TIP3    H132517   4.716   5.607   0.178
10858TIP3    H232518   4.751   5.734   0.103
10859TIP3   OH232519   4.922   7.031   2.796
10859TIP3    H132520   4.902   7.098   2.861
10859TIP3    H232521   4.870   7.055   2.720
10860TIP3   OH232522   5.787   1.832   3.685
10860TIP3    H132523   5.775   1.737   3.691
10860TIP3    H232524   5.816   1.847   3.595
10861TIP3   OH232525   0.199   5.576   3.611
10861TIP3    H132526   0.210   5.671   3.606
10861TIP3    H232527   0.198   5.557   3.705
10862TIP3   OH232528   4.913   6.470   2.035
10862TIP3    H132529   4.877   6.436   2.118
10862TIP3    H232530   4.915   6.394   1.977
10863TIP3   OH232531   7.504   1.353   5.085
10863TIP3    H132532   7.581   1.404   5.113
10863TIP3    H232533   7.450   1.416   5.037
10864TIP3   OH232534   2.997   5.589   6.381
10864TIP3    H132535   2.965   5.585   6.471
10864TIP3    H232536   3.013   5.682   6.365
10865TIP3   OH232537   7.310   3.549   2.843
10865TIP3    H132538   7.331   3.641   2.829
10865TIP3    H232539   7.268   3.546   2.929
10866TIP3   OH232540   1.336   0.157   3.139
10866TIP3    H132541   1.302   0.243   3.161
10866TIP3    H232542   1.259   0.099   3.142
10867TIP3   OH232543   5.995   7.243   3.889
10867TIP3    H132544   6.061   7.284   3.946
10867TIP3    H232545   6.007   7.149   3.901
10868TIP3   OH232546   1.832   5.023   6.666
10868TIP3    H132547   1.793   5.036   6.580
10868TIP3    H232548   1.792   5.092   6.720
10869TIP3   OH232549   4.397   0.592   2.192
10869TIP3    H132550   4.303   0.605   2.193
10869TIP3    H232551   4.429   0.651   2.123
10870TIP3   OH232552   8.219   3.348   0.004
10870TIP3    H132553   8.256   3.336   0.091
10870TIP3    H232554   8.157   3.275  -0.006
10871TIP3   OH232555   3.285   5.962   4.869
10871TIP3    H132556   3.269   5.942   4.777
10871TIP3    H232557   3.200   5.954   4.911
10872TIP3   OH232558   3.202   1.532   5.926
10872TIP3    H132559   3.158   1.616   5.910
10872TIP3    H232560   3.295   1.554   5.929
10873TIP3   OH232561   1.910   4.805   4.347
10873TIP3    H132562   1.951   4.748   4.412
10873TIP3    H232563   1.908   4.891   4.389
10874TIP3   OH232564   7.101   6.258   5.985
10874TIP3    H132565   7.167   6.261   5.916
10874TIP3    H232566   7.151   6.263   6.066
10875TIP3   OH232567   6.798   3.136   2.723
10875TIP3    H132568   6.847   3.176   2.651
10875TIP3    H232569   6.733   3.203   2.747
10876TIP3   OH232570   2.206   2.575   0.127
10876TIP3    H132571   2.280   2.535   0.173
10876TIP3    H232572   2.231   2.573   0.035
10877TIP3   OH232573   4.009   4.785   0.669
10877TIP3    H132574   4.013   4.763   0.576
10877TIP3    H232575   4.005   4.880   0.671
10878TIP3   OH232576   6.574   4.020   3.820
10878TIP3    H132577   6.572   3.941   3.766
10878TIP3    H232578   6.547   3.990   3.907
10879TIP3   OH232579   5.095   6.675   5.257
10879TIP3    H132580   5.059   6.750   5.210
10879TIP3    H232581   5.165   6.712   5.311
10880TIP3   OH232582   6.333   1.177   2.997
10880TIP3    H132583   6.292   1.096   2.969
10880TIP3    H232584   6.293   1.244   2.942
10881TIP3   OH232585   8.110   3.212   4.617
10881TIP3    H132586   8.109   3.307   4.623
10881TIP3    H232587   8.168   3.193   4.543
10882TIP3   OH232588   2.874   0.767   4.489
10882TIP3    H132589   2.906   0.688   4.445
10882TIP3    H232590   2.786   0.780   4.452
10883TIP3   OH232591   1.033   5.722   0.032
10883TIP3    H132592   0.943   5.699   0.006
10883TIP3    H232593   1.028   5.735   0.126
10884TIP3   OH232594   7.639   7.224   4.343
10884TIP3    H132595   7.588   7.304   4.336
10884TIP3    H232596   7.629   7.196   4.434
10885TIP3   OH232597   7.226   0.920   4.936
10885TIP3    H132598   7.232   0.915   4.841
10885TIP3    H232599   7.154   0.861   4.959
10886TIP3   OH232600   8.230   4.308   5.866
10886TIP3    H132601   8.183   4.239   5.819
10886TIP3    H232602   8.164   4.376   5.880
10887TIP3   OH232603   3.743   2.923   4.406
10887TIP3    H132604   3.737   2.871   4.326
10887TIP3    H232605   3.653   2.947   4.426
10888TIP3   OH232606   3.441   3.501   4.857
10888TIP3    H132607   3.528   3.499   4.815
10888TIP3    H232608   3.384   3.454   4.796
10889TIP3   OH232609   1.447   7.644   3.498
10889TIP3    H132610   1.398   7.565   3.473
10889TIP3    H232611   1.537   7.614   3.507
10890TIP3   OH232612   5.451   5.863   2.748
10890TIP3    H132613   5.516   5.815   2.696
10890TIP3    H232614   5.467   5.955   2.726
10891TIP3   OH232615   1.320   3.476   5.047
10891TIP3    H132616   1.373   3.397   5.045
10891TIP3    H232617   1.324   3.506   5.138
10892TIP3   OH232618   0.223   2.055   2.181
10892TIP3    H132619   0.260   2.066   2.094
10892TIP3    H232620   0.247   1.966   2.207
10893TIP3   OH232621   6.260   2.114   0.058
10893TIP3    H132622   6.239   2.154  -0.026
10893TIP3    H232623   6.215   2.168   0.122
10894TIP3   OH232624   1.804   0.118   2.253
10894TIP3    H132625   1.709   0.122   2.242
10894TIP3    H232626   1.817   0.108   2.347
10895TIP3   OH232627   3.975   5.451   1.877
10895TIP3    H132628   3.955   5.446   1.970
10895TIP3    H232629   4.001   5.541   1.863
10896TIP3   OH232630   3.882   6.989   2.368
10896TIP3    H132631   3.879   7.083   2.352
10896TIP3    H232632   3.843   6.978   2.455
10897TIP3   OH232633   7.599   2.937   4.258
10897TIP3    H132634   7.551   3.019   4.269
10897TIP3    H232635   7.563   2.879   4.326
10898TIP3   OH232636   6.828   6.774   2.171
10898TIP3    H132637   6.831   6.861   2.209
10898TIP3    H232638   6.915   6.737   2.187
10899TIP3   OH232639   6.447   0.595   0.099
10899TIP3    H132640   6.366   0.597   0.048
10899TIP3    H232641   6.439   0.516   0.153
10900TIP3   OH232642   1.918   6.171   4.459
10900TIP3    H132643   1.899   6.211   4.373
10900TIP3    H232644   2.010   6.144   4.453
10901TIP3   OH232645   2.644   2.063   1.279
10901TIP3    H132646   2.720   2.009   1.298
10901TIP3    H232647   2.671   2.151   1.305
10902TIP3   OH232648   2.051   7.263   0.631
10902TIP3    H132649   2.089   7.345   0.599
10902TIP3    H232650   1.957   7.273   0.617
10903TIP3   OH232651   4.556   3.335   0.756
10903TIP3    H132652   4.544   3.379   0.841
10903TIP3    H232653   4.641   3.367   0.725
10904TIP3   OH232654   1.615   1.485   2.838
10904TIP3    H132655   1.557   1.485   2.762
10904TIP3    H232656   1.632   1.577   2.856
10905TIP3   OH232657   2.256   0.275   1.878
10905TIP3    H132658   2.258   0.204   1.814
10905TIP3    H232659   2.182   0.330   1.851
10906TIP3   OH232660   6.293   0.193   3.353
10906TIP3    H132661   6.300   0.235   3.438
10906TIP3    H232662   6.381   0.199   3.315
10907TIP3   OH232663   1.645   5.401   1.648
10907TIP3    H132664   1.667   5.374   1.737
10907TIP3    H232665   1.575   5.465   1.658
10908TIP3   OH232666   0.353   3.121   4.472
10908TIP3    H132667   0.356   3.151   4.380
10908TIP3    H232668   0.438   3.146   4.507
10909TIP3   OH232669   3.400   6.188   0.706
10909TIP3    H132670   3.376   6.246   0.779
10909TIP3    H232671   3.354   6.106   0.724
10910TIP3   OH232672   3.280   6.409   2.603
10910TIP3    H132673   3.231   6.349   2.547
10910TIP3    H232674   3.332   6.353   2.660
10911TIP3   OH232675   1.617   0.299   3.216
10911TIP3    H132676   1.619   0.292   3.312
10911TIP3    H232677   1.533   0.262   3.191
10912TIP3   OH232678   3.382   2.110   6.377
10912TIP3    H132679   3.450   2.044   6.364
10912TIP3    H232680   3.417   2.166   6.447
10913TIP3   OH232681   7.239   4.127   2.088
10913TIP3    H132682   7.278   4.116   2.001
10913TIP3    H232683   7.313   4.152   2.144
10914TIP3   OH232684   4.691   5.815   4.408
10914TIP3    H132685   4.597   5.815   4.392
10914TIP3    H232686   4.701   5.766   4.489
10915TIP3   OH232687   6.605   7.499   3.771
10915TIP3    H132688   6.530   7.506   3.830
10915TIP3    H232689   6.633   7.590   3.757
10916TIP3   OH232690   6.569   4.061   0.359
10916TIP3    H132691   6.495   4.024   0.408
10916TIP3    H232692   6.575   4.151   0.390
10917TIP3   OH232693   5.421   4.289   4.575
10917TIP3    H132694   5.469   4.372   4.572
10917TIP3    H232695   5.454   4.240   4.499
10918TIP3   OH232696   4.577   3.011   6.342
10918TIP3    H132697   4.649   3.001   6.404
10918TIP3    H232698   4.565   3.106   6.335
10919TIP3   OH232699   3.667   4.645   3.114
10919TIP3    H132700   3.675   4.575   3.179
10919TIP3    H232701   3.574   4.665   3.112
10920TIP3   OH232702   1.502   5.883   3.479
10920TIP3    H132703   1.412   5.894   3.509
10920TIP3    H232704   1.532   5.971   3.457
10921TIP3   OH232705   7.393   3.711   6.027
10921TIP3    H132706   7.328   3.656   6.072
10921TIP3    H232707   7.430   3.654   5.960
10922TIP3   OH232708   0.831   1.299   2.555
10922TIP3    H132709   0.865   1.267   2.471
10922TIP3    H232710   0.753   1.247   2.571
10923TIP3   OH232711   1.407   3.814   0.101
10923TIP3    H132712   1.432   3.724   0.079
10923TIP3    H232713   1.314   3.818   0.080
10924TIP3   OH232714   5.940   3.592   4.560
10924TIP3    H132715   5.929   3.602   4.466
10924TIP3    H232716   5.864   3.635   4.599
10925TIP3   OH232717   3.623   5.002   5.053
10925TIP3    H132718   3.665   5.022   4.969
10925TIP3    H232719   3.579   5.084   5.077
10926TIP3   OH232720   2.645   5.518   4.127
10926TIP3    H132721   2.612   5.608   4.133
10926TIP3    H232722   2.654   5.489   4.217
10927TIP3   OH232723   1.243   1.183   6.361
10927TIP3    H132724   1.319   1.189   6.303
10927TIP3    H232725   1.248   1.261   6.416
10928TIP3   OH232726   7.107   2.664   5.594
10928TIP3    H132727   7.185   2.614   5.568
10928TIP3    H232728   7.142   2.747   5.627
10929TIP3   OH232729   4.939   0.521   0.211
10929TIP3    H132730   4.902   0.601   0.248
10929TIP3    H232731   4.885   0.451   0.250
10930TIP3   OH232732   1.191   5.123   3.562
10930TIP3    H132733   1.265   5.184   3.567
10930TIP3    H232734   1.115   5.178   3.543
10931TIP3   OH232735   5.392   2.865   4.893
10931TIP3    H132736   5.376   2.951   4.855
10931TIP3    H232737   5.390   2.805   4.818
10932TIP3   OH232738   2.663   2.053   5.000
10932TIP3    H132739   2.605   2.009   4.938
10932TIP3    H232740   2.750   2.020   4.978
10933TIP3   OH232741   3.543   7.834   0.754
10933TIP3    H132742   3.491   7.908   0.722
10933TIP3    H232743   3.537   7.768   0.685
10934TIP3   OH232744   6.867   0.982   6.620
10934TIP3    H132745   6.785   1.005   6.663
10934TIP3    H232746   6.931   1.044   6.656
10935TIP3   OH232747   2.222   1.413   4.554
10935TIP3    H132748   2.188   1.502   4.559
10935TIP3    H232749   2.309   1.418   4.594
10936TIP3   OH232750   5.804   3.340   3.534
10936TIP3    H132751   5.747   3.346   3.457
10936TIP3    H232752   5.892   3.338   3.498
10937TIP3   OH232753   6.571   6.603   3.715
10937TIP3    H132754   6.661   6.570   3.714
10937TIP3    H232755   6.542   6.598   3.624
10938TIP3   OH232756   1.768   3.992   0.488
10938TIP3    H132757   1.807   3.922   0.435
10938TIP3    H232758   1.685   3.955   0.519
10939TIP3   OH232759   4.388   6.678   2.961
10939TIP3    H132760   4.442   6.622   3.016
10939TIP3    H232761   4.425   6.766   2.972
10940TIP3   OH232762   4.138   3.419   5.183
10940TIP3    H132763   4.099   3.498   5.147
10940TIP3    H232764   4.210   3.398   5.125
10941TIP3   OH232765   6.409   4.794   1.718
10941TIP3    H132766   6.460   4.875   1.712
10941TIP3    H232767   6.318   4.822   1.712
10942TIP3   OH232768   4.924   7.162   5.084
10942TIP3    H132769   4.832   7.145   5.106
10942TIP3    H232770   4.933   7.257   5.089
10943TIP3   OH232771   4.320   2.145   6.569
10943TIP3    H132772   4.296   2.181   6.654
10943TIP3    H232773   4.416   2.149   6.567
10944TIP3   OH232774   4.585   2.499   1.462
10944TIP3    H132775   4.597   2.588   1.428
10944TIP3    H232776   4.491   2.492   1.479
10945TIP3   OH232777   7.919   2.457   1.884
10945TIP3    H132778   7.921   2.522   1.814
10945TIP3    H232779   8.011   2.442   1.905
10946TIP3   OH232780   1.988   0.483   6.113
10946TIP3    H132781   1.924   0.553   6.122
10946TIP3    H232782   2.048   0.496   6.187
10947TIP3   OH232783   7.247   4.338   2.442
10947TIP3    H132784   7.278   4.269   2.383
10947TIP3    H232785   7.169   4.374   2.399
10948TIP3   OH232786   1.937   3.632   3.689
10948TIP3    H132787   1.872   3.702   3.687
10948TIP3    H232788   1.928   3.588   3.604
10949TIP3   OH232789   5.794   1.877   4.679
10949TIP3    H132790   5.820   1.792   4.644
10949TIP3    H232791   5.875   1.915   4.714
10950TIP3   OH232792   7.221   1.687   4.007
10950TIP3    H132793   7.166   1.682   4.085
10950TIP3    H232794   7.290   1.622   4.022
10951TIP3   OH232795   6.230   6.885   0.817
10951TIP3    H132796   6.310   6.833   0.813
10951TIP3    H232797   6.159   6.821   0.806
10952TIP3   OH232798   7.752   1.818   0.866
10952TIP3    H132799   7.684   1.773   0.816
10952TIP3    H232800   7.747   1.779   0.953
10953TIP3   OH232801   5.291   4.110   1.991
10953TIP3    H132802   5.339   4.104   2.073
10953TIP3    H232803   5.213   4.161   2.012
10954TIP3   OH232804   4.050   6.216   1.582
10954TIP3    H132805   4.097   6.164   1.648
10954TIP3    H232806   4.000   6.280   1.633
10955TIP3   OH232807   5.823   5.651   6.193
10955TIP3    H132808   5.824   5.683   6.103
10955TIP3    H232809   5.913   5.660   6.223
10956TIP3   OH232810   4.465   5.245   5.534
10956TIP3    H132811   4.371   5.264   5.531
10956TIP3    H232812   4.506   5.317   5.488
10957TIP3   OH232813   6.852   2.848   0.356
10957TIP3    H132814   6.800   2.767   0.363
10957TIP3    H232815   6.942   2.820   0.373
10958TIP3   OH232816   7.181   1.893   4.229
10958TIP3    H132817   7.191   1.987   4.245
10958TIP3    H232818   7.261   1.854   4.263
10959TIP3   OH232819   6.233   6.908   4.236
10959TIP3    H132820   6.224   6.932   4.144
10959TIP3    H232821   6.306   6.847   4.239
10960TIP3   OH232822   7.196   4.959   3.610
10960TIP3    H132823   7.110   4.920   3.595
10960TIP3    H232824   7.242   4.896   3.665
10961TIP3   OH232825   8.023   7.666   4.682
10961TIP3    H132826   8.077   7.730   4.636
10961TIP3    H232827   8.054   7.669   4.773
10962TIP3   OH232828   5.117   3.141   1.427
10962TIP3    H132829   5.157   3.057   1.448
10962TIP3    H232830   5.177   3.206   1.465
10963TIP3   OH232831   5.723   1.220   5.447
10963TIP3    H132832   5.734   1.279   5.522
10963TIP3    H232833   5.776   1.260   5.377
10964TIP3   OH232834   6.630   2.561   2.274
10964TIP3    H132835   6.688   2.636   2.289
10964TIP3    H232836   6.687   2.485   2.277
10965TIP3   OH232837   2.444   3.052   3.413
10965TIP3    H132838   2.357   3.087   3.394
10965TIP3    H232839   2.457   3.069   3.506
10966TIP3   OH232840   5.374   1.429   2.170
10966TIP3    H132841   5.383   1.381   2.252
10966TIP3    H232842   5.355   1.362   2.105
10967TIP3   OH232843   6.596   4.616   3.132
10967TIP3    H132844   6.655   4.617   3.057
10967TIP3    H232845   6.534   4.546   3.114
10968TIP3   OH232846   5.974   6.360   5.952
10968TIP3    H132847   5.891   6.367   5.998
10968TIP3    H232848   5.985   6.445   5.909
10969TIP3   OH232849   7.718   2.469   4.325
10969TIP3    H132850   7.810   2.449   4.307
10969TIP3    H232851   7.688   2.397   4.381
10970TIP3   OH232852   4.604   4.827   2.620
10970TIP3    H132853   4.640   4.915   2.623
10970TIP3    H232854   4.520   4.836   2.575
10971TIP3   OH232855   3.009   1.277   4.641
10971TIP3    H132856   3.079   1.340   4.662
10971TIP3    H232857   3.023   1.257   4.548
10972TIP3   OH232858   1.134   1.296   3.104
10972TIP3    H132859   1.091   1.365   3.053
10972TIP3    H232860   1.190   1.343   3.165
10973TIP3   OH232861   3.933   0.820   3.147
10973TIP3    H132862   3.908   0.779   3.065
10973TIP3    H232863   3.853   0.863   3.178
10974TIP3   OH232864   6.168   1.853   0.174
10974TIP3    H132865   6.188   1.868   0.267
10974TIP3    H232866   6.227   1.911   0.127
10975TIP3   OH232867   2.861   6.466   4.640
10975TIP3    H132868   2.857   6.560   4.622
10975TIP3    H232869   2.850   6.459   4.735
10976TIP3   OH232870   6.251   5.045   5.544
10976TIP3    H132871   6.329   5.058   5.598
10976TIP3    H232872   6.283   5.002   5.465
10977TIP3   OH232873   1.566   3.737   1.493
10977TIP3    H132874   1.510   3.660   1.489
10977TIP3    H232875   1.547   3.777   1.578
10978TIP3   OH232876   2.003   3.637   5.478
10978TIP3    H132877   1.916   3.630   5.438
10978TIP3    H232878   1.992   3.603   5.567
10979TIP3   OH232879   4.753   1.567   6.553
10979TIP3    H132880   4.672   1.618   6.545
10979TIP3    H232881   4.723   1.477   6.568
10980TIP3   OH232882   7.094   2.422   6.429
10980TIP3    H132883   7.041   2.376   6.495
10980TIP3    H232884   7.102   2.511   6.462
10981TIP3   OH232885   5.151   0.951   1.870
10981TIP3    H132886   5.078   0.957   1.808
10981TIP3    H232887   5.109   0.938   1.955
10982TIP3   OH232888   0.049   2.995   2.266
10982TIP3    H132889   0.109   2.925   2.240
10982TIP3    H232890  -0.028   2.949   2.301
10983TIP3   OH232891   5.039   3.204   0.017
10983TIP3    H132892   5.015   3.229  -0.073
10983TIP3    H232893   5.041   3.109   0.016
10984TIP3   OH232894   6.530   7.109   2.332
10984TIP3    H132895   6.470   7.133   2.262
10984TIP3    H232896   6.579   7.189   2.351
10985TIP3   OH232897   3.662   5.462   2.513
10985TIP3    H132898   3.729   5.430   2.574
10985TIP3    H232899   3.667   5.557   2.521
10986TIP3   OH232900   0.404   3.650   3.472
10986TIP3    H132901   0.431   3.612   3.555
10986TIP3    H232902   0.392   3.743   3.491
10987TIP3   OH232903   6.514   5.285   4.768
10987TIP3    H132904   6.437   5.320   4.812
10987TIP3    H232905   6.518   5.330   4.684
10988TIP3   OH232906   6.893   5.427   2.010
10988TIP3    H132907   6.861   5.337   2.011
10988TIP3    H232908   6.984   5.420   1.980
10989TIP3   OH232909   0.197   5.834   3.926
10989TIP3    H132910   0.200   5.741   3.902
10989TIP3    H232911   0.151   5.836   4.010
10990TIP3   OH232912   7.641   1.372   1.061
10990TIP3    H132913   7.618   1.295   1.010
10990TIP3    H232914   7.737   1.368   1.067
10991TIP3   OH232915   5.568   6.128   5.928
10991TIP3    H132916   5.500   6.065   5.952
10991TIP3    H232917   5.649   6.079   5.931
10992TIP3   OH232918   1.414   7.543   4.780
10992TIP3    H132919   1.387   7.470   4.725
10992TIP3    H232920   1.479   7.590   4.729
10993TIP3   OH232921   4.214   4.151   5.679
10993TIP3    H132922   4.206   4.171   5.772
10993TIP3    H232923   4.170   4.067   5.668
10994TIP3   OH232924   3.789   6.206   2.406
10994TIP3    H132925   3.733   6.162   2.342
10994TIP3    H232926   3.795   6.144   2.479
10995TIP3   OH232927   4.152   3.939   0.302
10995TIP3    H132928   4.061   3.948   0.272
10995TIP3    H232929   4.162   3.846   0.320
10996TIP3   OH232930   5.868   2.041   2.650
10996TIP3    H132931   5.915   1.965   2.685
10996TIP3    H232932   5.911   2.061   2.567
10997TIP3   OH232933   6.929   0.699   0.889
10997TIP3    H132934   6.959   0.621   0.843
10997TIP3    H232935   6.924   0.766   0.821
10998TIP3   OH232936   2.025   0.119   1.547
10998TIP3    H132937   2.106   0.168   1.557
10998TIP3    H232938   2.038   0.040   1.599
10999TIP3   OH232939   7.378   4.868   2.809
10999TIP3    H132940   7.414   4.784   2.835
10999TIP3    H232941   7.390   4.871   2.714
11000TIP3   OH232942   7.546   1.312   6.716
11000TIP3    H132943   7.470   1.286   6.664
11000TIP3    H232944   7.557   1.242   6.780
11001TIP3   OH232945   2.831   1.438   1.544
11001TIP3    H132946   2.923   1.461   1.533
11001TIP3    H232947   2.806   1.400   1.459
11002TIP3   OH232948   1.756   0.709   6.094
11002TIP3    H132949   1.758   0.804   6.081
11002TIP3    H232950   1.801   0.695   6.177
11003TIP3   OH232951   2.310   7.341   1.206
11003TIP3    H132952   2.225   7.386   1.214
11003TIP3    H232953   2.312   7.279   1.279
11004TIP3   OH232954   7.254   5.042   5.901
11004TIP3    H132955   7.337   5.089   5.910
11004TIP3    H232956   7.270   4.978   5.831
11005TIP3   OH232957   1.994   1.856   0.409
11005TIP3    H132958   1.923   1.883   0.351
11005TIP3    H232959   2.045   1.937   0.423
11006TIP3   OH232960   7.955   1.820   0.349
11006TIP3    H132961   7.926   1.749   0.407
11006TIP3    H232962   7.875   1.849   0.306
11007TIP3   OH232963   4.379   5.930   1.937
11007TIP3    H132964   4.473   5.944   1.927
11007TIP3    H232965   4.368   5.835   1.932
11008TIP3   OH232966   2.385   4.770   5.939
11008TIP3    H132967   2.433   4.719   5.873
11008TIP3    H232968   2.450   4.787   6.008
11009TIP3   OH232969   2.933   3.427   5.046
11009TIP3    H132970   2.981   3.371   5.107
11009TIP3    H232971   3.001   3.476   4.999
11010TIP3   OH232972   1.824   2.519   5.611
11010TIP3    H132973   1.860   2.598   5.570
11010TIP3    H232974   1.776   2.552   5.687
11011TIP3   OH232975   7.805   1.726   4.996
11011TIP3    H132976   7.881   1.743   5.052
11011TIP3    H232977   7.841   1.711   4.909
11012TIP3   OH232978   7.911   2.059   2.467
11012TIP3    H132979   7.969   2.014   2.407
11012TIP3    H232980   7.915   2.151   2.441
11013TIP3   OH232981   7.136   6.232   1.829
11013TIP3    H132982   7.162   6.146   1.795
11013TIP3    H232983   7.052   6.251   1.787
11014TIP3   OH232984   1.850   2.490   5.989
11014TIP3    H132985   1.772   2.512   5.938
11014TIP3    H232986   1.919   2.544   5.952
11015TIP3   OH232987   0.759   3.904   6.462
11015TIP3    H132988   0.781   3.881   6.552
11015TIP3    H232989   0.718   3.991   6.468
11016TIP3   OH232990   1.073   7.773   0.198
11016TIP3    H132991   1.028   7.713   0.139
11016TIP3    H232992   1.043   7.860   0.172
11017TIP3   OH232993   5.680   1.029   5.641
11017TIP3    H132994   5.700   1.102   5.582
11017TIP3    H232995   5.666   1.070   5.726
11018TIP3   OH232996   0.203   2.572   5.684
11018TIP3    H132997   0.139   2.607   5.746
11018TIP3    H232998   0.222   2.645   5.625
11019TIP3   OH232999   3.396   3.573   5.451
11019TIP3    H133000   3.491   3.577   5.444
11019TIP3    H233001   3.369   3.505   5.390
11020TIP3   OH233002   4.819   5.255   4.524
11020TIP3    H133003   4.870   5.203   4.586
11020TIP3    H233004   4.743   5.285   4.575
11021TIP3   OH233005   7.725   5.560   2.707
11021TIP3    H133006   7.666   5.490   2.735
11021TIP3    H233007   7.727   5.553   2.611
11022TIP3   OH233008   4.344   1.505   5.267
11022TIP3    H133009   4.354   1.410   5.257
11022TIP3    H233010   4.431   1.540   5.251
11023TIP3   OH233011   0.398   6.230   1.446
11023TIP3    H133012   0.446   6.219   1.364
11023TIP3    H233013   0.432   6.312   1.482
11024TIP3   OH233014   7.073   5.211   2.729
11024TIP3    H133015   6.989   5.254   2.747
11024TIP3    H233016   7.139   5.278   2.747
11025TIP3   OH233017   4.933   5.197   3.940
11025TIP3    H133018   4.948   5.232   3.852
11025TIP3    H233019   4.992   5.248   3.996
11026TIP3   OH233020   0.701   6.290   0.459
11026TIP3    H133021   0.607   6.283   0.444
11026TIP3    H233022   0.711   6.375   0.503
11027TIP3   OH233023   2.332   5.663   4.838
11027TIP3    H133024   2.273   5.736   4.816
11027TIP3    H233025   2.329   5.606   4.762
11028TIP3   OH233026   4.870   0.254   2.912
11028TIP3    H133027   4.866   0.311   2.988
11028TIP3    H233028   4.793   0.279   2.859
11029TIP3   OH233029   3.200   6.551   3.683
11029TIP3    H133030   3.144   6.579   3.610
11029TIP3    H233031   3.256   6.482   3.646
11030TIP3   OH233032   3.807   0.380   5.878
11030TIP3    H133033   3.856   0.459   5.903
11030TIP3    H233034   3.855   0.344   5.804
11031TIP3   OH233035   2.470   6.396   3.557
11031TIP3    H133036   2.414   6.452   3.503
11031TIP3    H233037   2.503   6.330   3.497
11032TIP3   OH233038   3.480   4.561   2.291
11032TIP3    H133039   3.429   4.642   2.291
11032TIP3    H233040   3.436   4.505   2.227
11033TIP3   OH233041   7.893   5.764   0.217
11033TIP3    H133042   7.916   5.671   0.217
11033TIP3    H233043   7.890   5.788   0.310
11034TIP3   OH233044   2.266   3.727   1.651
11034TIP3    H133045   2.293   3.674   1.576
11034TIP3    H233046   2.338   3.719   1.713
11035TIP3   OH233047   0.250   2.301   0.797
11035TIP3    H133048   0.225   2.375   0.853
11035TIP3    H233049   0.238   2.224   0.853
11036TIP3   OH233050   2.676   4.446   3.997
11036TIP3    H133051   2.670   4.539   4.021
11036TIP3    H233052   2.694   4.446   3.903
11037TIP3   OH233053   2.448   5.101   1.635
11037TIP3    H133054   2.523   5.157   1.617
11037TIP3    H233055   2.460   5.025   1.578
11038TIP3   OH233056   4.898   1.916   3.747
11038TIP3    H133057   4.971   1.964   3.708
11038TIP3    H233058   4.833   1.984   3.767
11039TIP3   OH233059   7.381   5.348   4.954
11039TIP3    H133060   7.320   5.329   4.883
11039TIP3    H233061   7.329   5.392   5.020
11040TIP3   OH233062   2.885   7.590   2.768
11040TIP3    H133063   2.896   7.514   2.826
11040TIP3    H233064   2.814   7.564   2.709
11041TIP3   OH233065  -0.007   5.989   0.645
11041TIP3    H133066   0.028   6.034   0.722
11041TIP3    H233067   0.019   6.045   0.571
11042TIP3   OH233068   0.733   1.966   3.870
11042TIP3    H133069   0.758   1.892   3.924
11042TIP3    H233070   0.802   1.972   3.803
11043TIP3   OH233071   8.184   6.532   5.903
11043TIP3    H133072   8.259   6.502   5.851
11043TIP3    H233073   8.108   6.516   5.847
11044TIP3   OH233074   5.804   6.563   6.608
11044TIP3    H133075   5.835   6.473   6.592
11044TIP3    H233076   5.744   6.554   6.682
11045TIP3   OH233077   4.068   3.224   3.937
11045TIP3    H133078   4.084   3.141   3.892
11045TIP3    H233079   4.137   3.282   3.907
11046TIP3   OH233080   3.104   4.319   4.740
11046TIP3    H133081   3.085   4.226   4.724
11046TIP3    H233082   3.152   4.318   4.823
11047TIP3   OH233083   3.001   4.089   4.755
11047TIP3    H133084   3.078   4.032   4.746
11047TIP3    H233085   2.940   4.039   4.809
11048TIP3   OH233086   6.802   3.831   2.211
11048TIP3    H133087   6.875   3.885   2.182
11048TIP3    H233088   6.786   3.770   2.138
11049TIP3   OH233089   6.808   4.208   1.230
11049TIP3    H133090   6.723   4.164   1.227
11049TIP3    H233091   6.871   4.139   1.208
11050TIP3   OH233092   3.906   6.456   3.142
11050TIP3    H133093   3.978   6.449   3.080
11050TIP3    H233094   3.864   6.540   3.122
11051TIP3   OH233095   5.091   7.494   4.607
11051TIP3    H133096   5.180   7.462   4.621
11051TIP3    H233097   5.035   7.418   4.622
11052TIP3   OH233098   1.464   3.601   2.302
11052TIP3    H133099   1.500   3.611   2.214
11052TIP3    H233100   1.491   3.680   2.348
11053TIP3   OH233101  -0.006   2.430   0.375
11053TIP3    H133102  -0.068   2.358   0.388
11053TIP3    H233103   0.045   2.432   0.456
11054TIP3   OH233104   0.264   4.172   1.410
11054TIP3    H133105   0.221   4.112   1.471
11054TIP3    H233106   0.274   4.253   1.459
11055TIP3   OH233107   2.407   1.640   1.130
11055TIP3    H133108   2.352   1.670   1.202
11055TIP3    H233109   2.422   1.719   1.077
11056TIP3   OH233110   8.002   1.997   5.941
11056TIP3    H133111   8.091   1.993   5.907
11056TIP3    H233112   7.974   1.905   5.946
11057TIP3   OH233113   2.561   0.272   2.944
11057TIP3    H133114   2.620   0.328   2.894
11057TIP3    H233115   2.512   0.223   2.877
11058TIP3   OH233116   1.224   5.789   5.468
11058TIP3    H133117   1.268   5.815   5.549
11058TIP3    H233118   1.131   5.791   5.490
11059TIP3   OH233119   2.504   7.099   3.679
11059TIP3    H133120   2.418   7.111   3.719
11059TIP3    H233121   2.489   7.111   3.586
11060TIP3   OH233122   5.550   6.506   5.037
11060TIP3    H133123   5.469   6.511   4.985
11060TIP3    H233124   5.609   6.567   4.994
11061TIP3   OH233125   1.209   0.671   4.053
11061TIP3    H133126   1.224   0.613   3.979
11061TIP3    H233127   1.238   0.757   4.023
11062TIP3   OH233128   7.573   5.397   3.634
11062TIP3    H133129   7.509   5.463   3.607
11062TIP3    H233130   7.642   5.447   3.677
11063TIP3   OH233131   1.876   3.910   3.424
11063TIP3    H133132   1.842   3.822   3.411
11063TIP3    H233133   1.971   3.900   3.415
11064TIP3   OH233134   5.272   2.438   1.714
11064TIP3    H133135   5.222   2.497   1.659
11064TIP3    H233136   5.349   2.488   1.741
11065TIP3   OH233137   6.225   3.959   1.196
11065TIP3    H133138   6.194   4.036   1.149
11065TIP3    H233139   6.149   3.928   1.246
11066TIP3   OH233140   4.980   7.545   2.788
11066TIP3    H133141   5.002   7.553   2.881
11066TIP3    H233142   5.037   7.609   2.745
11067TIP3   OH233143   2.450   5.457   5.077
11067TIP3    H133144   2.417   5.487   4.992
11067TIP3    H233145   2.413   5.520   5.140
11068TIP3   OH233146   3.577   6.822   0.223
11068TIP3    H133147   3.660   6.834   0.270
11068TIP3    H233148   3.587   6.738   0.178
11069TIP3   OH233149   7.694   4.364   5.566
11069TIP3    H133150   7.761   4.297   5.554
11069TIP3    H233151   7.710   4.427   5.496
11070TIP3   OH233152   4.421   4.869   3.659
11070TIP3    H133153   4.438   4.963   3.649
11070TIP3    H233154   4.333   4.857   3.623
11071TIP3   OH233155   0.889   0.991   5.573
11071TIP3    H133156   0.907   0.942   5.653
11071TIP3    H233157   0.941   1.071   5.583
11072TIP3   OH233158   4.298   0.998   5.604
11072TIP3    H133159   4.232   1.042   5.549
11072TIP3    H233160   4.305   0.910   5.566
11073TIP3   OH233161   7.045   1.386   2.111
11073TIP3    H133162   7.061   1.411   2.020
11073TIP3    H233163   6.973   1.323   2.106
11074TIP3   OH233164   4.680   0.301   4.669
11074TIP3    H133165   4.710   0.246   4.741
11074TIP3    H233166   4.590   0.324   4.691
11075TIP3   OH233167   1.929   7.666   1.665
11075TIP3    H133168   1.920   7.663   1.570
11075TIP3    H233169   1.840   7.659   1.698
11076TIP3   OH233170   6.298   5.122   3.631
11076TIP3    H133171   6.265   5.210   3.645
11076TIP3    H233172   6.316   5.118   3.537
11077TIP3   OH233173   0.423   5.258   3.703
11077TIP3    H133174   0.460   5.213   3.627
11077TIP3    H233175   0.490   5.250   3.770
11078TIP3   OH233176   0.227   5.415   6.592
11078TIP3    H133177   0.221   5.428   6.498
11078TIP3    H233178   0.319   5.392   6.608
11079TIP3   OH233179   3.247   3.115   0.459
11079TIP3    H133180   3.154   3.132   0.452
11079TIP3    H233181   3.265   3.109   0.553
11080TIP3   OH233182   0.231   4.341   0.300
11080TIP3    H133183   0.247   4.430   0.268
11080TIP3    H233184   0.152   4.349   0.354
11081TIP3   OH233185   5.532   2.581   1.792
11081TIP3    H133186   5.555   2.674   1.789
11081TIP3    H233187   5.616   2.535   1.786
11082TIP3   OH233188   3.753   6.375   6.188
11082TIP3    H133189   3.752   6.306   6.122
11082TIP3    H233190   3.751   6.456   6.138
11083TIP3   OH233191   1.291   4.470   6.384
11083TIP3    H133192   1.298   4.562   6.407
11083TIP3    H233193   1.296   4.423   6.468
11084TIP3   OH233194   2.423   5.128   6.107
11084TIP3    H133195   2.407   5.132   6.013
11084TIP3    H233196   2.518   5.112   6.114
11085TIP3   OH233197   0.889   2.657   4.690
11085TIP3    H133198   0.874   2.579   4.637
11085TIP3    H233199   0.804   2.674   4.731
11086TIP3   OH233200   6.035   0.728   1.032
11086TIP3    H133201   6.064   0.730   0.940
11086TIP3    H233202   6.116   0.724   1.082
11087TIP3   OH233203   4.094   3.172   0.481
11087TIP3    H133204   4.147   3.143   0.555
11087TIP3    H233205   4.011   3.126   0.491
11088TIP3   OH233206   0.925   6.399   0.715
11088TIP3    H133207   0.882   6.483   0.698
11088TIP3    H233208   0.856   6.343   0.750
11089TIP3   OH233209   8.010   1.851   5.147
11089TIP3    H133210   8.015   1.889   5.235
11089TIP3    H233211   8.099   1.819   5.130
11090TIP3   OH233212   0.289   5.819   0.749
11090TIP3    H133213   0.286   5.808   0.845
11090TIP3    H233214   0.308   5.911   0.736
11091TIP3   OH233215   3.238   1.544   1.063
11091TIP3    H133216   3.221   1.637   1.048
11091TIP3    H233217   3.201   1.526   1.150
11092TIP3   OH233218   2.748   5.447   0.403
11092TIP3    H133219   2.698   5.457   0.322
11092TIP3    H233220   2.794   5.363   0.392
11093TIP3   OH233221   0.766   6.346   3.508
11093TIP3    H133222   0.860   6.347   3.525
11093TIP3    H233223   0.757   6.361   3.414
11094TIP3   OH233224   6.632   4.976   1.707
11094TIP3    H133225   6.602   5.066   1.694
11094TIP3    H233226   6.714   4.970   1.656
11095TIP3   OH233227   0.494   1.576   3.382
11095TIP3    H133228   0.517   1.646   3.320
11095TIP3    H233229   0.400   1.563   3.369
11096TIP3   OH233230   5.534   6.004   5.184
11096TIP3    H133231   5.441   5.992   5.207
11096TIP3    H233232   5.581   5.990   5.266
11097TIP3   OH233233   5.156   7.481   0.711
11097TIP3    H133234   5.204   7.512   0.787
11097TIP3    H233235   5.177   7.545   0.642
11098TIP3   OH233236   2.154   6.868   3.287
11098TIP3    H133237   2.136   6.912   3.204
11098TIP3    H233238   2.123   6.778   3.273
11099TIP3   OH233239   0.812   2.647   6.559
11099TIP3    H133240   0.768   2.580   6.506
11099TIP3    H233241   0.905   2.636   6.540
11100TIP3   OH233242   6.441   3.777   2.835
11100TIP3    H133243   6.369   3.743   2.783
11100TIP3    H233244   6.468   3.856   2.789
11101TIP3   OH233245   6.570   1.169   6.334
11101TIP3    H133246   6.528   1.174   6.420
11101TIP3    H233247   6.502   1.134   6.276
11102TIP3   OH233248   4.286   2.259   3.172
11102TIP3    H133249   4.284   2.316   3.249
11102TIP3    H233250   4.330   2.180   3.202
11103TIP3   OH233251   3.209   1.898   2.129
11103TIP3    H133252   3.202   1.894   2.033
11103TIP3    H233253   3.200   1.992   2.149
11104TIP3   OH233254   2.397   4.511   4.215
11104TIP3    H133255   2.330   4.562   4.261
11104TIP3    H233256   2.351   4.472   4.141
11105TIP3   OH233257   7.537   4.404   1.033
11105TIP3    H133258   7.552   4.323   1.082
11105TIP3    H233259   7.598   4.467   1.071
11106TIP3   OH233260   2.570   3.159   6.483
11106TIP3    H133261   2.547   3.069   6.463
11106TIP3    H233262   2.493   3.194   6.529
11107TIP3   OH233263   7.872   7.691   3.732
11107TIP3    H133264   7.933   7.637   3.683
11107TIP3    H233265   7.807   7.630   3.765
11108TIP3   OH233266   1.498   7.173   1.145
11108TIP3    H133267   1.445   7.230   1.089
11108TIP3    H233268   1.451   7.169   1.228
11109TIP3   OH233269   7.383   6.162   3.555
11109TIP3    H133270   7.347   6.168   3.466
11109TIP3    H233271   7.456   6.223   3.556
11110TIP3   OH233272   4.972   5.238   0.641
11110TIP3    H133273   5.012   5.259   0.557
11110TIP3    H233274   5.040   5.260   0.706
11111TIP3   OH233275   2.898   3.635   5.612
11111TIP3    H133276   2.946   3.615   5.531
11111TIP3    H233277   2.966   3.664   5.673
11112TIP3   OH233278   2.895   1.957   3.836
11112TIP3    H133279   2.835   1.939   3.763
11112TIP3    H233280   2.887   1.880   3.892
11113TIP3   OH233281   4.332   4.322   2.252
11113TIP3    H133282   4.415   4.353   2.215
11113TIP3    H233283   4.335   4.352   2.343
11114TIP3   OH233284   0.771   7.034   4.879
11114TIP3    H133285   0.749   7.105   4.939
11114TIP3    H233286   0.865   7.019   4.892
11115TIP3   OH233287   6.255   4.307   4.370
11115TIP3    H133288   6.199   4.289   4.446
11115TIP3    H233289   6.281   4.399   4.381
11116TIP3   OH233290   6.230   5.420   0.783
11116TIP3    H133291   6.204   5.398   0.872
11116TIP3    H233292   6.226   5.516   0.780
11117TIP3   OH233293   2.690   4.990   0.382
11117TIP3    H133294   2.777   4.951   0.373
11117TIP3    H233295   2.646   4.971   0.298
11118TIP3   OH233296   0.186   5.231   3.560
11118TIP3    H133297   0.121   5.278   3.613
11118TIP3    H233298   0.270   5.267   3.587
11119TIP3   OH233299   5.186   5.881   0.094
11119TIP3    H133300   5.127   5.819   0.136
11119TIP3    H233301   5.152   5.891   0.006
11120TIP3   OH233302   3.761   3.493   0.076
11120TIP3    H133303   3.817   3.415   0.085
11120TIP3    H233304   3.676   3.459   0.051
11121TIP3   OH233305   1.745   4.544   6.564
11121TIP3    H133306   1.693   4.464   6.555
11121TIP3    H233307   1.834   4.518   6.541
11122TIP3   OH233308   2.618   1.783   2.689
11122TIP3    H133309   2.542   1.820   2.645
11122TIP3    H233310   2.592   1.694   2.713
11123TIP3   OH233311   3.468   1.675   0.946
11123TIP3    H133312   3.403   1.745   0.932
11123TIP3    H233313   3.415   1.596   0.956
11124TIP3   OH233314   3.985   1.906   0.133
11124TIP3    H133315   3.898   1.898   0.171
11124TIP3    H233316   4.007   1.817   0.105
11125TIP3   OH233317   4.206   6.010   1.233
11125TIP3    H133318   4.127   5.987   1.184
11125TIP3    H233319   4.265   6.047   1.167
11126TIP3   OH233320   5.995   6.038   5.077
11126TIP3    H133321   6.076   6.017   5.124
11126TIP3    H233322   5.932   5.972   5.106
11127TIP3   OH233323   1.606   0.731   2.215
11127TIP3    H133324   1.661   0.729   2.136
11127TIP3    H233325   1.667   0.755   2.285
11128TIP3   OH233326   4.142   5.132   5.964
11128TIP3    H133327   4.079   5.061   5.953
11128TIP3    H233328   4.228   5.089   5.960
11129TIP3   OH233329   3.138   1.488   3.542
11129TIP3    H133330   3.085   1.562   3.572
11129TIP3    H233331   3.200   1.527   3.479
11130TIP3   OH233332   3.839   1.180   1.811
11130TIP3    H133333   3.890   1.232   1.750
11130TIP3    H233334   3.784   1.124   1.755
11131TIP3   OH233335   2.579   1.564   1.377
11131TIP3    H133336   2.520   1.562   1.302
11131TIP3    H233337   2.528   1.524   1.448
11132TIP3   OH233338   2.437   2.416   3.867
11132TIP3    H133339   2.379   2.413   3.791
11132TIP3    H233340   2.454   2.509   3.881
11133TIP3   OH233341   7.705   2.021   2.281
11133TIP3    H133342   7.797   2.007   2.257
11133TIP3    H233343   7.698   1.990   2.371
11134TIP3   OH233344   5.655   5.979   4.755
11134TIP3    H133345   5.651   6.061   4.804
11134TIP3    H233346   5.629   5.912   4.819
11135TIP3   OH233347   2.400   4.224   0.226
11135TIP3    H133348   2.426   4.233   0.134
11135TIP3    H233349   2.478   4.250   0.275
11136TIP3   OH233350   1.273   5.068   4.513
11136TIP3    H133351   1.317   4.991   4.548
11136TIP3    H233352   1.230   5.037   4.433
11137TIP3   OH233353   2.196   4.769   5.613
11137TIP3    H133354   2.120   4.718   5.641
11137TIP3    H233355   2.233   4.718   5.541
11138TIP3   OH233356   6.610   2.570   3.579
11138TIP3    H133357   6.673   2.625   3.626
11138TIP3    H233358   6.645   2.565   3.490
11139TIP3   OH233359   1.958   4.416   0.644
11139TIP3    H133360   2.033   4.475   0.645
11139TIP3    H233361   1.988   4.340   0.593
11140TIP3   OH233362   0.418   2.992   4.044
11140TIP3    H133363   0.392   2.999   3.953
11140TIP3    H233364   0.502   3.038   4.049
11141TIP3   OH233365   0.499   2.505   3.056
11141TIP3    H133366   0.502   2.417   3.020
11141TIP3    H233367   0.551   2.500   3.136
11142TIP3   OH233368   0.433   2.519   0.987
11142TIP3    H133369   0.383   2.473   1.055
11142TIP3    H233370   0.374   2.588   0.958
11143TIP3   OH233371   5.576   3.287   1.004
11143TIP3    H133372   5.519   3.210   1.004
11143TIP3    H233373   5.534   3.349   0.946
11144TIP3   OH233374   2.537   3.081   4.741
11144TIP3    H133375   2.572   3.081   4.830
11144TIP3    H233376   2.614   3.096   4.685
11145TIP3   OH233377   7.748   1.237   3.363
11145TIP3    H133378   7.836   1.215   3.394
11145TIP3    H233379   7.757   1.242   3.268
11146TIP3   OH233380   3.318   6.228   4.793
11146TIP3    H133381   3.297   6.285   4.866
11146TIP3    H233382   3.311   6.139   4.829
11147TIP3   OH233383   5.134   4.323   5.217
11147TIP3    H133384   5.175   4.237   5.221
11147TIP3    H233385   5.208   4.384   5.214
11148TIP3   OH233386   3.284   4.876   3.502
11148TIP3    H133387   3.325   4.954   3.539
11148TIP3    H233388   3.238   4.836   3.575
11149TIP3   OH233389   5.132   2.802   4.999
11149TIP3    H133390   5.223   2.781   4.977
11149TIP3    H233391   5.124   2.895   4.980
11150TIP3   OH233392   1.087   6.276   1.665
11150TIP3    H133393   1.007   6.315   1.698
11150TIP3    H233394   1.138   6.349   1.630
11151TIP3   OH233395   7.281   6.458   2.638
11151TIP3    H133396   7.340   6.420   2.572
11151TIP3    H233397   7.338   6.480   2.711
11152TIP3   OH233398   4.950   5.463   6.064
11152TIP3    H133399   4.966   5.444   5.972
11152TIP3    H233400   5.035   5.490   6.098
11153TIP3   OH233401   7.661   2.531   2.865
11153TIP3    H133402   7.681   2.488   2.947
11153TIP3    H233403   7.624   2.616   2.891
11154TIP3   OH233404   4.157   0.267   4.336
11154TIP3    H133405   4.105   0.261   4.256
11154TIP3    H233406   4.110   0.330   4.390
11155TIP3   OH233407   0.798   5.626   3.243
11155TIP3    H133408   0.705   5.649   3.250
11155TIP3    H233409   0.823   5.598   3.331
11156TIP3   OH233410   5.438   4.856   1.088
11156TIP3    H133411   5.530   4.842   1.108
11156TIP3    H233412   5.400   4.768   1.086
11157TIP3   OH233413   2.280   7.344   1.985
11157TIP3    H133414   2.245   7.291   1.913
11157TIP3    H233415   2.329   7.414   1.941
11158TIP3   OH233416   7.756   6.610   0.746
11158TIP3    H133417   7.774   6.701   0.770
11158TIP3    H233418   7.797   6.599   0.660
11159TIP3   OH233419   0.729   6.605   2.996
11159TIP3    H133420   0.722   6.663   2.920
11159TIP3    H233421   0.676   6.528   2.972
11160TIP3   OH233422   0.749   4.631   3.237
11160TIP3    H133423   0.658   4.600   3.239
11160TIP3    H233424   0.791   4.584   3.310
11161TIP3   OH233425   2.898   3.946   4.321
11161TIP3    H133426   2.887   3.852   4.331
11161TIP3    H233427   2.992   3.960   4.332
11162TIP3   OH233428   3.700   3.685   5.837
11162TIP3    H133429   3.633   3.752   5.846
11162TIP3    H233430   3.670   3.613   5.893
11163TIP3   OH233431   0.983   2.981   2.853
11163TIP3    H133432   0.965   3.050   2.789
11163TIP3    H233433   1.036   3.023   2.920
11164TIP3   OH233434   2.801   3.606   1.119
11164TIP3    H133435   2.744   3.606   1.043
11164TIP3    H233436   2.878   3.656   1.092
11165TIP3   OH233437   0.315   5.998   3.341
11165TIP3    H133438   0.382   6.064   3.321
11165TIP3    H233439   0.246   6.014   3.276
11166TIP3   OH233440   2.436   5.605   3.435
11166TIP3    H133441   2.516   5.599   3.486
11166TIP3    H233442   2.369   5.563   3.489
11167TIP3   OH233443   4.140   0.355   1.084
11167TIP3    H133444   4.232   0.361   1.110
11167TIP3    H233445   4.110   0.445   1.084
11168TIP3   OH233446   5.747   3.675   0.258
11168TIP3    H133447   5.712   3.701   0.173
11168TIP3    H233448   5.709   3.738   0.319
11169TIP3   OH233449   5.374   1.133   1.333
11169TIP3    H133450   5.389   1.052   1.283
11169TIP3    H233451   5.311   1.108   1.401
11170TIP3   OH233452   0.689   7.320   2.342
11170TIP3    H133453   0.657   7.279   2.261
11170TIP3    H233454   0.611   7.328   2.397
11171TIP3   OH233455   3.794   5.150   1.044
11171TIP3    H133456   3.841   5.074   1.009
11171TIP3    H233457   3.732   5.174   0.976
11172TIP3   OH233458   2.037   7.461   1.241
11172TIP3    H133459   2.044   7.498   1.328
11172TIP3    H233460   1.966   7.510   1.199
11173TIP3   OH233461   3.914   0.691   3.777
11173TIP3    H133462   3.967   0.636   3.720
11173TIP3    H233463   3.875   0.756   3.718
11174TIP3   OH233464   7.129   2.853   3.932
11174TIP3    H133465   7.148   2.790   3.863
11174TIP3    H233466   7.117   2.936   3.887
11175TIP3   OH233467   2.192   6.181   5.182
11175TIP3    H133468   2.238   6.123   5.122
11175TIP3    H233469   2.207   6.142   5.268
11176TIP3   OH233470   7.459   5.708   2.084
11176TIP3    H133471   7.545   5.668   2.073
11176TIP3    H233472   7.400   5.633   2.098
11177TIP3   OH233473   3.048   3.708   1.061
11177TIP3    H133474   3.137   3.732   1.033
11177TIP3    H233475   3.060   3.678   1.151
11178TIP3   OH233476   0.196   4.618   1.249
11178TIP3    H133477   0.185   4.538   1.197
11178TIP3    H233478   0.153   4.598   1.332
11179TIP3   OH233479   4.702   0.071   6.431
11179TIP3    H133480   4.703   0.132   6.505
11179TIP3    H233481   4.699  -0.016   6.470
11180TIP3   OH233482   0.395   3.693   2.954
11180TIP3    H133483   0.435   3.763   3.005
11180TIP3    H233484   0.467   3.653   2.907
11181TIP3   OH233485   3.216   6.859   3.403
11181TIP3    H133486   3.263   6.776   3.403
11181TIP3    H233487   3.125   6.835   3.417
11182TIP3   OH233488   5.478   5.157   4.331
11182TIP3    H133489   5.564   5.197   4.332
11182TIP3    H233490   5.483   5.087   4.397
11183TIP3   OH233491   2.323   1.652   6.640
11183TIP3    H133492   2.383   1.720   6.609
11183TIP3    H233493   2.248   1.658   6.580
11184TIP3   OH233494   2.471   7.190   0.628
11184TIP3    H133495   2.404   7.153   0.685
11184TIP3    H233496   2.540   7.219   0.688
11185TIP3   OH233497   4.646   5.284   2.511
11185TIP3    H133498   4.707   5.291   2.438
11185TIP3    H233499   4.573   5.340   2.487
11186TIP3   OH233500   5.798   3.728   1.306
11186TIP3    H133501   5.721   3.722   1.249
11186TIP3    H233502   5.843   3.645   1.293
11187TIP3   OH233503   5.385   6.131   6.243
11187TIP3    H133504   5.358   6.074   6.171
11187TIP3    H233505   5.386   6.074   6.320
11188TIP3   OH233506   3.686   5.706   1.841
11188TIP3    H133507   3.704   5.685   1.750
11188TIP3    H233508   3.649   5.794   1.839
11189TIP3   OH233509   1.192   5.548   4.860
11189TIP3    H133510   1.179   5.641   4.876
11189TIP3    H233511   1.240   5.517   4.937
11190TIP3   OH233512   6.036   7.757   1.588
11190TIP3    H133513   5.988   7.682   1.622
11190TIP3    H233514   6.127   7.741   1.613
11191TIP3   OH233515   3.574   6.347   3.864
11191TIP3    H133516   3.611   6.413   3.922
11191TIP3    H233517   3.648   6.290   3.841
11192TIP3   OH233518   1.689   0.999   6.142
11192TIP3    H133519   1.603   1.008   6.183
11192TIP3    H233520   1.751   1.013   6.214
11193TIP3   OH233521   2.004   6.528   2.999
11193TIP3    H133522   1.975   6.593   2.936
11193TIP3    H233523   1.934   6.463   3.001
11194TIP3   OH233524   1.058   1.400   2.750
11194TIP3    H133525   1.083   1.470   2.689
11194TIP3    H233526   0.977   1.364   2.713
11195TIP3   OH233527   7.436   2.419   0.461
11195TIP3    H133528   7.422   2.351   0.395
11195TIP3    H233529   7.357   2.416   0.515
11196TIP3   OH233530   6.373   5.505   1.742
11196TIP3    H133531   6.442   5.551   1.695
11196TIP3    H233532   6.352   5.563   1.816
11197TIP3   OH233533   7.020   3.749   0.395
11197TIP3    H133534   7.054   3.693   0.464
11197TIP3    H233535   7.070   3.830   0.404
11198TIP3   OH233536   6.284   4.680   1.276
11198TIP3    H133537   6.339   4.735   1.221
11198TIP3    H233538   6.339   4.657   1.351
11199TIP3   OH233539   7.931   0.489   4.425
11199TIP3    H133540   7.883   0.568   4.401
11199TIP3    H233541   7.905   0.471   4.515
11200TIP3   OH233542   1.320   7.581   0.246
11200TIP3    H133543   1.356   7.644   0.310
11200TIP3    H233544   1.315   7.631   0.164
11201TIP3   OH233545   4.498   6.808   0.563
11201TIP3    H133546   4.534   6.894   0.587
11201TIP3    H233547   4.571   6.748   0.575
11202TIP3   OH233548   7.556   7.231   6.159
11202TIP3    H133549   7.566   7.219   6.064
11202TIP3    H233550   7.644   7.250   6.190
11203TIP3   OH233551   4.072   2.414   5.337
11203TIP3    H133552   3.988   2.459   5.336
11203TIP3    H233553   4.136   2.482   5.356
11204TIP3   OH233554   5.432   4.554   3.885
11204TIP3    H133555   5.511   4.533   3.836
11204TIP3    H233556   5.375   4.478   3.873
11205TIP3   OH233557   3.968   1.323   1.171
11205TIP3    H133558   3.883   1.311   1.214
11205TIP3    H233559   3.953   1.392   1.107
11206TIP3   OH233560   0.016   4.724   5.663
11206TIP3    H133561   0.052   4.692   5.580
11206TIP3    H233562   0.049   4.662   5.728
11207TIP3   OH233563   6.638   3.789   5.061
11207TIP3    H133564   6.728   3.820   5.052
11207TIP3    H233565   6.610   3.769   4.972
11208TIP3   OH233566   1.636   6.161   0.666
11208TIP3    H133567   1.656   6.109   0.588
11208TIP3    H233568   1.564   6.218   0.640
11209TIP3   OH233569   3.430   4.853   4.255
11209TIP3    H133570   3.347   4.829   4.213
11209TIP3    H233571   3.452   4.938   4.217
11210TIP3   OH233572   7.322   6.453   6.746
11210TIP3    H133573   7.227   6.437   6.747
11210TIP3    H233574   7.361   6.369   6.770
11211TIP3   OH233575   0.910   6.202   2.188
11211TIP3    H133576   0.946   6.198   2.099
11211TIP3    H233577   0.980   6.165   2.243
11212TIP3   OH233578   5.940   5.585   0.654
11212TIP3    H133579   5.951   5.540   0.738
11212TIP3    H233580   5.913   5.517   0.593
11213TIP3   OH233581   2.109   6.848   4.130
11213TIP3    H133582   2.187   6.890   4.093
11213TIP3    H233583   2.090   6.776   4.070
11214TIP3   OH233584   4.703   0.400   4.055
11214TIP3    H133585   4.678   0.325   4.002
11214TIP3    H233586   4.620   0.434   4.090
11215TIP3   OH233587   4.223   5.816   3.183
11215TIP3    H133588   4.144   5.856   3.146
11215TIP3    H233589   4.259   5.763   3.112
11216TIP3   OH233590   5.972   1.654   0.810
11216TIP3    H133591   5.949   1.733   0.761
11216TIP3    H233592   6.027   1.603   0.750
11217TIP3   OH233593   4.642   3.747   4.819
11217TIP3    H133594   4.547   3.756   4.810
11217TIP3    H233595   4.658   3.652   4.813
11218TIP3   OH233596   7.213   7.291   1.229
11218TIP3    H133597   7.227   7.380   1.195
11218TIP3    H233598   7.224   7.299   1.323
11219TIP3   OH233599   4.098   5.395   5.892
11219TIP3    H133600   4.094   5.303   5.920
11219TIP3    H233601   4.158   5.393   5.817
11220TIP3   OH233602   4.730   3.154   5.760
11220TIP3    H133603   4.768   3.141   5.673
11220TIP3    H233604   4.643   3.117   5.754
11221TIP3   OH233605   8.082   2.058   4.410
11221TIP3    H133606   8.143   1.984   4.418
11221TIP3    H233607   8.018   2.029   4.345
11222TIP3   OH233608   1.382   4.317   4.749
11222TIP3    H133609   1.418   4.364   4.674
11222TIP3    H233610   1.288   4.316   4.734
11223TIP3   OH233611   7.047   2.309   6.181
11223TIP3    H133612   7.085   2.341   6.262
11223TIP3    H233613   7.055   2.214   6.186
11224TIP3   OH233614   3.621   5.169   6.467
11224TIP3    H133615   3.677   5.230   6.419
11224TIP3    H233616   3.580   5.222   6.535
11225TIP3   OH233617   2.337   4.621   5.432
11225TIP3    H133618   2.388   4.614   5.351
11225TIP3    H233619   2.268   4.555   5.422
11226TIP3   OH233620   3.277   2.398   5.389
11226TIP3    H133621   3.309   2.308   5.384
11226TIP3    H233622   3.194   2.391   5.438
11227TIP3   OH233623   6.326   5.524   3.248
11227TIP3    H133624   6.421   5.536   3.244
11227TIP3    H233625   6.304   5.538   3.340
11228TIP3   OH233626   6.938   4.983   0.485
11228TIP3    H133627   6.968   4.984   0.394
11228TIP3    H233628   6.860   4.927   0.484
11229TIP3   OH233629   6.182   2.917   2.183
11229TIP3    H133630   6.246   2.919   2.254
11229TIP3    H233631   6.212   2.846   2.126
11230TIP3   OH233632   4.664   6.943   2.969
11230TIP3    H133633   4.725   6.969   2.900
11230TIP3    H233634   4.582   6.986   2.947
11231TIP3   OH233635   1.938   6.785   0.439
11231TIP3    H133636   2.018   6.824   0.404
11231TIP3    H233637   1.937   6.696   0.404
11232TIP3   OH233638   1.290   5.434   6.771
11232TIP3    H133639   1.317   5.405   6.684
11232TIP3    H233640   1.326   5.368   6.831
11233TIP3   OH233641   1.136   5.211   4.702
11233TIP3    H133642   1.183   5.170   4.630
11233TIP3    H233643   1.096   5.289   4.663
11234TIP3   OH233644   1.037   5.499   1.136
11234TIP3    H133645   0.952   5.526   1.171
11234TIP3    H233646   1.097   5.506   1.210
11235TIP3   OH233647   0.069   5.850   5.594
11235TIP3    H133648  -0.004   5.911   5.604
11235TIP3    H233649   0.073   5.803   5.677
11236TIP3   OH233650   3.333   4.524   5.984
11236TIP3    H133651   3.411   4.548   6.035
11236TIP3    H233652   3.266   4.587   6.013
11237TIP3   OH233653   3.347   7.621   3.710
11237TIP3    H133654   3.384   7.672   3.637
11237TIP3    H233655   3.355   7.679   3.786
11238TIP3   OH233656   6.721   5.632   5.844
11238TIP3    H133657   6.788   5.607   5.908
11238TIP3    H233658   6.740   5.723   5.824
11239TIP3   OH233659   1.587   1.639   0.995
11239TIP3    H133660   1.681   1.644   1.010
11239TIP3    H233661   1.550   1.707   1.052
11240TIP3   OH233662   1.605   0.568   3.151
11240TIP3    H133663   1.605   0.613   3.235
11240TIP3    H233664   1.614   0.476   3.173
11241TIP3   OH233665   7.075   0.128   0.520
11241TIP3    H133666   7.008   0.187   0.551
11241TIP3    H233667   7.053   0.112   0.428
11242TIP3   OH233668   6.592   7.153   1.330
11242TIP3    H133669   6.599   7.062   1.300
11242TIP3    H233670   6.679   7.190   1.313
11243TIP3   OH233671   5.558   3.212   2.808
11243TIP3    H133672   5.544   3.158   2.885
11243TIP3    H233673   5.470   3.242   2.783
11244TIP3   OH233674   4.357   0.104   2.359
11244TIP3    H133675   4.342   0.040   2.288
11244TIP3    H233676   4.451   0.099   2.376
11245TIP3   OH233677   2.399   4.488   1.344
11245TIP3    H133678   2.489   4.518   1.330
11245TIP3    H233679   2.345   4.566   1.329
11246TIP3   OH233680   4.979   1.482   1.685
11246TIP3    H133681   4.936   1.437   1.612
11246TIP3    H233682   4.946   1.437   1.763
11247TIP3   OH233683   4.463   0.566   1.790
11247TIP3    H133684   4.465   0.523   1.876
11247TIP3    H233685   4.449   0.494   1.728
11248TIP3   OH233686   1.363   4.816   5.589
11248TIP3    H133687   1.368   4.793   5.496
11248TIP3    H233688   1.273   4.793   5.614
11249TIP3   OH233689   2.482   6.442   4.613
11249TIP3    H133690   2.482   6.433   4.708
11249TIP3    H233691   2.535   6.368   4.582
11250TIP3   OH233692   6.731   0.959   5.089
11250TIP3    H133693   6.818   0.937   5.121
11250TIP3    H233694   6.671   0.919   5.152
11251TIP3   OH233695   5.068   7.638   5.352
11251TIP3    H133696   5.092   7.596   5.434
11251TIP3    H233697   5.062   7.731   5.374
11252TIP3   OH233698   5.301   3.676   0.932
11252TIP3    H133699   5.366   3.612   0.903
11252TIP3    H233700   5.343   3.761   0.916
11253TIP3   OH233701   1.538   7.085   4.819
11253TIP3    H133702   1.577   7.096   4.732
11253TIP3    H233703   1.528   6.990   4.829
11254TIP3   OH233704   3.055   5.576   3.283
11254TIP3    H133705   3.109   5.500   3.307
11254TIP3    H233706   3.077   5.642   3.348
11255TIP3   OH233707   7.771   6.213   3.549
11255TIP3    H133708   7.796   6.150   3.616
11255TIP3    H233709   7.685   6.184   3.520
11256TIP3   OH233710   2.664   2.333   3.205
11256TIP3    H133711   2.594   2.342   3.269
11256TIP3    H233712   2.652   2.407   3.145
11257TIP3   OH233713   0.454   6.844   1.378
11257TIP3    H133714   0.402   6.858   1.299
11257TIP3    H233715   0.412   6.769   1.421
11258TIP3   OH233716   1.184   1.469   1.025
11258TIP3    H133717   1.092   1.474   1.000
11258TIP3    H233718   1.211   1.560   1.038
11259TIP3   OH233719   0.160   0.964   2.239
11259TIP3    H133720   0.120   1.047   2.212
11259TIP3    H233721   0.197   0.982   2.326
11260TIP3   OH233722   5.311   4.308   2.510
11260TIP3    H133723   5.361   4.355   2.576
11260TIP3    H233724   5.230   4.283   2.555
11261TIP3   OH233725   1.782   2.244   6.230
11261TIP3    H133726   1.858   2.234   6.172
11261TIP3    H233727   1.809   2.205   6.313
11262TIP3   OH233728   0.724   1.699   5.629
11262TIP3    H133729   0.673   1.697   5.710
11262TIP3    H233730   0.805   1.743   5.653
11263TIP3   OH233731   3.403   4.862   2.795
11263TIP3    H133732   3.341   4.934   2.784
11263TIP3    H233733   3.383   4.803   2.722
11264TIP3   OH233734   3.748   2.701   4.204
11264TIP3    H133735   3.833   2.714   4.163
11264TIP3    H233736   3.685   2.710   4.132
11265TIP3   OH233737   5.794   5.608   3.558
11265TIP3    H133738   5.723   5.550   3.531
11265TIP3    H233739   5.873   5.568   3.523
11266TIP3   OH233740   0.200   0.156   4.986
11266TIP3    H133741   0.280   0.186   4.943
11266TIP3    H233742   0.230   0.107   5.062
11267TIP3   OH233743   3.419   6.527   1.312
11267TIP3    H133744   3.331   6.562   1.327
11267TIP3    H233745   3.477   6.596   1.343
11268TIP3   OH233746   7.774   4.307   5.116
11268TIP3    H133747   7.851   4.302   5.172
11268TIP3    H233748   7.711   4.358   5.166
11269TIP3   OH233749   5.265   0.502   1.671
11269TIP3    H133750   5.173   0.491   1.648
11269TIP3    H233751   5.268   0.493   1.766
11270TIP3   OH233752   7.793   2.946   0.447
11270TIP3    H133753   7.858   2.978   0.510
11270TIP3    H233754   7.822   2.857   0.427
11271TIP3   OH233755   2.211   6.829   1.958
11271TIP3    H133756   2.195   6.794   1.871
11271TIP3    H233757   2.173   6.917   1.956
11272TIP3   OH233758   0.972   5.275   3.515
11272TIP3    H133759   0.907   5.317   3.572
11272TIP3    H233760   0.928   5.270   3.430
11273TIP3   OH233761   5.922   7.269   4.196
11273TIP3    H133762   6.006   7.308   4.224
11273TIP3    H233763   5.910   7.302   4.107
11274TIP3   OH233764   6.691   5.586   1.904
11274TIP3    H133765   6.758   5.542   1.957
11274TIP3    H233766   6.729   5.671   1.884
11275TIP3   OH233767   6.045   7.406   5.418
11275TIP3    H133768   6.126   7.454   5.403
11275TIP3    H233769   6.073   7.319   5.445
11276TIP3   OH233770   0.995   6.813   3.008
11276TIP3    H133771   0.969   6.726   2.977
11276TIP3    H233772   1.089   6.818   2.990
11277TIP3   OH233773   4.290   2.508   0.653
11277TIP3    H133774   4.218   2.449   0.633
11277TIP3    H233775   4.248   2.589   0.681
11278TIP3   OH233776   8.120   7.602   1.179
11278TIP3    H133777   8.112   7.667   1.109
11278TIP3    H233778   8.116   7.653   1.260
11279TIP3   OH233779   4.033   7.600   3.622
11279TIP3    H133780   3.950   7.554   3.607
11279TIP3    H233781   4.043   7.602   3.717
11280TIP3   OH233782   2.007   5.497   4.474
11280TIP3    H133783   2.019   5.423   4.533
11280TIP3    H233784   2.070   5.482   4.403
11281TIP3   OH233785   1.142   0.724   2.990
11281TIP3    H133786   1.079   0.793   3.011
11281TIP3    H233787   1.222   0.771   2.968
11282TIP3   OH233788   3.625   5.013   1.600
11282TIP3    H133789   3.634   5.063   1.519
11282TIP3    H233790   3.714   5.000   1.631
11283TIP3   OH233791   5.557   4.772   5.766
11283TIP3    H133792   5.542   4.835   5.696
11283TIP3    H233793   5.529   4.688   5.730
11284TIP3   OH233794   4.176   7.407   4.995
11284TIP3    H133795   4.159   7.377   5.084
11284TIP3    H233796   4.255   7.461   5.003
11285TIP3   OH233797   0.739   2.831   1.979
11285TIP3    H133798   0.746   2.748   1.932
11285TIP3    H233799   0.702   2.891   1.915
11286TIP3   OH233800   7.323   6.259   5.781
11286TIP3    H133801   7.362   6.241   5.867
11286TIP3    H233802   7.377   6.328   5.744
11287TIP3   OH233803   5.394   3.434   3.105
11287TIP3    H133804   5.398   3.468   3.194
11287TIP3    H233805   5.433   3.347   3.111
11288TIP3   OH233806   8.166   3.005   5.294
11288TIP3    H133807   8.178   2.916   5.328
11288TIP3    H233808   8.094   3.040   5.346
11289TIP3   OH233809   7.532   4.344   5.963
11289TIP3    H133810   7.556   4.434   5.985
11289TIP3    H233811   7.507   4.304   6.046
11290TIP3   OH233812   3.794   7.464   3.634
11290TIP3    H133813   3.706   7.501   3.626
11290TIP3    H233814   3.784   7.389   3.692
11291TIP3   OH233815   4.745   4.189   4.916
11291TIP3    H133816   4.779   4.141   4.841
11291TIP3    H233817   4.737   4.123   4.985
11292TIP3   OH233818   7.840   2.291   1.627
11292TIP3    H133819   7.921   2.254   1.591
11292TIP3    H233820   7.866   2.330   1.710
11293TIP3   OH233821   5.660   1.390   3.501
11293TIP3    H133822   5.665   1.438   3.418
11293TIP3    H233823   5.572   1.353   3.502
11294TIP3   OH233824   7.074   6.034   6.226
11294TIP3    H133825   7.133   6.068   6.294
11294TIP3    H233826   7.128   5.974   6.174
11295TIP3   OH233827   7.117   0.475   0.794
11295TIP3    H133828   7.090   0.486   0.885
11295TIP3    H233829   7.194   0.418   0.799
11296TIP3   OH233830   5.272   1.550   4.763
11296TIP3    H133831   5.351   1.602   4.780
11296TIP3    H233832   5.305   1.467   4.728
11297TIP3   OH233833   7.696   5.263   6.638
11297TIP3    H133834   7.725   5.277   6.728
11297TIP3    H233835   7.761   5.204   6.600
11298TIP3   OH233836   6.383   3.748   5.674
11298TIP3    H133837   6.479   3.744   5.676
11298TIP3    H233838   6.363   3.809   5.603
11299TIP3   OH233839   7.310   0.656   5.678
11299TIP3    H133840   7.337   0.687   5.765
11299TIP3    H233841   7.332   0.563   5.677
11300TIP3   OH233842   4.480   5.201   0.268
11300TIP3    H133843   4.575   5.213   0.280
11300TIP3    H233844   4.445   5.290   0.270
11301TIP3   OH233845   0.025   1.511   0.772
11301TIP3    H133846   0.001   1.604   0.763
11301TIP3    H233847   0.064   1.488   0.688
11302TIP3   OH233848  -0.008   2.103   5.231
11302TIP3    H133849  -0.083   2.163   5.231
11302TIP3    H233850   0.056   2.145   5.174
11303TIP3   OH233851   4.368   7.347   1.264
11303TIP3    H133852   4.437   7.397   1.307
11303TIP3    H233853   4.412   7.301   1.192
11304TIP3   OH233854   3.349   5.446   5.481
11304TIP3    H133855   3.406   5.433   5.557
11304TIP3    H233856   3.357   5.365   5.430
11305TIP3   OH233857   5.239   4.445   5.548
11305TIP3    H133858   5.296   4.400   5.486
11305TIP3    H233859   5.150   4.420   5.522
11306TIP3   OH233860   2.943   4.714   3.798
11306TIP3    H133861   2.955   4.794   3.746
11306TIP3    H233862   3.031   4.677   3.806
11307TIP3   OH233863   3.103   6.951   2.456
11307TIP3    H133864   3.102   6.858   2.435
11307TIP3    H233865   3.177   6.961   2.516
11308TIP3   OH233866   0.301   2.318   6.154
11308TIP3    H133867   0.373   2.379   6.168
11308TIP3    H233868   0.224   2.374   6.146
11309TIP3   OH233869   0.255   6.821   5.157
11309TIP3    H133870   0.170   6.860   5.177
11309TIP3    H233871   0.272   6.761   5.230
11310TIP3   OH233872   0.747   3.510   3.665
11310TIP3    H133873   0.798   3.449   3.718
11310TIP3    H233874   0.675   3.538   3.722
11311TIP3   OH233875   3.497   5.211   5.607
11311TIP3    H133876   3.450   5.133   5.577
11311TIP3    H233877   3.458   5.230   5.693
11312TIP3   OH233878   5.504   6.628   5.869
11312TIP3    H133879   5.544   6.603   5.786
11312TIP3    H233880   5.415   6.656   5.846
11313TIP3   OH233881   2.192   1.703   0.330
11313TIP3    H133882   2.110   1.722   0.375
11313TIP3    H233883   2.260   1.724   0.393
11314TIP3   OH233884   6.475   7.329   5.832
11314TIP3    H133885   6.403   7.272   5.858
11314TIP3    H233886   6.550   7.270   5.823
11315TIP3   OH233887   7.027   3.317   5.490
11315TIP3    H133888   7.008   3.407   5.461
11315TIP3    H233889   7.065   3.274   5.413
11316TIP3   OH233890   7.062   3.389   6.628
11316TIP3    H133891   6.983   3.436   6.654
11316TIP3    H233892   7.053   3.302   6.667
11317TIP3   OH233893   3.423   3.973   4.198
11317TIP3    H133894   3.485   3.901   4.195
11317TIP3    H233895   3.465   4.044   4.149
11318TIP3   OH233896   5.426   5.338   0.688
11318TIP3    H133897   5.479   5.398   0.741
11318TIP3    H233898   5.487   5.307   0.621
11319TIP3   OH233899   2.914   6.871   3.166
11319TIP3    H133900   2.865   6.867   3.248
11319TIP3    H233901   2.913   6.782   3.133
11320TIP3   OH233902   4.547   0.812   3.004
11320TIP3    H133903   4.467   0.838   2.959
11320TIP3    H233904   4.605   0.887   2.995
11321TIP3   OH233905   6.354   6.522   6.035
11321TIP3    H133906   6.316   6.496   6.119
11321TIP3    H233907   6.306   6.600   6.010
11322TIP3   OH233908   3.850   1.260   2.655
11322TIP3    H133909   3.829   1.280   2.746
11322TIP3    H233910   3.946   1.260   2.651
11323TIP3   OH233911   7.101   5.386   3.098
11323TIP3    H133912   7.083   5.312   3.039
11323TIP3    H233913   7.017   5.405   3.140
11324TIP3   OH233914   1.614   5.497   6.100
11324TIP3    H133915   1.705   5.517   6.078
11324TIP3    H233916   1.604   5.404   6.076
11325TIP3   OH233917   8.025   6.775   1.075
11325TIP3    H133918   8.005   6.696   1.026
11325TIP3    H233919   7.940   6.816   1.092
11326TIP3   OH233920   3.189   1.791   4.131
11326TIP3    H133921   3.125   1.808   4.200
11326TIP3    H233922   3.270   1.771   4.177
11327TIP3   OH233923   8.188   1.548   5.357
11327TIP3    H133924   8.123   1.548   5.287
11327TIP3    H233925   8.140   1.577   5.435
11328TIP3   OH233926   3.107   7.136   2.240
11328TIP3    H133927   3.093   7.060   2.297
11328TIP3    H233928   3.053   7.119   2.163
11329TIP3   OH233929   5.934   2.500   4.845
11329TIP3    H133930   6.001   2.486   4.912
11329TIP3    H233931   5.897   2.413   4.830
11330TIP3   OH233932   2.915   5.682   2.652
11330TIP3    H133933   2.823   5.709   2.661
11330TIP3    H233934   2.911   5.593   2.617
11331TIP3   OH233935   4.290   6.235   2.476
11331TIP3    H133936   4.351   6.276   2.415
11331TIP3    H233937   4.203   6.251   2.437
11332TIP3   OH233938   2.650   1.606   6.280
11332TIP3    H133939   2.645   1.519   6.242
11332TIP3    H233940   2.743   1.618   6.302
11333TIP3   OH233941   6.090   0.398   0.887
11333TIP3    H133942   6.096   0.415   0.793
11333TIP3    H233943   6.002   0.428   0.911
11334TIP3   OH233944   3.053   4.153   6.500
11334TIP3    H133945   3.097   4.129   6.418
11334TIP3    H233946   3.088   4.239   6.521
11335TIP3   OH233947   6.178   2.876   0.319
11335TIP3    H133948   6.092   2.891   0.278
11335TIP3    H233949   6.194   2.955   0.370
11336TIP3   OH233950   4.997   3.325   0.931
11336TIP3    H133951   5.015   3.277   1.012
11336TIP3    H233952   4.943   3.265   0.879
11337TIP3   OH233953   3.429   2.256   4.469
11337TIP3    H133954   3.368   2.186   4.448
11337TIP3    H233955   3.516   2.215   4.465
11338TIP3   OH233956   5.832   4.907   5.111
11338TIP3    H133957   5.815   4.878   5.200
11338TIP3    H233958   5.818   5.002   5.114
11339TIP3   OH233959   0.106   3.695   0.722
11339TIP3    H133960   0.135   3.632   0.656
11339TIP3    H233961   0.015   3.671   0.740
11340TIP3   OH233962   4.708   3.308   1.646
11340TIP3    H133963   4.613   3.320   1.648
11340TIP3    H233964   4.730   3.315   1.553
11341TIP3   OH233965   3.909   2.513   3.797
11341TIP3    H133966   3.931   2.427   3.762
11341TIP3    H233967   3.814   2.521   3.783
11342TIP3   OH233968   4.059   4.190   3.224
11342TIP3    H133969   4.038   4.224   3.137
11342TIP3    H233970   4.111   4.260   3.265
11343TIP3   OH233971   4.052   1.194   0.920
11343TIP3    H133972   4.117   1.259   0.896
11343TIP3    H233973   3.970   1.243   0.931
11344TIP3   OH233974   6.425   2.040   3.862
11344TIP3    H133975   6.506   2.091   3.869
11344TIP3    H233976   6.448   1.953   3.895
11345TIP3   OH233977   5.367   4.191   5.682
11345TIP3    H133978   5.448   4.141   5.694
11345TIP3    H233979   5.368   4.216   5.589
11346TIP3   OH233980   3.679   5.499   6.764
11346TIP3    H133981   3.590   5.532   6.758
11346TIP3    H233982   3.690   5.443   6.687
11347TIP3   OH233983   0.965   1.421   6.702
11347TIP3    H133984   0.988   1.509   6.732
11347TIP3    H233985   0.879   1.432   6.661
11348TIP3   OH233986   5.153   5.916   0.588
11348TIP3    H133987   5.084   5.981   0.606
11348TIP3    H233988   5.225   5.968   0.553
11349TIP3   OH233989   3.820   3.478   0.764
11349TIP3    H133990   3.897   3.459   0.710
11349TIP3    H233991   3.780   3.555   0.722
11350TIP3   OH233992   0.905   3.434   4.413
11350TIP3    H133993   0.862   3.375   4.474
11350TIP3    H233994   0.998   3.426   4.432
11351TIP3   OH233995   3.789   5.008   2.061
11351TIP3    H133996   3.714   5.062   2.034
11351TIP3    H233997   3.761   4.967   2.143
11352TIP3   OH233998   5.378   7.627   4.631
11352TIP3    H133999   5.471   7.648   4.625
11352TIP3    H234000   5.354   7.654   4.720
11353TIP3   OH234001   7.226   2.880   0.730
11353TIP3    H134002   7.222   2.960   0.678
11353TIP3    H234003   7.267   2.907   0.813
11354TIP3   OH234004   2.533   1.525   2.620
11354TIP3    H134005   2.481   1.508   2.541
11354TIP3    H234006   2.540   1.439   2.663
11355TIP3   OH234007   5.102   1.438   0.483
11355TIP3    H134008   5.166   1.411   0.549
11355TIP3    H234009   5.138   1.407   0.400
11356TIP3   OH234010   5.259   5.773   1.421
11356TIP3    H134011   5.266   5.680   1.442
11356TIP3    H234012   5.171   5.783   1.385
11357TIP3   OH234013   1.638   1.320   5.931
11357TIP3    H134014   1.683   1.236   5.928
11357TIP3    H234015   1.689   1.377   5.873
11358TIP3   OH234016   4.990   1.463   5.840
11358TIP3    H134017   4.897   1.472   5.861
11358TIP3    H234018   4.995   1.468   5.745
11359TIP3   OH234019   3.239   0.602   0.392
11359TIP3    H134020   3.330   0.621   0.415
11359TIP3    H234021   3.202   0.561   0.470
11360TIP3   OH234022   7.430   3.815   4.860
11360TIP3    H134023   7.502   3.857   4.813
11360TIP3    H234024   7.372   3.886   4.885
11361TIP3   OH234025   5.626   4.828   6.515
11361TIP3    H134026   5.586   4.883   6.583
11361TIP3    H234027   5.578   4.745   6.521
11362TIP3   OH234028   5.579   4.373   2.389
11362TIP3    H134029   5.559   4.402   2.478
11362TIP3    H234030   5.553   4.446   2.333
11363TIP3   OH234031   3.197   2.816   4.843
11363TIP3    H134032   3.124   2.875   4.858
11363TIP3    H234033   3.233   2.799   4.930
11364TIP3   OH234034   2.369   6.864   2.203
11364TIP3    H134035   2.318   6.820   2.135
11364TIP3    H234036   2.441   6.803   2.221
11365TIP3   OH234037   4.584   3.815   0.749
11365TIP3    H134038   4.675   3.792   0.729
11365TIP3    H234039   4.567   3.894   0.698
11366TIP3   OH234040   2.232   1.255   2.166
11366TIP3    H134041   2.146   1.215   2.160
11366TIP3    H234042   2.262   1.234   2.255
11367TIP3   OH234043   6.958   7.682   3.913
11367TIP3    H134044   7.052   7.702   3.914
11367TIP3    H234045   6.924   7.731   3.838
11368TIP3   OH234046   4.654   0.451   5.849
11368TIP3    H134047   4.717   0.391   5.890
11368TIP3    H234048   4.568   0.419   5.878
11369TIP3   OH234049   4.010   1.508   6.369
11369TIP3    H134050   4.104   1.511   6.387
11369TIP3    H234051   3.978   1.595   6.392
11370TIP3   OH234052   3.114   1.536   1.302
11370TIP3    H134053   3.073   1.467   1.354
11370TIP3    H234054   3.087   1.618   1.344
11371TIP3   OH234055   8.143   6.984   5.545
11371TIP3    H134056   8.060   6.944   5.571
11371TIP3    H234057   8.209   6.940   5.600
11372TIP3   OH234058   0.255   6.871   2.107
11372TIP3    H134059   0.179   6.813   2.108
11372TIP3    H234060   0.221   6.955   2.075
11373TIP3   OH234061   6.002   3.964   3.805
11373TIP3    H134062   6.019   3.956   3.899
11373TIP3    H234063   6.080   3.927   3.764
11374TIP3   OH234064   6.363   0.030   6.750
11374TIP3    H134065   6.275   0.056   6.778
11374TIP3    H234066   6.390   0.100   6.690
11375TIP3   OH234067   1.527   6.277   6.378
11375TIP3    H134068   1.508   6.200   6.432
11375TIP3    H234069   1.459   6.340   6.402
11376TIP3   OH234070   2.535   1.828   4.823
11376TIP3    H134071   2.443   1.856   4.824
11376TIP3    H234072   2.543   1.770   4.899
11377TIP3   OH234073   8.082   6.251   1.950
11377TIP3    H134074   8.009   6.209   1.997
11377TIP3    H234075   8.054   6.341   1.938
11378TIP3   OH234076   2.307   2.171   3.421
11378TIP3    H134077   2.300   2.085   3.462
11378TIP3    H234078   2.390   2.168   3.374
11379TIP3   OH234079   0.397   3.437   1.756
11379TIP3    H134080   0.370   3.406   1.842
11379TIP3    H234081   0.405   3.532   1.766
11380TIP3   OH234082   5.030   5.754   4.615
11380TIP3    H134083   4.976   5.693   4.565
11380TIP3    H234084   5.051   5.824   4.554
11381TIP3   OH234085   5.030   3.619   0.891
11381TIP3    H134086   5.022   3.525   0.910
11381TIP3    H234087   5.124   3.633   0.882
11382TIP3   OH234088   3.160   1.714   6.411
11382TIP3    H134089   3.250   1.705   6.444
11382TIP3    H234090   3.105   1.685   6.484
11383TIP3   OH234091   6.018   7.412   6.374
11383TIP3    H134092   5.982   7.501   6.378
11383TIP3    H234093   5.987   7.370   6.454
11384TIP3   OH234094   0.804   0.281   1.696
11384TIP3    H134095   0.754   0.231   1.631
11384TIP3    H234096   0.893   0.284   1.660
11385TIP3   OH234097   7.908   0.586  -0.036
11385TIP3    H134098   7.979   0.521  -0.037
11385TIP3    H234099   7.944   0.661   0.011
11386TIP3   OH234100   7.144   2.365   3.882
11386TIP3    H134101   7.229   2.399   3.853
11386TIP3    H234102   7.142   2.383   3.976
11387TIP3   OH234103   8.235   0.971   2.649
11387TIP3    H134104   8.181   0.937   2.578
11387TIP3    H234105   8.203   1.061   2.662
11388TIP3   OH234106   6.317   7.268   2.948
11388TIP3    H134107   6.360   7.259   3.033
11388TIP3    H234108   6.388   7.292   2.888
11389TIP3   OH234109   3.811   0.692   0.245
11389TIP3    H134110   3.787   0.708   0.337
11389TIP3    H234111   3.727   0.692   0.198
11390TIP3   OH234112   2.028   6.052   5.716
11390TIP3    H134113   1.994   6.142   5.712
11390TIP3    H234114   2.006   6.023   5.805
11391TIP3   OH234115   5.818   6.487   6.188
11391TIP3    H134116   5.801   6.581   6.200
11391TIP3    H234117   5.734   6.445   6.207
11392TIP3   OH234118   3.890   6.722   5.829
11392TIP3    H134119   3.866   6.803   5.784
11392TIP3    H234120   3.976   6.740   5.868
11393TIP3   OH234121   4.548   7.811   0.574
11393TIP3    H134122   4.469   7.861   0.554
11393TIP3    H234123   4.561   7.755   0.498
11394TIP3   OH234124   5.846   3.102   5.770
11394TIP3    H134125   5.853   3.061   5.856
11394TIP3    H234126   5.932   3.142   5.756
11395TIP3   OH234127   8.019   5.437   1.245
11395TIP3    H134128   7.952   5.405   1.184
11395TIP3    H234129   7.974   5.442   1.330
11396TIP3   OH234130   4.854   4.471   4.307
11396TIP3    H134131   4.831   4.434   4.392
11396TIP3    H234132   4.875   4.563   4.325
11397TIP3   OH234133   2.844   2.279   4.327
11397TIP3    H134134   2.909   2.234   4.381
11397TIP3    H234135   2.892   2.351   4.286
11398TIP3   OH234136   6.076   0.165   1.841
11398TIP3    H134137   6.120   0.147   1.758
11398TIP3    H234138   5.985   0.182   1.816
11399TIP3   OH234139   1.758   5.364   3.183
11399TIP3    H134140   1.688   5.304   3.208
11399TIP3    H234141   1.714   5.446   3.162
11400TIP3   OH234142   3.157   2.405   5.051
11400TIP3    H134143   3.113   2.478   5.007
11400TIP3    H234144   3.087   2.362   5.101
11401TIP3   OH234145   5.181   2.462   2.600
11401TIP3    H134146   5.250   2.420   2.652
11401TIP3    H234147   5.145   2.392   2.546
11402TIP3   OH234148   1.496   2.208   3.056
11402TIP3    H134149   1.462   2.290   3.091
11402TIP3    H234150   1.462   2.204   2.967
11403TIP3   OH234151   0.285   4.614   0.224
11403TIP3    H134152   0.294   4.699   0.267
11403TIP3    H234153   0.365   4.605   0.172
11404TIP3   OH234154   7.768   0.649   2.104
11404TIP3    H134155   7.765   0.597   2.023
11404TIP3    H234156   7.817   0.594   2.166
11405TIP3   OH234157   0.760   1.333   3.048
11405TIP3    H134158   0.684   1.391   3.044
11405TIP3    H234159   0.811   1.365   3.123
11406TIP3   OH234160   4.871   1.548   3.226
11406TIP3    H134161   4.934   1.490   3.269
11406TIP3    H234162   4.790   1.534   3.274
11407TIP3   OH234163   7.276   1.173   5.737
11407TIP3    H134164   7.316   1.096   5.777
11407TIP3    H234165   7.263   1.148   5.645
11408TIP3   OH234166   2.578   6.911   0.715
11408TIP3    H134167   2.637   6.894   0.789
11408TIP3    H234168   2.539   6.826   0.695
11409TIP3   OH234169   7.968   2.319   5.269
11409TIP3    H134170   8.028   2.336   5.341
11409TIP3    H234171   8.019   2.341   5.190
11410TIP3   OH234172   1.713   6.291   1.089
11410TIP3    H134173   1.797   6.331   1.112
11410TIP3    H234174   1.714   6.289   0.993
11411TIP3   OH234175   2.622   0.824   1.248
11411TIP3    H134176   2.643   0.760   1.180
11411TIP3    H234177   2.617   0.908   1.202
11412TIP3   OH234178   5.436   1.360   4.657
11412TIP3    H134179   5.495   1.359   4.582
11412TIP3    H234180   5.394   1.274   4.656
11413TIP3   OH234181   7.190   2.365   0.644
11413TIP3    H134182   7.121   2.304   0.669
11413TIP3    H234183   7.167   2.447   0.690
11414TIP3   OH234184   0.627   7.724   0.419
11414TIP3    H134185   0.599   7.641   0.458
11414TIP3    H234186   0.660   7.699   0.332
11415TIP3   OH234187   1.527   6.102   5.485
11415TIP3    H134188   1.579   6.064   5.556
11415TIP3    H234189   1.592   6.136   5.424
11416TIP3   OH234190   2.255   1.739   0.767
11416TIP3    H134191   2.187   1.690   0.813
11416TIP3    H234192   2.294   1.795   0.834
11417TIP3   OH234193   4.273   1.275   1.604
11417TIP3    H134194   4.274   1.366   1.631
11417TIP3    H234195   4.299   1.277   1.511
11418TIP3   OH234196   6.614   3.130   6.099
11418TIP3    H134197   6.551   3.172   6.157
11418TIP3    H234198   6.654   3.202   6.050
11419TIP3   OH234199   5.156   1.815   6.201
11419TIP3    H134200   5.185   1.906   6.198
11419TIP3    H234201   5.233   1.766   6.229
11420TIP3   OH234202   4.678   5.502   2.693
11420TIP3    H134203   4.661   5.417   2.653
11420TIP3    H234204   4.628   5.500   2.775
11421TIP3   OH234205   2.062   4.160   5.856
11421TIP3    H134206   2.073   4.135   5.764
11421TIP3    H234207   2.144   4.204   5.878
11422TIP3   OH234208   7.246   6.837   4.950
11422TIP3    H134209   7.162   6.801   4.922
11422TIP3    H234210   7.312   6.785   4.903
11423TIP3   OH234211   2.974   1.982   3.491
11423TIP3    H134212   2.939   2.056   3.442
11423TIP3    H234213   3.069   1.993   3.485
11424TIP3   OH234214   1.009   4.562   0.154
11424TIP3    H134215   1.009   4.544   0.060
11424TIP3    H234216   0.917   4.559   0.180
11425TIP3   OH234217   1.896   3.294   5.479
11425TIP3    H134218   1.870   3.334   5.563
11425TIP3    H234219   1.990   3.309   5.474
11426TIP3   OH234220   6.736   5.139   5.451
11426TIP3    H134221   6.738   5.170   5.542
11426TIP3    H234222   6.776   5.210   5.401
11427TIP3   OH234223   5.252   1.957   3.787
11427TIP3    H134224   5.316   1.942   3.857
11427TIP3    H234225   5.203   1.875   3.781
11428TIP3   OH234226   5.598   4.191   1.075
11428TIP3    H134227   5.680   4.141   1.078
11428TIP3    H234228   5.605   4.254   1.147
11429TIP3   OH234229   1.764   3.682   6.509
11429TIP3    H134230   1.713   3.606   6.481
11429TIP3    H234231   1.846   3.676   6.460
11430TIP3   OH234232   0.496   3.798   4.702
11430TIP3    H134233   0.586   3.819   4.676
11430TIP3    H234234   0.504   3.714   4.748
11431TIP3   OH234235   3.767   5.551   1.025
11431TIP3    H134236   3.736   5.473   0.977
11431TIP3    H234237   3.692   5.578   1.077
11432TIP3   OH234238   2.202   5.263   3.532
11432TIP3    H134239   2.127   5.209   3.510
11432TIP3    H234240   2.165   5.350   3.551
11433TIP3   OH234241   8.206   7.322   0.281
11433TIP3    H134242   8.243   7.245   0.238
11433TIP3    H234243   8.123   7.336   0.236
11434TIP3   OH234244   5.860   4.116   0.967
11434TIP3    H134245   5.946   4.110   1.010
11434TIP3    H234246   5.879   4.099   0.875
11435TIP3   OH234247   6.313   7.620   0.995
11435TIP3    H134248   6.304   7.612   1.090
11435TIP3    H234249   6.375   7.551   0.971
11436TIP3   OH234250   3.143   6.232   1.158
11436TIP3    H134251   3.211   6.241   1.225
11436TIP3    H234252   3.061   6.226   1.206
11437TIP3   OH234253   0.146   1.848   3.342
11437TIP3    H134254   0.075   1.853   3.279
11437TIP3    H234255   0.211   1.912   3.311
11438TIP3   OH234256   5.046   4.022   1.608
11438TIP3    H134257   4.969   3.973   1.580
11438TIP3    H234258   5.103   4.025   1.531
11439TIP3   OH234259   7.780   6.888   1.095
11439TIP3    H134260   7.807   6.968   1.141
11439TIP3    H234261   7.684   6.894   1.091
11440TIP3   OH234262   7.785   5.983   2.360
11440TIP3    H134263   7.854   5.961   2.297
11440TIP3    H234264   7.733   5.903   2.367
11441TIP3   OH234265   2.777   0.082   5.782
11441TIP3    H134266   2.727   0.078   5.700
11441TIP3    H234267   2.774   0.174   5.808
11442TIP3   OH234268   6.200   6.499   6.265
11442TIP3    H134269   6.159   6.412   6.267
11442TIP3    H234270   6.175   6.539   6.349
11443TIP3   OH234271   0.325   7.086   6.059
11443TIP3    H134272   0.261   7.154   6.037
11443TIP3    H234273   0.406   7.135   6.075
11444TIP3   OH234274   2.667   3.639   3.987
11444TIP3    H134275   2.744   3.646   3.932
11444TIP3    H234276   2.698   3.598   4.068
11445TIP3   OH234277   3.241   0.434   3.510
11445TIP3    H134278   3.197   0.349   3.513
11445TIP3    H234279   3.262   0.454   3.601
11446TIP3   OH234280   2.611   2.018   6.006
11446TIP3    H134281   2.678   1.977   6.061
11446TIP3    H234282   2.612   2.110   6.033
11447TIP3   OH234283   2.164   2.335   2.693
11447TIP3    H134284   2.233   2.272   2.676
11447TIP3    H234285   2.083   2.285   2.689
11448TIP3   OH234286   1.027   6.889   3.761
11448TIP3    H134287   1.087   6.891   3.835
11448TIP3    H234288   1.031   6.798   3.731
11449TIP3   OH234289   8.127   0.114   2.250
11449TIP3    H134290   8.144   0.167   2.327
11449TIP3    H234291   8.090   0.032   2.285
11450TIP3   OH234292   1.056   6.213   5.673
11450TIP3    H134293   1.142   6.251   5.658
11450TIP3    H234294   1.064   6.123   5.644
11451TIP3   OH234295   6.044   1.375   4.038
11451TIP3    H134296   5.963   1.419   4.012
11451TIP3    H234297   6.112   1.440   4.021
11452TIP3   OH234298   0.719   1.530   1.743
11452TIP3    H134299   0.773   1.595   1.787
11452TIP3    H234300   0.780   1.479   1.690
11453TIP3   OH234301   5.261   5.247   1.768
11453TIP3    H134302   5.305   5.296   1.699
11453TIP3    H234303   5.278   5.155   1.747
11454TIP3   OH234304   5.580   5.433   6.148
11454TIP3    H134305   5.545   5.506   6.200
11454TIP3    H234306   5.675   5.442   6.153
11455TIP3   OH234307   4.642   7.224   0.503
11455TIP3    H134308   4.694   7.193   0.429
11455TIP3    H234309   4.687   7.302   0.533
11456TIP3   OH234310   1.391   0.440   0.468
11456TIP3    H134311   1.382   0.468   0.560
11456TIP3    H234312   1.336   0.500   0.419
11457TIP3   OH234313   3.531   0.274   1.085
11457TIP3    H134314   3.599   0.335   1.112
11457TIP3    H234315   3.554   0.191   1.128
11458TIP3   OH234316   1.059   5.588   1.641
11458TIP3    H134317   1.034   5.597   1.733
11458TIP3    H234318   1.074   5.494   1.629
11459TIP3   OH234319   7.736   1.404   2.284
11459TIP3    H134320   7.800   1.340   2.254
11459TIP3    H234321   7.665   1.400   2.220
11460TIP3   OH234322   6.633   3.066   6.453
11460TIP3    H134323   6.628   2.981   6.409
11460TIP3    H234324   6.696   3.053   6.523
11461TIP3   OH234325   3.150   2.843   1.453
11461TIP3    H134326   3.159   2.896   1.532
11461TIP3    H234327   3.064   2.801   1.462
11462TIP3   OH234328   5.891   5.841   0.773
11462TIP3    H134329   5.916   5.758   0.734
11462TIP3    H234330   5.805   5.861   0.735
11463TIP3   OH234331   8.209   1.600   3.953
11463TIP3    H134332   8.149   1.644   3.893
11463TIP3    H234333   8.296   1.623   3.921
11464TIP3   OH234334   7.495   5.243   2.989
11464TIP3    H134335   7.454   5.286   3.065
11464TIP3    H234336   7.524   5.158   3.022
11465TIP3   OH234337   0.053   6.963   6.060
11465TIP3    H134338  -0.015   7.024   6.089
11465TIP3    H234339   0.122   7.020   6.025
11466TIP3   OH234340   3.033   5.400   3.789
11466TIP3    H134341   2.969   5.444   3.844
11466TIP3    H234342   2.982   5.365   3.716
11467TIP3   OH234343   7.469   4.248   2.640
11467TIP3    H134344   7.548   4.206   2.606
11467TIP3    H234345   7.409   4.251   2.566
11468TIP3   OH234346   3.561   5.728   1.345
11468TIP3    H134347   3.610   5.780   1.281
11468TIP3    H234348   3.545   5.645   1.300
11469TIP3   OH234349   2.862   2.505   5.709
11469TIP3    H134350   2.825   2.490   5.622
11469TIP3    H234351   2.894   2.595   5.705
11470TIP3   OH234352   4.510   6.064   3.126
11470TIP3    H134353   4.466   6.004   3.066
11470TIP3    H234354   4.597   6.025   3.139
11471TIP3   OH234355   3.759   4.627   5.932
11471TIP3    H134356   3.807   4.594   5.856
11471TIP3    H234357   3.819   4.615   6.005
11472TIP3   OH234358   5.445   3.558   6.648
11472TIP3    H134359   5.499   3.567   6.726
11472TIP3    H234360   5.499   3.592   6.577
11473TIP3   OH234361   5.681   2.410   0.228
11473TIP3    H134362   5.673   2.465   0.150
11473TIP3    H234363   5.609   2.347   0.220
11474TIP3   OH234364   0.181  -0.017   3.196
11474TIP3    H134365   0.240   0.054   3.221
11474TIP3    H234366   0.240  -0.086   3.165
11475TIP3   OH234367   0.348   4.892   0.903
11475TIP3    H134368   0.307   4.806   0.910
11475TIP3    H234369   0.422   4.888   0.964
11476TIP3   OH234370   4.862   1.894   4.266
11476TIP3    H134371   4.956   1.908   4.278
11476TIP3    H234372   4.834   1.966   4.210
11477TIP3   OH234373   1.756   7.370   1.601
11477TIP3    H134374   1.706   7.401   1.677
11477TIP3    H234375   1.713   7.410   1.526
11478TIP3   OH234376   2.591   4.585   3.353
11478TIP3    H134377   2.603   4.505   3.405
11478TIP3    H234378   2.624   4.561   3.266
11479TIP3   OH234379   2.067   2.135   0.638
11479TIP3    H134380   2.038   2.226   0.624
11479TIP3    H234381   2.146   2.144   0.690
11480TIP3   OH234382   2.161   4.125   5.589
11480TIP3    H134383   2.167   4.031   5.608
11480TIP3    H234384   2.213   4.136   5.509
11481TIP3   OH234385   1.429   3.275   2.038
11481TIP3    H134386   1.399   3.361   2.007
11481TIP3    H234387   1.387   3.265   2.124
11482TIP3   OH234388   3.341   0.088   2.219
11482TIP3    H134389   3.298   0.172   2.202
11482TIP3    H234390   3.434   0.109   2.217
11483TIP3   OH234391   5.727   3.195   3.763
11483TIP3    H134392   5.758   3.244   3.839
11483TIP3    H234393   5.747   3.252   3.688
11484TIP3   OH234394   0.367   3.641   4.466
11484TIP3    H134395   0.352   3.629   4.372
11484TIP3    H234396   0.457   3.613   4.480
11485TIP3   OH234397   0.769   0.679   4.145
11485TIP3    H134398   0.803   0.645   4.062
11485TIP3    H234399   0.754   0.772   4.129
11486TIP3   OH234400   5.740   7.081   2.605
11486TIP3    H134401   5.770   7.053   2.691
11486TIP3    H234402   5.648   7.104   2.618
11487TIP3   OH234403   3.553   4.795   3.559
11487TIP3    H134404   3.516   4.871   3.604
11487TIP3    H234405   3.519   4.801   3.470
11488TIP3   OH234406   2.668   0.219   6.236
11488TIP3    H134407   2.682   0.214   6.330
11488TIP3    H234408   2.754   0.202   6.197
11489TIP3   OH234409   6.699   3.523   2.526
11489TIP3    H134410   6.702   3.607   2.572
11489TIP3    H234411   6.617   3.482   2.554
11490TIP3   OH234412   4.730   0.021   2.579
11490TIP3    H134413   4.726   0.078   2.655
11490TIP3    H234414   4.701  -0.065   2.611
11491TIP3   OH234415   5.306   6.148   6.590
11491TIP3    H134416   5.312   6.243   6.589
11491TIP3    H234417   5.248   6.128   6.664
11492TIP3   OH234418   6.050   3.559   3.551
11492TIP3    H134419   6.104   3.523   3.622
11492TIP3    H234420   5.984   3.612   3.596
11493TIP3   OH234421   1.410   5.155   1.677
11493TIP3    H134422   1.486   5.109   1.642
11493TIP3    H234423   1.391   5.111   1.759
11494TIP3   OH234424   1.214   2.814   4.407
11494TIP3    H134425   1.284   2.848   4.352
11494TIP3    H234426   1.134   2.854   4.372
11495TIP3   OH234427   4.432   1.585   2.969
11495TIP3    H134428   4.504   1.525   2.985
11495TIP3    H234429   4.450   1.661   3.025
11496TIP3   OH234430   3.162   7.301   1.861
11496TIP3    H134431   3.069   7.289   1.878
11496TIP3    H234432   3.164   7.367   1.791
11497TIP3   OH234433   6.413   1.751   3.505
11497TIP3    H134434   6.399   1.670   3.555
11497TIP3    H234435   6.327   1.793   3.505
11498TIP3   OH234436   0.620   6.766   1.838
11498TIP3    H134437   0.538   6.730   1.871
11498TIP3    H234438   0.611   6.861   1.847
11499TIP3   OH234439   7.881   1.492   3.313
11499TIP3    H134440   7.832   1.540   3.245
11499TIP3    H234441   7.891   1.404   3.278
11500TIP3   OH234442   7.083   5.461   3.410
11500TIP3    H134443   7.024   5.500   3.475
11500TIP3    H234444   7.044   5.375   3.391
11501TIP3   OH234445   5.024   7.313   2.684
11501TIP3    H134446   4.966   7.316   2.607
11501TIP3    H234447   5.001   7.391   2.735
11502TIP3   OH234448   2.350   3.561   5.140
11502TIP3    H134449   2.373   3.486   5.195
11502TIP3    H234450   2.349   3.526   5.051
11503TIP3   OH234451   7.666   4.099   2.469
11503TIP3    H134452   7.703   4.011   2.479
11503TIP3    H234453   7.731   4.146   2.416
11504TIP3   OH234454   8.028   1.805   0.925
11504TIP3    H134455   8.019   1.880   0.983
11504TIP3    H234456   7.939   1.771   0.915
11505TIP3   OH234457   6.660   4.892   2.656
11505TIP3    H134458   6.639   4.985   2.650
11505TIP3    H234459   6.633   4.856   2.571
11506TIP3   OH234460   3.461   4.501   4.511
11506TIP3    H134461   3.448   4.548   4.594
11506TIP3    H234462   3.549   4.526   4.483
11507TIP3   OH234463   5.359   7.434   4.447
11507TIP3    H134464   5.345   7.497   4.518
11507TIP3    H234465   5.453   7.436   4.432
11508TIP3   OH234466   0.574   1.147   3.935
11508TIP3    H134467   0.624   1.065   3.928
11508TIP3    H234468   0.482   1.120   3.928
11509TIP3   OH234469   2.200   7.203   2.839
11509TIP3    H134470   2.167   7.285   2.803
11509TIP3    H234471   2.194   7.215   2.934
11510TIP3   OH234472   6.958   3.745   1.078
11510TIP3    H134473   6.957   3.841   1.082
11510TIP3    H234474   6.887   3.723   1.017
11511TIP3   OH234475   2.693   4.724   5.483
11511TIP3    H134476   2.702   4.818   5.500
11511TIP3    H234477   2.721   4.713   5.393
11512TIP3   OH234478   2.921   4.548   0.493
11512TIP3    H134479   2.868   4.472   0.515
11512TIP3    H234480   2.899   4.568   0.402
11513TIP3   OH234481   3.137   0.336   4.465
11513TIP3    H134482   3.218   0.289   4.485
11513TIP3    H234483   3.073   0.299   4.526
11514TIP3   OH234484   8.221   0.276   1.658
11514TIP3    H134485   8.204   0.256   1.566
11514TIP3    H234486   8.313   0.302   1.659
11515TIP3   OH234487   1.937   6.925   1.688
11515TIP3    H134488   1.889   7.005   1.709
11515TIP3    H234489   2.025   6.955   1.665
11516TIP3   OH234490   1.830   3.757   4.799
11516TIP3    H134491   1.770   3.808   4.745
11516TIP3    H234492   1.911   3.807   4.800
11517TIP3   OH234493   1.875   6.790   1.918
11517TIP3    H134494   1.892   6.697   1.909
11517TIP3    H234495   1.892   6.827   1.832
11518TIP3   OH234496   4.457   1.703   4.842
11518TIP3    H134497   4.436   1.784   4.796
11518TIP3    H234498   4.406   1.636   4.798
11519TIP3   OH234499   5.421   4.986   0.545
11519TIP3    H134500   5.500   4.993   0.599
11519TIP3    H234501   5.350   5.010   0.604
11520TIP3   OH234502   0.478   3.736   0.322
11520TIP3    H134503   0.398   3.785   0.342
11520TIP3    H234504   0.496   3.756   0.230
11521TIP3   OH234505   1.881   5.584   6.045
11521TIP3    H134506   1.943   5.594   5.973
11521TIP3    H234507   1.931   5.540   6.114
11522TIP3   OH234508   5.299   4.500   4.172
11522TIP3    H134509   5.359   4.492   4.098
11522TIP3    H234510   5.232   4.561   4.141
11523TIP3   OH234511   6.471   6.937   3.345
11523TIP3    H134512   6.551   6.946   3.293
11523TIP3    H234513   6.432   6.855   3.315
11524TIP3   OH234514   1.972   6.508   2.401
11524TIP3    H134515   1.977   6.415   2.382
11524TIP3    H234516   2.027   6.549   2.334
11525TIP3   OH234517   4.892   0.475   6.451
11525TIP3    H134518   4.924   0.488   6.540
11525TIP3    H234519   4.956   0.417   6.410
11526TIP3   OH234520   7.883   7.523   0.515
11526TIP3    H134521   7.940   7.561   0.449
11526TIP3    H234522   7.892   7.428   0.504
11527TIP3   OH234523   5.272   3.714   6.553
11527TIP3    H134524   5.240   3.672   6.474
11527TIP3    H234525   5.340   3.655   6.586
11528TIP3   OH234526   7.322   5.107   6.346
11528TIP3    H134527   7.294   5.197   6.360
11528TIP3    H234528   7.402   5.098   6.398
11529TIP3   OH234529   1.170   1.217   5.305
11529TIP3    H134530   1.201   1.126   5.308
11529TIP3    H234531   1.092   1.217   5.360
11530TIP3   OH234532   5.378   0.673   3.778
11530TIP3    H134533   5.465   0.710   3.795
11530TIP3    H234534   5.383   0.584   3.813
11531TIP3   OH234535   6.607   7.608   3.376
11531TIP3    H134536   6.686   7.593   3.428
11531TIP3    H234537   6.594   7.527   3.328
11532TIP3   OH234538   1.389   2.079   6.727
11532TIP3    H134539   1.366   2.045   6.813
11532TIP3    H234540   1.311   2.127   6.698
11533TIP3   OH234541   3.106   3.659   0.381
11533TIP3    H134542   3.094   3.597   0.452
11533TIP3    H234543   3.058   3.622   0.307
11534TIP3   OH234544   1.760   5.670   1.613
11534TIP3    H134545   1.799   5.600   1.666
11534TIP3    H234546   1.763   5.636   1.523
11535TIP3   OH234547   3.118   1.485   0.807
11535TIP3    H134548   3.173   1.545   0.757
11535TIP3    H234549   3.170   1.464   0.885
11536TIP3   OH234550   6.781   5.254   0.077
11536TIP3    H134551   6.749   5.192   0.011
11536TIP3    H234552   6.870   5.276   0.050
11537TIP3   OH234553   1.041   3.608   5.877
11537TIP3    H134554   1.008   3.660   5.950
11537TIP3    H234555   1.017   3.518   5.900
11538TIP3   OH234556   2.763   1.261   3.562
11538TIP3    H134557   2.691   1.275   3.501
11538TIP3    H234558   2.769   1.342   3.611
11539TIP3   OH234559   4.608   0.595   3.770
11539TIP3    H134560   4.641   0.582   3.681
11539TIP3    H234561   4.679   0.564   3.827
11540TIP3   OH234562   8.226   0.016   3.312
11540TIP3    H134563   8.176   0.044   3.235
11540TIP3    H234564   8.309  -0.017   3.277
11541TIP3   OH234565   7.252   5.372   6.375
11541TIP3    H134566   7.270   5.465   6.390
11541TIP3    H234567   7.167   5.358   6.416
11542TIP3   OH234568   2.152   1.097   1.363
11542TIP3    H134569   2.105   1.095   1.279
11542TIP3    H234570   2.223   1.160   1.349
11543TIP3   OH234571   5.010   4.969   4.082
11543TIP3    H134572   5.001   5.023   4.003
11543TIP3    H234573   4.923   4.970   4.122
11544TIP3   OH234574   4.724   0.151   4.419
11544TIP3    H134575   4.813   0.131   4.391
11544TIP3    H234576   4.734   0.188   4.507
11545TIP3   OH234577   5.392   1.490   2.635
11545TIP3    H134578   5.307   1.448   2.616
11545TIP3    H234579   5.457   1.428   2.602
11546TIP3   OH234580   7.385   0.284   2.043
11546TIP3    H134581   7.471   0.254   2.012
11546TIP3    H234582   7.332   0.291   1.965
11547TIP3   OH234583   6.078   5.977   3.899
11547TIP3    H134584   5.999   5.997   3.850
11547TIP3    H234585   6.050   5.978   3.991
11548TIP3   OH234586   6.302   1.065   2.643
11548TIP3    H134587   6.328   1.139   2.698
11548TIP3    H234588   6.379   1.009   2.641
11549TIP3   OH234589   0.648   7.380   2.674
11549TIP3    H134590   0.713   7.310   2.668
11549TIP3    H234591   0.583   7.358   2.606
11550TIP3   OH234592   7.928   5.842   6.208
11550TIP3    H134593   7.925   5.752   6.242
11550TIP3    H234594   8.000   5.841   6.145
11551TIP3   OH234595   6.186   5.380   4.931
11551TIP3    H134596   6.171   5.422   4.847
11551TIP3    H234597   6.187   5.286   4.911
11552TIP3   OH234598   7.834   3.539   2.331
11552TIP3    H134599   7.891   3.462   2.335
11552TIP3    H234600   7.853   3.577   2.245
11553TIP3   OH234601   6.390   1.050   0.038
11553TIP3    H134602   6.455   1.053  -0.032
11553TIP3    H234603   6.385   1.140   0.070
11554TIP3   OH234604   2.394   6.812   5.619
11554TIP3    H134605   2.455   6.740   5.633
11554TIP3    H234606   2.329   6.804   5.688
11555TIP3   OH234607   6.101   5.132   2.740
11555TIP3    H134608   6.038   5.074   2.784
11555TIP3    H234609   6.075   5.129   2.648
11556TIP3   OH234610   5.122   6.575   2.214
11556TIP3    H134611   5.040   6.595   2.259
11556TIP3    H234612   5.097   6.564   2.122
11557TIP3   OH234613   5.978   3.508   2.943
11557TIP3    H134614   5.913   3.576   2.922
11557TIP3    H234615   5.975   3.448   2.868
11558TIP3   OH234616   1.321   2.012   4.314
11558TIP3    H134617   1.307   2.073   4.242
11558TIP3    H234618   1.404   1.969   4.294
11559TIP3   OH234619   6.706   0.286   3.053
11559TIP3    H134620   6.648   0.238   3.113
11559TIP3    H234621   6.663   0.279   2.968
11560TIP3   OH234622   3.139   5.961   1.097
11560TIP3    H134623   3.137   6.055   1.112
11560TIP3    H234624   3.094   5.923   1.172
11561TIP3   OH234625   5.074   0.312   3.834
11561TIP3    H134626   5.088   0.262   3.755
11561TIP3    H234627   5.079   0.404   3.806
11562TIP3   OH234628   7.118   3.565   1.854
11562TIP3    H134629   7.151   3.655   1.854
11562TIP3    H234630   7.171   3.520   1.788
11563TIP3   OH234631   0.854   1.207   4.931
11563TIP3    H134632   0.763   1.239   4.929
11563TIP3    H234633   0.849   1.122   4.975
11564TIP3   OH234634   4.575   5.311   6.263
11564TIP3    H134635   4.515   5.237   6.268
11564TIP3    H234636   4.519   5.388   6.269
11565TIP3   OH234637   4.371   7.246   6.699
11565TIP3    H134638   4.467   7.246   6.702
11565TIP3    H234639   4.349   7.179   6.634
11566TIP3   OH234640   2.517   6.615   5.346
11566TIP3    H134641   2.445   6.556   5.367
11566TIP3    H234642   2.487   6.664   5.270
11567TIP3   OH234643   1.701   7.645   2.398
11567TIP3    H134644   1.636   7.674   2.461
11567TIP3    H234645   1.673   7.682   2.314
11568TIP3   OH234646   2.371   2.631   4.548
11568TIP3    H134647   2.318   2.553   4.560
11568TIP3    H234648   2.308   2.704   4.549
11569TIP3   OH234649   5.826   6.590   2.231
11569TIP3    H134650   5.917   6.577   2.257
11569TIP3    H234651   5.778   6.518   2.272
11570TIP3   OH234652   6.684   4.804   6.256
11570TIP3    H134653   6.739   4.867   6.208
11570TIP3    H234654   6.734   4.784   6.335
11571TIP3   OH234655   1.807   2.769   4.674
11571TIP3    H134656   1.863   2.843   4.649
11571TIP3    H234657   1.862   2.692   4.662
11572TIP3   OH234658   0.550   4.175   1.374
11572TIP3    H134659   0.455   4.167   1.388
11572TIP3    H234660   0.559   4.250   1.314
11573TIP3   OH234661   2.377   6.114   3.123
11573TIP3    H134662   2.409   6.172   3.192
11573TIP3    H234663   2.282   6.122   3.127
11574TIP3   OH234664   3.603   4.153   6.034
11574TIP3    H134665   3.597   4.067   5.992
11574TIP3    H234666   3.513   4.176   6.054
11575TIP3   OH234667   7.434   5.713   5.743
11575TIP3    H134668   7.344   5.695   5.770
11575TIP3    H234669   7.484   5.638   5.776
11576TIP3   OH234670   0.083   0.801   1.842
11576TIP3    H134671   0.126   0.796   1.928
11576TIP3    H234672   0.056   0.712   1.824
11577TIP3   OH234673   4.646   7.047   2.077
11577TIP3    H134674   4.664   7.106   2.004
11577TIP3    H234675   4.659   6.959   2.042
11578TIP3   OH234676   1.968   0.129   6.118
11578TIP3    H134677   1.954   0.129   6.212
11578TIP3    H234678   2.044   0.186   6.105
11579TIP3   OH234679   4.949   1.230   5.218
11579TIP3    H134680   4.983   1.194   5.300
11579TIP3    H234681   5.006   1.192   5.151
11580TIP3   OH234682   2.262   2.506   2.008
11580TIP3    H134683   2.313   2.528   1.930
11580TIP3    H234684   2.189   2.567   2.006
11581TIP3   OH234685  -0.027   3.983   2.979
11581TIP3    H134686   0.019   3.902   3.004
11581TIP3    H234687  -0.008   4.044   3.050
11582TIP3   OH234688   3.258   3.194   4.245
11582TIP3    H134689   3.354   3.186   4.252
11582TIP3    H234690   3.224   3.154   4.325
11583TIP3   OH234691   3.327   2.617   6.124
11583TIP3    H134692   3.306   2.546   6.185
11583TIP3    H234693   3.244   2.663   6.112
11584TIP3   OH234694   0.830   3.421   4.132
11584TIP3    H134695   0.799   3.495   4.080
11584TIP3    H234696   0.831   3.454   4.222
11585TIP3   OH234697   7.123   5.045   6.189
11585TIP3    H134698   7.122   5.127   6.140
11585TIP3    H234699   7.196   5.055   6.250
11586TIP3   OH234700   7.125   4.821   4.994
11586TIP3    H134701   7.195   4.758   5.013
11586TIP3    H234702   7.064   4.813   5.067
11587TIP3   OH234703   4.463   3.810   3.658
11587TIP3    H134704   4.422   3.791   3.574
11587TIP3    H234705   4.550   3.843   3.635
11588TIP3   OH234706   5.105   5.304   4.110
11588TIP3    H134707   5.129   5.212   4.127
11588TIP3    H234708   5.055   5.330   4.187
11589TIP3   OH234709   1.450   4.018   3.994
11589TIP3    H134710   1.477   4.109   4.006
11589TIP3    H234711   1.519   3.966   4.034
11590TIP3   OH234712   2.472   0.807   3.278
11590TIP3    H134713   2.433   0.748   3.214
11590TIP3    H234714   2.538   0.856   3.228
11591TIP3   OH234715   5.649   3.033   6.788
11591TIP3    H134716   5.696   2.962   6.831
11591TIP3    H234717   5.717   3.088   6.749
11592TIP3   OH234718   7.981   6.893   2.919
11592TIP3    H134719   8.072   6.867   2.929
11592TIP3    H234720   7.931   6.814   2.940
11593TIP3   OH234721   7.084   1.864   6.417
11593TIP3    H134722   7.128   1.927   6.360
11593TIP3    H234723   6.994   1.897   6.423
11594TIP3   OH234724   0.332   6.509   4.342
11594TIP3    H134725   0.425   6.491   4.359
11594TIP3    H234726   0.286   6.474   4.418
11595TIP3   OH234727   6.560   6.903   1.202
11595TIP3    H134728   6.604   6.902   1.117
11595TIP3    H234729   6.607   6.839   1.255
11596TIP3   OH234730   2.068   7.740   5.732
11596TIP3    H134731   2.072   7.645   5.741
11596TIP3    H234732   2.107   7.773   5.813
11597TIP3   OH234733   2.078   2.098   1.473
11597TIP3    H134734   2.126   2.025   1.434
11597TIP3    H234735   2.021   2.057   1.538
11598TIP3   OH234736   5.422   6.345   1.537
11598TIP3    H134737   5.341   6.383   1.571
11598TIP3    H234738   5.396   6.301   1.456
11599TIP3   OH234739   5.168   6.313   4.214
11599TIP3    H134740   5.252   6.292   4.255
11599TIP3    H234741   5.188   6.384   4.153
11600TIP3   OH234742   5.992   3.626   0.089
11600TIP3    H134743   6.084   3.635   0.116
11600TIP3    H234744   5.943   3.681   0.149
11601TIP3   OH234745   5.498   4.821   4.153
11601TIP3    H134746   5.428   4.870   4.110
11601TIP3    H234747   5.556   4.794   4.081
11602TIP3   OH234748   4.982   1.621   6.170
11602TIP3    H134749   4.922   1.654   6.103
11602TIP3    H234750   5.051   1.687   6.175
11603TIP3   OH234751   6.779   7.441   4.774
11603TIP3    H134752   6.869   7.409   4.774
11603TIP3    H234753   6.777   7.510   4.841
11604TIP3   OH234754   1.317   7.483   2.865
11604TIP3    H134755   1.384   7.426   2.827
11604TIP3    H234756   1.251   7.491   2.797
11605TIP3   OH234757   3.890   2.873   3.220
11605TIP3    H134758   3.901   2.781   3.243
11605TIP3    H234759   3.921   2.879   3.129
11606TIP3   OH234760   4.466   3.288   0.303
11606TIP3    H134761   4.434   3.201   0.280
11606TIP3    H234762   4.448   3.342   0.226
11607TIP3   OH234763   3.225   2.179   4.220
11607TIP3    H134764   3.256   2.129   4.145
11607TIP3    H234765   3.212   2.115   4.289
11608TIP3   OH234766   1.554   6.153   1.435
11608TIP3    H134767   1.488   6.199   1.487
11608TIP3    H234768   1.513   6.140   1.349
11609TIP3   OH234769   1.251  -0.010   0.148
11609TIP3    H134770   1.324   0.048   0.170
11609TIP3    H234771   1.260  -0.025   0.054
11610TIP3   OH234772   2.134   1.152   5.123
11610TIP3    H134773   2.153   1.224   5.064
11610TIP3    H234774   2.220   1.128   5.160
11611TIP3   OH234775   2.482   0.584   6.714
11611TIP3    H134776   2.576   0.593   6.700
11611TIP3    H234777   2.470   0.597   6.808
11612TIP3   OH234778   5.170   1.590   4.281
11612TIP3    H134779   5.145   1.542   4.360
11612TIP3    H234780   5.219   1.526   4.229
11613TIP3   OH234781   3.085   7.387   5.187
11613TIP3    H134782   3.060   7.458   5.246
11613TIP3    H234783   3.117   7.431   5.109
11614TIP3   OH234784   4.882   3.710   5.244
11614TIP3    H134785   4.918   3.787   5.288
11614TIP3    H234786   4.858   3.741   5.156
11615TIP3   OH234787   5.556   5.650   1.678
11615TIP3    H134788   5.502   5.648   1.757
11615TIP3    H234789   5.512   5.712   1.620
11616TIP3   OH234790   1.228   6.871   3.961
11616TIP3    H134791   1.189   6.809   4.023
11616TIP3    H234792   1.321   6.871   3.983
11617TIP3   OH234793   0.794   3.818   3.189
11617TIP3    H134794   0.789   3.850   3.099
11617TIP3    H234795   0.819   3.894   3.241
11618TIP3   OH234796   3.271   0.671   6.550
11618TIP3    H134797   3.360   0.685   6.519
11618TIP3    H234798   3.274   0.586   6.594
11619TIP3   OH234799   3.089   5.610   0.231
11619TIP3    H134800   3.022   5.668   0.266
11619TIP3    H234801   3.048   5.568   0.156
11620TIP3   OH234802   0.247   6.303   2.349
11620TIP3    H134803   0.231   6.291   2.443
11620TIP3    H234804   0.199   6.384   2.328
11621TIP3   OH234805   2.416   4.666   1.974
11621TIP3    H134806   2.463   4.654   2.057
11621TIP3    H234807   2.361   4.743   1.988
11622TIP3   OH234808   0.224   5.598   3.174
11622TIP3    H134809   0.235   5.504   3.157
11622TIP3    H234810   0.159   5.602   3.243
11623TIP3   OH234811   7.977   5.201   5.622
11623TIP3    H134812   7.969   5.267   5.690
11623TIP3    H234813   8.071   5.186   5.613
11624TIP3   OH234814   1.177   2.916   0.086
11624TIP3    H134815   1.243   2.957   0.142
11624TIP3    H234816   1.096   2.919   0.137
11625TIP3   OH234817   4.712   4.614   0.363
11625TIP3    H134818   4.773   4.575   0.425
11625TIP3    H234819   4.753   4.697   0.337
11626TIP3   OH234820   4.616   7.653   0.327
11626TIP3    H134821   4.646   7.569   0.291
11626TIP3    H234822   4.565   7.692   0.256
11627TIP3   OH234823   8.224   2.283   0.854
11627TIP3    H134824   8.290   2.222   0.886
11627TIP3    H234825   8.268   2.368   0.856
11628TIP3   OH234826   1.888   3.808   0.127
11628TIP3    H134827   1.863   3.869   0.058
11628TIP3    H234828   1.811   3.802   0.184
11629TIP3   OH234829   7.681   4.512   3.205
11629TIP3    H134830   7.610   4.449   3.197
11629TIP3    H234831   7.708   4.508   3.297
11630TIP3   OH234832   4.860   3.263   2.386
11630TIP3    H134833   4.912   3.270   2.306
11630TIP3    H234834   4.811   3.182   2.376
11631TIP3   OH234835   7.516   2.774   4.957
11631TIP3    H134836   7.429   2.776   4.997
11631TIP3    H234837   7.577   2.785   5.030
11632TIP3   OH234838   2.837   0.882   0.144
11632TIP3    H134839   2.784   0.843   0.213
11632TIP3    H234840   2.876   0.807   0.098
11633TIP3   OH234841   0.747   5.911   3.127
11633TIP3    H134842   0.841   5.930   3.133
11633TIP3    H234843   0.708   5.952   3.204
11634TIP3   OH234844   5.073   6.636   3.342
11634TIP3    H134845   5.121   6.569   3.294
11634TIP3    H234846   5.139   6.680   3.395
11635TIP3   OH234847   6.272   1.058   0.802
11635TIP3    H134848   6.215   1.067   0.725
11635TIP3    H234849   6.215   1.080   0.876
11636TIP3   OH234850   1.291   2.282   3.600
11636TIP3    H134851   1.358   2.332   3.648
11636TIP3    H234852   1.339   2.232   3.535
11637TIP3   OH234853   1.052   3.934   1.196
11637TIP3    H134854   1.100   3.893   1.125
11637TIP3    H234855   1.066   3.876   1.271
11638TIP3   OH234856   2.016   7.691   5.156
11638TIP3    H134857   2.085   7.662   5.097
11638TIP3    H234858   1.943   7.713   5.098
11639TIP3   OH234859   1.083   6.792   4.202
11639TIP3    H134860   1.092   6.827   4.290
11639TIP3    H234861   0.997   6.822   4.173
11640TIP3   OH234862   1.861   6.194   1.379
11640TIP3    H134863   1.772   6.158   1.375
11640TIP3    H234864   1.914   6.133   1.327
11641TIP3   OH234865   1.900   6.041   6.000
11641TIP3    H134866   1.851   6.116   6.034
11641TIP3    H234867   1.989   6.053   6.034
11642TIP3   OH234868   3.960   4.709   5.256
11642TIP3    H134869   3.979   4.799   5.283
11642TIP3    H234870   3.864   4.706   5.250
11643TIP3   OH234871   8.128   5.279   0.217
11643TIP3    H134872   8.184   5.304   0.144
11643TIP3    H234873   8.190   5.255   0.287
11644TIP3   OH234874   7.197   3.556   4.900
11644TIP3    H134875   7.195   3.506   4.819
11644TIP3    H234876   7.283   3.599   4.900
11645TIP3   OH234877   0.069   1.763   4.747
11645TIP3    H134878  -0.015   1.809   4.745
11645TIP3    H234879   0.116   1.802   4.821
11646TIP3   OH234880   1.957   7.349   4.679
11646TIP3    H134881   1.970   7.263   4.719
11646TIP3    H234882   2.029   7.357   4.616
11647TIP3   OH234883   0.080   4.105   1.201
11647TIP3    H134884   0.129   4.139   1.276
11647TIP3    H234885  -0.010   4.134   1.216
11648TIP3   OH234886   3.535   1.140   0.257
11648TIP3    H134887   3.536   1.048   0.231
11648TIP3    H234888   3.468   1.180   0.202
11649TIP3   OH234889   7.612   2.260   4.455
11649TIP3    H134890   7.601   2.224   4.543
11649TIP3    H234891   7.535   2.229   4.407
11650TIP3   OH234892   5.876   5.029   1.335
11650TIP3    H134893   5.859   5.048   1.428
11650TIP3    H234894   5.944   4.960   1.337
11651TIP3   OH234895   6.928   2.243   3.722
11651TIP3    H134896   6.960   2.153   3.727
11651TIP3    H234897   6.992   2.289   3.668
11652TIP3   OH234898   0.180   5.562   3.895
11652TIP3    H134899   0.149   5.494   3.954
11652TIP3    H234900   0.275   5.555   3.897
11653TIP3   OH234901   1.423   7.063   4.196
11653TIP3    H134902   1.460   6.994   4.140
11653TIP3    H234903   1.401   7.018   4.277
11654TIP3   OH234904   7.569   0.152   4.356
11654TIP3    H134905   7.655   0.134   4.320
11654TIP3    H234906   7.560   0.247   4.352
11655TIP3   OH234907   7.290   2.891   6.022
11655TIP3    H134908   7.270   2.812   6.073
11655TIP3    H234909   7.215   2.948   6.038
11656TIP3   OH234910   8.052   3.767   3.002
11656TIP3    H134911   7.991   3.839   2.985
11656TIP3    H234912   8.139   3.807   3.002
11657TIP3   OH234913   7.731   6.245   5.270
11657TIP3    H134914   7.734   6.180   5.340
11657TIP3    H234915   7.772   6.201   5.195
11658TIP3   OH234916   5.223   6.378   2.992
11658TIP3    H134917   5.129   6.392   3.007
11658TIP3    H234918   5.251   6.455   2.942
11659TIP3   OH234919   5.297   7.300   6.460
11659TIP3    H134920   5.246   7.268   6.386
11659TIP3    H234921   5.388   7.283   6.436
11660TIP3   OH234922   3.486   3.248   5.298
11660TIP3    H134923   3.505   3.313   5.231
11660TIP3    H234924   3.551   3.265   5.367
11661TIP3   OH234925   1.137   0.056   1.883
11661TIP3    H134926   1.152   0.146   1.853
11661TIP3    H234927   1.049   0.056   1.920
11662TIP3   OH234928   6.472   5.304   0.815
11662TIP3    H134929   6.513   5.384   0.847
11662TIP3    H234930   6.406   5.334   0.753
11663TIP3   OH234931   2.575   0.429   5.901
11663TIP3    H134932   2.559   0.343   5.941
11663TIP3    H234933   2.531   0.425   5.816
11664TIP3   OH234934   2.375   2.249   1.657
11664TIP3    H134935   2.382   2.161   1.619
11664TIP3    H234936   2.298   2.245   1.713
11665TIP3   OH234937   0.407   0.020   0.486
11665TIP3    H134938   0.316   0.038   0.512
11665TIP3    H234939   0.401  -0.058   0.431
11666TIP3   OH234940   3.855   6.014   2.027
11666TIP3    H134941   3.827   6.030   1.937
11666TIP3    H234942   3.947   6.041   2.029
11667TIP3   OH234943   3.318   4.824   0.123
11667TIP3    H134944   3.341   4.911   0.092
11667TIP3    H234945   3.402   4.784   0.146
11668TIP3   OH234946   5.832   4.990   6.412
11668TIP3    H134947   5.902   4.936   6.375
11668TIP3    H234948   5.761   4.928   6.428
11669TIP3   OH234949   0.345   5.110   1.191
11669TIP3    H134950   0.429   5.082   1.228
11669TIP3    H234951   0.283   5.042   1.218
11670TIP3   OH234952   0.818   5.831   1.458
11670TIP3    H134953   0.903   5.799   1.488
11670TIP3    H234954   0.801   5.908   1.512
11671TIP3   OH234955   5.682   1.063   5.924
11671TIP3    H134956   5.743   1.080   5.995
11671TIP3    H234957   5.602   1.111   5.948
11672TIP3   OH234958   0.329   6.748   4.070
11672TIP3    H134959   0.241   6.710   4.068
11672TIP3    H234960   0.327   6.806   4.147
11673TIP3   OH234961   2.411   2.943   1.201
11673TIP3    H134962   2.444   2.987   1.279
11673TIP3    H234963   2.483   2.947   1.138
11674TIP3   OH234964   7.673   2.525   2.605
11674TIP3    H134965   7.684   2.551   2.696
11674TIP3    H234966   7.585   2.487   2.601
11675TIP3   OH234967   1.529   1.906   1.400
11675TIP3    H134968   1.546   1.848   1.326
11675TIP3    H234969   1.588   1.875   1.469
11676TIP3   OH234970   3.437   3.364   1.279
11676TIP3    H134971   3.477   3.332   1.198
11676TIP3    H234972   3.508   3.407   1.326
11677TIP3   OH234973   5.808   3.262   6.676
11677TIP3    H134974   5.901   3.240   6.667
11677TIP3    H234975   5.795   3.335   6.615
11678TIP3   OH234976   1.903   5.521   0.007
11678TIP3    H134977   1.815   5.558  -0.003
11678TIP3    H234978   1.923   5.532   0.100
11679TIP3   OH234979   0.238   3.507   3.277
11679TIP3    H134980   0.291   3.565   3.331
11679TIP3    H234981   0.301   3.457   3.225
11680TIP3   OH234982   3.194   5.655   4.579
11680TIP3    H134983   3.215   5.562   4.570
11680TIP3    H234984   3.185   5.686   4.489
11681TIP3   OH234985   3.942   2.198   5.543
11681TIP3    H134986   4.011   2.246   5.588
11681TIP3    H234987   3.983   2.164   5.464
11682TIP3   OH234988   6.851   3.256   4.237
11682TIP3    H134989   6.847   3.174   4.187
11682TIP3    H234990   6.873   3.229   4.326
11683TIP3   OH234991   3.486   4.776   2.049
11683TIP3    H134992   3.457   4.798   2.138
11683TIP3    H234993   3.458   4.851   1.996
11684TIP3   OH234994   5.845   0.146   3.947
11684TIP3    H134995   5.809   0.218   3.896
11684TIP3    H234996   5.863   0.184   4.033
11685TIP3   OH234997   7.112   0.897   0.230
11685TIP3    H134998   7.162   0.917   0.152
11685TIP3    H234999   7.138   0.807   0.253
11686TIP3   OH235000   4.411   4.555   2.659
11686TIP3    H135001   4.404   4.650   2.656
11686TIP3    H235002   4.467   4.536   2.734
11687TIP3   OH235003   7.285   0.819   3.409
11687TIP3    H135004   7.202   0.803   3.364
11687TIP3    H235005   7.306   0.737   3.452
11688TIP3   OH235006   5.519   3.732   2.493
11688TIP3    H135007   5.434   3.697   2.464
11688TIP3    H235008   5.497   3.797   2.559
11689TIP3   OH235009   7.035   1.103   5.126
11689TIP3    H135010   7.125   1.096   5.155
11689TIP3    H235011   7.041   1.119   5.032
11690TIP3   OH235012   0.236   6.855   3.827
11690TIP3    H135013   0.280   6.839   3.911
11690TIP3    H235014   0.192   6.772   3.808
11691TIP3   OH235015   2.505   0.449   1.314
11691TIP3    H135016   2.523   0.486   1.400
11691TIP3    H235017   2.441   0.509   1.275
11692TIP3   OH235018   2.421   7.361   5.118
11692TIP3    H135019   2.424   7.455   5.134
11692TIP3    H235020   2.435   7.321   5.203
11693TIP3   OH235021   7.526   3.175   0.074
11693TIP3    H135022   7.587   3.127   0.131
11693TIP3    H235023   7.442   3.169   0.119
11694TIP3   OH235024   0.382   2.392   6.425
11694TIP3    H135025   0.362   2.304   6.394
11694TIP3    H235026   0.300   2.441   6.414
11695TIP3   OH235027   6.789   0.624   5.592
11695TIP3    H135028   6.818   0.712   5.614
11695TIP3    H235029   6.804   0.573   5.671
11696TIP3   OH235030   2.485   0.749   6.354
11696TIP3    H135031   2.413   0.734   6.415
11696TIP3    H235032   2.447   0.733   6.268
11697TIP3   OH235033   0.851   4.573   6.413
11697TIP3    H135034   0.775   4.515   6.424
11697TIP3    H235035   0.892   4.575   6.499
11698TIP3   OH235036   3.973   4.186   1.990
11698TIP3    H135037   3.981   4.116   1.925
11698TIP3    H235038   3.886   4.222   1.976
11699TIP3   OH235039   2.806   6.658   0.709
11699TIP3    H135040   2.756   6.581   0.681
11699TIP3    H235041   2.809   6.714   0.631
11700TIP3   OH235042   0.906   3.436   6.182
11700TIP3    H135043   0.821   3.454   6.141
11700TIP3    H235044   0.965   3.420   6.108
11701TIP3   OH235045   6.335   6.131   2.888
11701TIP3    H135046   6.377   6.210   2.922
11701TIP3    H235047   6.406   6.066   2.885
11702TIP3   OH235048   7.110   6.814   1.606
11702TIP3    H135049   7.199   6.780   1.595
11702TIP3    H235050   7.075   6.766   1.681
11703TIP3   OH235051   0.578   4.674   3.765
11703TIP3    H135052   0.525   4.604   3.802
11703TIP3    H235053   0.632   4.705   3.837
11704TIP3   OH235054   3.542   6.678   1.070
11704TIP3    H135055   3.500   6.746   1.122
11704TIP3    H235056   3.488   6.601   1.083
11705TIP3   OH235057   5.743   5.494   4.188
11705TIP3    H135058   5.747   5.557   4.116
11705TIP3    H235059   5.674   5.433   4.162
11706TIP3   OH235060   7.643   5.860   0.171
11706TIP3    H135061   7.626   5.859   0.076
11706TIP3    H235062   7.722   5.807   0.181
11707TIP3   OH235063   2.641   0.508   5.502
11707TIP3    H135064   2.638   0.602   5.482
11707TIP3    H235065   2.729   0.480   5.477
11708TIP3   OH235066   7.835   1.700   2.819
11708TIP3    H135067   7.752   1.746   2.835
11708TIP3    H235068   7.820   1.651   2.738
11709TIP3   OH235069   8.106   7.225   4.744
11709TIP3    H135070   8.013   7.244   4.757
11709TIP3    H235071   8.147   7.247   4.828
11710TIP3   OH235072   6.360   6.410   3.203
11710TIP3    H135073   6.418   6.364   3.141
11710TIP3    H235074   6.280   6.426   3.154
11711TIP3   OH235075   1.589   1.919   4.273
11711TIP3    H135076   1.606   1.843   4.329
11711TIP3    H235077   1.639   1.990   4.312
11712TIP3   OH235078   7.306   5.985   2.438
11712TIP3    H135079   7.275   6.037   2.364
11712TIP3    H235080   7.272   5.897   2.422
11713TIP3   OH235081   0.537   5.908   4.475
11713TIP3    H135082   0.571   5.826   4.509
11713TIP3    H235083   0.483   5.882   4.401
11714TIP3   OH235084   6.157   3.284   4.756
11714TIP3    H135085   6.208   3.226   4.699
11714TIP3    H235086   6.167   3.371   4.717
11715TIP3   OH235087   3.662   6.029   2.208
11715TIP3    H135088   3.733   5.990   2.157
11715TIP3    H235089   3.622   5.955   2.254
11716TIP3   OH235090   2.292   3.240   6.483
11716TIP3    H135091   2.322   3.292   6.408
11716TIP3    H235092   2.202   3.270   6.497
11717TIP3   OH235093   3.601   7.047   1.609
11717TIP3    H135094   3.505   7.043   1.610
11717TIP3    H235095   3.629   6.956   1.613
11718TIP3   OH235096   3.927   3.217   6.691
11718TIP3    H135097   3.853   3.278   6.689
11718TIP3    H235098   3.940   3.198   6.784
11719TIP3   OH235099   1.823   4.302   3.769
11719TIP3    H135100   1.819   4.247   3.691
11719TIP3    H235101   1.781   4.250   3.838
11720TIP3   OH235102   4.234   4.425   6.198
11720TIP3    H135103   4.282   4.343   6.214
11720TIP3    H235104   4.288   4.473   6.136
11721TIP3   OH235105   1.711   6.135   4.919
11721TIP3    H135106   1.747   6.137   5.008
11721TIP3    H235107   1.772   6.186   4.866
11722TIP3   OH235108   3.015   2.102   0.787
11722TIP3    H135109   3.062   2.138   0.712
11722TIP3    H235110   2.928   2.080   0.753
11723TIP3   OH235111   6.323   4.450   6.023
11723TIP3    H135112   6.303   4.382   6.087
11723TIP3    H235113   6.243   4.459   5.972
11724TIP3   OH235114   3.936   2.925   5.796
11724TIP3    H135115   3.991   2.858   5.754
11724TIP3    H235116   3.989   2.955   5.870
11725TIP3   OH235117   7.246   2.178   6.486
11725TIP3    H135118   7.294   2.198   6.405
11725TIP3    H235119   7.174   2.241   6.487
11726TIP3   OH235120   0.516   5.652   6.483
11726TIP3    H135121   0.577   5.619   6.417
11726TIP3    H235122   0.545   5.611   6.565
11727TIP3   OH235123   5.441   2.687   4.699
11727TIP3    H135124   5.437   2.738   4.618
11727TIP3    H235125   5.532   2.658   4.704
11728TIP3   OH235126   6.843   5.749   4.143
11728TIP3    H135127   6.924   5.758   4.192
11728TIP3    H235128   6.792   5.827   4.165
11729TIP3   OH235129   8.311   4.702   3.542
11729TIP3    H135130   8.321   4.774   3.605
11729TIP3    H235131   8.220   4.675   3.550
11730TIP3   OH235132   0.905   5.507   4.815
11730TIP3    H135133   0.892   5.584   4.871
11730TIP3    H235134   0.989   5.471   4.843
11731TIP3   OH235135   0.543   4.869   4.761
11731TIP3    H135136   0.524   4.778   4.782
11731TIP3    H235137   0.460   4.904   4.727
11732TIP3   OH235138   7.467   0.838   1.784
11732TIP3    H135139   7.502   0.926   1.801
11732TIP3    H235140   7.421   0.815   1.864
11733TIP3   OH235141   6.229   5.812   1.606
11733TIP3    H135142   6.262   5.734   1.561
11733TIP3    H235143   6.212   5.874   1.535
11734TIP3   OH235144   0.075   2.372   4.873
11734TIP3    H135145   0.065   2.293   4.927
11734TIP3    H235146   0.078   2.339   4.783
11735TIP3   OH235147   4.049   4.500   1.792
11735TIP3    H135148   4.137   4.532   1.809
11735TIP3    H235149   4.060   4.409   1.766
11736TIP3   OH235150   6.515   5.233   0.135
11736TIP3    H135151   6.539   5.176   0.209
11736TIP3    H235152   6.597   5.247   0.088
11737TIP3   OH235153   7.935   2.339   0.670
11737TIP3    H135154   7.881   2.264   0.691
11737TIP3    H235155   7.878   2.415   0.683
11738TIP3   OH235156   5.838   3.567   2.263
11738TIP3    H135157   5.827   3.658   2.237
11738TIP3    H235158   5.748   3.533   2.273
11739TIP3   OH235159   1.910   1.930   1.966
11739TIP3    H135160   1.884   1.840   1.985
11739TIP3    H235161   1.986   1.945   2.023
11740TIP3   OH235162   0.125   4.489   1.838
11740TIP3    H135163   0.174   4.566   1.808
11740TIP3    H235164   0.064   4.469   1.766
11741TIP3   OH235165   7.128   4.688   2.764
11741TIP3    H135166   7.110   4.780   2.745
11741TIP3    H235167   7.096   4.674   2.853
11742TIP3   OH235168   4.747   5.310   2.237
11742TIP3    H135169   4.813   5.311   2.167
11742TIP3    H235170   4.664   5.302   2.191
11743TIP3   OH235171   5.501   4.986   3.750
11743TIP3    H135172   5.499   4.900   3.708
11743TIP3    H235173   5.433   4.981   3.817
11744TIP3   OH235174   2.914   2.719   2.735
11744TIP3    H135175   2.956   2.705   2.650
11744TIP3    H235176   2.936   2.641   2.785
11745TIP3   OH235177   6.177   6.160   0.898
11745TIP3    H135178   6.258   6.117   0.870
11745TIP3    H235179   6.128   6.174   0.817
11746TIP3   OH235180   3.844   2.498   1.099
11746TIP3    H135181   3.799   2.579   1.073
11746TIP3    H235182   3.898   2.476   1.023
11747TIP3   OH235183   1.569   5.246   4.795
11747TIP3    H135184   1.589   5.272   4.885
11747TIP3    H235185   1.543   5.327   4.752
11748TIP3   OH235186   0.938   1.561   0.977
11748TIP3    H135187   0.906   1.616   0.906
11748TIP3    H235188   0.965   1.623   1.045
11749TIP3   OH235189   7.530   1.059   3.545
11749TIP3    H135190   7.591   1.115   3.496
11749TIP3    H235191   7.447   1.107   3.544
11750TIP3   OH235192   5.557   0.002   5.856
11750TIP3    H135193   5.540   0.093   5.879
11750TIP3    H235194   5.648  -0.013   5.882
11751TIP3   OH235195   6.139   6.775   3.430
11751TIP3    H135196   6.203   6.729   3.375
11751TIP3    H235197   6.094   6.706   3.478
11752TIP3   OH235198   1.887   3.023   6.471
11752TIP3    H135199   1.943   3.100   6.477
11752TIP3    H235200   1.836   3.025   6.552
11753TIP3   OH235201   4.816   3.450   0.613
11753TIP3    H135202   4.883   3.383   0.597
11753TIP3    H235203   4.794   3.482   0.525
11754TIP3   OH235204   3.901   1.682   1.731
11754TIP3    H135205   3.947   1.603   1.701
11754TIP3    H235206   3.809   1.657   1.733
11755TIP3   OH235207   5.410   7.575   5.542
11755TIP3    H135208   5.350   7.598   5.613
11755TIP3    H235209   5.486   7.537   5.585
11756TIP3   OH235210   2.764   2.665   5.998
11756TIP3    H135211   2.731   2.749   5.966
11756TIP3    H235212   2.720   2.600   5.943
11757TIP3   OH235213   7.234   5.742   2.820
11757TIP3    H135214   7.272   5.710   2.902
11757TIP3    H235215   7.274   5.687   2.753
11758TIP3   OH235216   6.986   4.177   2.477
11758TIP3    H135217   7.016   4.088   2.496
11758TIP3    H235218   6.912   4.166   2.418
11759TIP3   OH235219   0.048   7.615   2.706
11759TIP3    H135220   0.123   7.645   2.758
11759TIP3    H235221   0.086   7.582   2.625
11760TIP3   OH235222   6.545   3.657   0.699
11760TIP3    H135223   6.529   3.611   0.617
11760TIP3    H235224   6.522   3.593   0.767
11761TIP3   OH235225   2.402   6.283   1.803
11761TIP3    H135226   2.423   6.208   1.747
11761TIP3    H235227   2.316   6.263   1.839
11762TIP3   OH235228   1.328   1.706   0.025
11762TIP3    H135229   1.243   1.750   0.018
11762TIP3    H235230   1.355   1.691  -0.065
11763TIP3   OH235231   0.339   5.483   4.747
11763TIP3    H135232   0.272   5.437   4.798
11763TIP3    H235233   0.382   5.413   4.698
11764TIP3   OH235234   8.074   0.231   1.378
11764TIP3    H135235   8.069   0.177   1.299
11764TIP3    H235236   7.993   0.283   1.377
11765TIP3   OH235237   6.318   5.952   2.124
11765TIP3    H135238   6.300   5.913   2.038
11765TIP3    H235239   6.276   6.038   2.120
11766TIP3   OH235240   6.888   5.431   1.450
11766TIP3    H135241   6.906   5.353   1.398
11766TIP3    H235242   6.793   5.443   1.442
11767TIP3   OH235243   6.610   5.742   2.997
11767TIP3    H135244   6.553   5.667   2.982
11767TIP3    H235245   6.576   5.810   2.939
11768TIP3   OH235246   6.812   7.573   0.453
11768TIP3    H135247   6.877   7.518   0.411
11768TIP3    H235248   6.798   7.645   0.391
11769TIP3   OH235249   0.964   2.304   1.143
11769TIP3    H135250   1.046   2.255   1.137
11769TIP3    H235251   0.991   2.395   1.156
11770TIP3   OH235252   4.722   2.921   3.249
11770TIP3    H135253   4.785   2.862   3.208
11770TIP3    H235254   4.682   2.968   3.175
11771TIP3   OH235255   2.186   6.396   5.650
11771TIP3    H135256   2.162   6.383   5.741
11771TIP3    H235257   2.278   6.368   5.645
11772TIP3   OH235258   4.294   7.153   3.536
11772TIP3    H135259   4.280   7.059   3.530
11772TIP3    H235260   4.352   7.174   3.462
11773TIP3   OH235261   6.927   3.605   4.959
11773TIP3    H135262   7.019   3.582   4.972
11773TIP3    H235263   6.919   3.694   4.994
11774TIP3   OH235264   2.436   5.255   4.392
11774TIP3    H135265   2.400   5.167   4.383
11774TIP3    H235266   2.370   5.312   4.351
11775TIP3   OH235267   0.872   6.607   4.279
11775TIP3    H135268   0.813   6.648   4.215
11775TIP3    H235269   0.847   6.646   4.363
11776TIP3   OH235270   0.469   0.703   0.888
11776TIP3    H135271   0.534   0.642   0.853
11776TIP3    H235272   0.504   0.789   0.866
11777TIP3   OH235273   3.727   1.962   1.200
11777TIP3    H135274   3.765   1.935   1.284
11777TIP3    H235275   3.638   1.927   1.201
11778TIP3   OH235276   6.571   1.258   5.466
11778TIP3    H135277   6.635   1.329   5.458
11778TIP3    H235278   6.541   1.244   5.376
11779TIP3   OH235279   3.439   3.019   6.768
11779TIP3    H135280   3.471   3.060   6.689
11779TIP3    H235281   3.384   2.947   6.737
11780TIP3   OH235282   5.551   3.193   3.998
11780TIP3    H135283   5.596   3.170   3.917
11780TIP3    H235284   5.481   3.252   3.970
11781TIP3   OH235285   6.595   6.413   1.988
11781TIP3    H135286   6.647   6.342   2.025
11781TIP3    H235287   6.593   6.395   1.894
11782TIP3   OH235288   6.598   4.028   5.733
11782TIP3    H135289   6.675   4.085   5.723
11782TIP3    H235290   6.633   3.940   5.721
11783TIP3   OH235291   1.415   4.602   4.015
11783TIP3    H135292   1.419   4.669   3.946
11783TIP3    H235293   1.386   4.523   3.970
11784TIP3   OH235294   5.487   6.994   5.222
11784TIP3    H135295   5.486   6.916   5.167
11784TIP3    H235296   5.465   6.962   5.309
11785TIP3   OH235297   7.025   4.406   5.136
11785TIP3    H135298   6.977   4.422   5.055
11785TIP3    H235299   7.075   4.486   5.151
11786TIP3   OH235300   1.201   2.036   5.578
11786TIP3    H135301   1.275   2.027   5.638
11786TIP3    H235302   1.241   2.058   5.494
11787TIP3   OH235303   1.332   2.933   3.943
11787TIP3    H135304   1.383   2.853   3.926
11787TIP3    H235305   1.343   2.985   3.864
11788TIP3   OH235306   4.099   7.617   2.474
11788TIP3    H135307   4.075   7.578   2.390
11788TIP3    H235308   4.044   7.573   2.538
11789TIP3   OH235309   3.584   7.039   3.413
11789TIP3    H135310   3.516   7.025   3.479
11789TIP3    H235311   3.554   7.115   3.364
11790TIP3   OH235312   3.942  -0.002   1.633
11790TIP3    H135313   3.968   0.090   1.641
11790TIP3    H235314   3.849   0.002   1.612
11791TIP3   OH235315   2.699   5.399   0.929
11791TIP3    H135316   2.663   5.386   1.017
11791TIP3    H235317   2.699   5.312   0.890
11792TIP3   OH235318   7.237   1.075   0.769
11792TIP3    H135319   7.329   1.063   0.793
11792TIP3    H235320   7.211   0.991   0.732
11793TIP3   OH235321   4.915   1.816   0.296
11793TIP3    H135322   4.977   1.755   0.336
11793TIP3    H235323   4.960   1.850   0.220
11794TIP3   OH235324   3.350   0.372   0.132
11794TIP3    H135325   3.368   0.278   0.126
11794TIP3    H235326   3.315   0.385   0.220
11795TIP3   OH235327   5.901   5.162   0.949
11795TIP3    H135328   5.845   5.166   1.027
11795TIP3    H235329   5.911   5.069   0.932
11796TIP3   OH235330   6.670   1.065   0.276
11796TIP3    H135331   6.741   1.022   0.323
11796TIP3    H235332   6.640   0.998   0.214
11797TIP3   OH235333   3.850   2.557   5.430
11797TIP3    H135334   3.862   2.643   5.470
11797TIP3    H235335   3.826   2.500   5.503
11798TIP3   OH235336   0.448   0.474   0.068
11798TIP3    H135337   0.434   0.390   0.112
11798TIP3    H235338   0.380   0.479   0.002
11799TIP3   OH235339   1.126   2.840   3.332
11799TIP3    H135340   1.213   2.858   3.297
11799TIP3    H235341   1.074   2.917   3.307
11800TIP3   OH235342   4.604   2.009   4.914
11800TIP3    H135343   4.560   1.978   4.835
11800TIP3    H235344   4.686   2.046   4.883
11801TIP3   OH235345   1.496   7.451   0.708
11801TIP3    H135346   1.455   7.455   0.794
11801TIP3    H235347   1.460   7.525   0.660
11802TIP3   OH235348   4.105   7.314   5.583
11802TIP3    H135349   4.142   7.401   5.568
11802TIP3    H235350   4.033   7.329   5.645
11803TIP3   OH235351   3.877   5.354   2.673
11803TIP3    H135352   3.859   5.265   2.704
11803TIP3    H235353   3.934   5.391   2.740
11804TIP3   OH235354   0.641   1.014   6.470
11804TIP3    H135355   0.604   1.101   6.486
11804TIP3    H235356   0.623   0.996   6.378
11805TIP3   OH235357   6.584   0.831   5.315
11805TIP3    H135358   6.672   0.796   5.330
11805TIP3    H235359   6.533   0.756   5.286
11806TIP3   OH235360   0.309   4.845   0.384
11806TIP3    H135361   0.288   4.847   0.478
11806TIP3    H235362   0.404   4.844   0.381
11807TIP3   OH235363   3.088   5.198   2.070
11807TIP3    H135364   3.057   5.190   1.980
11807TIP3    H235365   3.013   5.174   2.124
11808TIP3   OH235366   7.414   1.807   6.142
11808TIP3    H135367   7.325   1.773   6.155
11808TIP3    H235368   7.414   1.838   6.051
11809TIP3   OH235369   4.950   0.640   1.703
11809TIP3    H135370   4.946   0.637   1.799
11809TIP3    H235371   4.859   0.642   1.676
11810TIP3   OH235372   7.497   2.834   6.215
11810TIP3    H135373   7.442   2.898   6.170
11810TIP3    H235374   7.527   2.880   6.294
11811TIP3   OH235375   3.902   0.806   6.728
11811TIP3    H135376   3.879   0.714   6.716
11811TIP3    H235377   3.955   0.827   6.651
11812TIP3   OH235378   0.819   5.032   5.211
11812TIP3    H135379   0.816   5.052   5.305
11812TIP3    H235380   0.890   4.968   5.202
11813TIP3   OH235381   0.794   5.386   5.880
11813TIP3    H135382   0.883   5.419   5.872
11813TIP3    H235383   0.803   5.303   5.927
11814TIP3   OH235384   1.390   7.851   4.812
11814TIP3    H135385   1.360   7.761   4.827
11814TIP3    H235386   1.482   7.849   4.840
11815TIP3   OH235387   7.265   3.527   4.451
11815TIP3    H135388   7.265   3.576   4.369
11815TIP3    H235389   7.349   3.549   4.492
11816TIP3   OH235390   0.287   2.874   2.146
11816TIP3    H135391   0.316   2.892   2.057
11816TIP3    H235392   0.363   2.896   2.201
11817TIP3   OH235393   3.276   0.361   1.817
11817TIP3    H135394   3.217   0.434   1.834
11817TIP3    H235395   3.253   0.331   1.729
11818TIP3   OH235396   4.637   7.229   6.753
11818TIP3    H135397   4.675   7.149   6.716
11818TIP3    H235398   4.710   7.271   6.798
11819TIP3   OH235399   0.862   2.645   2.223
11819TIP3    H135400   0.847   2.734   2.193
11819TIP3    H235401   0.796   2.593   2.178
11820TIP3   OH235402   6.976   6.634   6.641
11820TIP3    H135403   6.882   6.649   6.630
11820TIP3    H235404   7.005   6.703   6.701
11821TIP3   OH235405   1.474   6.816   4.854
11821TIP3    H135406   1.402   6.830   4.916
11821TIP3    H235407   1.473   6.722   4.836
11822TIP3   OH235408   3.238   5.679   1.087
11822TIP3    H135409   3.254   5.772   1.068
11822TIP3    H235410   3.144   5.667   1.073
11823TIP3   OH235411   3.720   5.438   6.513
11823TIP3    H135412   3.687   5.493   6.443
11823TIP3    H235413   3.816   5.443   6.506
11824TIP3   OH235414   3.529   2.590   2.304
11824TIP3    H135415   3.482   2.529   2.361
11824TIP3    H235416   3.472   2.600   2.228
11825TIP3   OH235417   5.245   4.984   5.395
11825TIP3    H135418   5.312   4.983   5.464
11825TIP3    H235419   5.294   4.994   5.314
11826TIP3   OH235420   2.615   3.506   6.637
11826TIP3    H135421   2.526   3.519   6.607
11826TIP3    H235422   2.633   3.581   6.693
11827TIP3   OH235423   5.623   3.691   6.487
11827TIP3    H135424   5.709   3.703   6.526
11827TIP3    H235425   5.595   3.780   6.462
11828TIP3   OH235426   5.860   1.845   6.157
11828TIP3    H135427   5.766   1.865   6.157
11828TIP3    H235428   5.863   1.750   6.145
11829TIP3   OH235429   1.444   3.267   0.665
11829TIP3    H135430   1.397   3.255   0.582
11829TIP3    H235431   1.496   3.187   0.674
11830TIP3   OH235432   1.612   1.788   2.883
11830TIP3    H135433   1.525   1.783   2.845
11830TIP3    H235434   1.601   1.839   2.963
11831TIP3   OH235435   1.191   2.677   0.655
11831TIP3    H135436   1.183   2.772   0.665
11831TIP3    H235437   1.153   2.641   0.735
11832TIP3   OH235438   6.678   3.423   5.691
11832TIP3    H135439   6.669   3.516   5.669
11832TIP3    H235440   6.681   3.378   5.607
11833TIP3   OH235441   7.423   7.633   0.941
11833TIP3    H135442   7.413   7.720   0.903
11833TIP3    H235443   7.491   7.591   0.887
11834TIP3   OH235444   5.711   4.140   3.805
11834TIP3    H135445   5.699   4.149   3.899
11834TIP3    H235446   5.768   4.064   3.794
11835TIP3   OH235447   1.174   2.327   0.763
11835TIP3    H135448   1.118   2.254   0.737
11835TIP3    H235449   1.202   2.367   0.681
11836TIP3   OH235450   3.751   0.698   2.587
11836TIP3    H135451   3.657   0.714   2.581
11836TIP3    H235452   3.781   0.698   2.496
11837TIP3   OH235453   7.569   1.174   6.320
11837TIP3    H135454   7.554   1.269   6.324
11837TIP3    H235455   7.535   1.148   6.234
11838TIP3   OH235456   7.738   5.164   1.173
11838TIP3    H135457   7.667   5.214   1.131
11838TIP3    H235458   7.813   5.178   1.116
11839TIP3   OH235459   0.962   4.520   1.307
11839TIP3    H135460   0.984   4.540   1.216
11839TIP3    H235461   0.996   4.432   1.322
11840TIP3   OH235462   5.302   0.959   5.201
11840TIP3    H135463   5.219   0.935   5.161
11840TIP3    H235464   5.348   0.876   5.213
11841TIP3   OH235465   1.108   0.301   3.255
11841TIP3    H135466   1.113   0.342   3.168
11841TIP3    H235467   1.017   0.311   3.281
11842TIP3   OH235468   3.906   6.618   3.557
11842TIP3    H135469   3.819   6.641   3.524
11842TIP3    H235470   3.935   6.548   3.500
11843TIP3   OH235471   3.276   7.409   4.348
11843TIP3    H135472   3.232   7.480   4.394
11843TIP3    H235473   3.338   7.373   4.412
11844TIP3   OH235474   5.193   5.386   3.456
11844TIP3    H135475   5.221   5.295   3.463
11844TIP3    H235476   5.200   5.407   3.363
11845TIP3   OH235477   3.450   4.869   3.136
11845TIP3    H135478   3.491   4.953   3.118
11845TIP3    H235479   3.436   4.830   3.050
11846TIP3   OH235480   3.517   1.365   2.761
11846TIP3    H135481   3.428   1.360   2.797
11846TIP3    H235482   3.528   1.282   2.714
11847TIP3   OH235483   3.839   5.374   5.351
11847TIP3    H135484   3.826   5.280   5.339
11847TIP3    H235485   3.852   5.409   5.262
11848TIP3   OH235486   4.398   3.970   2.261
11848TIP3    H135487   4.472   3.909   2.255
11848TIP3    H235488   4.372   3.985   2.170
11849TIP3   OH235489   4.411   4.267   6.722
11849TIP3    H135490   4.347   4.275   6.652
11849TIP3    H235491   4.386   4.333   6.787
11850TIP3   OH235492   6.816   0.483   5.836
11850TIP3    H135493   6.837   0.398   5.875
11850TIP3    H235494   6.722   0.494   5.850
11851TIP3   OH235495   2.775   2.468   6.217
11851TIP3    H135496   2.841   2.526   6.257
11851TIP3    H235497   2.742   2.518   6.143
11852TIP3   OH235498   7.914   3.031   3.362
11852TIP3    H135499   8.005   3.033   3.334
11852TIP3    H235500   7.900   2.941   3.391
11853TIP3   OH235501   0.056   4.967   4.692
11853TIP3    H135502  -0.001   4.922   4.630
11853TIP3    H235503   0.136   4.986   4.642
11854TIP3   OH235504   2.394   0.524   2.344
11854TIP3    H135505   2.449   0.507   2.421
11854TIP3    H235506   2.381   0.438   2.305
11855TIP3   OH235507   6.264   5.782   2.978
11855TIP3    H135508   6.320   5.705   2.967
11855TIP3    H235509   6.317   5.845   3.026
11856TIP3   OH235510   5.312   4.832   2.886
11856TIP3    H135511   5.217   4.847   2.885
11856TIP3    H235512   5.324   4.748   2.842
11857TIP3   OH235513   2.119   4.479   0.076
11857TIP3    H135514   2.111   4.419   0.150
11857TIP3    H235515   2.096   4.565   0.112
11858TIP3   OH235516   5.199   3.902   0.238
11858TIP3    H135517   5.238   3.943   0.160
11858TIP3    H235518   5.157   3.823   0.204
11859TIP3   OH235519   3.383   5.900   3.795
11859TIP3    H135520   3.380   5.879   3.888
11859TIP3    H235521   3.322   5.973   3.784
11860TIP3   OH235522   3.581   1.413   6.129
11860TIP3    H135523   3.520   1.483   6.152
11860TIP3    H235524   3.658   1.430   6.183
11861TIP3   OH235525   8.099   0.718   6.197
11861TIP3    H135526   8.051   0.715   6.114
11861TIP3    H235527   8.155   0.796   6.189
11862TIP3   OH235528   0.931   2.652   2.498
11862TIP3    H135529   0.879   2.664   2.419
11862TIP3    H235530   1.020   2.636   2.467
11863TIP3   OH235531   2.927   2.517   1.976
11863TIP3    H135532   2.846   2.547   1.935
11863TIP3    H235533   2.990   2.514   1.905
11864TIP3   OH235534   2.720   0.108   6.567
11864TIP3    H135535   2.809   0.125   6.535
11864TIP3    H235536   2.669   0.183   6.536
11865TIP3   OH235537   6.887   3.330   2.463
11865TIP3    H135538   6.930   3.355   2.381
11865TIP3    H235539   6.823   3.400   2.479
11866TIP3   OH235540   4.400   7.710   4.438
11866TIP3    H135541   4.473   7.768   4.419
11866TIP3    H235542   4.337   7.765   4.485
11867TIP3   OH235543   5.274   1.212   2.759
11867TIP3    H135544   5.284   1.174   2.672
11867TIP3    H235545   5.253   1.137   2.815
11868TIP3   OH235546   0.950   1.269   1.087
11868TIP3    H135547   0.905   1.339   1.134
11868TIP3    H235548   0.936   1.290   0.994
11869TIP3   OH235549   1.108   7.374   2.451
11869TIP3    H135550   1.051   7.390   2.376
11869TIP3    H235551   1.077   7.291   2.487
11870TIP3   OH235552   7.707   3.684   1.640
11870TIP3    H135553   7.766   3.627   1.591
11870TIP3    H235554   7.730   3.668   1.732
11871TIP3   OH235555   6.653   7.073   2.786
11871TIP3    H135556   6.582   7.070   2.722
11871TIP3    H235557   6.732   7.053   2.735
11872TIP3   OH235558   4.151   1.220   0.014
11872TIP3    H135559   4.240   1.215  -0.021
11872TIP3    H235560   4.134   1.314   0.024
11873TIP3   OH235561   0.844   6.406   2.691
11873TIP3    H135562   0.788   6.480   2.668
11873TIP3    H235563   0.921   6.446   2.731
11874TIP3   OH235564   1.538   1.149   0.792
11874TIP3    H135565   1.590   1.179   0.717
11874TIP3    H235566   1.547   1.218   0.857
11875TIP3   OH235567   1.071   1.747   4.750
11875TIP3    H135568   1.163   1.759   4.726
11875TIP3    H235569   1.022   1.798   4.685
11876TIP3   OH235570   4.245   3.078   0.704
11876TIP3    H135571   4.263   3.035   0.788
11876TIP3    H235572   4.331   3.108   0.674
11877TIP3   OH235573   5.810   5.603   2.444
11877TIP3    H135574   5.897   5.643   2.453
11877TIP3    H235575   5.826   5.509   2.456
11878TIP3   OH235576   5.959   5.892   4.141
11878TIP3    H135577   5.943   5.864   4.231
11878TIP3    H235578   5.903   5.835   4.088
11879TIP3   OH235579   5.732   4.170   2.475
11879TIP3    H135580   5.675   4.241   2.446
11879TIP3    H235581   5.684   4.129   2.548
11880TIP3   OH235582   3.924   5.768   2.442
11880TIP3    H135583   4.003   5.715   2.453
11880TIP3    H235584   3.952   5.842   2.388
11881TIP3   OH235585   7.451   2.314   0.757
11881TIP3    H135586   7.518   2.301   0.690
11881TIP3    H235587   7.369   2.292   0.713
11882TIP3   OH235588   0.151   0.186   0.530
11882TIP3    H135589   0.169   0.173   0.623
11882TIP3    H235590   0.065   0.147   0.516
11883TIP3   OH235591   1.954   2.251   6.661
11883TIP3    H135592   1.939   2.334   6.617
11883TIP3    H235593   1.955   2.186   6.590
11884TIP3   OH235594   6.804   2.114   4.692
11884TIP3    H135595   6.874   2.119   4.627
11884TIP3    H235596   6.734   2.169   4.656
11885TIP3   OH235597   3.376   6.378   3.162
11885TIP3    H135598   3.364   6.300   3.109
11885TIP3    H235599   3.417   6.347   3.242
11886TIP3   OH235600   1.115   1.839   4.225
11886TIP3    H135601   1.167   1.888   4.288
11886TIP3    H235602   1.109   1.751   4.261
11887TIP3   OH235603   3.896   7.306   6.514
11887TIP3    H135604   3.801   7.300   6.518
11887TIP3    H235605   3.920   7.359   6.590
11888TIP3   OH235606   1.514   7.593   3.185
11888TIP3    H135607   1.437   7.542   3.161
11888TIP3    H235608   1.519   7.663   3.120
11889TIP3   OH235609   5.664   0.426   1.350
11889TIP3    H135610   5.709   0.511   1.350
11889TIP3    H235611   5.593   0.436   1.413
11890TIP3   OH235612   5.158   2.895   1.159
11890TIP3    H135613   5.143   2.805   1.132
11890TIP3    H235614   5.170   2.891   1.254
11891TIP3   OH235615   3.521   6.462   0.722
11891TIP3    H135616   3.603   6.434   0.763
11891TIP3    H235617   3.547   6.528   0.658
11892TIP3   OH235618   5.354   7.554   1.478
11892TIP3    H135619   5.376   7.493   1.408
11892TIP3    H235620   5.422   7.621   1.473
11893TIP3   OH235621   1.580   3.420   4.283
11893TIP3    H135622   1.613   3.438   4.371
11893TIP3    H235623   1.486   3.406   4.295
11894TIP3   OH235624   1.008   4.974   4.802
11894TIP3    H135625   1.050   5.039   4.747
11894TIP3    H235626   0.924   5.014   4.826
11895TIP3   OH235627   0.760   2.491   4.968
11895TIP3    H135628   0.679   2.522   4.928
11895TIP3    H235629   0.822   2.562   4.955
11896TIP3   OH235630   4.579   1.277   1.363
11896TIP3    H135631   4.632   1.272   1.443
11896TIP3    H235632   4.504   1.220   1.381
11897TIP3   OH235633   1.486   4.550   4.479
11897TIP3    H135634   1.553   4.566   4.545
11897TIP3    H235635   1.523   4.583   4.398
11898TIP3   OH235636   5.285   3.330   1.936
11898TIP3    H135637   5.330   3.262   1.986
11898TIP3    H235638   5.342   3.347   1.861
11899TIP3   OH235639   6.172   3.632   0.967
11899TIP3    H135640   6.216   3.585   1.038
11899TIP3    H235641   6.201   3.723   0.976
11900TIP3   OH235642   2.359   4.966   6.709
11900TIP3    H135643   2.266   4.986   6.719
11900TIP3    H235644   2.364   4.919   6.626
11901TIP3   OH235645   3.925   1.914   3.717
11901TIP3    H135646   4.017   1.891   3.705
11901TIP3    H235647   3.908   1.982   3.652
11902TIP3   OH235648   5.557   2.296   4.766
11902TIP3    H135649   5.498   2.318   4.694
11902TIP3    H235650   5.643   2.289   4.725
11903TIP3   OH235651   7.643   1.430   2.679
11903TIP3    H135652   7.655   1.418   2.774
11903TIP3    H235653   7.560   1.476   2.671
11904TIP3   OH235654   4.645   3.959   0.279
11904TIP3    H135655   4.651   4.034   0.220
11904TIP3    H235656   4.698   3.984   0.355
11905TIP3   OH235657   5.561   1.089   6.223
11905TIP3    H135658   5.539   1.115   6.312
11905TIP3    H235659   5.497   1.134   6.168
11906TIP3   OH235660   7.563   2.337   5.733
11906TIP3    H135661   7.590   2.246   5.748
11906TIP3    H235662   7.548   2.373   5.821
11907TIP3   OH235663   7.369   1.776   3.734
11907TIP3    H135664   7.294   1.785   3.794
11907TIP3    H235665   7.423   1.853   3.753
11908TIP3   OH235666   5.787   6.396   1.160
11908TIP3    H135667   5.829   6.476   1.194
11908TIP3    H235668   5.787   6.336   1.234
11909TIP3   OH235669   2.925   6.463   2.474
11909TIP3    H135670   2.917   6.425   2.561
11909TIP3    H235671   2.920   6.389   2.414
11910TIP3   OH235672   3.776   1.839   4.625
11910TIP3    H135673   3.771   1.913   4.685
11910TIP3    H235674   3.817   1.875   4.546
11911TIP3   OH235675   1.531   6.660   3.924
11911TIP3    H135676   1.594   6.666   3.852
11911TIP3    H235677   1.526   6.748   3.960
11912TIP3   OH235678   3.511   0.861   5.024
11912TIP3    H135679   3.416   0.871   5.015
11912TIP3    H235680   3.522   0.785   5.081
11913TIP3   OH235681   5.333   2.371   1.079
11913TIP3    H135682   5.372   2.367   0.992
11913TIP3    H235683   5.318   2.279   1.103
11914TIP3   OH235684   0.971   4.448   5.297
11914TIP3    H135685   1.063   4.469   5.315
11914TIP3    H235686   0.922   4.522   5.333
11915TIP3   OH235687   5.153   4.970   0.583
11915TIP3    H135688   5.127   4.881   0.558
11915TIP3    H235689   5.088   4.996   0.649
11916TIP3   OH235690   0.820   1.014   4.675
11916TIP3    H135691   0.886   0.970   4.729
11916TIP3    H235692   0.782   0.943   4.623
11917TIP3   OH235693   2.119   6.551   5.441
11917TIP3    H135694   2.172   6.531   5.364
11917TIP3    H235695   2.148   6.490   5.508
11918TIP3   OH235696   2.978   1.762   5.522
11918TIP3    H135697   2.954   1.718   5.441
11918TIP3    H235698   3.053   1.713   5.555
11919TIP3   OH235699   3.651   6.169   5.131
11919TIP3    H135700   3.589   6.113   5.084
11919TIP3    H235701   3.734   6.157   5.085
11920TIP3   OH235702   1.873   0.621   3.964
11920TIP3    H135703   1.846   0.530   3.948
11920TIP3    H235704   1.944   0.636   3.902
11921TIP3   OH235705   1.046   5.476   2.321
11921TIP3    H135706   1.106   5.431   2.261
11921TIP3    H235707   1.068   5.568   2.311
11922TIP3   OH235708   5.059   4.690   1.497
11922TIP3    H135709   4.987   4.643   1.539
11922TIP3    H235710   5.031   4.782   1.496
11923TIP3   OH235711   4.736   7.427   2.781
11923TIP3    H135712   4.710   7.414   2.691
11923TIP3    H235713   4.810   7.488   2.776
11924TIP3   OH235714   7.680   1.738   1.355
11924TIP3    H135715   7.750   1.803   1.365
11924TIP3    H235716   7.725   1.654   1.363
11925TIP3   OH235717   4.141   2.126   5.330
11925TIP3    H135718   4.076   2.193   5.310
11925TIP3    H235719   4.214   2.144   5.270
11926TIP3   OH235720   2.576   1.128   6.174
11926TIP3    H135721   2.482   1.129   6.194
11926TIP3    H235722   2.613   1.069   6.240
11927TIP3   OH235723   0.523   2.369   5.192
11927TIP3    H135724   0.537   2.284   5.148
11927TIP3    H235725   0.439   2.400   5.158
11928TIP3   OH235726   2.401   2.172   4.757
11928TIP3    H135727   2.464   2.243   4.765
11928TIP3    H235728   2.398   2.153   4.663
11929TIP3   OH235729   2.901   6.428   2.753
11929TIP3    H135730   2.959   6.400   2.824
11929TIP3    H235731   2.914   6.523   2.748
11930TIP3   OH235732   5.386   6.589   2.316
11930TIP3    H135733   5.291   6.602   2.314
11930TIP3    H235734   5.414   6.628   2.398
11931TIP3   OH235735   6.792   1.710   6.730
11931TIP3    H135736   6.807   1.741   6.640
11931TIP3    H235737   6.702   1.735   6.749
11932TIP3   OH235738   4.097   3.539   4.848
11932TIP3    H135739   4.090   3.595   4.925
11932TIP3    H235740   4.175   3.485   4.864
11933TIP3   OH235741   0.856   6.391   5.267
11933TIP3    H135742   0.761   6.390   5.261
11933TIP3    H235743   0.880   6.298   5.276
11934TIP3   OH235744   3.929   3.754   3.512
11934TIP3    H135745   4.012   3.751   3.560
11934TIP3    H235746   3.943   3.821   3.445
11935TIP3   OH235747   6.646   3.730   4.462
11935TIP3    H135748   6.676   3.793   4.396
11935TIP3    H235749   6.561   3.763   4.491
11936TIP3   OH235750   2.905   4.981   0.735
11936TIP3    H135751   2.948   5.064   0.754
11936TIP3    H235752   2.931   4.960   0.645
11937TIP3   OH235753   1.376   1.001   4.334
11937TIP3    H135754   1.448   1.024   4.393
11937TIP3    H235755   1.372   0.906   4.336
11938TIP3   OH235756   0.202   1.279   4.953
11938TIP3    H135757   0.141   1.342   4.914
11938TIP3    H235758   0.153   1.197   4.955
11939TIP3   OH235759   6.691   7.689   4.618
11939TIP3    H135760   6.766   7.746   4.598
11939TIP3    H235761   6.725   7.629   4.684
11940TIP3   OH235762   0.778   6.667   3.758
11940TIP3    H135763   0.839   6.651   3.686
11940TIP3    H235764   0.782   6.761   3.773
11941TIP3   OH235765   7.566   0.427   4.311
11941TIP3    H135766   7.521   0.435   4.227
11941TIP3    H235767   7.657   0.451   4.293
11942TIP3   OH235768   6.822   2.650   0.114
11942TIP3    H135769   6.826   2.658   0.019
11942TIP3    H235770   6.904   2.689   0.145
11943TIP3   OH235771   8.204   0.883   3.396
11943TIP3    H135772   8.190   0.929   3.479
11943TIP3    H235773   8.125   0.900   3.346
11944TIP3   OH235774   8.110   1.732   2.053
11944TIP3    H135775   8.028   1.684   2.046
11944TIP3    H235776   8.089   1.808   2.108
11945TIP3   OH235777   5.229   7.550   3.016
11945TIP3    H135778   5.294   7.602   2.969
11945TIP3    H235779   5.264   7.542   3.105
11946TIP3   OH235780   5.492   0.984   2.304
11946TIP3    H135781   5.563   0.921   2.292
11946TIP3    H235782   5.524   1.065   2.263
11947TIP3   OH235783   3.681   2.975   1.308
11947TIP3    H135784   3.620   2.982   1.234
11947TIP3    H235785   3.673   3.058   1.354
11948TIP3   OH235786   5.108   0.783   4.219
11948TIP3    H135787   5.068   0.837   4.287
11948TIP3    H235788   5.057   0.802   4.140
11949TIP3   OH235789   2.044   0.698   3.751
11949TIP3    H135790   2.059   0.791   3.767
11949TIP3    H235791   2.129   0.657   3.766
11950TIP3   OH235792   2.719   3.853   0.965
11950TIP3    H135793   2.756   3.924   0.912
11950TIP3    H235794   2.678   3.794   0.901
11951TIP3   OH235795   3.610   3.947   2.204
11951TIP3    H135796   3.596   3.858   2.172
11951TIP3    H235797   3.703   3.950   2.225
11952TIP3   OH235798   1.910   2.858   1.880
11952TIP3    H135799   1.835   2.913   1.904
11952TIP3    H235800   1.885   2.819   1.796
11953TIP3   OH235801   6.067   5.347   1.368
11953TIP3    H135802   6.141   5.405   1.384
11953TIP3    H235803   6.094   5.263   1.405
11954TIP3   OH235804   4.245   1.365   0.834
11954TIP3    H135805   4.331   1.385   0.872
11954TIP3    H235806   4.251   1.393   0.743
11955TIP3   OH235807   5.460   1.470   6.487
11955TIP3    H135808   5.527   1.533   6.514
11955TIP3    H235809   5.424   1.436   6.568
11956TIP3   OH235810   4.275   1.270   3.326
11956TIP3    H135811   4.230   1.186   3.336
11956TIP3    H235812   4.319   1.285   3.410
11957TIP3   OH235813   6.413   5.920   2.534
11957TIP3    H135814   6.403   6.015   2.544
11957TIP3    H235815   6.338   5.883   2.580
11958TIP3   OH235816   8.016   6.748   2.113
11958TIP3    H135817   7.992   6.817   2.175
11958TIP3    H235818   7.951   6.755   2.043
11959TIP3   OH235819   7.939   5.577   6.249
11959TIP3    H135820   7.878   5.518   6.203
11959TIP3    H235821   8.019   5.525   6.258
11960TIP3   OH235822   8.085   1.956   5.393
11960TIP3    H135823   8.158   1.998   5.439
11960TIP3    H235824   8.015   1.951   5.458
11961TIP3   OH235825   3.854   6.894   4.096
11961TIP3    H135826   3.893   6.895   4.009
11961TIP3    H235827   3.780   6.954   4.090
11962TIP3   OH235828   1.857   3.573   6.256
11962TIP3    H135829   1.772   3.605   6.226
11962TIP3    H235830   1.844   3.479   6.269
11963TIP3   OH235831   0.308   7.660   4.341
11963TIP3    H135832   0.238   7.703   4.293
11963TIP3    H235833   0.275   7.652   4.430
11964TIP3   OH235834   4.230   0.492   0.388
11964TIP3    H135835   4.255   0.537   0.307
11964TIP3    H235836   4.136   0.475   0.378
11965TIP3   OH235837   3.263   5.442   4.406
11965TIP3    H135838   3.179   5.415   4.368
11965TIP3    H235839   3.263   5.405   4.494
11966TIP3   OH235840   3.082   3.786   4.517
11966TIP3    H135841   3.114   3.850   4.454
11966TIP3    H235842   3.159   3.762   4.569
11967TIP3   OH235843   2.235   6.263   4.020
11967TIP3    H135844   2.237   6.184   4.074
11967TIP3    H235845   2.295   6.323   4.063
11968TIP3   OH235846   0.735   6.647   6.531
11968TIP3    H135847   0.676   6.708   6.487
11968TIP3    H235848   0.724   6.667   6.624
11969TIP3   OH235849   0.905   5.515   0.675
11969TIP3    H135850   0.896   5.607   0.701
11969TIP3    H235851   0.999   5.501   0.665
11970TIP3   OH235852   6.237   4.125   5.104
11970TIP3    H135853   6.331   4.114   5.114
11970TIP3    H235854   6.218   4.209   5.146
11971TIP3   OH235855   3.203   7.774   2.910
11971TIP3    H135856   3.252   7.849   2.945
11971TIP3    H235857   3.114   7.786   2.942
11972TIP3   OH235858   5.874   6.877   1.108
11972TIP3    H135859   5.841   6.952   1.157
11972TIP3    H235860   5.947   6.912   1.057
11973TIP3   OH235861   7.098   6.662   0.917
11973TIP3    H135862   7.117   6.646   0.825
11973TIP3    H235863   7.009   6.628   0.930
11974TIP3   OH235864   0.392   2.378   5.614
11974TIP3    H135865   0.338   2.438   5.665
11974TIP3    H235866   0.334   2.306   5.590
11975TIP3   OH235867   1.035   4.557   1.910
11975TIP3    H135868   1.032   4.617   1.985
11975TIP3    H235869   1.010   4.472   1.946
11976TIP3   OH235870   2.987   2.170   1.216
11976TIP3    H135871   2.934   2.113   1.272
11976TIP3    H235872   3.066   2.120   1.198
11977TIP3   OH235873   5.695   3.846   3.505
11977TIP3    H135874   5.634   3.827   3.434
11977TIP3    H235875   5.773   3.880   3.462
11978TIP3   OH235876   3.879   4.696   6.579
11978TIP3    H135877   3.873   4.789   6.561
11978TIP3    H235878   3.789   4.669   6.597
11979TIP3   OH235879   1.400   5.758   6.020
11979TIP3    H135880   1.381   5.852   6.016
11979TIP3    H235881   1.481   5.753   6.071
11980TIP3   OH235882   7.674   2.591   6.711
11980TIP3    H135883   7.613   2.548   6.771
11980TIP3    H235884   7.758   2.590   6.757
11981TIP3   OH235885   5.654   0.266   5.169
11981TIP3    H135886   5.642   0.171   5.171
11981TIP3    H235887   5.631   0.291   5.080
11982TIP3   OH235888   3.485   3.815   0.221
11982TIP3    H135889   3.557   3.763   0.186
11982TIP3    H235890   3.528   3.887   0.267
11983TIP3   OH235891   3.377   6.181   1.630
11983TIP3    H135892   3.363   6.097   1.675
11983TIP3    H235893   3.472   6.188   1.625
11984TIP3   OH235894   0.764   5.464   2.997
11984TIP3    H135895   0.721   5.548   2.979
11984TIP3    H235896   0.701   5.415   3.050
11985TIP3   OH235897   4.945   4.479   2.231
11985TIP3    H135898   5.030   4.523   2.234
11985TIP3    H235899   4.921   4.480   2.138
11986TIP3   OH235900   2.390   1.086   3.478
11986TIP3    H135901   2.451   1.064   3.549
11986TIP3    H235902   2.303   1.078   3.518
11987TIP3   OH235903   6.152   1.174   2.074
11987TIP3    H135904   6.120   1.084   2.079
11987TIP3    H235905   6.085   1.221   2.026
11988TIP3   OH235906   4.469   1.645   1.527
11988TIP3    H135907   4.451   1.732   1.562
11988TIP3    H235908   4.461   1.655   1.432
11989TIP3   OH235909   5.512   2.694   2.488
11989TIP3    H135910   5.493   2.755   2.417
11989TIP3    H235911   5.607   2.700   2.499
11990TIP3   OH235912   7.680   3.065   2.874
11990TIP3    H135913   7.730   3.135   2.914
11990TIP3    H235914   7.592   3.074   2.910
11991TIP3   OH235915   6.792   1.995   3.225
11991TIP3    H135916   6.741   1.918   3.249
11991TIP3    H235917   6.821   1.978   3.135
11992TIP3   OH235918   7.383   1.535   2.199
11992TIP3    H135919   7.410   1.444   2.210
11992TIP3    H235920   7.449   1.573   2.141
11993TIP3   OH235921   2.305   2.284   0.496
11993TIP3    H135922   2.347   2.206   0.457
11993TIP3    H235923   2.374   2.323   0.550
11994TIP3   OH235924   0.613   0.474   5.912
11994TIP3    H135925   0.689   0.456   5.856
11994TIP3    H235926   0.650   0.521   5.987
11995TIP3   OH235927   0.293   6.951   4.265
11995TIP3    H135928   0.224   7.016   4.281
11995TIP3    H235929   0.333   6.936   4.351
11996TIP3   OH235930   6.968   0.086   0.238
11996TIP3    H135931   6.883   0.121   0.211
11996TIP3    H235932   7.015   0.069   0.156
11997TIP3   OH235933   1.671   1.277   0.601
11997TIP3    H135934   1.688   1.366   0.631
11997TIP3    H235935   1.614   1.287   0.524
11998TIP3   OH235936   1.689   7.180   5.573
11998TIP3    H135937   1.637   7.186   5.493
11998TIP3    H235938   1.704   7.086   5.585
11999TIP3   OH235939   4.988   3.729   5.601
11999TIP3    H135940   5.055   3.690   5.658
11999TIP3    H235941   4.967   3.813   5.644
12000TIP3   OH235942   3.779   1.095   1.356
12000TIP3    H135943   3.729   1.159   1.306
12000TIP3    H235944   3.772   1.124   1.447
12001TIP3   OH235945   4.441   0.804   2.475
12001TIP3    H135946   4.414   0.876   2.533
12001TIP3    H235947   4.428   0.838   2.387
12002TIP3   OH235948   0.579   1.857   1.977
12002TIP3    H135949   0.574   1.814   1.892
12002TIP3    H235950   0.498   1.833   2.021
12003TIP3   OH235951   1.787   3.134   0.328
12003TIP3    H135952   1.737   3.063   0.288
12003TIP3    H235953   1.875   3.125   0.292
12004TIP3   OH235954   0.560   5.982   5.381
12004TIP3    H135955   0.541   5.905   5.327
12004TIP3    H235956   0.574   5.947   5.469
12005TIP3   OH235957   4.391   5.265   4.454
12005TIP3    H135958   4.314   5.242   4.402
12005TIP3    H235959   4.408   5.357   4.434
12006TIP3   OH235960   2.335   2.549   1.221
12006TIP3    H135961   2.338   2.455   1.235
12006TIP3    H235962   2.422   2.570   1.185
12007TIP3   OH235963   0.670   4.321   3.326
12007TIP3    H135964   0.631   4.362   3.248
12007TIP3    H235965   0.734   4.259   3.290
12008TIP3   OH235966   1.114   7.164   1.850
12008TIP3    H135967   1.026   7.132   1.829
12008TIP3    H235968   1.148   7.102   1.915
12009TIP3   OH235969   1.221   6.848   5.801
12009TIP3    H135970   1.255   6.902   5.729
12009TIP3    H235971   1.126   6.851   5.790
12010TIP3   OH235972   7.169   6.834   4.539
12010TIP3    H135973   7.239   6.856   4.478
12010TIP3    H235974   7.193   6.878   4.620
12011TIP3   OH235975   7.372   4.449   4.590
12011TIP3    H135976   7.329   4.483   4.668
12011TIP3    H235977   7.315   4.378   4.560
12012TIP3   OH235978   3.796   0.310   1.863
12012TIP3    H135979   3.707   0.275   1.869
12012TIP3    H235980   3.847   0.255   1.923
12013TIP3   OH235981   5.926   7.808   2.379
12013TIP3    H135982   5.889   7.807   2.291
12013TIP3    H235983   5.895   7.890   2.417
12014TIP3   OH235984   6.334   1.891   5.942
12014TIP3    H135985   6.243   1.876   5.966
12014TIP3    H235986   6.341   1.857   5.852
12015TIP3   OH235987   1.923   6.187   3.040
12015TIP3    H135988   1.892   6.118   2.981
12015TIP3    H235989   1.855   6.254   3.038
12016TIP3   OH235990   3.384   3.931   1.461
12016TIP3    H135991   3.313   3.890   1.510
12016TIP3    H235992   3.341   3.998   1.408
12017TIP3   OH235993   3.520   5.053   3.645
12017TIP3    H135994   3.442   5.107   3.646
12017TIP3    H235995   3.587   5.106   3.687
12018TIP3   OH235996   2.698   3.027   3.302
12018TIP3    H135997   2.755   2.983   3.365
12018TIP3    H235998   2.630   3.069   3.355
12019TIP3   OH235999   0.041   4.414   5.609
12019TIP3    H136000   0.079   4.327   5.605
12019TIP3    H236001  -0.051   4.402   5.586
12020TIP3   OH236002   7.517   4.106   4.767
12020TIP3    H136003   7.567   4.101   4.685
12020TIP3    H236004   7.583   4.119   4.835
12021TIP3   OH236005   1.847   3.181   4.900
12021TIP3    H136006   1.868   3.250   4.963
12021TIP3    H236007   1.883   3.214   4.817
12022TIP3   OH236008   8.220   5.504   6.307
12022TIP3    H136009   8.226   5.575   6.371
12022TIP3    H236010   8.310   5.471   6.298
12023TIP3   OH236011   7.781   7.668   1.024
12023TIP3    H136012   7.831   7.662   0.943
12023TIP3    H236013   7.768   7.577   1.051
12024TIP3   OH236014   7.115   5.765   3.583
12024TIP3    H136015   7.031   5.720   3.577
12024TIP3    H236016   7.149   5.743   3.670
12025TIP3   OH236017   4.170   7.076   3.044
12025TIP3    H136018   4.265   7.078   3.038
12025TIP3    H236019   4.150   7.115   3.129
12026TIP3   OH236020   4.166   4.664   4.289
12026TIP3    H136021   4.119   4.747   4.301
12026TIP3    H236022   4.252   4.691   4.257
12027TIP3   OH236023   1.336   4.158   1.647
12027TIP3    H136024   1.398   4.230   1.660
12027TIP3    H236025   1.349   4.101   1.723
12028TIP3   OH236026   4.820   2.642   5.308
12028TIP3    H136027   4.831   2.547   5.321
12028TIP3    H236028   4.845   2.680   5.393
12029TIP3   OH236029   7.776   6.576   2.397
12029TIP3    H136030   7.750   6.618   2.479
12029TIP3    H236031   7.721   6.498   2.392
12030TIP3   OH236032   8.018   7.713   5.877
12030TIP3    H136033   7.924   7.715   5.859
12030TIP3    H236034   8.053   7.650   5.814
12031TIP3   OH236035   5.938   3.899   0.258
12031TIP3    H136036   5.964   3.991   0.253
12031TIP3    H236037   5.864   3.897   0.318
12032TIP3   OH236038   4.470   6.199   0.058
12032TIP3    H136039   4.476   6.116   0.106
12032TIP3    H236040   4.525   6.186  -0.019
12033TIP3   OH236041   2.504   3.163   6.170
12033TIP3    H136042   2.475   3.247   6.206
12033TIP3    H236043   2.423   3.112   6.163
12034TIP3   OH236044   6.064   0.230   3.673
12034TIP3    H136045   6.148   0.277   3.666
12034TIP3    H236046   6.070   0.181   3.755
12035TIP3   OH236047   6.258   1.035   2.351
12035TIP3    H136048   6.244   1.078   2.435
12035TIP3    H236049   6.231   1.100   2.286
12036TIP3   OH236050   6.518   6.801   4.885
12036TIP3    H136051   6.511   6.832   4.976
12036TIP3    H236052   6.498   6.878   4.832
12037TIP3   OH236053   5.702   5.965   1.321
12037TIP3    H136054   5.787   6.002   1.300
12037TIP3    H236055   5.705   5.949   1.415
12038TIP3   OH236056   0.564   0.463   3.436
12038TIP3    H136057   0.573   0.483   3.529
12038TIP3    H236058   0.469   0.463   3.421
12039TIP3   OH236059   0.201   2.021   1.234
12039TIP3    H136060   0.212   1.926   1.244
12039TIP3    H236061   0.255   2.058   1.303
12040TIP3   OH236062   5.191   5.114   2.199
12040TIP3    H136063   5.225   5.047   2.140
12040TIP3    H236064   5.263   5.177   2.207
12041TIP3   OH236065   6.811   1.667   5.636
12041TIP3    H136066   6.725   1.625   5.625
12041TIP3    H236067   6.792   1.747   5.685
12042TIP3   OH236068   3.273   0.238   0.982
12042TIP3    H136069   3.366   0.235   1.007
12042TIP3    H236070   3.265   0.172   0.913
12043TIP3   OH236071   7.225   4.772   0.924
12043TIP3    H136072   7.253   4.805   0.839
12043TIP3    H236073   7.252   4.680   0.925
12044TIP3   OH236074   3.771   5.234   4.858
12044TIP3    H136075   3.794   5.230   4.765
12044TIP3    H236076   3.676   5.243   4.859
12045TIP3   OH236077   4.257   6.931   3.385
12045TIP3    H136078   4.352   6.917   3.385
12045TIP3    H236079   4.220   6.843   3.387
12046TIP3   OH236080   0.722   4.359   1.249
12046TIP3    H136081   0.729   4.449   1.282
12046TIP3    H236082   0.795   4.312   1.290
12047TIP3   OH236083   7.747   4.665   0.297
12047TIP3    H136084   7.803   4.701   0.366
12047TIP3    H236085   7.705   4.742   0.258
12048TIP3   OH236086   7.173   7.139   3.664
12048TIP3    H136087   7.268   7.140   3.677
12048TIP3    H236088   7.147   7.049   3.680
12049TIP3   OH236089   0.128   7.217   5.891
12049TIP3    H136090   0.203   7.272   5.869
12049TIP3    H236091   0.052   7.273   5.880
12050TIP3   OH236092   2.130   3.237   4.188
12050TIP3    H136093   2.114   3.330   4.172
12050TIP3    H236094   2.195   3.236   4.259
12051TIP3   OH236095   6.295   7.374   1.680
12051TIP3    H136096   6.240   7.401   1.753
12051TIP3    H236097   6.250   7.298   1.644
12052TIP3   OH236098   4.185   0.563   4.980
12052TIP3    H136099   4.251   0.603   5.037
12052TIP3    H236100   4.179   0.472   5.011
12053TIP3   OH236101   7.271   0.833   2.507
12053TIP3    H136102   7.248   0.840   2.600
12053TIP3    H236103   7.295   0.922   2.481
12054TIP3   OH236104   1.020   1.658   2.563
12054TIP3    H136105   0.939   1.690   2.525
12054TIP3    H236106   1.020   1.692   2.652
12055TIP3   OH236107   3.262   4.866   6.718
12055TIP3    H136108   3.333   4.822   6.764
12055TIP3    H236109   3.220   4.797   6.666
12056TIP3   OH236110   3.746   1.671   6.199
12056TIP3    H136111   3.698   1.657   6.117
12056TIP3    H236112   3.834   1.694   6.172
12057TIP3   OH236113   0.195   4.525   2.416
12057TIP3    H136114   0.230   4.462   2.353
12057TIP3    H236115   0.273   4.567   2.453
12058TIP3   OH236116   7.936   2.332   3.218
12058TIP3    H136117   8.031   2.330   3.234
12058TIP3    H236118   7.906   2.244   3.239
12059TIP3   OH236119   8.119   6.594   3.222
12059TIP3    H136120   8.056   6.663   3.240
12059TIP3    H236121   8.077   6.541   3.154
12060TIP3   OH236122   4.876   6.794   5.887
12060TIP3    H136123   4.794   6.842   5.901
12060TIP3    H236124   4.851   6.702   5.889
12061TIP3   OH236125   4.094   1.176   6.359
12061TIP3    H136126   4.089   1.265   6.396
12061TIP3    H236127   4.057   1.120   6.427
12062TIP3   OH236128   6.469   2.874   3.398
12062TIP3    H136129   6.408   2.801   3.388
12062TIP3    H236130   6.444   2.915   3.481
12063TIP3   OH236131   1.382   6.625   5.745
12063TIP3    H136132   1.325   6.574   5.687
12063TIP3    H236133   1.334   6.706   5.761
12064TIP3   OH236134   0.490   0.276   5.511
12064TIP3    H136135   0.403   0.237   5.500
12064TIP3    H236136   0.479   0.340   5.581
12065TIP3   OH236137   0.935   4.015   0.828
12065TIP3    H136138   0.933   4.066   0.747
12065TIP3    H236139   0.929   4.080   0.897
12066TIP3   OH236140   3.405   3.186   4.917
12066TIP3    H136141   3.414   3.187   4.821
12066TIP3    H236142   3.491   3.216   4.948
12067TIP3   OH236143   4.853   7.417   1.408
12067TIP3    H136144   4.866   7.483   1.477
12067TIP3    H236145   4.905   7.449   1.334
12068TIP3   OH236146   3.469   2.999   4.408
12068TIP3    H136147   3.424   2.948   4.341
12068TIP3    H236148   3.452   2.952   4.490
12069TIP3   OH236149   4.842   7.725   0.612
12069TIP3    H136150   4.800   7.669   0.678
12069TIP3    H236151   4.900   7.782   0.662
12070TIP3   OH236152   3.597   3.056   1.739
12070TIP3    H136153   3.619   3.103   1.658
12070TIP3    H236154   3.676   3.005   1.759
12071TIP3   OH236155   4.614   0.743   0.042
12071TIP3    H136156   4.550   0.806   0.073
12071TIP3    H236157   4.672   0.728   0.117
12072TIP3   OH236158   7.288   3.137   3.823
12072TIP3    H136159   7.219   3.088   3.777
12072TIP3    H236160   7.241   3.194   3.883
12073TIP3   OH236161   1.708   2.589   1.940
12073TIP3    H136162   1.704   2.639   1.858
12073TIP3    H236163   1.743   2.651   2.003
12074TIP3   OH236164   4.755   2.677   0.673
12074TIP3    H136165   4.672   2.632   0.655
12074TIP3    H236166   4.730   2.752   0.728
12075TIP3   OH236167   4.936   6.774   3.598
12075TIP3    H136168   4.872   6.754   3.667
12075TIP3    H236169   4.900   6.732   3.520
12076TIP3   OH236170   1.140   3.985   6.175
12076TIP3    H136171   1.203   3.927   6.217
12076TIP3    H236172   1.110   4.043   6.244
12077TIP3   OH236173   3.332   6.919   4.994
12077TIP3    H136174   3.270   6.883   5.058
12077TIP3    H236175   3.292   7.001   4.965
12078TIP3   OH236176   2.360   1.468   3.130
12078TIP3    H136177   2.371   1.380   3.093
12078TIP3    H236178   2.312   1.454   3.212
12079TIP3   OH236179   5.437   0.055   5.176
12079TIP3    H136180   5.402  -0.016   5.229
12079TIP3    H236181   5.364   0.083   5.122
12080TIP3   OH236182   3.086   5.815   6.113
12080TIP3    H136183   3.167   5.778   6.150
12080TIP3    H236184   3.030   5.830   6.190
12081TIP3   OH236185   6.776   6.268   4.632
12081TIP3    H136186   6.707   6.289   4.695
12081TIP3    H236187   6.732   6.216   4.565
12082TIP3   OH236188   3.067   6.522   4.999
12082TIP3    H136189   2.998   6.544   4.936
12082TIP3    H236190   3.037   6.560   5.081
12083TIP3   OH236191   4.978   3.831   4.012
12083TIP3    H136192   4.897   3.882   4.011
12083TIP3    H236193   5.048   3.896   4.018
12084TIP3   OH236194   7.784   4.999   4.035
12084TIP3    H136195   7.829   5.070   4.081
12084TIP3    H236196   7.693   5.029   4.029
12085TIP3   OH236197   6.280   3.342   5.992
12085TIP3    H136198   6.232   3.357   6.073
12085TIP3    H236199   6.357   3.399   5.999
12086TIP3   OH236200   0.023   1.515   5.879
12086TIP3    H136201   0.112   1.539   5.853
12086TIP3    H236202   0.010   1.427   5.844
12087TIP3   OH236203   2.620   4.894   3.136
12087TIP3    H136204   2.713   4.887   3.117
12087TIP3    H236205   2.610   4.857   3.224
12088TIP3   OH236206   7.743   3.248   5.661
12088TIP3    H136207   7.774   3.168   5.618
12088TIP3    H236208   7.807   3.314   5.637
12089TIP3   OH236209   3.573   1.715   3.395
12089TIP3    H136210   3.584   1.804   3.429
12089TIP3    H236211   3.662   1.679   3.391
12090TIP3   OH236212   7.257   5.681   4.197
12090TIP3    H136213   7.312   5.637   4.262
12090TIP3    H236214   7.193   5.615   4.170
12091TIP3   OH236215   4.249   3.057   1.831
12091TIP3    H136216   4.248   2.969   1.869
12091TIP3    H236217   4.218   3.114   1.901
12092TIP3   OH236218   0.124   1.394   3.596
12092TIP3    H136219   0.203   1.365   3.641
12092TIP3    H236220   0.146   1.481   3.563
12093TIP3   OH236221   1.746   2.945   6.050
12093TIP3    H136222   1.687   2.982   5.983
12093TIP3    H236223   1.770   3.020   6.104
12094TIP3   OH236224   8.233   6.009   4.268
12094TIP3    H136225   8.142   6.008   4.237
12094TIP3    H236226   8.271   6.087   4.226
12095TIP3   OH236227   0.597   2.629   2.455
12095TIP3    H136228   0.614   2.628   2.361
12095TIP3    H236229   0.552   2.712   2.471
12096TIP3   OH236230   5.692   2.175   1.170
12096TIP3    H136231   5.634   2.187   1.095
12096TIP3    H236232   5.635   2.181   1.246
12097TIP3   OH236233   2.682   5.085   3.948
12097TIP3    H136234   2.659   5.000   3.987
12097TIP3    H236235   2.615   5.145   3.981
12098TIP3   OH236236   5.479   3.921   0.092
12098TIP3    H136237   5.538   3.847   0.075
12098TIP3    H236238   5.433   3.935   0.009
12099TIP3   OH236239   2.324   6.782   2.690
12099TIP3    H136240   2.336   6.815   2.602
12099TIP3    H236241   2.255   6.716   2.682
12100TIP3   OH236242   5.541   2.668   4.183
12100TIP3    H136243   5.496   2.643   4.102
12100TIP3    H236244   5.566   2.759   4.169
12101TIP3   OH236245   3.057   2.753   6.105
12101TIP3    H136246   2.963   2.746   6.123
12101TIP3    H236247   3.078   2.845   6.121
12102TIP3   OH236248   3.994   6.611   6.374
12102TIP3    H136249   4.001   6.691   6.323
12102TIP3    H236250   3.924   6.628   6.437
12103TIP3   OH236251   1.824   5.024   1.380
12103TIP3    H136252   1.856   5.114   1.390
12103TIP3    H236253   1.899   4.976   1.344
12104TIP3   OH236254   2.607   4.319   1.046
12104TIP3    H136255   2.583   4.354   1.132
12104TIP3    H236256   2.684   4.265   1.062
12105TIP3   OH236257   1.817   0.682   1.722
12105TIP3    H136258   1.790   0.773   1.733
12105TIP3    H236259   1.886   0.685   1.654
12106TIP3   OH236260   7.114   5.622   1.398
12106TIP3    H136261   7.065   5.547   1.365
12106TIP3    H236262   7.202   5.612   1.362
12107TIP3   OH236263   1.241   3.832   1.567
12107TIP3    H136264   1.264   3.806   1.478
12107TIP3    H236265   1.324   3.836   1.614
12108TIP3   OH236266   4.114   1.285   5.859
12108TIP3    H136267   4.030   1.319   5.890
12108TIP3    H236268   4.120   1.314   5.768
12109TIP3   OH236269   3.646   3.266   5.520
12109TIP3    H136270   3.617   3.309   5.601
12109TIP3    H236271   3.675   3.179   5.548
12110TIP3   OH236272   2.177   0.037   2.721
12110TIP3    H136273   2.087   0.036   2.753
12110TIP3    H236274   2.226  -0.016   2.785
12111TIP3   OH236275   7.536   6.174   5.950
12111TIP3    H136276   7.556   6.081   5.944
12111TIP3    H236277   7.612   6.218   5.910
12112TIP3   OH236278   1.573   6.822   5.859
12112TIP3    H136279   1.648   6.812   5.917
12112TIP3    H236280   1.520   6.744   5.875
12113TIP3   OH236281   1.083   3.654   3.769
12113TIP3    H136282   1.055   3.563   3.761
12113TIP3    H236283   1.121   3.676   3.684
12114TIP3   OH236284   4.128   6.039   3.471
12114TIP3    H136285   4.203   6.097   3.454
12114TIP3    H236286   4.165   5.966   3.520
12115TIP3   OH236287   2.633   3.343   2.544
12115TIP3    H136288   2.636   3.289   2.622
12115TIP3    H236289   2.699   3.307   2.486
12116TIP3   OH236290   7.817   1.167   5.841
12116TIP3    H136291   7.839   1.186   5.932
12116TIP3    H236292   7.755   1.235   5.816
12117TIP3   OH236293   6.447   3.484   2.631
12117TIP3    H136294   6.421   3.408   2.580
12117TIP3    H236295   6.368   3.512   2.676
12118TIP3   OH236296   7.281   2.061   2.627
12118TIP3    H136297   7.305   2.113   2.550
12118TIP3    H236298   7.326   1.978   2.615
12119TIP3   OH236299   3.426   1.639   6.489
12119TIP3    H136300   3.392   1.662   6.575
12119TIP3    H236301   3.520   1.624   6.503
12120TIP3   OH236302   1.308   1.864   5.887
12120TIP3    H136303   1.362   1.940   5.865
12120TIP3    H236304   1.238   1.899   5.942
12121TIP3   OH236305   3.736   5.687   5.902
12121TIP3    H136306   3.832   5.693   5.905
12121TIP3    H236307   3.709   5.695   5.994
12122TIP3   OH236308   7.010   5.685   6.581
12122TIP3    H136309   7.048   5.701   6.668
12122TIP3    H236310   6.931   5.635   6.598
12123TIP3   OH236311   7.017   5.994   5.897
12123TIP3    H136312   7.032   6.055   5.969
12123TIP3    H236313   6.926   5.967   5.907
12124TIP3   OH236314   5.217   5.209   1.481
12124TIP3    H136315   5.290   5.158   1.443
12124TIP3    H236316   5.200   5.278   1.416
12125TIP3   OH236317   0.646   0.575   0.322
12125TIP3    H136318   0.590   0.506   0.285
12125TIP3    H236319   0.733   0.534   0.328
12126TIP3   OH236320   6.748   1.432   1.072
12126TIP3    H136321   6.726   1.342   1.094
12126TIP3    H236322   6.752   1.433   0.976
12127TIP3   OH236323   5.841   0.517   0.881
12127TIP3    H136324   5.868   0.608   0.893
12127TIP3    H236325   5.815   0.513   0.789
12128TIP3   OH236326   4.099   1.033   1.548
12128TIP3    H136327   4.110   0.966   1.615
12128TIP3    H236328   4.170   1.095   1.563
12129TIP3   OH236329   2.800   6.050   6.070
12129TIP3    H136330   2.731   5.984   6.067
12129TIP3    H236331   2.782   6.100   6.150
12130TIP3   OH236332   3.132   5.313   2.520
12130TIP3    H136333   3.220   5.299   2.555
12130TIP3    H236334   3.084   5.355   2.590
12131TIP3   OH236335   0.587   3.729   6.322
12131TIP3    H136336   0.605   3.803   6.380
12131TIP3    H236337   0.517   3.680   6.366
12132TIP3   OH236338   7.993   7.409   1.790
12132TIP3    H136339   7.945   7.487   1.817
12132TIP3    H236340   7.925   7.347   1.763
12133TIP3   OH236341   7.808   0.036   1.861
12133TIP3    H136342   7.883  -0.018   1.886
12133TIP3    H236343   7.847   0.119   1.833
12134TIP3   OH236344   3.334   0.341   4.795
12134TIP3    H136345   3.257   0.388   4.762
12134TIP3    H236346   3.313   0.248   4.779
12135TIP3   OH236347   5.500   0.480   1.549
12135TIP3    H136348   5.546   0.520   1.623
12135TIP3    H236349   5.408   0.501   1.564
12136TIP3   OH236350   1.408   6.139   2.508
12136TIP3    H136351   1.475   6.203   2.486
12136TIP3    H236352   1.442   6.056   2.476
12137TIP3   OH236353   3.528   4.931   0.543
12137TIP3    H136354   3.552   4.841   0.565
12137TIP3    H236355   3.435   4.927   0.524
12138TIP3   OH236356   8.060   1.267   0.007
12138TIP3    H136357   8.023   1.281   0.094
12138TIP3    H236358   8.002   1.203  -0.034
12139TIP3   OH236359   1.332   7.663   0.597
12139TIP3    H136360   1.268   7.653   0.667
12139TIP3    H236361   1.310   7.746   0.556
12140TIP3   OH236362   0.367   6.133   4.419
12140TIP3    H136363   0.298   6.066   4.424
12140TIP3    H236364   0.433   6.105   4.482
12141TIP3   OH236365   5.578   0.777   1.562
12141TIP3    H136366   5.525   0.756   1.638
12141TIP3    H236367   5.650   0.831   1.596
12142TIP3   OH236368   7.738   7.291   1.746
12142TIP3    H136369   7.680   7.336   1.684
12142TIP3    H236370   7.685   7.281   1.825
12143TIP3   OH236371   6.589   1.834   2.227
12143TIP3    H136372   6.641   1.755   2.214
12143TIP3    H236373   6.500   1.809   2.202
12144TIP3   OH236374   2.054   1.299   5.393
12144TIP3    H136375   2.050   1.278   5.300
12144TIP3    H236376   1.991   1.370   5.403
12145TIP3   OH236377   4.842   3.693   0.720
12145TIP3    H136378   4.906   3.698   0.791
12145TIP3    H236379   4.848   3.602   0.690
12146TIP3   OH236380   0.672   2.883   0.605
12146TIP3    H136381   0.696   2.925   0.687
12146TIP3    H236382   0.726   2.804   0.601
12147TIP3   OH236383   5.798   6.687   0.770
12147TIP3    H136384   5.729   6.736   0.815
12147TIP3    H236385   5.763   6.673   0.682
12148TIP3   OH236386   5.639   1.471   2.810
12148TIP3    H136387   5.563   1.432   2.853
12148TIP3    H236388   5.696   1.496   2.882
12149TIP3   OH236389   5.082   3.164   2.209
12149TIP3    H136390   5.096   3.098   2.277
12149TIP3    H236391   5.158   3.155   2.151
12150TIP3   OH236392   6.122   7.434   0.820
12150TIP3    H136393   6.210   7.452   0.786
12150TIP3    H236394   6.125   7.467   0.910
12151TIP3   OH236395   6.742   4.762   2.187
12151TIP3    H136396   6.689   4.714   2.122
12151TIP3    H236397   6.767   4.843   2.143
12152TIP3   OH236398   1.645   3.597   2.073
12152TIP3    H136399   1.672   3.688   2.057
12152TIP3    H236400   1.581   3.579   2.003
12153TIP3   OH236401   6.984   5.115   5.875
12153TIP3    H136402   7.079   5.104   5.868
12153TIP3    H236403   6.953   5.104   5.785
12154TIP3   OH236404   1.955   0.455   3.611
12154TIP3    H136405   2.027   0.510   3.642
12154TIP3    H236406   1.889   0.517   3.580
12155TIP3   OH236407   5.649   6.457   1.662
12155TIP3    H136408   5.596   6.401   1.605
12155TIP3    H236409   5.600   6.539   1.667
12156TIP3   OH236410   4.268   2.650   1.748
12156TIP3    H136411   4.287   2.641   1.841
12156TIP3    H236412   4.265   2.744   1.732
12157TIP3   OH236413   7.806   7.171   6.281
12157TIP3    H136414   7.894   7.197   6.309
12157TIP3    H236415   7.765   7.134   6.359
12158TIP3   OH236416   1.614   4.633   5.032
12158TIP3    H136417   1.611   4.538   5.021
12158TIP3    H236418   1.545   4.652   5.096
12159TIP3   OH236419   3.540   0.660   1.478
12159TIP3    H136420   3.622   0.687   1.437
12159TIP3    H236421   3.568   0.610   1.556
12160TIP3   OH236422   5.124   6.585   3.743
12160TIP3    H136423   5.173   6.659   3.779
12160TIP3    H236424   5.050   6.624   3.698
12161TIP3   OH236425   6.455   1.206   5.761
12161TIP3    H136426   6.491   1.188   5.674
12161TIP3    H236427   6.486   1.133   5.815
12162TIP3   OH236428   0.197   1.071   2.746
12162TIP3    H136429   0.114   1.034   2.718
12162TIP3    H236430   0.254   1.063   2.669
12163TIP3   OH236431   7.628   2.946   2.385
12163TIP3    H136432   7.706   3.000   2.403
12163TIP3    H236433   7.637   2.872   2.445
12164TIP3   OH236434   1.032   7.058   1.133
12164TIP3    H136435   0.991   6.982   1.093
12164TIP3    H236436   1.047   7.119   1.060
12165TIP3   OH236437   4.457   3.788   3.077
12165TIP3    H136438   4.518   3.720   3.105
12165TIP3    H236439   4.512   3.852   3.031
12166TIP3   OH236440   6.668   1.123   1.409
12166TIP3    H136441   6.573   1.108   1.406
12166TIP3    H236442   6.677   1.218   1.406
12167TIP3   OH236443   1.837   7.122   3.275
12167TIP3    H136444   1.827   7.216   3.288
12167TIP3    H236445   1.849   7.086   3.363
12168TIP3   OH236446   6.831   0.513   0.265
12168TIP3    H136447   6.883   0.545   0.192
12168TIP3    H236448   6.793   0.431   0.234
12169TIP3   OH236449   5.030   0.060   2.541
12169TIP3    H136450   5.095   0.017   2.596
12169TIP3    H236451   4.987  -0.011   2.494
12170TIP3   OH236452   2.263   2.982   4.394
12170TIP3    H136453   2.302   3.059   4.353
12170TIP3    H236454   2.204   2.947   4.328
12171TIP3   OH236455   1.161   2.885   5.615
12171TIP3    H136456   1.232   2.941   5.584
12171TIP3    H236457   1.205   2.808   5.651
12172TIP3   OH236458   8.014   3.513   0.488
12172TIP3    H136459   8.076   3.570   0.442
12172TIP3    H236460   8.009   3.435   0.434
12173TIP3   OH236461   0.301   4.158   3.686
12173TIP3    H136462   0.232   4.196   3.632
12173TIP3    H236463   0.262   4.079   3.723
12174TIP3   OH236464   1.666   3.630   5.980
12174TIP3    H136465   1.623   3.602   5.899
12174TIP3    H236466   1.649   3.559   6.042
12175TIP3   OH236467   4.338   7.535   6.567
12175TIP3    H136468   4.315   7.485   6.645
12175TIP3    H236469   4.433   7.534   6.565
12176TIP3   OH236470   2.206   5.007   5.746
12176TIP3    H136471   2.119   5.046   5.736
12176TIP3    H236472   2.207   4.934   5.685
12177TIP3   OH236473   4.778   7.540   0.823
12177TIP3    H136474   4.806   7.543   0.915
12177TIP3    H236475   4.819   7.461   0.788
12178TIP3   OH236476   4.825   4.416   2.897
12178TIP3    H136477   4.749   4.462   2.931
12178TIP3    H236478   4.803   4.324   2.903
12179TIP3   OH236479   5.308   0.820   1.703
12179TIP3    H136480   5.267   0.855   1.782
12179TIP3    H236481   5.367   0.752   1.735
12180TIP3   OH236482   4.091   4.740   1.121
12180TIP3    H136483   4.153   4.795   1.169
12180TIP3    H236484   4.126   4.736   1.032
12181TIP3   OH236485   7.188   7.175   2.309
12181TIP3    H136486   7.186   7.081   2.326
12181TIP3    H236487   7.134   7.213   2.378
12182TIP3   OH236488   2.590   0.995   6.418
12182TIP3    H136489   2.573   0.901   6.427
12182TIP3    H236490   2.513   1.037   6.457
12183TIP3   OH236491   5.933   2.788   5.395
12183TIP3    H136492   5.975   2.850   5.453
12183TIP3    H236493   5.886   2.842   5.331
12184TIP3   OH236494   2.176   0.473   3.014
12184TIP3    H136495   2.099   0.477   2.957
12184TIP3    H236496   2.236   0.413   2.970
12185TIP3   OH236497   3.792   2.058   6.397
12185TIP3    H136498   3.719   2.006   6.364
12185TIP3    H236499   3.761   2.149   6.392
12186TIP3   OH236500   3.234   2.221   1.380
12186TIP3    H136501   3.251   2.311   1.407
12186TIP3    H236502   3.240   2.169   1.460
12187TIP3   OH236503   2.878   3.862   2.732
12187TIP3    H136504   2.868   3.957   2.719
12187TIP3    H236505   2.972   3.848   2.740
12188TIP3   OH236506   1.109   7.546   4.596
12188TIP3    H136507   1.020   7.566   4.565
12188TIP3    H236508   1.166   7.589   4.533
12189TIP3   OH236509   7.362   0.439   3.268
12189TIP3    H136510   7.313   0.499   3.213
12189TIP3    H236511   7.352   0.473   3.357
12190TIP3   OH236512   1.641   7.432   2.985
12190TIP3    H136513   1.606   7.343   2.992
12190TIP3    H236514   1.632   7.468   3.074
12191TIP3   OH236515   3.361   3.751   5.646
12191TIP3    H136516   3.315   3.831   5.620
12191TIP3    H236517   3.363   3.697   5.567
12192TIP3   OH236518   0.259   5.739   5.108
12192TIP3    H136519   0.189   5.736   5.173
12192TIP3    H236520   0.222   5.791   5.036
12193TIP3   OH236521   3.050   6.087   6.663
12193TIP3    H136522   3.019   6.170   6.627
12193TIP3    H236523   3.120   6.058   6.605
12194TIP3   OH236524   0.666   5.397   2.224
12194TIP3    H136525   0.683   5.438   2.308
12194TIP3    H236526   0.585   5.438   2.193
12195TIP3   OH236527   7.030   0.704   3.374
12195TIP3    H136528   7.049   0.625   3.424
12195TIP3    H236529   6.934   0.707   3.370
12196TIP3   OH236530   7.940   2.709   0.444
12196TIP3    H136531   7.946   2.652   0.367
12196TIP3    H236532   7.946   2.649   0.518
12197TIP3   OH236533   4.635   3.657   0.187
12197TIP3    H136534   4.664   3.598   0.257
12197TIP3    H236535   4.701   3.646   0.118
12198TIP3   OH236536   7.573   4.865   6.139
12198TIP3    H136537   7.566   4.877   6.233
12198TIP3    H236538   7.482   4.869   6.108
12199TIP3   OH236539   6.370   1.713   5.040
12199TIP3    H136540   6.324   1.648   4.987
12199TIP3    H236541   6.391   1.783   4.978
12200TIP3   OH236542   4.565   6.143   1.658
12200TIP3    H136543   4.479   6.135   1.616
12200TIP3    H236544   4.626   6.160   1.587
12201TIP3   OH236545   8.195   5.425   3.986
12201TIP3    H136546   8.102   5.443   4.000
12201TIP3    H236547   8.221   5.371   4.061
12202TIP3   OH236548   5.186   1.510   1.417
12202TIP3    H136549   5.249   1.442   1.391
12202TIP3    H236550   5.199   1.521   1.511
12203TIP3   OH236551   0.045   3.369   2.491
12203TIP3    H136552  -0.028   3.421   2.523
12203TIP3    H236553   0.117   3.431   2.480
12204TIP3   OH236554   7.244   1.091   2.103
12204TIP3    H136555   7.229   1.183   2.126
12204TIP3    H236556   7.256   1.046   2.187
12205TIP3   OH236557   1.624   7.093   3.066
12205TIP3    H136558   1.645   7.011   3.021
12205TIP3    H236559   1.661   7.083   3.154
12206TIP3   OH236560   8.127   2.388   5.474
12206TIP3    H136561   8.217   2.357   5.487
12206TIP3    H236562   8.104   2.431   5.556
12207TIP3   OH236563   4.074   2.681   5.708
12207TIP3    H136564   4.120   2.665   5.626
12207TIP3    H236565   4.104   2.610   5.766
12208TIP3   OH236566   6.340   5.392   2.409
12208TIP3    H136567   6.348   5.304   2.371
12208TIP3    H236568   6.417   5.402   2.464
12209TIP3   OH236569   2.942   4.580   4.959
12209TIP3    H136570   2.969   4.524   5.031
12209TIP3    H236571   3.020   4.589   4.904
12210TIP3   OH236572   2.312   1.924   0.229
12210TIP3    H136573   2.346   1.918   0.139
12210TIP3    H236574   2.286   1.835   0.251
12211TIP3   OH236575   2.200   4.383   4.048
12211TIP3    H136576   2.135   4.453   4.055
12211TIP3    H236577   2.188   4.347   3.960
12212TIP3   OH236578   1.970   1.875   3.028
12212TIP3    H136579   1.919   1.843   2.954
12212TIP3    H236580   2.042   1.813   3.038
12213TIP3   OH236581   2.561   2.663   1.137
12213TIP3    H136582   2.598   2.751   1.149
12213TIP3    H236583   2.628   2.604   1.173
12214TIP3   OH236584   3.595   7.037   2.871
12214TIP3    H136585   3.635   7.049   2.957
12214TIP3    H236586   3.502   7.027   2.889
12215TIP3   OH236587   6.943   1.056   5.748
12215TIP3    H136588   7.024   1.008   5.730
12215TIP3    H236589   6.875   1.004   5.705
12216TIP3   OH236590   7.683   6.487   1.172
12216TIP3    H136591   7.668   6.494   1.078
12216TIP3    H236592   7.756   6.426   1.179
12217TIP3   OH236593   3.235   6.265   2.370
12217TIP3    H136594   3.264   6.320   2.297
12217TIP3    H236595   3.147   6.237   2.345
12218TIP3   OH236596   6.791   0.910   6.241
12218TIP3    H136597   6.808   0.816   6.244
12218TIP3    H236598   6.814   0.936   6.152
12219TIP3   OH236599   0.996   4.617   4.978
12219TIP3    H136600   1.049   4.695   4.992
12219TIP3    H236601   0.911   4.639   5.017
12220TIP3   OH236602   0.069   0.522   0.754
12220TIP3    H136603   0.066   0.614   0.781
12220TIP3    H236604   0.140   0.519   0.689
12221TIP3   OH236605   7.130   1.853   0.975
12221TIP3    H136606   7.069   1.783   0.949
12221TIP3    H236607   7.156   1.830   1.064
12222TIP3   OH236608   5.803   5.804   5.159
12222TIP3    H136609   5.733   5.813   5.224
12222TIP3    H236610   5.884   5.809   5.209
12223TIP3   OH236611   1.986   4.139   4.959
12223TIP3    H136612   2.025   4.089   5.031
12223TIP3    H236613   2.051   4.206   4.939
12224TIP3   OH236614   1.376   1.696   4.912
12224TIP3    H136615   1.387   1.654   4.827
12224TIP3    H236616   1.315   1.639   4.959
12225TIP3   OH236617   3.463   5.480   5.048
12225TIP3    H136618   3.376   5.459   5.083
12225TIP3    H236619   3.444   5.528   4.967
12226TIP3   OH236620   0.724   5.831   0.154
12226TIP3    H136621   0.707   5.806   0.245
12226TIP3    H236622   0.783   5.906   0.160
12227TIP3   OH236623   6.960   3.801   5.282
12227TIP3    H136624   7.037   3.759   5.243
12227TIP3    H236625   6.916   3.843   5.208
12228TIP3   OH236626   6.844   0.560   1.201
12228TIP3    H136627   6.842   0.655   1.187
12228TIP3    H236628   6.753   0.535   1.211
12229TIP3   OH236629   5.342   5.115   4.097
12229TIP3    H136630   5.385   5.131   4.181
12229TIP3    H236631   5.281   5.043   4.114
12230TIP3   OH236632   3.419   0.726   3.085
12230TIP3    H136633   3.328   0.699   3.075
12230TIP3    H236634   3.419   0.784   3.161
12231TIP3   OH236635   7.731   1.235   4.743
12231TIP3    H136636   7.717   1.209   4.652
12231TIP3    H236637   7.782   1.163   4.780
12232TIP3   OH236638   6.252   0.939   1.690
12232TIP3    H136639   6.192   0.981   1.751
12232TIP3    H236640   6.339   0.951   1.728
12233TIP3   OH236641   0.171   1.830   2.772
12233TIP3    H136642   0.263   1.803   2.772
12233TIP3    H236643   0.144   1.824   2.864
12234TIP3   OH236644   1.134   4.354   4.278
12234TIP3    H136645   1.116   4.430   4.222
12234TIP3    H236646   1.153   4.392   4.364
12235TIP3   OH236647   3.569   0.894   0.132
12235TIP3    H136648   3.525   0.893   0.046
12235TIP3    H236649   3.539   0.814   0.175
12236TIP3   OH236650   6.828   4.594   2.407
12236TIP3    H136651   6.784   4.642   2.337
12236TIP3    H236652   6.760   4.540   2.446
12237TIP3   OH236653   0.562   2.260   3.314
12237TIP3    H136654   0.545   2.318   3.388
12237TIP3    H236655   0.556   2.317   3.237
12238TIP3   OH236656   7.337   1.485   5.552
12238TIP3    H136657   7.355   1.537   5.473
12238TIP3    H236658   7.249   1.513   5.580
12239TIP3   OH236659   1.885   6.650   1.027
12239TIP3    H136660   1.930   6.708   1.089
12239TIP3    H236661   1.865   6.572   1.077
12240TIP3   OH236662   4.143   3.175   5.297
12240TIP3    H136663   4.150   3.117   5.222
12240TIP3    H236664   4.140   3.263   5.259
12241TIP3   OH236665   5.897   3.388   6.013
12241TIP3    H136666   5.911   3.317   6.075
12241TIP3    H236667   5.824   3.358   5.959
12242TIP3   OH236668   5.010   7.101   6.149
12242TIP3    H136669   5.055   7.030   6.102
12242TIP3    H236670   4.950   7.056   6.208
12243TIP3   OH236671   4.885   6.945   4.899
12243TIP3    H136672   4.853   6.877   4.958
12243TIP3    H236673   4.916   7.015   4.956
12244TIP3   OH236674   8.259   3.524   3.327
12244TIP3    H136675   8.351   3.497   3.320
12244TIP3    H236676   8.225   3.515   3.238
12245TIP3   OH236677   1.771   3.414   5.677
12245TIP3    H136678   1.811   3.468   5.746
12245TIP3    H236679   1.678   3.434   5.682
12246TIP3   OH236680   5.482   2.604   3.924
12246TIP3    H136681   5.388   2.621   3.925
12246TIP3    H236682   5.489   2.510   3.907
12247TIP3   OH236683   2.479   4.079   4.405
12247TIP3    H136684   2.383   4.082   4.407
12247TIP3    H236685   2.505   4.100   4.495
12248TIP3   OH236686   0.949   0.088   6.008
12248TIP3    H136687   0.971   0.145   5.934
12248TIP3    H236688   0.865   0.121   6.039
12249TIP3   OH236689   6.497   2.620   5.634
12249TIP3    H136690   6.590   2.621   5.658
12249TIP3    H236691   6.476   2.527   5.623
12250TIP3   OH236692   5.914   2.802   4.126
12250TIP3    H136693   5.892   2.720   4.081
12250TIP3    H236694   6.009   2.801   4.132
12251TIP3   OH236695   1.843   3.030   2.911
12251TIP3    H136696   1.762   3.080   2.909
12251TIP3    H236697   1.912   3.095   2.900
12252TIP3   OH236698   0.241   2.103   0.401
12252TIP3    H136699   0.194   2.128   0.480
12252TIP3    H236700   0.210   2.015   0.381
12253TIP3   OH236701   0.868   2.337   3.005
12253TIP3    H136702   0.839   2.428   3.016
12253TIP3    H236703   0.810   2.302   2.937
12254TIP3   OH236704   0.876   1.619   0.282
12254TIP3    H136705   0.962   1.617   0.324
12254TIP3    H236706   0.884   1.559   0.208
12255TIP3   OH236707   3.476   2.558   5.475
12255TIP3    H136708   3.544   2.498   5.444
12255TIP3    H236709   3.396   2.530   5.429
12256TIP3   OH236710   5.293   3.755   0.453
12256TIP3    H136711   5.234   3.801   0.393
12256TIP3    H236712   5.263   3.779   0.540
12257TIP3   OH236713   5.238   4.710   5.369
12257TIP3    H136714   5.167   4.668   5.418
12257TIP3    H236715   5.245   4.798   5.406
12258TIP3   OH236716   7.612   3.850   3.538
12258TIP3    H136717   7.671   3.868   3.464
12258TIP3    H236718   7.663   3.795   3.597
12259TIP3   OH236719   2.732   5.802   2.130
12259TIP3    H136720   2.652   5.771   2.088
12259TIP3    H236721   2.769   5.723   2.171
12260TIP3   OH236722   0.615   1.859   0.545
12260TIP3    H136723   0.681   1.867   0.476
12260TIP3    H236724   0.580   1.948   0.554
12261TIP3   OH236725   4.730   1.726   4.836
12261TIP3    H136726   4.644   1.715   4.877
12261TIP3    H236727   4.773   1.794   4.889
12262TIP3   OH236728   2.892   1.427   3.373
12262TIP3    H136729   2.979   1.441   3.410
12262TIP3    H236730   2.851   1.363   3.432
12263TIP3   OH236731   4.511   7.513   3.558
12263TIP3    H136732   4.471   7.467   3.632
12263TIP3    H236733   4.437   7.552   3.511
12264TIP3   OH236734   0.200   1.245   0.274
12264TIP3    H136735   0.257   1.311   0.312
12264TIP3    H236736   0.253   1.203   0.206
12265TIP3   OH236737   1.795   0.041   1.136
12265TIP3    H136738   1.761  -0.030   1.082
12265TIP3    H236739   1.729   0.109   1.130
12266TIP3   OH236740   3.317   1.777   6.698
12266TIP3    H136741   3.389   1.772   6.761
12266TIP3    H236742   3.238   1.771   6.752
12267TIP3   OH236743   6.754   7.237   3.893
12267TIP3    H136744   6.671   7.226   3.846
12267TIP3    H236745   6.740   7.313   3.949
12268TIP3   OH236746   0.762   4.009   2.454
12268TIP3    H136747   0.815   4.082   2.423
12268TIP3    H236748   0.713   3.980   2.377
12269TIP3   OH236749   5.799   0.599   0.616
12269TIP3    H136750   5.728   0.657   0.643
12269TIP3    H236751   5.781   0.580   0.524
12270TIP3   OH236752   0.908   0.139   6.368
12270TIP3    H136753   0.831   0.110   6.417
12270TIP3    H236754   0.914   0.233   6.388
12271TIP3   OH236755   3.420   6.443   1.074
12271TIP3    H136756   3.345   6.392   1.043
12271TIP3    H236757   3.413   6.441   1.170
12272TIP3   OH236758   5.857   6.269   6.566
12272TIP3    H136759   5.766   6.257   6.539
12272TIP3    H236760   5.907   6.208   6.511
12273TIP3   OH236761   1.491   5.472   5.641
12273TIP3    H136762   1.577   5.508   5.662
12273TIP3    H236763   1.429   5.535   5.679
12274TIP3   OH236764   2.571   5.168   0.568
12274TIP3    H136765   2.529   5.243   0.525
12274TIP3    H236766   2.608   5.117   0.496
12275TIP3   OH236767   2.035   6.312   0.108
12275TIP3    H136768   1.990   6.286   0.188
12275TIP3    H236769   2.102   6.244   0.094
12276TIP3   OH236770   3.510   3.339   0.005
12276TIP3    H136771   3.486   3.306  -0.081
12276TIP3    H236772   3.453   3.414   0.019
12277TIP3   OH236773   3.142   7.825   5.553
12277TIP3    H136774   3.137   7.761   5.623
12277TIP3    H236775   3.051   7.847   5.534
12278TIP3   OH236776   1.009   2.127   0.746
12278TIP3    H136777   0.973   2.106   0.832
12278TIP3    H236778   0.934   2.122   0.687
12279TIP3   OH236779   3.600   2.069   1.559
12279TIP3    H136780   3.677   2.022   1.528
12279TIP3    H236781   3.561   2.012   1.625
12280TIP3   OH236782   1.782   7.222   4.353
12280TIP3    H136783   1.845   7.165   4.310
12280TIP3    H236784   1.729   7.257   4.281
12281TIP3   OH236785   3.972   0.452   0.358
12281TIP3    H136786   3.903   0.385   0.357
12281TIP3    H236787   3.933   0.526   0.311
12282TIP3   OH236788   7.182   5.010   2.890
12282TIP3    H136789   7.253   4.946   2.882
12282TIP3    H236790   7.197   5.071   2.819
12283TIP3   OH236791   5.810   5.203   0.660
12283TIP3    H136792   5.831   5.205   0.754
12283TIP3    H236793   5.750   5.129   0.651
12284TIP3   OH236794   3.956   1.157   6.652
12284TIP3    H136795   3.972   1.127   6.742
12284TIP3    H236796   3.892   1.095   6.617
12285TIP3   OH236797   5.237   0.705   1.047
12285TIP3    H136798   5.188   0.755   0.981
12285TIP3    H236799   5.184   0.626   1.062
12286TIP3   OH236800   1.688   0.426   6.565
12286TIP3    H136801   1.721   0.444   6.477
12286TIP3    H236802   1.645   0.341   6.557
12287TIP3   OH236803   1.960   4.744   3.210
12287TIP3    H136804   2.002   4.660   3.193
12287TIP3    H236805   1.992   4.770   3.296
12288TIP3   OH236806   1.755   6.437   3.567
12288TIP3    H136807   1.851   6.440   3.567
12288TIP3    H236808   1.733   6.398   3.482
12289TIP3   OH236809   2.440   2.572   1.761
12289TIP3    H136810   2.418   2.654   1.805
12289TIP3    H236811   2.499   2.598   1.691
12290TIP3   OH236812   8.099   7.708   3.068
12290TIP3    H136813   8.056   7.737   3.149
12290TIP3    H236814   8.088   7.613   3.069
12291TIP3   OH236815   4.863   3.637   1.583
12291TIP3    H136816   4.913   3.625   1.502
12291TIP3    H236817   4.911   3.588   1.649
12292TIP3   OH236818   7.879   7.486   4.501
12292TIP3    H136819   7.909   7.524   4.584
12292TIP3    H236820   7.792   7.452   4.520
12293TIP3   OH236821   2.260   7.682   0.011
12293TIP3    H136822   2.304   7.765  -0.003
12293TIP3    H236823   2.175   7.705   0.050
12294TIP3   OH236824   3.813   6.927   2.690
12294TIP3    H136825   3.877   6.932   2.761
12294TIP3    H236826   3.730   6.947   2.732
12295TIP3   OH236827   5.228   5.596   4.694
12295TIP3    H136828   5.265   5.552   4.617
12295TIP3    H236829   5.145   5.633   4.663
12296TIP3   OH236830   1.998   1.910   2.598
12296TIP3    H136831   1.924   1.935   2.654
12296TIP3    H236832   2.004   1.815   2.607
12297TIP3   OH236833   6.409   0.875   0.938
12297TIP3    H136834   6.493   0.909   0.907
12297TIP3    H236835   6.346   0.942   0.913
12298TIP3   OH236836   4.752   0.186   6.174
12298TIP3    H136837   4.764   0.281   6.170
12298TIP3    H236838   4.693   0.172   6.248
12299TIP3   OH236839   0.161   2.082   2.674
12299TIP3    H136840   0.145   1.995   2.710
12299TIP3    H236841   0.228   2.068   2.607
12300TIP3   OH236842   7.270   0.568   2.456
12300TIP3    H136843   7.271   0.656   2.493
12300TIP3    H236844   7.326   0.575   2.378
12301TIP3   OH236845   8.099   3.693   4.802
12301TIP3    H136846   8.165   3.627   4.780
12301TIP3    H236847   8.125   3.724   4.889
12302TIP3   OH236848   7.360   2.130   4.422
12302TIP3    H136849   7.350   2.167   4.509
12302TIP3    H236850   7.377   2.037   4.437
12303TIP3   OH236851   6.414   1.647   1.342
12303TIP3    H136852   6.362   1.656   1.422
12303TIP3    H236853   6.355   1.675   1.272
12304TIP3   OH236854   2.775   0.308   0.402
12304TIP3    H136855   2.793   0.373   0.334
12304TIP3    H236856   2.682   0.319   0.422
12305TIP3   OH236857   0.257   0.546   3.525
12305TIP3    H136858   0.169   0.580   3.514
12305TIP3    H236859   0.271   0.544   3.619
12306TIP3   OH236860   2.200   2.555   0.970
12306TIP3    H136861   2.229   2.529   1.057
12306TIP3    H236862   2.266   2.619   0.940
12307TIP3   OH236863   2.947   0.424   5.215
12307TIP3    H136864   3.042   0.419   5.219
12307TIP3    H236865   2.918   0.416   5.306
12308TIP3   OH236866   0.846   2.214   4.796
12308TIP3    H136867   0.818   2.305   4.781
12308TIP3    H236868   0.888   2.188   4.714
12309TIP3   OH236869   7.153   7.117   1.620
12309TIP3    H136870   7.085   7.155   1.675
12309TIP3    H236871   7.144   7.023   1.631
12310TIP3   OH236872   6.485   3.292   2.282
12310TIP3    H136873   6.443   3.337   2.208
12310TIP3    H236874   6.501   3.203   2.250
12311TIP3   OH236875   5.062   3.351   5.530
12311TIP3    H136876   4.983   3.360   5.476
12311TIP3    H236877   5.028   3.353   5.620
12312TIP3   OH236878   0.389   6.520   1.239
12312TIP3    H136879   0.302   6.555   1.260
12312TIP3    H236880   0.439   6.532   1.319
12313TIP3   OH236881   3.004   5.345   2.789
12313TIP3    H136882   3.020   5.389   2.872
12313TIP3    H236883   2.925   5.293   2.804
12314TIP3   OH236884   1.022   2.242   6.042
12314TIP3    H136885   0.956   2.207   6.103
12314TIP3    H236886   1.089   2.174   6.039
12315TIP3   OH236887   3.589   7.309   0.378
12315TIP3    H136888   3.565   7.248   0.308
12315TIP3    H236889   3.619   7.252   0.450
12316TIP3   OH236890   0.342   0.456   3.173
12316TIP3    H136891   0.357   0.496   3.087
12316TIP3    H236892   0.382   0.518   3.235
12317TIP3   OH236893   3.770   5.891   3.412
12317TIP3    H136894   3.811   5.955   3.353
12317TIP3    H236895   3.683   5.926   3.429
12318TIP3   OH236896   0.749   4.488   0.209
12318TIP3    H136897   0.694   4.484   0.287
12318TIP3    H236898   0.752   4.397   0.178
12319TIP3   OH236899   0.597   4.320   4.096
12319TIP3    H136900   0.622   4.408   4.123
12319TIP3    H236901   0.527   4.334   4.031
12320TIP3   OH236902   3.277   0.513   6.273
12320TIP3    H136903   3.330   0.534   6.350
12320TIP3    H236904   3.336   0.467   6.215
12321TIP3   OH236905   0.460   7.365   2.471
12321TIP3    H136906   0.423   7.441   2.517
12321TIP3    H236907   0.387   7.332   2.418
12322TIP3   OH236908   4.988   4.870   5.952
12322TIP3    H136909   4.959   4.842   6.039
12322TIP3    H236910   4.927   4.827   5.891
12323TIP3   OH236911   3.554   1.984   0.583
12323TIP3    H136912   3.630   2.013   0.634
12323TIP3    H236913   3.565   2.025   0.498
12324TIP3   OH236914   5.268   5.262   6.350
12324TIP3    H136915   5.250   5.175   6.386
12324TIP3    H236916   5.363   5.264   6.340
12325TIP3   OH236917   5.552   6.285   0.221
12325TIP3    H136918   5.551   6.286   0.317
12325TIP3    H236919   5.580   6.196   0.199
12326TIP3   OH236920   5.306   6.414   5.353
12326TIP3    H136921   5.244   6.369   5.410
12326TIP3    H236922   5.256   6.486   5.315
12327TIP3   OH236923   5.238   7.583   6.542
12327TIP3    H136924   5.269   7.500   6.506
12327TIP3    H236925   5.228   7.640   6.466
12328TIP3   OH236926   6.035   5.528   0.258
12328TIP3    H136927   5.968   5.558   0.195
12328TIP3    H236928   5.988   5.471   0.318
12329TIP3   OH236929   7.248   1.447   1.114
12329TIP3    H136930   7.312   1.441   1.184
12329TIP3    H236931   7.165   1.465   1.159
12330TIP3   OH236932   3.993   6.942   3.845
12330TIP3    H136933   4.012   6.960   3.752
12330TIP3    H236934   4.076   6.958   3.890
12331TIP3   OH236935   7.452   0.573   1.934
12331TIP3    H136936   7.402   0.561   1.854
12331TIP3    H236937   7.403   0.638   1.984
12332TIP3   OH236938   4.912   0.603   3.910
12332TIP3    H136939   4.995   0.583   3.953
12332TIP3    H236940   4.850   0.541   3.949
12333TIP3   OH236941   7.074   6.339   0.926
12333TIP3    H136942   7.092   6.358   1.018
12333TIP3    H236943   7.009   6.404   0.899
12334TIP3   OH236944   0.730   2.042   3.592
12334TIP3    H136945   0.719   2.006   3.504
12334TIP3    H236946   0.641   2.061   3.620
12335TIP3   OH236947   2.973   7.478   1.345
12335TIP3    H136948   3.010   7.400   1.388
12335TIP3    H236949   2.879   7.471   1.358
12336TIP3   OH236950   3.126   7.209   0.544
12336TIP3    H136951   3.099   7.278   0.605
12336TIP3    H236952   3.218   7.228   0.526
12337TIP3   OH236953   0.174   6.242   1.184
12337TIP3    H136954   0.099   6.204   1.229
12337TIP3    H236955   0.244   6.243   1.249
12338TIP3   OH236956   1.552   2.589   5.547
12338TIP3    H136957   1.536   2.615   5.456
12338TIP3    H236958   1.643   2.559   5.547
12339TIP3   OH236959   1.598   3.118   4.120
12339TIP3    H136960   1.633   3.056   4.056
12339TIP3    H236961   1.516   3.148   4.081
12340TIP3   OH236962   7.881   0.819   5.986
12340TIP3    H136963   7.825   0.864   5.923
12340TIP3    H236964   7.836   0.829   6.070
12341TIP3   OH236965   5.326   1.061   3.824
12341TIP3    H136966   5.271   0.992   3.786
12341TIP3    H236967   5.264   1.115   3.874
12342TIP3   OH236968   5.286   2.872   6.293
12342TIP3    H136969   5.334   2.920   6.361
12342TIP3    H236970   5.308   2.918   6.212
12343TIP3   OH236971   1.349   3.480   0.272
12343TIP3    H136972   1.426   3.470   0.328
12343TIP3    H236973   1.303   3.396   0.280
12344TIP3   OH236974   3.997   5.619   0.638
12344TIP3    H136975   3.964   5.612   0.548
12344TIP3    H236976   3.937   5.680   0.681
12345TIP3   OH236977   1.687   3.174   2.328
12345TIP3    H136978   1.723   3.089   2.349
12345TIP3    H236979   1.715   3.231   2.399
12346TIP3   OH236980   6.599   1.621   1.759
12346TIP3    H136981   6.661   1.556   1.726
12346TIP3    H236982   6.519   1.607   1.708
12347TIP3   OH236983   0.327   7.380   4.717
12347TIP3    H136984   0.241   7.420   4.722
12347TIP3    H236985   0.387   7.454   4.707
12348TIP3   OH236986   6.982   4.126   0.154
12348TIP3    H136987   6.980   4.042   0.198
12348TIP3    H236988   7.062   4.168   0.184
12349TIP3   OH236989   4.305   1.571   2.659
12349TIP3    H136990   4.335   1.496   2.710
12349TIP3    H236991   4.328   1.549   2.568
12350TIP3   OH236992   3.651   0.100   2.977
12350TIP3    H136993   3.574   0.046   2.961
12350TIP3    H236994   3.639   0.132   3.066
12351TIP3   OH236995   2.054   1.724   4.184
12351TIP3    H136996   2.039   1.659   4.253
12351TIP3    H236997   1.983   1.786   4.193
12352TIP3   OH236998   4.984   2.323   2.408
12352TIP3    H136999   4.888   2.318   2.412
12352TIP3    H237000   5.003   2.336   2.315
12353TIP3   OH237001   5.151   5.217   0.850
12353TIP3    H137002   5.221   5.281   0.859
12353TIP3    H237003   5.196   5.135   0.830
12354TIP3   OH237004   7.634   0.805   4.533
12354TIP3    H137005   7.689   0.764   4.599
12354TIP3    H237006   7.674   0.781   4.450
12355TIP3   OH237007   3.389   6.455   4.513
12355TIP3    H137008   3.424   6.496   4.434
12355TIP3    H237009   3.405   6.518   4.582
12356TIP3   OH237010   1.718   5.595   2.332
12356TIP3    H137011   1.694   5.688   2.326
12356TIP3    H237012   1.652   5.557   2.390
12357TIP3   OH237013   2.003   4.828   0.923
12357TIP3    H137014   1.920   4.857   0.887
12357TIP3    H237015   1.980   4.790   1.008
12358TIP3   OH237016   2.873   4.914   5.646
12358TIP3    H137017   2.936   4.846   5.621
12358TIP3    H237018   2.884   4.982   5.580
12359TIP3   OH237019   2.852   0.435   3.540
12359TIP3    H137020   2.770   0.421   3.493
12359TIP3    H237021   2.839   0.517   3.587
12360TIP3   OH237022   4.910   7.446   6.597
12360TIP3    H137023   4.925   7.516   6.660
12360TIP3    H237024   4.997   7.411   6.579
12361TIP3   OH237025   1.179   0.682   1.546
12361TIP3    H137026   1.271   0.682   1.520
12361TIP3    H237027   1.137   0.745   1.487
12362TIP3   OH237028   7.048   3.363   3.118
12362TIP3    H137029   6.974   3.320   3.161
12362TIP3    H237030   7.081   3.425   3.183
12363TIP3   OH237031   4.809   7.274   4.155
12363TIP3    H137032   4.803   7.285   4.060
12363TIP3    H237033   4.718   7.274   4.184
12364TIP3   OH237034   2.155   4.491   0.974
12364TIP3    H137035   2.132   4.446   1.055
12364TIP3    H237036   2.241   4.454   0.950
12365TIP3   OH237037   1.114   1.315   0.288
12365TIP3    H137038   1.177   1.299   0.358
12365TIP3    H237039   1.155   1.382   0.233
12366TIP3   OH237040   2.480   7.732   1.801
12366TIP3    H137041   2.494   7.673   1.728
12366TIP3    H237042   2.569   7.757   1.829
12367TIP3   OH237043   7.737   4.731   3.968
12367TIP3    H137044   7.751   4.823   3.989
12367TIP3    H237045   7.652   4.710   4.007
12368TIP3   OH237046   3.323   4.192   3.033
12368TIP3    H137047   3.253   4.241   3.076
12368TIP3    H237048   3.327   4.109   3.081
12369TIP3   OH237049   7.502   4.212   5.348
12369TIP3    H137050   7.546   4.295   5.328
12369TIP3    H237051   7.557   4.146   5.305
12370TIP3   OH237052   6.484   6.757   6.697
12370TIP3    H137053   6.465   6.695   6.767
12370TIP3    H237054   6.400   6.800   6.680
12371TIP3   OH237055   0.955   3.013   4.334
12371TIP3    H137056   1.002   3.095   4.320
12371TIP3    H237057   0.976   2.960   4.257
12372TIP3   OH237058   4.864   1.653   2.758
12372TIP3    H137059   4.933   1.593   2.732
12372TIP3    H237060   4.786   1.624   2.710
12373TIP3   OH237061   3.589   0.942   2.112
12373TIP3    H137062   3.650   0.871   2.093
12373TIP3    H237063   3.632   1.020   2.078
12374TIP3   OH237064   6.141   5.646   1.955
12374TIP3    H137065   6.236   5.661   1.952
12374TIP3    H237066   6.126   5.600   2.038
12375TIP3   OH237067   5.775   2.938   2.791
12375TIP3    H137068   5.697   2.942   2.848
12375TIP3    H237069   5.827   3.014   2.817
12376TIP3   OH237070   4.183   5.949   6.538
12376TIP3    H137071   4.161   6.024   6.483
12376TIP3    H237072   4.240   5.985   6.607
12377TIP3   OH237073   4.794   3.906   1.579
12377TIP3    H137074   4.765   3.937   1.493
12377TIP3    H237075   4.801   3.811   1.569
12378TIP3   OH237076   2.491   5.641   6.042
12378TIP3    H137077   2.443   5.572   6.087
12378TIP3    H237078   2.581   5.610   6.040
12379TIP3   OH237079   1.950   1.577   3.268
12379TIP3    H137080   1.860   1.605   3.256
12379TIP3    H237081   2.003   1.654   3.247
12380TIP3   OH237082   2.093   2.111   1.825
12380TIP3    H137083   2.026   2.050   1.854
12380TIP3    H237084   2.176   2.063   1.833
12381TIP3   OH237085   6.796   6.146   3.746
12381TIP3    H137086   6.886   6.150   3.714
12381TIP3    H237087   6.796   6.201   3.825
12382TIP3   OH237088   6.441   4.076   4.355
12382TIP3    H137089   6.511   4.104   4.413
12382TIP3    H237090   6.376   4.147   4.359
12383TIP3   OH237091   3.647   7.804   3.779
12383TIP3    H137092   3.573   7.846   3.824
12383TIP3    H237093   3.612   7.782   3.693
12384TIP3   OH237094   5.431   7.642   0.016
12384TIP3    H137095   5.435   7.705  -0.056
12384TIP3    H237096   5.344   7.656   0.055
12385TIP3   OH237097   1.824   3.881   5.645
12385TIP3    H137098   1.802   3.953   5.703
12385TIP3    H237099   1.861   3.814   5.702
12386TIP3   OH237100   3.289   1.973   3.206
12386TIP3    H137101   3.257   1.999   3.292
12386TIP3    H237102   3.384   1.968   3.215
12387TIP3   OH237103   4.258   7.133   5.378
12387TIP3    H137104   4.209   7.213   5.397
12387TIP3    H237105   4.190   7.068   5.359
12388TIP3   OH237106   6.425   5.644   1.985
12388TIP3    H137107   6.443   5.677   2.073
12388TIP3    H237108   6.512   5.635   1.944
12389TIP3   OH237109   6.340   2.818   0.035
12389TIP3    H137110   6.392   2.891   0.001
12389TIP3    H237111   6.332   2.836   0.129
12390TIP3   OH237112   0.466   5.054   3.050
12390TIP3    H137113   0.524   4.990   3.093
12390TIP3    H237114   0.378   5.026   3.075
12391TIP3   OH237115   4.338   5.337   5.768
12391TIP3    H137116   4.334   5.251   5.809
12391TIP3    H237117   4.426   5.341   5.731
12392TIP3   OH237118   5.224   1.853   4.507
12392TIP3    H137119   5.250   1.861   4.598
12392TIP3    H237120   5.145   1.798   4.509
12393TIP3   OH237121   2.717   7.021   1.635
12393TIP3    H137122   2.812   7.026   1.633
12393TIP3    H237123   2.695   7.018   1.729
12394TIP3   OH237124   0.289   4.682   4.450
12394TIP3    H137125   0.243   4.712   4.372
12394TIP3    H237126   0.334   4.760   4.483
12395TIP3   OH237127   4.421   7.597   4.976
12395TIP3    H137128   4.501   7.648   4.983
12395TIP3    H237129   4.441   7.529   4.912
12396TIP3   OH237130   7.631   2.346   5.100
12396TIP3    H137131   7.540   2.317   5.104
12396TIP3    H237132   7.679   2.269   5.067
12397TIP3   OH237133   0.374   1.356   3.733
12397TIP3    H137134   0.456   1.343   3.685
12397TIP3    H237135   0.379   1.446   3.766
12398TIP3   OH237136   2.103   1.231   6.427
12398TIP3    H137137   2.185   1.280   6.429
12398TIP3    H237138   2.120   1.154   6.481
12399TIP3   OH237139   0.462   4.138   3.187
12399TIP3    H137140   0.505   4.194   3.122
12399TIP3    H237141   0.383   4.186   3.211
12400TIP3   OH237142   2.819   2.744   5.024
12400TIP3    H137143   2.860   2.826   5.051
12400TIP3    H237144   2.726   2.757   5.041
12401TIP3   OH237145   5.662   0.348   0.139
12401TIP3    H137146   5.589   0.290   0.115
12401TIP3    H237147   5.674   0.403   0.062
12402TIP3   OH237148   7.119   1.660   1.418
12402TIP3    H137149   7.142   1.571   1.391
12402TIP3    H237150   7.158   1.670   1.504
12403TIP3   OH237151   1.956   4.611   5.658
12403TIP3    H137152   1.933   4.518   5.661
12403TIP3    H237153   1.885   4.655   5.705
12404TIP3   OH237154   1.568   5.162   3.268
12404TIP3    H137155   1.564   5.102   3.343
12404TIP3    H237156   1.567   5.106   3.191
12405TIP3   OH237157   2.712   4.755   2.582
12405TIP3    H137158   2.674   4.817   2.520
12405TIP3    H237159   2.637   4.718   2.628
12406TIP3   OH237160   3.379   6.947   0.022
12406TIP3    H137161   3.436   6.921   0.094
12406TIP3    H237162   3.382   6.873  -0.039
12407TIP3   OH237163   2.939   0.703   4.762
12407TIP3    H137164   2.928   0.782   4.814
12407TIP3    H237165   2.921   0.730   4.672
12408TIP3   OH237166   0.471   6.564   0.016
12408TIP3    H137167   0.515   6.482  -0.008
12408TIP3    H237168   0.529   6.633  -0.015
12409TIP3   OH237169   6.740   4.664   1.400
12409TIP3    H137170   6.783   4.693   1.481
12409TIP3    H237171   6.654   4.634   1.428
12410TIP3   OH237172   1.555   1.241   3.321
12410TIP3    H137173   1.514   1.259   3.237
12410TIP3    H237174   1.483   1.209   3.376
12411TIP3   OH237175   4.450   2.245   0.481
12411TIP3    H137176   4.536   2.204   0.466
12411TIP3    H237177   4.434   2.295   0.401
12412TIP3   OH237178   8.044   6.599   2.400
12412TIP3    H137179   7.951   6.575   2.404
12412TIP3    H237180   8.050   6.663   2.329
12413TIP3   OH237181   8.247   0.588   3.588
12413TIP3    H137182   8.237   0.504   3.542
12413TIP3    H237183   8.190   0.580   3.665
12414TIP3   OH237184   0.168   5.860   3.527
12414TIP3    H137185   0.141   5.928   3.589
12414TIP3    H237186   0.229   5.904   3.468
12415TIP3   OH237187   7.937   3.224   2.963
12415TIP3    H137188   7.941   3.190   3.052
12415TIP3    H237189   7.996   3.168   2.913
12416TIP3   OH237190   0.259   4.175   2.410
12416TIP3    H137191   0.270   4.103   2.348
12416TIP3    H237192   0.174   4.158   2.452
12417TIP3   OH237193   4.774   1.809   0.714
12417TIP3    H137194   4.768   1.882   0.776
12417TIP3    H237195   4.868   1.799   0.699
12418TIP3   OH237196   7.755   6.979   3.020
12418TIP3    H137197   7.844   6.944   3.012
12418TIP3    H237198   7.755   7.057   2.965
12419TIP3   OH237199   0.946   1.371   0.523
12419TIP3    H137200   0.994   1.342   0.445
12419TIP3    H237201   0.986   1.455   0.546
12420TIP3   OH237202   0.332   3.048   2.969
12420TIP3    H137203   0.360   3.137   2.989
12420TIP3    H237204   0.358   3.035   2.878
12421TIP3   OH237205   4.190   6.175   4.778
12421TIP3    H137206   4.116   6.202   4.724
12421TIP3    H237207   4.151   6.152   4.863
12422TIP3   OH237208   3.908   6.367   5.422
12422TIP3    H137209   3.973   6.430   5.454
12422TIP3    H237210   3.881   6.402   5.337
12423TIP3   OH237211   3.274   5.248   0.187
12423TIP3    H137212   3.305   5.180   0.127
12423TIP3    H237213   3.335   5.321   0.174
12424TIP3   OH237214   2.635   6.239   4.516
12424TIP3    H137215   2.666   6.163   4.564
12424TIP3    H237216   2.564   6.205   4.461
12425TIP3   OH237217   5.613   6.285   6.466
12425TIP3    H137218   5.554   6.280   6.391
12425TIP3    H237219   5.578   6.355   6.520
12426TIP3   OH237220   4.309   3.235   2.091
12426TIP3    H137221   4.331   3.148   2.124
12426TIP3    H237222   4.215   3.243   2.108
12427TIP3   OH237223   2.659   3.223   1.694
12427TIP3    H137224   2.587   3.285   1.703
12427TIP3    H237225   2.616   3.137   1.690
12428TIP3   OH237226   6.884   5.280   0.425
12428TIP3    H137227   6.934   5.199   0.435
12428TIP3    H237228   6.950   5.348   0.414
12429TIP3   OH237229   0.881   0.814   5.802
12429TIP3    H137230   0.920   0.853   5.881
12429TIP3    H237231   0.787   0.821   5.816
12430TIP3   OH237232   0.773   2.962   5.188
12430TIP3    H137233   0.797   2.898   5.122
12430TIP3    H237234   0.754   3.042   5.138
12431TIP3   OH237235   7.956   1.519   4.297
12431TIP3    H137236   7.946   1.588   4.231
12431TIP3    H237237   7.878   1.529   4.353
12432TIP3   OH237238   4.495   6.970   1.033
12432TIP3    H137239   4.458   6.885   1.057
12432TIP3    H237240   4.588   6.951   1.018
12433TIP3   OH237241   8.240   0.736   4.410
12433TIP3    H137242   8.302   0.786   4.357
12433TIP3    H237243   8.182   0.695   4.346
12434TIP3   OH237244   6.182   5.932   5.778
12434TIP3    H137245   6.225   5.904   5.698
12434TIP3    H237246   6.198   6.027   5.782
12435TIP3   OH237247   6.218   5.814   4.656
12435TIP3    H137248   6.295   5.786   4.705
12435TIP3    H237249   6.249   5.826   4.566
12436TIP3   OH237250   6.366   3.079   6.026
12436TIP3    H137251   6.361   3.172   6.006
12436TIP3    H237252   6.459   3.063   6.042
12437TIP3   OH237253   6.869   2.462   0.524
12437TIP3    H137254   6.951   2.487   0.481
12437TIP3    H237255   6.846   2.378   0.484
12438TIP3   OH237256   4.016   2.811   5.315
12438TIP3    H137257   3.952   2.873   5.349
12438TIP3    H237258   3.993   2.801   5.223
12439TIP3   OH237259   6.739   5.305   4.236
12439TIP3    H137260   6.733   5.215   4.205
12439TIP3    H237261   6.830   5.330   4.222
12440TIP3   OH237262   4.150   0.837   5.804
12440TIP3    H137263   4.176   0.920   5.764
12440TIP3    H237264   4.223   0.814   5.861
12441TIP3   OH237265   1.008   0.173   4.102
12441TIP3    H137266   1.094   0.142   4.130
12441TIP3    H237267   1.014   0.268   4.105
12442TIP3   OH237268   0.391   1.422   1.462
12442TIP3    H137269   0.406   1.426   1.556
12442TIP3    H237270   0.419   1.507   1.429
12443TIP3   OH237271   4.100   1.233   0.446
12443TIP3    H137272   4.104   1.305   0.382
12443TIP3    H237273   4.073   1.275   0.527
12444TIP3   OH237274   2.004   5.845   1.672
12444TIP3    H137275   2.065   5.782   1.633
12444TIP3    H237276   2.047   5.872   1.754
12445TIP3   OH237277   3.185   1.980   1.266
12445TIP3    H137278   3.234   1.927   1.329
12445TIP3    H237279   3.210   2.071   1.286
12446TIP3   OH237280   2.713   2.880   2.812
12446TIP3    H137281   2.733   2.881   2.906
12446TIP3    H237282   2.783   2.829   2.772
12447TIP3   OH237283   1.215   1.821   1.381
12447TIP3    H137284   1.155   1.790   1.312
12447TIP3    H237285   1.301   1.791   1.353
12448TIP3   OH237286   8.265   7.008   1.211
12448TIP3    H137287   8.288   7.026   1.301
12448TIP3    H237288   8.200   6.937   1.217
12449TIP3   OH237289   3.278   7.792   0.906
12449TIP3    H137290   3.356   7.846   0.897
12449TIP3    H237291   3.272   7.774   1.000
12450TIP3   OH237292   6.191   4.573   5.430
12450TIP3    H137293   6.127   4.627   5.384
12450TIP3    H237294   6.213   4.623   5.509
12451TIP3   OH237295   4.831   2.046   0.012
12451TIP3    H137296   4.757   2.044   0.072
12451TIP3    H237297   4.890   1.978   0.043
12452TIP3   OH237298   2.563   2.067   3.306
12452TIP3    H137299   2.618   2.123   3.360
12452TIP3    H237300   2.604   2.069   3.220
12453TIP3   OH237301   4.437   0.171   5.705
12453TIP3    H137302   4.427   0.254   5.659
12453TIP3    H237303   4.523   0.177   5.748
12454TIP3   OH237304   0.321   7.574   2.593
12454TIP3    H137305   0.390   7.622   2.547
12454TIP3    H237306   0.344   7.580   2.685
12455TIP3   OH237307   2.917   2.967   5.154
12455TIP3    H137308   3.000   2.923   5.176
12455TIP3    H237309   2.924   3.053   5.195
12456TIP3   OH237310   7.259   5.136   0.350
12456TIP3    H137311   7.220   5.223   0.339
12456TIP3    H237312   7.285   5.133   0.443
12457TIP3   OH237313   0.478   7.053   0.266
12457TIP3    H137314   0.418   7.125   0.249
12457TIP3    H237315   0.426   6.974   0.251
12458TIP3   OH237316   7.421   0.010   6.637
12458TIP3    H137317   7.416  -0.085   6.626
12458TIP3    H237318   7.405   0.045   6.549
12459TIP3   OH237319   2.987   0.427   2.447
12459TIP3    H137320   2.942   0.402   2.366
12459TIP3    H237321   2.974   0.352   2.505
12460TIP3   OH237322   7.872   4.893   6.248
12460TIP3    H137323   7.851   4.984   6.226
12460TIP3    H237324   7.814   4.872   6.321
12461TIP3   OH237325   0.980   1.003   2.692
12461TIP3    H137326   1.071   1.030   2.680
12461TIP3    H237327   0.952   1.049   2.771
12462TIP3   OH237328   4.721   3.457   0.342
12462TIP3    H137329   4.651   3.394   0.358
12462TIP3    H237330   4.765   3.424   0.263
12463TIP3   OH237331   0.952   4.768   3.120
12463TIP3    H137332   1.030   4.765   3.176
12463TIP3    H237333   0.897   4.696   3.152
12464TIP3   OH237334   5.130   7.677   3.668
12464TIP3    H137335   5.224   7.679   3.650
12464TIP3    H237336   5.113   7.757   3.717
12465TIP3   OH237337   4.151   0.451   1.851
12465TIP3    H137338   4.217   0.454   1.921
12465TIP3    H237339   4.160   0.363   1.814
12466TIP3   OH237340   6.312   5.873   4.377
12466TIP3    H137341   6.293   5.848   4.287
12466TIP3    H237342   6.287   5.965   4.382
12467TIP3   OH237343   0.412   7.077   5.561
12467TIP3    H137344   0.335   7.057   5.614
12467TIP3    H237345   0.378   7.091   5.473
12468TIP3   OH237346   2.364   4.992   0.667
12468TIP3    H137347   2.423   5.064   0.646
12468TIP3    H237348   2.330   4.963   0.583
12469TIP3   OH237349   3.939   0.067   3.010
12469TIP3    H137350   3.856   0.098   2.973
12469TIP3    H237351   3.917   0.041   3.099
12470TIP3   OH237352   6.211   2.464   2.981
12470TIP3    H137353   6.117   2.453   2.991
12470TIP3    H237354   6.249   2.415   3.055
12471TIP3   OH237355   2.197   1.064   5.493
12471TIP3    H137356   2.180   1.154   5.464
12471TIP3    H237357   2.255   1.074   5.568
12472TIP3   OH237358   6.192   3.510   4.588
12472TIP3    H137359   6.100   3.532   4.576
12472TIP3    H237360   6.228   3.584   4.637
12473TIP3   OH237361   8.279   2.560   3.452
12473TIP3    H137362   8.334   2.635   3.472
12473TIP3    H237363   8.308   2.492   3.513
12474TIP3   OH237364   5.753   4.726   2.982
12474TIP3    H137365   5.697   4.767   3.048
12474TIP3    H237366   5.765   4.636   3.013
12475TIP3   OH237367   7.634   5.311   2.761
12475TIP3    H137368   7.577   5.279   2.831
12475TIP3    H237369   7.640   5.239   2.699
12476TIP3   OH237370   4.068   0.788   0.495
12476TIP3    H137371   4.023   0.715   0.536
12476TIP3    H237372   4.076   0.763   0.403
12477TIP3   OH237373   3.216   0.145   6.282
12477TIP3    H137374   3.282   0.120   6.218
12477TIP3    H237375   3.179   0.062   6.314
12478TIP3   OH237376   4.627   0.127   5.905
12478TIP3    H137377   4.673   0.131   5.989
12478TIP3    H237378   4.552   0.069   5.922
12479TIP3   OH237379   4.304   5.245   1.299
12479TIP3    H137380   4.295   5.298   1.378
12479TIP3    H237381   4.256   5.165   1.319
12480TIP3   OH237382   0.853   0.350   3.417
12480TIP3    H137383   0.804   0.276   3.454
12480TIP3    H237384   0.790   0.391   3.357
12481TIP3   OH237385   6.043   6.647   4.510
12481TIP3    H137386   6.116   6.708   4.515
12481TIP3    H237387   6.080   6.568   4.470
12482TIP3   OH237388   6.146   0.237   2.099
12482TIP3    H137389   6.167   0.149   2.129
12482TIP3    H237390   6.159   0.234   2.004
12483TIP3   OH237391   3.785   3.569   5.155
12483TIP3    H137392   3.847   3.623   5.203
12483TIP3    H237393   3.812   3.577   5.064
12484TIP3   OH237394   1.440   1.695   3.561
12484TIP3    H137395   1.449   1.735   3.475
12484TIP3    H237396   1.484   1.611   3.554
12485TIP3   OH237397   7.700   5.707   1.344
12485TIP3    H137398   7.788   5.729   1.376
12485TIP3    H237399   7.641   5.733   1.414
12486TIP3   OH237400   3.906   0.527   6.666
12486TIP3    H137401   3.975   0.487   6.719
12486TIP3    H237402   3.942   0.528   6.577
12487TIP3   OH237403   5.341   5.738   6.329
12487TIP3    H137404   5.408   5.762   6.265
12487TIP3    H237405   5.341   5.810   6.391
12488TIP3   OH237406   6.945   6.611   6.209
12488TIP3    H137407   6.883   6.683   6.224
12488TIP3    H237408   7.016   6.627   6.270
12489TIP3   OH237409   5.082   2.352   5.038
12489TIP3    H137410   5.062   2.430   4.986
12489TIP3    H237411   5.151   2.308   4.987
12490TIP3   OH237412   7.183   7.125   5.484
12490TIP3    H137413   7.123   7.095   5.552
12490TIP3    H237414   7.126   7.154   5.413
12491TIP3   OH237415   6.071   5.285  -0.002
12491TIP3    H137416   6.114   5.241   0.071
12491TIP3    H237417   6.131   5.355  -0.028
12492TIP3   OH237418   2.279   4.243   3.578
12492TIP3    H137419   2.361   4.239   3.629
12492TIP3    H237420   2.216   4.284   3.637
12493TIP3   OH237421   7.155   1.195   0.416
12493TIP3    H137422   7.113   1.268   0.372
12493TIP3    H237423   7.184   1.230   0.500
12494TIP3   OH237424   0.800   1.868   1.488
12494TIP3    H137425   0.849   1.895   1.566
12494TIP3    H237426   0.825   1.930   1.420
12495TIP3   OH237427   7.636   6.295   4.941
12495TIP3    H137428   7.615   6.382   4.977
12495TIP3    H237429   7.558   6.242   4.959
12496TIP3   OH237430   0.518   6.990   4.061
12496TIP3    H137431   0.469   6.912   4.089
12496TIP3    H237432   0.548   7.029   4.143
12497TIP3   OH237433   2.571   3.637   1.289
12497TIP3    H137434   2.653   3.635   1.239
12497TIP3    H237435   2.514   3.694   1.237
12498TIP3   OH237436   2.480   1.468   0.474
12498TIP3    H137437   2.573   1.471   0.449
12498TIP3    H237438   2.453   1.560   0.476
12499TIP3   OH237439   1.924   2.506   4.729
12499TIP3    H137440   2.012   2.503   4.767
12499TIP3    H237441   1.869   2.459   4.792
12500TIP3   OH237442   2.184   4.862   1.523
12500TIP3    H137443   2.188   4.831   1.614
12500TIP3    H237444   2.164   4.784   1.472
12501TIP3   OH237445   0.337   4.951   4.575
12501TIP3    H137446   0.410   5.010   4.555
12501TIP3    H237447   0.275   4.966   4.504
12502TIP3   OH237448   5.208   6.619   6.332
12502TIP3    H137449   5.165   6.622   6.247
12502TIP3    H237450   5.302   6.622   6.312
12503TIP3   OH237451   5.109   7.333   1.101
12503TIP3    H137452   5.040   7.333   1.035
12503TIP3    H237453   5.123   7.240   1.121
12504TIP3   OH237454   7.920   5.427   3.935
12504TIP3    H137455   7.871   5.367   3.879
12504TIP3    H237456   7.854   5.488   3.969
12505TIP3   OH237457   0.220   6.400   5.228
12505TIP3    H137458   0.137   6.416   5.273
12505TIP3    H237459   0.272   6.479   5.244
12506TIP3   OH237460   4.420   1.470   0.339
12506TIP3    H137461   4.454   1.558   0.355
12506TIP3    H237462   4.349   1.461   0.403
12507TIP3   OH237463   2.482   2.116   0.332
12507TIP3    H137464   2.569   2.078   0.347
12507TIP3    H237465   2.423   2.041   0.332
12508TIP3   OH237466   2.829   2.522   4.608
12508TIP3    H137467   2.821   2.430   4.633
12508TIP3    H237468   2.828   2.570   4.692
12509TIP3   OH237469   5.464   1.991   5.467
12509TIP3    H137470   5.421   2.020   5.386
12509TIP3    H237471   5.488   2.072   5.511
12510TIP3   OH237472   2.374   0.357   0.748
12510TIP3    H137473   2.287   0.363   0.788
12510TIP3    H237474   2.390   0.262   0.741
12511TIP3   OH237475   1.345   1.044   1.515
12511TIP3    H137476   1.378   0.966   1.558
12511TIP3    H237477   1.407   1.113   1.538
12512TIP3   OH237478   8.293   2.673   5.906
12512TIP3    H137479   8.216   2.715   5.946
12512TIP3    H237480   8.275   2.579   5.913
12513TIP3   OH237481   4.627   7.551   6.609
12513TIP3    H137482   4.665   7.549   6.521
12513TIP3    H237483   4.680   7.489   6.659
12514TIP3   OH237484   4.562   3.696   1.325
12514TIP3    H137485   4.512   3.775   1.305
12514TIP3    H237486   4.559   3.690   1.420
12515TIP3   OH237487   5.634   1.670   0.577
12515TIP3    H137488   5.627   1.673   0.672
12515TIP3    H237489   5.632   1.762   0.550
12516TIP3   OH237490   1.627   7.519   5.133
12516TIP3    H137491   1.567   7.485   5.066
12516TIP3    H237492   1.695   7.452   5.141
12517TIP3   OH237493   1.152   1.480   4.522
12517TIP3    H137494   1.068   1.525   4.515
12517TIP3    H237495   1.135   1.393   4.485
12518TIP3   OH237496   3.914   2.238   2.011
12518TIP3    H137497   3.949   2.181   2.080
12518TIP3    H237498   3.929   2.189   1.930
12519TIP3   OH237499   4.050   7.054   5.553
12519TIP3    H137500   4.058   7.150   5.551
12519TIP3    H237501   4.139   7.024   5.570
12520TIP3   OH237502   7.454   5.389   0.417
12520TIP3    H137503   7.479   5.297   0.405
12520TIP3    H237504   7.417   5.415   0.332
12521TIP3   OH237505   3.828   5.081   0.158
12521TIP3    H137506   3.739   5.069   0.192
12521TIP3    H237507   3.838   5.176   0.149
12522TIP3   OH237508   3.381   4.985   5.482
12522TIP3    H137509   3.358   4.894   5.462
12522TIP3    H237510   3.458   4.978   5.537
12523TIP3   OH237511   2.069   6.627   0.836
12523TIP3    H137512   2.016   6.635   0.915
12523TIP3    H237513   2.013   6.579   0.774
12524TIP3   OH237514   0.894   1.055   0.820
12524TIP3    H137515   0.859   1.053   0.731
12524TIP3    H237516   0.937   1.140   0.827
12525TIP3   OH237517   0.671   0.711   2.750
12525TIP3    H137518   0.670   0.730   2.844
12525TIP3    H237519   0.629   0.625   2.743
12526TIP3   OH237520   7.646   6.931   0.496
12526TIP3    H137521   7.605   6.945   0.581
12526TIP3    H237522   7.738   6.954   0.510
12527TIP3   OH237523   1.622   4.342   6.432
12527TIP3    H137524   1.556   4.290   6.386
12527TIP3    H237525   1.699   4.338   6.375
12528TIP3   OH237526   4.877   6.962   5.456
12528TIP3    H137527   4.909   6.955   5.366
12528TIP3    H237528   4.784   6.940   5.451
12529TIP3   OH237529   5.308   3.170   0.850
12529TIP3    H137530   5.213   3.174   0.857
12529TIP3    H237531   5.336   3.125   0.929
12530TIP3   OH237532   2.963   5.848   4.467
12530TIP3    H137533   3.006   5.877   4.548
12530TIP3    H237534   3.035   5.842   4.403
12531TIP3   OH237535   6.631   5.901   0.198
12531TIP3    H137536   6.536   5.907   0.207
12531TIP3    H237537   6.645   5.820   0.148
12532TIP3   OH237538   4.795   5.278   1.411
12532TIP3    H137539   4.714   5.231   1.391
12532TIP3    H237540   4.802   5.274   1.507
12533TIP3   OH237541   0.004   6.708   3.426
12533TIP3    H137542  -0.050   6.654   3.368
12533TIP3    H237543   0.091   6.706   3.385
12534TIP3   OH237544   5.730   2.791   5.583
12534TIP3    H137545   5.790   2.797   5.510
12534TIP3    H237546   5.776   2.738   5.648
12535TIP3   OH237547   5.256   5.468   3.711
12535TIP3    H137548   5.243   5.457   3.617
12535TIP3    H237549   5.240   5.381   3.748
12536TIP3   OH237550   2.663   3.299   2.235
12536TIP3    H137551   2.705   3.375   2.196
12536TIP3    H237552   2.675   3.229   2.170
12537TIP3   OH237553   0.476   5.805   2.689
12537TIP3    H137554   0.489   5.887   2.643
12537TIP3    H237555   0.532   5.811   2.766
12538TIP3   OH237556   3.061   5.963   5.042
12538TIP3    H137557   3.011   5.905   4.984
12538TIP3    H237558   3.026   6.051   5.024
12539TIP3   OH237559   2.087   4.059   5.193
12539TIP3    H137560   2.016   4.033   5.251
12539TIP3    H237561   2.167   4.040   5.242
12540TIP3   OH237562   1.097   0.659   5.670
12540TIP3    H137563   1.071   0.737   5.720
12540TIP3    H237564   1.017   0.635   5.622
12541TIP3   OH237565   4.356   3.340   6.207
12541TIP3    H137566   4.334   3.324   6.115
12541TIP3    H237567   4.353   3.253   6.248
12542TIP3   OH237568   3.688   5.058   0.795
12542TIP3    H137569   3.740   4.983   0.823
12542TIP3    H237570   3.627   5.022   0.730
12543TIP3   OH237571   3.486   4.365   2.469
12543TIP3    H137572   3.574   4.328   2.464
12543TIP3    H237573   3.485   4.434   2.402
12544TIP3   OH237574   1.927   3.610   0.670
12544TIP3    H137575   1.964   3.650   0.749
12544TIP3    H237576   1.881   3.532   0.701
12545TIP3   OH237577   1.123   2.714   5.124
12545TIP3    H137578   1.156   2.795   5.163
12545TIP3    H237579   1.162   2.711   5.037
12546TIP3   OH237580   2.047   2.024   1.036
12546TIP3    H137581   1.989   2.029   0.960
12546TIP3    H237582   2.116   2.089   1.018
12547TIP3   OH237583   5.709   1.025   3.550
12547TIP3    H137584   5.646   0.953   3.549
12547TIP3    H237585   5.712   1.053   3.641
12548TIP3   OH237586   6.449   6.738   2.986
12548TIP3    H137587   6.525   6.788   2.957
12548TIP3    H237588   6.439   6.669   2.921
12549TIP3   OH237589   5.483   2.605   6.105
12549TIP3    H137590   5.534   2.536   6.146
12549TIP3    H237591   5.397   2.600   6.148
12550TIP3   OH237592   5.769   4.574   5.513
12550TIP3    H137593   5.765   4.479   5.522
12550TIP3    H237594   5.677   4.600   5.505
12551TIP3   OH237595   7.634   5.525   5.297
12551TIP3    H137596   7.709   5.499   5.349
12551TIP3    H237597   7.588   5.590   5.351
12552TIP3   OH237598   0.607   6.074   4.180
12552TIP3    H137599   0.610   6.102   4.089
12552TIP3    H237600   0.519   6.097   4.210
12553TIP3   OH237601   2.353   3.949   2.618
12553TIP3    H137602   2.344   4.007   2.693
12553TIP3    H237603   2.437   3.972   2.579
12554TIP3   OH237604   0.651   6.029   2.895
12554TIP3    H137605   0.723   6.072   2.849
12554TIP3    H237606   0.686   6.009   2.982
12555TIP3   OH237607   5.896   7.119   3.380
12555TIP3    H137608   5.977   7.081   3.346
12555TIP3    H237609   5.836   7.119   3.306
12556TIP3   OH237610   0.272   6.871   0.597
12556TIP3    H137611   0.241   6.790   0.558
12556TIP3    H237612   0.193   6.916   0.626
12557TIP3   OH237613   0.953   0.939   6.035
12557TIP3    H137614   0.925   0.936   6.126
12557TIP3    H237615   1.048   0.924   6.038
12558TIP3   OH237616   2.900   3.642   3.828
12558TIP3    H137617   2.893   3.677   3.739
12558TIP3    H237618   2.930   3.552   3.816
12559TIP3   OH237619   0.750   7.266   0.887
12559TIP3    H137620   0.836   7.260   0.928
12559TIP3    H237621   0.709   7.181   0.904
12560TIP3   OH237622   5.704   7.758   5.336
12560TIP3    H137623   5.729   7.667   5.354
12560TIP3    H237624   5.771   7.789   5.276
12561TIP3   OH237625   2.352   1.368   6.401
12561TIP3    H137626   2.348   1.432   6.331
12561TIP3    H237627   2.430   1.392   6.451
12562TIP3   OH237628   6.353   6.389   0.543
12562TIP3    H137629   6.385   6.298   0.540
12562TIP3    H237630   6.397   6.432   0.470
12563TIP3   OH237631   4.602   3.758   2.266
12563TIP3    H137632   4.647   3.733   2.185
12563TIP3    H237633   4.632   3.694   2.331
12564TIP3   OH237634   4.975   4.139   4.012
12564TIP3    H137635   5.027   4.166   4.088
12564TIP3    H237636   4.901   4.200   4.011
12565TIP3   OH237637   4.546   6.809   2.662
12565TIP3    H137638   4.490   6.871   2.615
12565TIP3    H237639   4.484   6.748   2.702
12566TIP3   OH237640   0.232   4.859   5.213
12566TIP3    H137641   0.192   4.942   5.241
12566TIP3    H237642   0.308   4.849   5.270
12567TIP3   OH237643   5.751   5.514   5.679
12567TIP3    H137644   5.812   5.530   5.608
12567TIP3    H237645   5.750   5.418   5.689
12568TIP3   OH237646   2.285   5.550   0.579
12568TIP3    H137647   2.206   5.594   0.547
12568TIP3    H237648   2.266   5.531   0.671
12569TIP3   OH237649   4.960   1.064   4.679
12569TIP3    H137650   4.955   1.080   4.585
12569TIP3    H237651   5.054   1.067   4.699
12570TIP3   OH237652   1.027   3.148   3.497
12570TIP3    H137653   1.004   3.121   3.408
12570TIP3    H237654   1.119   3.122   3.507
12571TIP3   OH237655   7.217   7.662   0.596
12571TIP3    H137656   7.284   7.722   0.563
12571TIP3    H237657   7.135   7.694   0.559
12572TIP3   OH237658   4.791   6.203   6.545
12572TIP3    H137659   4.791   6.170   6.635
12572TIP3    H237660   4.700   6.198   6.517
12573TIP3   OH237661   4.534   6.769   6.050
12573TIP3    H137662   4.476   6.781   6.126
12573TIP3    H237663   4.547   6.857   6.015
12574TIP3   OH237664   7.633   1.885   3.327
12574TIP3    H137665   7.564   1.935   3.371
12574TIP3    H237666   7.635   1.802   3.374
12575TIP3   OH237667   0.350   0.892   6.727
12575TIP3    H137668   0.382   0.804   6.711
12575TIP3    H237669   0.422   0.937   6.771
12576TIP3   OH237670   8.032   5.302   4.909
12576TIP3    H137671   8.003   5.266   4.993
12576TIP3    H237672   7.991   5.246   4.844
12577TIP3   OH237673   3.434   0.373   6.662
12577TIP3    H137674   3.529   0.373   6.676
12577TIP3    H237675   3.422   0.335   6.575
12578TIP3   OH237676   2.139   7.481   0.507
12578TIP3    H137677   2.106   7.571   0.497
12578TIP3    H237678   2.158   7.453   0.417
12579TIP3   OH237679   4.782   7.494   2.017
12579TIP3    H137680   4.826   7.423   1.971
12579TIP3    H237681   4.709   7.518   1.959
12580TIP3   OH237682   0.394   3.002   6.124
12580TIP3    H137683   0.437   2.947   6.058
12580TIP3    H237684   0.450   2.995   6.201
12581TIP3   OH237685   0.790   2.041   2.531
12581TIP3    H137686   0.758   2.009   2.616
12581TIP3    H237687   0.736   2.118   2.514
12582TIP3   OH237688   3.933   2.983   6.155
12582TIP3    H137689   3.926   3.074   6.184
12582TIP3    H237690   3.894   2.932   6.227
12583TIP3   OH237691   5.869   6.519   2.736
12583TIP3    H137692   5.823   6.522   2.652
12583TIP3    H237693   5.800   6.529   2.802
12584TIP3   OH237694   1.789   0.705   5.243
12584TIP3    H137695   1.758   0.784   5.197
12584TIP3    H237696   1.884   0.709   5.237
12585TIP3   OH237697   4.654   6.149   4.575
12585TIP3    H137698   4.741   6.189   4.575
12585TIP3    H237699   4.630   6.143   4.483
12586TIP3   OH237700   3.484   4.001   1.737
12586TIP3    H137701   3.453   4.050   1.661
12586TIP3    H237702   3.574   3.977   1.716
12587TIP3   OH237703   3.170   6.902   1.951
12587TIP3    H137704   3.175   6.807   1.964
12587TIP3    H237705   3.182   6.939   2.039
12588TIP3   OH237706   5.781   6.454   3.610
12588TIP3    H137707   5.716   6.406   3.560
12588TIP3    H237708   5.843   6.387   3.640
12589TIP3   OH237709   7.010   4.597   4.112
12589TIP3    H137710   6.924   4.596   4.071
12589TIP3    H237711   7.058   4.526   4.069
12590TIP3   OH237712   6.541   5.453   1.034
12590TIP3    H137713   6.627   5.420   1.009
12590TIP3    H237714   6.499   5.380   1.079
12591TIP3   OH237715   6.563   5.983   2.314
12591TIP3    H137716   6.513   5.937   2.382
12591TIP3    H237717   6.499   5.999   2.245
12592TIP3   OH237718   3.330   4.812   2.309
12592TIP3    H137719   3.359   4.852   2.391
12592TIP3    H237720   3.234   4.823   2.309
12593TIP3   OH237721   6.940   4.763   0.958
12593TIP3    H137722   7.028   4.776   0.922
12593TIP3    H237723   6.955   4.736   1.048
12594TIP3   OH237724   7.469   4.354   3.164
12594TIP3    H137725   7.405   4.343   3.235
12594TIP3    H237726   7.416   4.363   3.085
12595TIP3   OH237727   0.930   5.431   6.204
12595TIP3    H137728   0.944   5.523   6.178
12595TIP3    H237729   0.884   5.393   6.129
12596TIP3   OH237730   5.144   2.218   3.432
12596TIP3    H137731   5.157   2.124   3.442
12596TIP3    H237732   5.058   2.235   3.470
12597TIP3   OH237733   6.274   2.404   4.903
12597TIP3    H137734   6.289   2.377   4.994
12597TIP3    H237735   6.347   2.464   4.884
12598TIP3   OH237736   2.912   7.127   4.448
12598TIP3    H137737   2.954   7.165   4.370
12598TIP3    H237738   2.896   7.036   4.425
12599TIP3   OH237739   5.130   3.968   5.069
12599TIP3    H137740   5.065   3.952   5.001
12599TIP3    H237741   5.196   4.023   5.026
12600TIP3   OH237742   7.091   0.510   1.372
12600TIP3    H137743   7.016   0.523   1.315
12600TIP3    H237744   7.110   0.597   1.407
12601TIP3   OH237745   6.281   5.659   0.874
12601TIP3    H137746   6.366   5.671   0.915
12601TIP3    H237747   6.218   5.683   0.941
12602TIP3   OH237748   4.554   5.166   1.372
12602TIP3    H137749   4.480   5.209   1.331
12602TIP3    H237750   4.517   5.121   1.448
12603TIP3   OH237751   3.218   6.596   0.389
12603TIP3    H137752   3.211   6.690   0.375
12603TIP3    H237753   3.194   6.557   0.305
12604TIP3   OH237754   6.042   0.260   5.611
12604TIP3    H137755   6.008   0.185   5.562
12604TIP3    H237756   6.133   0.237   5.631
12605TIP3   OH237757   0.651   2.384   6.079
12605TIP3    H137758   0.600   2.462   6.101
12605TIP3    H237759   0.636   2.371   5.986
12606TIP3   OH237760   7.637   0.101   5.404
12606TIP3    H137761   7.724   0.134   5.381
12606TIP3    H237762   7.629   0.118   5.498
12607TIP3   OH237763   3.637   6.252   5.680
12607TIP3    H137764   3.707   6.293   5.731
12607TIP3    H237765   3.664   6.264   5.589
12608TIP3   OH237766   1.118   0.129   0.987
12608TIP3    H137767   1.090   0.060   0.927
12608TIP3    H237768   1.065   0.205   0.963
12609TIP3   OH237769   2.490   5.066   4.976
12609TIP3    H137770   2.493   5.139   4.914
12609TIP3    H237771   2.489   5.108   5.062
12610TIP3   OH237772   0.922   2.478   3.314
12610TIP3    H137773   0.901   2.385   3.325
12610TIP3    H237774   0.838   2.521   3.298
12611TIP3   OH237775   7.732   1.702   3.155
12611TIP3    H137776   7.720   1.779   3.210
12611TIP3    H237777   7.826   1.701   3.136
12612TIP3   OH237778   1.595   3.028   0.646
12612TIP3    H137779   1.657   3.095   0.618
12612TIP3    H237780   1.647   2.947   0.652
12613TIP3   OH237781   0.363   7.313   3.458
12613TIP3    H137782   0.417   7.254   3.405
12613TIP3    H237783   0.407   7.317   3.543
12614TIP3   OH237784   2.499   5.654   5.734
12614TIP3    H137785   2.490   5.683   5.824
12614TIP3    H237786   2.482   5.559   5.738
12615TIP3   OH237787   7.378   3.797   2.747
12615TIP3    H137788   7.472   3.786   2.731
12615TIP3    H237789   7.358   3.884   2.714
12616TIP3   OH237790   5.099   1.934   1.935
12616TIP3    H137791   5.078   2.027   1.940
12616TIP3    H237792   5.124   1.921   1.843
12617TIP3   OH237793   7.253   7.733   0.269
12617TIP3    H137794   7.292   7.753   0.184
12617TIP3    H237795   7.327   7.716   0.327
12618TIP3   OH237796   2.969   0.669   0.019
12618TIP3    H137797   3.064   0.679   0.014
12618TIP3    H237798   2.942   0.652  -0.071
12619TIP3   OH237799   2.344   2.137   2.628
12619TIP3    H137800   2.307   2.062   2.674
12619TIP3    H237801   2.438   2.117   2.621
12620TIP3   OH237802   5.264   3.447   4.646
12620TIP3    H137803   5.252   3.371   4.588
12620TIP3    H237804   5.336   3.496   4.606
12621TIP3   OH237805   4.960   5.433   3.714
12621TIP3    H137806   5.050   5.436   3.747
12621TIP3    H237807   4.941   5.524   3.690
12622TIP3   OH237808   0.369   4.235   1.924
12622TIP3    H137809   0.458   4.201   1.924
12622TIP3    H237810   0.376   4.321   1.883
12623TIP3   OH237811   2.532   4.125   4.670
12623TIP3    H137812   2.523   4.180   4.748
12623TIP3    H237813   2.626   4.125   4.651
12624TIP3   OH237814   7.508   0.257   5.156
12624TIP3    H137815   7.545   0.214   5.079
12624TIP3    H237816   7.584   0.289   5.205
12625TIP3   OH237817   2.350   7.277   6.733
12625TIP3    H137818   2.364   7.359   6.685
12625TIP3    H237819   2.424   7.222   6.710
12626TIP3   OH237820   4.107   5.229   0.916
12626TIP3    H137821   4.178   5.172   0.887
12626TIP3    H237822   4.050   5.236   0.839
12627TIP3   OH237823   6.453   2.896   0.992
12627TIP3    H137824   6.471   2.818   0.940
12627TIP3    H237825   6.472   2.869   1.082
12628TIP3   OH237826   7.710   6.386   3.958
12628TIP3    H137827   7.656   6.309   3.937
12628TIP3    H237828   7.793   6.349   3.989
12629TIP3   OH237829   0.869   5.235   3.275
12629TIP3    H137830   0.870   5.207   3.183
12629TIP3    H237831   0.784   5.279   3.285
12630TIP3   OH237832   4.354   4.180   6.281
12630TIP3    H137833   4.328   4.092   6.307
12630TIP3    H237834   4.446   4.186   6.309
12631TIP3   OH237835   4.007   3.779   6.671
12631TIP3    H137836   4.052   3.702   6.707
12631TIP3    H237837   3.965   3.748   6.591
12632TIP3   OH237838   4.309   2.895   0.900
12632TIP3    H137839   4.327   2.832   0.971
12632TIP3    H237840   4.377   2.878   0.835
12633TIP3   OH237841   5.203   7.133   5.702
12633TIP3    H137842   5.206   7.114   5.609
12633TIP3    H237843   5.268   7.202   5.716
12634TIP3   OH237844   1.024   6.563   1.271
12634TIP3    H137845   1.065   6.625   1.210
12634TIP3    H237846   0.930   6.569   1.252
12635TIP3   OH237847   6.230   0.376   4.829
12635TIP3    H137848   6.211   0.358   4.737
12635TIP3    H237849   6.325   0.384   4.833
12636TIP3   OH237850   4.139   1.359   3.007
12636TIP3    H137851   4.063   1.350   3.064
12636TIP3    H237852   4.204   1.404   3.061
12637TIP3   OH237853   6.418   0.202   1.826
12637TIP3    H137854   6.394   0.116   1.861
12637TIP3    H237855   6.444   0.253   1.903
12638TIP3   OH237856   0.817   3.324   3.885
12638TIP3    H137857   0.784   3.238   3.861
12638TIP3    H237858   0.798   3.332   3.978
12639TIP3   OH237859   7.819   2.980   0.170
12639TIP3    H137860   7.815   3.070   0.138
12639TIP3    H237861   7.819   2.989   0.266
12640TIP3   OH237862   2.514   2.615   0.434
12640TIP3    H137863   2.586   2.605   0.497
12640TIP3    H237864   2.510   2.708   0.416
12641TIP3   OH237865   4.000   2.245   0.405
12641TIP3    H137866   4.006   2.306   0.478
12641TIP3    H237867   4.012   2.299   0.327
12642TIP3   OH237868   2.475   6.057   2.531
12642TIP3    H137869   2.445   6.123   2.594
12642TIP3    H237870   2.571   6.057   2.540
12643TIP3   OH237871   0.610   3.349   5.537
12643TIP3    H137872   0.550   3.278   5.560
12643TIP3    H237873   0.659   3.366   5.618
12644TIP3   OH237874   4.386   3.740   5.690
12644TIP3    H137875   4.426   3.825   5.708
12644TIP3    H237876   4.416   3.683   5.761
12645TIP3   OH237877   1.653   0.752   6.496
12645TIP3    H137878   1.588   0.684   6.513
12645TIP3    H237879   1.694   0.768   6.581
12646TIP3   OH237880   6.260   5.128   1.176
12646TIP3    H137881   6.176   5.104   1.216
12646TIP3    H237882   6.259   5.083   1.091
12647TIP3   OH237883   6.359   4.883   2.819
12647TIP3    H137884   6.360   4.871   2.914
12647TIP3    H237885   6.439   4.840   2.789
12648TIP3   OH237886   4.975   1.550   4.812
12648TIP3    H137887   5.064   1.534   4.843
12648TIP3    H237888   4.920   1.537   4.889
12649TIP3   OH237889   4.948   0.931   3.986
12649TIP3    H137890   4.874   0.911   4.043
12649TIP3    H237891   4.908   0.963   3.905
12650TIP3   OH237892   4.872   5.057   2.343
12650TIP3    H137893   4.933   5.069   2.416
12650TIP3    H237894   4.873   5.141   2.297
12651TIP3   OH237895   0.728   7.683   1.660
12651TIP3    H137896   0.680   7.606   1.691
12651TIP3    H237897   0.684   7.707   1.578
12652TIP3   OH237898   7.152   5.670   0.894
12652TIP3    H137899   7.058   5.676   0.878
12652TIP3    H237900   7.161   5.600   0.959
12653TIP3   OH237901   6.578   7.602   0.205
12653TIP3    H137902   6.520   7.659   0.154
12653TIP3    H237903   6.660   7.651   0.212
12654TIP3   OH237904   3.958   1.492   5.222
12654TIP3    H137905   3.946   1.586   5.209
12654TIP3    H237906   3.870   1.460   5.245
12655TIP3   OH237907   4.881   5.843   3.901
12655TIP3    H137908   4.901   5.783   3.973
12655TIP3    H237909   4.813   5.799   3.850
12656TIP3   OH237910   2.294   6.161   2.098
12656TIP3    H137911   2.335   6.113   2.026
12656TIP3    H237912   2.302   6.103   2.173
12657TIP3   OH237913   7.511   4.361   1.739
12657TIP3    H137914   7.560   4.281   1.757
12657TIP3    H237915   7.475   4.387   1.824
12658TIP3   OH237916   5.882   3.317   2.471
12658TIP3    H137917   5.840   3.233   2.490
12658TIP3    H237918   5.814   3.382   2.486
12659TIP3   OH237919   5.576   0.493   5.307
12659TIP3    H137920   5.605   0.407   5.278
12659TIP3    H237921   5.657   0.542   5.322
12660TIP3   OH237922   4.854   1.846   5.779
12660TIP3    H137923   4.890   1.928   5.812
12660TIP3    H237924   4.883   1.841   5.688
12661TIP3   OH237925   4.080   2.454   1.906
12661TIP3    H137926   4.037   2.489   1.828
12661TIP3    H237927   4.031   2.374   1.927
12662TIP3   OH237928   4.649   3.959   3.493
12662TIP3    H137929   4.602   4.029   3.447
12662TIP3    H237930   4.683   3.903   3.424
12663TIP3   OH237931   5.922   6.674   0.308
12663TIP3    H137932   5.879   6.680   0.223
12663TIP3    H237933   5.894   6.589   0.343
12664TIP3   OH237934   3.515   0.892   3.592
12664TIP3    H137935   3.498   0.798   3.589
12664TIP3    H237936   3.585   0.906   3.528
12665TIP3   OH237937   2.209   0.198   3.091
12665TIP3    H137938   2.174   0.118   3.132
12665TIP3    H237939   2.189   0.187   2.998
12666TIP3   OH237940   7.319   4.805   0.269
12666TIP3    H137941   7.388   4.859   0.308
12666TIP3    H237942   7.360   4.767   0.192
12667TIP3   OH237943   2.461   7.174   2.109
12667TIP3    H137944   2.413   7.136   2.183
12667TIP3    H237945   2.394   7.193   2.044
12668TIP3   OH237946   0.943   1.342   4.100
12668TIP3    H137947   1.012   1.394   4.058
12668TIP3    H237948   0.989   1.267   4.137
12669TIP3   OH237949   7.823   6.330   0.157
12669TIP3    H137950   7.827   6.251   0.212
12669TIP3    H237951   7.747   6.316   0.101
12670TIP3   OH237952   5.602   2.414   4.308
12670TIP3    H137953   5.520   2.364   4.296
12670TIP3    H237954   5.580   2.503   4.280
12671TIP3   OH237955   3.055   3.334   4.103
12671TIP3    H137956   3.128   3.282   4.134
12671TIP3    H237957   3.057   3.414   4.156
12672TIP3   OH237958   0.974   5.891   1.942
12672TIP3    H137959   1.044   5.872   2.005
12672TIP3    H237960   1.018   5.942   1.873
12673TIP3   OH237961   2.304   3.975   0.286
12673TIP3    H137962   2.251   3.983   0.207
12673TIP3    H237963   2.335   4.064   0.303
12674TIP3   OH237964   2.057   4.663   6.194
12674TIP3    H137965   2.150   4.642   6.185
12674TIP3    H237966   2.015   4.578   6.209
12675TIP3   OH237967   0.598   2.564   6.388
12675TIP3    H137968   0.524   2.505   6.375
12675TIP3    H237969   0.558   2.652   6.386
12676TIP3   OH237970   4.983   5.010   4.616
12676TIP3    H137971   5.061   4.989   4.668
12676TIP3    H237972   4.923   4.938   4.633
12677TIP3   OH237973   6.109   7.022   1.297
12677TIP3    H137974   6.050   7.011   1.222
12677TIP3    H237975   6.197   7.022   1.258
12678TIP3   OH237976   7.887   5.612   2.913
12678TIP3    H137977   7.849   5.679   2.971
12678TIP3    H237978   7.812   5.575   2.867
12679TIP3   OH237979   4.114   2.238   6.415
12679TIP3    H137980   4.037   2.238   6.473
12679TIP3    H237981   4.178   2.184   6.462
12680TIP3   OH237982   0.072   4.115   4.916
12680TIP3    H137983   0.159   4.125   4.954
12680TIP3    H237984   0.083   4.136   4.824
12681TIP3   OH237985   4.742   7.362   3.619
12681TIP3    H137986   4.657   7.406   3.614
12681TIP3    H237987   4.770   7.355   3.528
12682TIP3   OH237988   2.465   6.562   3.297
12682TIP3    H137989   2.456   6.645   3.342
12682TIP3    H237990   2.470   6.585   3.204
12683TIP3   OH237991   3.814   6.119   1.449
12683TIP3    H137992   3.846   6.031   1.426
12683TIP3    H237993   3.884   6.158   1.501
12684TIP3   OH237994   5.905   4.517   0.346
12684TIP3    H137995   5.921   4.432   0.387
12684TIP3    H237996   5.976   4.526   0.281
12685TIP3   OH237997   6.339   5.000   2.462
12685TIP3    H137998   6.351   5.050   2.381
12685TIP3    H237999   6.413   4.939   2.463
12686TIP3   OH238000   6.797   3.825   6.312
12686TIP3    H138001   6.866   3.880   6.349
12686TIP3    H238002   6.815   3.825   6.218
12687TIP3   OH238003   1.771   0.216   1.380
12687TIP3    H138004   1.834   0.156   1.340
12687TIP3    H238005   1.764   0.288   1.317
12688TIP3   OH238006   5.547   6.434   3.826
12688TIP3    H138007   5.531   6.506   3.766
12688TIP3    H238008   5.635   6.451   3.860
12689TIP3   OH238009   1.334   3.810   4.966
12689TIP3    H138010   1.280   3.790   4.890
12689TIP3    H238011   1.272   3.821   5.038
12690TIP3   OH238012   7.780   7.640   5.098
12690TIP3    H138013   7.692   7.651   5.133
12690TIP3    H238014   7.795   7.545   5.102
12691TIP3   OH238015   3.686   2.279   0.802
12691TIP3    H138016   3.592   2.267   0.789
12691TIP3    H238017   3.705   2.234   0.885
12692TIP3   OH238018   3.891   4.924   1.817
12692TIP3    H138019   3.829   4.938   1.888
12692TIP3    H238020   3.959   4.989   1.830
12693TIP3   OH238021   0.359   6.184   4.150
12693TIP3    H138022   0.358   6.190   4.245
12693TIP3    H238023   0.301   6.255   4.121
12694TIP3   OH238024   2.308   5.485   1.876
12694TIP3    H138025   2.298   5.391   1.890
12694TIP3    H238026   2.257   5.525   1.947
12695TIP3   OH238027   0.826   1.697   6.293
12695TIP3    H138028   0.843   1.790   6.311
12695TIP3    H238029   0.902   1.652   6.329
12696TIP3   OH238030   0.089   6.476   1.696
12696TIP3    H138031   0.180   6.493   1.723
12696TIP3    H238032   0.068   6.391   1.735
12697TIP3   OH238033   6.514   7.431   0.432
12697TIP3    H138034   6.448   7.494   0.460
12697TIP3    H238035   6.570   7.480   0.372
12698TIP3   OH238036   2.297   0.407   3.321
12698TIP3    H138037   2.261   0.364   3.243
12698TIP3    H238038   2.242   0.484   3.333
12699TIP3   OH238039   6.158   4.466   1.443
12699TIP3    H138040   6.173   4.537   1.380
12699TIP3    H238041   6.073   4.430   1.418
12700TIP3   OH238042   6.676   1.886   1.923
12700TIP3    H138043   6.612   1.815   1.922
12700TIP3    H238044   6.638   1.953   1.866
12701TIP3   OH238045   8.194   1.722   4.204
12701TIP3    H138046   8.111   1.757   4.235
12701TIP3    H238047   8.170   1.645   4.152
12702TIP3   OH238048   7.156   5.397   0.330
12702TIP3    H138049   7.244   5.420   0.301
12702TIP3    H238050   7.107   5.479   0.325
12703TIP3   OH238051   8.213   0.465   1.317
12703TIP3    H138052   8.209   0.495   1.226
12703TIP3    H238053   8.155   0.388   1.319
12704TIP3   OH238054   5.895   5.045   1.627
12704TIP3    H138055   5.867   4.970   1.680
12704TIP3    H238056   5.990   5.046   1.638
12705TIP3   OH238057   7.223   7.720   2.008
12705TIP3    H138058   7.230   7.673   2.091
12705TIP3    H238059   7.242   7.654   1.941
12706TIP3   OH238060   6.482   2.510   4.451
12706TIP3    H138061   6.422   2.496   4.378
12706TIP3    H238062   6.503   2.603   4.447
12707TIP3   OH238063   2.684   1.568   2.954
12707TIP3    H138064   2.730   1.513   3.017
12707TIP3    H238065   2.740   1.569   2.876
12708TIP3   OH238066   6.281   0.951   6.482
12708TIP3    H138067   6.301   0.909   6.565
12708TIP3    H238068   6.350   0.921   6.422
12709TIP3   OH238069   7.906   0.739   2.827
12709TIP3    H138070   7.852   0.806   2.784
12709TIP3    H238071   7.979   0.787   2.864
12710TIP3   OH238072   7.948   5.472   1.512
12710TIP3    H138073   8.018   5.443   1.571
12710TIP3    H238074   7.873   5.487   1.570
12711TIP3   OH238075   0.115   4.365   5.229
12711TIP3    H138076   0.206   4.389   5.211
12711TIP3    H238077   0.074   4.362   5.143
12712TIP3   OH238078   3.447   3.483   2.565
12712TIP3    H138079   3.418   3.571   2.590
12712TIP3    H238080   3.540   3.481   2.589
12713TIP3   OH238081   0.642   5.311   1.374
12713TIP3    H138082   0.636   5.232   1.427
12713TIP3    H238083   0.726   5.305   1.329
12714TIP3   OH238084   5.722   4.708   0.402
12714TIP3    H138085   5.771   4.773   0.452
12714TIP3    H238086   5.787   4.640   0.381
12715TIP3   OH238087   7.296   4.005   2.610
12715TIP3    H138088   7.261   4.072   2.670
12715TIP3    H238089   7.219   3.970   2.566
12716TIP3   OH238090   5.098   6.361   5.515
12716TIP3    H138091   5.103   6.404   5.600
12716TIP3    H238092   5.024   6.402   5.471
12717TIP3   OH238093   2.843   2.907   4.233
12717TIP3    H138094   2.815   2.817   4.245
12717TIP3    H238095   2.931   2.900   4.196
12718TIP3   OH238096   1.487   1.118   5.034
12718TIP3    H138097   1.533   1.037   5.054
12718TIP3    H238098   1.475   1.161   5.119
12719TIP3   OH238099   5.893   4.035   0.710
12719TIP3    H138100   5.988   4.028   0.722
12719TIP3    H238101   5.870   3.961   0.654
12720TIP3   OH238102   3.689   4.781   5.229
12720TIP3    H138103   3.623   4.844   5.202
12720TIP3    H238104   3.659   4.751   5.315
12721TIP3   OH238105   8.019   1.349   5.999
12721TIP3    H138106   8.009   1.257   6.025
12721TIP3    H238107   8.114   1.361   5.988
12722TIP3   OH238108   2.451   6.895   3.257
12722TIP3    H138109   2.492   6.876   3.172
12722TIP3    H238110   2.366   6.934   3.234
12723TIP3   OH238111   3.504   5.640   3.041
12723TIP3    H138112   3.451   5.563   3.059
12723TIP3    H238113   3.594   5.610   3.055
12724TIP3   OH238114   1.735   6.956   0.485
12724TIP3    H138115   1.799   6.888   0.463
12724TIP3    H238116   1.712   6.995   0.401
12725TIP3   OH238117   2.133   6.284   3.169
12725TIP3    H138118   2.093   6.224   3.106
12725TIP3    H238119   2.185   6.344   3.116
12726TIP3   OH238120   6.794   1.254   2.174
12726TIP3    H138121   6.782   1.191   2.245
12726TIP3    H238122   6.709   1.256   2.130
12727TIP3   OH238123   4.944   3.418   3.372
12727TIP3    H138124   4.963   3.512   3.369
12727TIP3    H238125   4.995   3.385   3.446
12728TIP3   OH238126   7.423   6.002   3.780
12728TIP3    H138127   7.383   6.053   3.709
12728TIP3    H238128   7.349   5.961   3.825
12729TIP3   OH238129   4.272   5.218   3.373
12729TIP3    H138130   4.252   5.312   3.375
12729TIP3    H238131   4.279   5.197   3.280
12730TIP3   OH238132   1.494   4.572   2.976
12730TIP3    H138133   1.575   4.603   3.018
12730TIP3    H238134   1.454   4.516   3.041
12731TIP3   OH238135   2.123   5.619   2.967
12731TIP3    H138136   2.033   5.593   2.952
12731TIP3    H238137   2.168   5.538   2.990
12732TIP3   OH238138   7.546   7.470   0.743
12732TIP3    H138139   7.455   7.456   0.715
12732TIP3    H238140   7.582   7.382   0.753
12733TIP3   OH238141   1.406   4.838   1.416
12733TIP3    H138142   1.338   4.896   1.449
12733TIP3    H238143   1.451   4.890   1.349
12734TIP3   OH238144   2.454   6.480   0.307
12734TIP3    H138145   2.485   6.548   0.247
12734TIP3    H238146   2.371   6.513   0.340
12735TIP3   OH238147   5.622   6.981   4.787
12735TIP3    H138148   5.533   7.016   4.796
12735TIP3    H238149   5.612   6.886   4.787
12736TIP3   OH238150   5.855   1.397   6.761
12736TIP3    H138151   5.899   1.391   6.846
12736TIP3    H238152   5.903   1.465   6.714
12737TIP3   OH238153   1.793   3.515   5.324
12737TIP3    H138154   1.795   3.431   5.371
12737TIP3    H238155   1.700   3.535   5.315
12738TIP3   OH238156   3.259   5.160   3.599
12738TIP3    H138157   3.247   5.248   3.634
12738TIP3    H238158   3.180   5.144   3.547
12739TIP3   OH238159   4.419   7.093   5.152
12739TIP3    H138160   4.384   7.111   5.239
12739TIP3    H238161   4.342   7.097   5.094
12740TIP3   OH238162   2.444   2.867   5.736
12740TIP3    H138163   2.487   2.789   5.701
12740TIP3    H238164   2.516   2.923   5.766
12741TIP3   OH238165   7.758   6.712   1.294
12741TIP3    H138166   7.769   6.778   1.226
12741TIP3    H238167   7.750   6.629   1.247
12742TIP3   OH238168   2.071   7.710   0.760
12742TIP3    H138169   2.118   7.649   0.703
12742TIP3    H238170   2.127   7.717   0.838
12743TIP3   OH238171   6.515   7.672   5.451
12743TIP3    H138172   6.567   7.610   5.398
12743TIP3    H238173   6.580   7.725   5.496
12744TIP3   OH238174   0.422   0.881   1.103
12744TIP3    H138175   0.333   0.874   1.138
12744TIP3    H238176   0.429   0.808   1.042
12745TIP3   OH238177   5.391   0.606   4.105
12745TIP3    H138178   5.461   0.553   4.145
12745TIP3    H238179   5.438   0.674   4.056
12746TIP3   OH238180   2.527   0.166   5.997
12746TIP3    H138181   2.537   0.082   5.951
12746TIP3    H238182   2.573   0.153   6.080
12747TIP3   OH238183   3.610   3.120   0.133
12747TIP3    H138184   3.572   3.206   0.115
12747TIP3    H238185   3.536   3.067   0.164
12748TIP3   OH238186   4.603   1.843   2.648
12748TIP3    H138187   4.525   1.864   2.699
12748TIP3    H238188   4.664   1.914   2.667
12749TIP3   OH238189   6.531   5.935   2.816
12749TIP3    H138190   6.594   6.002   2.788
12749TIP3    H238191   6.524   5.876   2.741
12750TIP3   OH238192   6.112   1.430   5.953
12750TIP3    H138193   6.046   1.483   5.996
12750TIP3    H238194   6.189   1.487   5.949
12751TIP3   OH238195   7.951   2.608   1.665
12751TIP3    H138196   7.879   2.655   1.623
12751TIP3    H238197   8.021   2.606   1.599
12752TIP3   OH238198   0.134   4.987   3.854
12752TIP3    H138199   0.185   4.908   3.838
12752TIP3    H238200   0.132   5.032   3.770
12753TIP3   OH238201   3.156   6.655   3.078
12753TIP3    H138202   3.064   6.640   3.056
12753TIP3    H238203   3.190   6.709   3.006
12754TIP3   OH238204   6.848   3.164   5.727
12754TIP3    H138205   6.758   3.196   5.739
12754TIP3    H238206   6.893   3.234   5.680
12755TIP3   OH238207   2.775   3.745   0.276
12755TIP3    H138208   2.697   3.799   0.265
12755TIP3    H238209   2.741   3.657   0.292
12756TIP3   OH238210   0.566   3.248   1.384
12756TIP3    H138211   0.519   3.328   1.362
12756TIP3    H238212   0.501   3.178   1.373
12757TIP3   OH238213   7.207   3.446   6.380
12757TIP3    H138214   7.246   3.359   6.379
12757TIP3    H238215   7.144   3.444   6.452
12758TIP3   OH238216   3.763   4.835   3.757
12758TIP3    H138217   3.687   4.809   3.705
12758TIP3    H238218   3.835   4.842   3.693
12759TIP3   OH238219   1.067   3.397   0.499
12759TIP3    H138220   1.069   3.384   0.594
12759TIP3    H238221   1.092   3.313   0.462
12760TIP3   OH238222   0.773   3.378   1.920
12760TIP3    H138223   0.758   3.455   1.975
12760TIP3    H238224   0.820   3.316   1.977
12761TIP3   OH238225   0.246   5.976   4.881
12761TIP3    H138226   0.253   6.012   4.969
12761TIP3    H238227   0.174   6.025   4.841
12762TIP3   OH238228   1.867   6.514   1.922
12762TIP3    H138229   1.942   6.454   1.931
12762TIP3    H238230   1.821   6.483   1.844
12763TIP3   OH238231   7.975   3.600   3.245
12763TIP3    H138232   7.961   3.632   3.156
12763TIP3    H238233   8.070   3.601   3.257
12764TIP3   OH238234   3.501   1.232   1.600
12764TIP3    H138235   3.574   1.293   1.594
12764TIP3    H238236   3.537   1.149   1.568
12765TIP3   OH238237   7.984   2.496   1.251
12765TIP3    H138238   7.943   2.519   1.335
12765TIP3    H238239   7.917   2.445   1.205
12766TIP3   OH238240   7.785   0.719   4.302
12766TIP3    H138241   7.851   0.782   4.273
12766TIP3    H238242   7.722   0.715   4.231
12767TIP3   OH238243   0.894   2.260   3.908
12767TIP3    H138244   0.897   2.210   3.990
12767TIP3    H238245   0.985   2.288   3.894
12768TIP3   OH238246   3.147   4.857   5.840
12768TIP3    H138247   3.153   4.766   5.811
12768TIP3    H238248   3.203   4.861   5.918
12769TIP3   OH238249   4.589   7.236   5.823
12769TIP3    H138250   4.564   7.308   5.765
12769TIP3    H238251   4.684   7.241   5.827
12770TIP3   OH238252   2.598   6.237   0.280
12770TIP3    H138253   2.553   6.319   0.303
12770TIP3    H238254   2.665   6.264   0.218
12771TIP3   OH238255   4.996   3.523   6.051
12771TIP3    H138256   5.086   3.517   6.020
12771TIP3    H238257   4.992   3.464   6.126
12772TIP3   OH238258   7.638   2.173   0.907
12772TIP3    H138259   7.573   2.195   0.841
12772TIP3    H238260   7.717   2.151   0.857
12773TIP3   OH238261   6.470   1.481   6.258
12773TIP3    H138262   6.457   1.551   6.322
12773TIP3    H238263   6.538   1.426   6.297
12774TIP3   OH238264   3.192   5.006   2.696
12774TIP3    H138265   3.189   5.075   2.762
12774TIP3    H238266   3.103   4.973   2.690
12775TIP3   OH238267   3.346   5.337   4.063
12775TIP3    H138268   3.307   5.286   4.133
12775TIP3    H238269   3.292   5.416   4.058
12776TIP3   OH238270   4.758   4.128   3.080
12776TIP3    H138271   4.770   4.042   3.120
12776TIP3    H238272   4.707   4.111   3.001
12777TIP3   OH238273   6.192   2.149   2.780
12777TIP3    H138274   6.234   2.207   2.844
12777TIP3    H238275   6.246   2.158   2.701
12778TIP3   OH238276   2.328   2.061   6.309
12778TIP3    H138277   2.389   2.127   6.344
12778TIP3    H238278   2.384   2.002   6.259
12779TIP3   OH238279   6.156   1.131   5.632
12779TIP3    H138280   6.077   1.134   5.686
12779TIP3    H238281   6.196   1.218   5.644
12780TIP3   OH238282   2.239   7.780   3.761
12780TIP3    H138283   2.307   7.712   3.762
12780TIP3    H238284   2.277   7.852   3.712
12781TIP3   OH238285   2.966   3.126   5.753
12781TIP3    H138286   3.050   3.171   5.758
12781TIP3    H238287   2.950   3.093   5.841
12782TIP3   OH238288   1.453   6.673   4.584
12782TIP3    H138289   1.448   6.616   4.661
12782TIP3    H238290   1.379   6.734   4.594
12783TIP3   OH238291   7.138   2.325   1.144
12783TIP3    H138292   7.090   2.270   1.081
12783TIP3    H238293   7.121   2.285   1.229
12784TIP3   OH238294   2.393   6.492   6.062
12784TIP3    H138295   2.347   6.428   6.008
12784TIP3    H238296   2.377   6.576   6.019
12785TIP3   OH238297   0.756   4.956   0.491
12785TIP3    H138298   0.706   4.989   0.566
12785TIP3    H238299   0.748   4.861   0.497
12786TIP3   OH238300   3.157   6.536   1.382
12786TIP3    H138301   3.071   6.559   1.416
12786TIP3    H238302   3.193   6.475   1.447
12787TIP3   OH238303   2.464   4.294   6.317
12787TIP3    H138304   2.512   4.373   6.292
12787TIP3    H238305   2.531   4.227   6.326
12788TIP3   OH238306   2.712   6.671   6.469
12788TIP3    H138307   2.801   6.642   6.486
12788TIP3    H238308   2.667   6.593   6.437
12789TIP3   OH238309   5.131   3.306   3.534
12789TIP3    H138310   5.115   3.350   3.618
12789TIP3    H238311   5.168   3.221   3.559
12790TIP3   OH238312   6.002   6.355   4.393
12790TIP3    H138313   5.972   6.266   4.408
12790TIP3    H238314   5.933   6.411   4.429
12791TIP3   OH238315   5.538   2.954   4.117
12791TIP3    H138316   5.561   3.029   4.062
12791TIP3    H238317   5.447   2.935   4.095
12792TIP3   OH238318   0.817   4.196   2.982
12792TIP3    H138319   0.732   4.220   2.945
12792TIP3    H238320   0.852   4.278   3.016
12793TIP3   OH238321   7.376   3.144   4.599
12793TIP3    H138322   7.419   3.114   4.679
12793TIP3    H238323   7.430   3.215   4.567
12794TIP3   OH238324   6.055   2.825   6.381
12794TIP3    H138325   6.018   2.744   6.416
12794TIP3    H238326   6.068   2.808   6.288
12795TIP3   OH238327   7.996   7.737   2.529
12795TIP3    H138328   8.084   7.741   2.491
12795TIP3    H238329   8.012   7.725   2.623
12796TIP3   OH238330   4.410   2.387   3.671
12796TIP3    H138331   4.417   2.402   3.765
12796TIP3    H238332   4.430   2.472   3.631
12797TIP3   OH238333   6.595   0.698   5.985
12797TIP3    H138334   6.506   0.721   6.014
12797TIP3    H238335   6.593   0.602   5.979
12798TIP3   OH238336   2.674   3.437   5.090
12798TIP3    H138337   2.672   3.446   5.185
12798TIP3    H238338   2.766   3.443   5.067
12799TIP3   OH238339   1.210   1.399   6.561
12799TIP3    H138340   1.121   1.399   6.596
12799TIP3    H238341   1.237   1.491   6.562
12800TIP3   OH238342   7.058   6.670   5.962
12800TIP3    H138343   7.064   6.765   5.965
12800TIP3    H238344   7.019   6.646   6.047
12801TIP3   OH238345   1.149   5.066   5.660
12801TIP3    H138346   1.148   5.157   5.630
12801TIP3    H238347   1.187   5.069   5.747
12802TIP3   OH238348   7.516   6.293   4.221
12802TIP3    H138349   7.481   6.326   4.138
12802TIP3    H238350   7.493   6.360   4.285
12803TIP3   OH238351   1.653   4.635   5.429
12803TIP3    H138352   1.619   4.721   5.405
12803TIP3    H238353   1.748   4.643   5.422
12804TIP3   OH238354   7.641   6.330   2.378
12804TIP3    H138355   7.581   6.310   2.306
12804TIP3    H238356   7.594   6.301   2.456
12805TIP3   OH238357   6.075   1.498   0.206
12805TIP3    H138358   6.082   1.579   0.155
12805TIP3    H238359   6.088   1.526   0.297
12806TIP3   OH238360   3.365   3.752   4.990
12806TIP3    H138361   3.342   3.665   4.956
12806TIP3    H238362   3.314   3.760   5.070
12807TIP3   OH238363   0.678   0.019   2.675
12807TIP3    H138364   0.633  -0.001   2.757
12807TIP3    H238365   0.770   0.029   2.700
12808TIP3   OH238366   0.174   7.040   5.686
12808TIP3    H138367   0.105   6.974   5.689
12808TIP3    H238368   0.148   7.106   5.751
12809TIP3   OH238369   6.770   3.151   6.680
12809TIP3    H138370   6.855   3.126   6.643
12809TIP3    H238371   6.736   3.217   6.619
12810TIP3   OH238372   1.585   4.598   3.339
12810TIP3    H138373   1.537   4.549   3.272
12810TIP3    H238374   1.524   4.604   3.412
12811TIP3   OH238375   3.391   5.544   6.742
12811TIP3    H138376   3.324   5.520   6.806
12811TIP3    H238377   3.344   5.597   6.677
12812TIP3   OH238378   3.203   7.325   5.498
12812TIP3    H138379   3.185   7.380   5.575
12812TIP3    H238380   3.271   7.264   5.528
12813TIP3   OH238381   3.274   7.687   0.472
12813TIP3    H138382   3.186   7.720   0.453
12813TIP3    H238383   3.275   7.676   0.568
12814TIP3   OH238384   8.106   4.519   2.845
12814TIP3    H138385   8.117   4.614   2.850
12814TIP3    H238386   8.151   4.493   2.764
12815TIP3   OH238387   3.275   3.734   6.105
12815TIP3    H138388   3.258   3.704   6.194
12815TIP3    H238389   3.353   3.687   6.078
12816TIP3   OH238390   0.099   1.479   4.736
12816TIP3    H138391   0.080   1.572   4.725
12816TIP3    H238392   0.026   1.434   4.694
12817TIP3   OH238393   6.066   5.069   2.473
12817TIP3    H138394   6.157   5.040   2.471
12817TIP3    H238395   6.024   5.019   2.403
12818TIP3   OH238396   5.199   7.228   1.779
12818TIP3    H138397   5.122   7.213   1.834
12818TIP3    H238398   5.199   7.322   1.761
12819TIP3   OH238399   2.391   6.629   4.444
12819TIP3    H138400   2.460   6.672   4.393
12819TIP3    H238401   2.437   6.592   4.520
12820TIP3   OH238402   7.796   7.525   5.542
12820TIP3    H138403   7.841   7.487   5.466
12820TIP3    H238404   7.781   7.450   5.600
12821TIP3   OH238405   5.236   0.250   2.739
12821TIP3    H138406   5.181   0.328   2.734
12821TIP3    H238407   5.183   0.181   2.700
12822TIP3   OH238408   0.225   3.712   4.960
12822TIP3    H138409   0.197   3.690   4.872
12822TIP3    H238410   0.205   3.634   5.012
12823TIP3   OH238411   8.082   3.608   5.320
12823TIP3    H138412   8.103   3.515   5.315
12823TIP3    H238413   8.147   3.644   5.379
12824TIP3   OH238414   6.150   4.767   2.638
12824TIP3    H138415   6.159   4.819   2.557
12824TIP3    H238416   6.197   4.818   2.704
12825TIP3   OH238417   6.266   7.166   5.891
12825TIP3    H138418   6.267   7.095   5.955
12825TIP3    H238419   6.176   7.199   5.893
12826TIP3   OH238420   1.891   1.092   0.594
12826TIP3    H138421   1.967   1.150   0.582
12826TIP3    H238422   1.815   1.149   0.584
12827TIP3   OH238423   0.680   3.191   5.086
12827TIP3    H138424   0.715   3.262   5.139
12827TIP3    H238425   0.589   3.216   5.070
12828TIP3   OH238426   5.580   2.078   4.175
12828TIP3    H138427   5.658   2.132   4.186
12828TIP3    H238428   5.529   2.094   4.254
12829TIP3   OH238429   5.866   2.245   4.780
12829TIP3    H138430   5.859   2.243   4.685
12829TIP3    H238431   5.826   2.163   4.809
12830TIP3   OH238432   4.494   1.247   5.480
12830TIP3    H138433   4.480   1.161   5.519
12830TIP3    H238434   4.589   1.255   5.475
12831TIP3   OH238435   6.591   2.754   0.369
12831TIP3    H138436   6.511   2.741   0.421
12831TIP3    H238437   6.623   2.665   0.351
12832TIP3   OH238438   7.474   0.642   3.859
12832TIP3    H138439   7.411   0.624   3.790
12832TIP3    H238440   7.537   0.702   3.818
12833TIP3   OH238441   5.958   1.623   6.614
12833TIP3    H138442   5.963   1.711   6.576
12833TIP3    H238443   6.012   1.569   6.557
12834TIP3   OH238444   0.209   7.429   6.241
12834TIP3    H138445   0.122   7.410   6.204
12834TIP3    H238446   0.249   7.487   6.176
12835TIP3   OH238447   7.102   3.247   3.993
12835TIP3    H138448   7.016   3.214   3.969
12835TIP3    H238449   7.088   3.340   4.010
12836TIP3   OH238450   5.135   7.197   6.664
12836TIP3    H138451   5.110   7.116   6.620
12836TIP3    H238452   5.199   7.238   6.605
12837TIP3   OH238453   7.770   3.888   2.073
12837TIP3    H138454   7.735   3.973   2.049
12837TIP3    H238455   7.699   3.846   2.122
12838TIP3   OH238456   6.989   7.758   6.315
12838TIP3    H138457   6.962   7.819   6.245
12838TIP3    H238458   6.927   7.774   6.386
12839TIP3   OH238459   2.343   2.012   1.884
12839TIP3    H138460   2.424   2.042   1.925
12839TIP3    H238461   2.371   1.951   1.816
12840TIP3   OH238462   0.214   4.995   3.426
12840TIP3    H138463   0.220   5.077   3.476
12840TIP3    H238464   0.285   4.941   3.461
12841TIP3   OH238465   6.189   1.991   1.197
12841TIP3    H138466   6.094   2.008   1.191
12841TIP3    H238467   6.196   1.896   1.203
12842TIP3   OH238468   7.728   2.565   4.926
12842TIP3    H138469   7.700   2.480   4.959
12842TIP3    H238470   7.646   2.614   4.916
12843TIP3   OH238471   2.685   0.138   3.695
12843TIP3    H138472   2.765   0.178   3.729
12843TIP3    H238473   2.615   0.169   3.753
12844TIP3   OH238474   3.695   0.988   3.182
12844TIP3    H138475   3.755   1.062   3.183
12844TIP3    H238476   3.619   1.018   3.233
12845TIP3   OH238477   2.339   6.043   4.979
12845TIP3    H138478   2.295   6.001   4.905
12845TIP3    H238479   2.430   6.014   4.973
12846TIP3   OH238480   7.674   6.539   1.539
12846TIP3    H138481   7.647   6.625   1.571
12846TIP3    H238482   7.688   6.552   1.445
12847TIP3   OH238483   5.586   3.488   5.943
12847TIP3    H138484   5.573   3.396   5.921
12847TIP3    H238485   5.507   3.512   5.991
12848TIP3   OH238486   7.411   5.538   6.672
12848TIP3    H138487   7.356   5.490   6.734
12848TIP3    H238488   7.385   5.629   6.682
12849TIP3   OH238489   5.407   3.833   3.948
12849TIP3    H138490   5.448   3.900   3.893
12849TIP3    H238491   5.392   3.760   3.888
12850TIP3   OH238492   0.818   0.862   6.652
12850TIP3    H138493   0.774   0.901   6.577
12850TIP3    H238494   0.839   0.936   6.709
12851TIP3   OH238495   7.265   2.091   5.704
12851TIP3    H138496   7.288   2.168   5.651
12851TIP3    H238497   7.240   2.127   5.789
12852TIP3   OH238498   5.082   7.582   2.298
12852TIP3    H138499   5.142   7.583   2.372
12852TIP3    H238500   5.097   7.498   2.256
12853TIP3   OH238501   5.353   4.168   0.854
12853TIP3    H138502   5.277   4.190   0.800
12853TIP3    H238503   5.335   4.208   0.939
12854TIP3   OH238504   4.846   1.444   2.564
12854TIP3    H138505   4.808   1.357   2.572
12854TIP3    H238506   4.776   1.498   2.528
12855TIP3   OH238507   0.756   1.028   4.141
12855TIP3    H138508   0.690   0.985   4.087
12855TIP3    H238509   0.720   1.027   4.229
12856TIP3   OH238510   5.795   4.820   5.391
12856TIP3    H138511   5.823   4.884   5.456
12856TIP3    H238512   5.814   4.735   5.431
12857TIP3   OH238513   3.969   3.829   0.799
12857TIP3    H138514   3.967   3.795   0.889
12857TIP3    H238515   4.061   3.824   0.774
12858TIP3   OH238516   5.842   1.472   4.331
12858TIP3    H138517   5.812   1.442   4.417
12858TIP3    H238518   5.770   1.452   4.272
12859TIP3   OH238519   4.764   4.453   4.772
12859TIP3    H138520   4.722   4.387   4.827
12859TIP3    H238521   4.829   4.494   4.829
12860TIP3   OH238522   0.406   6.259   3.253
12860TIP3    H138523   0.351   6.313   3.196
12860TIP3    H238524   0.495   6.293   3.239
12861TIP3   OH238525   5.252   7.029   0.734
12861TIP3    H138526   5.265   7.112   0.688
12861TIP3    H238527   5.321   6.972   0.701
12862TIP3   OH238528   3.302   2.007   3.997
12862TIP3    H138529   3.260   1.922   4.010
12862TIP3    H238530   3.395   1.990   4.005
12863TIP3   OH238531   5.020   5.087   6.210
12863TIP3    H138532   4.963   5.163   6.199
12863TIP3    H238533   5.108   5.124   6.219
12864TIP3   OH238534   7.834   6.348   1.639
12864TIP3    H138535   7.900   6.351   1.570
12864TIP3    H238536   7.772   6.417   1.617
12865TIP3   OH238537   0.824   0.783   3.351
12865TIP3    H138538   0.808   0.732   3.431
12865TIP3    H238539   0.737   0.799   3.315
12866TIP3   OH238540   6.723   3.718   0.919
12866TIP3    H138541   6.664   3.719   0.994
12866TIP3    H238542   6.666   3.706   0.843
12867TIP3   OH238543   1.787   4.293   0.409
12867TIP3    H138544   1.838   4.217   0.437
12867TIP3    H238545   1.751   4.330   0.490
12868TIP3   OH238546   0.853   6.648   2.512
12868TIP3    H138547   0.851   6.573   2.452
12868TIP3    H238548   0.942   6.681   2.507
12869TIP3   OH238549   1.432   2.737   1.708
12869TIP3    H138550   1.422   2.643   1.725
12869TIP3    H238551   1.441   2.776   1.795
12870TIP3   OH238552   6.151   3.160   1.515
12870TIP3    H138553   6.068   3.175   1.560
12870TIP3    H238554   6.215   3.146   1.585
12871TIP3   OH238555   0.268   0.225   4.566
12871TIP3    H138556   0.248   0.308   4.524
12871TIP3    H238557   0.205   0.163   4.527
12872TIP3   OH238558   1.680   6.835   3.125
12872TIP3    H138559   1.611   6.781   3.087
12872TIP3    H238560   1.743   6.847   3.054
12873TIP3   OH238561   1.849   0.650   6.336
12873TIP3    H138562   1.902   0.601   6.400
12873TIP3    H238563   1.794   0.708   6.389
12874TIP3   OH238564   1.821   6.676   6.352
12874TIP3    H138565   1.914   6.677   6.371
12874TIP3    H238566   1.806   6.750   6.294
12875TIP3   OH238567   1.727   6.130   0.088
12875TIP3    H138568   1.750   6.205   0.033
12875TIP3    H238569   1.649   6.158   0.136
12876TIP3   OH238570   2.414   1.533   4.937
12876TIP3    H138571   2.482   1.588   4.975
12876TIP3    H238572   2.442   1.444   4.958
12877TIP3   OH238573   1.669   0.755   3.346
12877TIP3    H138574   1.700   0.832   3.299
12877TIP3    H238575   1.586   0.783   3.385
12878TIP3   OH238576   3.587   5.485   6.077
12878TIP3    H138577   3.653   5.499   6.009
12878TIP3    H238578   3.552   5.398   6.059
12879TIP3   OH238579   2.306   0.099   1.667
12879TIP3    H138580   2.313   0.003   1.661
12879TIP3    H238581   2.340   0.131   1.584
12880TIP3   OH238582   6.555   3.204   3.183
12880TIP3    H138583   6.520   3.117   3.165
12880TIP3    H238584   6.488   3.265   3.152
12881TIP3   OH238585   5.149   3.381   2.398
12881TIP3    H138586   5.149   3.366   2.304
12881TIP3    H238587   5.130   3.296   2.436
12882TIP3   OH238588   1.032   0.951   0.361
12882TIP3    H138589   0.997   0.863   0.374
12882TIP3    H238590   1.072   0.950   0.274
12883TIP3   OH238591   0.264   4.181   4.750
12883TIP3    H138592   0.277   4.269   4.715
12883TIP3    H238593   0.352   4.148   4.767
12884TIP3   OH238594   3.487   0.991   4.704
12884TIP3    H138595   3.545   1.031   4.768
12884TIP3    H238596   3.542   0.925   4.660
12885TIP3   OH238597   2.294   3.423   4.908
12885TIP3    H138598   2.317   3.508   4.871
12885TIP3    H238599   2.199   3.426   4.918
12886TIP3   OH238600   4.880   3.429   2.077
12886TIP3    H138601   4.974   3.444   2.083
12886TIP3    H238602   4.870   3.365   2.006
12887TIP3   OH238603   3.305   1.144   0.907
12887TIP3    H138604   3.309   1.196   0.988
12887TIP3    H238605   3.268   1.060   0.934
12888TIP3   OH238606   0.632   3.559   4.753
12888TIP3    H138607   0.687   3.528   4.825
12888TIP3    H238608   0.679   3.633   4.717
12889TIP3   OH238609   1.945   3.571   5.794
12889TIP3    H138610   1.981   3.638   5.851
12889TIP3    H238611   1.998   3.493   5.812
12890TIP3   OH238612   5.267   2.943   5.566
12890TIP3    H138613   5.204   2.967   5.498
12890TIP3    H238614   5.330   3.016   5.567
12891TIP3   OH238615   1.697   1.991   6.598
12891TIP3    H138616   1.723   2.018   6.686
12891TIP3    H238617   1.611   2.030   6.585
12892TIP3   OH238618   5.251   2.257   4.844
12892TIP3    H138619   5.345   2.252   4.824
12892TIP3    H238620   5.232   2.351   4.844
12893TIP3   OH238621   4.938   2.092   2.151
12893TIP3    H138622   4.949   2.184   2.124
12893TIP3    H238623   5.027   2.064   2.175
12894TIP3   OH238624   5.980   3.298   4.994
12894TIP3    H138625   6.028   3.244   4.931
12894TIP3    H238626   5.896   3.314   4.952
12895TIP3   OH238627   3.399   1.584   6.211
12895TIP3    H138628   3.407   1.602   6.305
12895TIP3    H238629   3.357   1.662   6.175
12896TIP3   OH238630   2.062   3.321   6.208
12896TIP3    H138631   2.125   3.251   6.225
12896TIP3    H238632   2.020   3.336   6.293
12897TIP3   OH238633   4.663   2.784   1.532
12897TIP3    H138634   4.626   2.814   1.449
12897TIP3    H238635   4.657   2.860   1.590
12898TIP3   OH238636   4.028   7.605   5.954
12898TIP3    H138637   4.014   7.584   6.047
12898TIP3    H238638   4.009   7.698   5.947
12899TIP3   OH238639   0.681   3.985   6.200
12899TIP3    H138640   0.736   3.921   6.244
12899TIP3    H238641   0.735   4.017   6.128
12900TIP3   OH238642   6.138   2.259   5.143
12900TIP3    H138643   6.220   2.294   5.177
12900TIP3    H238644   6.163   2.205   5.069
12901TIP3   OH238645   5.551   7.279   0.589
12901TIP3    H138646   5.558   7.349   0.524
12901TIP3    H238647   5.606   7.308   0.662
12902TIP3   OH238648   5.658   2.710   0.251
12902TIP3    H138649   5.732   2.649   0.261
12902TIP3    H238650   5.664   2.741   0.161
12903TIP3   OH238651   3.714   6.118   3.689
12903TIP3    H138652   3.716   6.196   3.634
12903TIP3    H238653   3.806   6.096   3.703
12904TIP3   OH238654   5.406   5.461   4.538
12904TIP3    H138655   5.446   5.524   4.599
12904TIP3    H238656   5.413   5.503   4.452
12905TIP3   OH238657   0.592   1.361   0.938
12905TIP3    H138658   0.513   1.337   0.889
12905TIP3    H238659   0.646   1.408   0.875
12906TIP3   OH238660   4.598   1.217   0.395
12906TIP3    H138661   4.505   1.223   0.372
12906TIP3    H238662   4.620   1.303   0.432
12907TIP3   OH238663   7.732   4.741   3.043
12907TIP3    H138664   7.732   4.681   3.118
12907TIP3    H238665   7.644   4.779   3.043
12908TIP3   OH238666   1.595   5.627   6.724
12908TIP3    H138667   1.507   5.663   6.736
12908TIP3    H238668   1.654   5.699   6.746
12909TIP3   OH238669   7.597   5.920   4.197
12909TIP3    H138670   7.642   5.965   4.125
12909TIP3    H238671   7.591   5.986   4.266
12910TIP3   OH238672   2.079   5.623   1.497
12910TIP3    H138673   2.047   5.632   1.407
12910TIP3    H238674   2.042   5.541   1.528
12911TIP3   OH238675   0.737   1.148   5.959
12911TIP3    H138676   0.824   1.185   5.943
12911TIP3    H238677   0.752   1.053   5.961
12912TIP3   OH238678   8.304   6.744   2.108
12912TIP3    H138679   8.209   6.748   2.116
12912TIP3    H238680   8.320   6.719   2.017
12913TIP3   OH238681   1.144   2.019   2.096
12913TIP3    H138682   1.158   2.113   2.111
12913TIP3    H238683   1.095   1.990   2.173
12914TIP3   OH238684   6.333   7.813   4.182
12914TIP3    H138685   6.381   7.761   4.247
12914TIP3    H238686   6.394   7.882   4.156
12915TIP3   OH238687   0.618   7.067   4.600
12915TIP3    H138688   0.661   7.043   4.682
12915TIP3    H238689   0.640   7.159   4.588
12916TIP3   OH238690   6.690   6.798   3.194
12916TIP3    H138691   6.776   6.764   3.217
12916TIP3    H238692   6.695   6.815   3.100
12917TIP3   OH238693   5.227   2.088   5.766
12917TIP3    H138694   5.147   2.071   5.815
12917TIP3    H238695   5.198   2.129   5.684
12918TIP3   OH238696   4.435   0.918   6.755
12918TIP3    H138697   4.391   1.003   6.746
12918TIP3    H238698   4.505   0.920   6.690
12919TIP3   OH238699   3.711   2.854   2.848
12919TIP3    H138700   3.667   2.881   2.767
12919TIP3    H238701   3.787   2.911   2.854
12920TIP3   OH238702   6.916   6.767   3.542
12920TIP3    H138703   6.828   6.804   3.532
12920TIP3    H238704   6.933   6.723   3.459
12921TIP3   OH238705   5.256   7.556   0.256
12921TIP3    H138706   5.170   7.515   0.246
12921TIP3    H238707   5.245   7.645   0.224
12922TIP3   OH238708   0.585   5.567   0.355
12922TIP3    H138709   0.666   5.610   0.383
12922TIP3    H238710   0.517   5.631   0.372
12923TIP3   OH238711   6.231   4.729   5.645
12923TIP3    H138712   6.138   4.705   5.652
12923TIP3    H238713   6.229   4.825   5.639
12924TIP3   OH238714   0.499   0.155   2.946
12924TIP3    H138715   0.450   0.080   2.913
12924TIP3    H238716   0.501   0.143   3.041
12925TIP3   OH238717   3.245   0.910   4.695
12925TIP3    H138718   3.210   0.969   4.627
12925TIP3    H238719   3.332   0.944   4.714
12926TIP3   OH238720   6.860   2.406   1.650
12926TIP3    H138721   6.768   2.419   1.627
12926TIP3    H238722   6.859   2.387   1.743
12927TIP3   OH238723   1.694   2.104   0.531
12927TIP3    H138724   1.647   2.176   0.573
12927TIP3    H238725   1.641   2.080   0.456
12928TIP3   OH238726   8.054   4.433   3.319
12928TIP3    H138727   8.086   4.524   3.319
12928TIP3    H238728   8.028   4.417   3.228
12929TIP3   OH238729   4.687   1.465   1.605
12929TIP3    H138730   4.677   1.463   1.700
12929TIP3    H238731   4.618   1.523   1.574
12930TIP3   OH238732   1.594   2.075   4.042
12930TIP3    H138733   1.509   2.112   4.018
12930TIP3    H238734   1.576   2.020   4.118
12931TIP3   OH238735   6.297   7.717   1.648
12931TIP3    H138736   6.321   7.625   1.654
12931TIP3    H238737   6.347   7.750   1.573
12932TIP3   OH238738   6.463   1.827   3.089
12932TIP3    H138739   6.401   1.757   3.072
12932TIP3    H238740   6.501   1.847   3.004
12933TIP3   OH238741   2.114   5.895   1.918
12933TIP3    H138742   2.203   5.902   1.953
12933TIP3    H238743   2.071   5.830   1.973
12934TIP3   OH238744   5.237   7.316   2.520
12934TIP3    H138745   5.279   7.338   2.603
12934TIP3    H238746   5.143   7.323   2.538
12935TIP3   OH238747   1.851   0.133   0.528
12935TIP3    H138748   1.828   0.103   0.440
12935TIP3    H238749   1.780   0.193   0.553
12936TIP3   OH238750   3.104   4.831   4.692
12936TIP3    H138751   3.129   4.740   4.675
12936TIP3    H238752   3.150   4.855   4.772
12937TIP3   OH238753   7.404   3.786   3.068
12937TIP3    H138754   7.470   3.772   3.000
12937TIP3    H238755   7.391   3.699   3.107
12938TIP3   OH238756   6.639   0.173   2.796
12938TIP3    H138757   6.568   0.125   2.753
12938TIP3    H238758   6.628   0.263   2.766
12939TIP3   OH238759   3.569   0.359   0.790
12939TIP3    H138760   3.604   0.304   0.860
12939TIP3    H238761   3.644   0.378   0.734
12940TIP3   OH238762   7.638   6.525   3.447
12940TIP3    H138763   7.631   6.609   3.493
12940TIP3    H238764   7.596   6.462   3.506
12941TIP3   OH238765   2.709   5.119   2.694
12941TIP3    H138766   2.756   5.159   2.767
12941TIP3    H238767   2.654   5.052   2.735
12942TIP3   OH238768   1.771   5.728   1.094
12942TIP3    H138769   1.821   5.672   1.035
12942TIP3    H238770   1.720   5.784   1.035
12943TIP3   OH238771   2.242   7.248   4.832
12943TIP3    H138772   2.227   7.188   4.760
12943TIP3    H238773   2.337   7.253   4.841
12944TIP3   OH238774   4.838   7.760   5.789
12944TIP3    H138775   4.745   7.742   5.799
12944TIP3    H238776   4.872   7.686   5.739
12945TIP3   OH238777   4.041   0.272   1.336
12945TIP3    H138778   3.976   0.205   1.316
12945TIP3    H238779   4.092   0.281   1.255
12946TIP3   OH238780   5.449   6.916   1.417
12946TIP3    H138781   5.443   7.011   1.429
12946TIP3    H238782   5.452   6.904   1.322
12947TIP3   OH238783   0.241   0.532   4.755
12947TIP3    H138784   0.193   0.613   4.737
12947TIP3    H238785   0.275   0.544   4.844
12948TIP3   OH238786   3.089   2.532   3.875
12948TIP3    H138787   3.094   2.488   3.791
12948TIP3    H238788   3.072   2.462   3.938
12949TIP3   OH238789   3.004   6.327   5.996
12949TIP3    H138790   3.007   6.231   6.002
12949TIP3    H238791   2.915   6.350   6.022
12950TIP3   OH238792   3.177   2.664   5.865
12950TIP3    H138793   3.259   2.713   5.878
12950TIP3    H238794   3.125   2.685   5.942
12951TIP3   OH238795   2.515   0.342   3.902
12951TIP3    H138796   2.486   0.381   3.984
12951TIP3    H238797   2.494   0.249   3.911
12952TIP3   OH238798   6.510   6.273   3.044
12952TIP3    H138799   6.567   6.240   3.114
12952TIP3    H238800   6.570   6.309   2.979
12953TIP3   OH238801   7.622   3.708   2.248
12953TIP3    H138802   7.648   3.767   2.318
12953TIP3    H238803   7.679   3.631   2.260
12954TIP3   OH238804   4.136   7.693   1.002
12954TIP3    H138805   4.145   7.690   1.097
12954TIP3    H238806   4.218   7.656   0.969
12955TIP3   OH238807   5.723   5.593   1.949
12955TIP3    H138808   5.646   5.538   1.943
12955TIP3    H238809   5.783   5.558   1.882
12956TIP3   OH238810   6.304   0.170   5.715
12956TIP3    H138811   6.386   0.121   5.704
12956TIP3    H238812   6.252   0.117   5.775
12957TIP3   OH238813   2.353   0.264   2.308
12957TIP3    H138814   2.333   0.253   2.215
12957TIP3    H238815   2.428   0.208   2.324
12958TIP3   OH238816   7.427   2.199   0.021
12958TIP3    H138817   7.495   2.229   0.081
12958TIP3    H238818   7.463   2.215  -0.066
12959TIP3   OH238819   7.561   2.916   5.439
12959TIP3    H138820   7.640   2.897   5.491
12959TIP3    H238821   7.495   2.942   5.504
12960TIP3   OH238822   5.162   0.126   6.659
12960TIP3    H138823   5.132   0.217   6.663
12960TIP3    H238824   5.096   0.081   6.606
12961TIP3   OH238825   2.990   0.058   0.723
12961TIP3    H138826   2.941  -0.005   0.670
12961TIP3    H238827   3.027   0.005   0.794
12962TIP3   OH238828   2.642   4.040   0.545
12962TIP3    H138829   2.613   4.110   0.488
12962TIP3    H238830   2.568   3.980   0.549
12963TIP3   OH238831   7.492   3.752   5.159
12963TIP3    H138832   7.455   3.707   5.235
12963TIP3    H238833   7.495   3.684   5.091
12964TIP3   OH238834   1.756   2.511   3.129
12964TIP3    H138835   1.661   2.507   3.133
12964TIP3    H238836   1.776   2.604   3.114
12965TIP3   OH238837   1.560   6.429   4.096
12965TIP3    H138838   1.555   6.507   4.041
12965TIP3    H238839   1.548   6.463   4.185
12966TIP3   OH238840   6.461   6.729   0.780
12966TIP3    H138841   6.437   6.637   0.765
12966TIP3    H238842   6.510   6.753   0.701
12967TIP3   OH238843   1.173   0.099   2.711
12967TIP3    H138844   1.161   0.081   2.618
12967TIP3    H238845   1.130   0.026   2.756
12968TIP3   OH238846   3.629   6.903   3.874
12968TIP3    H138847   3.636   6.825   3.819
12968TIP3    H238848   3.609   6.869   3.962
12969TIP3   OH238849   7.727   0.244   6.056
12969TIP3    H138850   7.736   0.149   6.052
12969TIP3    H238851   7.677   0.260   6.136
12970TIP3   OH238852   1.760   0.525   0.410
12970TIP3    H138853   1.772   0.613   0.375
12970TIP3    H238854   1.667   0.521   0.434
12971TIP3   OH238855   4.766   6.939   4.666
12971TIP3    H138856   4.696   6.878   4.688
12971TIP3    H238857   4.820   6.943   4.745
12972TIP3   OH238858   2.860   1.013   3.656
12972TIP3    H138859   2.842   1.105   3.636
12972TIP3    H238860   2.864   1.009   3.751
12973TIP3   OH238861   2.152   3.556   1.829
12973TIP3    H138862   2.230   3.585   1.877
12973TIP3    H238863   2.158   3.601   1.745
12974TIP3   OH238864   3.118   4.415   1.154
12974TIP3    H138865   3.117   4.384   1.063
12974TIP3    H238866   3.088   4.506   1.148
12975TIP3   OH238867   4.981   0.754   4.729
12975TIP3    H138868   4.905   0.697   4.745
12975TIP3    H238869   4.959   0.836   4.773
12976TIP3   OH238870   3.540   0.708   6.450
12976TIP3    H138871   3.525   0.789   6.402
12976TIP3    H238872   3.622   0.674   6.415
12977TIP3   OH238873   2.571   3.821   4.959
12977TIP3    H138874   2.531   3.734   4.950
12977TIP3    H238875   2.561   3.842   5.052
12978TIP3   OH238876   5.265   2.134   1.189
12978TIP3    H138877   5.326   2.077   1.235
12978TIP3    H238878   5.192   2.146   1.250
12979TIP3   OH238879   4.773   4.587   1.292
12979TIP3    H138880   4.797   4.619   1.379
12979TIP3    H238881   4.842   4.526   1.269
12980TIP3   OH238882   5.469   2.631   5.689
12980TIP3    H138883   5.525   2.642   5.613
12980TIP3    H238884   5.389   2.590   5.654
12981TIP3   OH238885   1.979   2.469   1.779
12981TIP3    H138886   1.975   2.529   1.854
12981TIP3    H238887   1.945   2.386   1.813
12982TIP3   OH238888   0.662   1.400   5.012
12982TIP3    H138889   0.718   1.427   5.084
12982TIP3    H238890   0.583   1.367   5.055
12983TIP3   OH238891   4.402   0.758   5.926
12983TIP3    H138892   4.378   0.668   5.907
12983TIP3    H238893   4.431   0.756   6.018
12984TIP3   OH238894   3.239   3.594   6.332
12984TIP3    H138895   3.163   3.553   6.291
12984TIP3    H238896   3.275   3.527   6.390
12985TIP3   OH238897   5.669   3.269   5.116
12985TIP3    H138898   5.608   3.343   5.116
12985TIP3    H238899   5.708   3.271   5.204
12986TIP3   OH238900   5.187   7.794   2.608
12986TIP3    H138901   5.237   7.722   2.569
12986TIP3    H238902   5.233   7.873   2.580
12987TIP3   OH238903   4.734   7.655   0.037
12987TIP3    H138904   4.667   7.723   0.041
12987TIP3    H238905   4.694   7.580   0.080
12988TIP3   OH238906   2.796   5.713   1.821
12988TIP3    H138907   2.871   5.709   1.880
12988TIP3    H238908   2.746   5.789   1.850
12989TIP3   OH238909   0.955   5.141   6.585
12989TIP3    H138910   1.039   5.137   6.630
12989TIP3    H238911   0.954   5.227   6.542
12990TIP3   OH238912   6.017   3.879   4.696
12990TIP3    H138913   6.026   3.931   4.777
12990TIP3    H238914   5.923   3.858   4.693
12991TIP3   OH238915   5.409   5.913   1.606
12991TIP3    H138916   5.346   5.877   1.543
12991TIP3    H238917   5.372   5.997   1.633
12992TIP3   OH238918   5.730   5.919   6.579
12992TIP3    H138919   5.733   5.983   6.649
12992TIP3    H238920   5.745   5.835   6.622
12993TIP3   OH238921   8.084   3.172   2.112
12993TIP3    H138922   8.079   3.184   2.207
12993TIP3    H238923   7.999   3.137   2.087
12994TIP3   OH238924   5.653   2.190   5.190
12994TIP3    H138925   5.693   2.264   5.145
12994TIP3    H238926   5.715   2.168   5.260
12995TIP3   OH238927   7.666   6.558   4.178
12995TIP3    H138928   7.679   6.651   4.162
12995TIP3    H238929   7.718   6.514   4.111
12996TIP3   OH238930   0.503   2.445   1.575
12996TIP3    H138931   0.461   2.360   1.567
12996TIP3    H238932   0.561   2.437   1.651
12997TIP3   OH238933   3.021   3.823   2.169
12997TIP3    H138934   3.099   3.873   2.145
12997TIP3    H238935   3.044   3.732   2.151
12998TIP3   OH238936   0.209   0.253   6.139
12998TIP3    H138937   0.137   0.305   6.103
12998TIP3    H238938   0.287   0.288   6.098
12999TIP3   OH238939   8.010   4.198   0.848
12999TIP3    H138940   8.023   4.106   0.869
12999TIP3    H238941   7.956   4.232   0.919
13000TIP3   OH238942   4.750   4.157   1.683
13000TIP3    H138943   4.839   4.143   1.716
13000TIP3    H238944   4.754   4.129   1.592
13001TIP3   OH238945   7.654   4.824   2.363
13001TIP3    H138946   7.707   4.892   2.322
13001TIP3    H238947   7.702   4.743   2.346
13002TIP3   OH238948   4.523   5.727   4.897
13002TIP3    H138949   4.606   5.770   4.878
13002TIP3    H238950   4.483   5.780   4.966
13003TIP3   OH238951   6.634   6.248   0.734
13003TIP3    H138952   6.616   6.333   0.695
13003TIP3    H238953   6.686   6.201   0.668
13004TIP3   OH238954   4.837   2.347   5.328
13004TIP3    H138955   4.876   2.342   5.240
13004TIP3    H238956   4.834   2.257   5.358
13005TIP3   OH238957   7.028   6.981   4.301
13005TIP3    H138958   6.961   6.946   4.241
13005TIP3    H238959   7.024   6.924   4.377
13006TIP3   OH238960   0.945   2.333   6.686
13006TIP3    H138961   0.959   2.421   6.721
13006TIP3    H238962   0.942   2.345   6.591
13007TIP3   OH238963   5.835   6.645   4.731
13007TIP3    H138964   5.864   6.621   4.819
13007TIP3    H238965   5.915   6.644   4.678
13008TIP3   OH238966   0.706   2.338   2.315
13008TIP3    H138967   0.685   2.280   2.241
13008TIP3    H238968   0.694   2.426   2.280
13009TIP3   OH238969   7.056   4.861   3.864
13009TIP3    H138970   6.969   4.844   3.828
13009TIP3    H238971   7.075   4.951   3.840
13010TIP3   OH238972   0.694   2.307   0.313
13010TIP3    H138973   0.599   2.321   0.313
13010TIP3    H238974   0.720   2.317   0.405
13011TIP3   OH238975   5.569   1.881   1.082
13011TIP3    H138976   5.526   1.953   1.036
13011TIP3    H238977   5.497   1.829   1.118
13012TIP3   OH238978   3.064   2.882   0.566
13012TIP3    H138979   3.078   2.911   0.476
13012TIP3    H238980   3.061   2.963   0.617
13013TIP3   OH238981   3.387   3.486   1.575
13013TIP3    H138982   3.373   3.448   1.662
13013TIP3    H238983   3.341   3.428   1.515
13014TIP3   OH238984   3.868   1.875   0.711
13014TIP3    H138985   3.791   1.889   0.767
13014TIP3    H238986   3.894   1.963   0.684
13015TIP3   OH238987   7.034   7.073   5.703
13015TIP3    H138988   7.036   7.000   5.765
13015TIP3    H238989   7.010   7.149   5.756
13016TIP3   OH238990   5.086   1.334   3.300
13016TIP3    H138991   5.172   1.368   3.276
13016TIP3    H238992   5.082   1.343   3.395
13017TIP3   OH238993   8.133   1.210   2.713
13017TIP3    H138994   8.086   1.251   2.785
13017TIP3    H238995   8.082   1.233   2.635
13018TIP3   OH238996   5.630   7.452   5.687
13018TIP3    H138997   5.689   7.477   5.616
13018TIP3    H238998   5.668   7.490   5.766
13019TIP3   OH238999   7.676   7.214   0.781
13019TIP3    H139000   7.624   7.140   0.814
13019TIP3    H239001   7.756   7.212   0.834
13020TIP3   OH239002   6.686   0.429   5.441
13020TIP3    H139003   6.716   0.503   5.494
13020TIP3    H239004   6.766   0.387   5.410
13021TIP3   OH239005   6.458   0.055   0.214
13021TIP3    H139006   6.372   0.074   0.178
13021TIP3    H239007   6.443  -0.017   0.275
13022TIP3   OH239008   4.508   0.010   1.301
13022TIP3    H139009   4.442   0.056   1.353
13022TIP3    H239010   4.591   0.046   1.331
13023TIP3   OH239011   4.817   7.768   1.711
13023TIP3    H139012   4.867   7.734   1.637
13023TIP3    H239013   4.883   7.808   1.768
13024TIP3   OH239014   6.046   0.986   2.578
13024TIP3    H139015   6.004   1.010   2.661
13024TIP3    H239016   6.140   0.996   2.595
13025TIP3   OH239017   4.410   6.749   3.567
13025TIP3    H139018   4.434   6.828   3.616
13025TIP3    H239019   4.491   6.719   3.528
13026TIP3   OH239020   4.695   1.988   1.533
13026TIP3    H139021   4.744   2.055   1.486
13026TIP3    H239022   4.728   1.905   1.499
13027TIP3   OH239023   7.170   5.143   6.644
13027TIP3    H139024   7.262   5.140   6.668
13027TIP3    H239025   7.157   5.232   6.612
13028TIP3   OH239026   3.503   6.070   1.233
13028TIP3    H139027   3.473   6.004   1.295
13028TIP3    H239028   3.472   6.153   1.269
13029TIP3   OH239029   3.366   5.137   3.888
13029TIP3    H139030   3.363   5.200   3.960
13029TIP3    H239031   3.282   5.092   3.892
13030TIP3   OH239032   2.143   3.268   5.663
13030TIP3    H139033   2.125   3.201   5.729
13030TIP3    H239034   2.178   3.219   5.588
13031TIP3   OH239035   1.068   3.809   2.911
13031TIP3    H139036   0.984   3.852   2.926
13031TIP3    H239037   1.058   3.764   2.827
13032TIP3   OH239038   4.554   5.324   6.543
13032TIP3    H139039   4.495   5.265   6.589
13032TIP3    H239040   4.522   5.324   6.453
13033TIP3   OH239041   7.370   3.164   3.526
13033TIP3    H139042   7.359   3.199   3.615
13033TIP3    H239043   7.395   3.241   3.474
13034TIP3   OH239044   5.297   1.737   6.609
13034TIP3    H139045   5.220   1.680   6.619
13034TIP3    H239046   5.360   1.703   6.672
13035TIP3   OH239047   3.843   2.402   1.337
13035TIP3    H139048   3.759   2.365   1.364
13035TIP3    H239049   3.824   2.445   1.253
13036TIP3   OH239050   0.821   7.536   3.800
13036TIP3    H139051   0.814   7.443   3.781
13036TIP3    H239052   0.753   7.577   3.747
13037TIP3   OH239053   4.132   0.941   4.946
13037TIP3    H139054   4.075   0.974   4.877
13037TIP3    H239055   4.181   0.869   4.906
13038TIP3   OH239056   7.838   2.325   2.793
13038TIP3    H139057   7.796   2.246   2.757
13038TIP3    H239058   7.767   2.389   2.798
13039TIP3   OH239059   7.030   4.738   5.883
13039TIP3    H139060   6.944   4.777   5.897
13039TIP3    H239061   7.024   4.698   5.796
13040TIP3   OH239062   2.441   2.144   4.034
13040TIP3    H139063   2.490   2.171   4.111
13040TIP3    H239064   2.454   2.215   3.971
13041TIP3   OH239065   5.187   1.800   4.811
13041TIP3    H139066   5.173   1.710   4.784
13041TIP3    H239067   5.185   1.798   4.906
13042TIP3   OH239068   2.466   0.624   6.089
13042TIP3    H139069   2.503   0.542   6.054
13042TIP3    H239070   2.528   0.692   6.061
13043TIP3   OH239071   7.936   6.627   2.911
13043TIP3    H139072   7.912   6.597   2.824
13043TIP3    H239073   8.021   6.585   2.928
13044TIP3   OH239074   7.151   2.669   4.722
13044TIP3    H139075   7.102   2.741   4.762
13044TIP3    H239076   7.091   2.594   4.725
13045TIP3   OH239077   1.450   3.690   4.164
13045TIP3    H139078   1.364   3.648   4.168
13045TIP3    H239079   1.495   3.647   4.091
13046TIP3   OH239080   4.860   6.399   0.543
13046TIP3    H139081   4.953   6.389   0.560
13046TIP3    H239082   4.834   6.319   0.499
13047TIP3   OH239083   2.344   4.701   2.318
13047TIP3    H139084   2.368   4.668   2.232
13047TIP3    H239085   2.308   4.625   2.364
13048TIP3   OH239086   3.996   3.114   4.778
13048TIP3    H139087   4.065   3.068   4.730
13048TIP3    H239088   3.938   3.149   4.711
13049TIP3   OH239089   3.218   4.570   4.399
13049TIP3    H139090   3.292   4.518   4.431
13049TIP3    H239091   3.143   4.510   4.405
13050TIP3   OH239092   7.360   5.129   0.601
13050TIP3    H139093   7.428   5.118   0.668
13050TIP3    H239094   7.278   5.110   0.647
13051TIP3   OH239095   4.280   7.705   3.804
13051TIP3    H139096   4.310   7.629   3.855
13051TIP3    H239097   4.361   7.750   3.779
13052TIP3   OH239098   5.153   3.640   6.268
13052TIP3    H139099   5.089   3.679   6.209
13052TIP3    H239100   5.103   3.579   6.322
13053TIP3   OH239101   3.913   1.581   3.926
13053TIP3    H139102   3.858   1.504   3.939
13053TIP3    H239103   3.928   1.584   3.831
13054TIP3   OH239104   2.414   0.459   5.243
13054TIP3    H139105   2.431   0.497   5.156
13054TIP3    H239106   2.386   0.533   5.296
13055TIP3   OH239107   8.245   1.042   3.622
13055TIP3    H139108   8.272   1.096   3.548
13055TIP3    H239109   8.326   1.007   3.657
13056TIP3   OH239110   6.529   5.643   5.121
13056TIP3    H139111   6.588   5.628   5.047
13056TIP3    H239112   6.469   5.569   5.120
13057TIP3   OH239113   1.387   4.754   1.816
13057TIP3    H139114   1.469   4.804   1.822
13057TIP3    H239115   1.319   4.818   1.838
13058TIP3   OH239116   0.696   4.054   5.023
13058TIP3    H139117   0.781   4.097   5.036
13058TIP3    H239118   0.655   4.056   5.109
13059TIP3   OH239119   1.251   3.542   1.717
13059TIP3    H139120   1.226   3.602   1.787
13059TIP3    H239121   1.229   3.589   1.636
13060TIP3   OH239122   3.311   3.937   2.213
13060TIP3    H139123   3.291   3.943   2.120
13060TIP3    H239124   3.402   3.965   2.220
13061TIP3   OH239125   0.245   7.833  -0.024
13061TIP3    H139126   0.309   7.780  -0.070
13061TIP3    H239127   0.258   7.812   0.069
13062TIP3   OH239128   7.008   6.941   6.002
13062TIP3    H139129   6.986   7.034   6.002
13062TIP3    H239130   7.101   6.939   6.024
13063TIP3   OH239131   7.680   7.739   6.658
13063TIP3    H139132   7.631   7.738   6.575
13063TIP3    H239133   7.655   7.657   6.701
13064TIP3   OH239134   5.161   3.516   2.111
13064TIP3    H139135   5.180   3.598   2.064
13064TIP3    H239136   5.216   3.451   2.068
13065TIP3   OH239137   2.122   7.359   6.025
13065TIP3    H139138   2.097   7.440   5.981
13065TIP3    H239139   2.040   7.311   6.034
13066TIP3   OH239140   8.053   5.059   4.452
13066TIP3    H139141   8.107   4.983   4.475
13066TIP3    H239142   7.999   5.028   4.379
13067TIP3   OH239143   5.400   3.946   6.537
13067TIP3    H139144   5.410   3.934   6.632
13067TIP3    H239145   5.356   3.867   6.507
13068TIP3   OH239146   2.781   6.461   1.842
13068TIP3    H139147   2.844   6.402   1.801
13068TIP3    H239148   2.751   6.517   1.771
13069TIP3   OH239149   0.076   4.406   6.698
13069TIP3    H139150   0.144   4.403   6.631
13069TIP3    H239151  -0.006   4.399   6.649
13070TIP3   OH239152   7.659   5.789   6.172
13070TIP3    H139153   7.754   5.791   6.188
13070TIP3    H239154   7.636   5.696   6.180
13071TIP3   OH239155   3.175   3.875   0.696
13071TIP3    H139156   3.239   3.945   0.683
13071TIP3    H239157   3.096   3.920   0.726
13072TIP3   OH239158   3.754   1.653   1.063
13072TIP3    H139159   3.741   1.624   1.153
13072TIP3    H239160   3.666   1.669   1.030
13073TIP3   OH239161   2.285   3.407   2.560
13073TIP3    H139162   2.195   3.397   2.590
13073TIP3    H239163   2.334   3.433   2.637
13074TIP3   OH239164   4.768   3.591   3.906
13074TIP3    H139165   4.750   3.650   3.834
13074TIP3    H239166   4.861   3.570   3.898
13075TIP3   OH239167   6.700   3.371   3.352
13075TIP3    H139168   6.651   3.304   3.304
13075TIP3    H239169   6.695   3.449   3.295
13076TIP3   OH239170   3.255   1.363   2.818
13076TIP3    H139171   3.182   1.404   2.865
13076TIP3    H239172   3.261   1.275   2.855
13077TIP3   OH239173   5.007   5.339   5.027
13077TIP3    H139174   5.050   5.327   4.943
13077TIP3    H239175   4.983   5.251   5.055
13078TIP3   OH239176   2.158   6.159   1.812
13078TIP3    H139177   2.153   6.068   1.842
13078TIP3    H239178   2.083   6.169   1.754
13079TIP3   OH239179   7.196   0.905   3.658
13079TIP3    H139180   7.188   0.907   3.563
13079TIP3    H239181   7.221   0.995   3.682
13080TIP3   OH239182   1.259   2.922   1.288
13080TIP3    H139183   1.322   2.973   1.338
13080TIP3    H239184   1.226   2.856   1.349
13081TIP3   OH239185   0.432   4.010   0.642
13081TIP3    H139186   0.426   3.924   0.683
13081TIP3    H239187   0.508   4.050   0.683
13082TIP3   OH239188   6.420   0.140   2.336
13082TIP3    H139189   6.515   0.151   2.326
13082TIP3    H239190   6.384   0.228   2.326
13083TIP3   OH239191   3.628   4.728   2.800
13083TIP3    H139192   3.601   4.641   2.771
13083TIP3    H239193   3.549   4.781   2.794
13084TIP3   OH239194   0.147   4.708   6.699
13084TIP3    H139195   0.066   4.667   6.670
13084TIP3    H239196   0.120   4.780   6.755
13085TIP3   OH239197   3.129   5.012   2.358
13085TIP3    H139198   3.200   5.063   2.398
13085TIP3    H239199   3.068   4.995   2.430
13086TIP3   OH239200   0.856   2.504   6.271
13086TIP3    H139201   0.771   2.514   6.314
13086TIP3    H239202   0.841   2.440   6.202
13087TIP3   OH239203   6.045   1.852   5.415
13087TIP3    H139204   6.094   1.836   5.334
13087TIP3    H239205   6.092   1.923   5.458
13088TIP3   OH239206   5.116   0.156   0.400
13088TIP3    H139207   5.114   0.063   0.423
13088TIP3    H239208   5.209   0.178   0.396
13089TIP3   OH239209   4.701   1.735   5.225
13089TIP3    H139210   4.751   1.722   5.145
13089TIP3    H239211   4.671   1.647   5.249
13090TIP3   OH239212   0.195   2.340   2.780
13090TIP3    H139213   0.166   2.261   2.734
13090TIP3    H239214   0.164   2.328   2.870
13091TIP3   OH239215   6.151   2.720   4.267
13091TIP3    H139216   6.232   2.676   4.241
13091TIP3    H239217   6.088   2.650   4.279
13092TIP3   OH239218   6.081   7.719   4.356
13092TIP3    H139219   5.991   7.720   4.390
13092TIP3    H239220   6.131   7.771   4.419
13093TIP3   OH239221   1.113   0.062   2.434
13093TIP3    H139222   1.104   0.148   2.391
13093TIP3    H239223   1.092  -0.001   2.366
13094TIP3   OH239224   4.280   7.456   2.677
13094TIP3    H139225   4.359   7.499   2.713
13094TIP3    H239226   4.311   7.413   2.597
13095TIP3   OH239227   8.174   3.435   3.080
13095TIP3    H139228   8.083   3.406   3.083
13095TIP3    H239229   8.206   3.402   2.996
13096TIP3   OH239230   3.691   6.070   4.022
13096TIP3    H139231   3.651   6.045   4.105
13096TIP3    H239232   3.625   6.051   3.956
13097TIP3   OH239233   1.946   2.039   3.407
13097TIP3    H139234   1.925   2.111   3.348
13097TIP3    H239235   1.982   1.971   3.350
13098TIP3   OH239236   6.866   5.701   3.059
13098TIP3    H139237   6.869   5.701   3.154
13098TIP3    H239238   6.781   5.739   3.037
13099TIP3   OH239239   5.990   0.782   0.734
13099TIP3    H139240   5.943   0.705   0.703
13099TIP3    H239241   6.051   0.803   0.663
13100TIP3   OH239242   0.002   1.833   5.153
13100TIP3    H139243  -0.004   1.926   5.177
13100TIP3    H239244   0.048   1.793   5.227
13101TIP3   OH239245   4.141   0.624   3.600
13101TIP3    H139246   4.213   0.680   3.628
13101TIP3    H239247   4.184   0.550   3.558
13102TIP3   OH239248   4.309   2.711   1.149
13102TIP3    H139249   4.214   2.726   1.156
13102TIP3    H239250   4.318   2.649   1.077
13103TIP3   OH239251   6.498   3.552   1.614
13103TIP3    H139252   6.460   3.487   1.673
13103TIP3    H239253   6.431   3.619   1.605
13104TIP3   OH239254   1.130   6.344   2.910
13104TIP3    H139255   1.096   6.390   2.987
13104TIP3    H239256   1.160   6.259   2.943
13105TIP3   OH239257   3.111   7.688   1.434
13105TIP3    H139258   3.103   7.682   1.529
13105TIP3    H239259   3.059   7.615   1.401
13106TIP3   OH239260   3.268   1.408   4.252
13106TIP3    H139261   3.233   1.460   4.325
13106TIP3    H239262   3.200   1.414   4.184
13107TIP3   OH239263   3.289   0.054   4.821
13107TIP3    H139264   3.364   0.000   4.847
13107TIP3    H239265   3.247   0.078   4.904
13108TIP3   OH239266   7.584   6.587   5.549
13108TIP3    H139267   7.552   6.637   5.624
13108TIP3    H239268   7.530   6.508   5.547
13109TIP3   OH239269   4.326   1.781   2.809
13109TIP3    H139270   4.294   1.727   2.737
13109TIP3    H239271   4.351   1.718   2.876
13110TIP3   OH239272   5.506   7.190   1.469
13110TIP3    H139273   5.444   7.260   1.449
13110TIP3    H239274   5.570   7.230   1.528
13111TIP3   OH239275   7.621   7.020   2.479
13111TIP3    H139276   7.600   6.928   2.464
13111TIP3    H239277   7.708   7.031   2.440
13112TIP3   OH239278   1.854   5.692   4.907
13112TIP3    H139279   1.758   5.688   4.915
13112TIP3    H239280   1.870   5.761   4.843
13113TIP3   OH239281   1.975   2.685   1.424
13113TIP3    H139282   1.958   2.733   1.343
13113TIP3    H239283   1.930   2.601   1.412
13114TIP3   OH239284   2.187   3.105   5.460
13114TIP3    H139285   2.117   3.070   5.404
13114TIP3    H239286   2.268   3.085   5.413
13115TIP3   OH239287   3.172   2.786   6.371
13115TIP3    H139288   3.134   2.872   6.387
13115TIP3    H239289   3.211   2.792   6.284
13116TIP3   OH239290   0.390   0.485   4.980
13116TIP3    H139291   0.480   0.469   4.954
13116TIP3    H239292   0.391   0.478   5.076
13117TIP3   OH239293   6.031   3.253   2.742
13117TIP3    H139294   5.961   3.282   2.683
13117TIP3    H239295   5.984   3.210   2.814
13118TIP3   OH239296   5.859   4.852   4.137
13118TIP3    H139297   5.819   4.880   4.055
13118TIP3    H239298   5.899   4.767   4.116
13119TIP3   OH239299   6.927   4.376   2.793
13119TIP3    H139300   6.992   4.310   2.768
13119TIP3    H239301   6.930   4.440   2.722
13120TIP3   OH239302   1.024   2.757   1.456
13120TIP3    H139303   1.043   2.678   1.505
13120TIP3    H239304   1.005   2.727   1.367
13121TIP3   OH239305   1.694   2.982   4.990
13121TIP3    H139306   1.748   3.051   4.952
13121TIP3    H239307   1.754   2.932   5.046
13122TIP3   OH239308   1.353   2.451   3.041
13122TIP3    H139309   1.323   2.525   2.987
13122TIP3    H239310   1.272   2.404   3.063
13123TIP3   OH239311   7.049   6.415   4.862
13123TIP3    H139312   7.039   6.340   4.804
13123TIP3    H239313   6.994   6.395   4.938
13124TIP3   OH239314   6.395   4.960   0.669
13124TIP3    H139315   6.455   5.035   0.663
13124TIP3    H239316   6.390   4.926   0.580
13125TIP3   OH239317   3.220   5.099   5.688
13125TIP3    H139318   3.170   5.049   5.751
13125TIP3    H239319   3.236   5.038   5.616
13126TIP3   OH239320   5.582   3.210   3.121
13126TIP3    H139321   5.661   3.261   3.136
13126TIP3    H239322   5.539   3.207   3.207
13127TIP3   OH239323   1.719   6.376   2.988
13127TIP3    H139324   1.678   6.366   2.902
13127TIP3    H239325   1.656   6.429   3.038
13128TIP3   OH239326   1.079   4.623   6.264
13128TIP3    H139327   1.145   4.569   6.306
13128TIP3    H239328   1.003   4.616   6.322
13129TIP3   OH239329   1.317   7.370   3.423
13129TIP3    H139330   1.305   7.414   3.339
13129TIP3    H239331   1.337   7.279   3.400
13130TIP3   OH239332   7.706   3.455   1.372
13130TIP3    H139333   7.757   3.531   1.343
13130TIP3    H239334   7.749   3.380   1.329
13131TIP3   OH239335   1.423   7.212   2.925
13131TIP3    H139336   1.347   7.192   2.980
13131TIP3    H239337   1.496   7.170   2.970
13132TIP3   OH239338   5.688   5.283   2.550
13132TIP3    H139339   5.714   5.225   2.622
13132TIP3    H239340   5.687   5.226   2.473
13133TIP3   OH239341   2.259   3.260   3.848
13133TIP3    H139342   2.348   3.252   3.882
13133TIP3    H239343   2.213   3.184   3.883
13134TIP3   OH239344   0.594   0.946   0.813
13134TIP3    H139345   0.635   1.009   0.753
13134TIP3    H239346   0.667   0.903   0.857
13135TIP3   OH239347   7.926   3.130   1.712
13135TIP3    H139348   8.013   3.167   1.702
13135TIP3    H239349   7.937   3.036   1.693
13136TIP3   OH239350   1.927   4.802   5.989
13136TIP3    H139351   1.987   4.870   6.017
13136TIP3    H239352   1.934   4.734   6.056
13137TIP3   OH239353   0.939   5.976   3.483
13137TIP3    H139354   0.911   5.887   3.463
13137TIP3    H239355   0.868   6.012   3.537
13138TIP3   OH239356   1.049   4.894   2.434
13138TIP3    H139357   0.982   4.921   2.496
13138TIP3    H239358   1.102   4.830   2.482
13139TIP3   OH239359   1.895   2.074   6.402
13139TIP3    H139360   1.851   2.026   6.472
13139TIP3    H239361   1.963   2.013   6.371
13140TIP3   OH239362   4.008   5.281   5.544
13140TIP3    H139363   3.950   5.212   5.575
13140TIP3    H239364   3.950   5.342   5.498
13141TIP3   OH239365   3.598   5.245   2.806
13141TIP3    H139366   3.555   5.320   2.847
13141TIP3    H239367   3.562   5.243   2.717
13142TIP3   OH239368   8.182   4.767   0.962
13142TIP3    H139369   8.148   4.714   0.890
13142TIP3    H239370   8.114   4.832   0.978
13143TIP3   OH239371   4.238   4.550   2.051
13143TIP3    H139372   4.288   4.476   2.016
13143TIP3    H239373   4.303   4.604   2.095
13144TIP3   OH239374   0.449   4.710   5.031
13144TIP3    H139375   0.523   4.687   5.086
13144TIP3    H239376   0.479   4.694   4.942
13145TIP3   OH239377   4.404   0.275   4.731
13145TIP3    H139378   4.349   0.349   4.758
13145TIP3    H239379   4.422   0.228   4.813
13146TIP3   OH239380   0.021   4.596   0.075
13146TIP3    H139381   0.097   4.595   0.133
13146TIP3    H239382  -0.020   4.510   0.087
13147TIP3   OH239383   7.541   0.253   3.211
13147TIP3    H139384   7.463   0.307   3.229
13147TIP3    H239385   7.613   0.316   3.208
13148TIP3   OH239386   3.751   4.934   2.319
13148TIP3    H139387   3.696   4.865   2.357
13148TIP3    H239388   3.833   4.929   2.368
13149TIP3   OH239389   1.703   7.593   3.480
13149TIP3    H139390   1.774   7.639   3.437
13149TIP3    H239391   1.745   7.546   3.552
13150TIP3   OH239392   0.749   4.259   3.592
13150TIP3    H139393   0.707   4.262   3.506
13150TIP3    H239394   0.768   4.167   3.607
13151TIP3   OH239395   2.365   1.396   4.029
13151TIP3    H139396   2.342   1.385   4.121
13151TIP3    H239397   2.419   1.319   4.009
13152TIP3   OH239398   0.011   6.281   3.355
13152TIP3    H139399   0.065   6.338   3.411
13152TIP3    H239400   0.030   6.311   3.266
13153TIP3   OH239401   2.109   2.877   0.077
13153TIP3    H139402   2.184   2.821   0.095
13153TIP3    H239403   2.036   2.817   0.063
13154TIP3   OH239404   1.184  -0.037   1.560
13154TIP3    H139405   1.095  -0.021   1.527
13154TIP3    H239406   1.217   0.050   1.582
13155TIP3   OH239407   3.031   1.300   1.433
13155TIP3    H139408   3.115   1.255   1.434
13155TIP3    H239409   2.991   1.274   1.350
13156TIP3   OH239410   7.515   1.923   4.540
13156TIP3    H139411   7.609   1.934   4.523
13156TIP3    H239412   7.506   1.939   4.634
13157TIP3   OH239413   0.431   4.681   1.074
13157TIP3    H139414   0.351   4.671   1.127
13157TIP3    H239415   0.439   4.599   1.027
13158TIP3   OH239416   7.121   1.528   4.595
13158TIP3    H139417   7.131   1.621   4.576
13158TIP3    H239418   7.074   1.526   4.679
13159TIP3   OH239419   4.440   5.443   0.000
13159TIP3    H139420   4.432   5.450   0.095
13159TIP3    H239421   4.361   5.396  -0.028
13160TIP3   OH239422   5.404   0.377   0.977
13160TIP3    H139423   5.499   0.374   0.983
13160TIP3    H239424   5.386   0.456   0.926
13161TIP3   OH239425   3.863   7.590   0.783
13161TIP3    H139426   3.938   7.627   0.737
13161TIP3    H239427   3.889   7.500   0.804
13162TIP3   OH239428   5.732   0.202   3.106
13162TIP3    H139429   5.808   0.247   3.070
13162TIP3    H239430   5.705   0.142   3.037
13163TIP3   OH239431   0.264   5.630   2.147
13163TIP3    H139432   0.304   5.618   2.233
13163TIP3    H239433   0.314   5.571   2.090
13164TIP3   OH239434   3.331   3.671   0.573
13164TIP3    H139435   3.251   3.702   0.613
13164TIP3    H239436   3.396   3.738   0.594
13165TIP3   OH239437   6.368   2.637   3.712
13165TIP3    H139438   6.439   2.636   3.649
13165TIP3    H239439   6.392   2.706   3.774
13166TIP3   OH239440   7.291   2.101   1.886
13166TIP3    H139441   7.221   2.166   1.881
13166TIP3    H239442   7.368   2.144   1.851
13167TIP3   OH239443   2.904   0.686   5.502
13167TIP3    H139444   2.879   0.711   5.591
13167TIP3    H239445   2.920   0.591   5.508
13168TIP3   OH239446   5.693   0.343   3.556
13168TIP3    H139447   5.633   0.330   3.630
13168TIP3    H239448   5.699   0.258   3.515
13169TIP3   OH239449   2.159   6.319   5.906
13169TIP3    H139450   2.089   6.350   5.964
13169TIP3    H239451   2.173   6.228   5.931
13170TIP3   OH239452   5.920   6.904   2.462
13170TIP3    H139453   5.891   6.948   2.382
13170TIP3    H239454   5.879   6.953   2.533
13171TIP3   OH239455   7.651   4.803   1.450
13171TIP3    H139456   7.653   4.708   1.444
13171TIP3    H239457   7.579   4.822   1.509
13172TIP3   OH239458   1.162   4.789   5.792
13172TIP3    H139459   1.081   4.782   5.843
13172TIP3    H239460   1.207   4.865   5.829
13173TIP3   OH239461   6.270   5.613   1.399
13173TIP3    H139462   6.352   5.570   1.425
13173TIP3    H239463   6.295   5.671   1.327
13174TIP3   OH239464   6.021   2.752   5.070
13174TIP3    H139465   5.969   2.802   5.007
13174TIP3    H239466   5.979   2.666   5.073
13175TIP3   OH239467   4.087   4.767   1.712
13175TIP3    H139468   4.005   4.816   1.719
13175TIP3    H239469   4.063   4.676   1.729
13176TIP3   OH239470   7.288   4.522   5.175
13176TIP3    H139471   7.301   4.428   5.190
13176TIP3    H239472   7.343   4.564   5.241
13177TIP3   OH239473   7.135   0.394   0.392
13177TIP3    H139474   7.174   0.317   0.436
13177TIP3    H239475   7.041   0.386   0.409
13178TIP3   OH239476   4.329   3.847   1.146
13178TIP3    H139477   4.320   3.826   1.053
13178TIP3    H239478   4.262   3.914   1.162
13179TIP3   OH239479   0.449   6.619   6.013
13179TIP3    H139480   0.376   6.675   5.987
13179TIP3    H239481   0.446   6.546   5.952
13180TIP3   OH239482   5.977   4.516   3.011
13180TIP3    H139483   6.014   4.429   3.028
13180TIP3    H239484   5.946   4.512   2.921
13181TIP3   OH239485   1.984   1.028   4.914
13181TIP3    H139486   2.028   1.099   4.961
13181TIP3    H239487   1.907   1.070   4.874
13182TIP3   OH239488   5.431   5.450   1.534
13182TIP3    H139489   5.475   5.498   1.604
13182TIP3    H239490   5.491   5.378   1.513
13183TIP3   OH239491   2.901   1.644   2.804
13183TIP3    H139492   2.912   1.709   2.734
13183TIP3    H239493   2.980   1.651   2.856
13184TIP3   OH239494   4.991   7.513   0.201
13184TIP3    H139495   4.927   7.582   0.186
13184TIP3    H239496   4.989   7.460   0.121
13185TIP3   OH239497   1.943   0.141   5.702
13185TIP3    H139498   1.976   0.051   5.711
13185TIP3    H239499   1.888   0.154   5.780
13186TIP3   OH239500   0.572   5.025   0.241
13186TIP3    H139501   0.639   5.054   0.180
13186TIP3    H239502   0.593   5.071   0.323
13187TIP3   OH239503   3.864   2.100   3.290
13187TIP3    H139504   3.876   2.007   3.273
13187TIP3    H239505   3.905   2.114   3.376
13188TIP3   OH239506   2.708   0.127   2.621
13188TIP3    H139507   2.789   0.178   2.615
13188TIP3    H239508   2.718   0.075   2.701
13189TIP3   OH239509   5.639   0.750   3.899
13189TIP3    H139510   5.633   0.845   3.906
13189TIP3    H239511   5.733   0.732   3.908
13190TIP3   OH239512   0.498   2.622   4.984
13190TIP3    H139513   0.470   2.683   4.916
13190TIP3    H239514   0.429   2.556   4.988
13191TIP3   OH239515   1.076   0.327   0.624
13191TIP3    H139516   0.981   0.329   0.632
13191TIP3    H239517   1.105   0.413   0.653
13192TIP3   OH239518   8.029   4.674   3.516
13192TIP3    H139519   8.001   4.719   3.596
13192TIP3    H239520   7.960   4.693   3.452
13193TIP3   OH239521   4.175   3.321   2.996
13193TIP3    H139522   4.246   3.257   2.987
13193TIP3    H239523   4.220   3.405   3.010
13194TIP3   OH239524   7.286   7.111   4.301
13194TIP3    H139525   7.207   7.058   4.289
13194TIP3    H239526   7.264   7.195   4.261
13195TIP3   OH239527   7.890   1.114   1.324
13195TIP3    H139528   7.803   1.106   1.363
13195TIP3    H239529   7.941   1.165   1.386
13196TIP3   OH239530   8.222   5.600   2.919
13196TIP3    H139531   8.174   5.549   2.854
13196TIP3    H239532   8.161   5.608   2.993
13197TIP3   OH239533   2.523   5.947   3.424
13197TIP3    H139534   2.562   5.956   3.511
13197TIP3    H239535   2.552   6.025   3.377
13198TIP3   OH239536   6.855   6.790   4.157
13198TIP3    H139537   6.811   6.705   4.166
13198TIP3    H239538   6.856   6.806   4.063
13199TIP3   OH239539   1.286   3.217   0.397
13199TIP3    H139540   1.344   3.180   0.331
13199TIP3    H239541   1.206   3.164   0.391
13200TIP3   OH239542   7.060   0.505   6.531
13200TIP3    H139543   6.987   0.472   6.478
13200TIP3    H239544   7.131   0.517   6.468
13201TIP3   OH239545   6.262   0.727   4.306
13201TIP3    H139546   6.309   0.697   4.229
13201TIP3    H239547   6.237   0.817   4.285
13202TIP3   OH239548   5.107   1.170   6.375
13202TIP3    H139549   5.013   1.189   6.373
13202TIP3    H239550   5.150   1.252   6.350
13203TIP3   OH239551   7.155   3.022   4.620
13203TIP3    H139552   7.242   3.055   4.643
13203TIP3    H239553   7.125   2.977   4.699
13204TIP3   OH239554   0.067   1.966   4.525
13204TIP3    H139555   0.064   1.925   4.612
13204TIP3    H239556   0.143   2.024   4.528
13205TIP3   OH239557   2.041   4.725   2.481
13205TIP3    H139558   2.035   4.633   2.507
13205TIP3    H239559   2.102   4.764   2.544
13206TIP3   OH239560   1.428   2.442   1.910
13206TIP3    H139561   1.506   2.429   1.964
13206TIP3    H239562   1.462   2.452   1.821
13207TIP3   OH239563   2.850   3.680   4.424
13207TIP3    H139564   2.931   3.709   4.466
13207TIP3    H239565   2.789   3.666   4.497
13208TIP3   OH239566   3.069   2.666   3.331
13208TIP3    H139567   2.983   2.649   3.370
13208TIP3    H239568   3.102   2.579   3.306
13209TIP3   OH239569   4.763   1.991   0.449
13209TIP3    H139570   4.735   1.965   0.537
13209TIP3    H239571   4.814   1.916   0.417
13210TIP3   OH239572   3.993   5.941   0.354
13210TIP3    H139573   4.085   5.944   0.379
13210TIP3    H239574   3.945   5.957   0.436
13211TIP3   OH239575   2.699   7.442   1.340
13211TIP3    H139576   2.648   7.484   1.409
13211TIP3    H239577   2.666   7.352   1.338
13212TIP3   OH239578   8.249   5.976   0.246
13212TIP3    H139579   8.270   5.892   0.287
13212TIP3    H239580   8.160   5.965   0.211
13213TIP3   OH239581   3.870   3.908   0.242
13213TIP3    H139582   3.838   3.984   0.194
13213TIP3    H239583   3.795   3.881   0.296
13214TIP3   OH239584   3.240   6.474   0.635
13214TIP3    H139585   3.229   6.509   0.547
13214TIP3    H239586   3.335   6.461   0.644
13215TIP3   OH239587   8.145   4.539   6.265
13215TIP3    H139588   8.109   4.457   6.233
13215TIP3    H239589   8.238   4.536   6.241
13216TIP3   OH239590   4.058   3.925   3.307
13216TIP3    H139591   4.153   3.911   3.316
13216TIP3    H239592   4.050   4.017   3.283
13217TIP3   OH239593   4.061   0.332   3.739
13217TIP3    H139594   4.070   0.263   3.805
13217TIP3    H239595   4.084   0.413   3.785
13218TIP3   OH239596   6.028   1.000   1.850
13218TIP3    H139597   6.019   1.096   1.855
13218TIP3    H239598   5.939   0.967   1.861
13219TIP3   OH239599   7.529   3.756   0.356
13219TIP3    H139600   7.494   3.745   0.267
13219TIP3    H239601   7.479   3.693   0.408
13220TIP3   OH239602   2.869   1.449   1.209
13220TIP3    H139603   2.788   1.411   1.242
13220TIP3    H239604   2.918   1.374   1.174
13221TIP3   OH239605   7.787   4.542   0.832
13221TIP3    H139606   7.726   4.536   0.759
13221TIP3    H239607   7.733   4.568   0.907
13222TIP3   OH239608   4.669   6.146   2.795
13222TIP3    H139609   4.764   6.137   2.798
13222TIP3    H239610   4.654   6.240   2.787
13223TIP3   OH239611   8.171   7.725   4.938
13223TIP3    H139612   8.133   7.683   5.015
13223TIP3    H239613   8.265   7.723   4.953
13224TIP3   OH239614   0.377   5.460   5.023
13224TIP3    H139615   0.342   5.528   5.081
13224TIP3    H239616   0.414   5.509   4.950
13225TIP3   OH239617   4.070   2.880   1.557
13225TIP3    H139618   4.141   2.842   1.506
13225TIP3    H239619   3.992   2.831   1.528
13226TIP3   OH239620   2.363   5.926   3.720
13226TIP3    H139621   2.330   6.016   3.718
13226TIP3    H239622   2.458   5.935   3.712
13227TIP3   OH239623   1.452   4.447   2.679
13227TIP3    H139624   1.402   4.452   2.760
13227TIP3    H239625   1.387   4.464   2.610
13228TIP3   OH239626   6.107   3.549   6.746
13228TIP3    H139627   6.117   3.465   6.793
13228TIP3    H239628   6.100   3.524   6.654
13229TIP3   OH239629   1.403   4.736   6.469
13229TIP3    H139630   1.484   4.760   6.424
13229TIP3    H239631   1.393   4.803   6.536
13230TIP3   OH239632   6.098   4.850   3.394
13230TIP3    H139633   6.107   4.933   3.347
13230TIP3    H239634   6.125   4.784   3.331
13231TIP3   OH239635   3.910   0.291   3.200
13231TIP3    H139636   3.935   0.201   3.219
13231TIP3    H239637   3.915   0.336   3.284
13232TIP3   OH239638   5.157   3.029   0.489
13232TIP3    H139639   5.137   3.002   0.399
13232TIP3    H239640   5.100   2.974   0.543
13233TIP3   OH239641   3.958   4.434   6.218
13233TIP3    H139642   4.049   4.406   6.208
13233TIP3    H239643   3.953   4.468   6.307
13234TIP3   OH239644   1.558   4.998   4.684
13234TIP3    H139645   1.608   4.933   4.733
13234TIP3    H239646   1.562   5.077   4.737
13235TIP3   OH239647   6.435   0.508   6.219
13235TIP3    H139648   6.496   0.531   6.290
13235TIP3    H239649   6.391   0.591   6.199
13236TIP3   OH239650   7.558   7.669   1.942
13236TIP3    H139651   7.516   7.589   1.974
13236TIP3    H239652   7.548   7.732   2.013
13237TIP3   OH239653   2.486   2.880   6.424
13237TIP3    H139654   2.484   2.799   6.475
13237TIP3    H239655   2.526   2.855   6.340
13238TIP3   OH239656   0.726   5.029   3.966
13238TIP3    H139657   0.695   4.939   3.978
13238TIP3    H239658   0.781   5.024   3.888
13239TIP3   OH239659   3.771   1.136   3.883
13239TIP3    H139660   3.817   1.057   3.909
13239TIP3    H239661   3.839   1.192   3.844
13240TIP3   OH239662   1.555   0.039   2.983
13240TIP3    H139663   1.483   0.101   2.985
13240TIP3    H239664   1.601   0.058   2.901
13241TIP3   OH239665   2.826   1.692   3.348
13241TIP3    H139666   2.858   1.605   3.323
13241TIP3    H239667   2.826   1.742   3.266
13242TIP3   OH239668   7.193   3.704   0.166
13242TIP3    H139669   7.218   3.620   0.203
13242TIP3    H239670   7.120   3.734   0.221
13243TIP3   OH239671   6.936   6.456   3.398
13243TIP3    H139672   7.011   6.500   3.356
13243TIP3    H239673   6.861   6.511   3.376
13244TIP3   OH239674   4.194   0.470   3.273
13244TIP3    H139675   4.250   0.417   3.330
13244TIP3    H239676   4.217   0.441   3.184
13245TIP3   OH239677   4.770   0.851   4.159
13245TIP3    H139678   4.811   0.764   4.163
13245TIP3    H239679   4.762   0.878   4.250
13246TIP3   OH239680   1.368   1.042   2.573
13246TIP3    H139681   1.432   0.993   2.623
13246TIP3    H239682   1.386   1.134   2.594
13247TIP3   OH239683   0.795   6.997   3.020
13247TIP3    H139684   0.794   7.021   3.113
13247TIP3    H239685   0.859   6.926   3.014
13248TIP3   OH239686   0.000   3.332   0.269
13248TIP3    H139687   0.054   3.254   0.257
13248TIP3    H239688   0.062   3.399   0.299
13249TIP3   OH239689   7.334   6.226   6.131
13249TIP3    H139690   7.409   6.200   6.078
13249TIP3    H239691   7.352   6.317   6.156
13250TIP3   OH239692   4.853   0.708   6.039
13250TIP3    H139693   4.946   0.726   6.028
13250TIP3    H239694   4.823   0.684   5.951
13251TIP3   OH239695   6.005   5.361   3.555
13251TIP3    H139696   5.929   5.368   3.498
13251TIP3    H239697   6.066   5.305   3.506
13252TIP3   OH239698   6.957   0.094   3.127
13252TIP3    H139699   6.997   0.018   3.084
13252TIP3    H239700   6.983   0.086   3.218
13253TIP3   OH239701   1.992   5.425   3.898
13253TIP3    H139702   2.062   5.387   3.951
13253TIP3    H239703   2.033   5.445   3.814
13254TIP3   OH239704   5.033   4.267   4.513
13254TIP3    H139705   4.945   4.289   4.543
13254TIP3    H239706   5.081   4.246   4.593
13255TIP3   OH239707   4.701   4.950   5.412
13255TIP3    H139708   4.614   4.956   5.372
13255TIP3    H239709   4.751   4.895   5.352
13256TIP3   OH239710   0.490   1.163   1.813
13256TIP3    H139711   0.403   1.125   1.827
13256TIP3    H239712   0.541   1.091   1.777
13257TIP3   OH239713   7.416   7.023   6.268
13257TIP3    H139714   7.459   7.107   6.261
13257TIP3    H239715   7.487   6.959   6.277
13258TIP3   OH239716   0.599   0.594   5.497
13258TIP3    H139717   0.633   0.506   5.512
13258TIP3    H239718   0.670   0.652   5.524
13259TIP3   OH239719   2.459   4.093   6.535
13259TIP3    H139720   2.369   4.085   6.567
13259TIP3    H239721   2.454   4.068   6.443
13260TIP3   OH239722   1.319   3.809   5.427
13260TIP3    H139723   1.272   3.875   5.477
13260TIP3    H239724   1.403   3.798   5.472
13261TIP3   OH239725   2.481   5.961   6.457
13261TIP3    H139726   2.419   5.977   6.529
13261TIP3    H239727   2.459   5.874   6.425
13262TIP3   OH239728   1.325   5.655   6.622
13262TIP3    H139729   1.290   5.629   6.537
13262TIP3    H239730   1.294   5.588   6.683
13263TIP3   OH239731   5.085   7.071   4.622
13263TIP3    H139732   5.010   7.088   4.565
13263TIP3    H239733   5.084   6.976   4.635
13264TIP3   OH239734   6.855   1.639   1.863
13264TIP3    H139735   6.785   1.658   1.800
13264TIP3    H239736   6.843   1.702   1.933
13265TIP3   OH239737   4.706   0.897   4.429
13265TIP3    H139738   4.623   0.855   4.455
13265TIP3    H239739   4.683   0.988   4.415
13266TIP3   OH239740   1.135   6.190   2.319
13266TIP3    H139741   1.221   6.198   2.279
13266TIP3    H239742   1.137   6.251   2.393
13267TIP3   OH239743   6.494   3.408   5.354
13267TIP3    H139744   6.421   3.437   5.408
13267TIP3    H239745   6.470   3.320   5.326
13268TIP3   OH239746   2.193   7.432   2.375
13268TIP3    H139747   2.124   7.494   2.353
13268TIP3    H239748   2.274   7.484   2.372
13269TIP3   OH239749   4.884   7.303   4.656
13269TIP3    H139750   4.860   7.322   4.565
13269TIP3    H239751   4.814   7.245   4.687
13270TIP3   OH239752   7.265   1.086   3.318
13270TIP3    H139753   7.264   1.012   3.379
13270TIP3    H239754   7.188   1.138   3.343
13271TIP3   OH239755   3.455   5.448   1.656
13271TIP3    H139756   3.410   5.533   1.663
13271TIP3    H239757   3.529   5.465   1.598
13272TIP3   OH239758   0.854   6.905   3.568
13272TIP3    H139759   0.773   6.918   3.617
13272TIP3    H239760   0.924   6.925   3.630
13273TIP3   OH239761   1.254   6.388   6.065
13273TIP3    H139762   1.279   6.307   6.109
13273TIP3    H239763   1.294   6.382   5.978
13274TIP3   OH239764   8.095   2.471   5.779
13274TIP3    H139765   8.049   2.389   5.796
13274TIP3    H239766   8.037   2.539   5.813
13275TIP3   OH239767   1.585   6.642   0.113
13275TIP3    H139768   1.516   6.615   0.053
13275TIP3    H239769   1.567   6.735   0.129
13276TIP3   OH239770   4.685   7.412   0.123
13276TIP3    H139771   4.733   7.336   0.155
13276TIP3    H239772   4.607   7.376   0.082
13277TIP3   OH239773   1.525   2.313   3.833
13277TIP3    H139774   1.449   2.279   3.879
13277TIP3    H239775   1.569   2.369   3.897
13278TIP3   OH239776   0.652   5.549   2.447
13278TIP3    H139777   0.700   5.627   2.476
13278TIP3    H239778   0.673   5.482   2.511
13279TIP3   OH239779   3.646   7.568   2.546
13279TIP3    H139780   3.581   7.561   2.615
13279TIP3    H239781   3.599   7.541   2.466
13280TIP3   OH239782   6.291   5.768   4.120
13280TIP3    H139783   6.332   5.725   4.045
13280TIP3    H239784   6.207   5.798   4.088
13281TIP3   OH239785   5.359   4.033   1.150
13281TIP3    H139786   5.443   4.072   1.124
13281TIP3    H239787   5.342   3.965   1.085
13282TIP3   OH239788   5.410   3.391   1.308
13282TIP3    H139789   5.427   3.321   1.246
13282TIP3    H239790   5.315   3.393   1.317
13283TIP3   OH239791   0.551   4.432   2.617
13283TIP3    H139792   0.527   4.515   2.576
13283TIP3    H239793   0.482   4.417   2.683
13284TIP3   OH239794   7.967   5.810   3.653
13284TIP3    H139795   8.037   5.875   3.645
13284TIP3    H239796   7.989   5.762   3.732
13285TIP3   OH239797   6.943   5.539   1.150
13285TIP3    H139798   6.928   5.581   1.065
13285TIP3    H239799   6.867   5.564   1.202
13286TIP3   OH239800   5.116   2.033   4.330
13286TIP3    H139801   5.068   2.111   4.357
13286TIP3    H239802   5.104   1.972   4.403
13287TIP3   OH239803   7.738   1.933   0.525
13287TIP3    H139804   7.694   1.863   0.572
13287TIP3    H239805   7.762   1.894   0.441
13288TIP3   OH239806   6.806   1.858   4.763
13288TIP3    H139807   6.791   1.952   4.766
13288TIP3    H239808   6.735   1.824   4.708
13289TIP3   OH239809   6.623   6.503   2.262
13289TIP3    H139810   6.606   6.475   2.172
13289TIP3    H239811   6.711   6.542   2.259
13290TIP3   OH239812   7.447   6.418   4.708
13290TIP3    H139813   7.390   6.432   4.784
13290TIP3    H239814   7.534   6.406   4.745
13291TIP3   OH239815   2.487   4.490   2.654
13291TIP3    H139816   2.467   4.495   2.560
13291TIP3    H239817   2.574   4.451   2.658
13292TIP3   OH239818   0.436   1.634   3.857
13292TIP3    H139819   0.463   1.723   3.835
13292TIP3    H239820   0.518   1.584   3.864
13293TIP3   OH239821   0.072   3.257   2.069
13293TIP3    H139822   0.007   3.323   2.048
13293TIP3    H239823   0.029   3.198   2.130
13294TIP3   OH239824   8.235   5.324   3.397
13294TIP3    H139825   8.314   5.319   3.451
13294TIP3    H239826   8.267   5.322   3.307
13295TIP3   OH239827   5.427   6.570   2.626
13295TIP3    H139828   5.490   6.632   2.661
13295TIP3    H239829   5.346   6.588   2.674
13296TIP3   OH239830   1.701   6.364   1.718
13296TIP3    H139831   1.607   6.353   1.704
13296TIP3    H239832   1.736   6.385   1.632
13297TIP3   OH239833   5.578   6.702   4.769
13297TIP3    H139834   5.664   6.677   4.735
13297TIP3    H239835   5.516   6.667   4.705
13298TIP3   OH239836   3.840   5.039   6.064
13298TIP3    H139837   3.803   5.104   6.005
13298TIP3    H239838   3.877   4.972   6.007
13299TIP3   OH239839   6.305   7.674   3.052
13299TIP3    H139840   6.247   7.598   3.043
13299TIP3    H239841   6.333   7.672   3.144
13300TIP3   OH239842   0.738   1.413   0.721
13300TIP3    H139843   0.697   1.491   0.683
13300TIP3    H239844   0.809   1.391   0.661
13301TIP3   OH239845   7.072   3.337   0.756
13301TIP3    H139846   6.977   3.330   0.741
13301TIP3    H239847   7.085   3.430   0.778
13302TIP3   OH239848   2.246   5.620   4.123
13302TIP3    H139849   2.272   5.606   4.032
13302TIP3    H239850   2.178   5.688   4.118
13303TIP3   OH239851   5.019   4.167   3.751
13303TIP3    H139852   5.015   4.096   3.686
13303TIP3    H239853   4.995   4.125   3.833
13304TIP3   OH239854   6.443   3.206   1.071
13304TIP3    H139855   6.507   3.138   1.092
13304TIP3    H239856   6.397   3.223   1.154
13305TIP3   OH239857   2.420   0.437   1.672
13305TIP3    H139858   2.349   0.451   1.609
13305TIP3    H239859   2.453   0.349   1.651
13306TIP3   OH239860   0.565   3.562   4.016
13306TIP3    H139861   0.590   3.470   4.016
13306TIP3    H239862   0.643   3.608   4.046
13307TIP3   OH239863   1.836   2.398   0.750
13307TIP3    H139864   1.768   2.426   0.689
13307TIP3    H239865   1.918   2.414   0.703
13308TIP3   OH239866   5.316   0.985   2.533
13308TIP3    H139867   5.381   0.996   2.464
13308TIP3    H239868   5.338   0.902   2.574
13309TIP3   OH239869   3.528   7.411   2.332
13309TIP3    H139870   3.438   7.380   2.336
13309TIP3    H239871   3.526   7.485   2.272
13310TIP3   OH239872   4.406   3.330   3.218
13310TIP3    H139873   4.495   3.360   3.235
13310TIP3    H239874   4.415   3.238   3.192
13311TIP3   OH239875   7.121   7.291   5.146
13311TIP3    H139876   7.116   7.372   5.095
13311TIP3    H239877   7.181   7.236   5.097
13312TIP3   OH239878   0.138   4.651   4.975
13312TIP3    H139879   0.121   4.631   4.883
13312TIP3    H239880   0.096   4.579   5.023
13313TIP3   OH239881   8.155   4.646   1.919
13313TIP3    H139882   8.173   4.599   1.838
13313TIP3    H239883   8.241   4.673   1.951
13314TIP3   OH239884   5.651   4.606   5.977
13314TIP3    H139885   5.701   4.533   5.939
13314TIP3    H239886   5.639   4.667   5.904
13315TIP3   OH239887   5.290   5.748   5.988
13315TIP3    H139888   5.217   5.710   6.037
13315TIP3    H239889   5.368   5.723   6.038
13316TIP3   OH239890   4.911   4.052   6.609
13316TIP3    H139891   4.982   4.081   6.552
13316TIP3    H239892   4.910   4.116   6.681
13317TIP3   OH239893   4.500   3.419   1.993
13317TIP3    H139894   4.566   3.437   2.060
13317TIP3    H239895   4.427   3.380   2.041
13318TIP3   OH239896   1.088   1.123   3.558
13318TIP3    H139897   1.023   1.192   3.546
13318TIP3    H239898   1.082   1.101   3.651
13319TIP3   OH239899   0.062   3.576   0.006
13319TIP3    H139900  -0.012   3.634  -0.012
13319TIP3    H239901   0.034   3.491  -0.026
13320TIP3   OH239902   7.371   4.328   0.471
13320TIP3    H139903   7.429   4.256   0.496
13320TIP3    H239904   7.289   4.309   0.516
13321TIP3   OH239905   4.775   4.900   4.201
13321TIP3    H139906   4.732   4.857   4.128
13321TIP3    H239907   4.721   4.977   4.220
13322TIP3   OH239908   5.477   6.566   3.587
13322TIP3    H139909   5.470   6.477   3.553
13322TIP3    H239910   5.421   6.618   3.529
13323TIP3   OH239911   5.585   0.172   2.010
13323TIP3    H139912   5.512   0.162   2.071
13323TIP3    H239913   5.663   0.172   2.065
13324TIP3   OH239914   4.787   1.691   3.870
13324TIP3    H139915   4.791   1.772   3.819
13324TIP3    H239916   4.720   1.638   3.827
13325TIP3   OH239917   1.651   5.468   2.706
13325TIP3    H139918   1.582   5.498   2.765
13325TIP3    H239919   1.626   5.378   2.684
13326TIP3   OH239920   2.180   3.189   3.376
13326TIP3    H139921   2.151   3.226   3.460
13326TIP3    H239922   2.109   3.131   3.350
13327TIP3   OH239923   1.375   0.869   0.425
13327TIP3    H139924   1.377   0.909   0.339
13327TIP3    H239925   1.467   0.867   0.453
13328TIP3   OH239926   2.523   5.250   6.426
13328TIP3    H139927   2.599   5.308   6.430
13328TIP3    H239928   2.453   5.300   6.468
13329TIP3   OH239929   8.068   5.525   6.730
13329TIP3    H139930   8.032   5.551   6.645
13329TIP3    H239931   8.148   5.476   6.708
13330TIP3   OH239932   0.699   5.733   5.950
13330TIP3    H139933   0.720   5.640   5.962
13330TIP3    H239934   0.610   5.732   5.915
13331TIP3   OH239935   2.950   6.319   4.173
13331TIP3    H139936   3.028   6.366   4.200
13331TIP3    H239937   2.982   6.235   4.140
13332TIP3   OH239938   6.648   6.428   2.873
13332TIP3    H139939   6.588   6.496   2.844
13332TIP3    H239940   6.733   6.472   2.879
13333TIP3   OH239941   3.556   6.051   4.483
13333TIP3    H139942   3.479   6.105   4.500
13333TIP3    H239943   3.605   6.051   4.565
13334TIP3   OH239944   1.162   2.793   3.624
13334TIP3    H139945   1.161   2.702   3.593
13334TIP3    H239946   1.148   2.844   3.544
13335TIP3   OH239947   2.802   4.190   2.347
13335TIP3    H139948   2.897   4.185   2.362
13335TIP3    H239949   2.793   4.199   2.252
13336TIP3   OH239950   7.717   6.487   5.972
13336TIP3    H139951   7.728   6.411   5.915
13336TIP3    H239952   7.730   6.452   6.060
13337TIP3   OH239953   7.977   4.638   4.230
13337TIP3    H139954   7.898   4.643   4.282
13337TIP3    H239955   7.947   4.626   4.140
13338TIP3   OH239956   6.443   4.860   1.149
13338TIP3    H139957   6.416   4.941   1.106
13338TIP3    H239958   6.514   4.827   1.094
13339TIP3   OH239959   5.674   2.413   5.011
13339TIP3    H139960   5.683   2.501   4.975
13339TIP3    H239961   5.594   2.379   4.972
13340TIP3   OH239962   4.410   6.989   2.493
13340TIP3    H139963   4.461   7.043   2.434
13340TIP3    H239964   4.319   7.004   2.468
13341TIP3   OH239965   1.725   1.497   0.731
13341TIP3    H139966   1.684   1.580   0.756
13341TIP3    H239967   1.753   1.458   0.814
13342TIP3   OH239968   6.767   5.021   4.539
13342TIP3    H139969   6.838   5.016   4.475
13342TIP3    H239970   6.809   5.004   4.623
13343TIP3   OH239971   4.243   6.611   0.111
13343TIP3    H139972   4.240   6.672   0.184
13343TIP3    H239973   4.171   6.636   0.054
13344TIP3   OH239974   4.127   0.588   2.198
13344TIP3    H139975   4.086   0.589   2.284
13344TIP3    H239976   4.100   0.504   2.160
13345TIP3   OH239977   6.519   0.902   2.364
13345TIP3    H139978   6.546   0.884   2.454
13345TIP3    H239979   6.431   0.938   2.372
13346TIP3   OH239980   2.298   5.249   1.073
13346TIP3    H139981   2.291   5.156   1.052
13346TIP3    H239982   2.388   5.260   1.102
13347TIP3   OH239983   0.231   0.851   4.331
13347TIP3    H139984   0.226   0.933   4.281
13347TIP3    H239985   0.208   0.876   4.420
13348TIP3   OH239986   6.468   7.595   2.586
13348TIP3    H139987   6.481   7.625   2.676
13348TIP3    H239988   6.382   7.630   2.561
13349TIP3   OH239989   6.399   5.273   5.792
13349TIP3    H139990   6.465   5.234   5.735
13349TIP3    H239991   6.368   5.201   5.846
13350TIP3   OH239992   1.912   6.152   5.095
13350TIP3    H139993   1.933   6.060   5.079
13350TIP3    H239994   1.952   6.170   5.181
13351TIP3   OH239995   2.946   3.641   0.806
13351TIP3    H139996   2.899   3.711   0.759
13351TIP3    H239997   3.017   3.686   0.851
13352TIP3   OH239998   8.007   3.320   6.642
13352TIP3    H139999   7.947   3.392   6.661
13352TIP3    H240000   8.075   3.359   6.588
13353TIP3   OH240001   2.814   4.103   6.633
13353TIP3    H140002   2.894   4.141   6.597
13353TIP3    H240003   2.839   4.071   6.720
13354TIP3   OH240004   1.523   1.363   0.340
13354TIP3    H140005   1.442   1.360   0.391
13354TIP3    H240006   1.498   1.410   0.260
13355TIP3   OH240007   0.529   6.015   0.236
13355TIP3    H140008   0.607   6.064   0.209
13355TIP3    H240009   0.544   5.927   0.202
13356TIP3   OH240010   2.034   6.547   0.316
13356TIP3    H140011   2.017   6.466   0.364
13356TIP3    H240012   1.976   6.543   0.240
13357TIP3   OH240013   7.312   1.146   5.106
13357TIP3    H140014   7.315   1.080   5.037
13357TIP3    H240015   7.381   1.208   5.084
13358TIP3   OH240016   1.014   2.869   6.352
13358TIP3    H140017   1.071   2.913   6.414
13358TIP3    H240018   0.932   2.919   6.354
13359TIP3   OH240019   3.636   4.614   6.668
13359TIP3    H140020   3.639   4.595   6.762
13359TIP3    H240021   3.576   4.549   6.633
13360TIP3   OH240022   1.217   6.969   2.010
13360TIP3    H140023   1.225   6.933   2.098
13360TIP3    H240024   1.229   6.893   1.952
13361TIP3   OH240025   5.685   0.311   4.536
13361TIP3    H140026   5.775   0.342   4.539
13361TIP3    H240027   5.673   0.263   4.618
13362TIP3   OH240028   1.104   7.391   1.657
13362TIP3    H140029   1.140   7.333   1.590
13362TIP3    H240030   1.101   7.338   1.736
13363TIP3   OH240031   7.557   2.697   4.425
13363TIP3    H140032   7.544   2.667   4.515
13363TIP3    H240033   7.613   2.631   4.386
13364TIP3   OH240034   5.394   3.907   1.482
13364TIP3    H140035   5.394   3.896   1.387
13364TIP3    H240036   5.429   3.995   1.496
13365TIP3   OH240037   3.968   0.948   3.937
13365TIP3    H140038   3.956   0.885   3.867
13365TIP3    H240039   4.058   0.978   3.927
13366TIP3   OH240040   0.647   0.308   6.563
13366TIP3    H140041   0.631   0.282   6.654
13366TIP3    H240042   0.726   0.362   6.566
13367TIP3   OH240043   7.594   6.518   3.179
13367TIP3    H140044   7.606   6.597   3.126
13367TIP3    H240045   7.625   6.543   3.266
13368TIP3   OH240046   0.336   5.432   0.524
13368TIP3    H140047   0.397   5.372   0.567
13368TIP3    H240048   0.373   5.519   0.539
13369TIP3   OH240049   6.082   2.121   6.669
13369TIP3    H140050   6.017   2.190   6.681
13369TIP3    H240051   6.060   2.056   6.736
13370TIP3   OH240052   7.531   7.007   0.886
13370TIP3    H140053   7.524   6.928   0.832
13370TIP3    H240054   7.511   6.977   0.975
13371TIP3   OH240055   2.146   1.670   1.590
13371TIP3    H140056   2.152   1.669   1.686
13371TIP3    H240057   2.061   1.631   1.571
13372TIP3   OH240058   1.762   5.405   4.154
13372TIP3    H140059   1.793   5.496   4.151
13372TIP3    H240060   1.836   5.354   4.122
13373TIP3   OH240061   0.681   7.524   5.826
13373TIP3    H140062   0.644   7.436   5.814
13373TIP3    H240063   0.776   7.511   5.816
13374TIP3   OH240064   3.400   6.642   5.341
13374TIP3    H140065   3.391   6.731   5.307
13374TIP3    H240066   3.492   6.620   5.326
13375TIP3   OH240067   3.045   2.357   5.538
13375TIP3    H140068   2.988   2.392   5.606
13375TIP3    H240069   3.029   2.263   5.540
13376TIP3   OH240070   4.232   7.304   5.929
13376TIP3    H140071   4.137   7.296   5.917
13376TIP3    H240072   4.257   7.377   5.873
13377TIP3   OH240073   6.462   3.422   2.024
13377TIP3    H140074   6.551   3.394   2.043
13377TIP3    H240075   6.441   3.380   1.940
13378TIP3   OH240076   7.006   1.727   3.115
13378TIP3    H140077   7.039   1.816   3.108
13378TIP3    H240078   7.009   1.707   3.208
13379TIP3   OH240079   7.220   0.261   1.818
13379TIP3    H140080   7.258   0.313   1.748
13379TIP3    H240081   7.132   0.297   1.829
13380TIP3   OH240082   5.079   0.590   5.324
13380TIP3    H140083   5.169   0.624   5.325
13380TIP3    H240084   5.076   0.532   5.248
13381TIP3   OH240085   3.433   6.222  -0.006
13381TIP3    H140086   3.418   6.128  -0.011
13381TIP3    H240087   3.525   6.233  -0.032
13382TIP3   OH240088   1.476   0.869   0.765
13382TIP3    H140089   1.489   0.962   0.749
13382TIP3    H240090   1.386   0.862   0.798
13383TIP3   OH240091   7.253   3.000   1.583
13383TIP3    H140092   7.316   3.003   1.511
13383TIP3    H240093   7.200   2.922   1.566
13384TIP3   OH240094   7.351   1.009   0.439
13384TIP3    H140095   7.420   1.039   0.379
13384TIP3    H240096   7.272   1.052   0.408
13385TIP3   OH240097   8.095   6.247   0.127
13385TIP3    H140098   8.061   6.160   0.147
13385TIP3    H240099   8.018   6.299   0.104
13386TIP3   OH240100   3.410   0.938   0.591
13386TIP3    H140101   3.428   0.919   0.683
13386TIP3    H240102   3.449   1.025   0.577
13387TIP3   OH240103   7.824   3.912   5.624
13387TIP3    H140104   7.776   3.915   5.707
13387TIP3    H240105   7.849   3.820   5.614
13388TIP3   OH240106   2.067   4.465   5.900
13388TIP3    H140107   2.019   4.547   5.898
13388TIP3    H240108   2.137   4.476   5.836
13389TIP3   OH240109   5.932   0.951   1.456
13389TIP3    H140110   5.847   0.996   1.458
13389TIP3    H240111   5.942   0.916   1.545
13390TIP3   OH240112   7.283   4.169   4.651
13390TIP3    H140113   7.358   4.187   4.707
13390TIP3    H240114   7.281   4.074   4.643
13391TIP3   OH240115   0.125   0.782   6.412
13391TIP3    H140116   0.169   0.705   6.449
13391TIP3    H240117   0.035   0.776   6.445
13392TIP3   OH240118   1.270   3.715   1.990
13392TIP3    H140119   1.203   3.668   2.041
13392TIP3    H240120   1.279   3.799   2.035
13393TIP3   OH240121   2.533   3.397   1.090
13393TIP3    H140122   2.516   3.366   1.178
13393TIP3    H240123   2.481   3.477   1.082
13394TIP3   OH240124   0.275   4.734   5.913
13394TIP3    H140125   0.214   4.659   5.908
13394TIP3    H240126   0.228   4.805   5.870
13395TIP3   OH240127   1.504   5.576   0.543
13395TIP3    H140128   1.570   5.523   0.497
13395TIP3    H240129   1.428   5.518   0.550
13396TIP3   OH240130   0.120   2.113   0.953
13396TIP3    H140131   0.164   2.033   0.923
13396TIP3    H240132   0.110   2.100   1.048
13397TIP3   OH240133   8.158   5.531   0.654
13397TIP3    H140134   8.217   5.458   0.672
13397TIP3    H240135   8.215   5.608   0.649
13398TIP3   OH240136   2.904   3.395   6.608
13398TIP3    H140137   2.829   3.454   6.603
13398TIP3    H240138   2.879   3.320   6.553
13399TIP3   OH240139   1.159   5.600   6.057
13399TIP3    H140140   1.082   5.652   6.081
13399TIP3    H240141   1.229   5.665   6.047
13400TIP3   OH240142   8.006   4.163   5.769
13400TIP3    H140143   7.931   4.164   5.828
13400TIP3    H240144   7.968   4.143   5.683
13401TIP3   OH240145   1.337   3.555   0.548
13401TIP3    H140146   1.272   3.541   0.480
13401TIP3    H240147   1.415   3.510   0.517
13402TIP3   OH240148   2.101   4.924   2.022
13402TIP3    H140149   2.096   4.936   2.117
13402TIP3    H240150   2.188   4.955   1.998
13403TIP3   OH240151   2.177   5.306   0.288
13403TIP3    H140152   2.140   5.219   0.305
13403TIP3    H240153   2.105   5.356   0.250
13404TIP3   OH240154   7.850   7.639   1.543
13404TIP3    H140155   7.833   7.593   1.461
13404TIP3    H240156   7.763   7.660   1.577
13405TIP3   OH240157   0.836   7.021   0.530
13405TIP3    H140158   0.872   7.106   0.557
13405TIP3    H240159   0.840   7.022   0.435
13406TIP3   OH240160   0.624   5.807   1.258
13406TIP3    H140161   0.680   5.835   1.185
13406TIP3    H240162   0.677   5.822   1.336
13407TIP3   OH240163   6.909   5.809   5.529
13407TIP3    H140164   6.871   5.742   5.471
13407TIP3    H240165   7.002   5.787   5.534
13408TIP3   OH240166   4.644   7.060   2.355
13408TIP3    H140167   4.649   7.060   2.259
13408TIP3    H240168   4.666   6.970   2.379
13409TIP3   OH240169   6.553   5.691   0.909
13409TIP3    H140170   6.535   5.599   0.930
13409TIP3    H240171   6.625   5.716   0.967
13410TIP3   OH240172   2.169   1.976   5.287
13410TIP3    H140173   2.181   1.881   5.289
13410TIP3    H240174   2.077   1.989   5.307
13411TIP3   OH240175   0.916   7.660   5.576
13411TIP3    H140176   0.880   7.571   5.583
13411TIP3    H240177   0.891   7.690   5.489
13412TIP3   OH240178   3.242   4.904   0.563
13412TIP3    H140179   3.222   4.838   0.497
13412TIP3    H240180   3.157   4.937   0.591
13413TIP3   OH240181   1.973   0.966   5.606
13413TIP3    H140182   2.018   1.036   5.558
13413TIP3    H240183   2.019   0.963   5.691
13414TIP3   OH240184   6.478   2.391   2.850
13414TIP3    H140185   6.393   2.422   2.883
13414TIP3    H240186   6.456   2.337   2.774
13415TIP3   OH240187   1.184   7.681   2.121
13415TIP3    H140188   1.169   7.694   2.215
13415TIP3    H240189   1.165   7.588   2.107
13416TIP3   OH240190   6.052   7.706   6.081
13416TIP3    H140191   6.035   7.779   6.022
13416TIP3    H240192   6.082   7.746   6.162
13417TIP3   OH240193   0.426   0.859   4.641
13417TIP3    H140194   0.391   0.947   4.657
13417TIP3    H240195   0.439   0.823   4.729
13418TIP3   OH240196   5.131   5.607   2.230
13418TIP3    H140197   5.216   5.638   2.198
13418TIP3    H240198   5.067   5.662   2.185
13419TIP3   OH240199   0.010   0.861   4.023
13419TIP3    H140200  -0.022   0.936   3.973
13419TIP3    H240201   0.105   0.873   4.026
13420TIP3   OH240202   5.581   5.283   4.106
13420TIP3    H140203   5.625   5.273   4.022
13420TIP3    H240204   5.490   5.262   4.089
13421TIP3   OH240205   1.704   0.685   3.654
13421TIP3    H140206   1.765   0.743   3.700
13421TIP3    H240207   1.663   0.741   3.588
13422TIP3   OH240208   6.110   5.597   5.653
13422TIP3    H140209   6.206   5.596   5.652
13422TIP3    H240210   6.087   5.541   5.728
13423TIP3   OH240211   1.805   2.192   0.940
13423TIP3    H140212   1.821   2.127   0.872
13423TIP3    H240213   1.811   2.276   0.895
13424TIP3   OH240214   3.208   4.945   4.012
13424TIP3    H140215   3.184   4.858   4.044
13424TIP3    H240216   3.136   4.969   3.953
13425TIP3   OH240217   6.432   0.852   0.586
13425TIP3    H140218   6.503   0.789   0.587
13425TIP3    H240219   6.476   0.937   0.576
13426TIP3   OH240220   2.761   4.033   3.941
13426TIP3    H140221   2.678   3.985   3.945
13426TIP3    H240222   2.775   4.065   4.029
13427TIP3   OH240223   2.401   6.281   0.024
13427TIP3    H140224   2.389   6.262   0.117
13427TIP3    H240225   2.464   6.354   0.023
13428TIP3   OH240226   5.142   5.046   3.144
13428TIP3    H140227   5.194   4.972   3.175
13428TIP3    H240228   5.205   5.112   3.118
13429TIP3   OH240229   1.487   6.815   2.911
13429TIP3    H140230   1.442   6.898   2.928
13429TIP3    H240231   1.500   6.814   2.816
13430TIP3   OH240232   6.472   1.630   5.800
13430TIP3    H140233   6.548   1.574   5.787
13430TIP3    H240234   6.417   1.583   5.863
13431TIP3   OH240235   2.337   5.769   5.128
13431TIP3    H140236   2.343   5.795   5.036
13431TIP3    H240237   2.265   5.705   5.130
13432TIP3   OH240238   5.794   0.829   5.862
13432TIP3    H140239   5.749   0.913   5.853
13432TIP3    H240240   5.760   0.776   5.790
13433TIP3   OH240241   6.873   4.084   5.286
13433TIP3    H140242   6.963   4.052   5.298
13433TIP3    H240243   6.882   4.161   5.230
13434TIP3   OH240244   6.745   2.376   2.927
13434TIP3    H140245   6.734   2.323   3.006
13434TIP3    H240246   6.662   2.367   2.880
13435TIP3   OH240247   0.057   1.072   4.989
13435TIP3    H140248   0.055   0.983   5.024
13435TIP3    H240249  -0.034   1.101   4.989
13436TIP3   OH240250   8.198   2.764   5.653
13436TIP3    H140251   8.178   2.855   5.631
13436TIP3    H240252   8.258   2.770   5.727
13437TIP3   OH240253   3.640   6.791   1.708
13437TIP3    H140254   3.608   6.740   1.634
13437TIP3    H240255   3.574   6.779   1.776
13438TIP3   OH240256   7.547   4.176   5.732
13438TIP3    H140257   7.543   4.253   5.790
13438TIP3    H240258   7.593   4.208   5.654
13439TIP3   OH240259   0.821   4.346   2.580
13439TIP3    H140260   0.728   4.362   2.594
13439TIP3    H240261   0.824   4.281   2.509
13440TIP3   OH240262   0.512   1.067   5.200
13440TIP3    H140263   0.503   1.157   5.168
13440TIP3    H240264   0.501   1.074   5.295
13441TIP3   OH240265   4.017   3.673   3.973
13441TIP3    H140266   3.923   3.675   3.958
13441TIP3    H240267   4.031   3.595   4.027
13442TIP3   OH240268   6.221   3.460   0.467
13442TIP3    H140269   6.278   3.425   0.536
13442TIP3    H240270   6.199   3.383   0.414
13443TIP3   OH240271   2.473   2.993   2.370
13443TIP3    H140272   2.564   2.996   2.400
13443TIP3    H240273   2.449   3.085   2.359
13444TIP3   OH240274   7.562   5.377   0.676
13444TIP3    H140275   7.546   5.358   0.584
13444TIP3    H240276   7.617   5.304   0.707
13445TIP3   OH240277   4.278   3.230   5.600
13445TIP3    H140278   4.265   3.198   5.689
13445TIP3    H240279   4.366   3.268   5.601
13446TIP3   OH240280   4.986   0.386   5.651
13446TIP3    H140281   5.081   0.377   5.647
13446TIP3    H240282   4.963   0.369   5.743
13447TIP3   OH240283   0.196   6.187   6.322
13447TIP3    H140284   0.263   6.131   6.362
13447TIP3    H240285   0.200   6.268   6.373
13448TIP3   OH240286   7.057   2.009   0.024
13448TIP3    H140287   7.050   2.033  -0.068
13448TIP3    H240288   7.099   2.085   0.066
13449TIP3   OH240289   7.355   2.237   2.422
13449TIP3    H140290   7.312   2.254   2.339
13449TIP3    H240291   7.448   2.245   2.403
13450TIP3   OH240292   0.404   3.382   6.620
13450TIP3    H140293   0.411   3.477   6.619
13450TIP3    H240294   0.437   3.357   6.706
13451TIP3   OH240295   3.855   2.595   5.905
13451TIP3    H140296   3.779   2.652   5.901
13451TIP3    H240297   3.885   2.588   5.815
13452TIP3   OH240298   0.137   3.463   3.789
13452TIP3    H140299   0.168   3.422   3.708
13452TIP3    H240300   0.043   3.473   3.776
13453TIP3   OH240301   2.818   6.714   2.764
13453TIP3    H140302   2.727   6.685   2.766
13453TIP3    H240303   2.822   6.779   2.694
13454TIP3   OH240304   0.387   2.796   1.011
13454TIP3    H140305   0.483   2.799   1.022
13454TIP3    H240306   0.354   2.769   1.097
13455TIP3   OH240307   8.011   0.422   3.731
13455TIP3    H140308   7.951   0.479   3.683
13455TIP3    H240309   8.014   0.342   3.679
13456TIP3   OH240310   6.730   6.123   1.259
13456TIP3    H140311   6.700   6.084   1.341
13456TIP3    H240312   6.654   6.171   1.226
13457TIP3   OH240313   7.472   7.030   5.314
13457TIP3    H140314   7.449   6.941   5.340
13457TIP3    H240315   7.568   7.032   5.315
13458TIP3   OH240316   0.301   1.152   3.888
13458TIP3    H140317   0.319   1.221   3.825
13458TIP3    H240318   0.280   1.075   3.834
13459TIP3   OH240319   7.218   6.846   6.733
13459TIP3    H140320   7.185   6.827   6.645
13459TIP3    H240321   7.289   6.909   6.719
13460TIP3   OH240322   3.334   5.147   5.988
13460TIP3    H140323   3.412   5.166   6.041
13460TIP3    H240324   3.348   5.058   5.956
13461TIP3   OH240325   0.877   2.782   5.012
13461TIP3    H140326   0.938   2.817   4.948
13461TIP3    H240327   0.930   2.721   5.064
13462TIP3   OH240328   8.178   4.326   3.027
13462TIP3    H140329   8.212   4.389   3.091
13462TIP3    H240330   8.110   4.374   2.981
13463TIP3   OH240331   3.319   6.060   4.280
13463TIP3    H140332   3.304   6.095   4.368
13463TIP3    H240333   3.372   6.127   4.237
13464TIP3   OH240334   8.235   1.897   6.121
13464TIP3    H140335   8.181   1.968   6.157
13464TIP3    H240336   8.300   1.942   6.068
13465TIP3   OH240337   6.423   2.820   6.548
13465TIP3    H140338   6.492   2.851   6.607
13465TIP3    H240339   6.469   2.791   6.470
13466TIP3   OH240340   0.930   6.853   5.787
13466TIP3    H140341   0.885   6.931   5.755
13466TIP3    H240342   0.908   6.785   5.722
13467TIP3   OH240343   4.365   6.909   1.648
13467TIP3    H140344   4.449   6.866   1.662
13467TIP3    H240345   4.300   6.843   1.672
13468TIP3   OH240346   7.648   3.984   5.202
13468TIP3    H140347   7.591   3.909   5.185
13468TIP3    H240348   7.735   3.945   5.211
13469TIP3   OH240349   1.711   4.979   6.064
13469TIP3    H140350   1.648   4.907   6.060
13469TIP3    H240351   1.797   4.937   6.060
13470TIP3   OH240352   1.329   0.054   6.539
13470TIP3    H140353   1.419   0.066   6.570
13470TIP3    H240354   1.288   0.140   6.550
13471TIP3   OH240355   1.781   7.408   4.893
13471TIP3    H140356   1.723   7.332   4.893
13471TIP3    H240357   1.772   7.445   4.805
13472TIP3   OH240358   5.517   0.630   1.785
13472TIP3    H140359   5.592   0.655   1.840
13472TIP3    H240360   5.459   0.582   1.844
13473TIP3   OH240361   7.086   1.042   6.176
13473TIP3    H140362   7.071   0.972   6.240
13473TIP3    H240363   7.137   1.000   6.107
13474TIP3   OH240364   0.278   3.067   6.758
13474TIP3    H140365   0.332   3.144   6.777
13474TIP3    H240366   0.301   3.004   6.826
13475TIP3   OH240367   0.024   5.447   2.518
13475TIP3    H140368   0.108   5.491   2.508
13475TIP3    H240369   0.042   5.375   2.579
13476TIP3   OH240370   3.628   7.584   0.618
13476TIP3    H140371   3.573   7.521   0.665
13476TIP3    H240372   3.706   7.594   0.672
13477TIP3   OH240373   2.500   0.521   4.977
13477TIP3    H140374   2.570   0.481   4.925
13477TIP3    H240375   2.475   0.599   4.928
13478TIP3   OH240376   3.012   2.426   3.168
13478TIP3    H140377   3.054   2.348   3.133
13478TIP3    H240378   2.987   2.477   3.091
13479TIP3   OH240379   7.536   3.394   0.329
13479TIP3    H140380   7.599   3.450   0.374
13479TIP3    H240381   7.585   3.359   0.255
13480TIP3   OH240382   7.015   1.469   4.877
13480TIP3    H140383   6.923   1.495   4.884
13480TIP3    H240384   7.013   1.374   4.882
13481TIP3   OH240385   4.297   5.310   2.645
13481TIP3    H140386   4.314   5.360   2.724
13481TIP3    H240387   4.328   5.365   2.574
13482TIP3   OH240388   1.960   1.424   6.310
13482TIP3    H140389   1.945   1.480   6.386
13482TIP3    H240390   1.998   1.344   6.347
13483TIP3   OH240391   3.580   5.030   0.302
13483TIP3    H140392   3.539   5.116   0.297
13483TIP3    H240393   3.573   5.005   0.394
13484TIP3   OH240394   3.304   3.138   5.782
13484TIP3    H140395   3.297   3.215   5.727
13484TIP3    H240396   3.283   3.064   5.724
13485TIP3   OH240397   3.448   5.986   1.892
13485TIP3    H140398   3.461   5.940   1.809
13485TIP3    H240399   3.357   5.968   1.915
13486TIP3   OH240400   2.354   2.496   5.876
13486TIP3    H140401   2.446   2.522   5.881
13486TIP3    H240402   2.354   2.403   5.899
13487TIP3   OH240403   1.647   3.835   0.277
13487TIP3    H140404   1.612   3.791   0.354
13487TIP3    H240405   1.587   3.811   0.207
13488TIP3   OH240406   4.795   3.127   5.502
13488TIP3    H140407   4.740   3.054   5.472
13488TIP3    H240408   4.829   3.166   5.422
13489TIP3   OH240409   5.674   7.397   0.810
13489TIP3    H140410   5.675   7.490   0.786
13489TIP3    H240411   5.761   7.381   0.846
13490TIP3   OH240412   4.015   0.101   3.579
13490TIP3    H140413   4.061   0.101   3.495
13490TIP3    H240414   4.038   0.185   3.619
13491TIP3   OH240415   6.056   1.999   1.567
13491TIP3    H140416   6.106   2.003   1.485
13491TIP3    H240417   5.996   2.074   1.562
13492TIP3   OH240418   6.093   4.221   3.087
13492TIP3    H140419   6.187   4.204   3.090
13492TIP3    H240420   6.076   4.269   3.168
13493TIP3   OH240421   5.391   0.169   0.484
13493TIP3    H140422   5.359   0.101   0.543
13493TIP3    H240423   5.418   0.241   0.541
13494TIP3   OH240424   1.642   6.783   4.231
13494TIP3    H140425   1.646   6.799   4.325
13494TIP3    H240426   1.593   6.701   4.223
13495TIP3   OH240427   2.302   0.103   2.085
13495TIP3    H140428   2.210   0.089   2.108
13495TIP3    H240429   2.299   0.147   2.000
13496TIP3   OH240430   0.976   2.757   0.898
13496TIP3    H140431   0.967   2.672   0.942
13496TIP3    H240432   1.052   2.797   0.939
13497TIP3   OH240433   7.359   3.574   5.314
13497TIP3    H140434   7.412   3.577   5.393
13497TIP3    H240435   7.381   3.489   5.274
13498TIP3   OH240436   7.111   5.596   5.094
13498TIP3    H140437   7.202   5.580   5.117
13498TIP3    H240438   7.105   5.691   5.082
13499TIP3   OH240439   2.785   7.305   4.063
13499TIP3    H140440   2.770   7.234   4.126
13499TIP3    H240441   2.700   7.346   4.052
13500TIP3   OH240442   6.630   5.590   6.454
13500TIP3    H140443   6.559   5.648   6.483
13500TIP3    H240444   6.679   5.641   6.390
13501TIP3   OH240445   2.809   2.109   2.268
13501TIP3    H140446   2.873   2.042   2.245
13501TIP3    H240447   2.856   2.169   2.326
13502TIP3   OH240448   3.037   7.753   1.882
13502TIP3    H140449   3.025   7.689   1.952
13502TIP3    H240450   3.082   7.826   1.925
13503TIP3   OH240451   4.006   4.332   2.467
13503TIP3    H140452   4.022   4.338   2.373
13503TIP3    H240453   4.090   4.357   2.506
13504TIP3   OH240454   0.701   6.891   1.460
13504TIP3    H140455   0.673   6.980   1.479
13504TIP3    H240456   0.622   6.847   1.429
13505TIP3   OH240457   4.346   2.567   3.379
13505TIP3    H140458   4.309   2.654   3.394
13505TIP3    H240459   4.273   2.507   3.398
13506TIP3   OH240460   3.906   5.048   1.469
13506TIP3    H140461   3.918   5.103   1.391
13506TIP3    H240462   3.971   5.082   1.532
13507TIP3   OH240463   2.950   1.449   2.160
13507TIP3    H140464   2.950   1.432   2.066
13507TIP3    H240465   2.859   1.436   2.187
13508TIP3   OH240466   2.122   0.600   5.478
13508TIP3    H140467   2.210   0.629   5.503
13508TIP3    H240468   2.116   0.622   5.385
13509TIP3   OH240469   1.183   1.963   6.499
13509TIP3    H140470   1.106   1.974   6.444
13509TIP3    H240471   1.211   2.052   6.519
13510TIP3   OH240472   2.628   1.948   2.383
13510TIP3    H140473   2.635   2.009   2.457
13510TIP3    H240474   2.701   1.971   2.326
13511TIP3   OH240475   7.478   3.411   3.423
13511TIP3    H140476   7.523   3.477   3.370
13511TIP3    H240477   7.418   3.461   3.478
13512TIP3   OH240478   1.995   2.198   2.390
13512TIP3    H140479   1.994   2.265   2.322
13512TIP3    H240480   1.955   2.240   2.466
13513TIP3   OH240481   4.360   2.327   1.134
13513TIP3    H140482   4.307   2.264   1.183
13513TIP3    H240483   4.297   2.373   1.079
13514TIP3   OH240484   3.308   6.857   0.406
13514TIP3    H140485   3.326   6.904   0.488
13514TIP3    H240486   3.394   6.850   0.364
13515TIP3   OH240487   6.733   1.078   2.683
13515TIP3    H140488   6.715   1.161   2.727
13515TIP3    H240489   6.815   1.048   2.721
13516TIP3   OH240490   4.773   4.007   6.300
13516TIP3    H140491   4.725   4.017   6.218
13516TIP3    H240492   4.747   4.083   6.353
13517TIP3   OH240493   5.494   3.305   2.190
13517TIP3    H140494   5.479   3.399   2.201
13517TIP3    H240495   5.582   3.299   2.152
13518TIP3   OH240496   4.772   0.011   3.907
13518TIP3    H140497   4.838  -0.010   3.840
13518TIP3    H240498   4.824   0.031   3.985
13519TIP3   OH240499   7.567   3.228   5.871
13519TIP3    H140500   7.527   3.149   5.834
13519TIP3    H240501   7.625   3.260   5.802
13520TIP3   OH240502   0.311   7.203   0.508
13520TIP3    H140503   0.335   7.119   0.548
13520TIP3    H240504   0.323   7.189   0.414
13521TIP3   OH240505   6.627   1.739   3.301
13521TIP3    H140506   6.568   1.707   3.369
13521TIP3    H240507   6.570   1.780   3.236
13522TIP3   OH240508   0.208   4.688   1.568
13522TIP3    H140509   0.221   4.740   1.647
13522TIP3    H240510   0.141   4.736   1.518
13523TIP3   OH240511   3.809   3.010   5.368
13523TIP3    H140512   3.728   2.959   5.366
13523TIP3    H240513   3.793   3.084   5.310
13524TIP3   OH240514   4.083   2.429   5.780
13524TIP3    H140515   4.105   2.426   5.873
13524TIP3    H240516   3.992   2.401   5.775
13525TIP3   OH240517   2.035   0.944   4.518
13525TIP3    H140518   2.071   1.015   4.466
13525TIP3    H240519   1.940   0.952   4.506
13526TIP3   OH240520   3.515   0.623   0.143
13526TIP3    H140521   3.551   0.584   0.063
13526TIP3    H240522   3.482   0.548   0.193
13527TIP3   OH240523   1.871   5.374   2.246
13527TIP3    H140524   1.843   5.464   2.227
13527TIP3    H240525   1.870   5.369   2.341
13528TIP3   OH240526   1.905   3.988   5.381
13528TIP3    H140527   1.915   3.959   5.472
13528TIP3    H240528   1.818   3.958   5.356
13529TIP3   OH240529   5.595   1.888   6.192
13529TIP3    H140530   5.521   1.943   6.166
13529TIP3    H240531   5.578   1.867   6.284
13530TIP3   OH240532   2.159   0.696   3.336
13530TIP3    H140533   2.074   0.675   3.375
13530TIP3    H240534   2.210   0.735   3.407
13531TIP3   OH240535   0.868   6.142   2.770
13531TIP3    H140536   0.962   6.129   2.784
13531TIP3    H240537   0.859   6.234   2.746
13532TIP3   OH240538   6.351   5.150   2.861
13532TIP3    H140539   6.269   5.155   2.811
13532TIP3    H240540   6.380   5.060   2.848
13533TIP3   OH240541   0.641   2.162   4.080
13533TIP3    H140542   0.654   2.114   3.998
13533TIP3    H240543   0.579   2.232   4.058
13534TIP3   OH240544   3.421   7.092   0.932
13534TIP3    H140545   3.513   7.068   0.939
13534TIP3    H240546   3.375   7.009   0.916
13535TIP3   OH240547   7.251   5.375   3.664
13535TIP3    H140548   7.171   5.330   3.636
13535TIP3    H240549   7.307   5.305   3.697
13536TIP3   OH240550   7.463   3.657   3.737
13536TIP3    H140551   7.543   3.644   3.788
13536TIP3    H240552   7.456   3.751   3.727
13537TIP3   OH240553   7.457   6.199   1.183
13537TIP3    H140554   7.431   6.166   1.098
13537TIP3    H240555   7.386   6.258   1.210
13538TIP3   OH240556   4.424   1.463   6.159
13538TIP3    H140557   4.489   1.529   6.134
13538TIP3    H240558   4.410   1.411   6.080
13539TIP3   OH240559   8.166   1.456   0.472
13539TIP3    H140560   8.176   1.371   0.430
13539TIP3    H240561   8.072   1.463   0.490
13540TIP3   OH240562   6.778   5.685   0.101
13540TIP3    H140563   6.872   5.704   0.109
13540TIP3    H240564   6.757   5.632   0.177
13541TIP3   OH240565   3.917   0.015   2.633
13541TIP3    H140566   3.833  -0.030   2.639
13541TIP3    H240567   3.945   0.027   2.724
13542TIP3   OH240568   1.445   5.850   2.767
13542TIP3    H140569   1.453   5.941   2.796
13542TIP3    H240570   1.517   5.837   2.706
13543TIP3   OH240571   0.573   6.518   2.637
13543TIP3    H140572   0.528   6.486   2.558
13543TIP3    H240573   0.567   6.613   2.631
13544TIP3   OH240574   3.331   2.695   1.291
13544TIP3    H140575   3.265   2.759   1.317
13544TIP3    H240576   3.349   2.714   1.199
13545TIP3   OH240577   5.590   1.440   3.862
13545TIP3    H140578   5.575   1.361   3.810
13545TIP3    H240579   5.515   1.496   3.843
13546TIP3   OH240580   4.387   2.432   0.255
13546TIP3    H140581   4.458   2.494   0.270
13546TIP3    H240582   4.332   2.474   0.188
13547TIP3   OH240583   4.547   1.087   1.023
13547TIP3    H140584   4.512   1.000   1.005
13547TIP3    H240585   4.535   1.136   0.941
13548TIP3   OH240586   4.230   2.152   1.318
13548TIP3    H140587   4.199   2.081   1.262
13548TIP3    H240588   4.294   2.111   1.376
13549TIP3   OH240589   7.936   2.093   5.064
13549TIP3    H140590   7.952   2.153   5.138
13549TIP3    H240591   7.949   2.006   5.102
13550TIP3   OH240592   7.729   6.341   6.202
13550TIP3    H140593   7.697   6.388   6.279
13550TIP3    H240594   7.702   6.250   6.217
13551TIP3   OH240595   2.485   3.452   4.016
13551TIP3    H140596   2.550   3.521   4.007
13551TIP3    H240597   2.523   3.392   4.080
13552TIP3   OH240598   6.426   0.713   1.554
13552TIP3    H140599   6.344   0.714   1.504
13552TIP3    H240600   6.405   0.664   1.633
13553TIP3   OH240601   6.600   7.645   4.149
13553TIP3    H140602   6.664   7.716   4.145
13553TIP3    H240603   6.539   7.664   4.078
13554TIP3   OH240604   7.304   6.955   2.543
13554TIP3    H140605   7.262   7.013   2.608
13554TIP3    H240606   7.231   6.922   2.491
13555TIP3   OH240607   1.555   7.793   3.716
13555TIP3    H140608   1.584   7.854   3.649
13555TIP3    H240609   1.495   7.734   3.670
13556TIP3   OH240610   4.151   1.854   1.443
13556TIP3    H140611   4.240   1.876   1.471
13556TIP3    H240612   4.155   1.855   1.347
13557TIP3   OH240613   1.345   2.854   6.549
13557TIP3    H140614   1.286   2.799   6.498
13557TIP3    H240615   1.339   2.940   6.508
13558TIP3   OH240616   6.708   3.129   0.676
13558TIP3    H140617   6.730   3.221   0.690
13558TIP3    H240618   6.761   3.082   0.741
13559TIP3   OH240619   5.018   0.511   2.423
13559TIP3    H140620   4.956   0.444   2.454
13559TIP3    H240621   4.968   0.561   2.358
13560TIP3   OH240622   7.120   4.369   0.145
13560TIP3    H140623   7.171   4.404   0.219
13560TIP3    H240624   7.030   4.396   0.163
13561TIP3   OH240625   5.799   2.988   2.214
13561TIP3    H140626   5.836   2.948   2.292
13561TIP3    H240627   5.779   3.077   2.240
13562TIP3   OH240628   0.963   0.223   4.519
13562TIP3    H140629   0.926   0.287   4.458
13562TIP3    H240630   0.933   0.138   4.486
13563TIP3   OH240631   5.603   6.520   5.635
13563TIP3    H140632   5.604   6.546   5.542
13563TIP3    H240633   5.692   6.490   5.652
13564TIP3   OH240634   4.144   5.052   4.526
13564TIP3    H140635   4.198   5.048   4.606
13564TIP3    H240636   4.078   5.118   4.546
13565TIP3   OH240637   5.632   0.706   2.238
13565TIP3    H140638   5.582   0.626   2.254
13565TIP3    H240639   5.717   0.690   2.279
13566TIP3   OH240640   0.585   6.706   5.765
13566TIP3    H140641   0.585   6.721   5.860
13566TIP3    H240642   0.664   6.654   5.749
13567TIP3   OH240643   7.040   1.855   1.787
13567TIP3    H140644   7.003   1.767   1.782
13567TIP3    H240645   6.989   1.907   1.725
13568TIP3   OH240646   5.724   1.336   1.349
13568TIP3    H140647   5.711   1.428   1.326
13568TIP3    H240648   5.719   1.290   1.265
13569TIP3   OH240649   1.271   1.456   3.347
13569TIP3    H140650   1.306   1.403   3.419
13569TIP3    H240651   1.179   1.469   3.369
13570TIP3   OH240652   1.231   3.726   4.467
13570TIP3    H140653   1.321   3.711   4.441
13570TIP3    H240654   1.229   3.817   4.497
13571TIP3   OH240655   5.794   1.514   0.357
13571TIP3    H140656   5.728   1.574   0.323
13571TIP3    H240657   5.873   1.567   0.368
13572TIP3   OH240658   2.643   5.878   0.580
13572TIP3    H140659   2.550   5.896   0.594
13572TIP3    H240660   2.684   5.963   0.566
13573TIP3   OH240661   0.913   2.715   5.841
13573TIP3    H140662   0.998   2.738   5.877
13573TIP3    H240663   0.858   2.699   5.918
13574TIP3   OH240664   8.241   0.458   0.314
13574TIP3    H140665   8.182   0.513   0.366
13574TIP3    H240666   8.204   0.370   0.321
13575TIP3   OH240667   5.608   2.964   0.082
13575TIP3    H140668   5.686   2.999   0.038
13575TIP3    H240669   5.603   3.012   0.164
13576TIP3   OH240670   5.804   1.645   5.735
13576TIP3    H140671   5.819   1.707   5.663
13576TIP3    H240672   5.734   1.684   5.786
13577TIP3   OH240673   0.482   1.759   1.729
13577TIP3    H140674   0.482   1.688   1.793
13577TIP3    H240675   0.527   1.724   1.653
13578TIP3   OH240676   4.213   2.655   5.465
13578TIP3    H140677   4.158   2.713   5.412
13578TIP3    H240678   4.273   2.715   5.510
13579TIP3   OH240679   4.120   3.349   2.386
13579TIP3    H140680   4.069   3.420   2.426
13579TIP3    H240681   4.198   3.393   2.352
13580TIP3   OH240682   7.567   2.190   6.083
13580TIP3    H140683   7.662   2.186   6.089
13580TIP3    H240684   7.550   2.249   6.009
13581TIP3   OH240685   1.086   3.034   0.369
13581TIP3    H140686   0.992   3.049   0.379
13581TIP3    H240687   1.107   2.969   0.436
13582TIP3   OH240688   6.468   4.672   5.246
13582TIP3    H140689   6.421   4.700   5.167
13582TIP3    H240690   6.493   4.582   5.228
13583TIP3   OH240691   6.387   0.737   3.254
13583TIP3    H140692   6.307   0.690   3.279
13583TIP3    H240693   6.449   0.667   3.232
13584TIP3   OH240694   1.381   2.156   5.038
13584TIP3    H140695   1.332   2.238   5.048
13584TIP3    H240696   1.359   2.125   4.951
13585TIP3   OH240697   1.815   5.670   4.202
13585TIP3    H140698   1.834   5.760   4.227
13585TIP3    H240699   1.759   5.637   4.273
13586TIP3   OH240700   5.748   6.879   6.677
13586TIP3    H140701   5.739   6.785   6.694
13586TIP3    H240702   5.659   6.913   6.689
13587TIP3   OH240703   5.656   0.709   5.663
13587TIP3    H140704   5.625   0.794   5.630
13587TIP3    H240705   5.676   0.659   5.584
13588TIP3   OH240706   5.065   3.816   3.752
13588TIP3    H140707   5.052   3.824   3.847
13588TIP3    H240708   4.977   3.817   3.716
13589TIP3   OH240709   5.924   7.543   1.833
13589TIP3    H140710   5.889   7.494   1.907
13589TIP3    H240711   5.866   7.619   1.825
13590TIP3   OH240712   4.766   6.895   1.069
13590TIP3    H140713   4.785   6.988   1.074
13590TIP3    H240714   4.822   6.856   1.136
13591TIP3   OH240715   1.895   7.248   6.200
13591TIP3    H140716   1.872   7.229   6.110
13591TIP3    H240717   1.959   7.180   6.224
13592TIP3   OH240718   7.858   0.308   0.099
13592TIP3    H140719   7.782   0.267   0.057
13592TIP3    H240720   7.894   0.367   0.032
13593TIP3   OH240721   6.032   3.343   6.456
13593TIP3    H140722   6.046   3.262   6.505
13593TIP3    H240723   5.940   3.340   6.430
13594TIP3   OH240724   7.436   5.930   3.069
13594TIP3    H140725   7.411   5.846   3.108
13594TIP3    H240726   7.372   5.993   3.103
13595TIP3   OH240727   4.658   6.332   1.941
13595TIP3    H140728   4.738   6.284   1.920
13595TIP3    H240729   4.617   6.281   2.011
13596TIP3   OH240730   2.614   3.103   2.699
13596TIP3    H140731   2.544   3.077   2.638
13596TIP3    H240732   2.653   3.020   2.727
13597TIP3   OH240733   4.959   3.137   6.113
13597TIP3    H140734   5.039   3.170   6.072
13597TIP3    H240735   4.980   3.135   6.207
13598TIP3   OH240736   1.028   1.211   4.703
13598TIP3    H140737   0.947   1.163   4.685
13598TIP3    H240738   1.079   1.201   4.623
13599TIP3   OH240739   2.349   0.294   0.319
13599TIP3    H140740   2.382   0.360   0.380
13599TIP3    H240741   2.253   0.305   0.323
13600TIP3   OH240742   4.246   1.126   6.624
13600TIP3    H140743   4.160   1.131   6.666
13600TIP3    H240744   4.270   1.218   6.609
13601TIP3   OH240745   2.865   5.940   2.332
13601TIP3    H140746   2.954   5.905   2.329
13601TIP3    H240747   2.814   5.881   2.277
13602TIP3   OH240748   5.888   7.047   0.504
13602TIP3    H140749   5.893   7.136   0.539
13602TIP3    H240750   5.859   7.059   0.413
13603TIP3   OH240751   0.650   4.775   2.401
13603TIP3    H140752   0.715   4.758   2.468
13603TIP3    H240753   0.667   4.865   2.372
13604TIP3   OH240754   5.954   2.426   3.777
13604TIP3    H140755   5.880   2.370   3.753
13604TIP3    H240756   5.942   2.506   3.725
13605TIP3   OH240757   6.916   7.584   3.115
13605TIP3    H140758   6.947   7.652   3.174
13605TIP3    H240759   6.889   7.512   3.173
13606TIP3   OH240760   4.360   3.172   4.752
13606TIP3    H140761   4.445   3.128   4.758
13606TIP3    H240762   4.377   3.251   4.700
13607TIP3   OH240763   5.699   5.416   1.603
13607TIP3    H140764   5.652   5.451   1.679
13607TIP3    H240765   5.784   5.459   1.605
13608TIP3   OH240766   7.414   2.787   4.681
13608TIP3    H140767   7.335   2.752   4.723
13608TIP3    H240768   7.485   2.736   4.721
13609TIP3   OH240769   7.244   4.727   1.217
13609TIP3    H140770   7.260   4.645   1.170
13609TIP3    H240771   7.156   4.717   1.253
13610TIP3   OH240772   5.488   3.111   5.568
13610TIP3    H140773   5.547   3.182   5.595
13610TIP3    H240774   5.508   3.039   5.628
13611TIP3   OH240775   5.772   3.069   5.481
13611TIP3    H140776   5.785   3.065   5.576
13611TIP3    H240777   5.722   2.991   5.460
13612TIP3   OH240778   2.699   0.430   4.817
13612TIP3    H140779   2.658   0.348   4.791
13612TIP3    H240780   2.717   0.476   4.735
13613TIP3   OH240781   0.243   4.369   3.111
13613TIP3    H140782   0.224   4.275   3.118
13613TIP3    H240783   0.158   4.410   3.094
13614TIP3   OH240784   7.280   2.717   1.300
13614TIP3    H140785   7.241   2.675   1.376
13614TIP3    H240786   7.342   2.653   1.266
13615TIP3   OH240787   5.673   1.989   3.251
13615TIP3    H140788   5.678   2.079   3.284
13615TIP3    H240789   5.581   1.977   3.230
13616TIP3   OH240790   3.261   5.950   0.683
13616TIP3    H140791   3.264   5.869   0.632
13616TIP3    H240792   3.201   6.007   0.634
13617TIP3   OH240793   5.206   6.315   6.094
13617TIP3    H140794   5.129   6.332   6.149
13617TIP3    H240795   5.254   6.247   6.141
13618TIP3   OH240796   5.290   6.393   6.756
13618TIP3    H140797   5.274   6.348   6.839
13618TIP3    H240798   5.297   6.485   6.779
13619TIP3   OH240799   0.044   3.994   3.637
13619TIP3    H140800   0.025   4.062   3.572
13619TIP3    H240801   0.008   3.914   3.598
13620TIP3   OH240802   2.393   4.514   0.145
13620TIP3    H140803   2.300   4.524   0.166
13620TIP3    H240804   2.395   4.450   0.074
13621TIP3   OH240805   0.160   2.764   6.125
13621TIP3    H140806   0.144   2.813   6.044
13621TIP3    H240807   0.112   2.682   6.114
13622TIP3   OH240808   2.385   3.260   2.333
13622TIP3    H140809   2.459   3.320   2.339
13622TIP3    H240810   2.338   3.271   2.415
13623TIP3   OH240811   6.344   6.119   4.624
13623TIP3    H140812   6.277   6.089   4.685
13623TIP3    H240813   6.424   6.124   4.677
13624TIP3   OH240814   1.455   2.604   0.701
13624TIP3    H140815   1.504   2.680   0.671
13624TIP3    H240816   1.365   2.619   0.670
13625TIP3   OH240817   3.017   7.217   3.568
13625TIP3    H140818   2.973   7.149   3.517
13625TIP3    H240819   3.002   7.191   3.659
13626TIP3   OH240820   6.372   6.161   6.060
13626TIP3    H140821   6.331   6.090   6.110
13626TIP3    H240822   6.321   6.166   5.980
13627TIP3   OH240823   6.221   4.480   4.982
13627TIP3    H140824   6.314   4.458   4.989
13627TIP3    H240825   6.218   4.558   4.927
13628TIP3   OH240826   3.135   3.677   5.775
13628TIP3    H140827   3.137   3.632   5.859
13628TIP3    H240828   3.227   3.684   5.750
13629TIP3   OH240829   2.507   4.077   5.186
13629TIP3    H140830   2.570   4.019   5.229
13629TIP3    H240831   2.548   4.164   5.189
13630TIP3   OH240832   2.891   7.299   0.151
13630TIP3    H140833   2.959   7.308   0.218
13630TIP3    H240834   2.875   7.389   0.121
13631TIP3   OH240835   2.848   1.693   5.760
13631TIP3    H140836   2.820   1.619   5.707
13631TIP3    H240837   2.888   1.754   5.697
13632TIP3   OH240838   7.919   3.926   0.464
13632TIP3    H140839   7.912   4.010   0.509
13632TIP3    H240840   7.904   3.946   0.372
13633TIP3   OH240841   2.269   0.085   0.777
13633TIP3    H140842   2.207   0.030   0.728
13633TIP3    H240843   2.330   0.023   0.816
13634TIP3   OH240844   7.218   3.788   3.876
13634TIP3    H140845   7.286   3.830   3.822
13634TIP3    H240846   7.194   3.709   3.826
13635TIP3   OH240847   0.178   2.068   3.102
13635TIP3    H140848   0.124   1.991   3.086
13635TIP3    H240849   0.131   2.140   3.059
13636TIP3   OH240850   6.382   4.186   5.772
13636TIP3    H140851   6.461   4.132   5.777
13636TIP3    H240852   6.413   4.276   5.779
13637TIP3   OH240853   1.848   1.355   3.602
13637TIP3    H140854   1.872   1.313   3.519
13637TIP3    H240855   1.900   1.435   3.604
13638TIP3   OH240856   0.368   6.486   3.813
13638TIP3    H140857   0.404   6.491   3.901
13638TIP3    H240858   0.440   6.514   3.756
13639TIP3   OH240859   4.285   3.068   2.802
13639TIP3    H140860   4.237   2.998   2.758
13639TIP3    H240861   4.332   3.113   2.731
13640TIP3   OH240862   1.955   1.195   2.130
13640TIP3    H140863   1.893   1.127   2.103
13640TIP3    H240864   1.919   1.229   2.212
13641TIP3   OH240865   0.851   2.176   5.815
13641TIP3    H140866   0.888   2.217   5.894
13641TIP3    H240867   0.770   2.224   5.799
13642TIP3   OH240868   0.546   7.131   2.846
13642TIP3    H140869   0.544   7.099   2.756
13642TIP3    H240870   0.639   7.132   2.869
13643TIP3   OH240871   0.696   2.888   4.039
13643TIP3    H140872   0.625   2.861   4.097
13643TIP3    H240873   0.685   2.833   3.961
13644TIP3   OH240874   5.722   3.613   6.152
13644TIP3    H140875   5.702   3.569   6.069
13644TIP3    H240876   5.666   3.569   6.216
13645TIP3   OH240877   0.567   6.914   6.441
13645TIP3    H140878   0.513   6.969   6.499
13645TIP3    H240879   0.510   6.896   6.366
13646TIP3   OH240880   2.125   3.898   6.370
13646TIP3    H140881   2.117   3.816   6.418
13646TIP3    H240882   2.220   3.912   6.361
13647TIP3   OH240883   0.468   2.388   0.047
13647TIP3    H140884   0.497   2.304   0.013
13647TIP3    H240885   0.446   2.371   0.138
13648TIP3   OH240886   2.190   6.701   1.708
13648TIP3    H140887   2.133   6.765   1.667
13648TIP3    H240888   2.169   6.618   1.665
13649TIP3   OH240889   7.058   5.203   1.344
13649TIP3    H140890   7.151   5.225   1.356
13649TIP3    H240891   7.051   5.112   1.371
13650TIP3   OH240892   0.306   7.498   1.409
13650TIP3    H140893   0.363   7.442   1.357
13650TIP3    H240894   0.227   7.509   1.355
13651TIP3   OH240895   2.276   4.196   4.233
13651TIP3    H140896   2.359   4.202   4.186
13651TIP3    H240897   2.217   4.254   4.185
13652TIP3   OH240898   5.959   7.571   5.223
13652TIP3    H140899   5.973   7.509   5.294
13652TIP3    H240900   5.909   7.522   5.157
13653TIP3   OH240901   3.532   5.354   4.256
13653TIP3    H140902   3.457   5.355   4.196
13653TIP3    H240903   3.608   5.340   4.199
13654TIP3   OH240904   1.567   3.981   3.690
13654TIP3    H140905   1.489   3.976   3.744
13654TIP3    H240906   1.555   4.062   3.639
13655TIP3   OH240907   2.050   2.457   0.581
13655TIP3    H140908   2.027   2.499   0.499
13655TIP3    H240909   2.139   2.425   0.567
13656TIP3   OH240910   3.062   2.367   4.723
13656TIP3    H140911   3.032   2.452   4.691
13656TIP3    H240912   3.023   2.358   4.809
13657TIP3   OH240913   6.672   4.420   5.599
13657TIP3    H140914   6.639   4.406   5.688
13657TIP3    H240915   6.699   4.512   5.598
13658TIP3   OH240916   3.800   5.135   5.832
13658TIP3    H140917   3.742   5.121   5.756
13658TIP3    H240918   3.886   5.108   5.801
13659TIP3   OH240919   3.254   2.028   3.464
13659TIP3    H140920   3.298   1.961   3.516
13659TIP3    H240921   3.262   2.108   3.516
13660TIP3   OH240922   6.139   3.498   1.471
13660TIP3    H140923   6.148   3.403   1.479
13660TIP3    H240924   6.048   3.511   1.443
13661TIP3   OH240925   7.828   6.215   4.774
13661TIP3    H140926   7.867   6.274   4.709
13661TIP3    H240927   7.769   6.271   4.825
13662TIP3   OH240928   5.367   4.633   6.264
13662TIP3    H140929   5.420   4.571   6.213
13662TIP3    H240930   5.413   4.641   6.348
13663TIP3   OH240931   1.998   0.024   2.935
13663TIP3    H140932   1.974  -0.062   2.970
13663TIP3    H240933   1.969   0.085   3.002
13664TIP3   OH240934   3.318   6.627   1.727
13664TIP3    H140935   3.230   6.659   1.744
13664TIP3    H240936   3.375   6.680   1.783
13665TIP3   OH240937   2.998   1.363   5.740
13665TIP3    H140938   3.028   1.344   5.829
13665TIP3    H240939   2.902   1.362   5.747
13666TIP3   OH240940   7.448   7.295   5.410
13666TIP3    H140941   7.425   7.210   5.373
13666TIP3    H240942   7.543   7.290   5.423
13667TIP3   OH240943   8.193   2.653   1.513
13667TIP3    H140944   8.242   2.573   1.491
13667TIP3    H240945   8.260   2.721   1.519
13668TIP3   OH240946   2.642   0.869   1.610
13668TIP3    H140947   2.627   0.816   1.688
13668TIP3    H240948   2.730   0.904   1.621
13669TIP3   OH240949   7.423   0.270   2.308
13669TIP3    H140950   7.349   0.237   2.360
13669TIP3    H240951   7.393   0.265   2.217
13670TIP3   OH240952   2.543   1.072   4.925
13670TIP3    H140953   2.474   1.101   4.865
13670TIP3    H240954   2.514   0.985   4.954
13671TIP3   OH240955   0.155   5.259   2.652
13671TIP3    H140956   0.226   5.229   2.596
13671TIP3    H240957   0.125   5.180   2.697
13672TIP3   OH240958   8.275   0.280   5.274
13672TIP3    H140959   8.233   0.221   5.212
13672TIP3    H240960   8.209   0.294   5.343
13673TIP3   OH240961   8.051   3.536   6.314
13673TIP3    H140962   7.964   3.500   6.299
13673TIP3    H240963   8.081   3.494   6.395
13674TIP3   OH240964  -0.005   2.107   4.909
13674TIP3    H140965  -0.047   2.035   4.861
13674TIP3    H240966   0.083   2.075   4.928
13675TIP3   OH240967   1.722   0.634   2.812
13675TIP3    H140968   1.756   0.689   2.882
13675TIP3    H240969   1.757   0.673   2.732
13676TIP3   OH240970   7.677   4.164   1.763
13676TIP3    H140971   7.646   4.078   1.733
13676TIP3    H240972   7.772   4.160   1.752
13677TIP3   OH240973   7.427   3.345   5.075
13677TIP3    H140974   7.497   3.288   5.043
13677TIP3    H240975   7.448   3.431   5.038
13678TIP3   OH240976   7.848   0.493   6.336
13678TIP3    H140977   7.824   0.518   6.425
13678TIP3    H240978   7.912   0.559   6.309
13679TIP3   OH240979   7.043   7.466   5.675
13679TIP3    H140980   7.129   7.479   5.636
13679TIP3    H240981   7.058   7.472   5.769
13680TIP3   OH240982   3.459   5.434   0.104
13680TIP3    H140983   3.441   5.420   0.011
13680TIP3    H240984   3.552   5.456   0.108
13681TIP3   OH240985   7.724   0.488   5.842
13681TIP3    H140986   7.775   0.417   5.802
13681TIP3    H240987   7.725   0.558   5.776
13682TIP3   OH240988   2.075   3.719   3.083
13682TIP3    H140989   2.145   3.751   3.141
13682TIP3    H240990   2.110   3.637   3.047
13683TIP3   OH240991   5.852   2.109   3.475
13683TIP3    H140992   5.920   2.064   3.425
13683TIP3    H240993   5.819   2.177   3.416
13684TIP3   OH240994   3.738   3.643   0.552
13684TIP3    H140995   3.800   3.596   0.495
13684TIP3    H240996   3.720   3.725   0.506
13685TIP3   OH240997   6.663   5.128   6.624
13685TIP3    H140998   6.675   5.116   6.530
13685TIP3    H240999   6.740   5.088   6.664
13686TIP3   OH241000   0.543   0.966   3.390
13686TIP3    H141001   0.503   1.052   3.390
13686TIP3    H241002   0.469   0.905   3.391
13687TIP3   OH241003   0.969   2.012   2.328
13687TIP3    H141004   0.908   1.973   2.265
13687TIP3    H241005   0.913   2.060   2.389
13688TIP3   OH241006   4.344   5.718   2.933
13688TIP3    H141007   4.420   5.665   2.956
13688TIP3    H241008   4.380   5.804   2.911
13689TIP3   OH241009   7.212   1.748   5.301
13689TIP3    H141010   7.220   1.805   5.377
13689TIP3    H241011   7.144   1.789   5.247
13690TIP3   OH241012   2.116   6.861   4.890
13690TIP3    H141013   2.135   6.871   4.984
13690TIP3    H241014   2.095   6.769   4.880
13691TIP3   OH241015   6.687   2.373   0.712
13691TIP3    H141016   6.739   2.373   0.793
13691TIP3    H241017   6.750   2.397   0.644
13692TIP3   OH241018   3.490   7.621   6.469
13692TIP3    H141019   3.457   7.538   6.434
13692TIP3    H241020   3.456   7.626   6.558
13693TIP3   OH241021   7.464   3.867   2.107
13693TIP3    H141022   7.501   3.795   2.159
13693TIP3    H241023   7.464   3.942   2.167
13694TIP3   OH241024   5.473   3.768   1.832
13694TIP3    H141025   5.401   3.813   1.788
13694TIP3    H241026   5.528   3.838   1.866
13695TIP3   OH241027   4.233   2.865   0.480
13695TIP3    H141028   4.286   2.855   0.559
13695TIP3    H241029   4.192   2.780   0.468
13696TIP3   OH241030   1.966   6.123   0.878
13696TIP3    H141031   2.044   6.088   0.923
13696TIP3    H241032   1.975   6.218   0.885
13697TIP3   OH241033   5.892   4.740   0.012
13697TIP3    H141034   5.921   4.696   0.092
13697TIP3    H241035   5.921   4.682  -0.059
13698TIP3   OH241036   4.247   6.574   6.007
13698TIP3    H141037   4.195   6.650   5.982
13698TIP3    H241038   4.287   6.544   5.925
13699TIP3   OH241039   4.424   6.028   5.951
13699TIP3    H141040   4.356   6.060   6.010
13699TIP3    H241041   4.470   5.962   6.002
13700TIP3   OH241042   2.511   6.815   6.250
13700TIP3    H141043   2.570   6.808   6.174
13700TIP3    H241044   2.518   6.730   6.294
13701TIP3   OH241045   2.802   1.183   3.058
13701TIP3    H141046   2.776   1.261   3.107
13701TIP3    H241047   2.897   1.190   3.050
13702TIP3   OH241048   3.683   1.898   0.902
13702TIP3    H141049   3.699   1.886   0.996
13702TIP3    H241050   3.598   1.942   0.899
13703TIP3   OH241051   2.385   1.097   5.688
13703TIP3    H141052   2.457   1.082   5.748
13703TIP3    H241053   2.337   1.171   5.726
13704TIP3   OH241054   1.801   3.369   4.116
13704TIP3    H141055   1.787   3.313   4.040
13704TIP3    H241056   1.729   3.346   4.176
13705TIP3   OH241057   1.510   4.718   5.808
13705TIP3    H141058   1.451   4.721   5.884
13705TIP3    H241059   1.463   4.765   5.739
13706TIP3   OH241060   7.738   5.490   0.934
13706TIP3    H141061   7.705   5.466   1.021
13706TIP3    H241062   7.659   5.495   0.880
13707TIP3   OH241063   4.108   4.604   3.178
13707TIP3    H141064   4.049   4.574   3.109
13707TIP3    H241065   4.052   4.616   3.254
13708TIP3   OH241066   7.629   3.141   5.229
13708TIP3    H141067   7.612   3.128   5.136
13708TIP3    H241068   7.623   3.053   5.267
13709TIP3   OH241069   0.072   5.378   4.712
13709TIP3    H141070  -0.004   5.342   4.666
13709TIP3    H241071   0.050   5.368   4.805
13710TIP3   OH241072   5.714   4.162   0.530
13710TIP3    H141073   5.666   4.146   0.449
13710TIP3    H241074   5.741   4.075   0.559
13711TIP3   OH241075   3.737   1.170   2.079
13711TIP3    H141076   3.772   1.236   2.139
13711TIP3    H241077   3.791   1.177   2.000
13712TIP3   OH241078   7.204   3.538   1.449
13712TIP3    H141079   7.265   3.547   1.522
13712TIP3    H241080   7.153   3.459   1.470
13713TIP3   OH241081   3.287   7.211   5.210
13713TIP3    H141082   3.282   7.205   5.114
13713TIP3    H241083   3.213   7.265   5.235
13714TIP3   OH241084   6.285   2.578   6.162
13714TIP3    H141085   6.220   2.648   6.157
13714TIP3    H241086   6.354   2.605   6.101
13715TIP3   OH241087   0.179   5.384   6.285
13715TIP3    H141088   0.186   5.296   6.249
13715TIP3    H241089   0.251   5.432   6.244
13716TIP3   OH241090   2.117   5.386   5.642
13716TIP3    H141091   2.210   5.391   5.620
13716TIP3    H241092   2.105   5.298   5.677
13717TIP3   OH241093   5.569   3.224   6.395
13717TIP3    H141094   5.535   3.166   6.463
13717TIP3    H241095   5.633   3.170   6.348
13718TIP3   OH241096   3.952   5.349   2.947
13718TIP3    H141097   3.908   5.287   2.889
13718TIP3    H241098   4.044   5.323   2.944
13719TIP3   OH241099   1.389   3.461   6.429
13719TIP3    H141100   1.342   3.386   6.394
13719TIP3    H241101   1.412   3.513   6.352
13720TIP3   OH241102   3.594   3.023   0.567
13720TIP3    H141103   3.636   3.106   0.589
13720TIP3    H241104   3.500   3.040   0.577
13721TIP3   OH241105   1.266   4.008   5.628
13721TIP3    H141106   1.241   3.992   5.718
13721TIP3    H241107   1.352   4.051   5.634
13722TIP3   OH241108   6.810   1.260   3.476
13722TIP3    H141109   6.890   1.299   3.510
13722TIP3    H241110   6.740   1.311   3.515
13723TIP3   OH241111   1.774   1.290   5.548
13723TIP3    H141112   1.863   1.285   5.582
13723TIP3    H241113   1.751   1.382   5.553
13724TIP3   OH241114   0.940   2.678   5.559
13724TIP3    H141115   0.940   2.704   5.651
13724TIP3    H241116   0.940   2.760   5.510
13725TIP3   OH241117   0.104   5.285   4.210
13725TIP3    H141118   0.153   5.296   4.292
13725TIP3    H241119   0.171   5.287   4.141
13726TIP3   OH241120   7.681   4.419   2.059
13726TIP3    H141121   7.717   4.485   2.118
13726TIP3    H241122   7.752   4.402   1.997
13727TIP3   OH241123   4.378   6.831   3.889
13727TIP3    H141124   4.316   6.903   3.874
13727TIP3    H241125   4.440   6.866   3.953
13728TIP3   OH241126   0.475   3.177   2.721
13728TIP3    H141127   0.468   3.193   2.627
13728TIP3    H241128   0.535   3.103   2.728
13729TIP3   OH241129   2.224   4.706   1.750
13729TIP3    H141130   2.163   4.649   1.797
13729TIP3    H241131   2.285   4.645   1.708
13730TIP3   OH241132   1.161   1.973   3.178
13730TIP3    H141133   1.145   1.956   3.270
13730TIP3    H241134   1.077   2.006   3.145
13731TIP3   OH241135   2.351   3.787   2.140
13731TIP3    H141136   2.266   3.823   2.164
13731TIP3    H241137   2.410   3.862   2.138
13732TIP3   OH241138   3.641   3.268   1.543
13732TIP3    H141139   3.661   3.341   1.600
13732TIP3    H241140   3.663   3.298   1.455
13733TIP3   OH241141   7.938   1.427   6.619
13733TIP3    H141142   7.909   1.355   6.563
13733TIP3    H241143   7.938   1.504   6.562
13734TIP3   OH241144   3.202   4.162   3.836
13734TIP3    H141145   3.123   4.114   3.809
13734TIP3    H241146   3.186   4.182   3.928
13735TIP3   OH241147   2.763   1.068   4.680
13735TIP3    H141148   2.699   1.109   4.738
13735TIP3    H241149   2.821   1.140   4.654
13736TIP3   OH241150   6.624   6.507   0.641
13736TIP3    H141151   6.705   6.557   0.631
13736TIP3    H241152   6.566   6.542   0.573
13737TIP3   OH241153   1.825   4.717   1.535
13737TIP3    H141154   1.801   4.797   1.488
13737TIP3    H241155   1.744   4.666   1.537
13738TIP3   OH241156   6.219   0.719   1.972
13738TIP3    H141157   6.142   0.739   1.919
13738TIP3    H241158   6.288   0.777   1.938
13739TIP3   OH241159   6.150   5.959   1.371
13739TIP3    H141160   6.109   5.993   1.451
13739TIP3    H241161   6.112   6.012   1.301
13740TIP3   OH241162   7.568   7.480   6.728
13740TIP3    H141163   7.554   7.444   6.640
13740TIP3    H241164   7.541   7.410   6.787
13741TIP3   OH241165   6.892   4.877   3.312
13741TIP3    H141166   6.940   4.925   3.245
13741TIP3    H241167   6.933   4.790   3.313
13742TIP3   OH241168   5.718   5.951   6.148
13742TIP3    H141169   5.755   5.951   6.236
13742TIP3    H241170   5.787   5.988   6.093
13743TIP3   OH241171   6.722   0.037   4.932
13743TIP3    H141172   6.669  -0.020   4.988
13743TIP3    H241173   6.782  -0.022   4.887
13744TIP3   OH241174   0.054   1.190   5.487
13744TIP3    H141175   0.050   1.203   5.393
13744TIP3    H241176   0.031   1.097   5.499
13745TIP3   OH241177   5.876   6.688   5.550
13745TIP3    H141178   5.784   6.669   5.530
13745TIP3    H241179   5.922   6.670   5.468
13746TIP3   OH241180   7.697   4.778   0.044
13746TIP3    H141181   7.676   4.797  -0.048
13746TIP3    H241182   7.635   4.709   0.069
13747TIP3   OH241183   7.377   4.699   5.814
13747TIP3    H141184   7.311   4.728   5.752
13747TIP3    H241185   7.347   4.734   5.898
13748TIP3   OH241186   3.908   5.561   5.653
13748TIP3    H141187   3.896   5.654   5.673
13748TIP3    H241188   3.946   5.560   5.565
13749TIP3   OH241189   4.421   6.450   2.308
13749TIP3    H141190   4.495   6.428   2.364
13749TIP3    H241191   4.388   6.534   2.341
13750TIP3   OH241192   2.053   4.611   3.939
13750TIP3    H141193   2.036   4.692   3.986
13750TIP3    H241194   1.968   4.585   3.903
13751TIP3   OH241195   0.291   2.446   5.046
13751TIP3    H141196   0.262   2.447   5.137
13751TIP3    H241197   0.214   2.416   4.996
13752TIP3   OH241198   7.726   5.272   5.152
13752TIP3    H141199   7.809   5.314   5.177
13752TIP3    H241200   7.659   5.323   5.197
13753TIP3   OH241201   4.317   3.100   4.084
13753TIP3    H141202   4.311   3.074   3.992
13753TIP3    H241203   4.402   3.142   4.093
13754TIP3   OH241204   3.822   0.087   3.952
13754TIP3    H141205   3.785   0.124   4.032
13754TIP3    H241206   3.832  -0.007   3.971
13755TIP3   OH241207   8.147   7.297   2.124
13755TIP3    H141208   8.195   7.310   2.042
13755TIP3    H241209   8.056   7.313   2.101
13756TIP3   OH241210   6.414   4.431   4.001
13756TIP3    H141211   6.456   4.446   4.086
13756TIP3    H241212   6.468   4.479   3.938
13757TIP3   OH241213   5.172   7.544   3.986
13757TIP3    H141214   5.105   7.485   4.019
13757TIP3    H241215   5.250   7.524   4.038
13758TIP3   OH241216   8.235   1.867   1.590
13758TIP3    H141217   8.310   1.810   1.606
13758TIP3    H241218   8.273   1.947   1.554
13759TIP3   OH241219   5.918   2.047   1.252
13759TIP3    H141220   5.884   1.957   1.260
13759TIP3    H241221   5.840   2.101   1.241
13760TIP3   OH241222   7.896   6.791   4.231
13760TIP3    H141223   7.906   6.702   4.197
13760TIP3    H241224   7.945   6.846   4.170
13761TIP3   OH241225   2.809   4.150   1.175
13761TIP3    H141226   2.774   4.068   1.210
13761TIP3    H241227   2.862   4.186   1.246
13762TIP3   OH241228   3.434   4.346   1.840
13762TIP3    H141229   3.489   4.296   1.900
13762TIP3    H241230   3.435   4.297   1.758
13763TIP3   OH241231   0.495   3.944   5.997
13763TIP3    H141232   0.559   3.946   6.068
13763TIP3    H241233   0.413   3.920   6.038
13764TIP3   OH241234   6.323   3.858   0.352
13764TIP3    H141235   6.357   3.841   0.440
13764TIP3    H241236   6.266   3.782   0.334
13765TIP3   OH241237   1.212   1.031   0.559
13765TIP3    H141238   1.274   0.963   0.532
13765TIP3    H241239   1.146   1.032   0.490
13766TIP3   OH241240   3.801   2.416   5.662
13766TIP3    H141241   3.807   2.321   5.648
13766TIP3    H241242   3.717   2.428   5.707
13767TIP3   OH241243   7.816   4.961   2.194
13767TIP3    H141244   7.798   4.942   2.102
13767TIP3    H241245   7.902   5.001   2.194
13768TIP3   OH241246   3.163   3.753   3.415
13768TIP3    H141247   3.222   3.828   3.418
13768TIP3    H241248   3.216   3.682   3.379
13769TIP3   OH241249   6.343   4.122   6.609
13769TIP3    H141250   6.330   4.088   6.520
13769TIP3    H241251   6.309   4.211   6.605
13770TIP3   OH241252   7.209   1.390   1.463
13770TIP3    H141253   7.265   1.425   1.532
13770TIP3    H241254   7.242   1.302   1.447
13771TIP3   OH241255   0.847   3.014   0.821
13771TIP3    H141256   0.886   2.928   0.838
13771TIP3    H241257   0.855   3.061   0.904
13772TIP3   OH241258   3.911   4.567   1.305
13772TIP3    H141259   3.983   4.622   1.274
13772TIP3    H241260   3.859   4.625   1.360
13773TIP3   OH241261   5.303   0.878   1.245
13773TIP3    H141262   5.277   0.828   1.168
13773TIP3    H241263   5.345   0.814   1.302
13774TIP3   OH241264   8.100   7.042   6.185
13774TIP3    H141265   8.092   7.001   6.271
13774TIP3    H241266   8.015   7.029   6.144
13775TIP3   OH241267   4.756   4.522   0.731
13775TIP3    H141268   4.801   4.516   0.816
13775TIP3    H241269   4.824   4.552   0.670
13776TIP3   OH241270   4.860   3.379   4.538
13776TIP3    H141271   4.896   3.441   4.601
13776TIP3    H241272   4.887   3.413   4.453
13777TIP3   OH241273   5.071   7.118   3.332
13777TIP3    H141274   5.090   7.059   3.259
13777TIP3    H241275   5.119   7.198   3.312
13778TIP3   OH241276   6.911   7.119   4.547
13778TIP3    H141277   6.969   7.128   4.471
13778TIP3    H241278   6.889   7.026   4.549
13779TIP3   OH241279   8.039   1.561   1.578
13779TIP3    H141280   8.032   1.655   1.598
13779TIP3    H241281   8.086   1.524   1.653
13780TIP3   OH241282   4.379   3.180   2.571
13780TIP3    H141283   4.337   3.175   2.485
13780TIP3    H241284   4.376   3.273   2.594
13781TIP3   OH241285   4.690   6.609   0.620
13781TIP3    H141286   4.736   6.683   0.581
13781TIP3    H241287   4.749   6.535   0.606
13782TIP3   OH241288   0.125   5.311   1.066
13782TIP3    H141289   0.113   5.282   0.975
13782TIP3    H241290   0.089   5.240   1.119
13783TIP3   OH241291   4.121   1.063   6.098
13783TIP3    H141292   4.198   1.072   6.041
13783TIP3    H241293   4.131   1.133   6.163
13784TIP3   OH241294   2.447   1.794   1.755
13784TIP3    H141295   2.431   1.701   1.766
13784TIP3    H241296   2.543   1.802   1.751
13785TIP3   OH241297   1.993   0.386   3.244
13785TIP3    H141298   1.955   0.473   3.228
13785TIP3    H241299   2.067   0.381   3.183
13786TIP3   OH241300   5.666   5.444   0.753
13786TIP3    H141301   5.736   5.439   0.818
13786TIP3    H241302   5.687   5.376   0.689
13787TIP3   OH241303   6.593   1.751   5.426
13787TIP3    H141304   6.505   1.735   5.460
13787TIP3    H241305   6.633   1.664   5.421
13788TIP3   OH241306   7.534   1.742   4.044
13788TIP3    H141307   7.565   1.656   4.073
13788TIP3    H241308   7.494   1.780   4.121
13789TIP3   OH241309   2.888   6.760   2.020
13789TIP3    H141310   2.961   6.699   2.032
13789TIP3    H241311   2.815   6.705   1.991
13790TIP3   OH241312   5.830   7.268   1.030
13790TIP3    H141313   5.921   7.283   1.004
13790TIP3    H241314   5.802   7.194   0.975
13791TIP3   OH241315   3.305   4.129   0.494
13791TIP3    H141316   3.400   4.129   0.494
13791TIP3    H241317   3.281   4.059   0.433
13792TIP3   OH241318   5.555   6.358   6.150
13792TIP3    H141319   5.497   6.290   6.183
13792TIP3    H241320   5.574   6.332   6.060
13793TIP3   OH241321   4.480   0.762   4.512
13793TIP3    H141322   4.479   0.783   4.606
13793TIP3    H241323   4.468   0.667   4.509
13794TIP3   OH241324   7.431   7.091   0.350
13794TIP3    H141325   7.506   7.063   0.403
13794TIP3    H241326   7.451   7.061   0.262
13795TIP3   OH241327   6.122   0.817   3.597
13795TIP3    H141328   6.165   0.744   3.551
13795TIP3    H241329   6.030   0.790   3.603
13796TIP3   OH241330   1.704   0.390   6.265
13796TIP3    H141331   1.662   0.389   6.178
13796TIP3    H241332   1.749   0.474   6.269
13797TIP3   OH241333   2.484   7.763   2.668
13797TIP3    H141334   2.512   7.760   2.759
13797TIP3    H241335   2.559   7.798   2.620
13798TIP3   OH241336   1.010   2.244   1.528
13798TIP3    H141337   0.959   2.232   1.607
13798TIP3    H241338   1.101   2.237   1.557
13799TIP3   OH241339   2.160   7.768   4.609
13799TIP3    H141340   2.183   7.800   4.521
13799TIP3    H241341   2.219   7.694   4.623
13800TIP3   OH241342   7.782   6.658   4.953
13800TIP3    H141343   7.742   6.686   5.035
13800TIP3    H241344   7.860   6.714   4.945
13801TIP3   OH241345   4.274   7.643   3.457
13801TIP3    H141346   4.198   7.625   3.401
13801TIP3    H241347   4.236   7.663   3.543
13802TIP3   OH241348   6.304   2.475   4.229
13802TIP3    H141349   6.233   2.412   4.238
13802TIP3    H241350   6.367   2.431   4.171
13803TIP3   OH241351   0.253   2.768   1.302
13803TIP3    H141352   0.161   2.769   1.275
13803TIP3    H241353   0.287   2.686   1.267
13804TIP3   OH241354   5.373   2.939   6.054
13804TIP3    H141355   5.467   2.933   6.034
13804TIP3    H241356   5.331   2.880   5.990
13805TIP3   OH241357   3.041   3.413   3.799
13805TIP3    H141358   3.104   3.378   3.862
13805TIP3    H241359   2.956   3.377   3.828
13806TIP3   OH241360   5.034   6.674   6.121
13806TIP3    H141361   4.968   6.612   6.153
13806TIP3    H241362   4.992   6.717   6.047
13807TIP3   OH241363   3.081   2.369   3.663
13807TIP3    H141364   3.101   2.285   3.705
13807TIP3    H241365   3.127   2.365   3.579
13808TIP3   OH241366   3.831   2.145   5.218
13808TIP3    H141367   3.878   2.065   5.242
13808TIP3    H241368   3.874   2.177   5.139
13809TIP3   OH241369   1.025   1.924   5.983
13809TIP3    H141370   0.985   1.842   5.955
13809TIP3    H241371   0.987   1.991   5.927
13810TIP3   OH241372   6.161   2.562   2.527
13810TIP3    H141373   6.251   2.580   2.553
13810TIP3    H241374   6.108   2.589   2.603
13811TIP3   OH241375   7.686   4.731   2.735
13811TIP3    H141376   7.660   4.642   2.756
13811TIP3    H241377   7.715   4.769   2.818
13812TIP3   OH241378   0.477   4.111   1.639
13812TIP3    H141379   0.535   4.114   1.563
13812TIP3    H241380   0.461   4.203   1.660
13813TIP3   OH241381   0.913   3.673   2.223
13813TIP3    H141382   0.993   3.647   2.178
13813TIP3    H241383   0.849   3.688   2.153
13814TIP3   OH241384   6.678   7.663   6.534
13814TIP3    H141385   6.727   7.743   6.515
13814TIP3    H241386   6.729   7.618   6.601
13815TIP3   OH241387   8.190   6.125   5.997
13815TIP3    H141388   8.272   6.100   5.954
13815TIP3    H241389   8.177   6.057   6.064
13816TIP3   OH241390   0.854   1.454   5.727
13816TIP3    H141391   0.796   1.528   5.707
13816TIP3    H241392   0.796   1.389   5.768
13817TIP3   OH241393   1.067   3.705   4.057
13817TIP3    H141394   1.124   3.770   4.099
13817TIP3    H241395   1.075   3.723   3.963
13818TIP3   OH241396   1.304   1.334   1.252
13818TIP3    H141397   1.265   1.364   1.170
13818TIP3    H241398   1.310   1.413   1.306
13819TIP3   OH241399   3.968   3.858   2.169
13819TIP3    H141400   3.914   3.829   2.096
13819TIP3    H241401   3.916   3.927   2.211
13820TIP3   OH241402   4.883   6.327   4.033
13820TIP3    H141403   4.865   6.383   4.108
13820TIP3    H241404   4.875   6.238   4.067
13821TIP3   OH241405   0.194   2.158   6.365
13821TIP3    H141406   0.199   2.062   6.368
13821TIP3    H241407   0.250   2.183   6.291
13822TIP3   OH241408   8.215   6.883   2.498
13822TIP3    H141409   8.309   6.885   2.518
13822TIP3    H241410   8.204   6.946   2.427
13823TIP3   OH241411   5.158   2.159   0.155
13823TIP3    H141412   5.091   2.143   0.222
13823TIP3    H241413   5.110   2.194   0.080
13824TIP3   OH241414   6.330   0.627   0.793
13824TIP3    H141415   6.354   0.718   0.775
13824TIP3    H241416   6.327   0.623   0.889
13825TIP3   OH241417   0.783   6.330   6.208
13825TIP3    H141418   0.760   6.318   6.116
13825TIP3    H241419   0.731   6.264   6.254
13826TIP3   OH241420   7.019   2.027   6.655
13826TIP3    H141421   6.940   2.013   6.603
13826TIP3    H241422   7.085   2.056   6.591
13827TIP3   OH241423   5.662   1.521   1.847
13827TIP3    H141424   5.571   1.497   1.835
13827TIP3    H241425   5.663   1.617   1.839
13828TIP3   OH241426   7.915   0.654   1.413
13828TIP3    H141427   7.835   0.672   1.461
13828TIP3    H241428   7.986   0.681   1.471
13829TIP3   OH241429   3.551   4.430   1.261
13829TIP3    H141430   3.599   4.444   1.343
13829TIP3    H241431   3.507   4.513   1.244
13830TIP3   OH241432   1.109   4.109   4.400
13830TIP3    H141433   1.189   4.059   4.415
13830TIP3    H241434   1.132   4.170   4.330
13831TIP3   OH241435   3.298   2.577   0.952
13831TIP3    H141436   3.287   2.497   1.002
13831TIP3    H241437   3.364   2.627   1.000
13832TIP3   OH241438   1.107   3.922   3.387
13832TIP3    H141439   1.179   3.865   3.360
13832TIP3    H241440   1.149   3.992   3.436
13833TIP3   OH241441   3.411   6.171   4.046
13833TIP3    H141442   3.488   6.210   4.006
13833TIP3    H241443   3.355   6.145   3.972
13834TIP3   OH241444   1.638   7.677   3.969
13834TIP3    H141445   1.614   7.737   3.899
13834TIP3    H241446   1.658   7.594   3.925
13835TIP3   OH241447   4.209   7.580   5.566
13835TIP3    H141448   4.147   7.650   5.544
13835TIP3    H241449   4.295   7.620   5.551
13836TIP3   OH241450   7.939   2.564   0.221
13836TIP3    H141451   7.993   2.549   0.144
13836TIP3    H241452   7.861   2.608   0.187
13837TIP3   OH241453   1.521   2.720   0.447
13837TIP3    H141454   1.482   2.644   0.404
13837TIP3    H241455   1.490   2.795   0.396
13838TIP3   OH241456   4.501   2.339   1.724
13838TIP3    H141457   4.525   2.429   1.746
13838TIP3    H241458   4.433   2.348   1.657
13839TIP3   OH241459   3.250   3.980   4.767
13839TIP3    H141460   3.312   3.907   4.760
13839TIP3    H241461   3.294   4.053   4.724
13840TIP3   OH241462   4.319   6.526   6.452
13840TIP3    H141463   4.239   6.552   6.498
13840TIP3    H241464   4.370   6.478   6.517
13841TIP3   OH241465   5.932   1.148   4.426
13841TIP3    H141466   5.998   1.203   4.384
13841TIP3    H241467   5.882   1.111   4.354
13842TIP3   OH241468   5.439   3.037   6.561
13842TIP3    H141469   5.462   2.960   6.510
13842TIP3    H241470   5.487   3.028   6.643
13843TIP3   OH241471   4.945   3.400   6.287
13843TIP3    H141472   4.964   3.310   6.312
13843TIP3    H241473   4.939   3.448   6.369
13844TIP3   OH241474   6.279   5.559   3.528
13844TIP3    H141475   6.216   5.626   3.557
13844TIP3    H241476   6.269   5.488   3.592
13845TIP3   OH241477   0.894   3.559   2.927
13845TIP3    H141478   0.892   3.463   2.919
13845TIP3    H241479   0.962   3.586   2.866
13846TIP3   OH241480   0.050   5.031   1.979
13846TIP3    H141481   0.133   5.078   1.979
13846TIP3    H241482  -0.017   5.100   1.970
13847TIP3   OH241483   2.866   4.707   2.888
13847TIP3    H141484   2.923   4.704   2.812
13847TIP3    H241485   2.824   4.621   2.891
13848TIP3   OH241486   4.712   1.189   1.634
13848TIP3    H141487   4.686   1.278   1.657
13848TIP3    H241488   4.632   1.137   1.643
13849TIP3   OH241489   1.590   2.835   3.302
13849TIP3    H141490   1.522   2.798   3.358
13849TIP3    H241491   1.665   2.847   3.360
13850TIP3   OH241492   7.899   7.135   2.333
13850TIP3    H141493   7.959   7.183   2.389
13850TIP3    H241494   7.879   7.195   2.262
13851TIP3   OH241495   7.477   7.106   3.707
13851TIP3    H141496   7.531   7.117   3.629
13851TIP3    H241497   7.534   7.129   3.780
13852TIP3   OH241498   5.085   2.205   6.453
13852TIP3    H141499   5.083   2.111   6.468
13852TIP3    H241500   5.001   2.224   6.411
13853TIP3   OH241501   5.364   0.189   4.625
13853TIP3    H141502   5.401   0.274   4.649
13853TIP3    H241503   5.288   0.179   4.681
13854TIP3   OH241504   5.325   7.674   4.900
13854TIP3    H141505   5.412   7.695   4.933
13854TIP3    H241506   5.286   7.619   4.968
13855TIP3   OH241507   4.241   7.432   4.157
13855TIP3    H141508   4.237   7.337   4.168
13855TIP3    H241509   4.294   7.445   4.078
13856TIP3   OH241510   5.800   3.232   0.880
13856TIP3    H141511   5.727   3.263   0.933
13856TIP3    H241512   5.862   3.305   0.881
13857TIP3   OH241513   6.721   5.570   5.470
13857TIP3    H141514   6.770   5.523   5.538
13857TIP3    H241515   6.659   5.505   5.436
13858TIP3   OH241516   2.170   3.053   1.143
13858TIP3    H141517   2.261   3.030   1.163
13858TIP3    H241518   2.127   2.968   1.127
13859TIP3   OH241519   2.405   2.854   4.839
13859TIP3    H141520   2.466   2.924   4.816
13859TIP3    H241521   2.339   2.856   4.770
13860TIP3   OH241522   1.966   3.299   3.127
13860TIP3    H141523   2.003   3.359   3.193
13860TIP3    H241524   2.043   3.258   3.087
13861TIP3   OH241525   6.326   7.051   1.156
13861TIP3    H141526   6.327   7.144   1.178
13861TIP3    H241527   6.414   7.021   1.179
13862TIP3   OH241528   2.735   0.676   6.623
13862TIP3    H141529   2.756   0.689   6.531
13862TIP3    H241530   2.792   0.604   6.651
13863TIP3   OH241531   5.924   1.264   1.943
13863TIP3    H141532   5.948   1.350   1.907
13863TIP3    H241533   5.835   1.276   1.975
13864TIP3   OH241534   3.875   2.803   2.562
13864TIP3    H141535   3.884   2.898   2.558
13864TIP3    H241536   3.810   2.782   2.495
13865TIP3   OH241537   5.094   6.967   6.503
13865TIP3    H141538   5.086   6.872   6.509
13865TIP3    H241539   5.177   6.982   6.457
13866TIP3   OH241540   2.811   5.522   4.892
13866TIP3    H141541   2.791   5.436   4.931
13866TIP3    H241542   2.901   5.539   4.917
13867TIP3   OH241543   4.685   7.481   3.984
13867TIP3    H141544   4.713   7.571   3.966
13867TIP3    H241545   4.677   7.478   4.079
13868TIP3   OH241546   6.588   2.267   1.238
13868TIP3    H141547   6.643   2.267   1.316
13868TIP3    H241548   6.648   2.243   1.167
13869TIP3   OH241549   1.723   3.353   2.568
13869TIP3    H141550   1.683   3.370   2.653
13869TIP3    H241551   1.706   3.433   2.518
13870TIP3   OH241552   7.541   1.480   6.224
13870TIP3    H141553   7.452   1.460   6.195
13870TIP3    H241554   7.598   1.437   6.160
13871TIP3   OH241555   0.355   7.602   2.241
13871TIP3    H141556   0.283   7.603   2.177
13871TIP3    H241557   0.327   7.539   2.307
13872TIP3   OH241558   7.038   2.616   2.169
13872TIP3    H141559   6.967   2.678   2.189
13872TIP3    H241560   7.047   2.563   2.248
13873TIP3   OH241561   1.647   4.715   2.375
13873TIP3    H141562   1.657   4.692   2.467
13873TIP3    H241563   1.715   4.781   2.359
13874TIP3   OH241564   2.969   0.192   2.568
13874TIP3    H141565   3.005   0.106   2.545
13874TIP3    H241566   3.021   0.220   2.643
13875TIP3   OH241567   0.877   3.399   3.451
13875TIP3    H141568   0.943   3.345   3.493
13875TIP3    H241569   0.806   3.404   3.516
13876TIP3   OH241570   4.243   0.055   6.480
13876TIP3    H141571   4.259   0.149   6.488
13876TIP3    H241572   4.328   0.018   6.453
13877TIP3   OH241573   7.982   4.376   6.712
13877TIP3    H141574   7.988   4.361   6.617
13877TIP3    H241575   7.959   4.291   6.748
13878TIP3   OH241576   6.348   2.052   3.584
13878TIP3    H141577   6.378   2.045   3.675
13878TIP3    H241578   6.408   2.114   3.544
13879TIP3   OH241579   5.512   6.890   3.670
13879TIP3    H141580   5.502   6.985   3.684
13879TIP3    H241581   5.504   6.878   3.576
13880TIP3   OH241582   1.324   4.763   4.460
13880TIP3    H141583   1.274   4.773   4.541
13880TIP3    H241584   1.381   4.688   4.477
13881TIP3   OH241585   4.025   6.489   4.785
13881TIP3    H141586   4.023   6.498   4.690
13881TIP3    H241587   3.962   6.420   4.805
13882TIP3   OH241588   1.547   6.038   0.911
13882TIP3    H141589   1.608   6.034   0.838
13882TIP3    H241590   1.491   6.112   0.891
13883TIP3   OH241591   5.331   6.255   3.866
13883TIP3    H141592   5.351   6.167   3.898
13883TIP3    H241593   5.415   6.301   3.871
13884TIP3   OH241594   3.975   4.240   2.954
13884TIP3    H141595   3.929   4.311   2.909
13884TIP3    H241596   3.912   4.168   2.957
13885TIP3   OH241597   7.744   6.925   3.613
13885TIP3    H141598   7.696   6.982   3.553
13885TIP3    H241599   7.836   6.950   3.601
13886TIP3   OH241600   3.124   4.639   6.595
13886TIP3    H141601   3.113   4.645   6.689
13886TIP3    H241602   3.072   4.563   6.569
13887TIP3   OH241603   2.860   5.229   1.850
13887TIP3    H141604   2.854   5.149   1.799
13887TIP3    H241605   2.794   5.287   1.811
13888TIP3   OH241606   7.173   3.107   0.605
13888TIP3    H141607   7.109   3.101   0.535
13888TIP3    H241608   7.144   3.182   0.658
13889TIP3   OH241609   0.557   5.449   5.752
13889TIP3    H141610   0.640   5.448   5.800
13889TIP3    H241611   0.529   5.357   5.753
13890TIP3   OH241612   4.493   5.167   2.143
13890TIP3    H141613   4.440   5.153   2.222
13890TIP3    H241614   4.555   5.095   2.143
13891TIP3   OH241615   1.105   3.800   0.539
13891TIP3    H141616   1.140   3.814   0.451
13891TIP3    H241617   1.113   3.885   0.582
13892TIP3   OH241618   7.293   2.328   2.178
13892TIP3    H141619   7.282   2.399   2.114
13892TIP3    H241620   7.385   2.304   2.170
13893TIP3   OH241621   2.256   6.904   2.431
13893TIP3    H141622   2.295   6.991   2.436
13893TIP3    H241623   2.298   6.864   2.355
13894TIP3   OH241624   4.829   2.123   3.321
13894TIP3    H141625   4.837   2.178   3.399
13894TIP3    H241626   4.902   2.151   3.265
13895TIP3   OH241627   6.019   4.303   0.470
13895TIP3    H141628   6.040   4.225   0.521
13895TIP3    H241629   6.099   4.323   0.422
13896TIP3   OH241630   7.499   3.912   5.730
13896TIP3    H141631   7.539   3.889   5.814
13896TIP3    H241632   7.510   4.007   5.723
13897TIP3   OH241633   0.427   3.427   5.335
13897TIP3    H141634   0.371   3.501   5.358
13897TIP3    H241635   0.487   3.419   5.409
13898TIP3   OH241636   7.778   3.181   1.166
13898TIP3    H141637   7.739   3.125   1.233
13898TIP3    H241638   7.868   3.150   1.157
13899TIP3   OH241639   2.995   1.715   3.602
13899TIP3    H141640   3.026   1.806   3.595
13899TIP3    H241641   2.905   1.718   3.568
13900TIP3   OH241642   6.888   5.013   1.572
13900TIP3    H141643   6.958   4.981   1.516
13900TIP3    H241644   6.930   5.030   1.656
13901TIP3   OH241645   2.285   2.764   4.186
13901TIP3    H141646   2.310   2.791   4.098
13901TIP3    H241647   2.190   2.753   4.182
13902TIP3   OH241648   3.846   1.406   0.515
13902TIP3    H141649   3.857   1.372   0.426
13902TIP3    H241650   3.754   1.430   0.520
13903TIP3   OH241651   6.991   0.608   2.371
13903TIP3    H141652   6.993   0.512   2.367
13903TIP3    H241653   7.044   0.630   2.447
13904TIP3   OH241654   6.415   3.746   6.731
13904TIP3    H141655   6.489   3.797   6.698
13904TIP3    H241656   6.344   3.765   6.669
13905TIP3   OH241657   2.865   2.560   2.265
13905TIP3    H141658   2.932   2.547   2.198
13905TIP3    H241659   2.805   2.486   2.253
13906TIP3   OH241660   3.711   2.925   2.129
13906TIP3    H141661   3.708   3.017   2.104
13906TIP3    H241662   3.675   2.879   2.053
13907TIP3   OH241663   8.315   4.156   2.554
13907TIP3    H141664   8.324   4.110   2.637
13907TIP3    H241665   8.220   4.156   2.537
13908TIP3   OH241666   2.988   4.452   6.302
13908TIP3    H141667   2.920   4.431   6.366
13908TIP3    H241668   2.952   4.524   6.251
13909TIP3   OH241669   0.195   4.620   2.910
13909TIP3    H141670   0.246   4.559   2.857
13909TIP3    H241671   0.224   4.707   2.881
13910TIP3   OH241672   0.775   7.062   6.355
13910TIP3    H141673   0.747   7.143   6.398
13910TIP3    H241674   0.720   6.994   6.393
13911TIP3   OH241675   1.274   4.753   0.794
13911TIP3    H141676   1.293   4.705   0.875
13911TIP3    H241677   1.189   4.718   0.765
13912TIP3   OH241678   1.677   5.813   2.965
13912TIP3    H141679   1.672   5.902   2.930
13912TIP3    H241680   1.590   5.775   2.949
13913TIP3   OH241681   6.383   7.589   1.295
13913TIP3    H141682   6.412   7.515   1.349
13913TIP3    H241683   6.434   7.663   1.327
13914TIP3   OH241684   1.943   6.195   1.654
13914TIP3    H141685   1.861   6.205   1.702
13914TIP3    H241686   1.917   6.172   1.565
13915TIP3   OH241687   7.068   6.697   4.797
13915TIP3    H141688   7.084   6.604   4.812
13915TIP3    H241689   7.070   6.707   4.702
13916TIP3   OH241690   0.542   5.764   1.940
13916TIP3    H141691   0.607   5.833   1.928
13916TIP3    H241692   0.462   5.799   1.900
13917TIP3   OH241693   7.148   7.568   0.849
13917TIP3    H141694   7.074   7.622   0.821
13917TIP3    H241695   7.206   7.565   0.773
13918TIP3   OH241696   5.608   1.512   1.010
13918TIP3    H141697   5.578   1.546   1.095
13918TIP3    H241698   5.627   1.590   0.958
13919TIP3   OH241699   7.716   0.665   5.651
13919TIP3    H141700   7.666   0.632   5.577
13919TIP3    H241701   7.673   0.747   5.674
13920TIP3   OH241702   0.303   6.935   6.288
13920TIP3    H141703   0.286   6.975   6.203
13920TIP3    H241704   0.296   7.007   6.351
13921TIP3   OH241705   6.936   6.935   1.443
13921TIP3    H141706   6.925   6.908   1.352
13921TIP3    H241707   6.995   6.870   1.481
13922TIP3   OH241708   6.278   7.349   0.144
13922TIP3    H141709   6.223   7.304   0.209
13922TIP3    H241710   6.354   7.379   0.194
13923TIP3   OH241711   7.447   2.681   5.627
13923TIP3    H141712   7.536   2.648   5.637
13923TIP3    H241713   7.427   2.670   5.534
13924TIP3   OH241714   0.755   5.313   0.599
13924TIP3    H141715   0.795   5.391   0.637
13924TIP3    H241716   0.791   5.241   0.651
13925TIP3   OH241717   5.693   0.828   6.129
13925TIP3    H141718   5.716   0.824   6.036
13925TIP3    H241719   5.603   0.861   6.131
13926TIP3   OH241720   0.542   6.396   2.895
13926TIP3    H141721   0.560   6.417   2.804
13926TIP3    H241722   0.477   6.326   2.891
13927TIP3   OH241723   4.406   2.927   1.652
13927TIP3    H141724   4.335   2.970   1.700
13927TIP3    H241725   4.364   2.886   1.577
13928TIP3   OH241726   5.782   3.880   2.330
13928TIP3    H141727   5.779   3.832   2.413
13928TIP3    H241728   5.856   3.940   2.340
13929TIP3   OH241729   4.181   3.674   1.371
13929TIP3    H141730   4.158   3.583   1.352
13929TIP3    H241731   4.224   3.705   1.292
13930TIP3   OH241732   5.062   1.107   2.494
13930TIP3    H141733   5.072   1.199   2.469
13930TIP3    H241734   5.152   1.073   2.495
13931TIP3   OH241735   4.429   3.473   0.095
13931TIP3    H141736   4.472   3.558   0.108
13931TIP3    H241737   4.338   3.488   0.122
13932TIP3   OH241738   3.930   6.171   2.726
13932TIP3    H141739   3.939   6.257   2.684
13932TIP3    H241740   4.020   6.141   2.738
13933TIP3   OH241741   4.267   2.614   2.059
13933TIP3    H141742   4.358   2.585   2.069
13933TIP3    H241743   4.217   2.533   2.053
13934TIP3   OH241744   0.981   3.673   3.484
13934TIP3    H141745   0.948   3.729   3.414
13934TIP3    H241746   0.927   3.594   3.479
13935TIP3   OH241747   5.570   1.415   4.211
13935TIP3    H141748   5.476   1.421   4.192
13935TIP3    H241749   5.611   1.394   4.127
13936TIP3   OH241750   5.218   7.503   1.726
13936TIP3    H141751   5.220   7.582   1.780
13936TIP3    H241752   5.263   7.527   1.645
13937TIP3   OH241753   2.815   0.626   2.667
13937TIP3    H141754   2.895   0.575   2.652
13937TIP3    H241755   2.844   0.717   2.666
13938TIP3   OH241756   4.881   4.809   6.537
13938TIP3    H141757   4.831   4.860   6.601
13938TIP3    H241758   4.816   4.751   6.497
13939TIP3   OH241759   2.096   7.039   6.140
13939TIP3    H141760   2.155   6.965   6.152
13939TIP3    H241761   2.154   7.115   6.133
13940TIP3   OH241762   4.167   1.231   2.777
13940TIP3    H141763   4.147   1.270   2.862
13940TIP3    H241764   4.136   1.295   2.713
13941TIP3   OH241765   3.224   0.233   3.943
13941TIP3    H141766   3.132   0.231   3.915
13941TIP3    H241767   3.256   0.318   3.914
13942TIP3   OH241768   7.434   6.458   4.445
13942TIP3    H141769   7.424   6.438   4.539
13942TIP3    H241770   7.344   6.457   4.411
13943TIP3   OH241771   4.511   7.261   1.600
13943TIP3    H141772   4.482   7.216   1.680
13943TIP3    H241773   4.472   7.348   1.607
13944TIP3   OH241774   2.225   0.639   0.920
13944TIP3    H141775   2.263   0.726   0.915
13944TIP3    H241776   2.291   0.581   0.880
13945TIP3   OH241777   6.933   0.215   6.626
13945TIP3    H141778   6.843   0.192   6.648
13945TIP3    H241779   6.974   0.132   6.602
13946TIP3   OH241780   7.533   4.894   5.015
13946TIP3    H141781   7.484   4.927   5.090
13946TIP3    H241782   7.579   4.970   4.980
13947TIP3   OH241783   2.628   5.126   0.819
13947TIP3    H141784   2.587   5.153   0.737
13947TIP3    H241785   2.682   5.050   0.794
13948TIP3   OH241786   7.286   0.244   0.192
13948TIP3    H141787   7.372   0.283   0.207
13948TIP3    H241788   7.225   0.306   0.231
13949TIP3   OH241789   6.168   6.719   5.987
13949TIP3    H141790   6.089   6.715   6.041
13949TIP3    H241791   6.197   6.811   5.993
13950TIP3   OH241792   6.739   2.487   5.961
13950TIP3    H141793   6.706   2.422   5.900
13950TIP3    H241794   6.825   2.511   5.927
13951TIP3   OH241795   1.290   1.300   0.511
13951TIP3    H141796   1.256   1.216   0.540
13951TIP3    H241797   1.303   1.350   0.591
13952TIP3   OH241798   7.154   6.069   5.675
13952TIP3    H141799   7.120   6.029   5.755
13952TIP3    H241800   7.227   6.124   5.704
13953TIP3   OH241801   1.757   4.597   3.073
13953TIP3    H141802   1.722   4.593   3.162
13953TIP3    H241803   1.852   4.589   3.085
13954TIP3   OH241804   4.769   6.789   6.374
13954TIP3    H141805   4.792   6.872   6.331
13954TIP3    H241806   4.848   6.763   6.420
13955TIP3   OH241807   6.336   1.211   1.112
13955TIP3    H141808   6.361   1.136   1.166
13955TIP3    H241809   6.245   1.192   1.087
13956TIP3   OH241810   1.536   5.299   1.242
13956TIP3    H141811   1.444   5.302   1.215
13956TIP3    H241812   1.580   5.362   1.184
13957TIP3   OH241813   7.815   2.233   6.585
13957TIP3    H141814   7.774   2.154   6.621
13957TIP3    H241815   7.863   2.271   6.658
13958TIP3   OH241816   6.197   2.420   6.370
13958TIP3    H141817   6.206   2.328   6.346
13958TIP3    H241818   6.202   2.468   6.287
13959TIP3   OH241819   6.513   7.228   6.470
13959TIP3    H141820   6.480   7.310   6.507
13959TIP3    H241821   6.492   7.162   6.535
13960TIP3   OH241822   6.649   5.804   5.326
13960TIP3    H141823   6.677   5.747   5.397
13960TIP3    H241824   6.606   5.745   5.264
13961TIP3   OH241825   7.429   5.033   2.201
13961TIP3    H141826   7.515   4.994   2.217
13961TIP3    H241827   7.367   4.961   2.212
13962TIP3   OH241828   0.396   1.540   5.278
13962TIP3    H141829   0.440   1.547   5.363
13962TIP3    H241830   0.307   1.514   5.300
13963TIP3   OH241831   7.220   3.939   5.010
13963TIP3    H141832   7.243   3.879   5.082
13963TIP3    H241833   7.155   3.998   5.049
13964TIP3   OH241834   1.827   3.835   3.144
13964TIP3    H141835   1.758   3.778   3.113
13964TIP3    H241836   1.905   3.808   3.095
13965TIP3   OH241837   2.245   5.787   6.003
13965TIP3    H141838   2.189   5.728   5.952
13965TIP3    H241839   2.333   5.749   5.995
13966TIP3   OH241840   3.125   0.950   3.478
13966TIP3    H141841   3.035   0.946   3.511
13966TIP3    H241842   3.149   1.043   3.484
13967TIP3   OH241843   4.409   6.007   3.654
13967TIP3    H141844   4.488   6.055   3.631
13967TIP3    H241845   4.411   5.929   3.600
13968TIP3   OH241846   2.397   5.395   5.816
13968TIP3    H141847   2.395   5.303   5.788
13968TIP3    H241848   2.398   5.391   5.911
13969TIP3   OH241849   5.077   6.691   2.651
13969TIP3    H141850   5.065   6.777   2.610
13969TIP3    H241851   4.992   6.648   2.639
13970TIP3   OH241852   0.505   1.548   2.142
13970TIP3    H141853   0.594   1.513   2.134
13970TIP3    H241854   0.486   1.547   2.235
13971TIP3   OH241855   3.229   7.157   4.946
13971TIP3    H141856   3.148   7.206   4.929
13971TIP3    H241857   3.277   7.162   4.863
13972TIP3   OH241858   3.407   2.199   2.189
13972TIP3    H141859   3.466   2.149   2.133
13972TIP3    H241860   3.429   2.171   2.278
13973TIP3   OH241861   6.423   3.147   5.282
13973TIP3    H141862   6.397   3.092   5.208
13973TIP3    H241863   6.519   3.145   5.281
13974TIP3   OH241864   0.149   3.265   0.725
13974TIP3    H141865   0.230   3.238   0.768
13974TIP3    H241866   0.170   3.348   0.683
13975TIP3   OH241867   4.464   6.612   4.034
13975TIP3    H141868   4.412   6.634   3.957
13975TIP3    H241869   4.425   6.663   4.106
13976TIP3   OH241870   0.190   3.847   0.331
13976TIP3    H141871   0.117   3.886   0.283
13976TIP3    H241872   0.176   3.873   0.422
13977TIP3   OH241873   4.623   5.420   5.748
13977TIP3    H141874   4.659   5.498   5.704
13977TIP3    H241875   4.667   5.419   5.833
13978TIP3   OH241876   5.597   7.771   2.475
13978TIP3    H141877   5.623   7.839   2.413
13978TIP3    H241878   5.649   7.789   2.553
13979TIP3   OH241879   0.918   2.871   3.762
13979TIP3    H141880   1.007   2.864   3.729
13979TIP3    H241881   0.895   2.782   3.788
13980TIP3   OH241882   2.569   1.099   5.903
13980TIP3    H141883   2.663   1.081   5.891
13980TIP3    H241884   2.562   1.128   5.994
13981TIP3   OH241885   3.500   3.939   5.830
13981TIP3    H141886   3.533   4.009   5.772
13981TIP3    H241887   3.463   3.874   5.771
13982TIP3   OH241888   7.425   2.903   3.236
13982TIP3    H141889   7.452   2.964   3.167
13982TIP3    H241890   7.334   2.881   3.214
13983TIP3   OH241891   2.043   1.324   1.879
13983TIP3    H141892   2.129   1.346   1.845
13983TIP3    H241893   2.058   1.295   1.969
13984TIP3   OH241894   4.842   2.623   5.782
13984TIP3    H141895   4.901   2.699   5.786
13984TIP3    H241896   4.857   2.587   5.695
13985TIP3   OH241897   1.774   3.804   5.049
13985TIP3    H141898   1.798   3.812   4.957
13985TIP3    H241899   1.846   3.757   5.089
13986TIP3   OH241900   2.280   4.439   3.134
13986TIP3    H141901   2.288   4.410   3.043
13986TIP3    H241902   2.337   4.380   3.183
13987TIP3   OH241903   0.995   0.315   2.303
13987TIP3    H141904   0.978   0.329   2.209
13987TIP3    H241905   1.050   0.390   2.328
13988TIP3   OH241906   1.804   0.441   1.218
13988TIP3    H141907   1.883   0.494   1.207
13988TIP3    H241908   1.739   0.502   1.253
13989TIP3   OH241909   4.022   1.313   2.055
13989TIP3    H141910   3.966   1.377   2.010
13989TIP3    H241911   4.048   1.358   2.136
13990TIP3   OH241912   7.609   6.537   1.928
13990TIP3    H141913   7.515   6.553   1.936
13990TIP3    H241914   7.617   6.444   1.908
13991TIP3   OH241915   4.492   6.871   6.399
13991TIP3    H141916   4.446   6.796   6.359
13991TIP3    H241917   4.584   6.856   6.377
13992TIP3   OH241918   4.073   1.702   4.281
13992TIP3    H141919   3.992   1.710   4.231
13992TIP3    H241920   4.075   1.611   4.309
13993TIP3   OH241921   7.218   5.415   4.747
13993TIP3    H141922   7.237   5.507   4.731
13993TIP3    H241923   7.240   5.371   4.665
13994TIP3   OH241924   0.901   1.603   4.484
13994TIP3    H141925   0.882   1.678   4.541
13994TIP3    H241926   0.845   1.616   4.408
13995TIP3   OH241927   2.548   4.994   0.151
13995TIP3    H141928   2.470   5.048   0.165
13995TIP3    H241929   2.536   4.956   0.064
13996TIP3   OH241930   5.762   4.000   2.906
13996TIP3    H141931   5.747   4.088   2.939
13996TIP3    H241932   5.717   3.943   2.968
13997TIP3   OH241933   1.129  -0.003   3.162
13997TIP3    H141934   1.098  -0.044   3.243
13997TIP3    H241935   1.055   0.052   3.134
13998TIP3   OH241936   2.551   5.322   0.207
13998TIP3    H141937   2.488   5.364   0.266
13998TIP3    H241938   2.561   5.234   0.242
13999TIP3   OH241939   4.477   2.604   0.890
13999TIP3    H141940   4.551   2.650   0.850
13999TIP3    H241941   4.447   2.543   0.822
14000TIP3   OH241942   1.929   0.820   0.911
14000TIP3    H141943   1.849   0.770   0.924
14000TIP3    H241944   1.996   0.772   0.960
14001TIP3   OH241945   5.190   1.455   5.336
14001TIP3    H141946   5.115   1.444   5.278
14001TIP3    H241947   5.220   1.544   5.321
14002TIP3   OH241948   3.716   5.710   4.864
14002TIP3    H141949   3.763   5.663   4.795
14002TIP3    H241950   3.638   5.657   4.881
14003TIP3   OH241951   3.519   0.870   5.672
14003TIP3    H141952   3.562   0.799   5.719
14003TIP3    H241953   3.549   0.859   5.581
14004TIP3   OH241954   1.666  -0.004   3.519
14004TIP3    H141955   1.645   0.004   3.426
14004TIP3    H241956   1.650   0.083   3.554
14005TIP3   OH241957   1.706   6.130   3.295
14005TIP3    H141958   1.704   6.118   3.390
14005TIP3    H241959   1.798   6.149   3.276
14006TIP3   OH241960   0.491   2.195   3.657
14006TIP3    H141961   0.440   2.251   3.598
14006TIP3    H241962   0.518   2.253   3.728
14007TIP3   OH241963   4.940   0.694   3.249
14007TIP3    H141964   4.913   0.785   3.240
14007TIP3    H241965   4.908   0.651   3.169
14008TIP3   OH241966   2.735   5.043   3.675
14008TIP3    H141967   2.736   5.024   3.769
14008TIP3    H241968   2.676   4.977   3.637
14009TIP3   OH241969   3.885   0.270   5.477
14009TIP3    H141970   3.851   0.221   5.552
14009TIP3    H241971   3.973   0.297   5.504
14010TIP3   OH241972   4.366   1.043   2.957
14010TIP3    H141973   4.320   1.076   3.034
14010TIP3    H241974   4.351   1.109   2.890
14011TIP3   OH241975   3.977   4.479   4.342
14011TIP3    H141976   4.035   4.549   4.312
14011TIP3    H241977   4.025   4.438   4.414
14012TIP3   OH241978   3.139   0.619   1.064
14012TIP3    H141979   3.213   0.643   1.119
14012TIP3    H241980   3.178   0.602   0.978
14013TIP3   OH241981   3.445   1.473   0.677
14013TIP3    H141982   3.380   1.537   0.646
14013TIP3    H241983   3.525   1.523   0.687
14014TIP3   OH241984   3.980   2.202   4.964
14014TIP3    H141985   4.063   2.156   4.972
14014TIP3    H241986   3.932   2.155   4.896
14015TIP3   OH241987   2.586   5.953   4.893
14015TIP3    H141988   2.671   5.908   4.892
14015TIP3    H241989   2.551   5.939   4.805
14016TIP3   OH241990   3.979   5.380   3.415
14016TIP3    H141991   3.995   5.402   3.323
14016TIP3    H241992   3.887   5.401   3.429
14017TIP3   OH241993   2.691   4.104   3.113
14017TIP3    H141994   2.757   4.034   3.107
14017TIP3    H241995   2.645   4.100   3.029
14018TIP3   OH241996   2.566   3.976   2.113
14018TIP3    H141997   2.557   4.056   2.165
14018TIP3    H241998   2.624   4.001   2.041
14019TIP3   OH241999   3.280   3.536   4.592
14019TIP3    H142000   3.314   3.625   4.606
14019TIP3    H242001   3.204   3.531   4.651
14020TIP3   OH242002   6.071   7.649   4.075
14020TIP3    H142003   6.088   7.649   3.980
14020TIP3    H242004   5.987   7.606   4.085
14021TIP3   OH242005   0.458   3.472   1.282
14021TIP3    H142006   0.478   3.560   1.316
14021TIP3    H242007   0.411   3.488   1.200
14022TIP3   OH242008   5.382   6.853   5.721
14022TIP3    H142009   5.346   6.939   5.699
14022TIP3    H242010   5.307   6.794   5.716
14023TIP3   OH242011   0.770   2.133   6.152
14023TIP3    H142012   0.692   2.090   6.186
14023TIP3    H242013   0.743   2.222   6.131
14024TIP3   OH242014   5.437   3.142   3.642
14024TIP3    H142015   5.507   3.085   3.674
14024TIP3    H242016   5.373   3.082   3.605
14025TIP3   OH242017   4.978   5.513   5.560
14025TIP3    H142018   4.965   5.501   5.654
14025TIP3    H242019   4.971   5.607   5.546
14026TIP3   OH242020   0.981   7.030   4.397
14026TIP3    H142021   1.075   7.049   4.406
14026TIP3    H242022   0.941   7.073   4.472
14027TIP3   OH242023   0.413   0.038   2.109
14027TIP3    H142024   0.364   0.090   2.046
14027TIP3    H242025   0.496   0.085   2.121
14028TIP3   OH242026   4.468   3.792   3.939
14028TIP3    H142027   4.407   3.746   3.997
14028TIP3    H242028   4.436   3.772   3.850
14029TIP3   OH242029   7.185   0.094   1.489
14029TIP3    H142030   7.137   0.173   1.466
14029TIP3    H242031   7.139   0.059   1.565
14030TIP3   OH242032   1.307   2.486   2.689
14030TIP3    H142033   1.258   2.441   2.620
14030TIP3    H242034   1.246   2.492   2.763
14031TIP3   OH242035   1.417   1.150   3.889
14031TIP3    H142036   1.447   1.235   3.858
14031TIP3    H242037   1.376   1.168   3.973
14032TIP3   OH242038   4.838   1.421   0.935
14032TIP3    H142039   4.768   1.361   0.959
14032TIP3    H242040   4.813   1.454   0.849
14033TIP3   OH242041   7.428   1.974   0.283
14033TIP3    H142042   7.370   1.947   0.354
14033TIP3    H242043   7.432   2.070   0.291
14034TIP3   OH242044   7.797   7.011   4.685
14034TIP3    H142045   7.867   6.954   4.720
14034TIP3    H242046   7.767   6.965   4.606
14035TIP3   OH242047   5.620   6.047   1.712
14035TIP3    H142048   5.543   5.992   1.699
14035TIP3    H242049   5.691   5.999   1.669
14036TIP3   OH242050   5.937   7.290   5.007
14036TIP3    H142051   5.897   7.210   4.974
14036TIP3    H242052   5.981   7.263   5.088
14037TIP3   OH242053   5.636   4.899  -0.025
14037TIP3    H142054   5.678   4.815  -0.044
14037TIP3    H242055   5.580   4.881   0.050
14038TIP3   OH242056   7.858   7.299   4.001
14038TIP3    H142057   7.798   7.230   4.030
14038TIP3    H242058   7.915   7.256   3.937
14039TIP3   OH242059   6.502   1.476   4.688
14039TIP3    H142060   6.564   1.530   4.736
14039TIP3    H242061   6.556   1.412   4.643
14040TIP3   OH242062   6.726   5.200   3.415
14040TIP3    H142063   6.693   5.196   3.325
14040TIP3    H242064   6.689   5.122   3.457
14041TIP3   OH242065   3.058   3.569   4.245
14041TIP3    H142066   3.040   3.639   4.181
14041TIP3    H242067   2.994   3.583   4.314
14042TIP3   OH242068   6.347   4.869   4.318
14042TIP3    H142069   6.440   4.890   4.313
14042TIP3    H242070   6.327   4.871   4.411
14043TIP3   OH242071   2.641   4.881   2.860
14043TIP3    H142072   2.709   4.818   2.837
14043TIP3    H242073   2.634   4.874   2.955
14044TIP3   OH242074   3.767   4.366   5.272
14044TIP3    H142075   3.753   4.372   5.366
14044TIP3    H242076   3.697   4.419   5.234
14045TIP3   OH242077   1.719   5.601   4.444
14045TIP3    H142078   1.805   5.559   4.451
14045TIP3    H242079   1.694   5.622   4.534
14046TIP3   OH242080   4.485   4.165   4.797
14046TIP3    H142081   4.467   4.080   4.838
14046TIP3    H242082   4.575   4.186   4.825
14047TIP3   OH242083   6.116   4.248   3.372
14047TIP3    H142084   6.142   4.159   3.345
14047TIP3    H242085   6.065   4.234   3.452
14048TIP3   OH242086   0.005   5.566   2.057
14048TIP3    H142087   0.048   5.585   1.974
14048TIP3    H242088   0.071   5.585   2.123
14049TIP3   OH242089   8.168   5.908   3.105
14049TIP3    H142090   8.147   5.886   3.015
14049TIP3    H242091   8.191   5.824   3.145
14050TIP3   OH242092   7.913   6.826   5.665
14050TIP3    H142093   7.913   6.768   5.740
14050TIP3    H242094   7.901   6.769   5.589
14051TIP3   OH242095   4.164   2.392   6.033
14051TIP3    H142096   4.237   2.330   6.034
14051TIP3    H242097   4.103   2.359   6.099
14052TIP3   OH242098   0.125   0.458   5.850
14052TIP3    H142099   0.089   0.441   5.937
14052TIP3    H242100   0.213   0.420   5.853
14053TIP3   OH242101   3.602   0.096   0.534
14053TIP3    H142102   3.610   0.077   0.628
14053TIP3    H242103   3.554   0.021   0.499
14054TIP3   OH242104   3.274   2.788   0.742
14054TIP3    H142105   3.266   2.713   0.800
14054TIP3    H242106   3.223   2.765   0.664
14055TIP3   OH242107   1.197   5.341   1.664
14055TIP3    H142108   1.280   5.299   1.642
14055TIP3    H242109   1.135   5.268   1.669
14056TIP3   OH242110   7.374   4.983   4.160
14056TIP3    H142111   7.431   4.956   4.231
14056TIP3    H242112   7.293   4.933   4.174
14057TIP3   OH242113   5.161   7.693   0.911
14057TIP3    H142114   5.080   7.743   0.899
14057TIP3    H242115   5.231   7.758   0.898
14058TIP3   OH242116   3.752   4.712   0.477
14058TIP3    H142117   3.721   4.716   0.567
14058TIP3    H242118   3.803   4.631   0.472
14059TIP3   OH242119   0.237   6.068   6.098
14059TIP3    H142120   0.236   6.136   6.030
14059TIP3    H242121   0.222   6.116   6.179
14060TIP3   OH242122   6.382   2.419   5.164
14060TIP3    H142123   6.417   2.389   5.248
14060TIP3    H242124   6.352   2.508   5.182
14061TIP3   OH242125   3.906   5.306   0.729
14061TIP3    H142126   3.830   5.331   0.780
14061TIP3    H242127   3.883   5.328   0.639
14062TIP3   OH242128   8.117   5.038   0.489
14062TIP3    H142129   8.169   4.965   0.453
14062TIP3    H242130   8.177   5.113   0.486
14063TIP3   OH242131   6.292   4.585   4.380
14063TIP3    H142132   6.285   4.679   4.364
14063TIP3    H242133   6.385   4.566   4.370
14064TIP3   OH242134   2.858   5.189   2.943
14064TIP3    H142135   2.790   5.152   2.999
14064TIP3    H242136   2.939   5.173   2.990
14065TIP3   OH242137   4.185   3.590   0.963
14065TIP3    H142138   4.261   3.577   1.020
14065TIP3    H242139   4.208   3.666   0.909
14066TIP3   OH242140   8.278   5.063  -0.012
14066TIP3    H142141   8.305   4.999   0.053
14066TIP3    H242142   8.183   5.054  -0.018
14067TIP3   OH242143   7.720   2.558   5.674
14067TIP3    H142144   7.670   2.477   5.680
14067TIP3    H242145   7.781   2.554   5.747
14068TIP3   OH242146   1.332   7.846   3.300
14068TIP3    H142147   1.247   7.804   3.308
14068TIP3    H242148   1.391   7.792   3.353
14069TIP3   OH242149   2.191   7.000   1.690
14069TIP3    H142150   2.284   6.984   1.671
14069TIP3    H242151   2.188   7.093   1.713
14070TIP3   OH242152   3.845   0.280   4.691
14070TIP3    H142153   3.807   0.279   4.779
14070TIP3    H242154   3.937   0.301   4.705
14071TIP3   OH242155   6.048   1.101   3.123
14071TIP3    H142156   6.047   1.103   3.219
14071TIP3    H242157   6.052   1.008   3.100
14072TIP3   OH242158   6.492   1.411   3.340
14072TIP3    H142159   6.544   1.361   3.277
14072TIP3    H242160   6.411   1.361   3.349
14073TIP3   OH242161   6.279   4.068   0.191
14073TIP3    H142162   6.371   4.068   0.162
14073TIP3    H242163   6.271   3.990   0.244
14074TIP3   OH242164   7.180   6.987   6.404
14074TIP3    H142165   7.129   7.043   6.346
14074TIP3    H242166   7.263   6.973   6.358
14075TIP3   OH242167   3.029   5.126   3.889
14075TIP3    H142168   2.946   5.120   3.938
14075TIP3    H242169   3.012   5.192   3.822
14076TIP3   OH242170   2.069   4.850   3.460
14076TIP3    H142171   2.061   4.933   3.507
14076TIP3    H242172   2.155   4.816   3.485
14077TIP3   OH242173   0.118   6.484   5.732
14077TIP3    H142174   0.170   6.433   5.794
14077TIP3    H242175   0.174   6.558   5.708
14078TIP3   OH242176   1.310   1.732   3.078
14078TIP3    H142177   1.267   1.668   3.021
14078TIP3    H242178   1.251   1.807   3.080
14079TIP3   OH242179   1.687   4.046   1.654
14079TIP3    H142180   1.768   4.065   1.701
14079TIP3    H242181   1.671   4.123   1.600
14080TIP3   OH242182   2.092   3.489   1.449
14080TIP3    H142183   2.099   3.417   1.387
14080TIP3    H242184   2.179   3.528   1.450
14081TIP3   OH242185   4.290   4.975   0.585
14081TIP3    H142186   4.346   4.957   0.510
14081TIP3    H242187   4.205   4.940   0.560
14082TIP3   OH242188   2.136   7.413   2.646
14082TIP3    H142189   2.052   7.459   2.643
14082TIP3    H242190   2.170   7.421   2.556
14083TIP3   OH242191   7.550   0.697   0.774
14083TIP3    H142192   7.560   0.776   0.720
14083TIP3    H242193   7.505   0.635   0.716
14084TIP3   OH242194   7.008   1.230   1.262
14084TIP3    H142195   6.960   1.224   1.179
14084TIP3    H242196   7.085   1.174   1.249
14085TIP3   OH242197   1.657   1.478   3.922
14085TIP3    H142198   1.742   1.484   3.966
14085TIP3    H242199   1.619   1.566   3.930
14086TIP3   OH242200   0.069   5.729   0.599
14086TIP3    H142201   0.158   5.733   0.635
14086TIP3    H242202   0.036   5.818   0.607
14087TIP3   OH242203   5.965   7.123   2.159
14087TIP3    H142204   5.954   7.161   2.246
14087TIP3    H242205   5.909   7.046   2.160
14088TIP3   OH242206   8.181   3.578   4.103
14088TIP3    H142207   8.246   3.558   4.170
14088TIP3    H242208   8.110   3.516   4.119
14089TIP3   OH242209   4.336   7.050   5.746
14089TIP3    H142210   4.429   7.058   5.728
14089TIP3    H242211   4.316   7.122   5.806
14090TIP3   OH242212   2.069   3.474   4.665
14090TIP3    H142213   2.128   3.534   4.620
14090TIP3    H242214   1.982   3.497   4.633
14091TIP3   OH242215   1.388   6.383   5.832
14091TIP3    H142216   1.387   6.478   5.828
14091TIP3    H242217   1.422   6.355   5.747
14092TIP3   OH242218   7.665   1.426   0.308
14092TIP3    H142219   7.647   1.517   0.283
14092TIP3    H242220   7.585   1.379   0.288
14093TIP3   OH242221   1.617   7.654   4.631
14093TIP3    H142222   1.710   7.679   4.635
14093TIP3    H242223   1.618   7.561   4.611
14094TIP3   OH242224   7.056   3.115   6.692
14094TIP3    H142225   7.126   3.051   6.680
14094TIP3    H242226   7.018   3.094   6.777
14095TIP3   OH242227   4.499   7.332   4.712
14095TIP3    H142228   4.525   7.414   4.671
14095TIP3    H242229   4.549   7.265   4.666
14096TIP3   OH242230   0.994   4.997   0.609
14096TIP3    H142231   0.984   4.994   0.704
14096TIP3    H242232   0.912   4.961   0.575
14097TIP3   OH242233   2.723   6.730   1.676
14097TIP3    H142234   2.729   6.817   1.637
14097TIP3    H242235   2.646   6.734   1.733
14098TIP3   OH242236   3.221   4.681   4.156
14098TIP3    H142237   3.236   4.642   4.242
14098TIP3    H242238   3.172   4.614   4.108
14099TIP3   OH242239   5.009   1.028   5.828
14099TIP3    H142240   5.075   1.084   5.869
14099TIP3    H242241   4.954   0.998   5.900
14100TIP3   OH242242   1.809   7.689   4.977
14100TIP3    H142243   1.840   7.664   4.890
14100TIP3    H242244   1.747   7.620   5.001
14101TIP3   OH242245   5.581   6.827   0.822
14101TIP3    H142246   5.548   6.794   0.738
14101TIP3    H242247   5.512   6.806   0.885
14102TIP3   OH242248   2.322   1.082   2.391
14102TIP3    H142249   2.380   1.011   2.419
14102TIP3    H242250   2.267   1.100   2.467
14103TIP3   OH242251   4.318   7.051   1.394
14103TIP3    H142252   4.352   7.138   1.373
14103TIP3    H242253   4.335   7.041   1.488
14104TIP3   OH242254   2.645   2.727   3.330
14104TIP3    H142255   2.717   2.714   3.392
14104TIP3    H242256   2.671   2.803   3.279
14105TIP3   OH242257   7.526   6.927   1.186
14105TIP3    H142258   7.445   6.876   1.194
14105TIP3    H242259   7.542   6.962   1.274
14106TIP3   OH242260   2.107   2.885   0.380
14106TIP3    H142261   2.055   2.912   0.305
14106TIP3    H242262   2.056   2.912   0.456
14107TIP3   OH242263   0.954   6.930   1.547
14107TIP3    H142264   0.870   6.911   1.507
14107TIP3    H242265   0.987   7.007   1.499
14108TIP3   OH242266   2.748   7.697   1.933
14108TIP3    H142267   2.835   7.727   1.958
14108TIP3    H242268   2.716   7.650   2.010
14109TIP3   OH242269   2.214   6.054   5.962
14109TIP3    H142270   2.199   5.959   5.969
14109TIP3    H242271   2.308   6.062   5.948
14110TIP3   OH242272   7.581   4.149   1.153
14110TIP3    H142273   7.633   4.101   1.217
14110TIP3    H242274   7.608   4.114   1.068
14111TIP3   OH242275   6.169   4.644   6.258
14111TIP3    H142276   6.125   4.595   6.327
14111TIP3    H242277   6.259   4.611   6.258
14112TIP3   OH242278   7.039   2.551   3.076
14112TIP3    H142279   7.072   2.634   3.111
14112TIP3    H242280   7.066   2.551   2.984
14113TIP3   OH242281   7.105   2.571   0.825
14113TIP3    H142282   7.092   2.643   0.763
14113TIP3    H242283   7.174   2.602   0.884
14114TIP3   OH242284   7.238   1.327   5.294
14114TIP3    H142285   7.267   1.271   5.221
14114TIP3    H242286   7.302   1.398   5.295
14115TIP3   OH242287   0.880   3.195   0.511
14115TIP3    H142288   0.873   3.280   0.468
14115TIP3    H242289   0.805   3.191   0.570
14116TIP3   OH242290   1.530   3.499   1.821
14116TIP3    H142291   1.571   3.443   1.754
14116TIP3    H242292   1.439   3.509   1.793
14117TIP3   OH242293   0.012   0.939   5.585
14117TIP3    H142294   0.006   0.903   5.673
14117TIP3    H242295   0.032   0.863   5.530
14118TIP3   OH242296   4.645   3.891   5.394
14118TIP3    H142297   4.734   3.899   5.429
14118TIP3    H242298   4.588   3.898   5.471
14119TIP3   OH242299   7.899   6.006   1.070
14119TIP3    H142300   7.853   5.927   1.041
14119TIP3    H242301   7.841   6.078   1.047
14120TIP3   OH242302   1.150   5.308   5.532
14120TIP3    H142303   1.204   5.331   5.457
14120TIP3    H242304   1.118   5.392   5.565
14121TIP3   OH242305   6.190   6.860   2.995
14121TIP3    H142306   6.279   6.839   3.024
14121TIP3    H242307   6.178   6.807   2.916
14122TIP3   OH242308   4.972   3.922   5.872
14122TIP3    H142309   5.058   3.948   5.838
14122TIP3    H242310   4.981   3.929   5.967
14123TIP3   OH242311   1.129   2.386   5.282
14123TIP3    H142312   1.186   2.310   5.269
14123TIP3    H242313   1.075   2.363   5.358
14124TIP3   OH242314   0.448   3.715   1.713
14124TIP3    H142315   0.495   3.796   1.734
14124TIP3    H242316   0.419   3.727   1.622
14125TIP3   OH242317   4.532   1.486   0.091
14125TIP3    H142318   4.476   1.468   0.166
14125TIP3    H242319   4.541   1.403   0.046
14126TIP3   OH242320   6.289   2.099   0.603
14126TIP3    H142321   6.217   2.153   0.571
14126TIP3    H242322   6.344   2.158   0.654
14127TIP3   OH242323   2.533   4.630   5.710
14127TIP3    H142324   2.488   4.592   5.634
14127TIP3    H242325   2.565   4.714   5.680
14128TIP3   OH242326   7.373   4.690   2.020
14128TIP3    H142327   7.465   4.711   2.002
14128TIP3    H242328   7.355   4.731   2.104
14129TIP3   OH242329   7.059   7.457   6.223
14129TIP3    H142330   7.013   7.409   6.154
14129TIP3    H242331   7.011   7.436   6.303
14130TIP3   OH242332   1.306   0.083   5.871
14130TIP3    H142333   1.331   0.080   5.963
14130TIP3    H242334   1.356   0.012   5.830
14131TIP3   OH242335   0.903   3.785   6.037
14131TIP3    H142336   0.888   3.879   6.033
14131TIP3    H242337   0.971   3.774   6.103
14132TIP3   OH242338   2.790   7.074   0.867
14132TIP3    H142339   2.872   7.074   0.818
14132TIP3    H242340   2.751   7.160   0.848
14133TIP3   OH242341   3.561   7.671   2.261
14133TIP3    H142342   3.549   7.705   2.172
14133TIP3    H242343   3.626   7.730   2.301
14134TIP3   OH242344   4.535   5.921   2.395
14134TIP3    H142345   4.553   5.929   2.301
14134TIP3    H242346   4.593   5.851   2.425
14135TIP3   OH242347   5.503   3.141   2.407
14135TIP3    H142348   5.485   3.203   2.336
14135TIP3    H242349   5.445   3.168   2.478
14136TIP3   OH242350   2.100   5.251   2.109
14136TIP3    H142351   2.021   5.303   2.118
14136TIP3    H242352   2.147   5.263   2.192
14137TIP3   OH242353   0.123   2.109   3.521
14137TIP3    H142354   0.145   2.097   3.613
14137TIP3    H242355   0.194   2.165   3.487
14138TIP3   OH242356   6.095   7.356   2.514
14138TIP3    H142357   6.109   7.399   2.429
14138TIP3    H242358   6.139   7.271   2.505
14139TIP3   OH242359   0.074   7.736   1.671
14139TIP3    H142360  -0.020   7.747   1.686
14139TIP3    H242361   0.088   7.642   1.666
14140TIP3   OH242362   7.383   0.072   4.154
14140TIP3    H142363   7.449   0.119   4.204
14140TIP3    H242364   7.386  -0.018   4.188
14141TIP3   OH242365   6.856   6.873   2.653
14141TIP3    H142366   6.914   6.941   2.619
14141TIP3    H242367   6.774   6.886   2.606
14142TIP3   OH242368   7.497   7.686   0.375
14142TIP3    H142369   7.557   7.722   0.441
14142TIP3    H242370   7.527   7.596   0.362
14143TIP3   OH242371   5.229   5.583   1.182
14143TIP3    H142372   5.137   5.610   1.187
14143TIP3    H242373   5.250   5.586   1.088
14144TIP3   OH242374   4.636   7.159   4.551
14144TIP3    H142375   4.698   7.088   4.566
14144TIP3    H242376   4.594   7.136   4.468
14145TIP3   OH242377   1.183   4.151   0.989
14145TIP3    H142378   1.226   4.226   1.029
14145TIP3    H242379   1.224   4.075   1.030
14146TIP3   OH242380   0.228   5.561   5.608
14146TIP3    H142381   0.234   5.466   5.615
14146TIP3    H242382   0.209   5.577   5.515
14147TIP3   OH242383   6.912   1.411   2.781
14147TIP3    H142384   6.920   1.431   2.688
14147TIP3    H242385   6.831   1.360   2.788
14148TIP3   OH242386   1.051   5.854   0.608
14148TIP3    H142387   0.985   5.823   0.670
14148TIP3    H242388   1.133   5.812   0.638
14149TIP3   OH242389   1.170   2.597   1.146
14149TIP3    H142390   1.203   2.679   1.110
14149TIP3    H242391   1.243   2.562   1.197
14150TIP3   OH242392   0.884   2.064   3.132
14150TIP3    H142393   0.823   2.118   3.081
14150TIP3    H242394   0.868   2.089   3.223
14151TIP3   OH242395   3.277   2.922   5.606
14151TIP3    H142396   3.301   2.963   5.523
14151TIP3    H242397   3.228   2.845   5.581
14152TIP3   OH242398   6.134   6.457   3.053
14152TIP3    H142399   6.146   6.514   2.978
14152TIP3    H242400   6.073   6.389   3.023
14153TIP3   OH242401   0.516   5.513   2.712
14153TIP3    H142402   0.531   5.607   2.724
14153TIP3    H242403   0.429   5.507   2.672
14154TIP3   OH242404   2.721   0.058   5.515
14154TIP3    H142405   2.628   0.037   5.513
14154TIP3    H242406   2.758   0.012   5.440
14155TIP3   OH242407   4.862   3.538   2.327
14155TIP3    H142408   4.869   3.517   2.234
14155TIP3    H242409   4.878   3.455   2.372
14156TIP3   OH242410   6.150   7.815   5.219
14156TIP3    H142411   6.113   7.728   5.234
14156TIP3    H242412   6.192   7.838   5.301
14157TIP3   OH242413   6.789   7.613   1.139
14157TIP3    H142414   6.856   7.557   1.100
14157TIP3    H242415   6.801   7.602   1.234
14158TIP3   OH242416   7.668   2.246   3.336
14158TIP3    H142417   7.715   2.197   3.269
14158TIP3    H242418   7.700   2.210   3.419
14159TIP3   OH242419   0.168   5.298   5.602
14159TIP3    H142420   0.102   5.280   5.669
14159TIP3    H242421   0.220   5.218   5.598
14160TIP3   OH242422   5.447   1.110   4.082
14160TIP3    H142423   5.384   1.163   4.032
14160TIP3    H242424   5.395   1.039   4.118
14161TIP3   OH242425   5.401   6.557   4.615
14161TIP3    H142426   5.344   6.611   4.559
14161TIP3    H242427   5.359   6.471   4.616
14162TIP3   OH242428   5.713   0.932   2.836
14162TIP3    H142429   5.744   0.984   2.761
14162TIP3    H242430   5.791   0.922   2.891
14163TIP3   OH242431   3.761   0.565   4.745
14163TIP3    H142432   3.775   0.495   4.808
14163TIP3    H242433   3.666   0.567   4.731
14164TIP3   OH242434   4.260   7.448   0.665
14164TIP3    H142435   4.334   7.508   0.662
14164TIP3    H242436   4.294   7.366   0.630
14165TIP3   OH242437   4.417   4.944   5.295
14165TIP3    H142438   4.333   4.989   5.282
14165TIP3    H242439   4.452   4.933   5.207
14166TIP3   OH242440   1.107   3.376   2.381
14166TIP3    H142441   1.161   3.434   2.435
14166TIP3    H242442   1.027   3.364   2.431
14167TIP3   OH242443   5.191   1.081   3.578
14167TIP3    H142444   5.228   0.994   3.593
14167TIP3    H242445   5.127   1.069   3.508
14168TIP3   OH242446   7.720   2.743   6.433
14168TIP3    H142447   7.755   2.707   6.352
14168TIP3    H242448   7.796   2.755   6.490
14169TIP3   OH242449   3.027   7.660   3.684
14169TIP3    H142450   3.067   7.603   3.618
14169TIP3    H242451   3.048   7.749   3.657
14170TIP3   OH242452   7.220   3.596   3.167
14170TIP3    H142453   7.187   3.598   3.257
14170TIP3    H242454   7.198   3.682   3.132
14171TIP3   OH242455   1.167   2.509   1.523
14171TIP3    H142456   1.197   2.428   1.564
14171TIP3    H242457   1.232   2.525   1.453
14172TIP3   OH242458   1.031   7.806   3.306
14172TIP3    H142459   0.946   7.820   3.264
14172TIP3    H242460   1.016   7.828   3.398
14173TIP3   OH242461   2.328   7.176   2.365
14173TIP3    H142462   2.417   7.207   2.385
14173TIP3    H242463   2.276   7.256   2.361
14174TIP3   OH242464   0.609   0.674   1.784
14174TIP3    H142465   0.587   0.688   1.876
14174TIP3    H242466   0.546   0.609   1.753
14175TIP3   OH242467   0.306   7.424   5.821
14175TIP3    H142468   0.318   7.472   5.739
14175TIP3    H242469   0.296   7.493   5.887
14176TIP3   OH242470   4.658   1.159   1.988
14176TIP3    H142471   4.641   1.145   2.081
14176TIP3    H242472   4.603   1.093   1.944
14177TIP3   OH242473   8.183   7.312   5.026
14177TIP3    H142474   8.185   7.396   5.073
14177TIP3    H242475   8.253   7.261   5.065
14178TIP3   OH242476   4.621   6.861   5.449
14178TIP3    H142477   4.598   6.770   5.468
14178TIP3    H242478   4.626   6.903   5.534
14179TIP3   OH242479   5.088   5.406   1.891
14179TIP3    H142480   5.033   5.348   1.944
14179TIP3    H242481   5.129   5.348   1.827
14180TIP3   OH242482   5.681   0.778   1.977
14180TIP3    H142483   5.686   0.873   1.963
14180TIP3    H242484   5.663   0.769   2.070
14181TIP3   OH242485   2.641   7.498   4.501
14181TIP3    H142486   2.693   7.524   4.425
14181TIP3    H242487   2.635   7.578   4.554
14182TIP3   OH242488   2.909   2.751   5.586
14182TIP3    H142489   3.004   2.750   5.601
14182TIP3    H242490   2.890   2.840   5.557
14183TIP3   OH242491   5.122   6.363   5.812
14183TIP3    H142492   5.166   6.340   5.894
14183TIP3    H242493   5.030   6.374   5.837
14184TIP3   OH242494   4.157   2.597   6.549
14184TIP3    H142495   4.162   2.540   6.626
14184TIP3    H242496   4.218   2.558   6.486
14185TIP3   OH242497   7.427   0.251   0.594
14185TIP3    H142498   7.478   0.224   0.518
14185TIP3    H242499   7.377   0.174   0.618
14186TIP3   OH242500   3.037   4.035   3.197
14186TIP3    H142501   3.120   3.987   3.193
14186TIP3    H242502   2.976   3.973   3.236
14187TIP3   OH242503   4.288   5.878   0.399
14187TIP3    H142504   4.306   5.969   0.376
14187TIP3    H242505   4.299   5.829   0.318
14188TIP3   OH242506   4.016   2.683   3.414
14188TIP3    H142507   4.060   2.765   3.391
14188TIP3    H242508   4.017   2.632   3.333
14189TIP3   OH242509   5.827   0.117   2.141
14189TIP3    H142510   5.887   0.048   2.170
14189TIP3    H242511   5.820   0.176   2.216
14190TIP3   OH242512   5.595   4.141   1.593
14190TIP3    H142513   5.655   4.216   1.595
14190TIP3    H242514   5.540   4.152   1.671
14191TIP3   OH242515   5.640   5.306   4.619
14191TIP3    H142516   5.710   5.316   4.555
14191TIP3    H242517   5.563   5.344   4.576
14192TIP3   OH242518   7.988   5.351   2.985
14192TIP3    H142519   7.936   5.430   2.970
14192TIP3    H242520   7.958   5.319   3.070
14193TIP3   OH242521   6.845   1.226   0.869
14193TIP3    H142522   6.801   1.216   0.953
14193TIP3    H242523   6.932   1.190   0.883
14194TIP3   OH242524   3.347   2.726   4.367
14194TIP3    H142525   3.434   2.702   4.399
14194TIP3    H242526   3.311   2.645   4.330
14195TIP3   OH242527   7.629   2.250   2.373
14195TIP3    H142528   7.708   2.265   2.425
14195TIP3    H242529   7.651   2.175   2.318
14196TIP3   OH242530   5.899   3.729   0.924
14196TIP3    H142531   5.863   3.665   0.863
14196TIP3    H242532   5.962   3.680   0.976
14197TIP3   OH242533   1.196   6.596   6.237
14197TIP3    H142534   1.204   6.510   6.195
14197TIP3    H242535   1.202   6.659   6.166
14198TIP3   OH242536   4.070   5.388   1.603
14198TIP3    H142537   4.019   5.434   1.535
14198TIP3    H242538   4.019   5.400   1.683
14199TIP3   OH242539   1.885   3.161   5.831
14199TIP3    H142540   1.835   3.240   5.808
14199TIP3    H242541   1.863   3.145   5.923
14200TIP3   OH242542   0.219   7.316   2.314
14200TIP3    H142543   0.142   7.320   2.370
14200TIP3    H242544   0.187   7.275   2.233
14201TIP3   OH242545   4.389   1.076   4.169
14201TIP3    H142546   4.327   1.012   4.204
14201TIP3    H242547   4.456   1.023   4.126
14202TIP3   OH242548   4.880   0.557   4.284
14202TIP3    H142549   4.801   0.530   4.236
14202TIP3    H242550   4.950   0.555   4.219
14203TIP3   OH242551   3.156   6.119   0.507
14203TIP3    H142552   3.098   6.188   0.474
14203TIP3    H242553   3.243   6.146   0.478
14204TIP3   OH242554   7.869   5.045   1.768
14204TIP3    H142555   7.890   5.078   1.856
14204TIP3    H242556   7.874   5.122   1.712
14205TIP3   OH242557   0.333   4.192   0.908
14205TIP3    H142558   0.417   4.163   0.943
14205TIP3    H242559   0.276   4.116   0.918
14206TIP3   OH242560   5.175   6.895   5.016
14206TIP3    H142561   5.269   6.894   4.996
14206TIP3    H242562   5.133   6.863   4.937
14207TIP3   OH242563   5.111   2.884   2.180
14207TIP3    H142564   5.081   2.795   2.162
14207TIP3    H242565   5.131   2.884   2.274
14208TIP3   OH242566   4.010   4.140   2.691
14208TIP3    H142567   4.026   4.183   2.775
14208TIP3    H242568   3.992   4.212   2.630
14209TIP3   OH242569   1.081   1.818   0.016
14209TIP3    H142570   1.043   1.882   0.077
14209TIP3    H242571   1.060   1.733   0.055
14210TIP3   OH242572   3.504   5.230   4.769
14210TIP3    H142573   3.483   5.198   4.681
14210TIP3    H242574   3.420   5.259   4.805
14211TIP3   OH242575   3.728   5.572   0.089
14211TIP3    H142576   3.822   5.580   0.072
14211TIP3    H242577   3.705   5.653   0.135
14212TIP3   OH242578   1.657   3.723   0.783
14212TIP3    H142579   1.731   3.664   0.796
14212TIP3    H242580   1.614   3.726   0.869
14213TIP3   OH242581   2.911   2.348   6.666
14213TIP3    H142582   2.850   2.277   6.686
14213TIP3    H242583   2.874   2.424   6.710
14214TIP3   OH242584   2.169   0.819   1.153
14214TIP3    H142585   2.206   0.879   1.218
14214TIP3    H242586   2.228   0.827   1.077
14215TIP3   OH242587   4.129   2.397   2.791
14215TIP3    H142588   4.122   2.491   2.804
14215TIP3    H242589   4.205   2.386   2.735
14216TIP3   OH242590   1.342   2.332   4.417
14216TIP3    H142591   1.333   2.282   4.336
14216TIP3    H242592   1.385   2.413   4.389
14217TIP3   OH242593   7.581   3.658   6.436
14217TIP3    H142594   7.497   3.660   6.390
14217TIP3    H242595   7.559   3.633   6.526
14218TIP3   OH242596   2.560   3.465   4.523
14218TIP3    H142597   2.549   3.420   4.607
14218TIP3    H242598   2.610   3.544   4.545
14219TIP3   OH242599   3.550   6.658   3.741
14219TIP3    H142600   3.542   6.611   3.658
14219TIP3    H242601   3.643   6.655   3.762
14220TIP3   OH242602   5.065   3.912   0.892
14220TIP3    H142603   5.017   3.831   0.910
14220TIP3    H242604   5.117   3.927   0.971
14221TIP3   OH242605   8.176   0.689   1.496
14221TIP3    H142606   8.237   0.763   1.492
14221TIP3    H242607   8.216   0.622   1.441
14222TIP3   OH242608   2.522   7.086   6.215
14222TIP3    H142609   2.512   6.996   6.244
14222TIP3    H242610   2.485   7.139   6.286
14223TIP3   OH242611   6.177   0.777   4.772
14223TIP3    H142612   6.098   0.747   4.817
14223TIP3    H242613   6.169   0.740   4.684
14224TIP3   OH242614   2.601   5.408   2.100
14224TIP3    H142615   2.607   5.320   2.135
14224TIP3    H242616   2.578   5.396   2.008
14225TIP3   OH242617   2.131   6.438   1.622
14225TIP3    H142618   2.106   6.351   1.654
14225TIP3    H242619   2.136   6.427   1.527
14226TIP3   OH242620   6.908   2.153   3.403
14226TIP3    H142621   6.866   2.090   3.345
14226TIP3    H242622   6.859   2.146   3.485
14227TIP3   OH242623   2.920   4.197   2.025
14227TIP3    H142624   2.986   4.193   1.956
14227TIP3    H242625   2.844   4.153   1.989
14228TIP3   OH242626   4.699   5.734   2.501
14228TIP3    H142627   4.770   5.774   2.551
14228TIP3    H242628   4.685   5.649   2.542
14229TIP3   OH242629   1.818   6.543   5.791
14229TIP3    H142630   1.765   6.565   5.714
14229TIP3    H242631   1.759   6.494   5.847
14230TIP3   OH242632   8.266   3.981   4.324
14230TIP3    H142633   8.170   3.976   4.323
14230TIP3    H242634   8.294   3.898   4.363
14231TIP3   OH242635   7.218   1.015   1.241
14231TIP3    H142636   7.287   1.059   1.190
14231TIP3    H242637   7.194   0.939   1.188
14232TIP3   OH242638   0.349   5.017   6.477
14232TIP3    H142639   0.396   4.963   6.414
14232TIP3    H242640   0.259   4.986   6.474
14233TIP3   OH242641   4.931   4.835   2.191
14233TIP3    H142642   4.930   4.909   2.252
14233TIP3    H242643   4.900   4.872   2.109
14234TIP3   OH242644   0.812   0.330   0.643
14234TIP3    H142645   0.769   0.245   0.637
14234TIP3    H242646   0.749   0.386   0.687
14235TIP3   OH242647   6.554   4.380   5.876
14235TIP3    H142648   6.477   4.432   5.901
14235TIP3    H242649   6.593   4.355   5.960
14236TIP3   OH242650   0.741   2.619   2.672
14236TIP3    H142651   0.816   2.646   2.620
14236TIP3    H242652   0.665   2.636   2.616
14237TIP3   OH242653   6.297   7.542   6.340
14237TIP3    H142654   6.243   7.619   6.361
14237TIP3    H242655   6.322   7.507   6.426
14238TIP3   OH242656   3.208   7.205   6.264
14238TIP3    H142657   3.237   7.150   6.192
14238TIP3    H242658   3.160   7.146   6.322
14239TIP3   OH242659   6.118   0.088   1.579
14239TIP3    H142660   6.076   0.021   1.633
14239TIP3    H242661   6.174   0.040   1.519
14240TIP3   OH242662   7.718   0.797   1.585
14240TIP3    H142663   7.807   0.816   1.614
14240TIP3    H242664   7.666   0.796   1.665
14241TIP3   OH242665   3.989   0.018   5.200
14241TIP3    H142666   3.960   0.074   5.128
14241TIP3    H242667   4.082   0.003   5.183
14242TIP3   OH242668   2.723   6.361   0.761
14242TIP3    H142669   2.697   6.352   0.669
14242TIP3    H242670   2.814   6.333   0.763
14243TIP3   OH242671   6.887   0.791   2.647
14243TIP3    H142672   6.964   0.842   2.673
14243TIP3    H242673   6.825   0.802   2.720
14244TIP3   OH242674   7.315   1.837   1.847
14244TIP3    H142675   7.243   1.860   1.790
14244TIP3    H242676   7.324   1.912   1.906
14245TIP3   OH242677   6.006   5.633   4.564
14245TIP3    H142678   6.059   5.555   4.549
14245TIP3    H242679   6.063   5.691   4.615
14246TIP3   OH242680   5.224   4.553   2.596
14246TIP3    H142681   5.174   4.629   2.564
14246TIP3    H242682   5.234   4.568   2.690
14247TIP3   OH242683   3.871   4.097   2.260
14247TIP3    H142684   3.941   4.109   2.324
14247TIP3    H242685   3.903   4.140   2.180
14248TIP3   OH242686   3.162   6.653   5.521
14248TIP3    H142687   3.199   6.717   5.582
14248TIP3    H242688   3.228   6.644   5.453
14249TIP3   OH242689   3.725   4.269   2.426
14249TIP3    H142690   3.808   4.313   2.442
14249TIP3    H242691   3.748   4.192   2.374
14250TIP3   OH242692   0.853   1.843   4.068
14250TIP3    H142693   0.942   1.832   4.103
14250TIP3    H242694   0.803   1.874   4.144
14251TIP3   OH242695   1.167   3.084   3.059
14251TIP3    H142696   1.143   3.132   3.139
14251TIP3    H242697   1.174   3.152   2.992
14252TIP3   OH242698   7.066   0.055   5.497
14252TIP3    H142699   7.123   0.106   5.440
14252TIP3    H242700   6.977   0.078   5.468
14253TIP3   OH242701   4.613   2.590   5.559
14253TIP3    H142702   4.687   2.538   5.591
14253TIP3    H242703   4.574   2.536   5.490
14254TIP3   OH242704   6.467   3.467   4.832
14254TIP3    H142705   6.527   3.415   4.779
14254TIP3    H242706   6.409   3.403   4.873
14255TIP3   OH242707   3.271   3.948   1.929
14255TIP3    H142708   3.207   4.010   1.895
14255TIP3    H242709   3.351   3.965   1.879
14256TIP3   OH242710   4.476   7.628   2.806
14256TIP3    H142711   4.520   7.680   2.738
14256TIP3    H242712   4.545   7.574   2.843
14257TIP3   OH242713   2.929   4.973   2.573
14257TIP3    H142714   2.870   5.032   2.619
14257TIP3    H242715   2.879   4.892   2.562
14258TIP3   OH242716   2.300   6.027   6.684
14258TIP3    H142717   2.234   6.089   6.653
14258TIP3    H242718   2.277   6.010   6.775
14259TIP3   OH242719   5.680   7.190   5.165
14259TIP3    H142720   5.749   7.150   5.112
14259TIP3    H242721   5.621   7.117   5.186
14260TIP3   OH242722   5.755   6.747   5.941
14260TIP3    H142723   5.837   6.709   5.909
14260TIP3    H242724   5.687   6.700   5.893
14261TIP3   OH242725   3.948   5.846   1.673
14261TIP3    H142726   3.929   5.833   1.580
14261TIP3    H242727   3.890   5.918   1.699
14262TIP3   OH242728   5.714   1.464   2.303
14262TIP3    H142729   5.775   1.516   2.250
14262TIP3    H242730   5.711   1.509   2.388
14263TIP3   OH242731   5.037   1.782   0.594
14263TIP3    H142732   5.098   1.733   0.539
14263TIP3    H242733   5.072   1.773   0.683
14264TIP3   OH242734   7.847   4.785   1.665
14264TIP3    H142735   7.771   4.775   1.607
14264TIP3    H242736   7.837   4.874   1.701
14265TIP3   OH242737   1.442   0.590   6.539
14265TIP3    H142738   1.370   0.648   6.565
14265TIP3    H242739   1.453   0.531   6.614
14266TIP3   OH242740   7.420   6.845   3.362
14266TIP3    H142741   7.501   6.834   3.312
14266TIP3    H242742   7.439   6.804   3.447
14267TIP3   OH242743   1.420   2.772   5.347
14267TIP3    H142744   1.397   2.833   5.277
14267TIP3    H242745   1.343   2.715   5.355
14268TIP3   OH242746   6.984   2.538   5.836
14268TIP3    H142747   6.991   2.444   5.821
14268TIP3    H242748   7.030   2.578   5.763
14269TIP3   OH242749   6.403   5.004   6.679
14269TIP3    H142750   6.414   4.921   6.725
14269TIP3    H242751   6.492   5.028   6.651
14270TIP3   OH242752   1.980   5.095   1.167
14270TIP3    H142753   2.004   5.173   1.216
14270TIP3    H242754   2.057   5.039   1.173
14271TIP3   OH242755   6.518   0.867   6.322
14271TIP3    H142756   6.465   0.927   6.268
14271TIP3    H242757   6.608   0.891   6.303
14272TIP3   OH242758   6.412   2.654   2.591
14272TIP3    H142759   6.469   2.730   2.599
14272TIP3    H242760   6.471   2.579   2.598
14273TIP3   OH242761   2.130   4.777   5.031
14273TIP3    H142762   2.187   4.809   5.101
14273TIP3    H242763   2.041   4.794   5.062
14274TIP3   OH242764   6.665   4.548   3.405
14274TIP3    H142765   6.735   4.489   3.378
14274TIP3    H242766   6.617   4.567   3.323
14275TIP3   OH242767   5.857   4.388   1.831
14275TIP3    H142768   5.784   4.408   1.889
14275TIP3    H242769   5.903   4.315   1.873
14276TIP3   OH242770   8.163   4.621   6.644
14276TIP3    H142771   8.157   4.629   6.549
14276TIP3    H242772   8.124   4.536   6.664
14277TIP3   OH242773   4.850   7.394   4.392
14277TIP3    H142774   4.905   7.460   4.349
14277TIP3    H242775   4.844   7.323   4.329
14278TIP3   OH242776   5.648   4.951   4.509
14278TIP3    H142777   5.702   4.954   4.588
14278TIP3    H242778   5.711   4.959   4.437
14279TIP3   OH242779   5.979   2.191   0.547
14279TIP3    H142780   6.025   2.263   0.588
14279TIP3    H242781   6.018   2.184   0.460
14280TIP3   OH242782   8.121   6.618   3.880
14280TIP3    H142783   8.161   6.675   3.815
14280TIP3    H242784   8.184   6.547   3.893
14281TIP3   OH242785   6.324   3.310   3.035
14281TIP3    H142786   6.314   3.278   2.945
14281TIP3    H242787   6.307   3.404   3.029
14282TIP3   OH242788   4.064   1.618   2.844
14282TIP3    H142789   4.036   1.565   2.919
14282TIP3    H242790   4.158   1.603   2.838
14283TIP3   OH242791   1.694   5.239   6.791
14283TIP3    H142792   1.666   5.305   6.728
14283TIP3    H242793   1.629   5.244   6.861
14284TIP3   OH242794   5.249   5.248   3.869
14284TIP3    H142795   5.248   5.268   3.963
14284TIP3    H242796   5.229   5.154   3.864
14285TIP3   OH242797   4.857   0.183   5.108
14285TIP3    H142798   4.852   0.093   5.139
14285TIP3    H242799   4.925   0.223   5.162
14286TIP3   OH242800   1.914   2.089   4.910
14286TIP3    H142801   1.838   2.101   4.852
14286TIP3    H242802   1.908   2.162   4.972
14287TIP3   OH242803   1.448   5.793   0.376
14287TIP3    H142804   1.460   5.722   0.438
14287TIP3    H242805   1.474   5.756   0.292
14288TIP3   OH242806   0.124   6.662   1.004
14288TIP3    H142807   0.049   6.605   1.020
14288TIP3    H242808   0.087   6.737   0.957
14289TIP3   OH242809   0.632   6.396   5.938
14289TIP3    H142810   0.631   6.317   5.884
14289TIP3    H242811   0.666   6.465   5.880
14290TIP3   OH242812   3.796   2.193   3.572
14290TIP3    H142813   3.702   2.209   3.585
14290TIP3    H242814   3.825   2.266   3.517
14291TIP3   OH242815   8.168   2.910   6.433
14291TIP3    H142816   8.247   2.951   6.400
14291TIP3    H242817   8.172   2.820   6.399
14292TIP3   OH242818   5.168   3.685   1.179
14292TIP3    H142819   5.194   3.677   1.087
14292TIP3    H242820   5.250   3.700   1.226
14293TIP3   OH242821   8.150   4.330   4.082
14293TIP3    H142822   8.057   4.351   4.069
14293TIP3    H242823   8.156   4.308   4.175
14294TIP3   OH242824   0.738   3.989   1.423
14294TIP3    H142825   0.687   4.069   1.421
14294TIP3    H242826   0.806   4.006   1.489
14295TIP3   OH242827   7.948   6.529   6.423
14295TIP3    H142828   8.030   6.497   6.385
14295TIP3    H242829   7.926   6.607   6.372
14296TIP3   OH242830   7.995   6.086   0.594
14296TIP3    H142831   8.071   6.031   0.577
14296TIP3    H242832   7.993   6.148   0.521
14297TIP3   OH242833   6.669   5.018   1.259
14297TIP3    H142834   6.655   5.028   1.354
14297TIP3    H242835   6.650   4.926   1.242
14298TIP3   OH242836   2.895   4.683   4.219
14298TIP3    H142837   2.949   4.752   4.256
14298TIP3    H242838   2.829   4.665   4.287
14299TIP3   OH242839   7.229   0.471   4.137
14299TIP3    H142840   7.184   0.528   4.073
14299TIP3    H242841   7.319   0.469   4.106
14300TIP3   OH242842   1.974   7.596   2.387
14300TIP3    H142843   1.964   7.605   2.482
14300TIP3    H242844   1.885   7.605   2.353
14301TIP3   OH242845   5.975   1.774   1.741
14301TIP3    H142846   6.015   1.837   1.680
14301TIP3    H242847   5.887   1.759   1.706
14302TIP3   OH242848   6.129   3.113   6.165
14302TIP3    H142849   6.184   3.081   6.094
14302TIP3    H242850   6.189   3.125   6.239
14303TIP3   OH242851   1.165   0.698   3.720
14303TIP3    H142852   1.227   0.629   3.744
14303TIP3    H242853   1.217   0.761   3.670
14304TIP3   OH242854   7.427   6.843   0.649
14304TIP3    H142855   7.444   6.756   0.613
14304TIP3    H242856   7.380   6.826   0.731
14305TIP3   OH242857   2.328   4.251   5.403
14305TIP3    H142858   2.340   4.161   5.372
14305TIP3    H242859   2.417   4.282   5.423
14306TIP3   OH242860   0.549   6.218   5.684
14306TIP3    H142861   0.514   6.190   5.600
14306TIP3    H242862   0.641   6.189   5.683
14307TIP3   OH242863   2.569   2.998   1.419
14307TIP3    H142864   2.658   3.011   1.452
14307TIP3    H242865   2.517   2.980   1.497
14308TIP3   OH242866   1.477   4.700   6.139
14308TIP3    H142867   1.546   4.663   6.195
14308TIP3    H242868   1.424   4.625   6.113
14309TIP3   OH242869   2.679   2.943   5.936
14309TIP3    H142870   2.628   3.015   5.900
14309TIP3    H242871   2.766   2.982   5.952
14310TIP3   OH242872   4.526   4.618   0.938
14310TIP3    H142873   4.473   4.691   0.968
14310TIP3    H242874   4.617   4.644   0.957
14311TIP3   OH242875   7.845   7.022   6.049
14311TIP3    H142876   7.766   7.000   5.999
14311TIP3    H242877   7.811   7.060   6.130
14312TIP3   OH242878   7.569   6.447   5.177
14312TIP3    H142879   7.477   6.428   5.195
14312TIP3    H242880   7.617   6.383   5.228
14313TIP3   OH242881   1.457   2.647   4.656
14313TIP3    H142882   1.365   2.668   4.640
14313TIP3    H242883   1.504   2.685   4.581
14314TIP3   OH242884   8.161   0.317   4.509
14314TIP3    H142885   8.111   0.319   4.590
14314TIP3    H242886   8.118   0.381   4.452
14315TIP3   OH242887   6.473   6.762   4.320
14315TIP3    H142888   6.525   6.840   4.340
14315TIP3    H242889   6.503   6.696   4.383
14316TIP3   OH242890   8.276   4.395   4.998
14316TIP3    H142891   8.273   4.302   4.977
14316TIP3    H242892   8.218   4.436   4.933
14317TIP3   OH242893   4.072   6.357   6.256
14317TIP3    H142894   4.059   6.448   6.283
14317TIP3    H242895   3.985   6.327   6.230
14318TIP3   OH242896   6.981   5.206   3.340
14318TIP3    H142897   6.984   5.167   3.253
14318TIP3    H242898   6.889   5.201   3.366
14319TIP3   OH242899   5.600   6.011   0.975
14319TIP3    H142900   5.539   5.977   1.040
14319TIP3    H242901   5.686   6.004   1.016
14320TIP3   OH242902   6.607   6.746   1.713
14320TIP3    H142903   6.673   6.746   1.782
14320TIP3    H242904   6.547   6.815   1.737
14321TIP3   OH242905   6.856   4.280   4.372
14321TIP3    H142906   6.902   4.213   4.321
14321TIP3    H242907   6.877   4.362   4.328
14322TIP3   OH242908   7.362   2.293   5.046
14322TIP3    H142909   7.276   2.284   5.005
14322TIP3    H242910   7.349   2.260   5.135
14323TIP3   OH242911   6.188   0.343   5.982
14323TIP3    H142912   6.205   0.331   6.075
14323TIP3    H242913   6.150   0.259   5.954
14324TIP3   OH242914   7.687   0.291   2.432
14324TIP3    H142915   7.593   0.290   2.415
14324TIP3    H242916   7.726   0.251   2.354
14325TIP3   OH242917   7.656   2.547   3.885
14325TIP3    H142918   7.749   2.539   3.864
14325TIP3    H242919   7.649   2.632   3.929
14326TIP3   OH242920   4.979   2.523  -0.020
14326TIP3    H142921   4.943   2.526   0.069
14326TIP3    H242922   5.018   2.436  -0.027
14327TIP3   OH242923   2.075   4.366   1.209
14327TIP3    H142924   2.019   4.428   1.257
14327TIP3    H242925   2.013   4.306   1.167
14328TIP3   OH242926   2.026   5.455   3.613
14328TIP3    H142927   2.100   5.514   3.601
14328TIP3    H242928   1.960   5.485   3.551
14329TIP3   OH242929   3.152   2.152   3.830
14329TIP3    H142930   3.083   2.086   3.825
14329TIP3    H242931   3.216   2.115   3.890
14330TIP3   OH242932   1.343   6.676   2.196
14330TIP3    H142933   1.338   6.606   2.262
14330TIP3    H242934   1.294   6.749   2.234
14331TIP3   OH242935   6.820   0.042   4.134
14331TIP3    H142936   6.874   0.119   4.120
14331TIP3    H242937   6.780   0.024   4.049
14332TIP3   OH242938   7.406   0.373   1.608
14332TIP3    H142939   7.475   0.435   1.584
14332TIP3    H242940   7.446   0.287   1.597
14333TIP3   OH242941   1.846   1.393   2.732
14333TIP3    H142942   1.865   1.477   2.690
14333TIP3    H242943   1.754   1.400   2.757
14334TIP3   OH242944   5.566   7.155   3.438
14334TIP3    H142945   5.510   7.144   3.514
14334TIP3    H242946   5.515   7.119   3.365
14335TIP3   OH242947   0.608   0.638   3.230
14335TIP3    H142948   0.645   0.561   3.187
14335TIP3    H242949   0.586   0.609   3.319
14336TIP3   OH242950   3.563   3.676   1.812
14336TIP3    H142951   3.474   3.695   1.843
14336TIP3    H242952   3.598   3.762   1.787
14337TIP3   OH242953   7.230   4.312   4.220
14337TIP3    H142954   7.284   4.237   4.244
14337TIP3    H242955   7.246   4.325   4.127
14338TIP3   OH242956   3.180   3.252   3.297
14338TIP3    H142957   3.147   3.202   3.223
14338TIP3    H242958   3.109   3.250   3.361
14339TIP3   OH242959   3.405   0.879   4.194
14339TIP3    H142960   3.476   0.829   4.156
14339TIP3    H242961   3.372   0.824   4.266
14340TIP3   OH242962   2.652   6.865   5.953
14340TIP3    H142963   2.668   6.855   5.859
14340TIP3    H242964   2.692   6.948   5.976
14341TIP3   OH242965   1.818   5.634   3.937
14341TIP3    H142966   1.818   5.647   4.032
14341TIP3    H242967   1.888   5.571   3.922
14342TIP3   OH242968   1.986   1.672   0.604
14342TIP3    H142969   1.991   1.750   0.549
14342TIP3    H242970   2.050   1.687   0.674
14343TIP3   OH242971   1.726   1.279   1.249
14343TIP3    H142972   1.726   1.186   1.230
14343TIP3    H242973   1.797   1.291   1.311
14344TIP3   OH242974   6.433   3.974   4.068
14344TIP3    H142975   6.408   4.035   4.136
14344TIP3    H242976   6.485   3.907   4.113
14345TIP3   OH242977   4.340   6.073   1.485
14345TIP3    H142978   4.266   6.082   1.424
14345TIP3    H242979   4.299   6.053   1.569
14346TIP3   OH242980   0.710   3.339   3.230
14346TIP3    H142981   0.754   3.352   3.314
14346TIP3    H242982   0.693   3.428   3.198
14347TIP3   OH242983   5.755   7.506   4.961
14347TIP3    H142984   5.807   7.426   4.954
14347TIP3    H242985   5.668   7.475   4.987
14348TIP3   OH242986   0.113   2.164   1.738
14348TIP3    H142987   0.172   2.119   1.798
14348TIP3    H242988   0.027   2.126   1.755
14349TIP3   OH242989   5.034   1.603   1.097
14349TIP3    H142990   4.954   1.559   1.066
14349TIP3    H242991   5.017   1.621   1.189
14350TIP3   OH242992   3.549   4.337   2.988
14350TIP3    H142993   3.609   4.345   3.062
14350TIP3    H242994   3.470   4.299   3.024
14351TIP3   OH242995   6.000   2.899   2.389
14351TIP3    H142996   6.063   2.937   2.328
14351TIP3    H242997   6.031   2.926   2.475
14352TIP3   OH242998   2.801   5.798   4.952
14352TIP3    H142999   2.797   5.800   5.048
14352TIP3    H243000   2.820   5.706   4.931
14353TIP3   OH243001   6.135   2.791   3.944
14353TIP3    H143002   6.193   2.716   3.958
14353TIP3    H243003   6.192   2.867   3.957
14354TIP3   OH243004   6.998   5.976   4.850
14354TIP3    H143005   6.998   6.058   4.801
14354TIP3    H243006   6.956   5.913   4.791
14355TIP3   OH243007   3.535   3.678   1.430
14355TIP3    H143008   3.475   3.751   1.442
14355TIP3    H243009   3.509   3.614   1.496
14356TIP3   OH243010   1.638   0.936   1.348
14356TIP3    H143011   1.716   0.960   1.297
14356TIP3    H243012   1.568   0.930   1.283
14357TIP3   OH243013   2.628   5.734   2.603
14357TIP3    H143014   2.637   5.693   2.517
14357TIP3    H243015   2.534   5.751   2.611
14358TIP3   OH243016   2.734   0.039   2.908
14358TIP3    H143017   2.765   0.112   2.962
14358TIP3    H243018   2.682  -0.014   2.969
14359TIP3   OH243019   7.778   6.392   2.971
14359TIP3    H143020   7.839   6.323   2.997
14359TIP3    H243021   7.757   6.437   3.052
14360TIP3   OH243022   4.938   0.651   5.571
14360TIP3    H143023   4.962   0.644   5.478
14360TIP3    H243024   4.944   0.561   5.603
14361TIP3   OH243025   6.751   4.632   5.350
14361TIP3    H143026   6.668   4.678   5.337
14361TIP3    H243027   6.727   4.540   5.360
14362TIP3   OH243028   0.210   2.333   3.229
14362TIP3    H143029   0.200   2.424   3.202
14362TIP3    H243030   0.161   2.283   3.164
14363TIP3   OH243031   1.870   7.115   5.069
14363TIP3    H143032   1.874   7.066   4.986
14363TIP3    H243033   1.958   7.105   5.106
14364TIP3   OH243034   4.723   5.354   0.564
14364TIP3    H143035   4.788   5.289   0.593
14364TIP3    H243036   4.646   5.336   0.618
14365TIP3   OH243037   7.135   0.212   4.220
14365TIP3    H143038   7.172   0.291   4.181
14365TIP3    H243039   7.200   0.144   4.200
14366TIP3   OH243040   0.784   1.159   1.984
14366TIP3    H143041   0.831   1.227   2.031
14366TIP3    H243042   0.718   1.206   1.932
14367TIP3   OH243043   0.161   1.686   1.592
14367TIP3    H143044   0.132   1.639   1.513
14367TIP3    H243045   0.171   1.618   1.658
14368TIP3   OH243046   7.423   5.144   2.552
14368TIP3    H143047   7.344   5.155   2.499
14368TIP3    H243048   7.427   5.050   2.571
14369TIP3   OH243049   0.972   5.685   5.629
14369TIP3    H143050   0.915   5.735   5.689
14369TIP3    H243051   1.022   5.627   5.686
14370TIP3   OH243052   4.412   0.400   1.584
14370TIP3    H143053   4.373   0.322   1.545
14370TIP3    H243054   4.494   0.413   1.537
14371TIP3   OH243055   5.127   3.968   2.948
14371TIP3    H143056   5.101   3.991   2.859
14371TIP3    H243057   5.193   3.900   2.937
14372TIP3   OH243058   6.787   0.309   5.009
14372TIP3    H143059   6.869   0.281   4.967
14372TIP3    H243060   6.734   0.229   5.012
14373TIP3   OH243061   2.378   5.294   5.497
14373TIP3    H143062   2.360   5.381   5.463
14373TIP3    H243063   2.462   5.303   5.544
14374TIP3   OH243064   4.792   4.935   6.772
14374TIP3    H143065   4.733   4.978   6.710
14374TIP3    H243066   4.777   4.980   6.855
14375TIP3   OH243067   4.391   1.869   0.360
14375TIP3    H143068   4.296   1.877   0.366
14375TIP3    H243069   4.421   1.872   0.452
14376TIP3   OH243070   6.028   3.717   5.192
14376TIP3    H143071   6.114   3.753   5.168
14376TIP3    H243072   6.008   3.655   5.122
14377TIP3   OH243073   6.501   5.250   1.238
14377TIP3    H143074   6.413   5.217   1.219
14377TIP3    H243075   6.555   5.171   1.245
14378TIP3   OH243076   1.838   1.404   1.664
14378TIP3    H143077   1.844   1.500   1.659
14378TIP3    H243078   1.875   1.373   1.582
14379TIP3   OH243079   5.376   4.264   1.321
14379TIP3    H143080   5.322   4.193   1.355
14379TIP3    H243081   5.331   4.344   1.348
14380TIP3   OH243082   5.145   6.987   3.573
14380TIP3    H143083   5.116   7.048   3.505
14380TIP3    H243084   5.076   6.921   3.577
14381TIP3   OH243085   0.312   1.891   0.847
14381TIP3    H143086   0.298   1.844   0.766
14381TIP3    H243087   0.406   1.909   0.849
14382TIP3   OH243088   3.487   4.446   6.397
14382TIP3    H143089   3.399   4.442   6.358
14382TIP3    H243090   3.506   4.540   6.403
14383TIP3   OH243091   3.109   2.560   4.226
14383TIP3    H143092   3.202   2.544   4.214
14383TIP3    H243093   3.067   2.521   4.149
14384TIP3   OH243094   4.353   1.813   1.750
14384TIP3    H143095   4.414   1.886   1.745
14384TIP3    H243096   4.269   1.853   1.772
14385TIP3   OH243097   7.359   0.805   6.678
14385TIP3    H143098   7.412   0.845   6.747
14385TIP3    H243099   7.335   0.719   6.712
14386TIP3   OH243100   1.794   1.496   5.788
14386TIP3    H143101   1.887   1.482   5.768
14386TIP3    H243102   1.779   1.588   5.767
14387TIP3   OH243103   3.489   2.369   6.525
14387TIP3    H143104   3.405   2.402   6.556
14387TIP3    H243105   3.530   2.445   6.482
14388TIP3   OH243106   4.133   7.432   2.152
14388TIP3    H143107   4.041   7.443   2.177
14388TIP3    H243108   4.174   7.515   2.176
14389TIP3   OH243109   0.127   5.346   5.228
14389TIP3    H143110   0.201   5.396   5.263
14389TIP3    H243111   0.050   5.391   5.262
14390TIP3   OH243112   7.987   0.414   6.051
14390TIP3    H143113   8.026   0.410   6.138
14390TIP3    H243114   7.893   0.401   6.067
14391TIP3   OH243115   4.344   4.905   4.691
14391TIP3    H143116   4.344   4.876   4.783
14391TIP3    H243117   4.304   4.833   4.643
14392TIP3   OH243118   7.678   2.088   4.936
14392TIP3    H143119   7.723   2.076   4.852
14392TIP3    H243120   7.745   2.069   5.002
14393TIP3   OH243121   7.525   2.339   3.561
14393TIP3    H143122   7.574   2.279   3.616
14393TIP3    H243123   7.516   2.293   3.477
14394TIP3   OH243124   5.007   3.938   1.151
14394TIP3    H143125   4.913   3.921   1.140
14394TIP3    H243126   5.037   3.868   1.208
14395TIP3   OH243127   4.929   5.819   2.641
14395TIP3    H143128   4.988   5.893   2.626
14395TIP3    H243129   4.982   5.742   2.622
14396TIP3   OH243130   2.064   4.107   1.473
14396TIP3    H143131   2.084   4.058   1.553
14396TIP3    H243132   2.130   4.079   1.410
14397TIP3   OH243133   5.025   7.767   4.694
14397TIP3    H143134   5.046   7.675   4.676
14397TIP3    H243135   5.056   7.814   4.616
14398TIP3   OH243136   7.377   1.010   6.472
14398TIP3    H143137   7.380   0.946   6.543
14398TIP3    H243138   7.468   1.028   6.451
14399TIP3   OH243139   4.592   0.193   0.064
14399TIP3    H143140   4.562   0.272   0.108
14399TIP3    H243141   4.615   0.133   0.136
14400TIP3   OH243142   1.585   0.183   0.604
14400TIP3    H143143   1.573   0.089   0.620
14400TIP3    H243144   1.499   0.213   0.575
14401TIP3   OH243145   2.560   2.857   0.751
14401TIP3    H143146   2.581   2.943   0.788
14401TIP3    H243147   2.643   2.826   0.713
14402TIP3   OH243148   1.533   4.509   5.612
14402TIP3    H143149   1.586   4.533   5.536
14402TIP3    H243150   1.547   4.581   5.674
14403TIP3   OH243151   5.690   7.071   0.867
14403TIP3    H143152   5.783   7.056   0.847
14403TIP3    H243153   5.649   6.986   0.852
14404TIP3   OH243154   7.257   1.405   6.168
14404TIP3    H143155   7.197   1.466   6.210
14404TIP3    H243156   7.219   1.389   6.082
14405TIP3   OH243157   7.722   1.681   6.229
14405TIP3    H143158   7.635   1.713   6.209
14405TIP3    H243159   7.713   1.585   6.230
14406TIP3   OH243160   6.624   7.750   3.671
14406TIP3    H143161   6.608   7.761   3.577
14406TIP3    H243162   6.719   7.753   3.679
14407TIP3   OH243163   1.342   4.230   6.240
14407TIP3    H143164   1.340   4.314   6.285
14407TIP3    H243165   1.258   4.190   6.261
14408TIP3   OH243166   5.450   2.065   6.686
14408TIP3    H143167   5.503   2.103   6.756
14408TIP3    H243168   5.365   2.048   6.728
14409TIP3   OH243169   4.070   7.497   4.644
14409TIP3    H143170   4.052   7.564   4.709
14409TIP3    H243171   4.158   7.519   4.611
14410TIP3   OH243172   0.030   6.245   5.579
14410TIP3    H143173   0.032   6.322   5.636
14410TIP3    H243174   0.115   6.203   5.594
14411TIP3   OH243175   4.634   6.462   3.777
14411TIP3    H143176   4.607   6.420   3.859
14411TIP3    H243177   4.726   6.438   3.767
14412TIP3   OH243178   1.373   4.477   6.054
14412TIP3    H143179   1.324   4.418   6.111
14412TIP3    H243180   1.430   4.420   6.003
14413TIP3   OH243181   5.653   0.369   1.073
14413TIP3    H143182   5.730   0.408   1.032
14413TIP3    H243183   5.642   0.418   1.155
14414TIP3   OH243184   2.713   0.565   6.382
14414TIP3    H143185   2.642   0.629   6.381
14414TIP3    H243186   2.759   0.579   6.299
14415TIP3   OH243187   2.322   2.479   5.474
14415TIP3    H143188   2.313   2.386   5.494
14415TIP3    H243189   2.243   2.502   5.426
14416TIP3   OH243190   7.396   6.089   5.436
14416TIP3    H143191   7.394   6.072   5.530
14416TIP3    H243192   7.305   6.085   5.409
14417TIP3   OH243193   6.216   3.596   0.237
14417TIP3    H143194   6.248   3.543   0.309
14417TIP3    H243195   6.289   3.601   0.176
14418TIP3   OH243196   3.404   3.694   3.195
14418TIP3    H143197   3.477   3.687   3.257
14418TIP3    H243198   3.348   3.619   3.216
14419TIP3   OH243199   1.900   5.211   4.865
14419TIP3    H143200   1.926   5.140   4.924
14419TIP3    H243201   1.854   5.273   4.921
14420TIP3   OH243202   2.194   3.472   3.059
14420TIP3    H143203   2.188   3.377   3.043
14420TIP3    H243204   2.225   3.479   3.149
14421TIP3   OH243205   2.321   4.199   0.595
14421TIP3    H143206   2.339   4.227   0.685
14421TIP3    H243207   2.251   4.258   0.565
14422TIP3   OH243208   0.846   0.216   2.508
14422TIP3    H143209   0.762   0.177   2.483
14422TIP3    H243210   0.883   0.247   2.425
14423TIP3   OH243211   1.930   3.639   1.149
14423TIP3    H143212   1.844   3.675   1.128
14423TIP3    H243213   1.950   3.674   1.236
14424TIP3   OH243214   7.698   5.118   4.433
14424TIP3    H143215   7.678   5.135   4.525
14424TIP3    H243216   7.752   5.040   4.434
14425TIP3   OH243217   6.555   5.173   2.583
14425TIP3    H143218   6.467   5.137   2.586
14425TIP3    H243219   6.573   5.186   2.490
14426TIP3   OH243220   3.980   1.033   0.119
14426TIP3    H143221   4.039   1.100   0.083
14426TIP3    H243222   3.963   0.974   0.045
14427TIP3   OH243223   2.832   6.833   2.505
14427TIP3    H143224   2.848   6.757   2.449
14427TIP3    H243225   2.879   6.905   2.462
14428TIP3   OH243226   2.160   1.420   3.852
14428TIP3    H143227   2.236   1.437   3.908
14428TIP3    H243228   2.108   1.356   3.901
14429TIP3   OH243229   0.950   7.520   0.340
14429TIP3    H143230   1.034   7.489   0.374
14429TIP3    H243231   0.967   7.612   0.315
14430TIP3   OH243232   8.126   7.439   2.950
14430TIP3    H143233   8.212   7.406   2.925
14430TIP3    H243234   8.110   7.513   2.890
14431TIP3   OH243235   6.855   0.366   6.335
14431TIP3    H143236   6.833   0.345   6.425
14431TIP3    H243237   6.876   0.459   6.336
14432TIP3   OH243238   4.470   7.301   6.272
14432TIP3    H143239   4.544   7.312   6.332
14432TIP3    H243240   4.425   7.223   6.304
14433TIP3   OH243241   2.652   5.976   5.713
14433TIP3    H143242   2.714   6.046   5.693
14433TIP3    H243243   2.690   5.898   5.673
14434TIP3   OH243244   0.825   4.766   2.612
14434TIP3    H143245   0.823   4.861   2.603
14434TIP3    H243246   0.877   4.750   2.691
14435TIP3   OH243247   6.556   3.326   6.288
14435TIP3    H143248   6.548   3.251   6.346
14435TIP3    H243249   6.613   3.387   6.335
14436TIP3   OH243250   7.335   3.668   4.198
14436TIP3    H143251   7.395   3.612   4.149
14436TIP3    H243252   7.355   3.756   4.168
14437TIP3   OH243253   3.121   3.656   1.319
14437TIP3    H143254   3.136   3.674   1.412
14437TIP3    H243255   3.124   3.561   1.313
14438TIP3   OH243256   2.587   1.043   3.681
14438TIP3    H143257   2.617   1.134   3.669
14438TIP3    H243258   2.665   0.990   3.665
14439TIP3   OH243259   3.974   2.243   6.180
14439TIP3    H143260   4.040   2.241   6.250
14439TIP3    H243261   3.908   2.306   6.210
14440TIP3   OH243262   7.837   4.055   4.643
14440TIP3    H143263   7.912   4.095   4.599
14440TIP3    H243264   7.834   4.097   4.729
14441TIP3   OH243265   2.925   1.489   0.232
14441TIP3    H143266   3.006   1.530   0.202
14441TIP3    H243267   2.955   1.413   0.282
14442TIP3   OH243268   7.076   1.196   4.850
14442TIP3    H143269   7.171   1.205   4.864
14442TIP3    H243270   7.069   1.124   4.787
14443TIP3   OH243271   4.357   2.722   3.725
14443TIP3    H143272   4.380   2.815   3.728
14443TIP3    H243273   4.261   2.721   3.722
14444TIP3   OH243274   4.973   5.754   4.308
14444TIP3    H143275   4.906   5.816   4.337
14444TIP3    H243276   4.939   5.719   4.225
14445TIP3   OH243277   5.165   4.442   5.821
14445TIP3    H143278   5.196   4.445   5.730
14445TIP3    H243279   5.169   4.533   5.850
14446TIP3   OH243280   2.948   6.037   5.347
14446TIP3    H143281   3.031   6.082   5.360
14446TIP3    H243282   2.955   5.959   5.402
14447TIP3   OH243283   4.847   6.047   4.058
14447TIP3    H143284   4.867   5.977   3.996
14447TIP3    H243285   4.757   6.072   4.037
14448TIP3   OH243286   6.083   4.466   5.896
14448TIP3    H143287   6.056   4.523   5.824
14448TIP3    H243288   6.006   4.463   5.954
14449TIP3   OH243289   6.826   2.126   1.827
14449TIP3    H143290   6.800   2.057   1.766
14449TIP3    H243291   6.800   2.093   1.913
14450TIP3   OH243292   3.344   7.556   3.131
14450TIP3    H143293   3.272   7.497   3.108
14450TIP3    H243294   3.420   7.519   3.086
14451TIP3   OH243295   7.924   3.657   3.504
14451TIP3    H143296   7.932   3.661   3.409
14451TIP3    H243297   7.926   3.563   3.525
14452TIP3   OH243298   2.640   0.656   3.649
14452TIP3    H143299   2.617   0.719   3.718
14452TIP3    H243300   2.558   0.644   3.600
14453TIP3   OH243301   1.166   2.668   2.341
14453TIP3    H143302   1.127   2.754   2.357
14453TIP3    H243303   1.147   2.650   2.249
14454TIP3   OH243304   2.772   7.502   3.561
14454TIP3    H143305   2.855   7.501   3.609
14454TIP3    H243306   2.762   7.593   3.534
14455TIP3   OH243307   4.800   3.045   1.057
14455TIP3    H143308   4.888   3.078   1.072
14455TIP3    H243309   4.742   3.109   1.100
14456TIP3   OH243310   4.348   6.690   6.232
14456TIP3    H143311   4.317   6.640   6.157
14456TIP3    H243312   4.311   6.644   6.308
14457TIP3   OH243313   7.860   3.112   4.584
14457TIP3    H143314   7.945   3.155   4.592
14457TIP3    H243315   7.863   3.038   4.645
14458TIP3   OH243316   6.248   1.933   6.464
14458TIP3    H143317   6.247   1.923   6.559
14458TIP3    H243318   6.313   2.002   6.448
14459TIP3   OH243319   4.672   0.423   0.881
14459TIP3    H143320   4.691   0.330   0.867
14459TIP3    H243321   4.746   0.455   0.933
14460TIP3   OH243322   2.831   5.099   4.872
14460TIP3    H143323   2.870   5.017   4.901
14460TIP3    H243324   2.737   5.081   4.865
14461TIP3   OH243325   4.620   0.092   2.349
14461TIP3    H143326   4.660   0.065   2.267
14461TIP3    H243327   4.663   0.038   2.416
14462TIP3   OH243328   6.426   6.456   3.903
14462TIP3    H143329   6.488   6.514   3.859
14462TIP3    H243330   6.343   6.471   3.859
14463TIP3   OH243331   6.083   3.218   0.660
14463TIP3    H143332   6.074   3.139   0.713
14463TIP3    H243333   6.132   3.278   0.716
14464TIP3   OH243334   4.057   5.878   2.664
14464TIP3    H143335   4.123   5.820   2.627
14464TIP3    H243336   3.990   5.885   2.596
14465TIP3   OH243337   5.405   2.038   1.911
14465TIP3    H143338   5.440   1.972   1.971
14465TIP3    H243339   5.321   2.064   1.949
14466TIP3   OH243340   6.489   7.682   2.833
14466TIP3    H143341   6.423   7.724   2.887
14466TIP3    H243342   6.527   7.615   2.889
14467TIP3   OH243343   4.129   4.367   4.520
14467TIP3    H143344   4.216   4.344   4.554
14467TIP3    H243345   4.076   4.289   4.536
14468TIP3   OH243346   1.340   2.144   5.362
14468TIP3    H143347   1.407   2.202   5.327
14468TIP3    H243348   1.340   2.069   5.302
14469TIP3   OH243349   2.646   7.321   0.868
14469TIP3    H143350   2.691   7.369   0.938
14469TIP3    H243351   2.571   7.281   0.911
14470TIP3   OH243352   2.752   6.095   0.453
14470TIP3    H143353   2.687   6.142   0.403
14470TIP3    H243354   2.836   6.133   0.427
14471TIP3   OH243355   3.636   1.836   1.965
14471TIP3    H143356   3.707   1.895   1.991
14471TIP3    H243357   3.609   1.793   2.047
14472TIP3   OH243358   0.749   7.670   3.303
14472TIP3    H143359   0.797   7.712   3.374
14472TIP3    H243360   0.657   7.693   3.319
14473TIP3   OH243361   1.437   4.421   3.180
14473TIP3    H143362   1.361   4.473   3.203
14473TIP3    H243363   1.411   4.330   3.196
14474TIP3   OH243364   3.380   6.363   3.673
14474TIP3    H143365   3.420   6.383   3.588
14474TIP3    H243366   3.454   6.364   3.734
14475TIP3   OH243367   4.463   5.450   2.364
14475TIP3    H143368   4.409   5.415   2.294
14475TIP3    H243369   4.531   5.501   2.319
14476TIP3   OH243370   5.408   2.111   3.610
14476TIP3    H143371   5.493   2.075   3.635
14476TIP3    H243372   5.345   2.055   3.656
14477TIP3   OH243373   0.511   5.834   5.146
14477TIP3    H143374   0.428   5.807   5.106
14477TIP3    H243375   0.573   5.839   5.073
14478TIP3   OH243376   7.134   0.804   1.064
14478TIP3    H143377   7.188   0.754   1.003
14478TIP3    H243378   7.044   0.786   1.037
14479TIP3   OH243379   0.645   1.315   3.474
14479TIP3    H143380   0.668   1.288   3.563
14479TIP3    H243381   0.620   1.407   3.483
14480TIP3   OH243382   6.040   1.493   6.361
14480TIP3    H143383   6.074   1.543   6.287
14480TIP3    H243384   5.953   1.466   6.333
14481TIP3   OH243385   3.921   5.878   1.394
14481TIP3    H143386   4.005   5.842   1.368
14481TIP3    H243387   3.860   5.848   1.326
14482TIP3   OH243388   0.143   5.398   2.909
14482TIP3    H143389   0.124   5.344   2.832
14482TIP3    H243390   0.065   5.454   2.918
14483TIP3   OH243391   2.944   0.246   3.006
14483TIP3    H143392   2.963   0.267   3.097
14483TIP3    H243393   3.017   0.190   2.979
14484TIP3   OH243394   2.673   1.348   0.860
14484TIP3    H143395   2.589   1.343   0.815
14484TIP3    H243396   2.700   1.439   0.848
14485TIP3   OH243397   0.954   3.790   6.314
14485TIP3    H143398   0.912   3.717   6.360
14485TIP3    H243399   0.912   3.868   6.349
14486TIP3   OH243400   4.674   4.754   3.673
14486TIP3    H143401   4.672   4.665   3.638
14486TIP3    H243402   4.582   4.777   3.685
14487TIP3   OH243403   2.390   1.960   1.258
14487TIP3    H143404   2.389   1.882   1.314
14487TIP3    H243405   2.482   1.981   1.248
14488TIP3   OH243406   6.765   2.246   0.124
14488TIP3    H143407   6.840   2.239   0.064
14488TIP3    H243408   6.728   2.158   0.127
14489TIP3   OH243409   6.405   5.508   4.670
14489TIP3    H143410   6.419   5.529   4.578
14489TIP3    H243411   6.439   5.584   4.717
14490TIP3   OH243412   3.560   1.313   3.914
14490TIP3    H143413   3.614   1.236   3.896
14490TIP3    H243414   3.490   1.280   3.972
14491TIP3   OH243415   5.674   1.779   4.185
14491TIP3    H143416   5.677   1.874   4.169
14491TIP3    H243417   5.591   1.765   4.229
14492TIP3   OH243418   3.272   3.669   1.881
14492TIP3    H143419   3.269   3.764   1.890
14492TIP3    H243420   3.234   3.636   1.963
14493TIP3   OH243421   5.479   3.864   4.929
14493TIP3    H143422   5.515   3.929   4.868
14493TIP3    H243423   5.551   3.846   4.990
14494TIP3   OH243424   7.083   2.975   4.177
14494TIP3    H143425   7.163   2.990   4.227
14494TIP3    H243426   7.112   2.931   4.097
14495TIP3   OH243427   5.153   5.797   6.740
14495TIP3    H143428   5.243   5.828   6.743
14495TIP3    H243429   5.160   5.702   6.748
14496TIP3   OH243430   7.818   5.120   2.944
14496TIP3    H143431   7.736   5.168   2.932
14496TIP3    H243432   7.885   5.189   2.951
14497TIP3   OH243433   2.549   2.700   3.894
14497TIP3    H143434   2.627   2.699   3.949
14497TIP3    H243435   2.582   2.723   3.807
14498TIP3   OH243436   2.286   6.733   5.943
14498TIP3    H143437   2.204   6.712   5.898
14498TIP3    H243438   2.309   6.821   5.913
14499TIP3   OH243439   1.584   3.317   3.400
14499TIP3    H143440   1.548   3.235   3.366
14499TIP3    H243441   1.653   3.290   3.461
14500TIP3   OH243442   6.903   1.484   6.491
14500TIP3    H143443   6.866   1.420   6.431
14500TIP3    H243444   6.973   1.437   6.536
14501TIP3   OH243445   2.663   4.531   4.996
14501TIP3    H143446   2.635   4.616   4.961
14501TIP3    H243447   2.755   4.544   5.019
14502TIP3   OH243448   1.249   6.849   4.671
14502TIP3    H143449   1.157   6.825   4.680
14502TIP3    H243450   1.285   6.841   4.759
14503TIP3   OH243451   4.288   4.997   0.206
14503TIP3    H143452   4.354   5.065   0.223
14503TIP3    H243453   4.304   4.969   0.116
14504TIP3   OH243454   6.482   4.626   2.727
14504TIP3    H143455   6.441   4.542   2.705
14504TIP3    H243456   6.478   4.677   2.646
14505TIP3   OH243457   3.551   2.757   4.053
14505TIP3    H143458   3.520   2.845   4.029
14505TIP3    H243459   3.485   2.698   4.016
14506TIP3   OH243460   1.936   6.049   3.861
14506TIP3    H143461   2.028   6.029   3.880
14506TIP3    H243462   1.925   6.030   3.768
14507TIP3   OH243463   7.871   5.144   0.137
14507TIP3    H143464   7.848   5.121   0.227
14507TIP3    H243465   7.952   5.196   0.145
14508TIP3   OH243466   5.827   3.148   1.809
14508TIP3    H143467   5.740   3.165   1.844
14508TIP3    H243468   5.863   3.079   1.865
14509TIP3   OH243469   4.994   1.076   5.448
14509TIP3    H143470   4.928   1.118   5.502
14509TIP3    H243471   5.057   1.040   5.511
14510TIP3   OH243472   8.087   1.642   3.447
14510TIP3    H143473   8.047   1.576   3.389
14510TIP3    H243474   8.061   1.616   3.535
14511TIP3   OH243475   7.549   1.389   3.519
14511TIP3    H143476   7.607   1.330   3.472
14511TIP3    H243477   7.470   1.395   3.465
14512TIP3   OH243478   8.209   6.566   4.374
14512TIP3    H143479   8.187   6.638   4.316
14512TIP3    H243480   8.270   6.603   4.437
14513TIP3   OH243481   7.992   3.923   1.262
14513TIP3    H143482   7.951   3.937   1.347
14513TIP3    H243483   8.061   3.859   1.279
14514TIP3   OH243484   1.327   1.148   4.685
14514TIP3    H143485   1.297   1.228   4.729
14514TIP3    H243486   1.370   1.098   4.753
14515TIP3   OH243487   1.208   3.597   3.291
14515TIP3    H143488   1.149   3.630   3.359
14515TIP3    H243489   1.266   3.671   3.273
14516TIP3   OH243490   3.963   7.046   5.832
14516TIP3    H143491   3.966   7.093   5.749
14516TIP3    H243492   3.884   7.081   5.876
14517TIP3   OH243493   7.862   7.219   3.444
14517TIP3    H143494   7.779   7.181   3.417
14517TIP3    H243495   7.842   7.311   3.461
14518TIP3   OH243496   1.396   3.636   3.757
14518TIP3    H143497   1.433   3.599   3.837
14518TIP3    H243498   1.302   3.642   3.774
14519TIP3   OH243499   7.614   0.306   1.295
14519TIP3    H143500   7.589   0.391   1.258
14519TIP3    H243501   7.545   0.246   1.265
14520TIP3   OH243502   6.387   2.231   1.032
14520TIP3    H143503   6.328   2.160   1.057
14520TIP3    H243504   6.439   2.249   1.110
14521TIP3   OH243505   6.613   2.028   6.647
14521TIP3    H143506   6.579   1.948   6.687
14521TIP3    H243507   6.572   2.099   6.696
14522TIP3   OH243508   3.852   4.247   5.750
14522TIP3    H143509   3.879   4.337   5.731
14522TIP3    H243510   3.881   4.232   5.840
14523TIP3   OH243511   0.393   2.037   3.340
14523TIP3    H143512   0.322   2.092   3.310
14523TIP3    H243513   0.465   2.098   3.359
14524TIP3   OH243514   4.582   0.922   5.776
14524TIP3    H143515   4.653   0.859   5.790
14524TIP3    H243516   4.505   0.879   5.813
14525TIP3   OH243517   5.937   5.539   1.787
14525TIP3    H143518   5.966   5.586   1.708
14525TIP3    H243519   6.006   5.554   1.851
14526TIP3   OH243520   5.243   6.429   0.049
14526TIP3    H143521   5.323   6.481   0.042
14526TIP3    H243522   5.271   6.340   0.029
14527TIP3   OH243523   2.426   0.781   2.790
14527TIP3    H143524   2.465   0.790   2.703
14527TIP3    H243525   2.496   0.807   2.850
14528TIP3   OH243526   2.499   3.780   5.224
14528TIP3    H143527   2.535   3.744   5.305
14528TIP3    H243528   2.427   3.722   5.202
14529TIP3   OH243529   7.415   6.908   2.081
14529TIP3    H143530   7.438   6.995   2.114
14529TIP3    H243531   7.485   6.886   2.019
14530TIP3   OH243532   1.942   2.307   2.979
14530TIP3    H143533   1.868   2.317   2.919
14530TIP3    H243534   1.908   2.337   3.063
14531TIP3   OH243535   5.638   0.472   6.366
14531TIP3    H143536   5.618   0.540   6.430
14531TIP3    H243537   5.555   0.455   6.322
14532TIP3   OH243538   2.761   6.709   3.661
14532TIP3    H143539   2.793   6.638   3.716
14532TIP3    H243540   2.714   6.665   3.590
14533TIP3   OH243541   4.814   5.167   5.692
14533TIP3    H143542   4.760   5.244   5.707
14533TIP3    H243543   4.816   5.123   5.777
14534TIP3   OH243544   2.298   4.250   4.828
14534TIP3    H143545   2.294   4.175   4.887
14534TIP3    H243546   2.386   4.287   4.842
14535TIP3   OH243547   7.686   7.095   4.029
14535TIP3    H143548   7.675   7.049   4.112
14535TIP3    H243549   7.692   7.026   3.963
14536TIP3   OH243550   5.991   3.576   4.981
14536TIP3    H143551   6.007   3.482   4.973
14536TIP3    H243552   5.914   3.591   4.926
14537TIP3   OH243553   7.132   4.410   0.750
14537TIP3    H143554   7.081   4.448   0.679
14537TIP3    H243555   7.208   4.468   0.759
14538TIP3   OH243556   1.174   7.456   4.113
14538TIP3    H143557   1.091   7.491   4.082
14538TIP3    H243558   1.152   7.373   4.154
14539TIP3   OH243559   8.196   6.356   5.092
14539TIP3    H143560   8.112   6.384   5.056
14539TIP3    H243561   8.213   6.271   5.051
14540TIP3   OH243562   0.091   5.778   5.330
14540TIP3    H143563   0.079   5.866   5.296
14540TIP3    H243564   0.088   5.788   5.425
14541TIP3   OH243565   4.272   7.445   4.442
14541TIP3    H143566   4.249   7.437   4.349
14541TIP3    H243567   4.325   7.525   4.447
14542TIP3   OH243568   0.220   1.722   0.644
14542TIP3    H143569   0.179   1.692   0.562
14542TIP3    H243570   0.146   1.741   0.701
14543TIP3   OH243571   7.052   0.342   4.472
14543TIP3    H143572   7.068   0.435   4.458
14543TIP3    H243573   7.065   0.302   4.386
14544TIP3   OH243574   5.525   2.898   2.303
14544TIP3    H143575   5.504   2.984   2.340
14544TIP3    H243576   5.608   2.911   2.257
14545TIP3   OH243577   1.454   0.446   1.903
14545TIP3    H143578   1.533   0.432   1.850
14545TIP3    H243579   1.488   0.470   1.990
14546TIP3   OH243580   8.009   5.054   3.396
14546TIP3    H143581   8.037   4.988   3.459
14546TIP3    H243582   7.995   5.133   3.448
14547TIP3   OH243583   0.071   0.714   4.936
14547TIP3    H143584  -0.008   0.687   4.982
14547TIP3    H243585   0.050   0.800   4.900
14548TIP3   OH243586   2.683   1.378   2.211
14548TIP3    H143587   2.612   1.329   2.169
14548TIP3    H243588   2.638   1.434   2.275
14549TIP3   OH243589   8.016   0.334   1.836
14549TIP3    H143590   8.084   0.316   1.771
14549TIP3    H243591   8.058   0.317   1.920
14550TIP3   OH243592   0.670   5.443   5.036
14550TIP3    H143593   0.617   5.409   5.108
14550TIP3    H243594   0.725   5.369   5.009
14551TIP3   OH243595   0.107   4.441   3.603
14551TIP3    H143596   0.065   4.521   3.571
14551TIP3    H243597   0.160   4.470   3.677
14552TIP3   OH243598   4.440   6.198   1.160
14552TIP3    H143599   4.428   6.291   1.177
14552TIP3    H243600   4.515   6.173   1.215
14553TIP3   OH243601   1.696   1.011   6.674
14553TIP3    H143602   1.722   1.100   6.697
14553TIP3    H243603   1.778   0.966   6.655
14554TIP3   OH243604   3.765   6.353   4.515
14554TIP3    H143605   3.753   6.304   4.434
14554TIP3    H243606   3.832   6.305   4.563
14555TIP3   OH243607   4.538   5.088   4.645
14555TIP3    H143608   4.469   5.022   4.655
14555TIP3    H243609   4.611   5.055   4.697
14556TIP3   OH243610   2.786   2.074   6.746
14556TIP3    H143611   2.748   2.018   6.678
14556TIP3    H243612   2.869   2.031   6.769
14557TIP3   OH243613   3.272   1.667   0.655
14557TIP3    H143614   3.308   1.747   0.693
14557TIP3    H243615   3.188   1.694   0.618
14558TIP3   OH243616   1.378   4.046   1.945
14558TIP3    H143617   1.378   3.982   2.016
14558TIP3    H243618   1.411   4.126   1.985
14559TIP3   OH243619   3.636   4.236   4.230
14559TIP3    H143620   3.729   4.226   4.208
14559TIP3    H243621   3.592   4.239   4.145
14560TIP3   OH243622   2.759   1.993   0.363
14560TIP3    H143623   2.835   1.966   0.311
14560TIP3    H243624   2.691   1.930   0.340
14561TIP3   OH243625   4.135   6.804   5.946
14561TIP3    H143626   4.173   6.866   6.008
14561TIP3    H243627   4.087   6.858   5.884
14562TIP3   OH243628   3.165   0.083   2.946
14562TIP3    H143629   3.125  -0.001   2.966
14562TIP3    H243630   3.256   0.073   2.974
14563TIP3   OH243631   0.305   3.552   5.712
14563TIP3    H143632   0.231   3.494   5.694
14563TIP3    H243633   0.322   3.540   5.806
14564TIP3   OH243634   7.972   6.071   2.700
14564TIP3    H143635   7.944   6.108   2.784
14564TIP3    H243636   8.049   6.019   2.722
14565TIP3   OH243637   0.608   0.642   6.598
14565TIP3    H143638   0.654   0.719   6.633
14565TIP3    H243639   0.605   0.580   6.671
14566TIP3   OH243640   2.601   7.237   0.201
14566TIP3    H143641   2.682   7.240   0.149
14566TIP3    H243642   2.574   7.328   0.209
14567TIP3   OH243643   6.539   6.062   1.536
14567TIP3    H143644   6.472   6.123   1.567
14567TIP3    H243645   6.563   6.012   1.613
14568TIP3   OH243646   2.580   0.502   3.142
14568TIP3    H143647   2.557   0.419   3.099
14568TIP3    H243648   2.499   0.554   3.138
14569TIP3   OH243649   6.982   5.523   4.868
14569TIP3    H143650   7.028   5.552   4.947
14569TIP3    H243651   7.049   5.477   4.817
14570TIP3   OH243652   3.756   2.887   3.697
14570TIP3    H143653   3.716   2.937   3.626
14570TIP3    H243654   3.743   2.940   3.775
14571TIP3   OH243655   6.694   4.701   5.933
14571TIP3    H143656   6.602   4.684   5.916
14571TIP3    H243657   6.711   4.660   6.018
14572TIP3   OH243658   5.961   0.689   4.914
14572TIP3    H143659   5.867   0.687   4.929
14572TIP3    H243660   5.994   0.607   4.950
14573TIP3   OH243661   2.936   7.232   1.464
14573TIP3    H143662   2.902   7.203   1.380
14573TIP3    H243663   3.021   7.189   1.472
14574TIP3   OH243664   6.809   3.733   0.162
14574TIP3    H143665   6.850   3.747   0.248
14574TIP3    H243666   6.829   3.812   0.112
14575TIP3   OH243667   3.069   7.242   4.261
14575TIP3    H143668   3.161   7.229   4.286
14575TIP3    H243669   3.067   7.331   4.225
14576TIP3   OH243670   5.114   7.442   5.570
14576TIP3    H143671   5.158   7.419   5.652
14576TIP3    H243672   5.064   7.364   5.547
14577TIP3   OH243673   1.885   0.113   5.205
14577TIP3    H143674   1.872   0.099   5.299
14577TIP3    H243675   1.942   0.190   5.200
14578TIP3   OH243676   2.112   1.662   4.546
14578TIP3    H143677   2.166   1.729   4.504
14578TIP3    H243678   2.074   1.705   4.622
14579TIP3   OH243679   2.738   1.424   5.715
14579TIP3    H143680   2.704   1.339   5.742
14579TIP3    H243681   2.723   1.427   5.621
14580TIP3   OH243682   0.499   5.207   4.723
14580TIP3    H143683   0.562   5.279   4.722
14580TIP3    H243684   0.499   5.173   4.634
14581TIP3   OH243685   5.099   5.170   2.493
14581TIP3    H143686   5.104   5.262   2.465
14581TIP3    H243687   5.190   5.143   2.502
14582TIP3   OH243688   1.537   4.310   2.462
14582TIP3    H143689   1.565   4.391   2.419
14582TIP3    H243690   1.527   4.334   2.554
14583TIP3   OH243691   0.627   2.536   3.302
14583TIP3    H143692   0.627   2.631   3.302
14583TIP3    H243693   0.660   2.511   3.388
14584TIP3   OH243694   5.568   6.502   0.075
14584TIP3    H143695   5.534   6.582   0.115
14584TIP3    H243696   5.558   6.435   0.143
14585TIP3   OH243697   0.215   1.863   5.665
14585TIP3    H143698   0.255   1.905   5.741
14585TIP3    H243699   0.211   1.932   5.598
14586TIP3   OH243700   2.009   7.184   2.563
14586TIP3    H143701   1.926   7.228   2.545
14586TIP3    H243702   2.065   7.252   2.601
14587TIP3   OH243703   1.466   2.572   4.309
14587TIP3    H143704   1.491   2.657   4.345
14587TIP3    H243705   1.547   2.539   4.269
14588TIP3   OH243706   3.190   1.433   2.272
14588TIP3    H143707   3.241   1.510   2.248
14588TIP3    H243708   3.104   1.448   2.233
14589TIP3   OH243709   7.108   2.369   3.517
14589TIP3    H143710   7.202   2.378   3.527
14589TIP3    H243711   7.092   2.376   3.423
14590TIP3   OH243712   7.781   7.339   5.728
14590TIP3    H143713   7.753   7.249   5.709
14590TIP3    H243714   7.708   7.376   5.779
14591TIP3   OH243715   7.672   4.663   3.463
14591TIP3    H143716   7.608   4.734   3.458
14591TIP3    H243717   7.739   4.687   3.399
14592TIP3   OH243718   7.375   5.404   0.140
14592TIP3    H143719   7.313   5.461   0.093
14592TIP3    H243720   7.403   5.340   0.075
14593TIP3   OH243721   0.609   6.918   3.812
14593TIP3    H143722   0.605   6.948   3.903
14593TIP3    H243723   0.536   6.962   3.769
14594TIP3   OH243724   6.190   7.627   2.485
14594TIP3    H143725   6.183   7.716   2.518
14594TIP3    H243726   6.147   7.573   2.552
14595TIP3   OH243727   2.379   1.280   0.266
14595TIP3    H143728   2.293   1.307   0.234
14595TIP3    H243729   2.419   1.360   0.299
14596TIP3   OH243730   5.078   5.393   5.317
14596TIP3    H143731   5.057   5.417   5.227
14596TIP3    H243732   5.016   5.443   5.370
14597TIP3   OH243733   6.163   0.682   6.593
14597TIP3    H143734   6.200   0.702   6.507
14597TIP3    H243735   6.111   0.602   6.579
14598TIP3   OH243736   4.412   5.478   0.263
14598TIP3    H143737   4.472   5.523   0.322
14598TIP3    H243738   4.325   5.492   0.301
14599TIP3   OH243739   0.267   3.086   5.879
14599TIP3    H143740   0.308   3.084   5.965
14599TIP3    H243741   0.307   3.013   5.831
14600TIP3   OH243742   4.997   5.333   6.488
14600TIP3    H143743   4.962   5.293   6.408
14600TIP3    H243744   5.089   5.307   6.490
14601TIP3   OH243745   1.276   7.170   4.795
14601TIP3    H143746   1.261   7.221   4.716
14601TIP3    H243747   1.371   7.157   4.797
14602TIP3   OH243748   8.140   2.722   5.392
14602TIP3    H143749   8.163   2.730   5.485
14602TIP3    H243750   8.046   2.738   5.389
14603TIP3   OH243751   6.499   5.863   6.399
14603TIP3    H143752   6.439   5.903   6.336
14603TIP3    H243753   6.553   5.935   6.431
14604TIP3   OH243754   5.894   3.298   2.199
14604TIP3    H143755   5.881   3.322   2.291
14604TIP3    H243756   5.945   3.371   2.163
14605TIP3   OH243757   1.632   0.822   3.960
14605TIP3    H143758   1.688   0.765   4.013
14605TIP3    H243759   1.679   0.829   3.876
14606TIP3   OH243760   2.223   4.760   0.738
14606TIP3    H143761   2.274   4.838   0.715
14606TIP3    H243762   2.166   4.788   0.809
14607TIP3   OH243763   8.236   7.095   0.151
14607TIP3    H143764   8.194   7.124   0.070
14607TIP3    H243765   8.296   7.025   0.124
14608TIP3   OH243766   1.542   2.532   2.215
14608TIP3    H143767   1.610   2.593   2.185
14608TIP3    H243768   1.508   2.572   2.295
14609TIP3   OH243769   0.992   2.941   1.995
14609TIP3    H143770   1.023   2.852   1.980
14609TIP3    H243771   0.899   2.938   1.973
14610TIP3   OH243772   6.966   6.197   4.369
14610TIP3    H143773   6.888   6.147   4.391
14610TIP3    H243774   6.950   6.229   4.280
14611TIP3   OH243775   2.536   7.476   0.095
14611TIP3    H143776   2.606   7.473   0.030
14611TIP3    H243777   2.455   7.475   0.043
14612TIP3   OH243778   6.807   3.598   1.595
14612TIP3    H143779   6.841   3.590   1.506
14612TIP3    H243780   6.714   3.619   1.584
14613TIP3   OH243781   5.385   2.109   5.239
14613TIP3    H143782   5.467   2.157   5.233
14613TIP3    H243783   5.374   2.068   5.153
14614TIP3   OH243784   1.451   3.311   2.345
14614TIP3    H143785   1.469   3.405   2.339
14614TIP3    H243786   1.536   3.269   2.332
14615TIP3   OH243787   0.219   6.753   6.569
14615TIP3    H143788   0.287   6.687   6.553
14615TIP3    H243789   0.248   6.830   6.520
14616TIP3   OH243790   7.433   2.371   1.066
14616TIP3    H143791   7.454   2.371   0.973
14616TIP3    H243792   7.341   2.345   1.070
14617TIP3   OH243793   1.691   6.291   3.799
14617TIP3    H143794   1.703   6.328   3.886
14617TIP3    H243795   1.709   6.364   3.739
14618TIP3   OH243796   3.366   4.154   0.091
14618TIP3    H143797   3.459   4.174   0.084
14618TIP3    H243798   3.332   4.220   0.153
14619TIP3   OH243799   0.946   1.242   2.322
14619TIP3    H143800   0.949   1.149   2.303
14619TIP3    H243801   1.035   1.273   2.305
14620TIP3   OH243802   4.315   1.504   2.014
14620TIP3    H143803   4.389   1.553   1.978
14620TIP3    H243804   4.270   1.469   1.936
14621TIP3   OH243805   7.105   6.253   6.536
14621TIP3    H143806   7.172   6.207   6.486
14621TIP3    H243807   7.067   6.316   6.474
14622TIP3   OH243808   4.764   0.346   0.327
14622TIP3    H143809   4.671   0.343   0.351
14622TIP3    H243810   4.810   0.330   0.410
14623TIP3   OH243811   6.785   3.878   4.791
14623TIP3    H143812   6.692   3.856   4.794
14623TIP3    H243813   6.788   3.966   4.754
14624TIP3   OH243814   7.777   4.585   4.424
14624TIP3    H143815   7.691   4.593   4.466
14624TIP3    H243816   7.816   4.507   4.464
14625TIP3   OH243817   0.132   4.915   0.192
14625TIP3    H143818   0.181   4.927   0.110
14625TIP3    H243819   0.199   4.892   0.257
14626TIP3   OH243820   1.300   5.032   5.890
14626TIP3    H143821   1.372   5.085   5.856
14626TIP3    H243822   1.322   5.017   5.982
14627TIP3   OH243823   8.126   2.644   6.419
14627TIP3    H143824   8.183   2.624   6.494
14627TIP3    H243825   8.133   2.567   6.362
14628TIP3   OH243826   6.615   0.092   6.412
14628TIP3    H143827   6.692   0.099   6.355
14628TIP3    H243828   6.541   0.094   6.352
14629TIP3   OH243829   1.444   2.307   0.115
14629TIP3    H143830   1.502   2.244   0.074
14629TIP3    H243831   1.393   2.344   0.042
14630TIP3   OH243832   4.720   4.949   3.452
14630TIP3    H143833   4.647   4.933   3.393
14630TIP3    H243834   4.690   4.915   3.536
14631TIP3   OH243835   7.905   0.612   0.658
14631TIP3    H143836   7.959   0.545   0.698
14631TIP3    H243837   7.844   0.564   0.602
14632TIP3   OH243838   4.008   1.377   3.460
14632TIP3    H143839   3.934   1.347   3.407
14632TIP3    H243840   4.085   1.362   3.406
14633TIP3   OH243841   7.679   5.771   4.751
14633TIP3    H143842   7.699   5.819   4.832
14633TIP3    H243843   7.729   5.818   4.683
14634TIP3   OH243844   3.566   4.775   1.405
14634TIP3    H143845   3.493   4.826   1.440
14634TIP3    H243846   3.553   4.774   1.311
14635TIP3   OH243847   3.876   1.614   2.039
14635TIP3    H143848   3.811   1.644   2.103
14635TIP3    H243849   3.824   1.568   1.973
14636TIP3   OH243850   0.930   1.145   3.256
14636TIP3    H143851   0.947   1.090   3.332
14636TIP3    H243852   1.006   1.132   3.199
14637TIP3   OH243853   7.693   4.268   0.649
14637TIP3    H143854   7.742   4.239   0.573
14637TIP3    H243855   7.729   4.216   0.722
14638TIP3   OH243856   4.577   0.770   5.122
14638TIP3    H143857   4.570   0.861   5.150
14638TIP3    H243858   4.669   0.747   5.138
14639TIP3   OH243859   3.954   7.038   0.541
14639TIP3    H143860   3.947   7.133   0.550
14639TIP3    H243861   3.889   7.002   0.600
14640TIP3   OH243862   5.508   4.972   6.716
14640TIP3    H143863   5.424   4.961   6.760
14640TIP3    H243864   5.571   4.927   6.772
14641TIP3   OH243865   6.391   7.243   4.163
14641TIP3    H143866   6.472   7.289   4.182
14641TIP3    H243867   6.418   7.167   4.111
14642TIP3   OH243868   0.659   4.747   0.754
14642TIP3    H143869   0.711   4.720   0.679
14642TIP3    H243870   0.681   4.685   0.823
14643TIP3   OH243871   5.706   0.986   1.207
14643TIP3    H143872   5.780   0.993   1.147
14643TIP3    H243873   5.649   0.920   1.169
14644TIP3   OH243874   5.444   6.327   4.310
14644TIP3    H143875   5.503   6.401   4.293
14644TIP3    H243876   5.500   6.258   4.344
14645TIP3   OH243877   7.493   1.637   1.828
14645TIP3    H143878   7.570   1.689   1.804
14645TIP3    H243879   7.423   1.701   1.840
14646TIP3   OH243880   5.411   1.109   5.565
14646TIP3    H143881   5.498   1.070   5.562
14646TIP3    H243882   5.402   1.154   5.481
14647TIP3   OH243883   2.362   1.216   5.257
14647TIP3    H143884   2.428   1.254   5.200
14647TIP3    H243885   2.406   1.206   5.342
14648TIP3   OH243886   6.185   5.038   3.918
14648TIP3    H143887   6.234   4.965   3.879
14648TIP3    H243888   6.127   5.068   3.847
14649TIP3   OH243889   3.787   7.388   5.435
14649TIP3    H143890   3.801   7.467   5.487
14649TIP3    H243891   3.793   7.418   5.344
14650TIP3   OH243892   3.884   6.491   1.902
14650TIP3    H143893   3.968   6.455   1.930
14650TIP3    H243894   3.819   6.428   1.933
14651TIP3   OH243895   4.793   6.522   1.318
14651TIP3    H143896   4.801   6.603   1.367
14651TIP3    H243897   4.802   6.453   1.384
14652TIP3   OH243898   3.626   1.720   4.377
14652TIP3    H143899   3.558   1.687   4.318
14652TIP3    H243900   3.702   1.734   4.321
14653TIP3   OH243901   2.476   7.574   1.157
14653TIP3    H143902   2.567   7.564   1.183
14653TIP3    H243903   2.432   7.498   1.195
14654TIP3   OH243904   7.013   7.274   4.733
14654TIP3    H143905   7.062   7.213   4.788
14654TIP3    H243906   6.970   7.219   4.669
14655TIP3   OH243907   6.558   1.693   2.741
14655TIP3    H143908   6.552   1.733   2.654
14655TIP3    H243909   6.582   1.766   2.798
14656TIP3   OH243910   1.875   0.333   1.624
14656TIP3    H143911   1.859   0.389   1.548
14656TIP3    H243912   1.893   0.247   1.586
14657TIP3   OH243913   6.023   7.536   3.818
14657TIP3    H143914   6.035   7.475   3.745
14657TIP3    H243915   5.952   7.498   3.869
14658TIP3   OH243916   3.929   5.779   6.366
14658TIP3    H143917   3.876   5.816   6.437
14658TIP3    H243918   3.936   5.849   6.302
14659TIP3   OH243919   2.860   4.817   1.437
14659TIP3    H143920   2.854   4.860   1.352
14659TIP3    H243921   2.920   4.744   1.423
14660TIP3   OH243922   2.185   1.858   5.610
14660TIP3    H143923   2.122   1.929   5.595
14660TIP3    H243924   2.176   1.802   5.532
14661TIP3   OH243925   4.998   1.636   3.638
14661TIP3    H143926   4.958   1.664   3.720
14661TIP3    H243927   5.013   1.717   3.589
14662TIP3   OH243928   6.570   7.155   4.553
14662TIP3    H143929   6.557   7.250   4.558
14662TIP3    H243930   6.664   7.143   4.569
14663TIP3   OH243931   7.042   3.924   2.113
14663TIP3    H143932   7.096   4.003   2.116
14663TIP3    H243933   7.083   3.864   2.174
14664TIP3   OH243934   4.787   2.344   1.736
14664TIP3    H143935   4.695   2.331   1.711
14664TIP3    H243936   4.808   2.268   1.791
14665TIP3   OH243937   7.025   0.634   3.984
14665TIP3    H143938   6.961   0.635   4.055
14665TIP3    H243939   7.075   0.714   3.995
14666TIP3   OH243940   6.147   2.316   5.551
14666TIP3    H143941   6.084   2.325   5.623
14666TIP3    H243942   6.134   2.395   5.498
14667TIP3   OH243943   4.307   1.935   3.468
14667TIP3    H143944   4.227   1.884   3.480
14667TIP3    H243945   4.305   1.960   3.375
14668TIP3   OH243946   1.760   1.973   2.695
14668TIP3    H143947   1.711   1.932   2.766
14668TIP3    H243948   1.708   1.955   2.617
14669TIP3   OH243949   5.171   0.933   6.489
14669TIP3    H143950   5.153   1.014   6.441
14669TIP3    H243951   5.195   0.963   6.577
14670TIP3   OH243952   4.563   5.493   0.883
14670TIP3    H143953   4.556   5.421   0.821
14670TIP3    H243954   4.490   5.480   0.944
14671TIP3   OH243955   7.653   2.535   5.335
14671TIP3    H143956   7.638   2.482   5.257
14671TIP3    H243957   7.565   2.563   5.362
14672TIP3   OH243958   7.619   1.197   2.526
14672TIP3    H143959   7.619   1.239   2.440
14672TIP3    H243960   7.625   1.269   2.588
14673TIP3   OH243961   1.895   2.271   2.633
14673TIP3    H143962   1.854   2.203   2.686
14673TIP3    H243963   1.828   2.338   2.622
14674TIP3   OH243964   6.511   3.763   4.837
14674TIP3    H143965   6.527   3.679   4.793
14674TIP3    H243966   6.426   3.752   4.879
14675TIP3   OH243967   1.655   5.018   6.449
14675TIP3    H143968   1.645   5.058   6.362
14675TIP3    H243969   1.668   4.925   6.430
14676TIP3   OH243970   7.711   4.090   4.963
14676TIP3    H143971   7.668   4.030   5.024
14676TIP3    H243972   7.725   4.170   5.014
14677TIP3   OH243973   6.894   4.759   6.466
14677TIP3    H143974   6.964   4.813   6.505
14677TIP3    H243975   6.941   4.687   6.424
14678TIP3   OH243976   7.170   0.369   5.536
14678TIP3    H143977   7.222   0.361   5.616
14678TIP3    H243978   7.215   0.313   5.472
14679TIP3   OH243979   6.754   5.352   5.289
14679TIP3    H143980   6.672   5.400   5.281
14679TIP3    H243981   6.772   5.320   5.200
14680TIP3   OH243982   7.645   4.293   6.529
14680TIP3    H143983   7.675   4.289   6.619
14680TIP3    H243984   7.642   4.201   6.500
14681TIP3   OH243985   5.303   2.304   3.126
14681TIP3    H143986   5.288   2.273   3.215
14681TIP3    H243987   5.316   2.398   3.135
14682TIP3   OH243988   6.713   1.382   3.853
14682TIP3    H143989   6.665   1.393   3.935
14682TIP3    H243990   6.694   1.462   3.803
14683TIP3   OH243991   2.543   3.651   0.901
14683TIP3    H143992   2.541   3.616   0.812
14683TIP3    H243993   2.465   3.706   0.907
14684TIP3   OH243994   0.574   4.173   5.852
14684TIP3    H143995   0.564   4.094   5.906
14684TIP3    H243996   0.603   4.240   5.914
14685TIP3   OH243997   1.933   0.005   4.716
14685TIP3    H143998   1.956  -0.085   4.738
14685TIP3    H243999   1.979   0.059   4.781
14686TIP3   OH244000   1.811   3.217   6.095
14686TIP3    H144001   1.749   3.286   6.120
14686TIP3    H244002   1.897   3.257   6.111
14687TIP3   OH244003   1.264   5.932   6.308
14687TIP3    H144004   1.230   5.970   6.389
14687TIP3    H244005   1.248   5.838   6.318
14688TIP3   OH244006   2.330   4.732   3.538
14688TIP3    H144007   2.353   4.653   3.587
14688TIP3    H244008   2.305   4.700   3.451
14689TIP3   OH244009   6.722   7.609   0.727
14689TIP3    H144010   6.645   7.665   0.728
14689TIP3    H244011   6.745   7.600   0.635
14690TIP3   OH244012   5.860   6.029   3.743
14690TIP3    H144013   5.778   6.068   3.775
14690TIP3    H244014   5.834   5.975   3.669
14691TIP3   OH244015   8.245   0.044   0.417
14691TIP3    H144016   8.225  -0.049   0.412
14691TIP3    H244017   8.176   0.086   0.364
14692TIP3   OH244018   7.687   5.848   5.644
14692TIP3    H144019   7.628   5.840   5.719
14692TIP3    H244020   7.771   5.872   5.683
14693TIP3   OH244021   8.218   6.047   6.288
14693TIP3    H144022   8.162   6.080   6.358
14693TIP3    H244023   8.297   6.101   6.293
14694TIP3   OH244024   2.806   4.312   4.360
14694TIP3    H144025   2.784   4.239   4.417
14694TIP3    H244026   2.893   4.341   4.390
14695TIP3   OH244027   1.790   0.490   5.096
14695TIP3    H144028   1.797   0.556   5.164
14695TIP3    H244029   1.875   0.445   5.098
14696TIP3   OH244030   3.853   2.442   3.478
14696TIP3    H144031   3.806   2.467   3.399
14696TIP3    H244032   3.920   2.509   3.489
14697TIP3   OH244033   3.567   5.748   5.141
14697TIP3    H144034   3.492   5.803   5.166
14697TIP3    H244035   3.528   5.663   5.120
14698TIP3   OH244036   3.510   6.033   6.418
14698TIP3    H144037   3.551   5.964   6.364
14698TIP3    H244038   3.458   6.084   6.356
14699TIP3   OH244039   5.601   1.806   2.434
14699TIP3    H144040   5.636   1.721   2.463
14699TIP3    H244041   5.592   1.857   2.515
14700TIP3   OH244042   5.378   3.409   6.338
14700TIP3    H144043   5.458   3.359   6.354
14700TIP3    H244044   5.404   3.479   6.278
14701TIP3   OH244045   0.670   2.930   2.732
14701TIP3    H144046   0.598   2.901   2.677
14701TIP3    H244047   0.668   2.871   2.807
14702TIP3   OH244048   4.948  -0.013   2.874
14702TIP3    H144049   4.949  -0.033   2.780
14702TIP3    H244050   4.928   0.080   2.879
14703TIP3   OH244051   6.951   3.336   6.086
14703TIP3    H144052   6.907   3.293   6.159
14703TIP3    H244053   6.882   3.387   6.043
14704TIP3   OH244054   3.006   6.238   3.765
14704TIP3    H144055   3.015   6.302   3.836
14704TIP3    H244056   3.025   6.289   3.686
14705TIP3   OH244057   3.201   3.333   0.196
14705TIP3    H144058   3.272   3.384   0.236
14705TIP3    H244059   3.124   3.353   0.249
14706TIP3   OH244060   1.892   3.257   4.398
14706TIP3    H144061   1.945   3.311   4.339
14706TIP3    H244062   1.866   3.316   4.468
14707TIP3   OH244063   6.748   4.692   5.669
14707TIP3    H144064   6.742   4.710   5.763
14707TIP3    H244065   6.659   4.706   5.636
14708TIP3   OH244066   6.401   1.441   5.976
14708TIP3    H144067   6.411   1.353   5.939
14708TIP3    H244068   6.431   1.433   6.067
14709TIP3   OH244069   4.130   5.602   2.308
14709TIP3    H144070   4.067   5.656   2.261
14709TIP3    H244071   4.121   5.515   2.269
14710TIP3   OH244072   2.896   6.740   5.154
14710TIP3    H144073   2.843   6.669   5.190
14710TIP3    H244074   2.870   6.745   5.062
14711TIP3   OH244075   4.366   6.644   0.744
14711TIP3    H144076   4.395   6.558   0.714
14711TIP3    H244077   4.410   6.706   0.687
14712TIP3   OH244078   5.074   4.268   4.248
14712TIP3    H144079   5.050   4.238   4.335
14712TIP3    H244080   5.037   4.356   4.241
14713TIP3   OH244081   1.340   6.437   3.828
14713TIP3    H144082   1.343   6.380   3.905
14713TIP3    H244083   1.379   6.519   3.857
14714TIP3   OH244084   7.734   0.552   0.952
14714TIP3    H144085   7.717   0.610   0.879
14714TIP3    H244086   7.752   0.610   1.026
14715TIP3   OH244087   0.870   2.925   0.173
14715TIP3    H144088   0.859   2.863   0.245
14715TIP3    H244089   0.845   2.875   0.095
14716TIP3   OH244090   2.150   5.315   5.017
14716TIP3    H144091   2.099   5.349   4.944
14716TIP3    H244092   2.129   5.222   5.019
14717TIP3   OH244093   7.905   5.944   1.354
14717TIP3    H144094   7.892   6.008   1.284
14717TIP3    H244095   7.944   5.868   1.311
14718TIP3   OH244096   1.389   0.053   4.806
14718TIP3    H144097   1.482   0.030   4.802
14718TIP3    H244098   1.364   0.069   4.715
14719TIP3   OH244099   6.691   0.156   0.420
14719TIP3    H144100   6.685   0.063   0.399
14719TIP3    H244101   6.663   0.161   0.512
14720TIP3   OH244102   6.658   0.641   2.615
14720TIP3    H144103   6.743   0.678   2.639
14720TIP3    H244104   6.669   0.611   2.525
14721TIP3   OH244105   3.268   6.956   3.851
14721TIP3    H144106   3.247   7.049   3.843
14721TIP3    H244107   3.278   6.943   3.946
14722TIP3   OH244108   1.130   3.289   3.265
14722TIP3    H144109   1.084   3.321   3.343
14722TIP3    H244110   1.157   3.368   3.219
14723TIP3   OH244111   7.568   0.416   2.877
14723TIP3    H144112   7.479   0.429   2.845
14723TIP3    H244113   7.624   0.436   2.802
14724TIP3   OH244114   0.465   2.937   1.341
14724TIP3    H144115   0.396   2.871   1.333
14724TIP3    H244116   0.543   2.887   1.365
14725TIP3   OH244117   0.607   1.699   3.621
14725TIP3    H144118   0.574   1.679   3.533
14725TIP3    H244119   0.537   1.751   3.660
14726TIP3   OH244120   4.799   2.095   1.902
14726TIP3    H144121   4.716   2.069   1.942
14726TIP3    H244122   4.865   2.080   1.970
14727TIP3   OH244123   0.775   3.153   3.055
14727TIP3    H144124   0.714   3.082   3.075
14727TIP3    H244125   0.739   3.230   3.099
14728TIP3   OH244126   2.252   6.185   3.741
14728TIP3    H144127   2.256   6.254   3.676
14728TIP3    H244128   2.257   6.230   3.825
14729TIP3   OH244129   5.922   0.915   4.767
14729TIP3    H144130   5.928   0.970   4.845
14729TIP3    H244131   5.938   0.826   4.799
14730TIP3   OH244132   7.039   3.978   4.497
14730TIP3    H144133   7.032   3.882   4.493
14730TIP3    H244134   6.971   4.004   4.559
14731TIP3   OH244135   7.268   7.342   5.992
14731TIP3    H144136   7.178   7.310   6.002
14731TIP3    H244137   7.258   7.430   5.955
14732TIP3   OH244138   6.215   1.926   2.225
14732TIP3    H144139   6.274   1.852   2.210
14732TIP3    H244140   6.164   1.932   2.144
14733TIP3   OH244141   0.423   1.911   4.109
14733TIP3    H144142   0.328   1.923   4.110
14733TIP3    H244143   0.451   1.952   4.027
14734TIP3   OH244144   0.624   7.407   5.458
14734TIP3    H144145   0.530   7.421   5.449
14734TIP3    H244146   0.638   7.395   5.552
14735TIP3   OH244147   3.319   4.246   3.589
14735TIP3    H144148   3.320   4.205   3.675
14735TIP3    H244149   3.235   4.292   3.585
14736TIP3   OH244150   5.026   4.311   6.422
14736TIP3    H144151   5.097   4.255   6.452
14736TIP3    H244152   5.064   4.398   6.416
14737TIP3   OH244153   5.810   6.402   1.933
14737TIP3    H144154   5.752   6.407   1.857
14737TIP3    H244155   5.751   6.406   2.008
14738TIP3   OH244156   1.153   2.735   1.952
14738TIP3    H144157   1.200   2.680   2.015
14738TIP3    H244158   1.117   2.673   1.888
14739TIP3   OH244159   6.789   0.714   6.532
14739TIP3    H144160   6.786   0.809   6.536
14739TIP3    H244161   6.851   0.695   6.461
14740TIP3   OH244162   2.449   6.887   1.319
14740TIP3    H144163   2.402   6.848   1.246
14740TIP3    H244164   2.534   6.844   1.319
14741TIP3   OH244165   1.207   1.579   0.237
14741TIP3    H144166   1.250   1.618   0.313
14741TIP3    H244167   1.244   1.627   0.162
14742TIP3   OH244168   2.864   7.131   3.840
14742TIP3    H144169   2.896   7.074   3.909
14742TIP3    H244170   2.796   7.185   3.882
14743TIP3   OH244171   3.626   0.888   5.420
14743TIP3    H144172   3.679   0.956   5.378
14743TIP3    H244173   3.671   0.806   5.398
14744TIP3   OH244174   6.574   6.874   3.739
14744TIP3    H144175   6.478   6.883   3.739
14744TIP3    H244176   6.589   6.781   3.725
14745TIP3   OH244177   6.481   5.312   5.456
14745TIP3    H144178   6.470   5.221   5.427
14745TIP3    H244179   6.519   5.305   5.543
14746TIP3   OH244180   6.159   2.147   6.000
14746TIP3    H144181   6.213   2.157   6.079
14746TIP3    H244182   6.079   2.196   6.019
14747TIP3   OH244183   0.599   3.155   6.533
14747TIP3    H144184   0.576   3.139   6.625
14747TIP3    H244185   0.694   3.157   6.532
14748TIP3   OH244186   6.008   1.659   4.261
14748TIP3    H144187   5.991   1.678   4.169
14748TIP3    H244188   5.951   1.585   4.281
14749TIP3   OH244189   4.600   4.755   5.070
14749TIP3    H144190   4.521   4.757   5.016
14749TIP3    H244191   4.604   4.666   5.104
14750TIP3   OH244192   4.827   2.230   6.317
14750TIP3    H144193   4.803   2.303   6.259
14750TIP3    H244194   4.774   2.245   6.396
14751TIP3   OH244195   3.276   3.218   5.503
14751TIP3    H144196   3.355   3.209   5.451
14751TIP3    H244197   3.206   3.184   5.446
14752TIP3   OH244198   3.698   6.201   4.294
14752TIP3    H144199   3.756   6.163   4.228
14752TIP3    H244200   3.647   6.128   4.328
14753TIP3   OH244201   0.235   3.576   4.684
14753TIP3    H144202   0.292   3.596   4.610
14753TIP3    H244203   0.275   3.500   4.725
14754TIP3   OH244204   4.503   2.983   6.022
14754TIP3    H144205   4.487   2.902   6.071
14754TIP3    H244206   4.599   2.992   6.023
14755TIP3   OH244207   4.727   0.016   3.221
14755TIP3    H144208   4.633   0.036   3.217
14755TIP3    H244209   4.759   0.066   3.295
14756TIP3   OH244210   8.147   6.325   5.365
14756TIP3    H144211   8.162   6.353   5.274
14756TIP3    H244212   8.227   6.351   5.411
14757TIP3   OH244213   7.839   3.109   1.987
14757TIP3    H144214   7.746   3.131   1.977
14757TIP3    H244215   7.875   3.115   1.899
14758TIP3   OH244216   8.030   5.387   5.843
14758TIP3    H144217   8.025   5.477   5.875
14758TIP3    H244218   7.968   5.339   5.898
14759TIP3   OH244219   5.242   3.718   5.737
14759TIP3    H144220   5.285   3.643   5.777
14759TIP3    H244221   5.301   3.791   5.752
14760TIP3   OH244222   0.141   2.808   4.250
14760TIP3    H144223   0.109   2.800   4.340
14760TIP3    H244224   0.185   2.893   4.247
14761TIP3   OH244225   0.284   2.916   0.795
14761TIP3    H144226   0.317   2.866   0.870
14761TIP3    H244227   0.307   3.007   0.814
14762TIP3   OH244228   7.566   0.734   2.701
14762TIP3    H144229   7.635   0.670   2.681
14762TIP3    H244230   7.485   0.692   2.671
14763TIP3   OH244231   2.837   4.528   5.635
14763TIP3    H144232   2.757   4.572   5.609
14763TIP3    H244233   2.907   4.581   5.597
14764TIP3   OH244234   7.204   7.588   2.901
14764TIP3    H144235   7.174   7.574   2.812
14764TIP3    H244236   7.126   7.614   2.950
14765TIP3   OH244237   6.132   2.323   2.096
14765TIP3    H144238   6.106   2.415   2.102
14765TIP3    H244239   6.225   2.326   2.071
14766TIP3   OH244240   1.131   1.766   3.832
14766TIP3    H144241   1.057   1.788   3.775
14766TIP3    H244242   1.203   1.820   3.799
14767TIP3   OH244243   0.492   4.150   6.314
14767TIP3    H144244   0.539   4.225   6.351
14767TIP3    H244245   0.561   4.091   6.285
14768TIP3   OH244246   5.541   2.497   2.185
14768TIP3    H144247   5.525   2.422   2.127
14768TIP3    H244248   5.617   2.471   2.237
14769TIP3   OH244249   6.320   5.808   6.610
14769TIP3    H144250   6.325   5.713   6.623
14769TIP3    H244251   6.378   5.826   6.536
14770TIP3   OH244252   4.776   6.857   0.527
14770TIP3    H144253   4.817   6.901   0.453
14770TIP3    H244254   4.822   6.891   0.604
14771TIP3   OH244255   5.132   0.602   3.446
14771TIP3    H144256   5.091   0.516   3.448
14771TIP3    H244257   5.077   0.653   3.385
14772TIP3   OH244258   4.525   3.008   5.693
14772TIP3    H144259   4.464   2.944   5.730
14772TIP3    H244260   4.593   2.956   5.652
14773TIP3   OH244261   7.612   5.129   3.550
14773TIP3    H144262   7.568   5.206   3.586
14773TIP3    H244263   7.642   5.081   3.627
14774TIP3   OH244264   5.045   3.859   4.729
14774TIP3    H144265   5.019   3.770   4.704
14774TIP3    H244266   4.964   3.903   4.752
14775TIP3   OH244267   7.086   1.172   0.990
14775TIP3    H144268   7.156   1.214   1.040
14775TIP3    H244269   7.133   1.120   0.924
14776TIP3   OH244270   2.853   0.498   0.805
14776TIP3    H144271   2.879   0.568   0.744
14776TIP3    H244272   2.853   0.419   0.751
14777TIP3   OH244273   6.051   1.489   1.519
14777TIP3    H144274   5.970   1.537   1.531
14777TIP3    H244275   6.023   1.401   1.491
14778TIP3   OH244276   1.662   2.197   1.162
14778TIP3    H144277   1.745   2.169   1.202
14778TIP3    H244278   1.682   2.208   1.069
14779TIP3   OH244279   7.238   1.080   1.631
14779TIP3    H144280   7.325   1.115   1.611
14779TIP3    H244281   7.232   1.000   1.580
14780TIP3   OH244282   7.873   7.339   5.139
14780TIP3    H144283   7.954   7.319   5.091
14780TIP3    H244284   7.847   7.256   5.178
14781TIP3   OH244285   4.364   6.981   4.557
14781TIP3    H144286   4.297   6.936   4.506
14781TIP3    H244287   4.336   7.073   4.558
14782TIP3   OH244288   3.192   3.020   2.539
14782TIP3    H144289   3.258   3.089   2.542
14782TIP3    H244290   3.174   3.000   2.631
14783TIP3   OH244291   7.909   0.293   5.764
14783TIP3    H144292   7.931   0.296   5.857
14783TIP3    H244293   7.984   0.252   5.722
14784TIP3   OH244294   4.352   4.324   1.948
14784TIP3    H144295   4.308   4.272   2.015
14784TIP3    H244296   4.364   4.264   1.875
14785TIP3   OH244297   6.685   0.480   4.459
14785TIP3    H144298   6.691   0.568   4.422
14785TIP3    H244299   6.647   0.427   4.390
14786TIP3   OH244300   5.343   1.775   5.592
14786TIP3    H144301   5.253   1.765   5.560
14786TIP3    H244302   5.382   1.839   5.532
14787TIP3   OH244303   2.068   3.927   1.177
14787TIP3    H144304   2.005   3.903   1.245
14787TIP3    H244305   2.024   3.996   1.128
14788TIP3   OH244306   0.852   3.125   4.882
14788TIP3    H144307   0.782   3.149   4.944
14788TIP3    H244308   0.928   3.109   4.937
14789TIP3   OH244309   2.557   2.248   6.728
14789TIP3    H144310   2.557   2.246   6.632
14789TIP3    H244311   2.618   2.179   6.753
14790TIP3   OH244312   2.441   7.264   6.412
14790TIP3    H144313   2.453   7.341   6.468
14790TIP3    H244314   2.346   7.253   6.406
14791TIP3   OH244315   0.524   0.801   5.181
14791TIP3    H144316   0.506   0.895   5.176
14791TIP3    H244317   0.441   0.762   5.208
14792TIP3   OH244318   0.144   5.249   4.495
14792TIP3    H144319   0.180   5.295   4.570
14792TIP3    H244320   0.063   5.295   4.475
14793TIP3   OH244321   6.427   5.846   0.477
14793TIP3    H144322   6.466   5.823   0.562
14793TIP3    H244323   6.351   5.788   0.469
14794TIP3   OH244324   6.431   1.663   0.924
14794TIP3    H144325   6.459   1.572   0.915
14794TIP3    H244326   6.491   1.712   0.867
14795TIP3   OH244327   7.579   3.160   1.991
14795TIP3    H144328   7.520   3.235   1.983
14795TIP3    H244329   7.526   3.085   1.966
14796TIP3   OH244330   5.935   7.629   0.285
14796TIP3    H144331   5.979   7.569   0.225
14796TIP3    H244332   5.856   7.657   0.238
14797TIP3   OH244333   8.011   7.329   1.426
14797TIP3    H144334   7.925   7.343   1.385
14797TIP3    H244335   7.991   7.280   1.506
14798TIP3   OH244336   0.293   3.694   0.938
14798TIP3    H144337   0.214   3.704   0.884
14798TIP3    H244338   0.267   3.723   1.025
14799TIP3   OH244339   1.546   0.832   1.605
14799TIP3    H144340   1.571   0.863   1.517
14799TIP3    H244341   1.519   0.741   1.591
14800TIP3   OH244342   4.394   3.413   4.622
14800TIP3    H144343   4.449   3.460   4.559
14800TIP3    H244344   4.306   3.449   4.608
14801TIP3   OH244345   1.584   5.956   5.850
14801TIP3    H144346   1.648   5.930   5.916
14801TIP3    H244347   1.625   6.031   5.806
14802TIP3   OH244348   4.248   3.526   3.614
14802TIP3    H144349   4.332   3.481   3.611
14802TIP3    H244350   4.205   3.505   3.531
14803TIP3   OH244351   0.759   3.397   5.773
14803TIP3    H144352   0.741   3.400   5.867
14803TIP3    H244353   0.832   3.336   5.764
14804TIP3   OH244354   2.694   3.982   5.364
14804TIP3    H144355   2.763   4.010   5.424
14804TIP3    H244356   2.660   3.901   5.402
14805TIP3   OH244357   6.426   5.096   5.189
14805TIP3    H144358   6.393   5.039   5.258
14805TIP3    H244359   6.521   5.082   5.190
14806TIP3   OH244360   0.829   6.800   0.205
14806TIP3    H144361   0.913   6.776   0.165
14806TIP3    H244362   0.831   6.895   0.212
14807TIP3   OH244363   2.586   1.800   0.280
14807TIP3    H144364   2.496   1.768   0.274
14807TIP3    H244365   2.639   1.729   0.245
14808TIP3   OH244366   2.520   0.408   0.518
14808TIP3    H144367   2.552   0.498   0.530
14808TIP3    H244368   2.453   0.397   0.587
14809TIP3   OH244369   5.835   0.300   4.799
14809TIP3    H144370   5.886   0.333   4.872
14809TIP3    H244371   5.891   0.313   4.722
14810TIP3   OH244372   5.099   3.033   4.391
14810TIP3    H144373   5.012   3.048   4.426
14810TIP3    H244374   5.158   3.077   4.452
14811TIP3   OH244375   2.114   3.007   3.905
14811TIP3    H144376   2.060   3.013   3.984
14811TIP3    H244377   2.148   2.917   3.907
14812TIP3   OH244378   4.439   3.433   1.667
14812TIP3    H144379   4.399   3.420   1.753
14812TIP3    H244380   4.373   3.481   1.617
14813TIP3   OH244381   3.981   7.008   0.062
14813TIP3    H144382   4.045   7.026   0.131
14813TIP3    H244383   3.994   7.078  -0.001
14814TIP3   OH244384   4.775   0.068   1.797
14814TIP3    H144385   4.732  -0.005   1.752
14814TIP3    H244386   4.868   0.059   1.776
14815TIP3   OH244387   7.142   3.158   5.986
14815TIP3    H144388   7.227   3.203   5.986
14815TIP3    H244389   7.079   3.228   6.003
14816TIP3   OH244390   5.829   0.707   6.330
14816TIP3    H144391   5.771   0.662   6.392
14816TIP3    H244392   5.770   0.754   6.271
14817TIP3   OH244393   0.034   3.944   0.137
14817TIP3    H144394   0.092   4.011   0.101
14817TIP3    H244395  -0.027   3.925   0.066
14818TIP3   OH244396   3.314   3.951   3.164
14818TIP3    H144397   3.324   3.979   3.255
14818TIP3    H244398   3.327   3.856   3.167
14819TIP3   OH244399   8.232   6.813   6.625
14819TIP3    H144400   8.285   6.803   6.704
14819TIP3    H244401   8.288   6.779   6.555
14820TIP3   OH244402   0.373   2.091   5.245
14820TIP3    H144403   0.460   2.095   5.206
14820TIP3    H244404   0.363   2.000   5.273
14821TIP3   OH244405   2.098   5.915   5.333
14821TIP3    H144406   2.073   5.862   5.408
14821TIP3    H244407   2.185   5.949   5.355
14822TIP3   OH244408   2.893   5.141   5.466
14822TIP3    H144409   2.923   5.102   5.384
14822TIP3    H244410   2.800   5.157   5.452
14823TIP3   OH244411   1.575   7.413   1.852
14823TIP3    H144412   1.491   7.444   1.818
14823TIP3    H244413   1.554   7.378   1.939
14824TIP3   OH244414   0.668   1.447   4.567
14824TIP3    H144415   0.759   1.475   4.564
14824TIP3    H244416   0.638   1.452   4.476
14825TIP3   OH244417   5.421   7.363   1.218
14825TIP3    H144418   5.454   7.303   1.151
14825TIP3    H244419   5.365   7.424   1.171
14826TIP3   OH244420   1.375   0.365   5.894
14826TIP3    H144421   1.360   0.274   5.869
14826TIP3    H244422   1.290   0.395   5.926
14827TIP3   OH244423   0.080   3.476   4.314
14827TIP3    H144424   0.075   3.422   4.393
14827TIP3    H244425   0.173   3.499   4.306
14828TIP3   OH244426   0.202   0.209   2.401
14828TIP3    H144427   0.180   0.288   2.350
14828TIP3    H244428   0.233   0.242   2.485
14829TIP3   OH244429   7.991   4.940   5.757
14829TIP3    H144430   7.933   5.016   5.747
14829TIP3    H244431   8.001   4.906   5.668
14830TIP3   OH244432  -0.006   5.307   3.755
14830TIP3    H144433   0.015   5.287   3.847
14830TIP3    H244434  -0.072   5.375   3.760
   8.28453   7.81073   6.76429   0.00000   0.00000  -2.76151   0.00000  -2.76151  -3.90536
