Title t= 179.00000 step= 89500
29212
    1ASP      N    1   2.422   1.495   2.575
    1ASP    HT1    2   2.344   1.503   2.643
    1ASP    HT2    3   2.478   1.581   2.592
    1ASP    HT3    4   2.477   1.412   2.603
    1ASP     CA    5   2.359   1.483   2.436
    1ASP     HA    6   2.356   1.580   2.388
    1ASP     CB    7   2.439   1.381   2.345
    1ASP    HB1    8   2.375   1.382   2.254
    1ASP    HB2    9   2.451   1.278   2.383
    1ASP     CG   10   2.579   1.435   2.313
    1ASP    OD1   11   2.620   1.539   2.362
    1ASP    OD2   12   2.642   1.378   2.219
    1ASP      C   13   2.218   1.445   2.456
    1ASP      O   14   2.136   1.532   2.495
    2GLY      N   15   2.185   1.313   2.446
    2GLY     HN   16   2.250   1.242   2.420
    2GLY     CA   17   2.055   1.253   2.468
    2GLY    HA1   18   2.029   1.279   2.569
    2GLY    HA2   19   2.058   1.148   2.444
    2GLY      C   20   1.938   1.304   2.389
    2GLY      O   21   1.945   1.332   2.268
    3ASP      N   22   1.823   1.306   2.460
    3ASP     HN   23   1.821   1.281   2.557
    3ASP     CA   24   1.685   1.348   2.417
    3ASP     HA   25   1.671   1.308   2.318
    3ASP     CB   26   1.567   1.305   2.515
    3ASP    HB1   27   1.469   1.351   2.491
    3ASP    HB2   28   1.592   1.340   2.618
    3ASP     CG   29   1.556   1.157   2.527
    3ASP    OD1   30   1.465   1.102   2.596
    3ASP    OD2   31   1.624   1.078   2.456
    3ASP      C   32   1.674   1.501   2.404
    3ASP      O   33   1.702   1.570   2.502
    4GLY      N   34   1.649   1.559   2.287
    4GLY     HN   35   1.619   1.507   2.207
    4GLY     CA   36   1.651   1.705   2.270
    4GLY    HA1   37   1.630   1.724   2.166
    4GLY    HA2   38   1.752   1.729   2.299
    4GLY      C   39   1.548   1.785   2.353
    4GLY      O   40   1.445   1.730   2.398
    5PRO      N   41   1.562   1.915   2.369
    5PRO     CD   42   1.667   1.991   2.307
    5PRO    HD1   43   1.637   1.980   2.200
    5PRO    HD2   44   1.767   1.947   2.324
    5PRO     CA   45   1.497   1.991   2.480
    5PRO     HA   46   1.491   1.933   2.571
    5PRO     CB   47   1.577   2.121   2.483
    5PRO    HB1   48   1.632   2.132   2.579
    5PRO    HB2   49   1.515   2.213   2.478
    5PRO     CG   50   1.661   2.131   2.355
    5PRO    HG1   51   1.626   2.208   2.283
    5PRO    HG2   52   1.763   2.166   2.382
    5PRO      C   53   1.356   2.026   2.452
    5PRO      O   54   1.318   2.070   2.342
    6GLY      N   55   1.271   2.015   2.553
    6GLY     HN   56   1.300   1.968   2.636
    6GLY     CA   57   1.135   2.061   2.545
    6GLY    HA1   58   1.073   1.976   2.519
    6GLY    HA2   59   1.120   2.148   2.484
    6GLY      C   60   1.082   2.095   2.683
    6GLY      O   61   1.158   2.121   2.783
    7ASP      N   62   0.946   2.097   2.701
    7ASP     HN   63   0.888   2.059   2.628
    7ASP     CA   64   0.876   2.117   2.829
    7ASP     HA   65   0.920   2.205   2.874
    7ASP     CB   66   0.723   2.128   2.811
    7ASP    HB1   67   0.675   2.129   2.911
    7ASP    HB2   68   0.693   2.037   2.754
    7ASP     CG   69   0.680   2.251   2.738
    7ASP    OD1   70   0.556   2.268   2.700
    7ASP    OD2   71   0.757   2.349   2.732
    7ASP      C   72   0.905   2.017   2.941
    7ASP      O   73   0.905   1.899   2.907
    8PRO      N   74   0.927   2.050   3.074
    8PRO     CD   75   0.907   2.188   3.123
    8PRO    HD1   76   0.797   2.204   3.125
    8PRO    HD2   77   0.945   2.272   3.061
    8PRO     CA   78   0.955   1.955   3.189
    8PRO     HA   79   1.062   1.942   3.188
    8PRO     CB   80   0.926   2.048   3.312
    8PRO    HB1   81   0.988   2.015   3.397
    8PRO    HB2   82   0.820   2.040   3.346
    8PRO     CG   83   0.957   2.187   3.265
    8PRO    HG1   84   0.924   2.273   3.326
    8PRO    HG2   85   1.066   2.197   3.249
    8PRO      C   86   0.885   1.822   3.190
    8PRO      O   87   0.764   1.812   3.181
    9GLY      N   88   0.966   1.720   3.233
    9GLY     HN   89   1.061   1.746   3.247
    9GLY     CA   90   0.925   1.591   3.283
    9GLY    HA1   91   1.017   1.540   3.307
    9GLY    HA2   92   0.869   1.534   3.211
    9GLY      C   93   0.838   1.609   3.409
    9GLY      O   94   0.818   1.716   3.464
   10ASP      N   95   0.794   1.497   3.465
   10ASP     HN   96   0.828   1.412   3.425
   10ASP     CA   97   0.721   1.486   3.591
   10ASP     HA   98   0.628   1.539   3.577
   10ASP     CB   99   0.683   1.335   3.615
   10ASP    HB1  100   0.668   1.312   3.723
   10ASP    HB2  101   0.776   1.285   3.580
   10ASP     CG  102   0.567   1.289   3.539
   10ASP    OD1  103   0.497   1.365   3.467
   10ASP    OD2  104   0.537   1.167   3.546
   10ASP      C  105   0.803   1.542   3.716
   10ASP      O  106   0.925   1.542   3.723
   11GLY      N  107   0.719   1.604   3.802
   11GLY     HN  108   0.621   1.604   3.781
   11GLY     CA  109   0.766   1.667   3.925
   11GLY    HA1  110   0.839   1.614   3.984
   11GLY    HA2  111   0.681   1.689   3.987
   11GLY      C  112   0.828   1.804   3.901
   11GLY    OT1  113   0.933   1.827   3.965
   11GLY    OT2  114   0.783   1.893   3.827
   12LIT    LIT  115   0.073   0.279   1.641
   13LIT    LIT  116   5.636   6.165   0.825
   14LIT    LIT  117   4.536   2.966   5.833
   15LIT    LIT  118   2.451   0.000   2.389
   16LIT    LIT  119   0.916   2.008   3.904
   17LIT    LIT  120   4.321   6.322   3.011
   18LIT    LIT  121   3.542   3.327   3.214
   19LIT    LIT  122   1.901   4.364   0.947
   20LIT    LIT  123   7.185   1.958   5.121
   21LIT    LIT  124   0.154   6.376   3.236
   22LIT    LIT  125   4.654   1.434   4.846
   23LIT    LIT  126   6.517   0.063   1.037
   24LIT    LIT  127   6.475   4.195   5.081
   25LIT    LIT  128   0.407   2.284   2.806
   26LIT    LIT  129   0.425   1.217   3.390
   27LIT    LIT  130   2.738   0.712   3.528
   28LIT    LIT  131   2.228   5.659   5.640
   29LIT    LIT  132   5.749   4.006   4.165
   30LIT    LIT  133   6.624   1.943   1.524
   31LIT    LIT  134   4.575   1.083   2.182
   32LIT    LIT  135   5.195   3.157   0.225
   33LIT    LIT  136   3.748   4.275   2.389
   34LIT    LIT  137   5.161   1.230   4.451
   35LIT    LIT  138   1.143   1.414   2.205
   36LIT    LIT  139   5.602   6.106   2.912
   37LIT    LIT  140   0.853   3.154   0.595
   38LIT    LIT  141   4.510   6.432   1.211
   39LIT    LIT  142   2.800   1.470   2.294
   40LIT    LIT  143   2.271   5.415   1.779
   41LIT    LIT  144   1.533   1.766   4.773
   42LIT    LIT  145   1.506   0.931   2.493
   43CLA    CLA  146   2.265   5.342   2.001
   44CLA    CLA  147   2.896   1.060   4.186
   45CLA    CLA  148   1.957   3.853   2.759
   46CLA    CLA  149   5.914   3.545   0.895
   47CLA    CLA  150   0.845   1.235   1.916
   48CLA    CLA  151   3.870   6.733   1.353
   49CLA    CLA  152   1.831   4.720   3.336
   50CLA    CLA  153   0.905   4.006   1.631
   51CLA    CLA  154   6.454   2.238   2.173
   52CLA    CLA  155   3.627   4.957   3.223
   53CLA    CLA  156   2.970   2.780   3.776
   54CLA    CLA  157   3.754   1.897   1.016
   55CLA    CLA  158   5.740   1.595   4.859
   56CLA    CLA  159   6.997   1.340   4.883
   57CLA    CLA  160   4.620   3.079   4.522
   58CLA    CLA  161   3.595   4.111   2.426
   59CLA    CLA  162   4.777   0.954   2.930
   60CLA    CLA  163   2.578   0.722   3.039
   61CLA    CLA  164   1.102   0.111   1.094
   62CLA    CLA  165   0.832   0.585   2.960
   63CLA    CLA  166   2.382   4.356   5.353
   64CLA    CLA  167   3.925   4.196   0.784
   65CLA    CLA  168   6.574   3.948   4.520
   66CLA    CLA  169   1.081   5.154   3.003
   67CLA    CLA  170   6.453   1.030   1.352
   68CLA    CLA  171   3.886   5.470   5.412
   69CLA    CLA  172   3.317   4.866   4.084
   70TIP3   OH2  173   4.640   4.609   0.209
   70TIP3    H1  174   4.568   4.661   0.244
   70TIP3    H2  175   4.641   4.530   0.262
   71TIP3   OH2  176   5.082   1.467   1.772
   71TIP3    H1  177   5.020   1.417   1.825
   71TIP3    H2  178   5.165   1.420   1.782
   72TIP3   OH2  179   0.241   4.783   4.024
   72TIP3    H1  180   0.277   4.712   4.077
   72TIP3    H2  181   0.237   4.748   3.935
   73TIP3   OH2  182   6.074   4.457   4.950
   73TIP3    H1  183   5.986   4.445   4.916
   73TIP3    H2  184   6.068   4.433   5.042
   74TIP3   OH2  185   3.141   6.184   5.669
   74TIP3    H1  186   3.088   6.199   5.747
   74TIP3    H2  187   3.093   6.228   5.598
   75TIP3   OH2  188   4.906   3.425   0.755
   75TIP3    H1  189   4.851   3.377   0.817
   75TIP3    H2  190   4.847   3.487   0.713
   76TIP3   OH2  191   6.865   3.484   0.499
   76TIP3    H1  192   6.856   3.469   0.593
   76TIP3    H2  193   6.909   3.569   0.492
   77TIP3   OH2  194   6.508   4.828   5.414
   77TIP3    H1  195   6.447   4.894   5.383
   77TIP3    H2  196   6.465   4.744   5.396
   78TIP3   OH2  197   2.333   4.919   3.380
   78TIP3    H1  198   2.359   4.976   3.453
   78TIP3    H2  199   2.239   4.907   3.391
   79TIP3   OH2  200   0.279   5.682   5.388
   79TIP3    H1  201   0.326   5.687   5.471
   79TIP3    H2  202   0.296   5.766   5.345
   80TIP3   OH2  203   5.158   2.084   1.205
   80TIP3    H1  204   5.237   2.048   1.163
   80TIP3    H2  205   5.125   2.013   1.260
   81TIP3   OH2  206   6.526   3.156   3.176
   81TIP3    H1  207   6.431   3.152   3.192
   81TIP3    H2  208   6.550   3.245   3.201
   82TIP3   OH2  209   3.233   3.569   5.698
   82TIP3    H1  210   3.210   3.504   5.632
   82TIP3    H2  211   3.284   3.635   5.650
   83TIP3   OH2  212   3.283   4.865   4.986
   83TIP3    H1  213   3.341   4.800   5.025
   83TIP3    H2  214   3.266   4.832   4.898
   84TIP3   OH2  215   4.985   2.544   3.369
   84TIP3    H1  216   4.916   2.609   3.380
   84TIP3    H2  217   4.967   2.503   3.285
   85TIP3   OH2  218   5.021   6.467   3.484
   85TIP3    H1  219   5.053   6.432   3.401
   85TIP3    H2  220   5.077   6.543   3.501
   86TIP3   OH2  221   5.477   6.066   1.717
   86TIP3    H1  222   5.429   6.098   1.793
   86TIP3    H2  223   5.524   6.143   1.683
   87TIP3   OH2  224   4.991   5.653   1.755
   87TIP3    H1  225   5.040   5.576   1.784
   87TIP3    H2  226   4.906   5.618   1.729
   88TIP3   OH2  227   2.148   4.433   3.832
   88TIP3    H1  228   2.183   4.507   3.882
   88TIP3    H2  229   2.198   4.357   3.861
   89TIP3   OH2  230   6.476   6.500   1.617
   89TIP3    H1  231   6.453   6.419   1.573
   89TIP3    H2  232   6.512   6.472   1.702
   90TIP3   OH2  233   4.492   2.511   0.841
   90TIP3    H1  234   4.526   2.585   0.892
   90TIP3    H2  235   4.408   2.542   0.807
   91TIP3   OH2  236   4.407   3.177   5.354
   91TIP3    H1  237   4.446   3.146   5.272
   91TIP3    H2  238   4.436   3.268   5.362
   92TIP3   OH2  239   3.520   0.149   0.771
   92TIP3    H1  240   3.585   0.220   0.771
   92TIP3    H2  241   3.474   0.159   0.854
   93TIP3   OH2  242   0.676   6.391   3.365
   93TIP3    H1  243   0.664   6.456   3.434
   93TIP3    H2  244   0.638   6.311   3.401
   94TIP3   OH2  245   2.556   4.779   0.084
   94TIP3    H1  246   2.463   4.757   0.085
   94TIP3    H2  247   2.589   4.748   0.169
   95TIP3   OH2  248   2.058   3.075   5.658
   95TIP3    H1  249   2.015   3.107   5.738
   95TIP3    H2  250   2.151   3.077   5.680
   96TIP3   OH2  251   6.640   6.109   2.047
   96TIP3    H1  252   6.722   6.154   2.065
   96TIP3    H2  253   6.637   6.102   1.952
   97TIP3   OH2  254   2.676   4.235   4.314
   97TIP3    H1  255   2.731   4.277   4.249
   97TIP3    H2  256   2.590   4.228   4.273
   98TIP3   OH2  257   0.691   4.542   2.298
   98TIP3    H1  258   0.676   4.608   2.365
   98TIP3    H2  259   0.605   4.500   2.286
   99TIP3   OH2  260   2.086   4.161   4.006
   99TIP3    H1  261   2.011   4.196   3.958
   99TIP3    H2  262   2.090   4.214   4.086
  100TIP3   OH2  263   3.823   5.856   4.624
  100TIP3    H1  264   3.902   5.846   4.572
  100TIP3    H2  265   3.765   5.910   4.570
  101TIP3   OH2  266   5.577   3.539   2.776
  101TIP3    H1  267   5.493   3.511   2.740
  101TIP3    H2  268   5.603   3.613   2.722
  102TIP3   OH2  269   4.799   2.137   0.254
  102TIP3    H1  270   4.844   2.092   0.183
  102TIP3    H2  271   4.715   2.164   0.216
  103TIP3   OH2  272   0.634   1.399   1.274
  103TIP3    H1  273   0.725   1.373   1.289
  103TIP3    H2  274   0.600   1.420   1.361
  104TIP3   OH2  275   5.559   3.929   4.814
  104TIP3    H1  276   5.479   3.961   4.853
  104TIP3    H2  277   5.568   3.839   4.847
  105TIP3   OH2  278   4.752   2.944   2.142
  105TIP3    H1  279   4.662   2.927   2.114
  105TIP3    H2  280   4.801   2.950   2.060
  106TIP3   OH2  281   4.848   6.415   5.246
  106TIP3    H1  282   4.923   6.446   5.297
  106TIP3    H2  283   4.880   6.413   5.156
  107TIP3   OH2  284   0.806   6.522   5.030
  107TIP3    H1  285   0.753   6.584   5.081
  107TIP3    H2  286   0.786   6.437   5.070
  108TIP3   OH2  287   3.486   5.956   2.251
  108TIP3    H1  288   3.437   5.897   2.308
  108TIP3    H2  289   3.562   5.904   2.222
  109TIP3   OH2  290   7.118   4.042   4.737
  109TIP3    H1  291   7.053   4.057   4.668
  109TIP3    H2  292   7.193   4.096   4.711
  110TIP3   OH2  293   0.104   6.620   3.581
  110TIP3    H1  294   0.049   6.692   3.551
  110TIP3    H2  295   0.178   6.662   3.624
  111TIP3   OH2  296   6.616   3.167   0.874
  111TIP3    H1  297   6.536   3.194   0.919
  111TIP3    H2  298   6.651   3.096   0.929
  112TIP3   OH2  299   3.138   5.465   0.623
  112TIP3    H1  300   3.056   5.504   0.592
  112TIP3    H2  301   3.185   5.442   0.543
  113TIP3   OH2  302   1.397   4.962   2.428
  113TIP3    H1  303   1.492   4.961   2.420
  113TIP3    H2  304   1.366   5.004   2.348
  114TIP3   OH2  305   1.447   1.935   5.148
  114TIP3    H1  306   1.429   1.843   5.170
  114TIP3    H2  307   1.529   1.955   5.193
  115TIP3   OH2  308   4.024   0.499   2.072
  115TIP3    H1  309   4.025   0.495   2.168
  115TIP3    H2  310   3.974   0.578   2.051
  116TIP3   OH2  311   1.458   0.039   5.030
  116TIP3    H1  312   1.522  -0.006   5.086
  116TIP3    H2  313   1.483   0.131   5.034
  117TIP3   OH2  314   6.159   0.250   2.181
  117TIP3    H1  315   6.200   0.312   2.121
  117TIP3    H2  316   6.082   0.219   2.135
  118TIP3   OH2  317   6.844   2.227   0.750
  118TIP3    H1  318   6.814   2.317   0.739
  118TIP3    H2  319   6.856   2.217   0.845
  119TIP3   OH2  320   2.808   1.667   2.046
  119TIP3    H1  321   2.794   1.745   1.993
  119TIP3    H2  322   2.734   1.609   2.024
  120TIP3   OH2  323   3.047   4.815   1.445
  120TIP3    H1  324   3.028   4.876   1.373
  120TIP3    H2  325   3.138   4.790   1.432
  121TIP3   OH2  326   6.464   3.442   5.604
  121TIP3    H1  327   6.397   3.497   5.644
  121TIP3    H2  328   6.545   3.493   5.612
  122TIP3   OH2  329   5.360   3.608   2.409
  122TIP3    H1  330   5.403   3.673   2.465
  122TIP3    H2  331   5.349   3.652   2.325
  123TIP3   OH2  332   0.437   4.117   1.696
  123TIP3    H1  333   0.503   4.106   1.765
  123TIP3    H2  334   0.463   4.055   1.628
  124TIP3   OH2  335   6.231   0.343   0.454
  124TIP3    H1  336   6.211   0.250   0.449
  124TIP3    H2  337   6.206   0.377   0.368
  125TIP3   OH2  338   5.104   1.523   2.986
  125TIP3    H1  339   5.123   1.434   2.958
  125TIP3    H2  340   5.013   1.520   3.016
  126TIP3   OH2  341   6.886   4.404   2.287
  126TIP3    H1  342   6.966   4.441   2.249
  126TIP3    H2  343   6.867   4.459   2.362
  127TIP3   OH2  344   0.393   3.132   5.687
  127TIP3    H1  345   0.316   3.168   5.643
  127TIP3    H2  346   0.390   3.170   5.775
  128TIP3   OH2  347   4.199   6.154   0.538
  128TIP3    H1  348   4.140   6.156   0.463
  128TIP3    H2  349   4.169   6.079   0.590
  129TIP3   OH2  350   1.001   0.741   0.852
  129TIP3    H1  351   0.959   0.817   0.892
  129TIP3    H2  352   0.999   0.674   0.921
  130TIP3   OH2  353   0.229   0.190   3.073
  130TIP3    H1  354   0.224   0.098   3.099
  130TIP3    H2  355   0.320   0.204   3.049
  131TIP3   OH2  356   6.514   2.097   4.362
  131TIP3    H1  357   6.463   2.161   4.313
  131TIP3    H2  358   6.518   2.133   4.451
  132TIP3   OH2  359   5.835   2.225   2.756
  132TIP3    H1  360   5.908   2.164   2.750
  132TIP3    H2  361   5.874   2.311   2.739
  133TIP3   OH2  362   1.467   3.231   3.686
  133TIP3    H1  363   1.447   3.309   3.738
  133TIP3    H2  364   1.522   3.177   3.743
  134TIP3   OH2  365   5.027   5.214   5.730
  134TIP3    H1  366   5.023   5.141   5.791
  134TIP3    H2  367   5.035   5.173   5.644
  135TIP3   OH2  368   1.639   5.868   4.469
  135TIP3    H1  369   1.607   5.844   4.382
  135TIP3    H2  370   1.709   5.805   4.486
  136TIP3   OH2  371   2.238   3.780   3.173
  136TIP3    H1  372   2.244   3.789   3.078
  136TIP3    H2  373   2.144   3.783   3.191
  137TIP3   OH2  374   2.965   6.389   4.776
  137TIP3    H1  375   2.969   6.344   4.691
  137TIP3    H2  376   2.986   6.321   4.840
  138TIP3   OH2  377   5.796   1.514   2.221
  138TIP3    H1  378   5.855   1.511   2.146
  138TIP3    H2  379   5.797   1.606   2.249
  139TIP3   OH2  380   6.107   1.766   4.962
  139TIP3    H1  381   6.111   1.670   4.963
  139TIP3    H2  382   6.023   1.786   5.004
  140TIP3   OH2  383   2.730   5.299   4.369
  140TIP3    H1  384   2.792   5.239   4.328
  140TIP3    H2  385   2.668   5.321   4.300
  141TIP3   OH2  386   7.212   5.864   5.405
  141TIP3    H1  387   7.263   5.928   5.356
  141TIP3    H2  388   7.249   5.779   5.381
  142TIP3   OH2  389   0.432   6.224   4.120
  142TIP3    H1  390   0.351   6.177   4.142
  142TIP3    H2  391   0.481   6.162   4.065
  143TIP3   OH2  392   6.898   6.086   3.060
  143TIP3    H1  393   6.896   6.016   3.125
  143TIP3    H2  394   6.895   6.167   3.112
  144TIP3   OH2  395   1.243   2.273   3.404
  144TIP3    H1  396   1.238   2.301   3.313
  144TIP3    H2  397   1.159   2.298   3.442
  145TIP3   OH2  398   4.197   5.507   4.597
  145TIP3    H1  399   4.162   5.421   4.621
  145TIP3    H2  400   4.121   5.556   4.566
  146TIP3   OH2  401   4.983   3.443   3.829
  146TIP3    H1  402   4.973   3.535   3.802
  146TIP3    H2  403   4.928   3.394   3.767
  147TIP3   OH2  404   3.339   5.024   0.929
  147TIP3    H1  405   3.339   5.079   0.851
  147TIP3    H2  406   3.432   5.008   0.947
  148TIP3   OH2  407   4.103   1.417   1.670
  148TIP3    H1  408   4.140   1.450   1.588
  148TIP3    H2  409   4.095   1.322   1.656
  149TIP3   OH2  410   6.348   1.413   4.506
  149TIP3    H1  411   6.319   1.480   4.567
  149TIP3    H2  412   6.276   1.351   4.502
  150TIP3   OH2  413   0.365   5.004   2.958
  150TIP3    H1  414   0.399   5.013   2.869
  150TIP3    H2  415   0.427   5.053   3.012
  151TIP3   OH2  416   6.583   1.748   4.380
  151TIP3    H1  417   6.555   1.663   4.346
  151TIP3    H2  418   6.565   1.809   4.309
  152TIP3   OH2  419   6.141   3.995   0.176
  152TIP3    H1  420   6.086   3.928   0.135
  152TIP3    H2  421   6.193   3.947   0.240
  153TIP3   OH2  422   0.479   3.170   3.536
  153TIP3    H1  423   0.520   3.177   3.450
  153TIP3    H2  424   0.386   3.159   3.518
  154TIP3   OH2  425   0.709   4.848   3.931
  154TIP3    H1  426   0.682   4.792   3.857
  154TIP3    H2  427   0.659   4.814   4.005
  155TIP3   OH2  428   3.873   4.752   3.758
  155TIP3    H1  429   3.862   4.712   3.844
  155TIP3    H2  430   3.815   4.828   3.759
  156TIP3   OH2  431   1.686   3.807   4.117
  156TIP3    H1  432   1.602   3.778   4.153
  156TIP3    H2  433   1.738   3.727   4.108
  157TIP3   OH2  434   6.490   3.152   5.865
  157TIP3    H1  435   6.469   3.140   5.772
  157TIP3    H2  436   6.424   3.213   5.897
  158TIP3   OH2  437   2.051   6.383   1.437
  158TIP3    H1  438   2.034   6.468   1.476
  158TIP3    H2  439   2.118   6.399   1.371
  159TIP3   OH2  440   5.487   0.482   0.768
  159TIP3    H1  441   5.469   0.575   0.754
  159TIP3    H2  442   5.435   0.459   0.844
  160TIP3   OH2  443   0.095   3.371   0.694
  160TIP3    H1  444   0.128   3.406   0.611
  160TIP3    H2  445   0.149   3.413   0.761
  161TIP3   OH2  446   6.550   2.643   1.603
  161TIP3    H1  447   6.640   2.674   1.607
  161TIP3    H2  448   6.534   2.628   1.509
  162TIP3   OH2  449   5.086   0.905   4.656
  162TIP3    H1  450   5.072   0.829   4.600
  162TIP3    H2  451   5.174   0.936   4.635
  163TIP3   OH2  452   0.886   6.008   4.159
  163TIP3    H1  453   0.910   5.938   4.219
  163TIP3    H2  454   0.940   5.992   4.081
  164TIP3   OH2  455   4.855   5.469   2.174
  164TIP3    H1  456   4.944   5.438   2.190
  164TIP3    H2  457   4.843   5.461   2.080
  165TIP3   OH2  458   2.803   5.707   0.778
  165TIP3    H1  459   2.713   5.723   0.751
  165TIP3    H2  460   2.828   5.626   0.733
  166TIP3   OH2  461   5.651   5.251   5.585
  166TIP3    H1  462   5.615   5.296   5.661
  166TIP3    H2  463   5.665   5.161   5.614
  167TIP3   OH2  464   6.083   2.997   1.252
  167TIP3    H1  465   6.006   3.031   1.299
  167TIP3    H2  466   6.065   2.904   1.242
  168TIP3   OH2  467   4.963   5.328   3.414
  168TIP3    H1  468   4.926   5.329   3.503
  168TIP3    H2  469   4.928   5.249   3.374
  169TIP3   OH2  470   5.853   4.825   5.657
  169TIP3    H1  471   5.821   4.743   5.695
  169TIP3    H2  472   5.943   4.833   5.690
  170TIP3   OH2  473   5.929   1.628   0.548
  170TIP3    H1  474   5.908   1.720   0.567
  170TIP3    H2  475   5.977   1.632   0.466
  171TIP3   OH2  476   5.904   6.410   0.374
  171TIP3    H1  477   5.834   6.425   0.310
  171TIP3    H2  478   5.875   6.458   0.452
  172TIP3   OH2  479   4.392   2.507   4.808
  172TIP3    H1  480   4.346   2.567   4.865
  172TIP3    H2  481   4.483   2.508   4.838
  173TIP3   OH2  482   4.265   6.276   5.431
  173TIP3    H1  483   4.193   6.223   5.396
  173TIP3    H2  484   4.248   6.280   5.525
  174TIP3   OH2  485   6.541   5.367   2.113
  174TIP3    H1  486   6.459   5.394   2.073
  174TIP3    H2  487   6.607   5.385   2.047
  175TIP3   OH2  488   4.955   6.557   1.207
  175TIP3    H1  489   4.997   6.643   1.211
  175TIP3    H2  490   4.974   6.517   1.292
  176TIP3   OH2  491   4.535   5.937   0.487
  176TIP3    H1  492   4.496   6.020   0.460
  176TIP3    H2  493   4.629   5.953   0.488
  177TIP3   OH2  494   2.429   5.071   3.594
  177TIP3    H1  495   2.493   5.129   3.636
  177TIP3    H2  496   2.451   4.984   3.625
  178TIP3   OH2  497   3.155   4.916   3.550
  178TIP3    H1  498   3.139   5.008   3.527
  178TIP3    H2  499   3.247   4.901   3.526
  179TIP3   OH2  500   6.572   2.545   0.096
  179TIP3    H1  501   6.567   2.641   0.095
  179TIP3    H2  502   6.664   2.526   0.080
  180TIP3   OH2  503   2.476   1.412   1.179
  180TIP3    H1  504   2.497   1.484   1.237
  180TIP3    H2  505   2.381   1.416   1.168
  181TIP3   OH2  506   6.187   5.793   4.225
  181TIP3    H1  507   6.198   5.752   4.139
  181TIP3    H2  508   6.169   5.885   4.206
  182TIP3   OH2  509   1.128   0.896   1.898
  182TIP3    H1  510   1.107   0.890   1.805
  182TIP3    H2  511   1.121   0.989   1.918
  183TIP3   OH2  512   4.303   0.454   2.788
  183TIP3    H1  513   4.322   0.548   2.785
  183TIP3    H2  514   4.236   0.445   2.856
  184TIP3   OH2  515   0.043   5.518   1.504
  184TIP3    H1  516   0.024   5.589   1.443
  184TIP3    H2  517  -0.018   5.532   1.577
  185TIP3   OH2  518   4.277   4.355   2.879
  185TIP3    H1  519   4.221   4.416   2.928
  185TIP3    H2  520   4.344   4.329   2.942
  186TIP3   OH2  521   3.388   1.853   2.055
  186TIP3    H1  522   3.414   1.919   2.120
  186TIP3    H2  523   3.301   1.881   2.027
  187TIP3   OH2  524   6.640   4.364   3.751
  187TIP3    H1  525   6.589   4.351   3.671
  187TIP3    H2  526   6.576   4.397   3.814
  188TIP3   OH2  527   4.674   4.447   0.437
  188TIP3    H1  528   4.722   4.476   0.515
  188TIP3    H2  529   4.582   4.454   0.463
  189TIP3   OH2  530   6.163   1.969   5.166
  189TIP3    H1  531   6.125   1.915   5.235
  189TIP3    H2  532   6.224   1.910   5.121
  190TIP3   OH2  533   5.847   3.653   0.527
  190TIP3    H1  534   5.888   3.667   0.612
  190TIP3    H2  535   5.812   3.564   0.532
  191TIP3   OH2  536   2.775   3.838   0.179
  191TIP3    H1  537   2.715   3.826   0.252
  191TIP3    H2  538   2.748   3.771   0.115
  192TIP3   OH2  539   1.498   0.173   1.364
  192TIP3    H1  540   1.417   0.121   1.369
  192TIP3    H2  541   1.479   0.250   1.417
  193TIP3   OH2  542   5.187   0.968   3.452
  193TIP3    H1  543   5.273   0.965   3.409
  193TIP3    H2  544   5.182   0.886   3.501
  194TIP3   OH2  545   0.786   3.206   5.394
  194TIP3    H1  546   0.693   3.204   5.371
  194TIP3    H2  547   0.787   3.226   5.487
  195TIP3   OH2  548   1.847   0.933   0.811
  195TIP3    H1  549   1.849   0.969   0.722
  195TIP3    H2  550   1.939   0.911   0.829
  196TIP3   OH2  551   0.446   0.054   5.036
  196TIP3    H1  552   0.500   0.077   5.111
  196TIP3    H2  553   0.411   0.138   5.005
  197TIP3   OH2  554   7.008   4.362   3.008
  197TIP3    H1  555   7.088   4.330   3.051
  197TIP3    H2  556   7.001   4.310   2.928
  198TIP3   OH2  557   1.026   4.987   4.399
  198TIP3    H1  558   0.955   4.992   4.464
  198TIP3    H2  559   1.031   4.893   4.378
  199TIP3   OH2  560   5.522   1.435   2.805
  199TIP3    H1  561   5.501   1.423   2.898
  199TIP3    H2  562   5.458   1.382   2.758
  200TIP3   OH2  563   3.859   0.751   4.287
  200TIP3    H1  564   3.869   0.795   4.203
  200TIP3    H2  565   3.947   0.755   4.326
  201TIP3   OH2  566   4.023   2.628   5.415
  201TIP3    H1  567   4.030   2.722   5.432
  201TIP3    H2  568   4.092   2.588   5.468
  202TIP3   OH2  569   3.086   0.567   0.576
  202TIP3    H1  570   3.078   0.472   0.591
  202TIP3    H2  571   3.170   0.577   0.532
  203TIP3   OH2  572   0.919   4.387   2.342
  203TIP3    H1  573   0.960   4.370   2.257
  203TIP3    H2  574   0.833   4.422   2.320
  204TIP3   OH2  575   2.916   1.327   1.859
  204TIP3    H1  576   2.986   1.322   1.794
  204TIP3    H2  577   2.841   1.362   1.812
  205TIP3   OH2  578   2.942   1.489   3.907
  205TIP3    H1  579   2.856   1.484   3.865
  205TIP3    H2  580   2.994   1.545   3.850
  206TIP3   OH2  581   0.071   4.987   4.067
  206TIP3    H1  582   0.133   4.917   4.083
  206TIP3    H2  583  -0.015   4.946   4.077
  207TIP3   OH2  584   2.814   0.868   4.728
  207TIP3    H1  585   2.737   0.898   4.679
  207TIP3    H2  586   2.872   0.832   4.661
  208TIP3   OH2  587   3.068   3.152   0.512
  208TIP3    H1  588   3.020   3.116   0.586
  208TIP3    H2  589   3.122   3.222   0.551
  209TIP3   OH2  590   5.138   1.291   5.446
  209TIP3    H1  591   5.179   1.205   5.434
  209TIP3    H2  592   5.044   1.272   5.447
  210TIP3   OH2  593   2.521   3.870   3.242
  210TIP3    H1  594   2.523   3.935   3.172
  210TIP3    H2  595   2.459   3.804   3.212
  211TIP3   OH2  596   6.369   2.355   1.436
  211TIP3    H1  597   6.303   2.366   1.368
  211TIP3    H2  598   6.417   2.276   1.410
  212TIP3   OH2  599   0.636   5.437   3.744
  212TIP3    H1  600   0.715   5.410   3.697
  212TIP3    H2  601   0.624   5.370   3.811
  213TIP3   OH2  602   1.923   2.990   4.265
  213TIP3    H1  603   1.914   2.960   4.355
  213TIP3    H2  604   1.944   3.083   4.272
  214TIP3   OH2  605   0.992   1.589   1.045
  214TIP3    H1  606   0.914   1.625   1.002
  214TIP3    H2  607   0.982   1.494   1.037
  215TIP3   OH2  608   6.838   1.200   4.563
  215TIP3    H1  609   6.782   1.122   4.567
  215TIP3    H2  610   6.776   1.273   4.566
  216TIP3   OH2  611   6.426   0.325   3.331
  216TIP3    H1  612   6.421   0.375   3.413
  216TIP3    H2  613   6.384   0.381   3.266
  217TIP3   OH2  614   3.228   3.927   5.315
  217TIP3    H1  615   3.179   3.846   5.302
  217TIP3    H2  616   3.230   3.939   5.409
  218TIP3   OH2  617   3.365   3.750   0.044
  218TIP3    H1  618   3.287   3.805   0.034
  218TIP3    H2  619   3.370   3.701  -0.038
  219TIP3   OH2  620   4.978   1.920   1.913
  219TIP3    H1  621   5.041   1.878   1.972
  219TIP3    H2  622   5.011   2.010   1.903
  220TIP3   OH2  623   4.086   4.203   5.656
  220TIP3    H1  624   4.113   4.293   5.638
  220TIP3    H2  625   4.119   4.185   5.744
  221TIP3   OH2  626   2.170   4.925   5.084
  221TIP3    H1  627   2.199   4.872   5.010
  221TIP3    H2  628   2.136   4.861   5.147
  222TIP3   OH2  629   1.648   3.463   1.370
  222TIP3    H1  630   1.667   3.469   1.463
  222TIP3    H2  631   1.671   3.373   1.346
  223TIP3   OH2  632   3.661   1.763   4.389
  223TIP3    H1  633   3.615   1.752   4.472
  223TIP3    H2  634   3.732   1.825   4.409
  224TIP3   OH2  635   3.310   5.819   1.220
  224TIP3    H1  636   3.379   5.886   1.220
  224TIP3    H2  637   3.229   5.869   1.220
  225TIP3   OH2  638   4.808   1.652   5.317
  225TIP3    H1  639   4.902   1.664   5.324
  225TIP3    H2  640   4.786   1.588   5.384
  226TIP3   OH2  641   1.839   3.148   0.592
  226TIP3    H1  642   1.769   3.201   0.631
  226TIP3    H2  643   1.804   3.122   0.507
  227TIP3   OH2  644   3.891   0.132   2.165
  227TIP3    H1  645   3.892   0.161   2.257
  227TIP3    H2  646   3.892   0.037   2.169
  228TIP3   OH2  647   4.344   5.051   3.040
  228TIP3    H1  648   4.256   5.013   3.039
  228TIP3    H2  649   4.361   5.075   2.949
  229TIP3   OH2  650   1.364   3.232   1.228
  229TIP3    H1  651   1.393   3.163   1.287
  229TIP3    H2  652   1.339   3.304   1.286
  230TIP3   OH2  653   2.892   1.030   1.891
  230TIP3    H1  654   2.868   1.123   1.898
  230TIP3    H2  655   2.813   0.982   1.914
  231TIP3   OH2  656   3.987   3.897   2.122
  231TIP3    H1  657   3.975   3.947   2.041
  231TIP3    H2  658   4.079   3.871   2.121
  232TIP3   OH2  659   0.435   3.763   4.556
  232TIP3    H1  660   0.458   3.727   4.471
  232TIP3    H2  661   0.384   3.694   4.598
  233TIP3   OH2  662   6.280   4.452   2.077
  233TIP3    H1  663   6.342   4.505   2.026
  233TIP3    H2  664   6.335   4.406   2.140
  234TIP3   OH2  665   1.816   2.292   2.099
  234TIP3    H1  666   1.741   2.350   2.108
  234TIP3    H2  667   1.872   2.315   2.174
  235TIP3   OH2  668   1.783   4.890   5.148
  235TIP3    H1  669   1.697   4.848   5.147
  235TIP3    H2  670   1.844   4.817   5.154
  236TIP3   OH2  671   2.005   3.145   3.363
  236TIP3    H1  672   1.970   3.086   3.429
  236TIP3    H2  673   1.932   3.160   3.303
  237TIP3   OH2  674   5.112   4.079   4.767
  237TIP3    H1  675   5.120   4.168   4.732
  237TIP3    H2  676   5.081   4.027   4.692
  238TIP3   OH2  677   5.818   1.703   3.779
  238TIP3    H1  678   5.804   1.778   3.721
  238TIP3    H2  679   5.795   1.736   3.866
  239TIP3   OH2  680   4.907   4.273   5.820
  239TIP3    H1  681   4.856   4.211   5.768
  239TIP3    H2  682   4.852   4.352   5.823
  240TIP3   OH2  683   5.573   4.256   1.772
  240TIP3    H1  684   5.638   4.188   1.758
  240TIP3    H2  685   5.613   4.335   1.736
  241TIP3   OH2  686   0.967   6.416   2.936
  241TIP3    H1  687   0.931   6.414   3.025
  241TIP3    H2  688   1.059   6.438   2.948
  242TIP3   OH2  689   2.228   3.517   5.476
  242TIP3    H1  690   2.161   3.461   5.437
  242TIP3    H2  691   2.267   3.463   5.545
  243TIP3   OH2  692   1.557   1.761   1.453
  243TIP3    H1  693   1.587   1.671   1.467
  243TIP3    H2  694   1.629   1.803   1.405
  244TIP3   OH2  695   5.186   6.209   1.640
  244TIP3    H1  696   5.223   6.298   1.645
  244TIP3    H2  697   5.176   6.192   1.547
  245TIP3   OH2  698   0.797   4.494   3.837
  245TIP3    H1  699   0.886   4.512   3.807
  245TIP3    H2  700   0.807   4.420   3.897
  246TIP3   OH2  701   0.882   0.084   0.378
  246TIP3    H1  702   0.891   0.047   0.466
  246TIP3    H2  703   0.871   0.178   0.393
  247TIP3   OH2  704   4.849   3.026   4.286
  247TIP3    H1  705   4.780   3.042   4.351
  247TIP3    H2  706   4.929   3.062   4.327
  248TIP3   OH2  707   2.362   0.488   0.695
  248TIP3    H1  708   2.285   0.438   0.668
  248TIP3    H2  709   2.396   0.442   0.771
  249TIP3   OH2  710   1.663   4.613   1.970
  249TIP3    H1  711   1.582   4.594   1.924
  249TIP3    H2  712   1.657   4.706   1.991
  250TIP3   OH2  713   0.950   5.446   0.903
  250TIP3    H1  714   0.903   5.527   0.924
  250TIP3    H2  715   1.028   5.474   0.856
  251TIP3   OH2  716   5.708   6.719   2.578
  251TIP3    H1  717   5.752   6.798   2.611
  251TIP3    H2  718   5.746   6.648   2.629
  252TIP3   OH2  719   0.992   5.662   4.812
  252TIP3    H1  720   0.957   5.637   4.727
  252TIP3    H2  721   0.997   5.579   4.861
  253TIP3   OH2  722   4.455   3.026   2.476
  253TIP3    H1  723   4.463   3.116   2.444
  253TIP3    H2  724   4.397   3.033   2.551
  254TIP3   OH2  725   1.589   1.402   0.051
  254TIP3    H1  726   1.616   1.457   0.125
  254TIP3    H2  727   1.503   1.437   0.026
  255TIP3   OH2  728   3.994   4.937   1.932
  255TIP3    H1  729   3.983   4.860   1.877
  255TIP3    H2  730   4.026   5.005   1.872
  256TIP3   OH2  731   2.803   0.805   2.575
  256TIP3    H1  732   2.811   0.861   2.652
  256TIP3    H2  733   2.729   0.747   2.594
  257TIP3   OH2  734   1.971   6.400   0.560
  257TIP3    H1  735   1.982   6.345   0.638
  257TIP3    H2  736   1.959   6.488   0.595
  258TIP3   OH2  737   4.821   5.949   3.904
  258TIP3    H1  738   4.864   5.943   3.819
  258TIP3    H2  739   4.819   5.859   3.936
  259TIP3   OH2  740   5.608   6.146   0.106
  259TIP3    H1  741   5.674   6.080   0.083
  259TIP3    H2  742   5.568   6.112   0.186
  260TIP3   OH2  743   5.737   3.767   4.621
  260TIP3    H1  744   5.742   3.862   4.625
  260TIP3    H2  745   5.826   3.737   4.642
  261TIP3   OH2  746   3.847   5.488   0.538
  261TIP3    H1  747   3.819   5.531   0.619
  261TIP3    H2  748   3.778   5.424   0.520
  262TIP3   OH2  749   3.049   0.295   2.129
  262TIP3    H1  750   3.091   0.238   2.065
  262TIP3    H2  751   3.022   0.236   2.200
  263TIP3   OH2  752   6.748   2.346   2.907
  263TIP3    H1  753   6.748   2.374   2.999
  263TIP3    H2  754   6.837   2.313   2.892
  264TIP3   OH2  755   4.323   1.303   3.715
  264TIP3    H1  756   4.404   1.252   3.714
  264TIP3    H2  757   4.309   1.322   3.808
  265TIP3   OH2  758   4.464   1.621   1.337
  265TIP3    H1  759   4.560   1.621   1.331
  265TIP3    H2  760   4.444   1.680   1.409
  266TIP3   OH2  761   1.293   1.113   2.132
  266TIP3    H1  762   1.259   1.141   2.047
  266TIP3    H2  763   1.356   1.044   2.111
  267TIP3   OH2  764   2.288   2.193   4.667
  267TIP3    H1  765   2.338   2.119   4.702
  267TIP3    H2  766   2.273   2.170   4.575
  268TIP3   OH2  767   4.827   4.617   1.822
  268TIP3    H1  768   4.914   4.643   1.790
  268TIP3    H2  769   4.768   4.637   1.749
  269TIP3   OH2  770   6.708   5.013   1.252
  269TIP3    H1  771   6.683   4.981   1.166
  269TIP3    H2  772   6.803   5.025   1.247
  270TIP3   OH2  773   5.118   1.631   4.103
  270TIP3    H1  774   5.052   1.562   4.094
  270TIP3    H2  775   5.072   1.711   4.076
  271TIP3   OH2  776   4.189   5.188   0.229
  271TIP3    H1  777   4.152   5.274   0.252
  271TIP3    H2  778   4.259   5.209   0.167
  272TIP3   OH2  779   3.848   6.216   1.725
  272TIP3    H1  780   3.888   6.302   1.712
  272TIP3    H2  781   3.848   6.176   1.638
  273TIP3   OH2  782   2.601   4.862   2.720
  273TIP3    H1  783   2.517   4.896   2.689
  273TIP3    H2  784   2.578   4.787   2.774
  274TIP3   OH2  785   1.597   1.927   4.863
  274TIP3    H1  786   1.578   2.013   4.827
  274TIP3    H2  787   1.599   1.939   4.958
  275TIP3   OH2  788   2.941   4.329   1.572
  275TIP3    H1  789   2.951   4.423   1.553
  275TIP3    H2  790   3.031   4.295   1.571
  276TIP3   OH2  791   4.022   1.874   4.970
  276TIP3    H1  792   3.938   1.852   4.930
  276TIP3    H2  793   4.003   1.950   5.025
  277TIP3   OH2  794   2.202   2.554   1.727
  277TIP3    H1  795   2.231   2.492   1.660
  277TIP3    H2  796   2.244   2.637   1.702
  278TIP3   OH2  797   5.018   3.943   2.587
  278TIP3    H1  798   5.083   4.003   2.551
  278TIP3    H2  799   5.066   3.861   2.602
  279TIP3   OH2  800   4.975   2.620   4.539
  279TIP3    H1  801   4.909   2.689   4.549
  279TIP3    H2  802   5.050   2.651   4.589
  280TIP3   OH2  803   2.456   6.719   3.393
  280TIP3    H1  804   2.485   6.642   3.345
  280TIP3    H2  805   2.361   6.708   3.402
  281TIP3   OH2  806   1.218   5.973   2.459
  281TIP3    H1  807   1.237   6.032   2.531
  281TIP3    H2  808   1.224   5.885   2.498
  282TIP3   OH2  809   5.483   1.606   4.388
  282TIP3    H1  810   5.516   1.556   4.464
  282TIP3    H2  811   5.403   1.647   4.420
  283TIP3   OH2  812   4.111   2.462   3.225
  283TIP3    H1  813   4.123   2.515   3.304
  283TIP3    H2  814   4.198   2.428   3.205
  284TIP3   OH2  815   4.130   1.167   3.949
  284TIP3    H1  816   4.043   1.206   3.941
  284TIP3    H2  817   4.185   1.238   3.983
  285TIP3   OH2  818   5.401   0.800   2.812
  285TIP3    H1  819   5.491   0.832   2.823
  285TIP3    H2  820   5.353   0.834   2.887
  286TIP3   OH2  821   5.931   0.099   4.273
  286TIP3    H1  822   5.897   0.140   4.193
  286TIP3    H2  823   6.021   0.074   4.251
  287TIP3   OH2  824   4.758   4.809   2.698
  287TIP3    H1  825   4.799   4.807   2.784
  287TIP3    H2  826   4.670   4.773   2.712
  288TIP3   OH2  827   4.888   3.266   1.438
  288TIP3    H1  828   4.813   3.246   1.381
  288TIP3    H2  829   4.951   3.309   1.380
  289TIP3   OH2  830   4.954   6.137   3.040
  289TIP3    H1  831   4.945   6.210   3.101
  289TIP3    H2  832   5.047   6.135   3.018
  290TIP3   OH2  833   4.502   0.492   1.093
  290TIP3    H1  834   4.575   0.554   1.096
  290TIP3    H2  835   4.445   0.527   1.024
  291TIP3   OH2  836   7.204   5.956   0.791
  291TIP3    H1  837   7.175   5.993   0.708
  291TIP3    H2  838   7.126   5.916   0.829
  292TIP3   OH2  839   5.335   0.857   3.754
  292TIP3    H1  840   5.328   0.902   3.838
  292TIP3    H2  841   5.245   0.844   3.725
  293TIP3   OH2  842   4.077   3.253   0.406
  293TIP3    H1  843   3.984   3.267   0.392
  293TIP3    H2  844   4.091   3.160   0.384
  294TIP3   OH2  845   6.220   2.923   5.173
  294TIP3    H1  846   6.242   2.979   5.098
  294TIP3    H2  847   6.176   2.848   5.134
  295TIP3   OH2  848   6.775   4.907   2.866
  295TIP3    H1  849   6.833   4.870   2.799
  295TIP3    H2  850   6.815   4.991   2.890
  296TIP3   OH2  851   4.631   4.883   1.231
  296TIP3    H1  852   4.632   4.864   1.325
  296TIP3    H2  853   4.599   4.802   1.191
  297TIP3   OH2  854   4.884   4.432   1.454
  297TIP3    H1  855   4.973   4.416   1.422
  297TIP3    H2  856   4.897   4.490   1.530
  298TIP3   OH2  857   6.486   3.199   2.208
  298TIP3    H1  858   6.450   3.268   2.152
  298TIP3    H2  859   6.410   3.151   2.238
  299TIP3   OH2  860   0.788   0.622   2.093
  299TIP3    H1  861   0.732   0.670   2.155
  299TIP3    H2  862   0.846   0.689   2.057
  300TIP3   OH2  863   0.991   5.223   4.272
  300TIP3    H1  864   1.009   5.130   4.286
  300TIP3    H2  865   0.954   5.254   4.354
  301TIP3   OH2  866   1.476   6.263   5.183
  301TIP3    H1  867   1.571   6.272   5.174
  301TIP3    H2  868   1.444   6.246   5.095
  302TIP3   OH2  869   3.266   4.773   3.069
  302TIP3    H1  870   3.272   4.863   3.036
  302TIP3    H2  871   3.193   4.735   3.021
  303TIP3   OH2  872   2.632   0.890   5.428
  303TIP3    H1  873   2.546   0.848   5.433
  303TIP3    H2  874   2.623   0.969   5.480
  304TIP3   OH2  875   6.374   0.902   5.832
  304TIP3    H1  876   6.377   0.810   5.805
  304TIP3    H2  877   6.387   0.900   5.926
  305TIP3   OH2  878   2.921   1.738   5.866
  305TIP3    H1  879   2.949   1.723   5.776
  305TIP3    H2  880   3.002   1.732   5.918
  306TIP3   OH2  881   1.156   5.707   2.581
  306TIP3    H1  882   1.218   5.696   2.652
  306TIP3    H2  883   1.114   5.621   2.572
  307TIP3   OH2  884   6.661   4.513   3.187
  307TIP3    H1  885   6.676   4.565   3.266
  307TIP3    H2  886   6.636   4.427   3.220
  308TIP3   OH2  887   0.625   2.706   0.680
  308TIP3    H1  888   0.714   2.671   0.677
  308TIP3    H2  889   0.569   2.631   0.662
  309TIP3   OH2  890   7.003   0.558   1.591
  309TIP3    H1  891   7.039   0.608   1.665
  309TIP3    H2  892   6.952   0.622   1.542
  310TIP3   OH2  893   2.282   0.373   3.153
  310TIP3    H1  894   2.191   0.403   3.152
  310TIP3    H2  895   2.287   0.313   3.227
  311TIP3   OH2  896   1.933   6.249   2.712
  311TIP3    H1  897   2.001   6.306   2.676
  311TIP3    H2  898   1.974   6.163   2.717
  312TIP3   OH2  899   4.822   4.882   2.444
  312TIP3    H1  900   4.785   4.848   2.525
  312TIP3    H2  901   4.748   4.922   2.399
  313TIP3   OH2  902   2.056   3.863   4.401
  313TIP3    H1  903   2.061   3.959   4.405
  313TIP3    H2  904   2.042   3.844   4.308
  314TIP3   OH2  905   6.665   6.414   3.700
  314TIP3    H1  906   6.570   6.422   3.708
  314TIP3    H2  907   6.692   6.364   3.777
  315TIP3   OH2  908   1.730   4.098   3.084
  315TIP3    H1  909   1.649   4.108   3.135
  315TIP3    H2  910   1.717   4.152   3.007
  316TIP3   OH2  911   1.087   5.360   0.554
  316TIP3    H1  912   1.002   5.317   0.558
  316TIP3    H2  913   1.070   5.444   0.511
  317TIP3   OH2  914   5.472   0.567   5.492
  317TIP3    H1  915   5.498   0.482   5.457
  317TIP3    H2  916   5.534   0.629   5.454
  318TIP3   OH2  917   3.706   0.259   5.749
  318TIP3    H1  918   3.680   0.200   5.678
  318TIP3    H2  919   3.753   0.330   5.705
  319TIP3   OH2  920   7.133   6.669   1.180
  319TIP3    H1  921   7.209   6.683   1.123
  319TIP3    H2  922   7.095   6.756   1.190
  320TIP3   OH2  923   3.104   4.991   5.138
  320TIP3    H1  924   3.072   5.046   5.067
  320TIP3    H2  925   3.175   4.940   5.098
  321TIP3   OH2  926   4.186   1.740   0.768
  321TIP3    H1  927   4.235   1.804   0.819
  321TIP3    H2  928   4.237   1.727   0.689
  322TIP3   OH2  929   4.115   6.440   0.442
  322TIP3    H1  930   4.167   6.361   0.457
  322TIP3    H2  931   4.170   6.494   0.386
  323TIP3   OH2  932   1.868   5.336   0.268
  323TIP3    H1  933   1.854   5.373   0.355
  323TIP3    H2  934   1.935   5.268   0.281
  324TIP3   OH2  935   7.183   6.053   5.041
  324TIP3    H1  936   7.153   5.964   5.057
  324TIP3    H2  937   7.105   6.100   5.012
  325TIP3   OH2  938   1.551   4.162   1.123
  325TIP3    H1  939   1.534   4.127   1.036
  325TIP3    H2  940   1.570   4.085   1.176
  326TIP3   OH2  941   3.583   1.454   3.710
  326TIP3    H1  942   3.546   1.491   3.790
  326TIP3    H2  943   3.587   1.528   3.649
  327TIP3   OH2  944   1.168   0.220   2.212
  327TIP3    H1  945   1.199   0.251   2.297
  327TIP3    H2  946   1.116   0.293   2.178
  328TIP3   OH2  947   3.628   3.638   5.115
  328TIP3    H1  948   3.668   3.673   5.036
  328TIP3    H2  949   3.554   3.696   5.132
  329TIP3   OH2  950   3.710   3.440   0.853
  329TIP3    H1  951   3.801   3.426   0.878
  329TIP3    H2  952   3.703   3.535   0.840
  330TIP3   OH2  953   3.885   2.980   1.250
  330TIP3    H1  954   3.835   2.913   1.298
  330TIP3    H2  955   3.881   3.057   1.306
  331TIP3   OH2  956   1.193   1.224   4.074
  331TIP3    H1  957   1.249   1.205   3.999
  331TIP3    H2  958   1.253   1.245   4.145
  332TIP3   OH2  959   3.752   1.545   4.623
  332TIP3    H1  960   3.788   1.490   4.693
  332TIP3    H2  961   3.660   1.558   4.647
  333TIP3   OH2  962   6.050   6.395   2.862
  333TIP3    H1  963   6.070   6.322   2.803
  333TIP3    H2  964   6.072   6.363   2.949
  334TIP3   OH2  965   7.117   6.688   2.316
  334TIP3    H1  966   7.086   6.691   2.226
  334TIP3    H2  967   7.054   6.632   2.361
  335TIP3   OH2  968   5.533   5.363   3.606
  335TIP3    H1  969   5.518   5.278   3.646
  335TIP3    H2  970   5.621   5.356   3.569
  336TIP3   OH2  971   5.590   6.732   1.676
  336TIP3    H1  972   5.496   6.747   1.667
  336TIP3    H2  973   5.626   6.817   1.703
  337TIP3   OH2  974   0.886   0.661   2.498
  337TIP3    H1  975   0.872   0.733   2.560
  337TIP3    H2  976   0.979   0.668   2.475
  338TIP3   OH2  977   0.364   3.955   2.967
  338TIP3    H1  978   0.457   3.968   2.950
  338TIP3    H2  979   0.351   3.984   3.057
  339TIP3   OH2  980   3.554   0.554   1.572
  339TIP3    H1  981   3.569   0.526   1.662
  339TIP3    H2  982   3.638   0.589   1.543
  340TIP3   OH2  983   3.099   2.708   5.301
  340TIP3    H1  984   3.169   2.670   5.248
  340TIP3    H2  985   3.143   2.742   5.379
  341TIP3   OH2  986   1.584   2.443   2.157
  341TIP3    H1  987   1.498   2.403   2.145
  341TIP3    H2  988   1.608   2.476   2.071
  342TIP3   OH2  989   4.334   3.129   4.725
  342TIP3    H1  990   4.249   3.151   4.687
  342TIP3    H2  991   4.397   3.143   4.654
  343TIP3   OH2  992   6.378   0.138   0.919
  343TIP3    H1  993   6.359   0.209   0.981
  343TIP3    H2  994   6.308   0.143   0.854
  344TIP3   OH2  995   7.191   0.703   2.091
  344TIP3    H1  996   7.201   0.784   2.142
  344TIP3    H2  997   7.106   0.668   2.117
  345TIP3   OH2  998   4.134   4.804   5.685
  345TIP3    H1  999   4.224   4.838   5.680
  345TIP3    H2 1000   4.107   4.823   5.775
  346TIP3   OH2 1001   7.054   1.050   4.041
  346TIP3    H1 1002   7.064   0.956   4.054
  346TIP3    H2 1003   6.964   1.068   4.066
  347TIP3   OH2 1004   2.076   5.518   3.904
  347TIP3    H1 1005   2.168   5.523   3.879
  347TIP3    H2 1006   2.028   5.541   3.825
  348TIP3   OH2 1007   5.906   3.193   4.597
  348TIP3    H1 1008   5.823   3.239   4.610
  348TIP3    H2 1009   5.931   3.213   4.506
  349TIP3   OH2 1010   7.155   6.383   1.151
  349TIP3    H1 1011   7.147   6.466   1.104
  349TIP3    H2 1012   7.236   6.391   1.202
  350TIP3   OH2 1013   3.153   3.337   5.117
  350TIP3    H1 1014   3.151   3.294   5.203
  350TIP3    H2 1015   3.214   3.410   5.128
  351TIP3   OH2 1016   5.261   1.140   4.932
  351TIP3    H1 1017   5.221   1.097   5.007
  351TIP3    H2 1018   5.284   1.068   4.873
  352TIP3   OH2 1019   2.850   4.895   2.147
  352TIP3    H1 1020   2.909   4.862   2.079
  352TIP3    H2 1021   2.769   4.915   2.101
  353TIP3   OH2 1022   0.955   4.855   5.429
  353TIP3    H1 1023   0.937   4.894   5.515
  353TIP3    H2 1024   1.047   4.872   5.413
  354TIP3   OH2 1025   3.750   6.099   5.466
  354TIP3    H1 1026   3.723   6.146   5.545
  354TIP3    H2 1027   3.824   6.045   5.494
  355TIP3   OH2 1028   0.186   3.078   4.348
  355TIP3    H1 1029   0.230   2.999   4.317
  355TIP3    H2 1030   0.240   3.150   4.314
  356TIP3   OH2 1031   3.807   2.541   3.138
  356TIP3    H1 1032   3.845   2.459   3.170
  356TIP3    H2 1033   3.870   2.609   3.162
  357TIP3   OH2 1034   2.646   2.468   3.956
  357TIP3    H1 1035   2.604   2.469   4.041
  357TIP3    H2 1036   2.589   2.416   3.901
  358TIP3   OH2 1037   4.834   1.435   4.234
  358TIP3    H1 1038   4.740   1.444   4.249
  358TIP3    H2 1039   4.871   1.516   4.269
  359TIP3   OH2 1040   0.884   5.705   0.860
  359TIP3    H1 1041   0.809   5.747   0.817
  359TIP3    H2 1042   0.960   5.744   0.817
  360TIP3   OH2 1043   2.579   1.525   1.991
  360TIP3    H1 1044   2.484   1.522   1.980
  360TIP3    H2 1045   2.596   1.467   2.066
  361TIP3   OH2 1046   5.037   6.732   5.547
  361TIP3    H1 1047   4.995   6.731   5.633
  361TIP3    H2 1048   5.094   6.809   5.548
  362TIP3   OH2 1049   7.162   6.390   3.203
  362TIP3    H1 1050   7.115   6.471   3.223
  362TIP3    H2 1051   7.103   6.341   3.145
  363TIP3   OH2 1052   3.305   2.938   5.038
  363TIP3    H1 1053   3.294   2.934   5.133
  363TIP3    H2 1054   3.338   2.851   5.014
  364TIP3   OH2 1055   2.040   3.209   5.053
  364TIP3    H1 1056   2.091   3.129   5.043
  364TIP3    H2 1057   2.089   3.275   5.006
  365TIP3   OH2 1058   0.436   4.423   2.296
  365TIP3    H1 1059   0.343   4.406   2.314
  365TIP3    H2 1060   0.482   4.355   2.345
  366TIP3   OH2 1061   4.415   3.157   2.869
  366TIP3    H1 1062   4.492   3.207   2.843
  366TIP3    H2 1063   4.440   3.065   2.859
  367TIP3   OH2 1064   4.981   5.479   4.188
  367TIP3    H1 1065   4.926   5.504   4.114
  367TIP3    H2 1066   5.040   5.412   4.152
  368TIP3   OH2 1067   6.974   6.445   5.027
  368TIP3    H1 1068   6.932   6.517   4.979
  368TIP3    H2 1069   7.066   6.471   5.033
  369TIP3   OH2 1070   5.817   0.961   0.377
  369TIP3    H1 1071   5.800   0.917   0.461
  369TIP3    H2 1072   5.912   0.955   0.366
  370TIP3   OH2 1073   6.192   1.085   1.888
  370TIP3    H1 1074   6.190   1.181   1.891
  370TIP3    H2 1075   6.213   1.064   1.798
  371TIP3   OH2 1076   3.644   5.566   3.960
  371TIP3    H1 1077   3.560   5.525   3.983
  371TIP3    H2 1078   3.658   5.541   3.868
  372TIP3   OH2 1079   7.150   5.011   2.206
  372TIP3    H1 1080   7.092   5.019   2.130
  372TIP3    H2 1081   7.133   5.090   2.257
  373TIP3   OH2 1082   6.406   4.218   0.643
  373TIP3    H1 1083   6.328   4.168   0.667
  373TIP3    H2 1084   6.474   4.187   0.703
  374TIP3   OH2 1085   1.303   4.722   5.206
  374TIP3    H1 1086   1.306   4.743   5.299
  374TIP3    H2 1087   1.244   4.647   5.200
  375TIP3   OH2 1088   2.946   3.449   0.785
  375TIP3    H1 1089   2.858   3.431   0.752
  375TIP3    H2 1090   2.939   3.439   0.880
  376TIP3   OH2 1091   0.814   5.628   3.928
  376TIP3    H1 1092   0.895   5.578   3.920
  376TIP3    H2 1093   0.771   5.619   3.843
  377TIP3   OH2 1094   0.369   1.850   4.950
  377TIP3    H1 1095   0.423   1.891   4.883
  377TIP3    H2 1096   0.427   1.784   4.991
  378TIP3   OH2 1097   0.208   3.871   3.650
  378TIP3    H1 1098   0.285   3.911   3.610
  378TIP3    H2 1099   0.149   3.854   3.576
  379TIP3   OH2 1100   6.381   4.886   4.655
  379TIP3    H1 1101   6.364   4.796   4.683
  379TIP3    H2 1102   6.324   4.898   4.579
  380TIP3   OH2 1103   5.789   4.910   1.661
  380TIP3    H1 1104   5.812   4.817   1.665
  380TIP3    H2 1105   5.859   4.950   1.609
  381TIP3   OH2 1106   5.505   3.270   0.971
  381TIP3    H1 1107   5.439   3.337   0.988
  381TIP3    H2 1108   5.457   3.198   0.929
  382TIP3   OH2 1109   3.304   1.468   2.105
  382TIP3    H1 1110   3.340   1.387   2.140
  382TIP3    H2 1111   3.335   1.536   2.165
  383TIP3   OH2 1112   1.645   6.166   3.944
  383TIP3    H1 1113   1.551   6.183   3.948
  383TIP3    H2 1114   1.675   6.175   4.034
  384TIP3   OH2 1115   4.929   0.059   0.614
  384TIP3    H1 1116   4.958  -0.025   0.579
  384TIP3    H2 1117   4.995   0.121   0.582
  385TIP3   OH2 1118   0.419   6.240   0.766
  385TIP3    H1 1119   0.331   6.223   0.798
  385TIP3    H2 1120   0.414   6.327   0.726
  386TIP3   OH2 1121   5.620   6.006   5.747
  386TIP3    H1 1122   5.686   5.937   5.748
  386TIP3    H2 1123   5.540   5.962   5.778
  387TIP3   OH2 1124   0.139   4.659   3.415
  387TIP3    H1 1125   0.089   4.636   3.493
  387TIP3    H2 1126   0.209   4.593   3.412
  388TIP3   OH2 1127   3.317   4.741   1.450
  388TIP3    H1 1128   3.385   4.730   1.384
  388TIP3    H2 1129   3.338   4.675   1.517
  389TIP3   OH2 1130   2.051   2.131   2.059
  389TIP3    H1 1131   1.967   2.174   2.048
  389TIP3    H2 1132   2.083   2.164   2.143
  390TIP3   OH2 1133   6.496   1.378   3.815
  390TIP3    H1 1134   6.403   1.398   3.813
  390TIP3    H2 1135   6.539   1.463   3.825
  391TIP3   OH2 1136   0.526   1.929   1.249
  391TIP3    H1 1137   0.581   1.885   1.184
  391TIP3    H2 1138   0.573   1.919   1.331
  392TIP3   OH2 1139   1.765   5.591   4.659
  392TIP3    H1 1140   1.709   5.522   4.695
  392TIP3    H2 1141   1.778   5.652   4.732
  393TIP3   OH2 1142   2.585   3.409   5.763
  393TIP3    H1 1143   2.620   3.446   5.682
  393TIP3    H2 1144   2.490   3.420   5.756
  394TIP3   OH2 1145   0.696   4.482   0.238
  394TIP3    H1 1146   0.720   4.391   0.257
  394TIP3    H2 1147   0.764   4.534   0.281
  395TIP3   OH2 1148   5.489   4.384   3.573
  395TIP3    H1 1149   5.439   4.385   3.655
  395TIP3    H2 1150   5.432   4.339   3.511
  396TIP3   OH2 1151   1.014   4.600   5.560
  396TIP3    H1 1152   0.988   4.650   5.637
  396TIP3    H2 1153   0.975   4.648   5.486
  397TIP3   OH2 1154   0.493   1.701   2.766
  397TIP3    H1 1155   0.540   1.717   2.847
  397TIP3    H2 1156   0.457   1.612   2.776
  398TIP3   OH2 1157   0.766   1.903   4.674
  398TIP3    H1 1158   0.844   1.905   4.729
  398TIP3    H2 1159   0.798   1.924   4.586
  399TIP3   OH2 1160   0.260   1.372   0.222
  399TIP3    H1 1161   0.253   1.463   0.194
  399TIP3    H2 1162   0.195   1.364   0.292
  400TIP3   OH2 1163   1.810   0.567   1.726
  400TIP3    H1 1164   1.879   0.502   1.710
  400TIP3    H2 1165   1.730   0.525   1.695
  401TIP3   OH2 1166   0.479   1.625   5.037
  401TIP3    H1 1167   0.411   1.567   5.070
  401TIP3    H2 1168   0.554   1.568   5.022
  402TIP3   OH2 1169   3.709   0.980   2.296
  402TIP3    H1 1170   3.755   1.026   2.366
  402TIP3    H2 1171   3.622   0.963   2.331
  403TIP3   OH2 1172   1.671   4.370   0.213
  403TIP3    H1 1173   1.703   4.458   0.234
  403TIP3    H2 1174   1.676   4.323   0.296
  404TIP3   OH2 1175   0.631   3.048   3.215
  404TIP3    H1 1176   0.630   3.080   3.125
  404TIP3    H2 1177   0.595   2.959   3.209
  405TIP3   OH2 1178   1.128   3.330   1.957
  405TIP3    H1 1179   1.196   3.269   1.928
  405TIP3    H2 1180   1.046   3.288   1.932
  406TIP3   OH2 1181   0.475   1.474   1.038
  406TIP3    H1 1182   0.527   1.461   1.117
  406TIP3    H2 1183   0.421   1.551   1.057
  407TIP3   OH2 1184   6.259   1.394   1.616
  407TIP3    H1 1185   6.243   1.301   1.629
  407TIP3    H2 1186   6.345   1.398   1.575
  408TIP3   OH2 1187   0.619   3.993   3.370
  408TIP3    H1 1188   0.651   3.903   3.363
  408TIP3    H2 1189   0.695   4.047   3.347
  409TIP3   OH2 1190   1.201   3.957   0.610
  409TIP3    H1 1191   1.222   3.999   0.693
  409TIP3    H2 1192   1.115   3.918   0.623
  410TIP3   OH2 1193   2.379   3.679   1.560
  410TIP3    H1 1194   2.332   3.757   1.589
  410TIP3    H2 1195   2.314   3.609   1.564
  411TIP3   OH2 1196   4.257   4.010   1.012
  411TIP3    H1 1197   4.276   4.009   0.918
  411TIP3    H2 1198   4.341   4.031   1.053
  412TIP3   OH2 1199   2.199   0.216   4.621
  412TIP3    H1 1200   2.131   0.269   4.662
  412TIP3    H2 1201   2.182   0.223   4.527
  413TIP3   OH2 1202   5.997   3.769   3.092
  413TIP3    H1 1203   5.926   3.708   3.111
  413TIP3    H2 1204   5.969   3.852   3.131
  414TIP3   OH2 1205   2.648   0.262   1.496
  414TIP3    H1 1206   2.639   0.345   1.449
  414TIP3    H2 1207   2.655   0.287   1.588
  415TIP3   OH2 1208   4.944   2.503   5.154
  415TIP3    H1 1209   5.025   2.553   5.150
  415TIP3    H2 1210   4.970   2.413   5.133
  416TIP3   OH2 1211   5.331   5.051   1.492
  416TIP3    H1 1212   5.309   5.116   1.425
  416TIP3    H2 1213   5.421   5.025   1.473
  417TIP3   OH2 1214   1.148   4.311   0.132
  417TIP3    H1 1215   1.185   4.224   0.120
  417TIP3    H2 1216   1.223   4.370   0.123
  418TIP3   OH2 1217   6.617   4.913   3.586
  418TIP3    H1 1218   6.547   4.925   3.522
  418TIP3    H2 1219   6.689   4.969   3.554
  419TIP3   OH2 1220   3.390   1.419   1.525
  419TIP3    H1 1221   3.437   1.466   1.456
  419TIP3    H2 1222   3.373   1.485   1.593
  420TIP3   OH2 1223   5.889   4.314   2.469
  420TIP3    H1 1224   5.967   4.370   2.478
  420TIP3    H2 1225   5.913   4.250   2.401
  421TIP3   OH2 1226   0.123   4.059   4.276
  421TIP3    H1 1227   0.098   4.052   4.368
  421TIP3    H2 1228   0.072   3.991   4.232
  422TIP3   OH2 1229   1.662   6.520   0.642
  422TIP3    H1 1230   1.637   6.585   0.708
  422TIP3    H2 1231   1.697   6.571   0.570
  423TIP3   OH2 1232   5.275   1.106   2.129
  423TIP3    H1 1233   5.290   1.062   2.213
  423TIP3    H2 1234   5.362   1.136   2.102
  424TIP3   OH2 1235   5.854   3.630   2.685
  424TIP3    H1 1236   5.903   3.609   2.606
  424TIP3    H2 1237   5.900   3.583   2.755
  425TIP3   OH2 1238   1.874   4.619   2.580
  425TIP3    H1 1239   1.781   4.639   2.568
  425TIP3    H2 1240   1.875   4.544   2.641
  426TIP3   OH2 1241   4.477   0.560   3.990
  426TIP3    H1 1242   4.556   0.512   3.968
  426TIP3    H2 1243   4.422   0.555   3.912
  427TIP3   OH2 1244   6.850   6.109   0.637
  427TIP3    H1 1245   6.940   6.108   0.605
  427TIP3    H2 1246   6.803   6.050   0.578
  428TIP3   OH2 1247   0.587   5.866   2.827
  428TIP3    H1 1248   0.559   5.843   2.739
  428TIP3    H2 1249   0.620   5.955   2.819
  429TIP3   OH2 1250   0.324   1.270   3.830
  429TIP3    H1 1251   0.419   1.274   3.821
  429TIP3    H2 1252   0.304   1.327   3.904
  430TIP3   OH2 1253   1.192   5.235   4.983
  430TIP3    H1 1254   1.259   5.167   4.986
  430TIP3    H2 1255   1.155   5.236   5.071
  431TIP3   OH2 1256   5.283   0.242   4.932
  431TIP3    H1 1257   5.374   0.218   4.914
  431TIP3    H2 1258   5.272   0.328   4.892
  432TIP3   OH2 1259   0.964   2.054   0.788
  432TIP3    H1 1260   0.881   2.040   0.835
  432TIP3    H2 1261   1.021   1.984   0.819
  433TIP3   OH2 1262   2.916   0.779   0.546
  433TIP3    H1 1263   2.984   0.713   0.561
  433TIP3    H2 1264   2.856   0.769   0.620
  434TIP3   OH2 1265   4.169   1.846   4.194
  434TIP3    H1 1266   4.095   1.892   4.154
  434TIP3    H2 1267   4.193   1.778   4.130
  435TIP3   OH2 1268   4.139   1.668   5.458
  435TIP3    H1 1269   4.178   1.673   5.546
  435TIP3    H2 1270   4.191   1.727   5.405
  436TIP3   OH2 1271   6.442   3.931   0.284
  436TIP3    H1 1272   6.537   3.935   0.298
  436TIP3    H2 1273   6.415   3.849   0.326
  437TIP3   OH2 1274   4.758   1.176   1.163
  437TIP3    H1 1275   4.770   1.089   1.124
  437TIP3    H2 1276   4.731   1.158   1.253
  438TIP3   OH2 1277   4.372   0.820   0.475
  438TIP3    H1 1278   4.373   0.902   0.426
  438TIP3    H2 1279   4.326   0.840   0.556
  439TIP3   OH2 1280   6.703   4.681   5.762
  439TIP3    H1 1281   6.697   4.590   5.731
  439TIP3    H2 1282   6.789   4.687   5.802
  440TIP3   OH2 1283   7.057   3.801   3.320
  440TIP3    H1 1284   7.020   3.807   3.232
  440TIP3    H2 1285   7.003   3.734   3.364
  441TIP3   OH2 1286   3.231   2.156   4.585
  441TIP3    H1 1287   3.163   2.109   4.536
  441TIP3    H2 1288   3.273   2.088   4.638
  442TIP3   OH2 1289   6.387   2.032   0.336
  442TIP3    H1 1290   6.344   2.096   0.394
  442TIP3    H2 1291   6.477   2.062   0.331
  443TIP3   OH2 1292   4.307   5.495   3.023
  443TIP3    H1 1293   4.223   5.542   3.019
  443TIP3    H2 1294   4.360   5.547   3.084
  444TIP3   OH2 1295   5.780   1.785   2.144
  444TIP3    H1 1296   5.756   1.733   2.067
  444TIP3    H2 1297   5.701   1.786   2.198
  445TIP3   OH2 1298   3.857   4.556   3.370
  445TIP3    H1 1299   3.882   4.532   3.459
  445TIP3    H2 1300   3.881   4.648   3.362
  446TIP3   OH2 1301   5.171   0.078   2.974
  446TIP3    H1 1302   5.213   0.120   2.898
  446TIP3    H2 1303   5.108   0.017   2.935
  447TIP3   OH2 1304   5.376   4.804   5.075
  447TIP3    H1 1305   5.390   4.859   5.152
  447TIP3    H2 1306   5.463   4.795   5.036
  448TIP3   OH2 1307   6.925   5.928   1.834
  448TIP3    H1 1308   6.965   5.887   1.758
  448TIP3    H2 1309   6.893   6.012   1.802
  449TIP3   OH2 1310   1.559   1.779   5.531
  449TIP3    H1 1311   1.548   1.689   5.500
  449TIP3    H2 1312   1.562   1.772   5.626
  450TIP3   OH2 1313   0.583   3.946   1.899
  450TIP3    H1 1314   0.574   3.867   1.951
  450TIP3    H2 1315   0.657   3.928   1.841
  451TIP3   OH2 1316   0.475   6.566   1.623
  451TIP3    H1 1317   0.406   6.546   1.686
  451TIP3    H2 1318   0.431   6.610   1.551
  452TIP3   OH2 1319   4.160   1.524   3.645
  452TIP3    H1 1320   4.192   1.434   3.654
  452TIP3    H2 1321   4.067   1.518   3.667
  453TIP3   OH2 1322   6.042   0.311   3.488
  453TIP3    H1 1323   6.070   0.256   3.415
  453TIP3    H2 1324   5.972   0.262   3.531
  454TIP3   OH2 1325   1.185   2.573   1.570
  454TIP3    H1 1326   1.225   2.507   1.513
  454TIP3    H2 1327   1.253   2.639   1.582
  455TIP3   OH2 1328   5.134   6.118   4.558
  455TIP3    H1 1329   5.052   6.070   4.543
  455TIP3    H2 1330   5.106   6.208   4.578
  456TIP3   OH2 1331   4.352   0.658   4.561
  456TIP3    H1 1332   4.391   0.705   4.487
  456TIP3    H2 1333   4.366   0.716   4.636
  457TIP3   OH2 1334   2.306   2.000   1.289
  457TIP3    H1 1335   2.305   2.029   1.198
  457TIP3    H2 1336   2.397   2.011   1.316
  458TIP3   OH2 1337   3.778   2.798   1.457
  458TIP3    H1 1338   3.684   2.782   1.470
  458TIP3    H2 1339   3.819   2.713   1.470
  459TIP3   OH2 1340   0.482   0.758   3.211
  459TIP3    H1 1341   0.452   0.670   3.187
  459TIP3    H2 1342   0.441   0.775   3.296
  460TIP3   OH2 1343   6.192   4.006   4.023
  460TIP3    H1 1344   6.211   4.017   4.117
  460TIP3    H2 1345   6.250   3.935   3.995
  461TIP3   OH2 1346   3.387   1.243   0.602
  461TIP3    H1 1347   3.306   1.294   0.610
  461TIP3    H2 1348   3.436   1.288   0.533
  462TIP3   OH2 1349   5.538   1.626   5.713
  462TIP3    H1 1350   5.448   1.610   5.743
  462TIP3    H2 1351   5.527   1.665   5.627
  463TIP3   OH2 1352   3.354   1.821   3.689
  463TIP3    H1 1353   3.389   1.808   3.600
  463TIP3    H2 1354   3.410   1.887   3.728
  464TIP3   OH2 1355   2.247   4.419   3.176
  464TIP3    H1 1356   2.253   4.513   3.193
  464TIP3    H2 1357   2.160   4.394   3.207
  465TIP3   OH2 1358   6.201   3.367   5.089
  465TIP3    H1 1359   6.246   3.451   5.100
  465TIP3    H2 1360   6.113   3.382   5.124
  466TIP3   OH2 1361   6.057   0.315   2.981
  466TIP3    H1 1362   6.010   0.354   3.054
  466TIP3    H2 1363   6.004   0.241   2.954
  467TIP3   OH2 1364   7.207   1.714   1.708
  467TIP3    H1 1365   7.206   1.671   1.793
  467TIP3    H2 1366   7.218   1.807   1.727
  468TIP3   OH2 1367   1.475   0.196   5.543
  468TIP3    H1 1368   1.394   0.246   5.550
  468TIP3    H2 1369   1.534   0.236   5.607
  469TIP3   OH2 1370   3.972   6.400   5.580
  469TIP3    H1 1371   3.878   6.387   5.586
  469TIP3    H2 1372   4.011   6.321   5.617
  470TIP3   OH2 1373   0.958   6.796   3.304
  470TIP3    H1 1374   0.959   6.832   3.392
  470TIP3    H2 1375   1.050   6.789   3.279
  471TIP3   OH2 1376   4.545   6.683   3.383
  471TIP3    H1 1377   4.630   6.704   3.344
  471TIP3    H2 1378   4.486   6.673   3.309
  472TIP3   OH2 1379   6.801   6.201   3.547
  472TIP3    H1 1380   6.799   6.116   3.590
  472TIP3    H2 1381   6.769   6.263   3.613
  473TIP3   OH2 1382   2.364   5.072   0.784
  473TIP3    H1 1383   2.336   4.986   0.816
  473TIP3    H2 1384   2.402   5.115   0.861
  474TIP3   OH2 1385   5.240   4.593   4.165
  474TIP3    H1 1386   5.232   4.600   4.260
  474TIP3    H2 1387   5.165   4.642   4.131
  475TIP3   OH2 1388   4.203   3.245   1.294
  475TIP3    H1 1389   4.159   3.163   1.274
  475TIP3    H2 1390   4.184   3.261   1.386
  476TIP3   OH2 1391   0.409   0.731   2.212
  476TIP3    H1 1392   0.447   0.813   2.180
  476TIP3    H2 1393   0.421   0.735   2.307
  477TIP3   OH2 1394   4.894   5.681   4.352
  477TIP3    H1 1395   4.966   5.742   4.372
  477TIP3    H2 1396   4.938   5.603   4.317
  478TIP3   OH2 1397   1.693   6.457   3.438
  478TIP3    H1 1398   1.724   6.367   3.424
  478TIP3    H2 1399   1.723   6.480   3.526
  479TIP3   OH2 1400   1.230   4.132   4.585
  479TIP3    H1 1401   1.277   4.053   4.561
  479TIP3    H2 1402   1.298   4.196   4.606
  480TIP3   OH2 1403   5.600   6.280   3.385
  480TIP3    H1 1404   5.675   6.340   3.388
  480TIP3    H2 1405   5.614   6.221   3.459
  481TIP3   OH2 1406   3.732   1.099   0.731
  481TIP3    H1 1407   3.757   1.167   0.668
  481TIP3    H2 1408   3.656   1.057   0.691
  482TIP3   OH2 1409   6.971   1.550   2.712
  482TIP3    H1 1410   6.929   1.508   2.637
  482TIP3    H2 1411   7.064   1.532   2.699
  483TIP3   OH2 1412   4.619   5.474   3.702
  483TIP3    H1 1413   4.574   5.430   3.629
  483TIP3    H2 1414   4.667   5.546   3.661
  484TIP3   OH2 1415   1.815   5.276   1.257
  484TIP3    H1 1416   1.763   5.345   1.299
  484TIP3    H2 1417   1.755   5.235   1.195
  485TIP3   OH2 1418   1.424   6.062   5.368
  485TIP3    H1 1419   1.471   6.080   5.450
  485TIP3    H2 1420   1.453   6.132   5.309
  486TIP3   OH2 1421   4.826   5.076   1.253
  486TIP3    H1 1422   4.890   5.031   1.308
  486TIP3    H2 1423   4.755   5.012   1.243
  487TIP3   OH2 1424   0.350   6.061   1.668
  487TIP3    H1 1425   0.307   6.142   1.696
  487TIP3    H2 1426   0.442   6.074   1.691
  488TIP3   OH2 1427   1.767   1.759   3.582
  488TIP3    H1 1428   1.696   1.712   3.627
  488TIP3    H2 1429   1.830   1.691   3.559
  489TIP3   OH2 1430   6.346   4.992   5.249
  489TIP3    H1 1431   6.256   4.977   5.221
  489TIP3    H2 1432   6.399   4.963   5.175
  490TIP3   OH2 1433   7.057   1.089   1.841
  490TIP3    H1 1434   7.014   1.042   1.912
  490TIP3    H2 1435   7.149   1.093   1.868
  491TIP3   OH2 1436   5.541   6.390   5.015
  491TIP3    H1 1437   5.493   6.462   5.055
  491TIP3    H2 1438   5.591   6.431   4.944
  492TIP3   OH2 1439   2.096   4.216   0.573
  492TIP3    H1 1440   2.167   4.194   0.633
  492TIP3    H2 1441   2.120   4.175   0.490
  493TIP3   OH2 1442   2.319   0.750   1.313
  493TIP3    H1 1443   2.356   0.836   1.293
  493TIP3    H2 1444   2.384   0.688   1.277
  494TIP3   OH2 1445   2.354   0.801   2.704
  494TIP3    H1 1446   2.262   0.789   2.679
  494TIP3    H2 1447   2.383   0.714   2.729
  495TIP3   OH2 1448   4.606   6.094   3.338
  495TIP3    H1 1449   4.641   6.150   3.269
  495TIP3    H2 1450   4.675   6.089   3.403
  496TIP3   OH2 1451   0.613   5.375   2.595
  496TIP3    H1 1452   0.544   5.387   2.661
  496TIP3    H2 1453   0.676   5.317   2.638
  497TIP3   OH2 1454   3.657   0.135   5.501
  497TIP3    H1 1455   3.676   0.182   5.420
  497TIP3    H2 1456   3.730   0.073   5.510
  498TIP3   OH2 1457   2.750   5.805   1.522
  498TIP3    H1 1458   2.816   5.767   1.581
  498TIP3    H2 1459   2.688   5.733   1.507
  499TIP3   OH2 1460   1.694   4.484   4.532
  499TIP3    H1 1461   1.699   4.430   4.454
  499TIP3    H2 1462   1.768   4.455   4.586
  500TIP3   OH2 1463   4.321   2.857   0.571
  500TIP3    H1 1464   4.357   2.872   0.483
  500TIP3    H2 1465   4.278   2.772   0.566
  501TIP3   OH2 1466   2.130   1.369   5.358
  501TIP3    H1 1467   2.143   1.384   5.264
  501TIP3    H2 1468   2.178   1.440   5.401
  502TIP3   OH2 1469   3.409   0.519   5.741
  502TIP3    H1 1470   3.437   0.541   5.652
  502TIP3    H2 1471   3.318   0.548   5.745
  503TIP3   OH2 1472   3.241   2.712   3.940
  503TIP3    H1 1473   3.163   2.737   3.891
  503TIP3    H2 1474   3.245   2.617   3.932
  504TIP3   OH2 1475   2.525   6.326   3.912
  504TIP3    H1 1476   2.498   6.257   3.851
  504TIP3    H2 1477   2.562   6.394   3.856
  505TIP3   OH2 1478   4.150   6.269   1.669
  505TIP3    H1 1479   4.106   6.189   1.698
  505TIP3    H2 1480   4.242   6.255   1.691
  506TIP3   OH2 1481   3.812   0.072   4.000
  506TIP3    H1 1482   3.802   0.015   4.077
  506TIP3    H2 1483   3.738   0.132   4.005
  507TIP3   OH2 1484   3.604   1.016   5.769
  507TIP3    H1 1485   3.655   0.934   5.770
  507TIP3    H2 1486   3.517   0.990   5.800
  508TIP3   OH2 1487   6.399   2.524   3.081
  508TIP3    H1 1488   6.329   2.481   3.032
  508TIP3    H2 1489   6.354   2.575   3.148
  509TIP3   OH2 1490   3.328   6.741   3.250
  509TIP3    H1 1491   3.306   6.706   3.163
  509TIP3    H2 1492   3.246   6.777   3.283
  510TIP3   OH2 1493   3.068   6.481   4.451
  510TIP3    H1 1494   2.986   6.433   4.448
  510TIP3    H2 1495   3.049   6.557   4.507
  511TIP3   OH2 1496   5.505   3.339   1.427
  511TIP3    H1 1497   5.504   3.431   1.454
  511TIP3    H2 1498   5.583   3.303   1.470
  512TIP3   OH2 1499   3.657   6.088   5.734
  512TIP3    H1 1500   3.734   6.039   5.765
  512TIP3    H2 1501   3.588   6.022   5.729
  513TIP3   OH2 1502   1.538   0.923   3.293
  513TIP3    H1 1503   1.606   0.856   3.290
  513TIP3    H2 1504   1.495   0.917   3.207
  514TIP3   OH2 1505   4.286   6.593   0.280
  514TIP3    H1 1506   4.298   6.686   0.260
  514TIP3    H2 1507   4.230   6.561   0.209
  515TIP3   OH2 1508   0.840   3.419   2.143
  515TIP3    H1 1509   0.757   3.385   2.177
  515TIP3    H2 1510   0.907   3.367   2.187
  516TIP3   OH2 1511   2.781   0.112   4.222
  516TIP3    H1 1512   2.833   0.041   4.183
  516TIP3    H2 1513   2.813   0.192   4.180
  517TIP3   OH2 1514   4.196   2.521   0.757
  517TIP3    H1 1515   4.144   2.441   0.755
  517TIP3    H2 1516   4.174   2.563   0.840
  518TIP3   OH2 1517   0.717   5.647   2.647
  518TIP3    H1 1518   0.680   5.575   2.596
  518TIP3    H2 1519   0.698   5.624   2.738
  519TIP3   OH2 1520   3.451   3.212   5.305
  519TIP3    H1 1521   3.490   3.198   5.218
  519TIP3    H2 1522   3.382   3.146   5.310
  520TIP3   OH2 1523   3.380   5.263   3.834
  520TIP3    H1 1524   3.398   5.218   3.917
  520TIP3    H2 1525   3.312   5.327   3.857
  521TIP3   OH2 1526   1.840   1.650   0.958
  521TIP3    H1 1527   1.806   1.727   0.913
  521TIP3    H2 1528   1.840   1.581   0.892
  522TIP3   OH2 1529   0.006   0.433   3.706
  522TIP3    H1 1530  -0.010   0.459   3.615
  522TIP3    H2 1531   0.087   0.477   3.729
  523TIP3   OH2 1532   3.801   3.275   4.701
  523TIP3    H1 1533   3.746   3.347   4.734
  523TIP3    H2 1534   3.738   3.207   4.675
  524TIP3   OH2 1535   2.162   5.904   0.778
  524TIP3    H1 1536   2.163   5.963   0.703
  524TIP3    H2 1537   2.074   5.912   0.814
  525TIP3   OH2 1538   2.300   2.912   5.230
  525TIP3    H1 1539   2.324   2.823   5.206
  525TIP3    H2 1540   2.210   2.904   5.261
  526TIP3   OH2 1541   2.098   1.904   4.554
  526TIP3    H1 1542   2.069   1.971   4.493
  526TIP3    H2 1543   2.073   1.939   4.640
  527TIP3   OH2 1544   0.312   4.857   1.700
  527TIP3    H1 1545   0.321   4.924   1.632
  527TIP3    H2 1546   0.269   4.902   1.773
  528TIP3   OH2 1547   2.501   2.060   2.659
  528TIP3    H1 1548   2.568   2.027   2.719
  528TIP3    H2 1549   2.543   2.058   2.573
  529TIP3   OH2 1550   4.739   3.812   5.582
  529TIP3    H1 1551   4.802   3.762   5.633
  529TIP3    H2 1552   4.792   3.858   5.516
  530TIP3   OH2 1553   4.270   5.307   3.914
  530TIP3    H1 1554   4.194   5.264   3.953
  530TIP3    H2 1555   4.262   5.399   3.941
  531TIP3   OH2 1556   5.448   5.022   5.210
  531TIP3    H1 1557   5.518   5.087   5.213
  531TIP3    H2 1558   5.377   5.064   5.162
  532TIP3   OH2 1559   2.838   4.027   4.744
  532TIP3    H1 1560   2.854   4.055   4.654
  532TIP3    H2 1561   2.845   3.932   4.742
  533TIP3   OH2 1562   2.282   0.684   2.401
  533TIP3    H1 1563   2.234   0.748   2.454
  533TIP3    H2 1564   2.214   0.641   2.349
  534TIP3   OH2 1565   6.157   0.979   4.685
  534TIP3    H1 1566   6.062   0.966   4.692
  534TIP3    H2 1567   6.180   1.029   4.763
  535TIP3   OH2 1568   5.116   1.894   5.694
  535TIP3    H1 1569   5.080   1.808   5.671
  535TIP3    H2 1570   5.208   1.889   5.670
  536TIP3   OH2 1571   5.384   1.184   0.927
  536TIP3    H1 1572   5.399   1.182   0.832
  536TIP3    H2 1573   5.365   1.093   0.950
  537TIP3   OH2 1574   5.884   0.762   0.140
  537TIP3    H1 1575   5.973   0.759   0.103
  537TIP3    H2 1576   5.868   0.855   0.154
  538TIP3   OH2 1577   5.211   0.490   1.256
  538TIP3    H1 1578   5.152   0.434   1.205
  538TIP3    H2 1579   5.182   0.479   1.347
  539TIP3   OH2 1580   0.381   4.744   4.985
  539TIP3    H1 1581   0.459   4.766   5.036
  539TIP3    H2 1582   0.313   4.803   5.019
  540TIP3   OH2 1583   0.501   6.294   1.529
  540TIP3    H1 1584   0.518   6.384   1.555
  540TIP3    H2 1585   0.529   6.242   1.604
  541TIP3   OH2 1586   6.802   0.799   1.783
  541TIP3    H1 1587   6.740   0.856   1.737
  541TIP3    H2 1588   6.753   0.766   1.859
  542TIP3   OH2 1589   2.891   3.763   2.229
  542TIP3    H1 1590   2.956   3.715   2.179
  542TIP3    H2 1591   2.941   3.808   2.297
  543TIP3   OH2 1592   1.157   2.002   1.938
  543TIP3    H1 1593   1.115   2.078   1.899
  543TIP3    H2 1594   1.149   1.933   1.872
  544TIP3   OH2 1595   3.441   6.786   1.374
  544TIP3    H1 1596   3.380   6.761   1.304
  544TIP3    H2 1597   3.475   6.703   1.407
  545TIP3   OH2 1598   2.825   5.766   0.482
  545TIP3    H1 1599   2.734   5.786   0.505
  545TIP3    H2 1600   2.858   5.847   0.442
  546TIP3   OH2 1601   5.400   5.712   2.284
  546TIP3    H1 1602   5.307   5.728   2.267
  546TIP3    H2 1603   5.414   5.622   2.256
  547TIP3   OH2 1604   2.373   5.150   2.741
  547TIP3    H1 1605   2.373   5.205   2.663
  547TIP3    H2 1606   2.354   5.062   2.709
  548TIP3   OH2 1607   3.791   4.477   4.890
  548TIP3    H1 1608   3.716   4.476   4.830
  548TIP3    H2 1609   3.855   4.419   4.850
  549TIP3   OH2 1610   0.769   3.992   5.936
  549TIP3    H1 1611   0.753   4.011   5.844
  549TIP3    H2 1612   0.757   4.075   5.981
  550TIP3   OH2 1613   3.557   1.330   2.308
  550TIP3    H1 1614   3.610   1.315   2.386
  550TIP3    H2 1615   3.576   1.421   2.284
  551TIP3   OH2 1616   1.189   4.883   4.996
  551TIP3    H1 1617   1.247   4.956   4.971
  551TIP3    H2 1618   1.231   4.846   5.074
  552TIP3   OH2 1619   2.014   0.675   4.162
  552TIP3    H1 1620   2.067   0.705   4.236
  552TIP3    H2 1621   1.951   0.745   4.148
  553TIP3   OH2 1622   0.062   4.131   4.962
  553TIP3    H1 1623   0.017   4.207   4.924
  553TIP3    H2 1624  -0.009   4.070   4.983
  554TIP3   OH2 1625   1.967   3.249   4.206
  554TIP3    H1 1626   1.944   3.226   4.116
  554TIP3    H2 1627   2.046   3.302   4.198
  555TIP3   OH2 1628   3.895   6.260   2.789
  555TIP3    H1 1629   3.920   6.188   2.846
  555TIP3    H2 1630   3.845   6.319   2.845
  556TIP3   OH2 1631   1.185   5.239   1.540
  556TIP3    H1 1632   1.202   5.246   1.634
  556TIP3    H2 1633   1.249   5.175   1.509
  557TIP3   OH2 1634   5.976   3.816   0.050
  557TIP3    H1 1635   5.909   3.837  -0.014
  557TIP3    H2 1636   6.020   3.739   0.014
  558TIP3   OH2 1637   5.760   0.013   2.195
  558TIP3    H1 1638   5.731   0.099   2.226
  558TIP3    H2 1639   5.692  -0.014   2.133
  559TIP3   OH2 1640   5.153   0.798   1.165
  559TIP3    H1 1641   5.069   0.825   1.204
  559TIP3    H2 1642   5.164   0.708   1.193
  560TIP3   OH2 1643   3.128   4.623   0.309
  560TIP3    H1 1644   3.130   4.709   0.352
  560TIP3    H2 1645   3.143   4.560   0.380
  561TIP3   OH2 1646   2.914   3.579   2.932
  561TIP3    H1 1647   2.839   3.632   2.956
  561TIP3    H2 1648   2.898   3.554   2.841
  562TIP3   OH2 1649   5.755   4.759   2.877
  562TIP3    H1 1650   5.695   4.694   2.840
  562TIP3    H2 1651   5.698   4.826   2.915
  563TIP3   OH2 1652   1.406   4.542   1.812
  563TIP3    H1 1653   1.376   4.623   1.854
  563TIP3    H2 1654   1.325   4.494   1.794
  564TIP3   OH2 1655   1.650   5.388   4.827
  564TIP3    H1 1656   1.652   5.338   4.909
  564TIP3    H2 1657   1.559   5.382   4.798
  565TIP3   OH2 1658   0.651   1.865   5.801
  565TIP3    H1 1659   0.621   1.950   5.769
  565TIP3    H2 1660   0.635   1.868   5.895
  566TIP3   OH2 1661   3.966   0.814   2.857
  566TIP3    H1 1662   4.026   0.780   2.924
  566TIP3    H2 1663   3.998   0.901   2.838
  567TIP3   OH2 1664   1.964   6.627   1.003
  567TIP3    H1 1665   2.039   6.686   0.998
  567TIP3    H2 1666   1.937   6.631   1.095
  568TIP3   OH2 1667   3.965   0.349   0.758
  568TIP3    H1 1668   4.022   0.404   0.812
  568TIP3    H2 1669   4.020   0.327   0.682
  569TIP3   OH2 1670   2.826   4.825   2.566
  569TIP3    H1 1671   2.820   4.730   2.555
  569TIP3    H2 1672   2.747   4.849   2.614
  570TIP3   OH2 1673   3.329   6.679   1.858
  570TIP3    H1 1674   3.287   6.641   1.935
  570TIP3    H2 1675   3.417   6.642   1.858
  571TIP3   OH2 1676   2.804   5.397   4.755
  571TIP3    H1 1677   2.753   5.410   4.835
  571TIP3    H2 1678   2.744   5.419   4.684
  572TIP3   OH2 1679   3.339   4.217   4.273
  572TIP3    H1 1680   3.409   4.254   4.326
  572TIP3    H2 1681   3.315   4.136   4.317
  573TIP3   OH2 1682   0.341   2.084   5.762
  573TIP3    H1 1683   0.427   2.117   5.789
  573TIP3    H2 1684   0.334   2.109   5.670
  574TIP3   OH2 1685   2.926   2.596   4.694
  574TIP3    H1 1686   2.858   2.584   4.761
  574TIP3    H2 1687   2.913   2.685   4.663
  575TIP3   OH2 1688   0.687   2.161   4.968
  575TIP3    H1 1689   0.662   2.092   4.907
  575TIP3    H2 1690   0.648   2.135   5.051
  576TIP3   OH2 1691   2.670   1.565   0.764
  576TIP3    H1 1692   2.641   1.626   0.696
  576TIP3    H2 1693   2.594   1.509   0.779
  577TIP3   OH2 1694   6.046   4.712   3.409
  577TIP3    H1 1695   6.075   4.621   3.413
  577TIP3    H2 1696   5.952   4.706   3.390
  578TIP3   OH2 1697   6.444   5.224   3.431
  578TIP3    H1 1698   6.446   5.129   3.428
  578TIP3    H2 1699   6.534   5.251   3.411
  579TIP3   OH2 1700   4.022   1.856   1.613
  579TIP3    H1 1701   4.014   1.834   1.706
  579TIP3    H2 1702   4.017   1.772   1.568
  580TIP3   OH2 1703   3.240   1.375   0.159
  580TIP3    H1 1704   3.273   1.313   0.094
  580TIP3    H2 1705   3.173   1.326   0.207
  581TIP3   OH2 1706   3.634   5.146   2.505
  581TIP3    H1 1707   3.652   5.158   2.599
  581TIP3    H2 1708   3.599   5.057   2.500
  582TIP3   OH2 1709   2.954   1.561   0.704
  582TIP3    H1 1710   2.998   1.643   0.682
  582TIP3    H2 1711   2.913   1.577   0.789
  583TIP3   OH2 1712   4.471   0.843   5.061
  583TIP3    H1 1713   4.494   0.834   4.969
  583TIP3    H2 1714   4.547   0.887   5.100
  584TIP3   OH2 1715   0.155   5.697   2.393
  584TIP3    H1 1716   0.107   5.642   2.330
  584TIP3    H2 1717   0.236   5.720   2.348
  585TIP3   OH2 1718   4.713   3.752   0.370
  585TIP3    H1 1719   4.621   3.775   0.355
  585TIP3    H2 1720   4.732   3.789   0.457
  586TIP3   OH2 1721   0.277   0.112   0.107
  586TIP3    H1 1722   0.304   0.200   0.082
  586TIP3    H2 1723   0.257   0.069   0.024
  587TIP3   OH2 1724   1.402   5.052   3.054
  587TIP3    H1 1725   1.419   5.146   3.064
  587TIP3    H2 1726   1.307   5.047   3.042
  588TIP3   OH2 1727   6.446   5.557   0.652
  588TIP3    H1 1728   6.356   5.563   0.684
  588TIP3    H2 1729   6.451   5.470   0.613
  589TIP3   OH2 1730   3.080   2.534   1.060
  589TIP3    H1 1731   3.084   2.530   1.156
  589TIP3    H2 1732   3.014   2.470   1.036
  590TIP3   OH2 1733   6.755   3.810   0.539
  590TIP3    H1 1734   6.831   3.766   0.578
  590TIP3    H2 1735   6.680   3.777   0.588
  591TIP3   OH2 1736   5.179   1.733   2.021
  591TIP3    H1 1737   5.159   1.654   2.072
  591TIP3    H2 1738   5.175   1.703   1.930
  592TIP3   OH2 1739   0.046   6.511   5.091
  592TIP3    H1 1740   0.018   6.428   5.131
  592TIP3    H2 1741   0.112   6.485   5.026
  593TIP3   OH2 1742   2.271   3.093   3.305
  593TIP3    H1 1743   2.269   3.006   3.265
  593TIP3    H2 1744   2.179   3.116   3.316
  594TIP3   OH2 1745   0.506   4.457   1.862
  594TIP3    H1 1746   0.508   4.367   1.894
  594TIP3    H2 1747   0.437   4.458   1.796
  595TIP3   OH2 1748   0.571   2.044   0.426
  595TIP3    H1 1749   0.604   2.119   0.476
  595TIP3    H2 1750   0.622   1.970   0.459
  596TIP3   OH2 1751   1.827   6.287   4.283
  596TIP3    H1 1752   1.739   6.266   4.254
  596TIP3    H2 1753   1.870   6.202   4.294
  597TIP3   OH2 1754   3.001   0.380   0.849
  597TIP3    H1 1755   2.953   0.324   0.789
  597TIP3    H2 1756   3.051   0.320   0.904
  598TIP3   OH2 1757   1.909   3.549   2.786
  598TIP3    H1 1758   1.996   3.509   2.777
  598TIP3    H2 1759   1.924   3.643   2.775
  599TIP3   OH2 1760   1.168   3.596   4.088
  599TIP3    H1 1761   1.101   3.623   4.026
  599TIP3    H2 1762   1.118   3.558   4.161
  600TIP3   OH2 1763   4.523   5.150   5.926
  600TIP3    H1 1764   4.506   5.186   5.839
  600TIP3    H2 1765   4.598   5.092   5.914
  601TIP3   OH2 1766   6.720   2.889   2.513
  601TIP3    H1 1767   6.778   2.965   2.512
  601TIP3    H2 1768   6.682   2.889   2.601
  602TIP3   OH2 1769   1.228   6.724   1.009
  602TIP3    H1 1770   1.282   6.796   0.979
  602TIP3    H2 1771   1.204   6.676   0.929
  603TIP3   OH2 1772   3.144   3.434   4.533
  603TIP3    H1 1773   3.232   3.398   4.528
  603TIP3    H2 1774   3.156   3.523   4.566
  604TIP3   OH2 1775   6.228   4.050   4.281
  604TIP3    H1 1776   6.273   3.988   4.339
  604TIP3    H2 1777   6.172   4.100   4.340
  605TIP3   OH2 1778   2.564   5.843   0.557
  605TIP3    H1 1779   2.543   5.762   0.509
  605TIP3    H2 1780   2.487   5.859   0.611
  606TIP3   OH2 1781   5.144   2.713   5.655
  606TIP3    H1 1782   5.238   2.720   5.671
  606TIP3    H2 1783   5.137   2.660   5.576
  607TIP3   OH2 1784   0.964   2.269   4.385
  607TIP3    H1 1785   1.055   2.289   4.405
  607TIP3    H2 1786   0.958   2.174   4.395
  608TIP3   OH2 1787   5.789   4.040   5.173
  608TIP3    H1 1788   5.818   4.129   5.156
  608TIP3    H2 1789   5.710   4.050   5.225
  609TIP3   OH2 1790   4.063   0.873   5.723
  609TIP3    H1 1791   4.058   0.888   5.818
  609TIP3    H2 1792   4.106   0.951   5.689
  610TIP3   OH2 1793   3.701   1.905   0.350
  610TIP3    H1 1794   3.752   1.823   0.357
  610TIP3    H2 1795   3.738   1.961   0.418
  611TIP3   OH2 1796   0.265   5.325   4.128
  611TIP3    H1 1797   0.294   5.235   4.112
  611TIP3    H2 1798   0.261   5.331   4.223
  612TIP3   OH2 1799   2.816   5.546   0.152
  612TIP3    H1 1800   2.721   5.540   0.166
  612TIP3    H2 1801   2.824   5.579   0.063
  613TIP3   OH2 1802   4.309   0.067   4.420
  613TIP3    H1 1803   4.259  -0.015   4.422
  613TIP3    H2 1804   4.256   0.125   4.365
  614TIP3   OH2 1805   1.546   6.589   2.922
  614TIP3    H1 1806   1.638   6.574   2.901
  614TIP3    H2 1807   1.498   6.550   2.849
  615TIP3   OH2 1808   4.660   4.391   1.903
  615TIP3    H1 1809   4.631   4.459   1.964
  615TIP3    H2 1810   4.715   4.437   1.840
  616TIP3   OH2 1811   5.715   3.263   1.608
  616TIP3    H1 1812   5.752   3.306   1.686
  616TIP3    H2 1813   5.678   3.181   1.641
  617TIP3   OH2 1814   2.346   6.614   1.368
  617TIP3    H1 1815   2.317   6.533   1.325
  617TIP3    H2 1816   2.430   6.591   1.407
  618TIP3   OH2 1817   6.793   5.784   2.407
  618TIP3    H1 1818   6.758   5.695   2.404
  618TIP3    H2 1819   6.739   5.834   2.346
  619TIP3   OH2 1820   3.667   2.039   2.935
  619TIP3    H1 1821   3.641   2.012   2.847
  619TIP3    H2 1822   3.660   1.960   2.988
  620TIP3   OH2 1823   2.922   3.182   3.585
  620TIP3    H1 1824   2.872   3.165   3.665
  620TIP3    H2 1825   3.005   3.218   3.615
  621TIP3   OH2 1826   1.683   1.115   5.548
  621TIP3    H1 1827   1.744   1.106   5.622
  621TIP3    H2 1828   1.599   1.134   5.589
  622TIP3   OH2 1829   5.248   1.900   0.494
  622TIP3    H1 1830   5.297   1.842   0.436
  622TIP3    H2 1831   5.183   1.941   0.438
  623TIP3   OH2 1832   5.271   1.135   3.178
  623TIP3    H1 1833   5.206   1.201   3.202
  623TIP3    H2 1834   5.323   1.124   3.257
  624TIP3   OH2 1835   3.951   5.294   1.547
  624TIP3    H1 1836   4.024   5.286   1.486
  624TIP3    H2 1837   3.956   5.384   1.579
  625TIP3   OH2 1838   5.840   3.021   1.692
  625TIP3    H1 1839   5.801   2.950   1.742
  625TIP3    H2 1840   5.850   3.092   1.755
  626TIP3   OH2 1841   6.216   0.613   3.997
  626TIP3    H1 1842   6.286   0.560   4.036
  626TIP3    H2 1843   6.250   0.637   3.911
  627TIP3   OH2 1844   4.168   5.741   1.401
  627TIP3    H1 1845   4.165   5.751   1.496
  627TIP3    H2 1846   4.194   5.827   1.368
  628TIP3   OH2 1847   6.092   6.541   5.339
  628TIP3    H1 1848   6.123   6.627   5.368
  628TIP3    H2 1849   6.167   6.483   5.353
  629TIP3   OH2 1850   1.028   5.487   3.845
  629TIP3    H1 1851   1.102   5.482   3.784
  629TIP3    H2 1852   0.991   5.399   3.846
  630TIP3   OH2 1853   0.049   2.050   2.258
  630TIP3    H1 1854   0.075   2.026   2.170
  630TIP3    H2 1855   0.071   1.974   2.312
  631TIP3   OH2 1856   3.848   2.161   0.843
  631TIP3    H1 1857   3.777   2.220   0.869
  631TIP3    H2 1858   3.832   2.081   0.894
  632TIP3   OH2 1859   6.094   0.593   4.580
  632TIP3    H1 1860   6.134   0.558   4.501
  632TIP3    H2 1861   6.164   0.640   4.624
  633TIP3   OH2 1862   4.994   0.744   5.173
  633TIP3    H1 1863   5.041   0.759   5.255
  633TIP3    H2 1864   4.924   0.682   5.196
  634TIP3   OH2 1865   3.684   2.519   5.131
  634TIP3    H1 1866   3.636   2.438   5.121
  634TIP3    H2 1867   3.770   2.492   5.164
  635TIP3   OH2 1868   5.427   4.192   3.932
  635TIP3    H1 1869   5.403   4.283   3.915
  635TIP3    H2 1870   5.354   4.140   3.898
  636TIP3   OH2 1871   4.346   3.081   4.205
  636TIP3    H1 1872   4.385   3.034   4.131
  636TIP3    H2 1873   4.271   3.027   4.230
  637TIP3   OH2 1874   4.412   6.125   4.661
  637TIP3    H1 1875   4.385   6.216   4.674
  637TIP3    H2 1876   4.396   6.083   4.745
  638TIP3   OH2 1877   6.931   2.752   5.013
  638TIP3    H1 1878   6.996   2.772   5.081
  638TIP3    H2 1879   6.903   2.837   4.980
  639TIP3   OH2 1880   5.231   4.448   4.985
  639TIP3    H1 1881   5.252   4.505   4.911
  639TIP3    H2 1882   5.190   4.371   4.945
  640TIP3   OH2 1883   5.100   1.305   2.483
  640TIP3    H1 1884   5.105   1.383   2.538
  640TIP3    H2 1885   5.149   1.329   2.404
  641TIP3   OH2 1886   6.114   1.361   1.843
  641TIP3    H1 1887   6.171   1.433   1.817
  641TIP3    H2 1888   6.054   1.349   1.769
  642TIP3   OH2 1889   0.135   3.156   1.798
  642TIP3    H1 1890   0.044   3.126   1.811
  642TIP3    H2 1891   0.177   3.141   1.883
  643TIP3   OH2 1892   1.978   2.410   0.229
  643TIP3    H1 1893   2.000   2.419   0.322
  643TIP3    H2 1894   2.051   2.360   0.192
  644TIP3   OH2 1895   2.458   4.239   4.552
  644TIP3    H1 1896   2.487   4.244   4.644
  644TIP3    H2 1897   2.539   4.230   4.502
  645TIP3   OH2 1898   6.558   0.403   1.247
  645TIP3    H1 1899   6.563   0.474   1.311
  645TIP3    H2 1900   6.613   0.432   1.174
  646TIP3   OH2 1901   0.400   6.535   0.054
  646TIP3    H1 1902   0.338   6.579  -0.004
  646TIP3    H2 1903   0.356   6.453   0.078
  647TIP3   OH2 1904   5.347   5.281   0.618
  647TIP3    H1 1905   5.301   5.365   0.619
  647TIP3    H2 1906   5.431   5.300   0.577
  648TIP3   OH2 1907   6.185   3.862   2.452
  648TIP3    H1 1908   6.200   3.783   2.400
  648TIP3    H2 1909   6.270   3.880   2.492
  649TIP3   OH2 1910   1.103   4.531   4.816
  649TIP3    H1 1911   1.068   4.494   4.896
  649TIP3    H2 1912   1.197   4.532   4.829
  650TIP3   OH2 1913   0.766   0.096   4.937
  650TIP3    H1 1914   0.846   0.116   4.889
  650TIP3    H2 1915   0.733   0.181   4.965
  651TIP3   OH2 1916   2.577   1.996   3.720
  651TIP3    H1 1917   2.589   1.993   3.626
  651TIP3    H2 1918   2.638   1.931   3.755
  652TIP3   OH2 1919   4.690   2.133   0.560
  652TIP3    H1 1920   4.690   2.201   0.493
  652TIP3    H2 1921   4.644   2.172   0.634
  653TIP3   OH2 1922   5.972   4.810   4.875
  653TIP3    H1 1923   5.907   4.880   4.870
  653TIP3    H2 1924   5.921   4.729   4.868
  654TIP3   OH2 1925   2.293   2.391   4.381
  654TIP3    H1 1926   2.298   2.296   4.367
  654TIP3    H2 1927   2.201   2.407   4.403
  655TIP3   OH2 1928   5.401   4.220   5.166
  655TIP3    H1 1929   5.415   4.314   5.174
  655TIP3    H2 1930   5.316   4.206   5.208
  656TIP3   OH2 1931   3.290   6.129   1.406
  656TIP3    H1 1932   3.313   6.204   1.461
  656TIP3    H2 1933   3.203   6.103   1.434
  657TIP3   OH2 1934   5.840   4.068   5.659
  657TIP3    H1 1935   5.843   4.110   5.746
  657TIP3    H2 1936   5.797   3.985   5.674
  658TIP3   OH2 1937   2.592   5.061   2.937
  658TIP3    H1 1938   2.525   5.042   2.871
  658TIP3    H2 1939   2.566   5.009   3.013
  659TIP3   OH2 1940   5.053   5.961   5.678
  659TIP3    H1 1941   5.148   5.963   5.665
  659TIP3    H2 1942   5.019   5.911   5.604
  660TIP3   OH2 1943   1.070   3.174   3.273
  660TIP3    H1 1944   1.144   3.116   3.258
  660TIP3    H2 1945   1.032   3.143   3.356
  661TIP3   OH2 1946   0.826   6.504   0.465
  661TIP3    H1 1947   0.898   6.509   0.528
  661TIP3    H2 1948   0.757   6.559   0.503
  662TIP3   OH2 1949   0.769   3.205   0.763
  662TIP3    H1 1950   0.712   3.132   0.789
  662TIP3    H2 1951   0.760   3.269   0.833
  663TIP3   OH2 1952   6.391   6.569   3.072
  663TIP3    H1 1953   6.448   6.639   3.041
  663TIP3    H2 1954   6.444   6.521   3.136
  664TIP3   OH2 1955   6.685   0.491   4.650
  664TIP3    H1 1956   6.625   0.528   4.585
  664TIP3    H2 1957   6.642   0.410   4.678
  665TIP3   OH2 1958   4.031   1.839   3.815
  665TIP3    H1 1959   3.961   1.774   3.824
  665TIP3    H2 1960   4.022   1.870   3.725
  666TIP3   OH2 1961   3.048   1.321   3.634
  666TIP3    H1 1962   3.022   1.257   3.700
  666TIP3    H2 1963   3.141   1.337   3.651
  667TIP3   OH2 1964   1.289   6.190   1.175
  667TIP3    H1 1965   1.253   6.102   1.160
  667TIP3    H2 1966   1.346   6.205   1.099
  668TIP3   OH2 1967   5.240   0.190   1.238
  668TIP3    H1 1968   5.244   0.182   1.334
  668TIP3    H2 1969   5.153   0.225   1.220
  669TIP3   OH2 1970   3.099   3.154   1.843
  669TIP3    H1 1971   3.192   3.135   1.855
  669TIP3    H2 1972   3.095   3.249   1.832
  670TIP3   OH2 1973   6.315   4.609   2.545
  670TIP3    H1 1974   6.381   4.595   2.477
  670TIP3    H2 1975   6.319   4.703   2.563
  671TIP3   OH2 1976   2.676   5.528   2.726
  671TIP3    H1 1977   2.596   5.569   2.759
  671TIP3    H2 1978   2.676   5.548   2.632
  672TIP3   OH2 1979   1.021   1.707   5.781
  672TIP3    H1 1980   1.036   1.791   5.825
  672TIP3    H2 1981   1.109   1.671   5.767
  673TIP3   OH2 1982   0.787   0.836   1.755
  673TIP3    H1 1983   0.806   0.918   1.709
  673TIP3    H2 1984   0.821   0.850   1.843
  674TIP3   OH2 1985   6.353   4.703   3.479
  674TIP3    H1 1986   6.411   4.628   3.464
  674TIP3    H2 1987   6.368   4.760   3.404
  675TIP3   OH2 1988   6.444   5.859   1.243
  675TIP3    H1 1989   6.426   5.768   1.267
  675TIP3    H2 1990   6.443   5.859   1.147
  676TIP3   OH2 1991   2.921   5.487   3.648
  676TIP3    H1 1992   2.953   5.427   3.715
  676TIP3    H2 1993   2.833   5.455   3.627
  677TIP3   OH2 1994   2.114   0.032   2.536
  677TIP3    H1 1995   2.057   0.037   2.613
  677TIP3    H2 1996   2.100  -0.057   2.502
  678TIP3   OH2 1997   4.108   2.625   3.902
  678TIP3    H1 1998   4.084   2.715   3.923
  678TIP3    H2 1999   4.079   2.573   3.976
  679TIP3   OH2 2000   1.404   5.090   4.961
  679TIP3    H1 2001   1.469   5.039   4.913
  679TIP3    H2 2002   1.431   5.083   5.053
  680TIP3   OH2 2003   7.129   5.383   0.729
  680TIP3    H1 2004   7.167   5.442   0.795
  680TIP3    H2 2005   7.051   5.429   0.698
  681TIP3   OH2 2006   6.129   3.519   1.975
  681TIP3    H1 2007   6.073   3.542   1.900
  681TIP3    H2 2008   6.082   3.555   2.051
  682TIP3   OH2 2009   2.863   2.937   3.016
  682TIP3    H1 2010   2.900   2.862   2.969
  682TIP3    H2 2011   2.900   3.013   2.971
  683TIP3   OH2 2012   6.936   5.264   0.962
  683TIP3    H1 2013   6.856   5.212   0.971
  683TIP3    H2 2014   6.923   5.312   0.880
  684TIP3   OH2 2015   4.867   0.461   4.751
  684TIP3    H1 2016   4.786   0.411   4.758
  684TIP3    H2 2017   4.937   0.396   4.760
  685TIP3   OH2 2018   0.436   1.254   5.334
  685TIP3    H1 2019   0.429   1.221   5.423
  685TIP3    H2 2020   0.511   1.313   5.336
  686TIP3   OH2 2021   0.390   4.667   1.991
  686TIP3    H1 2022   0.434   4.748   1.965
  686TIP3    H2 2023   0.444   4.597   1.955
  687TIP3   OH2 2024   2.762   3.892   2.973
  687TIP3    H1 2025   2.702   3.903   2.899
  687TIP3    H2 2026   2.732   3.813   3.017
  688TIP3   OH2 2027   1.783   6.310   3.114
  688TIP3    H1 2028   1.727   6.233   3.125
  688TIP3    H2 2029   1.735   6.380   3.157
  689TIP3   OH2 2030   3.070   1.021   0.467
  689TIP3    H1 2031   3.041   0.934   0.494
  689TIP3    H2 2032   3.165   1.019   0.477
  690TIP3   OH2 2033   3.089   0.518   3.674
  690TIP3    H1 2034   3.079   0.456   3.602
  690TIP3    H2 2035   3.178   0.503   3.706
  691TIP3   OH2 2036   3.028   3.953   1.976
  691TIP3    H1 2037   3.033   3.869   1.932
  691TIP3    H2 2038   3.062   4.016   1.913
  692TIP3   OH2 2039   5.415   6.857   4.220
  692TIP3    H1 2040   5.334   6.878   4.267
  692TIP3    H2 2041   5.426   6.762   4.232
  693TIP3   OH2 2042   1.147   6.780  -0.023
  693TIP3    H1 2043   1.177   6.708  -0.079
  693TIP3    H2 2044   1.151   6.746   0.066
  694TIP3   OH2 2045   7.030   1.915   5.011
  694TIP3    H1 2046   7.041   1.829   4.970
  694TIP3    H2 2047   6.979   1.965   4.947
  695TIP3   OH2 2048   2.994   6.700   4.617
  695TIP3    H1 2049   3.076   6.744   4.639
  695TIP3    H2 2050   2.948   6.761   4.559
  696TIP3   OH2 2051   5.000   3.902   0.701
  696TIP3    H1 2052   5.071   3.856   0.656
  696TIP3    H2 2053   5.038   3.986   0.727
  697TIP3   OH2 2054   2.719   0.563  -0.001
  697TIP3    H1 2055   2.756   0.652  -0.005
  697TIP3    H2 2056   2.667   0.562   0.079
  698TIP3   OH2 2057   2.979   3.839   5.006
  698TIP3    H1 2058   3.029   3.796   5.075
  698TIP3    H2 2059   2.895   3.794   5.005
  699TIP3   OH2 2060   6.864   4.551   3.724
  699TIP3    H1 2061   6.798   4.487   3.751
  699TIP3    H2 2062   6.881   4.530   3.632
  700TIP3   OH2 2063   5.551   4.619   2.735
  700TIP3    H1 2064   5.535   4.525   2.737
  700TIP3    H2 2065   5.501   4.651   2.660
  701TIP3   OH2 2066   6.537   0.212   2.829
  701TIP3    H1 2067   6.494   0.276   2.772
  701TIP3    H2 2068   6.466   0.172   2.879
  702TIP3   OH2 2069   6.687   0.472   0.332
  702TIP3    H1 2070   6.612   0.481   0.391
  702TIP3    H2 2071   6.689   0.379   0.310
  703TIP3   OH2 2072   4.617   1.245   2.281
  703TIP3    H1 2073   4.682   1.238   2.352
  703TIP3    H2 2074   4.624   1.336   2.252
  704TIP3   OH2 2075   3.734   6.812   4.538
  704TIP3    H1 2076   3.757   6.764   4.458
  704TIP3    H2 2077   3.784   6.769   4.607
  705TIP3   OH2 2078   2.844   6.744   2.495
  705TIP3    H1 2079   2.767   6.771   2.546
  705TIP3    H2 2080   2.830   6.651   2.478
  706TIP3   OH2 2081   1.771   4.228   1.832
  706TIP3    H1 2082   1.682   4.233   1.797
  706TIP3    H2 2083   1.765   4.165   1.903
  707TIP3   OH2 2084   6.322   0.158   3.020
  707TIP3    H1 2085   6.268   0.091   2.980
  707TIP3    H2 2086   6.262   0.230   3.039
  708TIP3   OH2 2087   7.214   3.629   3.986
  708TIP3    H1 2088   7.126   3.604   3.959
  708TIP3    H2 2089   7.232   3.576   4.063
  709TIP3   OH2 2090   4.079   5.236   4.608
  709TIP3    H1 2091   3.996   5.216   4.564
  709TIP3    H2 2092   4.089   5.165   4.672
  710TIP3   OH2 2093   4.154   0.641   3.919
  710TIP3    H1 2094   4.148   0.735   3.901
  710TIP3    H2 2095   4.206   0.607   3.847
  711TIP3   OH2 2096   3.559   6.087   2.467
  711TIP3    H1 2097   3.541   6.175   2.500
  711TIP3    H2 2098   3.528   6.089   2.376
  712TIP3   OH2 2099   0.453   1.998   1.690
  712TIP3    H1 2100   0.520   1.964   1.749
  712TIP3    H2 2101   0.385   2.032   1.748
  713TIP3   OH2 2102   7.206   3.777   5.069
  713TIP3    H1 2103   7.137   3.803   5.130
  713TIP3    H2 2104   7.166   3.783   4.983
  714TIP3   OH2 2105   0.155   5.953   1.039
  714TIP3    H1 2106   0.074   5.968   0.990
  714TIP3    H2 2107   0.139   5.872   1.088
  715TIP3   OH2 2108   5.818   2.786   2.220
  715TIP3    H1 2109   5.899   2.743   2.245
  715TIP3    H2 2110   5.787   2.737   2.143
  716TIP3   OH2 2111   1.835   3.005   4.018
  716TIP3    H1 2112   1.833   2.915   3.986
  716TIP3    H2 2113   1.872   2.998   4.106
  717TIP3   OH2 2114   4.208   1.030   5.572
  717TIP3    H1 2115   4.244   1.085   5.503
  717TIP3    H2 2116   4.234   0.941   5.547
  718TIP3   OH2 2117   3.411   1.384   2.649
  718TIP3    H1 2118   3.496   1.385   2.605
  718TIP3    H2 2119   3.403   1.295   2.682
  719TIP3   OH2 2120   5.114   4.469   1.027
  719TIP3    H1 2121   5.105   4.390   1.081
  719TIP3    H2 2122   5.051   4.458   0.957
  720TIP3   OH2 2123   6.858   0.074   0.425
  720TIP3    H1 2124   6.848   0.113   0.512
  720TIP3    H2 2125   6.944   0.031   0.428
  721TIP3   OH2 2126   4.979   4.929   1.403
  721TIP3    H1 2127   4.960   4.853   1.347
  721TIP3    H2 2128   5.074   4.930   1.410
  722TIP3   OH2 2129   0.833   3.487   2.909
  722TIP3    H1 2130   0.807   3.424   2.975
  722TIP3    H2 2131   0.780   3.565   2.928
  723TIP3   OH2 2132   3.683   4.925   5.456
  723TIP3    H1 2133   3.727   4.842   5.438
  723TIP3    H2 2134   3.622   4.936   5.382
  724TIP3   OH2 2135   5.310   4.903   1.163
  724TIP3    H1 2136   5.384   4.844   1.164
  724TIP3    H2 2137   5.266   4.886   1.080
  725TIP3   OH2 2138   3.464   2.806   1.190
  725TIP3    H1 2139   3.369   2.819   1.189
  725TIP3    H2 2140   3.484   2.781   1.280
  726TIP3   OH2 2141   0.947   3.143   4.000
  726TIP3    H1 2142   0.944   3.124   3.907
  726TIP3    H2 2143   1.029   3.192   4.012
  727TIP3   OH2 2144   3.239   0.743   4.022
  727TIP3    H1 2145   3.261   0.815   4.080
  727TIP3    H2 2146   3.319   0.727   3.973
  728TIP3   OH2 2147   1.704   1.311   5.335
  728TIP3    H1 2148   1.794   1.293   5.307
  728TIP3    H2 2149   1.685   1.242   5.399
  729TIP3   OH2 2150   4.648   6.592   5.263
  729TIP3    H1 2151   4.716   6.659   5.259
  729TIP3    H2 2152   4.696   6.509   5.269
  730TIP3   OH2 2153   4.694   5.219   3.792
  730TIP3    H1 2154   4.621   5.208   3.854
  730TIP3    H2 2155   4.671   5.297   3.743
  731TIP3   OH2 2156   5.554   0.183   4.232
  731TIP3    H1 2157   5.567   0.124   4.158
  731TIP3    H2 2158   5.575   0.270   4.198
  732TIP3   OH2 2159   3.277   1.955   1.780
  732TIP3    H1 2160   3.222   1.884   1.815
  732TIP3    H2 2161   3.362   1.914   1.767
  733TIP3   OH2 2162   4.663   5.135   2.620
  733TIP3    H1 2163   4.671   5.229   2.632
  733TIP3    H2 2164   4.739   5.098   2.666
  734TIP3   OH2 2165   6.652   1.091   4.916
  734TIP3    H1 2166   6.612   1.163   4.868
  734TIP3    H2 2167   6.580   1.031   4.935
  735TIP3   OH2 2168   3.205   1.388   1.266
  735TIP3    H1 2169   3.280   1.332   1.286
  735TIP3    H2 2170   3.234   1.476   1.290
  736TIP3   OH2 2171   6.812   3.912   0.848
  736TIP3    H1 2172   6.845   3.856   0.777
  736TIP3    H2 2173   6.748   3.858   0.893
  737TIP3   OH2 2174   3.647   5.596   2.526
  737TIP3    H1 2175   3.626   5.679   2.567
  737TIP3    H2 2176   3.566   5.546   2.528
  738TIP3   OH2 2177   1.856   3.416   2.188
  738TIP3    H1 2178   1.827   3.419   2.097
  738TIP3    H2 2179   1.951   3.426   2.184
  739TIP3   OH2 2180   4.383   2.694   4.273
  739TIP3    H1 2181   4.400   2.765   4.334
  739TIP3    H2 2182   4.298   2.659   4.299
  740TIP3   OH2 2183   0.883   2.970   0.663
  740TIP3    H1 2184   0.923   2.912   0.728
  740TIP3    H2 2185   0.798   2.929   0.645
  741TIP3   OH2 2186   6.432   2.918   3.829
  741TIP3    H1 2187   6.422   2.840   3.882
  741TIP3    H2 2188   6.429   2.886   3.738
  742TIP3   OH2 2189   0.299   4.274   3.950
  742TIP3    H1 2190   0.385   4.233   3.936
  742TIP3    H2 2191   0.299   4.298   4.042
  743TIP3   OH2 2192   0.988   0.812   1.259
  743TIP3    H1 2193   1.048   0.875   1.218
  743TIP3    H2 2194   0.907   0.861   1.271
  744TIP3   OH2 2195   2.175   1.016   0.533
  744TIP3    H1 2196   2.119   1.024   0.610
  744TIP3    H2 2197   2.198   0.923   0.530
  745TIP3   OH2 2198   0.744   3.703   0.857
  745TIP3    H1 2199   0.663   3.751   0.837
  745TIP3    H2 2200   0.714   3.618   0.889
  746TIP3   OH2 2201   6.279   3.555   4.464
  746TIP3    H1 2202   6.238   3.470   4.478
  746TIP3    H2 2203   6.347   3.539   4.399
  747TIP3   OH2 2204   2.919   0.187   3.679
  747TIP3    H1 2205   2.996   0.236   3.651
  747TIP3    H2 2206   2.953   0.123   3.742
  748TIP3   OH2 2207   6.711   0.260   1.971
  748TIP3    H1 2208   6.795   0.242   1.929
  748TIP3    H2 2209   6.657   0.297   1.901
  749TIP3   OH2 2210   6.781   0.195   0.682
  749TIP3    H1 2211   6.876   0.186   0.688
  749TIP3    H2 2212   6.767   0.276   0.634
  750TIP3   OH2 2213   6.712   0.169   3.987
  750TIP3    H1 2214   6.807   0.176   4.000
  750TIP3    H2 2215   6.702   0.112   3.911
  751TIP3   OH2 2216   5.754   5.827   1.149
  751TIP3    H1 2217   5.839   5.784   1.161
  751TIP3    H2 2218   5.704   5.803   1.227
  752TIP3   OH2 2219   5.435   1.099   3.384
  752TIP3    H1 2220   5.410   1.129   3.471
  752TIP3    H2 2221   5.495   1.166   3.352
  753TIP3   OH2 2222   5.275   6.138   1.893
  753TIP3    H1 2223   5.237   6.168   1.810
  753TIP3    H2 2224   5.222   6.061   1.916
  754TIP3   OH2 2225   1.608   5.918   2.983
  754TIP3    H1 2226   1.591   5.825   2.997
  754TIP3    H2 2227   1.695   5.921   2.944
  755TIP3   OH2 2228   1.262   3.019   4.818
  755TIP3    H1 2229   1.294   2.964   4.889
  755TIP3    H2 2230   1.216   3.091   4.861
  756TIP3   OH2 2231   4.311   0.019   0.774
  756TIP3    H1 2232   4.308  -0.020   0.862
  756TIP3    H2 2233   4.362  -0.044   0.723
  757TIP3   OH2 2234   2.769   2.800   1.045
  757TIP3    H1 2235   2.689   2.791   0.993
  757TIP3    H2 2236   2.838   2.763   0.989
  758TIP3   OH2 2237   5.113   0.513   0.852
  758TIP3    H1 2238   5.127   0.556   0.768
  758TIP3    H2 2239   5.021   0.489   0.851
  759TIP3   OH2 2240   6.065   1.164   5.826
  759TIP3    H1 2241   6.135   1.218   5.789
  759TIP3    H2 2242   6.110   1.106   5.887
  760TIP3   OH2 2243   5.498   0.415   5.246
  760TIP3    H1 2244   5.592   0.404   5.230
  760TIP3    H2 2245   5.475   0.495   5.198
  761TIP3   OH2 2246   1.700   3.070   0.370
  761TIP3    H1 2247   1.638   3.139   0.344
  761TIP3    H2 2248   1.647   3.009   0.421
  762TIP3   OH2 2249   5.814   4.705   0.468
  762TIP3    H1 2250   5.882   4.640   0.453
  762TIP3    H2 2251   5.781   4.727   0.381
  763TIP3   OH2 2252   1.937   4.904   2.590
  763TIP3    H1 2253   1.927   4.809   2.598
  763TIP3    H2 2254   2.005   4.916   2.524
  764TIP3   OH2 2255   6.722   0.519   1.832
  764TIP3    H1 2256   6.667   0.512   1.754
  764TIP3    H2 2257   6.810   0.536   1.797
  765TIP3   OH2 2258   5.797   1.168   2.439
  765TIP3    H1 2259   5.703   1.186   2.435
  765TIP3    H2 2260   5.834   1.248   2.476
  766TIP3   OH2 2261   0.746   2.933   1.495
  766TIP3    H1 2262   0.746   3.020   1.535
  766TIP3    H2 2263   0.838   2.915   1.478
  767TIP3   OH2 2264   1.385   1.945   1.300
  767TIP3    H1 2265   1.448   2.016   1.312
  767TIP3    H2 2266   1.412   1.878   1.363
  768TIP3   OH2 2267   2.426   1.452   0.853
  768TIP3    H1 2268   2.471   1.383   0.901
  768TIP3    H2 2269   2.339   1.456   0.893
  769TIP3   OH2 2270   3.524   2.288   0.613
  769TIP3    H1 2271   3.542   2.382   0.605
  769TIP3    H2 2272   3.601   2.245   0.577
  770TIP3   OH2 2273   1.522   2.651  -0.012
  770TIP3    H1 2274   1.503   2.565  -0.050
  770TIP3    H2 2275   1.495   2.644   0.079
  771TIP3   OH2 2276   5.363   3.501   0.447
  771TIP3    H1 2277   5.403   3.468   0.528
  771TIP3    H2 2278   5.338   3.591   0.467
  772TIP3   OH2 2279   6.796   3.497   4.269
  772TIP3    H1 2280   6.788   3.422   4.328
  772TIP3    H2 2281   6.754   3.569   4.316
  773TIP3   OH2 2282   4.199   4.352   2.457
  773TIP3    H1 2283   4.261   4.424   2.462
  773TIP3    H2 2284   4.170   4.339   2.548
  774TIP3   OH2 2285   5.372   0.354   3.679
  774TIP3    H1 2286   5.279   0.369   3.661
  774TIP3    H2 2287   5.409   0.442   3.687
  775TIP3   OH2 2288   2.724   2.589   4.875
  775TIP3    H1 2289   2.662   2.642   4.826
  775TIP3    H2 2290   2.699   2.603   4.967
  776TIP3   OH2 2291   3.367   6.727   0.687
  776TIP3    H1 2292   3.433   6.782   0.644
  776TIP3    H2 2293   3.417   6.656   0.728
  777TIP3   OH2 2294   3.503   5.396   5.151
  777TIP3    H1 2295   3.537   5.478   5.187
  777TIP3    H2 2296   3.506   5.335   5.225
  778TIP3   OH2 2297   7.135   6.671   5.250
  778TIP3    H1 2298   7.119   6.745   5.192
  778TIP3    H2 2299   7.206   6.623   5.209
  779TIP3   OH2 2300   5.971   1.697   2.449
  779TIP3    H1 2301   6.062   1.667   2.456
  779TIP3    H2 2302   5.935   1.683   2.536
  780TIP3   OH2 2303   7.118   4.688   1.248
  780TIP3    H1 2304   7.097   4.693   1.341
  780TIP3    H2 2305   7.213   4.688   1.245
  781TIP3   OH2 2306   3.297   5.388   4.766
  781TIP3    H1 2307   3.338   5.454   4.822
  781TIP3    H2 2308   3.230   5.348   4.822
  782TIP3   OH2 2309   7.050   5.579   2.264
  782TIP3    H1 2310   7.135   5.544   2.238
  782TIP3    H2 2311   7.042   5.662   2.217
  783TIP3   OH2 2312   0.598   0.302   3.649
  783TIP3    H1 2313   0.581   0.313   3.743
  783TIP3    H2 2314   0.515   0.270   3.613
  784TIP3   OH2 2315   1.187   3.293   2.896
  784TIP3    H1 2316   1.267   3.257   2.859
  784TIP3    H2 2317   1.216   3.368   2.949
  785TIP3   OH2 2318   0.510   1.952   2.611
  785TIP3    H1 2319   0.504   1.939   2.706
  785TIP3    H2 2320   0.419   1.956   2.582
  786TIP3   OH2 2321   3.046   3.406   1.928
  786TIP3    H1 2322   2.966   3.368   1.962
  786TIP3    H2 2323   3.081   3.458   2.001
  787TIP3   OH2 2324   4.871   4.197   4.449
  787TIP3    H1 2325   4.835   4.148   4.375
  787TIP3    H2 2326   4.922   4.133   4.498
  788TIP3   OH2 2327   5.583   0.217   4.911
  788TIP3    H1 2328   5.653   0.281   4.899
  788TIP3    H2 2329   5.603   0.175   4.994
  789TIP3   OH2 2330   3.202   4.605   0.820
  789TIP3    H1 2331   3.133   4.565   0.874
  789TIP3    H2 2332   3.183   4.698   0.822
  790TIP3   OH2 2333   0.548   0.958   5.722
  790TIP3    H1 2334   0.603   1.024   5.680
  790TIP3    H2 2335   0.486   0.930   5.654
  791TIP3   OH2 2336   4.612   6.386   0.133
  791TIP3    H1 2337   4.562   6.411   0.211
  791TIP3    H2 2338   4.598   6.292   0.126
  792TIP3   OH2 2339   0.513   3.499   0.140
  792TIP3    H1 2340   0.570   3.558   0.091
  792TIP3    H2 2341   0.440   3.481   0.081
  793TIP3   OH2 2342   5.030   2.565   1.602
  793TIP3    H1 2343   5.117   2.531   1.625
  793TIP3    H2 2344   4.978   2.486   1.585
  794TIP3   OH2 2345   3.652   4.317   5.763
  794TIP3    H1 2346   3.708   4.248   5.727
  794TIP3    H2 2347   3.663   4.391   5.704
  795TIP3   OH2 2348   5.112   1.566   0.893
  795TIP3    H1 2349   5.129   1.483   0.938
  795TIP3    H2 2350   5.199   1.603   0.878
  796TIP3   OH2 2351   3.306   0.101   2.011
  796TIP3    H1 2352   3.298   0.005   2.007
  796TIP3    H2 2353   3.247   0.132   1.943
  797TIP3   OH2 2354   6.268   0.772   3.554
  797TIP3    H1 2355   6.260   0.693   3.500
  797TIP3    H2 2356   6.187   0.820   3.538
  798TIP3   OH2 2357   2.944   5.082   0.415
  798TIP3    H1 2358   2.957   5.082   0.509
  798TIP3    H2 2359   2.849   5.072   0.403
  799TIP3   OH2 2360   0.649   6.150   5.765
  799TIP3    H1 2361   0.597   6.130   5.688
  799TIP3    H2 2362   0.734   6.110   5.748
  800TIP3   OH2 2363   1.851   4.429   3.694
  800TIP3    H1 2364   1.775   4.420   3.635
  800TIP3    H2 2365   1.840   4.358   3.758
  801TIP3   OH2 2366   6.789   5.065   4.387
  801TIP3    H1 2367   6.734   5.129   4.432
  801TIP3    H2 2368   6.861   5.117   4.351
  802TIP3   OH2 2369   0.204   0.214   0.764
  802TIP3    H1 2370   0.215   0.259   0.848
  802TIP3    H2 2371   0.109   0.210   0.752
  803TIP3   OH2 2372   2.466   0.210   4.585
  803TIP3    H1 2373   2.504   0.175   4.666
  803TIP3    H2 2374   2.379   0.240   4.610
  804TIP3   OH2 2375   5.407   1.129   0.643
  804TIP3    H1 2376   5.410   1.033   0.640
  804TIP3    H2 2377   5.495   1.157   0.617
  805TIP3   OH2 2378   4.425   6.212   3.871
  805TIP3    H1 2379   4.362   6.242   3.937
  805TIP3    H2 2380   4.389   6.129   3.840
  806TIP3   OH2 2381   3.946   3.582   2.859
  806TIP3    H1 2382   3.984   3.506   2.814
  806TIP3    H2 2383   3.887   3.621   2.794
  807TIP3   OH2 2384   4.828   2.635   3.973
  807TIP3    H1 2385   4.846   2.721   4.011
  807TIP3    H2 2386   4.763   2.596   4.032
  808TIP3   OH2 2387   0.930   0.381   5.601
  808TIP3    H1 2388   0.942   0.434   5.523
  808TIP3    H2 2389   0.908   0.294   5.568
  809TIP3   OH2 2390   0.207   0.822   1.903
  809TIP3    H1 2391   0.281   0.762   1.897
  809TIP3    H2 2392   0.153   0.787   1.973
  810TIP3   OH2 2393   6.862   0.324   5.244
  810TIP3    H1 2394   6.898   0.387   5.306
  810TIP3    H2 2395   6.767   0.338   5.248
  811TIP3   OH2 2396   1.762   5.059   4.923
  811TIP3    H1 2397   1.770   5.144   4.968
  811TIP3    H2 2398   1.801   4.996   4.984
  812TIP3   OH2 2399   6.176   1.503   0.119
  812TIP3    H1 2400   6.173   1.409   0.136
  812TIP3    H2 2401   6.161   1.511   0.025
  813TIP3   OH2 2402   2.628   4.582   4.459
  813TIP3    H1 2403   2.676   4.501   4.473
  813TIP3    H2 2404   2.595   4.606   4.545
  814TIP3   OH2 2405   3.753   6.433   2.967
  814TIP3    H1 2406   3.696   6.440   3.043
  814TIP3    H2 2407   3.811   6.509   2.973
  815TIP3   OH2 2408   3.793   1.442   0.999
  815TIP3    H1 2409   3.807   1.516   0.941
  815TIP3    H2 2410   3.698   1.430   1.001
  816TIP3   OH2 2411   0.365   2.565   2.535
  816TIP3    H1 2412   0.313   2.559   2.454
  816TIP3    H2 2413   0.453   2.589   2.505
  817TIP3   OH2 2414   5.261   0.316   4.120
  817TIP3    H1 2415   5.275   0.256   4.048
  817TIP3    H2 2416   5.195   0.273   4.175
  818TIP3   OH2 2417   2.533   3.900   4.859
  818TIP3    H1 2418   2.603   3.934   4.915
  818TIP3    H2 2419   2.482   3.843   4.917
  819TIP3   OH2 2420   6.026   4.114   5.463
  819TIP3    H1 2421   5.967   4.101   5.537
  819TIP3    H2 2422   6.005   4.042   5.403
  820TIP3   OH2 2423   5.798   1.551   2.922
  820TIP3    H1 2424   5.721   1.496   2.911
  820TIP3    H2 2425   5.763   1.640   2.930
  821TIP3   OH2 2426   0.456   3.289   4.415
  821TIP3    H1 2427   0.496   3.215   4.461
  821TIP3    H2 2428   0.384   3.317   4.472
  822TIP3   OH2 2429   1.976   3.535   1.395
  822TIP3    H1 2430   1.938   3.621   1.410
  822TIP3    H2 2431   1.979   3.525   1.300
  823TIP3   OH2 2432   2.543   4.939   4.224
  823TIP3    H1 2433   2.577   5.027   4.240
  823TIP3    H2 2434   2.565   4.922   4.132
  824TIP3   OH2 2435   6.457   5.528   3.221
  824TIP3    H1 2436   6.378   5.521   3.168
  824TIP3    H2 2437   6.516   5.462   3.186
  825TIP3   OH2 2438   1.993   0.498   3.800
  825TIP3    H1 2439   1.898   0.496   3.799
  825TIP3    H2 2440   2.017   0.470   3.889
  826TIP3   OH2 2441   2.783   5.676   3.969
  826TIP3    H1 2442   2.720   5.708   4.035
  826TIP3    H2 2443   2.745   5.703   3.885
  827TIP3   OH2 2444   2.134   0.580   5.806
  827TIP3    H1 2445   2.170   0.495   5.780
  827TIP3    H2 2446   2.085   0.561   5.886
  828TIP3   OH2 2447   5.117   2.281   2.085
  828TIP3    H1 2448   5.186   2.219   2.061
  828TIP3    H2 2449   5.055   2.230   2.136
  829TIP3   OH2 2450   2.622   1.257   5.810
  829TIP3    H1 2451   2.616   1.317   5.884
  829TIP3    H2 2452   2.691   1.293   5.755
  830TIP3   OH2 2453   2.728   3.410   4.997
  830TIP3    H1 2454   2.782   3.332   5.010
  830TIP3    H2 2455   2.654   3.379   4.944
  831TIP3   OH2 2456   4.056   4.686   5.246
  831TIP3    H1 2457   4.032   4.604   5.203
  831TIP3    H2 2458   3.975   4.718   5.284
  832TIP3   OH2 2459   0.415   4.464   0.247
  832TIP3    H1 2460   0.419   4.517   0.327
  832TIP3    H2 2461   0.507   4.448   0.225
  833TIP3   OH2 2462   5.913   6.606   4.162
  833TIP3    H1 2463   5.932   6.563   4.245
  833TIP3    H2 2464   5.837   6.561   4.127
  834TIP3   OH2 2465   0.548   3.689   2.295
  834TIP3    H1 2466   0.631   3.702   2.250
  834TIP3    H2 2467   0.567   3.705   2.387
  835TIP3   OH2 2468   0.260   6.422   4.131
  835TIP3    H1 2469   0.326   6.354   4.121
  835TIP3    H2 2470   0.184   6.377   4.167
  836TIP3   OH2 2471   3.050   0.262   2.716
  836TIP3    H1 2472   3.082   0.283   2.628
  836TIP3    H2 2473   3.097   0.323   2.774
  837TIP3   OH2 2474   4.745   6.354   3.251
  837TIP3    H1 2475   4.827   6.402   3.243
  837TIP3    H2 2476   4.723   6.357   3.344
  838TIP3   OH2 2477   4.696   0.535   0.690
  838TIP3    H1 2478   4.629   0.602   0.698
  838TIP3    H2 2479   4.775   0.582   0.664
  839TIP3   OH2 2480   4.729   3.183   1.214
  839TIP3    H1 2481   4.637   3.188   1.240
  839TIP3    H2 2482   4.732   3.229   1.130
  840TIP3   OH2 2483   4.712   5.103   3.025
  840TIP3    H1 2484   4.699   5.183   2.974
  840TIP3    H2 2485   4.637   5.101   3.085
  841TIP3   OH2 2486   4.703   1.466   4.648
  841TIP3    H1 2487   4.796   1.487   4.640
  841TIP3    H2 2488   4.659   1.530   4.592
  842TIP3   OH2 2489   2.270   0.918   4.908
  842TIP3    H1 2490   2.297   0.904   4.999
  842TIP3    H2 2491   2.320   0.853   4.858
  843TIP3   OH2 2492   3.303   0.462   2.141
  843TIP3    H1 2493   3.349   0.401   2.199
  843TIP3    H2 2494   3.214   0.426   2.134
  844TIP3   OH2 2495   5.782   2.508   5.423
  844TIP3    H1 2496   5.731   2.451   5.366
  844TIP3    H2 2497   5.801   2.455   5.500
  845TIP3   OH2 2498   4.803   2.679   0.052
  845TIP3    H1 2499   4.738   2.748   0.035
  845TIP3    H2 2500   4.887   2.722   0.042
  846TIP3   OH2 2501   6.568   6.577   2.656
  846TIP3    H1 2502   6.526   6.496   2.624
  846TIP3    H2 2503   6.503   6.616   2.714
  847TIP3   OH2 2504   4.684   4.981   3.639
  847TIP3    H1 2505   4.594   4.985   3.605
  847TIP3    H2 2506   4.692   5.059   3.694
  848TIP3   OH2 2507   5.671   6.193   1.945
  848TIP3    H1 2508   5.643   6.264   1.888
  848TIP3    H2 2509   5.765   6.185   1.929
  849TIP3   OH2 2510   2.267   1.230   4.377
  849TIP3    H1 2511   2.279   1.276   4.294
  849TIP3    H2 2512   2.226   1.147   4.353
  850TIP3   OH2 2513   6.278   0.035   2.351
  850TIP3    H1 2514   6.351  -0.004   2.302
  850TIP3    H2 2515   6.257   0.115   2.303
  851TIP3   OH2 2516   1.210   4.661   0.496
  851TIP3    H1 2517   1.247   4.718   0.562
  851TIP3    H2 2518   1.283   4.604   0.470
  852TIP3   OH2 2519   4.754   0.738   2.529
  852TIP3    H1 2520   4.787   0.804   2.590
  852TIP3    H2 2521   4.784   0.655   2.566
  853TIP3   OH2 2522   6.128   5.006   1.009
  853TIP3    H1 2523   6.158   5.038   0.924
  853TIP3    H2 2524   6.039   4.975   0.993
  854TIP3   OH2 2525   1.396   3.172   2.152
  854TIP3    H1 2526   1.368   3.218   2.073
  854TIP3    H2 2527   1.484   3.204   2.169
  855TIP3   OH2 2528   2.465   0.252   2.789
  855TIP3    H1 2529   2.480   0.318   2.857
  855TIP3    H2 2530   2.552   0.218   2.768
  856TIP3   OH2 2531   6.927   0.589   0.785
  856TIP3    H1 2532   6.987   0.662   0.801
  856TIP3    H2 2533   6.844   0.631   0.763
  857TIP3   OH2 2534   4.749   6.766   2.430
  857TIP3    H1 2535   4.704   6.682   2.418
  857TIP3    H2 2536   4.680   6.827   2.455
  858TIP3   OH2 2537   6.190   1.860   3.697
  858TIP3    H1 2538   6.122   1.920   3.725
  858TIP3    H2 2539   6.209   1.807   3.775
  859TIP3   OH2 2540   3.099   4.935   0.719
  859TIP3    H1 2541   3.082   4.922   0.813
  859TIP3    H2 2542   3.069   5.024   0.702
  860TIP3   OH2 2543   4.677   2.419   4.187
  860TIP3    H1 2544   4.638   2.471   4.257
  860TIP3    H2 2545   4.607   2.409   4.123
  861TIP3   OH2 2546   2.112   4.151   1.795
  861TIP3    H1 2547   2.197   4.170   1.835
  861TIP3    H2 2548   2.133   4.112   1.711
  862TIP3   OH2 2549   4.504   3.325   1.568
  862TIP3    H1 2550   4.527   3.285   1.652
  862TIP3    H2 2551   4.539   3.414   1.574
  863TIP3   OH2 2552   5.071   4.981   3.839
  863TIP3    H1 2553   5.029   4.896   3.826
  863TIP3    H2 2554   5.075   5.019   3.751
  864TIP3   OH2 2555   0.911   1.157   1.119
  864TIP3    H1 2556   0.988   1.100   1.121
  864TIP3    H2 2557   0.944   1.242   1.091
  865TIP3   OH2 2558   1.116   0.935   4.020
  865TIP3    H1 2559   1.147   1.026   4.021
  865TIP3    H2 2560   1.062   0.929   3.941
  866TIP3   OH2 2561   3.114   3.854   0.033
  866TIP3    H1 2562   3.094   3.920   0.099
  866TIP3    H2 2563   3.029   3.828  -0.003
  867TIP3   OH2 2564   4.022   5.885   2.531
  867TIP3    H1 2565   3.971   5.963   2.508
  867TIP3    H2 2566   3.982   5.814   2.480
  868TIP3   OH2 2567   3.292   5.243   2.475
  868TIP3    H1 2568   3.205   5.275   2.451
  868TIP3    H2 2569   3.309   5.171   2.414
  869TIP3   OH2 2570   0.374   2.080   0.984
  869TIP3    H1 2571   0.390   2.165   1.025
  869TIP3    H2 2572   0.361   2.101   0.891
  870TIP3   OH2 2573   6.322   0.364   1.378
  870TIP3    H1 2574   6.253   0.408   1.328
  870TIP3    H2 2575   6.402   0.383   1.331
  871TIP3   OH2 2576   3.139   6.006   3.108
  871TIP3    H1 2577   3.201   5.998   3.036
  871TIP3    H2 2578   3.115   6.099   3.109
  872TIP3   OH2 2579   4.229   5.701   1.817
  872TIP3    H1 2580   4.228   5.635   1.748
  872TIP3    H2 2581   4.153   5.681   1.872
  873TIP3   OH2 2582   1.865   0.060   0.632
  873TIP3    H1 2583   1.928   0.027   0.696
  873TIP3    H2 2584   1.862  -0.008   0.564
  874TIP3   OH2 2585   3.809   1.191   1.807
  874TIP3    H1 2586   3.853   1.132   1.746
  874TIP3    H2 2587   3.814   1.147   1.892
  875TIP3   OH2 2588   5.241   2.644   3.349
  875TIP3    H1 2589   5.156   2.602   3.358
  875TIP3    H2 2590   5.222   2.737   3.344
  876TIP3   OH2 2591  -0.038   0.332   2.029
  876TIP3    H1 2592   0.030   0.401   2.026
  876TIP3    H2 2593  -0.040   0.306   2.121
  877TIP3   OH2 2594   1.329   3.115   1.861
  877TIP3    H1 2595   1.414   3.159   1.852
  877TIP3    H2 2596   1.302   3.098   1.771
  878TIP3   OH2 2597   5.714   1.483   3.616
  878TIP3    H1 2598   5.731   1.532   3.697
  878TIP3    H2 2599   5.635   1.432   3.634
  879TIP3   OH2 2600   5.741   4.727   0.725
  879TIP3    H1 2601   5.768   4.734   0.633
  879TIP3    H2 2602   5.649   4.754   0.725
  880TIP3   OH2 2603   3.808   0.791   5.605
  880TIP3    H1 2604   3.898   0.813   5.629
  880TIP3    H2 2605   3.765   0.774   5.688
  881TIP3   OH2 2606   4.811   3.756   3.161
  881TIP3    H1 2607   4.789   3.696   3.233
  881TIP3    H2 2608   4.727   3.795   3.136
  882TIP3   OH2 2609   4.037   5.091   3.480
  882TIP3    H1 2610   4.027   4.996   3.480
  882TIP3    H2 2611   4.093   5.109   3.555
  883TIP3   OH2 2612   5.807   0.413   5.198
  883TIP3    H1 2613   5.902   0.410   5.189
  883TIP3    H2 2614   5.790   0.486   5.258
  884TIP3   OH2 2615   6.397   2.409   0.722
  884TIP3    H1 2616   6.467   2.465   0.756
  884TIP3    H2 2617   6.363   2.457   0.646
  885TIP3   OH2 2618   0.095   0.272   5.018
  885TIP3    H1 2619   0.095   0.243   5.109
  885TIP3    H2 2620   0.037   0.211   4.973
  886TIP3   OH2 2621   1.558   2.850   3.281
  886TIP3    H1 2622   1.588   2.853   3.190
  886TIP3    H2 2623   1.464   2.867   3.277
  887TIP3   OH2 2624   3.182   1.500   2.750
  887TIP3    H1 2625   3.222   1.584   2.726
  887TIP3    H2 2626   3.244   1.434   2.720
  888TIP3   OH2 2627   0.145   4.854   0.879
  888TIP3    H1 2628   0.055   4.865   0.909
  888TIP3    H2 2629   0.138   4.801   0.800
  889TIP3   OH2 2630   5.049   5.253   4.947
  889TIP3    H1 2631   5.028   5.309   5.021
  889TIP3    H2 2632   5.034   5.308   4.870
  890TIP3   OH2 2633   0.906   4.625   0.981
  890TIP3    H1 2634   0.990   4.587   0.956
  890TIP3    H2 2635   0.913   4.717   0.955
  891TIP3   OH2 2636   6.944   0.685   2.244
  891TIP3    H1 2637   6.953   0.714   2.335
  891TIP3    H2 2638   6.904   0.598   2.251
  892TIP3   OH2 2639   6.889   5.393   1.196
  892TIP3    H1 2640   6.905   5.350   1.112
  892TIP3    H2 2641   6.878   5.485   1.175
  893TIP3   OH2 2642   0.462   4.005   3.593
  893TIP3    H1 2643   0.513   4.009   3.513
  893TIP3    H2 2644   0.439   4.096   3.611
  894TIP3   OH2 2645   1.308   3.815   3.926
  894TIP3    H1 2646   1.325   3.788   3.836
  894TIP3    H2 2647   1.322   3.736   3.978
  895TIP3   OH2 2648   0.755   2.037   2.488
  895TIP3    H1 2649   0.744   2.120   2.440
  895TIP3    H2 2650   0.670   2.023   2.529
  896TIP3   OH2 2651   1.261   4.644   2.695
  896TIP3    H1 2652   1.245   4.723   2.746
  896TIP3    H2 2653   1.257   4.672   2.604
  897TIP3   OH2 2654   6.542   2.414   4.791
  897TIP3    H1 2655   6.598   2.471   4.844
  897TIP3    H2 2656   6.573   2.326   4.811
  898TIP3   OH2 2657   0.319   1.081   0.368
  898TIP3    H1 2658   0.369   1.080   0.286
  898TIP3    H2 2659   0.276   1.166   0.369
  899TIP3   OH2 2660   6.281   5.948   5.651
  899TIP3    H1 2661   6.225   5.985   5.719
  899TIP3    H2 2662   6.256   5.855   5.648
  900TIP3   OH2 2663   0.675   1.671   0.246
  900TIP3    H1 2664   0.607   1.727   0.207
  900TIP3    H2 2665   0.629   1.619   0.312
  901TIP3   OH2 2666   5.483   0.623   3.771
  901TIP3    H1 2667   5.511   0.611   3.862
  901TIP3    H2 2668   5.440   0.708   3.770
  902TIP3   OH2 2669   1.550   0.864   5.465
  902TIP3    H1 2670   1.633   0.858   5.418
  902TIP3    H2 2671   1.553   0.950   5.508
  903TIP3   OH2 2672   0.705   2.622   0.125
  903TIP3    H1 2673   0.641   2.603   0.057
  903TIP3    H2 2674   0.749   2.702   0.096
  904TIP3   OH2 2675   3.327   0.496   1.005
  904TIP3    H1 2676   3.239   0.492   1.042
  904TIP3    H2 2677   3.375   0.553   1.065
  905TIP3   OH2 2678   5.107   0.231   0.527
  905TIP3    H1 2679   5.174   0.251   0.461
  905TIP3    H2 2680   5.039   0.296   0.511
  906TIP3   OH2 2681   1.608   2.456   5.652
  906TIP3    H1 2682   1.638   2.448   5.742
  906TIP3    H2 2683   1.680   2.501   5.606
  907TIP3   OH2 2684   6.573   6.247   5.723
  907TIP3    H1 2685   6.565   6.152   5.731
  907TIP3    H2 2686   6.575   6.264   5.629
  908TIP3   OH2 2687   5.279   5.130   3.924
  908TIP3    H1 2688   5.216   5.061   3.901
  908TIP3    H2 2689   5.363   5.085   3.929
  909TIP3   OH2 2690   5.837   3.768   3.789
  909TIP3    H1 2691   5.822   3.856   3.825
  909TIP3    H2 2692   5.757   3.720   3.809
  910TIP3   OH2 2693   4.316   2.960   3.532
  910TIP3    H1 2694   4.402   2.974   3.493
  910TIP3    H2 2695   4.325   2.880   3.582
  911TIP3   OH2 2696   0.330   3.820   3.347
  911TIP3    H1 2697   0.344   3.915   3.344
  911TIP3    H2 2698   0.393   3.789   3.412
  912TIP3   OH2 2699   7.119   6.123   4.444
  912TIP3    H1 2700   7.067   6.143   4.521
  912TIP3    H2 2701   7.201   6.087   4.479
  913TIP3   OH2 2702   5.068   2.299   4.437
  913TIP3    H1 2703   5.038   2.326   4.350
  913TIP3    H2 2704   5.030   2.364   4.496
  914TIP3   OH2 2705   4.884   1.348   1.917
  914TIP3    H1 2706   4.931   1.292   1.979
  914TIP3    H2 2707   4.824   1.288   1.872
  915TIP3   OH2 2708   0.225   1.873   3.688
  915TIP3    H1 2709   0.152   1.930   3.710
  915TIP3    H2 2710   0.194   1.785   3.711
  916TIP3   OH2 2711   2.794   0.825   0.817
  916TIP3    H1 2712   2.701   0.846   0.817
  916TIP3    H2 2713   2.838   0.907   0.840
  917TIP3   OH2 2714   3.974   1.517   4.430
  917TIP3    H1 2715   3.903   1.553   4.484
  917TIP3    H2 2716   4.005   1.441   4.479
  918TIP3   OH2 2717   2.832   1.342   0.271
  918TIP3    H1 2718   2.903   1.296   0.315
  918TIP3    H2 2719   2.875   1.393   0.203
  919TIP3   OH2 2720   3.648   4.906   2.717
  919TIP3    H1 2721   3.557   4.926   2.740
  919TIP3    H2 2722   3.648   4.811   2.702
  920TIP3   OH2 2723   0.810   3.537   5.318
  920TIP3    H1 2724   0.765   3.501   5.395
  920TIP3    H2 2725   0.805   3.468   5.252
  921TIP3   OH2 2726   0.273   6.610   3.936
  921TIP3    H1 2727   0.268   6.559   4.016
  921TIP3    H2 2728   0.215   6.685   3.951
  922TIP3   OH2 2729   2.561   2.842   1.366
  922TIP3    H1 2730   2.596   2.928   1.344
  922TIP3    H2 2731   2.638   2.788   1.384
  923TIP3   OH2 2732   2.272   4.566   3.592
  923TIP3    H1 2733   2.286   4.510   3.668
  923TIP3    H2 2734   2.182   4.599   3.602
  924TIP3   OH2 2735   5.612   1.306   1.029
  924TIP3    H1 2736   5.528   1.262   1.041
  924TIP3    H2 2737   5.672   1.261   1.088
  925TIP3   OH2 2738   6.596   1.648  -0.046
  925TIP3    H1 2739   6.548   1.570  -0.018
  925TIP3    H2 2740   6.687   1.619  -0.054
  926TIP3   OH2 2741   0.636   1.344   4.976
  926TIP3    H1 2742   0.592   1.262   4.954
  926TIP3    H2 2743   0.728   1.327   4.958
  927TIP3   OH2 2744   0.078   0.890   0.221
  927TIP3    H1 2745   0.131   0.963   0.188
  927TIP3    H2 2746   0.134   0.848   0.286
  928TIP3   OH2 2747   2.301   1.514   1.676
  928TIP3    H1 2748   2.291   1.476   1.764
  928TIP3    H2 2749   2.276   1.606   1.688
  929TIP3   OH2 2750   5.121   2.639   4.238
  929TIP3    H1 2751   5.100   2.571   4.173
  929TIP3    H2 2752   5.081   2.607   4.319
  930TIP3   OH2 2753   6.352   4.119   2.560
  930TIP3    H1 2754   6.366   4.207   2.593
  930TIP3    H2 2755   6.325   4.069   2.636
  931TIP3   OH2 2756   5.450   1.298   5.046
  931TIP3    H1 2757   5.377   1.250   5.007
  931TIP3    H2 2758   5.528   1.263   5.002
  932TIP3   OH2 2759   4.280   2.192   2.449
  932TIP3    H1 2760   4.211   2.234   2.399
  932TIP3    H2 2761   4.337   2.264   2.477
  933TIP3   OH2 2762   3.760   6.424   0.805
  933TIP3    H1 2763   3.843   6.377   0.816
  933TIP3    H2 2764   3.724   6.430   0.893
  934TIP3   OH2 2765   0.133   1.081   1.919
  934TIP3    H1 2766   0.221   1.120   1.916
  934TIP3    H2 2767   0.148   0.987   1.914
  935TIP3   OH2 2768   1.597   1.031   0.420
  935TIP3    H1 2769   1.595   0.941   0.452
  935TIP3    H2 2770   1.625   1.024   0.329
  936TIP3   OH2 2771   5.953   4.604   4.346
  936TIP3    H1 2772   5.909   4.673   4.297
  936TIP3    H2 2773   5.939   4.626   4.438
  937TIP3   OH2 2774   4.356   4.983   2.303
  937TIP3    H1 2775   4.432   5.036   2.328
  937TIP3    H2 2776   4.393   4.908   2.256
  938TIP3   OH2 2777   1.341   2.633   4.361
  938TIP3    H1 2778   1.267   2.693   4.376
  938TIP3    H2 2779   1.388   2.671   4.287
  939TIP3   OH2 2780   1.624   3.459   0.944
  939TIP3    H1 2781   1.644   3.549   0.918
  939TIP3    H2 2782   1.708   3.424   0.974
  940TIP3   OH2 2783   6.365   1.188   0.464
  940TIP3    H1 2784   6.337   1.124   0.529
  940TIP3    H2 2785   6.431   1.241   0.509
  941TIP3   OH2 2786   4.753   0.115   4.760
  941TIP3    H1 2787   4.733   0.199   4.803
  941TIP3    H2 2788   4.667   0.080   4.736
  942TIP3   OH2 2789   3.251   1.948   5.740
  942TIP3    H1 2790   3.164   1.974   5.709
  942TIP3    H2 2791   3.235   1.906   5.824
  943TIP3   OH2 2792   1.992   1.830   3.912
  943TIP3    H1 2793   2.016   1.749   3.958
  943TIP3    H2 2794   2.025   1.818   3.823
  944TIP3   OH2 2795   4.998   6.480   2.621
  944TIP3    H1 2796   4.902   6.477   2.623
  944TIP3    H2 2797   5.024   6.410   2.561
  945TIP3   OH2 2798   1.974   2.499   5.247
  945TIP3    H1 2799   1.990   2.530   5.336
  945TIP3    H2 2800   2.044   2.536   5.194
  946TIP3   OH2 2801   7.010   1.453   1.847
  946TIP3    H1 2802   7.003   1.392   1.773
  946TIP3    H2 2803   7.080   1.416   1.901
  947TIP3   OH2 2804   3.358   0.145   4.948
  947TIP3    H1 2805   3.442   0.188   4.964
  947TIP3    H2 2806   3.293   0.201   4.992
  948TIP3   OH2 2807   4.500   1.499   5.275
  948TIP3    H1 2808   4.411   1.511   5.242
  948TIP3    H2 2809   4.551   1.568   5.233
  949TIP3   OH2 2810   0.139   0.032   2.810
  949TIP3    H1 2811   0.049   0.055   2.787
  949TIP3    H2 2812   0.167   0.102   2.869
  950TIP3   OH2 2813   1.768   6.107   4.556
  950TIP3    H1 2814   1.722   6.027   4.528
  950TIP3    H2 2815   1.781   6.095   4.650
  951TIP3   OH2 2816   3.699   4.481   3.145
  951TIP3    H1 2817   3.694   4.539   3.069
  951TIP3    H2 2818   3.771   4.516   3.198
  952TIP3   OH2 2819   4.440   5.600   5.282
  952TIP3    H1 2820   4.364   5.566   5.328
  952TIP3    H2 2821   4.404   5.640   5.202
  953TIP3   OH2 2822   6.535   3.525   3.928
  953TIP3    H1 2823   6.478   3.527   3.851
  953TIP3    H2 2824   6.622   3.511   3.893
  954TIP3   OH2 2825   2.505   4.576   5.724
  954TIP3    H1 2826   2.542   4.495   5.688
  954TIP3    H2 2827   2.413   4.574   5.698
  955TIP3   OH2 2828   3.600   1.011   4.275
  955TIP3    H1 2829   3.686   1.047   4.257
  955TIP3    H2 2830   3.575   0.967   4.194
  956TIP3   OH2 2831   5.252   2.163   0.290
  956TIP3    H1 2832   5.272   2.160   0.383
  956TIP3    H2 2833   5.334   2.192   0.249
  957TIP3   OH2 2834   6.660   0.552   0.047
  957TIP3    H1 2835   6.744   0.589   0.020
  957TIP3    H2 2836   6.658   0.565   0.142
  958TIP3   OH2 2837   4.665   4.739   3.328
  958TIP3    H1 2838   4.647   4.832   3.314
  958TIP3    H2 2839   4.667   4.701   3.240
  959TIP3   OH2 2840   2.539   5.697   5.884
  959TIP3    H1 2841   2.539   5.792   5.869
  959TIP3    H2 2842   2.581   5.660   5.806
  960TIP3   OH2 2843   3.449   4.242   4.870
  960TIP3    H1 2844   3.392   4.184   4.819
  960TIP3    H2 2845   3.528   4.191   4.885
  961TIP3   OH2 2846   6.094   0.315   5.385
  961TIP3    H1 2847   6.147   0.238   5.404
  961TIP3    H2 2848   6.138   0.356   5.311
  962TIP3   OH2 2849   4.331   4.346   5.503
  962TIP3    H1 2850   4.297   4.429   5.536
  962TIP3    H2 2851   4.269   4.319   5.436
  963TIP3   OH2 2852   6.262   1.564   0.634
  963TIP3    H1 2853   6.276   1.471   0.614
  963TIP3    H2 2854   6.235   1.603   0.551
  964TIP3   OH2 2855   4.471   4.121   4.798
  964TIP3    H1 2856   4.521   4.087   4.723
  964TIP3    H2 2857   4.454   4.044   4.852
  965TIP3   OH2 2858   5.232   4.924   5.354
  965TIP3    H1 2859   5.283   4.866   5.411
  965TIP3    H2 2860   5.293   4.995   5.332
  966TIP3   OH2 2861   6.426   6.570   3.824
  966TIP3    H1 2862   6.365   6.641   3.803
  966TIP3    H2 2863   6.478   6.603   3.897
  967TIP3   OH2 2864   1.962   5.015   2.281
  967TIP3    H1 2865   1.931   5.105   2.283
  967TIP3    H2 2866   1.892   4.964   2.322
  968TIP3   OH2 2867   3.668   4.087   3.455
  968TIP3    H1 2868   3.679   4.182   3.464
  968TIP3    H2 2869   3.574   4.075   3.445
  969TIP3   OH2 2870   1.490   5.613  -0.010
  969TIP3    H1 2871   1.533   5.693   0.021
  969TIP3    H2 2872   1.453   5.574   0.070
  970TIP3   OH2 2873   6.505   4.512   2.933
  970TIP3    H1 2874   6.545   4.585   2.886
  970TIP3    H2 2875   6.542   4.517   3.022
  971TIP3   OH2 2876   5.247   3.498   4.274
  971TIP3    H1 2877   5.320   3.507   4.335
  971TIP3    H2 2878   5.169   3.522   4.325
  972TIP3   OH2 2879   3.193   1.416   5.020
  972TIP3    H1 2880   3.124   1.481   5.006
  972TIP3    H2 2881   3.152   1.333   4.995
  973TIP3   OH2 2882   5.669   2.088   0.903
  973TIP3    H1 2883   5.575   2.080   0.920
  973TIP3    H2 2884   5.704   2.001   0.922
  974TIP3   OH2 2885   5.428   5.368   2.441
  974TIP3    H1 2886   5.466   5.410   2.518
  974TIP3    H2 2887   5.493   5.381   2.372
  975TIP3   OH2 2888   0.223   2.575   2.277
  975TIP3    H1 2889   0.208   2.491   2.233
  975TIP3    H2 2890   0.286   2.621   2.223
  976TIP3   OH2 2891   4.167   2.616   3.459
  976TIP3    H1 2892   4.095   2.679   3.450
  976TIP3    H2 2893   4.242   2.669   3.486
  977TIP3   OH2 2894   0.895   5.563   4.572
  977TIP3    H1 2895   0.915   5.469   4.563
  977TIP3    H2 2896   0.954   5.606   4.511
  978TIP3   OH2 2897   5.285   5.560   3.194
  978TIP3    H1 2898   5.370   5.555   3.237
  978TIP3    H2 2899   5.228   5.502   3.244
  979TIP3   OH2 2900   2.082   5.348   4.538
  979TIP3    H1 2901   2.024   5.348   4.614
  979TIP3    H2 2902   2.137   5.426   4.550
  980TIP3   OH2 2903   1.382   5.767   3.626
  980TIP3    H1 2904   1.433   5.752   3.546
  980TIP3    H2 2905   1.426   5.715   3.693
  981TIP3   OH2 2906   2.775   2.163   5.148
  981TIP3    H1 2907   2.752   2.161   5.055
  981TIP3    H2 2908   2.842   2.096   5.158
  982TIP3   OH2 2909   5.681   6.725   5.737
  982TIP3    H1 2910   5.622   6.650   5.733
  982TIP3    H2 2911   5.760   6.691   5.780
  983TIP3   OH2 2912   5.689   3.572   2.403
  983TIP3    H1 2913   5.782   3.564   2.422
  983TIP3    H2 2914   5.655   3.629   2.472
  984TIP3   OH2 2915   6.045   0.744   5.081
  984TIP3    H1 2916   6.055   0.752   5.176
  984TIP3    H2 2917   6.048   0.834   5.049
  985TIP3   OH2 2918   1.758   0.105   5.779
  985TIP3    H1 2919   1.711   0.041   5.833
  985TIP3    H2 2920   1.848   0.073   5.777
  986TIP3   OH2 2921   1.728   6.618   5.326
  986TIP3    H1 2922   1.782   6.541   5.310
  986TIP3    H2 2923   1.646   6.582   5.361
  987TIP3   OH2 2924   0.288   6.620   1.829
  987TIP3    H1 2925   0.210   6.663   1.793
  987TIP3    H2 2926   0.276   6.625   1.924
  988TIP3   OH2 2927   5.832   5.049   4.866
  988TIP3    H1 2928   5.754   5.019   4.912
  988TIP3    H2 2929   5.855   5.131   4.909
  989TIP3   OH2 2930   5.773   1.911   3.566
  989TIP3    H1 2931   5.777   1.932   3.473
  989TIP3    H2 2932   5.857   1.939   3.601
  990TIP3   OH2 2933   1.028   6.243   1.278
  990TIP3    H1 2934   1.094   6.176   1.294
  990TIP3    H2 2935   1.067   6.324   1.311
  991TIP3   OH2 2936   4.276   4.690   1.758
  991TIP3    H1 2937   4.302   4.690   1.850
  991TIP3    H2 2938   4.220   4.613   1.748
  992TIP3   OH2 2939   6.684   6.353   4.424
  992TIP3    H1 2940   6.599   6.311   4.430
  992TIP3    H2 2941   6.717   6.354   4.515
  993TIP3   OH2 2942   3.266   3.168   3.745
  993TIP3    H1 2943   3.321   3.184   3.822
  993TIP3    H2 2944   3.180   3.148   3.782
  994TIP3   OH2 2945   1.722   6.835   4.697
  994TIP3    H1 2946   1.779   6.762   4.722
  994TIP3    H2 2947   1.659   6.842   4.769
  995TIP3   OH2 2948   2.384   1.043   3.706
  995TIP3    H1 2949   2.428   0.984   3.766
  995TIP3    H2 2950   2.422   1.024   3.620
  996TIP3   OH2 2951   6.299   5.317   2.411
  996TIP3    H1 2952   6.319   5.411   2.409
  996TIP3    H2 2953   6.289   5.293   2.319
  997TIP3   OH2 2954   4.335   4.865   0.791
  997TIP3    H1 2955   4.413   4.810   0.784
  997TIP3    H2 2956   4.351   4.937   0.730
  998TIP3   OH2 2957   4.545   5.631   2.864
  998TIP3    H1 2958   4.548   5.691   2.938
  998TIP3    H2 2959   4.454   5.634   2.834
  999TIP3   OH2 2960   6.418   0.641   0.990
  999TIP3    H1 2961   6.362   0.718   0.979
  999TIP3    H2 2962   6.487   0.670   1.049
 1000TIP3   OH2 2963   2.019   2.761   1.478
 1000TIP3    H1 2964   2.016   2.855   1.460
 1000TIP3    H2 2965   1.983   2.752   1.566
 1001TIP3   OH2 2966   3.812   0.466   5.581
 1001TIP3    H1 2967   3.880   0.528   5.606
 1001TIP3    H2 2968   3.796   0.483   5.488
 1002TIP3   OH2 2969   0.541   0.275   3.910
 1002TIP3    H1 2970   0.606   0.298   3.977
 1002TIP3    H2 2971   0.457   0.290   3.952
 1003TIP3   OH2 2972   4.590   3.524   0.107
 1003TIP3    H1 2973   4.544   3.571   0.177
 1003TIP3    H2 2974   4.526   3.459   0.077
 1004TIP3   OH2 2975   5.013   4.663   1.252
 1004TIP3    H1 2976   4.929   4.630   1.219
 1004TIP3    H2 2977   5.079   4.611   1.204
 1005TIP3   OH2 2978   7.169   1.661   0.264
 1005TIP3    H1 2979   7.144   1.620   0.181
 1005TIP3    H2 2980   7.230   1.731   0.238
 1006TIP3   OH2 2981   3.437   4.701   5.440
 1006TIP3    H1 2982   3.467   4.780   5.394
 1006TIP3    H2 2983   3.349   4.685   5.406
 1007TIP3   OH2 2984   0.707   0.619   0.894
 1007TIP3    H1 2985   0.731   0.678   0.823
 1007TIP3    H2 2986   0.663   0.675   0.959
 1008TIP3   OH2 2987   3.107   0.701   2.798
 1008TIP3    H1 2988   3.173   0.665   2.739
 1008TIP3    H2 2989   3.044   0.630   2.811
 1009TIP3   OH2 2990   5.464   4.610   4.006
 1009TIP3    H1 2991   5.513   4.657   4.073
 1009TIP3    H2 2992   5.374   4.607   4.039
 1010TIP3   OH2 2993   0.021   6.052   3.981
 1010TIP3    H1 2994   0.008   6.147   3.976
 1010TIP3    H2 2995   0.065   6.030   3.899
 1011TIP3   OH2 2996   4.574   4.104   0.392
 1011TIP3    H1 2997   4.601   4.054   0.469
 1011TIP3    H2 2998   4.517   4.045   0.344
 1012TIP3   OH2 2999   5.079   3.227   4.235
 1012TIP3    H1 3000   5.155   3.168   4.237
 1012TIP3    H2 3001   5.118   3.314   4.225
 1013TIP3   OH2 3002   6.884   3.426   5.525
 1013TIP3    H1 3003   6.956   3.365   5.541
 1013TIP3    H2 3004   6.918   3.488   5.461
 1014TIP3   OH2 3005   5.190   1.005   5.786
 1014TIP3    H1 3006   5.261   0.965   5.836
 1014TIP3    H2 3007   5.176   0.945   5.713
 1015TIP3   OH2 3008   6.011   5.858   1.821
 1015TIP3    H1 3009   5.933   5.896   1.780
 1015TIP3    H2 3010   5.977   5.806   1.894
 1016TIP3   OH2 3011   4.518   0.940   1.643
 1016TIP3    H1 3012   4.499   1.034   1.640
 1016TIP3    H2 3013   4.440   0.898   1.606
 1017TIP3   OH2 3014   2.521   4.401   1.868
 1017TIP3    H1 3015   2.590   4.468   1.864
 1017TIP3    H2 3016   2.497   4.385   1.777
 1018TIP3   OH2 3017   1.431   5.162   2.225
 1018TIP3    H1 3018   1.409   5.237   2.280
 1018TIP3    H2 3019   1.506   5.190   2.173
 1019TIP3   OH2 3020   6.021   4.603   2.317
 1019TIP3    H1 3021   5.996   4.593   2.225
 1019TIP3    H2 3022   6.114   4.626   2.315
 1020TIP3   OH2 3023   6.248   2.766   1.255
 1020TIP3    H1 3024   6.172   2.725   1.297
 1020TIP3    H2 3025   6.262   2.846   1.304
 1021TIP3   OH2 3026   4.660   4.197   0.943
 1021TIP3    H1 3027   4.598   4.238   1.004
 1021TIP3    H2 3028   4.612   4.193   0.860
 1022TIP3   OH2 3029   5.036   0.438   2.552
 1022TIP3    H1 3030   5.032   0.532   2.535
 1022TIP3    H2 3031   5.055   0.399   2.466
 1023TIP3   OH2 3032   3.674   0.243   3.691
 1023TIP3    H1 3033   3.703   0.159   3.726
 1023TIP3    H2 3034   3.590   0.224   3.649
 1024TIP3   OH2 3035   4.932   4.755   0.183
 1024TIP3    H1 3036   4.850   4.705   0.190
 1024TIP3    H2 3037   4.942   4.798   0.268
 1025TIP3   OH2 3038   2.385   6.540   0.315
 1025TIP3    H1 3039   2.309   6.587   0.282
 1025TIP3    H2 3040   2.384   6.456   0.268
 1026TIP3   OH2 3041   6.203   6.586   3.502
 1026TIP3    H1 3042   6.297   6.583   3.488
 1026TIP3    H2 3043   6.180   6.498   3.532
 1027TIP3   OH2 3044   1.419   3.689   0.624
 1027TIP3    H1 3045   1.336   3.656   0.659
 1027TIP3    H2 3046   1.394   3.765   0.571
 1028TIP3   OH2 3047   2.014   2.682   4.391
 1028TIP3    H1 3048   2.057   2.601   4.418
 1028TIP3    H2 3049   2.051   2.749   4.449
 1029TIP3   OH2 3050   3.546   1.004   0.552
 1029TIP3    H1 3051   3.503   0.921   0.573
 1029TIP3    H2 3052   3.476   1.069   0.554
 1030TIP3   OH2 3053   0.228   2.871   2.005
 1030TIP3    H1 3054   0.294   2.821   2.054
 1030TIP3    H2 3055   0.279   2.922   1.942
 1031TIP3   OH2 3056   2.911   1.621   4.158
 1031TIP3    H1 3057   2.901   1.541   4.210
 1031TIP3    H2 3058   2.950   1.592   4.076
 1032TIP3   OH2 3059   3.635   5.061   1.949
 1032TIP3    H1 3060   3.562   5.092   2.003
 1032TIP3    H2 3061   3.695   5.021   2.012
 1033TIP3   OH2 3062   0.337   4.383   1.647
 1033TIP3    H1 3063   0.323   4.435   1.568
 1033TIP3    H2 3064   0.391   4.309   1.617
 1034TIP3   OH2 3065   5.387   5.099   0.817
 1034TIP3    H1 3066   5.458   5.139   0.866
 1034TIP3    H2 3067   5.352   5.170   0.763
 1035TIP3   OH2 3068   4.495   0.612   2.242
 1035TIP3    H1 3069   4.493   0.566   2.158
 1035TIP3    H2 3070   4.414   0.664   2.243
 1036TIP3   OH2 3071   0.538   2.315   4.727
 1036TIP3    H1 3072   0.515   2.316   4.634
 1036TIP3    H2 3073   0.568   2.226   4.744
 1037TIP3   OH2 3074   2.660   5.419   4.998
 1037TIP3    H1 3075   2.654   5.423   5.093
 1037TIP3    H2 3076   2.607   5.343   4.973
 1038TIP3   OH2 3077   1.436   4.617   4.134
 1038TIP3    H1 3078   1.483   4.668   4.200
 1038TIP3    H2 3079   1.473   4.646   4.050
 1039TIP3   OH2 3080   3.930   3.584   1.541
 1039TIP3    H1 3081   3.889   3.666   1.513
 1039TIP3    H2 3082   3.862   3.518   1.530
 1040TIP3   OH2 3083   4.322   1.431   0.279
 1040TIP3    H1 3084   4.395   1.488   0.258
 1040TIP3    H2 3085   4.361   1.344   0.291
 1041TIP3   OH2 3086   1.858   5.202   2.669
 1041TIP3    H1 3087   1.868   5.119   2.715
 1041TIP3    H2 3088   1.946   5.226   2.641
 1042TIP3   OH2 3089   6.609   2.674   1.108
 1042TIP3    H1 3090   6.675   2.705   1.169
 1042TIP3    H2 3091   6.542   2.633   1.163
 1043TIP3   OH2 3092   0.926   6.514   2.688
 1043TIP3    H1 3093   0.939   6.497   2.781
 1043TIP3    H2 3094   1.014   6.522   2.652
 1044TIP3   OH2 3095   6.252   0.056   4.072
 1044TIP3    H1 3096   6.314   0.070   4.144
 1044TIP3    H2 3097   6.248  -0.039   4.061
 1045TIP3   OH2 3098   7.045   2.156   3.065
 1045TIP3    H1 3099   7.011   2.220   3.001
 1045TIP3    H2 3100   6.969   2.134   3.119
 1046TIP3   OH2 3101   0.114   1.877   0.187
 1046TIP3    H1 3102   0.039   1.923   0.149
 1046TIP3    H2 3103   0.128   1.920   0.272
 1047TIP3   OH2 3104   1.087   4.074   1.882
 1047TIP3    H1 3105   1.020   4.060   1.815
 1047TIP3    H2 3106   1.076   4.000   1.941
 1048TIP3   OH2 3107   5.709   2.439   3.339
 1048TIP3    H1 3108   5.711   2.400   3.252
 1048TIP3    H2 3109   5.646   2.510   3.333
 1049TIP3   OH2 3110   3.148   5.205   3.471
 1049TIP3    H1 3111   3.182   5.289   3.501
 1049TIP3    H2 3112   3.226   5.150   3.461
 1050TIP3   OH2 3113   2.808   1.677   1.063
 1050TIP3    H1 3114   2.713   1.691   1.063
 1050TIP3    H2 3115   2.845   1.763   1.048
 1051TIP3   OH2 3116   3.519   4.700   1.228
 1051TIP3    H1 3117   3.586   4.760   1.262
 1051TIP3    H2 3118   3.552   4.673   1.143
 1052TIP3   OH2 3119   5.796   5.254   3.551
 1052TIP3    H1 3120   5.818   5.262   3.459
 1052TIP3    H2 3121   5.847   5.179   3.582
 1053TIP3   OH2 3122   6.988   0.944   5.278
 1053TIP3    H1 3123   7.018   0.988   5.358
 1053TIP3    H2 3124   6.966   1.016   5.219
 1054TIP3   OH2 3125   3.526   5.525   1.142
 1054TIP3    H1 3126   3.511   5.585   1.215
 1054TIP3    H2 3127   3.535   5.583   1.066
 1055TIP3   OH2 3128   1.344   1.805   4.800
 1055TIP3    H1 3129   1.264   1.755   4.783
 1055TIP3    H2 3130   1.318   1.869   4.866
 1056TIP3   OH2 3131   2.934   1.534   3.513
 1056TIP3    H1 3132   2.974   1.453   3.547
 1056TIP3    H2 3133   2.934   1.594   3.587
 1057TIP3   OH2 3134   4.447   4.673   3.623
 1057TIP3    H1 3135   4.455   4.620   3.544
 1057TIP3    H2 3136   4.454   4.764   3.592
 1058TIP3   OH2 3137   4.955   5.070   0.974
 1058TIP3    H1 3138   4.936   4.979   0.951
 1058TIP3    H2 3139   4.927   5.079   1.064
 1059TIP3   OH2 3140   5.303   6.176   3.707
 1059TIP3    H1 3141   5.317   6.263   3.670
 1059TIP3    H2 3142   5.348   6.178   3.791
 1060TIP3   OH2 3143   1.652   6.304   0.963
 1060TIP3    H1 3144   1.717   6.315   1.032
 1060TIP3    H2 3145   1.701   6.273   0.887
 1061TIP3   OH2 3146   5.353   0.481   1.037
 1061TIP3    H1 3147   5.328   0.457   1.126
 1061TIP3    H2 3148   5.272   0.511   0.996
 1062TIP3   OH2 3149   4.058   5.746   0.881
 1062TIP3    H1 3150   4.148   5.760   0.909
 1062TIP3    H2 3151   4.007   5.809   0.933
 1063TIP3   OH2 3152   1.980   4.396   1.333
 1063TIP3    H1 3153   2.057   4.352   1.370
 1063TIP3    H2 3154   1.953   4.458   1.401
 1064TIP3   OH2 3155   1.385   1.481   1.279
 1064TIP3    H1 3156   1.422   1.482   1.368
 1064TIP3    H2 3157   1.459   1.455   1.223
 1065TIP3   OH2 3158   1.028   2.940   3.448
 1065TIP3    H1 3159   0.989   2.863   3.491
 1065TIP3    H2 3160   1.082   2.981   3.516
 1066TIP3   OH2 3161   1.996   4.007   1.980
 1066TIP3    H1 3162   2.034   4.079   1.929
 1066TIP3    H2 3163   2.036   4.016   2.067
 1067TIP3   OH2 3164   6.487   3.612   4.191
 1067TIP3    H1 3165   6.532   3.595   4.109
 1067TIP3    H2 3166   6.556   3.635   4.253
 1068TIP3   OH2 3167   5.015   4.453   4.326
 1068TIP3    H1 3168   5.058   4.395   4.264
 1068TIP3    H2 3169   5.014   4.405   4.409
 1069TIP3   OH2 3170   6.814   5.076   3.445
 1069TIP3    H1 3171   6.762   5.150   3.414
 1069TIP3    H2 3172   6.886   5.070   3.382
 1070TIP3   OH2 3173   3.895   1.477   3.654
 1070TIP3    H1 3174   3.845   1.526   3.719
 1070TIP3    H2 3175   3.844   1.398   3.638
 1071TIP3   OH2 3176   1.750   1.558   0.474
 1071TIP3    H1 3177   1.661   1.568   0.508
 1071TIP3    H2 3178   1.764   1.463   0.473
 1072TIP3   OH2 3179   3.906   4.380   1.821
 1072TIP3    H1 3180   3.865   4.382   1.735
 1072TIP3    H2 3181   3.842   4.421   1.879
 1073TIP3   OH2 3182   2.273   4.486   5.613
 1073TIP3    H1 3183   2.281   4.443   5.527
 1073TIP3    H2 3184   2.183   4.518   5.615
 1074TIP3   OH2 3185   5.862   5.453   0.018
 1074TIP3    H1 3186   5.794   5.387   0.004
 1074TIP3    H2 3187   5.941   5.403   0.036
 1075TIP3   OH2 3188   0.177   3.375   5.202
 1075TIP3    H1 3189   0.188   3.390   5.108
 1075TIP3    H2 3190   0.149   3.459   5.237
 1076TIP3   OH2 3191   4.344   2.879   5.436
 1076TIP3    H1 3192   4.255   2.914   5.433
 1076TIP3    H2 3193   4.367   2.862   5.344
 1077TIP3   OH2 3194   5.191   2.854   3.710
 1077TIP3    H1 3195   5.106   2.816   3.689
 1077TIP3    H2 3196   5.173   2.917   3.779
 1078TIP3   OH2 3197   4.184   3.719   5.017
 1078TIP3    H1 3198   4.261   3.679   5.058
 1078TIP3    H2 3199   4.141   3.766   5.089
 1079TIP3   OH2 3200   5.217   5.564   0.169
 1079TIP3    H1 3201   5.150   5.524   0.115
 1079TIP3    H2 3202   5.266   5.491   0.206
 1080TIP3   OH2 3203   3.587   1.667   2.542
 1080TIP3    H1 3204   3.669   1.619   2.540
 1080TIP3    H2 3205   3.606   1.750   2.497
 1081TIP3   OH2 3206   0.115   5.941   3.111
 1081TIP3    H1 3207   0.171   6.004   3.065
 1081TIP3    H2 3208   0.109   5.866   3.052
 1082TIP3   OH2 3209   7.063   5.297   4.954
 1082TIP3    H1 3210   7.137   5.255   4.996
 1082TIP3    H2 3211   7.009   5.329   5.027
 1083TIP3   OH2 3212   2.915   1.651   2.291
 1083TIP3    H1 3213   2.911   1.672   2.198
 1083TIP3    H2 3214   3.008   1.651   2.313
 1084TIP3   OH2 3215   2.885   5.056   1.560
 1084TIP3    H1 3216   2.936   4.979   1.536
 1084TIP3    H2 3217   2.874   5.050   1.654
 1085TIP3   OH2 3218   2.553   0.295   5.426
 1085TIP3    H1 3219   2.578   0.250   5.506
 1085TIP3    H2 3220   2.529   0.225   5.365
 1086TIP3   OH2 3221   5.113   5.704   2.299
 1086TIP3    H1 3222   5.146   5.682   2.386
 1086TIP3    H2 3223   5.101   5.799   2.301
 1087TIP3   OH2 3224   5.205   6.762   2.400
 1087TIP3    H1 3225   5.297   6.784   2.417
 1087TIP3    H2 3226   5.165   6.845   2.373
 1088TIP3   OH2 3227   2.057   5.652   0.907
 1088TIP3    H1 3228   2.068   5.724   0.844
 1088TIP3    H2 3229   2.117   5.585   0.877
 1089TIP3   OH2 3230   0.785   4.876   0.784
 1089TIP3    H1 3231   0.856   4.840   0.730
 1089TIP3    H2 3232   0.751   4.949   0.732
 1090TIP3   OH2 3233   6.605   5.342   5.546
 1090TIP3    H1 3234   6.577   5.333   5.638
 1090TIP3    H2 3235   6.625   5.253   5.518
 1091TIP3   OH2 3236   6.332   2.508   2.229
 1091TIP3    H1 3237   6.265   2.502   2.161
 1091TIP3    H2 3238   6.364   2.419   2.240
 1092TIP3   OH2 3239   1.052   2.672   5.800
 1092TIP3    H1 3240   1.064   2.640   5.711
 1092TIP3    H2 3241   1.003   2.603   5.844
 1093TIP3   OH2 3242   4.379   2.739   2.625
 1093TIP3    H1 3243   4.380   2.813   2.564
 1093TIP3    H2 3244   4.389   2.662   2.570
 1094TIP3   OH2 3245   3.605   4.810   3.932
 1094TIP3    H1 3246   3.572   4.750   3.865
 1094TIP3    H2 3247   3.527   4.855   3.964
 1095TIP3   OH2 3248   4.231   0.064   0.202
 1095TIP3    H1 3249   4.266   0.142   0.244
 1095TIP3    H2 3250   4.209   0.091   0.113
 1096TIP3   OH2 3251   2.285   0.081   5.070
 1096TIP3    H1 3252   2.279   0.089   4.974
 1096TIP3    H2 3253   2.194   0.087   5.100
 1097TIP3   OH2 3254   0.566   1.264   3.961
 1097TIP3    H1 3255   0.656   1.263   3.928
 1097TIP3    H2 3256   0.571   1.307   4.046
 1098TIP3   OH2 3257   0.803   0.121   3.647
 1098TIP3    H1 3258   0.806   0.081   3.734
 1098TIP3    H2 3259   0.726   0.178   3.650
 1099TIP3   OH2 3260   3.761   0.450   3.528
 1099TIP3    H1 3261   3.851   0.475   3.549
 1099TIP3    H2 3262   3.739   0.383   3.593
 1100TIP3   OH2 3263   1.335   0.706   1.953
 1100TIP3    H1 3264   1.397   0.761   2.001
 1100TIP3    H2 3265   1.267   0.766   1.923
 1101TIP3   OH2 3266   4.991   2.190   4.749
 1101TIP3    H1 3267   4.900   2.200   4.719
 1101TIP3    H2 3268   5.036   2.150   4.675
 1102TIP3   OH2 3269   1.678   0.625   4.341
 1102TIP3    H1 3270   1.736   0.673   4.283
 1102TIP3    H2 3271   1.602   0.605   4.286
 1103TIP3   OH2 3272   2.805   3.587   0.494
 1103TIP3    H1 3273   2.752   3.646   0.440
 1103TIP3    H2 3274   2.816   3.634   0.577
 1104TIP3   OH2 3275   3.690   6.733   0.790
 1104TIP3    H1 3276   3.647   6.752   0.873
 1104TIP3    H2 3277   3.705   6.639   0.791
 1105TIP3   OH2 3278   2.787   5.708   3.435
 1105TIP3    H1 3279   2.873   5.681   3.403
 1105TIP3    H2 3280   2.789   5.688   3.529
 1106TIP3   OH2 3281   1.828   1.447   3.962
 1106TIP3    H1 3282   1.747   1.495   3.982
 1106TIP3    H2 3283   1.808   1.356   3.984
 1107TIP3   OH2 3284   7.112   4.555   2.210
 1107TIP3    H1 3285   7.064   4.613   2.151
 1107TIP3    H2 3286   7.189   4.527   2.160
 1108TIP3   OH2 3287   2.886   1.690   0.369
 1108TIP3    H1 3288   2.870   1.596   0.361
 1108TIP3    H2 3289   2.846   1.714   0.452
 1109TIP3   OH2 3290   1.680   0.778   0.461
 1109TIP3    H1 3291   1.773   0.758   0.458
 1109TIP3    H2 3292   1.637   0.693   0.467
 1110TIP3   OH2 3293   0.282   5.263   5.775
 1110TIP3    H1 3294   0.296   5.323   5.848
 1110TIP3    H2 3295   0.278   5.177   5.816
 1111TIP3   OH2 3296   1.445   6.544   1.226
 1111TIP3    H1 3297   1.406   6.593   1.299
 1111TIP3    H2 3298   1.468   6.459   1.265
 1112TIP3   OH2 3299   6.070   4.712   3.933
 1112TIP3    H1 3300   5.995   4.677   3.980
 1112TIP3    H2 3301   6.038   4.727   3.844
 1113TIP3   OH2 3302   0.936   2.195   5.051
 1113TIP3    H1 3303   0.943   2.288   5.073
 1113TIP3    H2 3304   0.853   2.189   5.003
 1114TIP3   OH2 3305   1.387   5.476   1.275
 1114TIP3    H1 3306   1.363   5.430   1.194
 1114TIP3    H2 3307   1.305   5.513   1.307
 1115TIP3   OH2 3308   3.826   4.346   1.560
 1115TIP3    H1 3309   3.767   4.400   1.507
 1115TIP3    H2 3310   3.901   4.330   1.503
 1116TIP3   OH2 3311   5.068   1.292   4.788
 1116TIP3    H1 3312   5.126   1.233   4.837
 1116TIP3    H2 3313   5.003   1.235   4.749
 1117TIP3   OH2 3314   6.511   3.584   5.872
 1117TIP3    H1 3315   6.553   3.625   5.796
 1117TIP3    H2 3316   6.420   3.573   5.847
 1118TIP3   OH2 3317   7.212   1.115   4.835
 1118TIP3    H1 3318   7.152   1.190   4.829
 1118TIP3    H2 3319   7.155   1.038   4.833
 1119TIP3   OH2 3320   7.142   4.108   1.223
 1119TIP3    H1 3321   7.146   4.014   1.208
 1119TIP3    H2 3322   7.192   4.122   1.304
 1120TIP3   OH2 3323   5.406   1.200   3.637
 1120TIP3    H1 3324   5.446   1.285   3.658
 1120TIP3    H2 3325   5.347   1.183   3.711
 1121TIP3   OH2 3326   6.202   3.799   5.114
 1121TIP3    H1 3327   6.160   3.809   5.199
 1121TIP3    H2 3328   6.167   3.872   5.061
 1122TIP3   OH2 3329   6.803   3.971   5.588
 1122TIP3    H1 3330   6.811   4.008   5.500
 1122TIP3    H2 3331   6.713   3.938   5.592
 1123TIP3   OH2 3332   2.839   6.685   1.258
 1123TIP3    H1 3333   2.813   6.739   1.332
 1123TIP3    H2 3334   2.834   6.744   1.183
 1124TIP3   OH2 3335   0.582   4.785   5.166
 1124TIP3    H1 3336   0.572   4.880   5.166
 1124TIP3    H2 3337   0.675   4.771   5.180
 1125TIP3   OH2 3338   4.547   1.613   0.307
 1125TIP3    H1 3339   4.620   1.603   0.368
 1125TIP3    H2 3340   4.516   1.702   0.322
 1126TIP3   OH2 3341   3.570   1.695   5.372
 1126TIP3    H1 3342   3.627   1.650   5.309
 1126TIP3    H2 3343   3.603   1.667   5.458
 1127TIP3   OH2 3344   4.980   4.637   2.427
 1127TIP3    H1 3345   4.927   4.717   2.432
 1127TIP3    H2 3346   5.040   4.652   2.354
 1128TIP3   OH2 3347   3.726   2.123   1.444
 1128TIP3    H1 3348   3.803   2.141   1.390
 1128TIP3    H2 3349   3.758   2.128   1.534
 1129TIP3   OH2 3350   3.950   4.666   1.468
 1129TIP3    H1 3351   4.009   4.616   1.411
 1129TIP3    H2 3352   3.866   4.622   1.460
 1130TIP3   OH2 3353   6.629   1.603   0.806
 1130TIP3    H1 3354   6.720   1.614   0.778
 1130TIP3    H2 3355   6.633   1.605   0.902
 1131TIP3   OH2 3356   3.179   0.440   4.049
 1131TIP3    H1 3357   3.167   0.531   4.022
 1131TIP3    H2 3358   3.230   0.400   3.978
 1132TIP3   OH2 3359   6.677   3.318   5.392
 1132TIP3    H1 3360   6.746   3.355   5.446
 1132TIP3    H2 3361   6.596   3.351   5.431
 1133TIP3   OH2 3362   5.222   6.564   0.092
 1133TIP3    H1 3363   5.162   6.638   0.100
 1133TIP3    H2 3364   5.308   6.603   0.076
 1134TIP3   OH2 3365   5.546   6.461   5.716
 1134TIP3    H1 3366   5.593   6.381   5.740
 1134TIP3    H2 3367   5.523   6.449   5.624
 1135TIP3   OH2 3368   4.805   6.026   3.509
 1135TIP3    H1 3369   4.893   6.050   3.540
 1135TIP3    H2 3370   4.793   5.936   3.538
 1136TIP3   OH2 3371   6.947   3.290   1.160
 1136TIP3    H1 3372   7.033   3.302   1.120
 1136TIP3    H2 3373   6.900   3.233   1.098
 1137TIP3   OH2 3374   0.597   4.300   0.008
 1137TIP3    H1 3375   0.670   4.344   0.052
 1137TIP3    H2 3376   0.632   4.214  -0.016
 1138TIP3   OH2 3377   6.898   0.672   4.682
 1138TIP3    H1 3378   6.834   0.736   4.711
 1138TIP3    H2 3379   6.849   0.590   4.674
 1139TIP3   OH2 3380   0.178   4.348   1.854
 1139TIP3    H1 3381   0.225   4.384   1.779
 1139TIP3    H2 3382   0.166   4.422   1.913
 1140TIP3   OH2 3383   6.507   0.849   3.658
 1140TIP3    H1 3384   6.524   0.781   3.723
 1140TIP3    H2 3385   6.420   0.828   3.623
 1141TIP3   OH2 3386   1.304   0.236   4.413
 1141TIP3    H1 3387   1.374   0.226   4.477
 1141TIP3    H2 3388   1.244   0.163   4.432
 1142TIP3   OH2 3389   2.646   5.399   3.716
 1142TIP3    H1 3390   2.646   5.357   3.630
 1142TIP3    H2 3391   2.649   5.326   3.778
 1143TIP3   OH2 3392   6.631   3.598   4.813
 1143TIP3    H1 3393   6.545   3.609   4.771
 1143TIP3    H2 3394   6.690   3.577   4.741
 1144TIP3   OH2 3395   2.526   3.617   1.845
 1144TIP3    H1 3396   2.511   3.693   1.788
 1144TIP3    H2 3397   2.621   3.614   1.857
 1145TIP3   OH2 3398   1.895   6.627   4.773
 1145TIP3    H1 3399   1.970   6.576   4.740
 1145TIP3    H2 3400   1.864   6.576   4.848
 1146TIP3   OH2 3401   0.867   4.776   1.243
 1146TIP3    H1 3402   0.943   4.753   1.296
 1146TIP3    H2 3403   0.884   4.738   1.157
 1147TIP3   OH2 3404   7.195   2.576   2.604
 1147TIP3    H1 3405   7.212   2.606   2.514
 1147TIP3    H2 3406   7.106   2.543   2.602
 1148TIP3   OH2 3407   2.094   5.272   4.254
 1148TIP3    H1 3408   2.186   5.292   4.235
 1148TIP3    H2 3409   2.079   5.308   4.341
 1149TIP3   OH2 3410   4.147   5.961   1.648
 1149TIP3    H1 3411   4.138   5.899   1.720
 1149TIP3    H2 3412   4.241   5.980   1.644
 1150TIP3   OH2 3413   4.473   1.680   4.159
 1150TIP3    H1 3414   4.398   1.704   4.104
 1150TIP3    H2 3415   4.467   1.739   4.234
 1151TIP3   OH2 3416   3.177   0.943   1.151
 1151TIP3    H1 3417   3.147   0.969   1.064
 1151TIP3    H2 3418   3.140   1.009   1.210
 1152TIP3   OH2 3419   2.475   4.703   4.968
 1152TIP3    H1 3420   2.469   4.670   5.058
 1152TIP3    H2 3421   2.568   4.722   4.956
 1153TIP3   OH2 3422   5.994   1.562   0.853
 1153TIP3    H1 3423   5.945   1.480   0.843
 1153TIP3    H2 3424   6.031   1.578   0.766
 1154TIP3   OH2 3425   1.950   1.497   4.443
 1154TIP3    H1 3426   1.886   1.566   4.459
 1154TIP3    H2 3427   2.024   1.542   4.402
 1155TIP3   OH2 3428   1.506   1.647   0.571
 1155TIP3    H1 3429   1.487   1.671   0.661
 1155TIP3    H2 3430   1.421   1.649   0.527
 1156TIP3   OH2 3431   3.582   0.626   3.705
 1156TIP3    H1 3432   3.564   0.694   3.641
 1156TIP3    H2 3433   3.662   0.584   3.675
 1157TIP3   OH2 3434   1.678   1.515   2.812
 1157TIP3    H1 3435   1.593   1.517   2.767
 1157TIP3    H2 3436   1.665   1.455   2.885
 1158TIP3   OH2 3437   1.649   5.974   4.805
 1158TIP3    H1 3438   1.570   5.948   4.757
 1158TIP3    H2 3439   1.638   6.068   4.820
 1159TIP3   OH2 3440   6.510   5.094   4.254
 1159TIP3    H1 3441   6.587   5.151   4.256
 1159TIP3    H2 3442   6.542   5.010   4.221
 1160TIP3   OH2 3443   4.211   6.492   4.314
 1160TIP3    H1 3444   4.159   6.507   4.235
 1160TIP3    H2 3445   4.156   6.436   4.368
 1161TIP3   OH2 3446   0.081   4.559   5.326
 1161TIP3    H1 3447  -0.014   4.569   5.331
 1161TIP3    H2 3448   0.096   4.506   5.248
 1162TIP3   OH2 3449   3.328   1.949   5.458
 1162TIP3    H1 3450   3.249   1.916   5.416
 1162TIP3    H2 3451   3.323   1.917   5.548
 1163TIP3   OH2 3452   1.707   3.013   1.081
 1163TIP3    H1 3453   1.794   3.021   1.043
 1163TIP3    H2 3454   1.671   2.933   1.043
 1164TIP3   OH2 3455   4.867   6.391   0.488
 1164TIP3    H1 3456   4.785   6.431   0.516
 1164TIP3    H2 3457   4.926   6.404   0.563
 1165TIP3   OH2 3458   0.337   1.957   0.079
 1165TIP3    H1 3459   0.351   2.045   0.114
 1165TIP3    H2 3460   0.253   1.930   0.114
 1166TIP3   OH2 3461   6.420   1.221   0.040
 1166TIP3    H1 3462   6.451   1.307   0.069
 1166TIP3    H2 3463   6.454   1.160   0.106
 1167TIP3   OH2 3464   6.315   4.379   2.697
 1167TIP3    H1 3465   6.318   4.465   2.655
 1167TIP3    H2 3466   6.237   4.381   2.751
 1168TIP3   OH2 3467   0.674   6.686   5.194
 1168TIP3    H1 3468   0.686   6.755   5.260
 1168TIP3    H2 3469   0.638   6.732   5.118
 1169TIP3   OH2 3470   0.995   5.156   0.871
 1169TIP3    H1 3471   0.969   5.248   0.879
 1169TIP3    H2 3472   0.967   5.131   0.783
 1170TIP3   OH2 3473   3.120   6.706   2.073
 1170TIP3    H1 3474   3.086   6.728   2.159
 1170TIP3    H2 3475   3.057   6.742   2.012
 1171TIP3   OH2 3476   2.087   1.349   1.417
 1171TIP3    H1 3477   1.996   1.373   1.431
 1171TIP3    H2 3478   2.098   1.351   1.322
 1172TIP3   OH2 3479   5.415   0.420   1.940
 1172TIP3    H1 3480   5.418   0.480   1.866
 1172TIP3    H2 3481   5.483   0.355   1.920
 1173TIP3   OH2 3482   1.949   0.059   5.539
 1173TIP3    H1 3483   1.880   0.083   5.478
 1173TIP3    H2 3484   2.011   0.131   5.536
 1174TIP3   OH2 3485   0.709   0.070   2.978
 1174TIP3    H1 3486   0.681   0.061   2.887
 1174TIP3    H2 3487   0.799   0.038   2.977
 1175TIP3   OH2 3488   5.109   5.843   4.482
 1175TIP3    H1 3489   5.063   5.796   4.552
 1175TIP3    H2 3490   5.164   5.906   4.529
 1176TIP3   OH2 3491   6.292   2.746   0.054
 1176TIP3    H1 3492   6.264   2.832   0.022
 1176TIP3    H2 3493   6.384   2.739   0.030
 1177TIP3   OH2 3494   2.021   3.805   0.764
 1177TIP3    H1 3495   2.067   3.793   0.847
 1177TIP3    H2 3496   2.015   3.716   0.726
 1178TIP3   OH2 3497   5.389   4.427   5.456
 1178TIP3    H1 3498   5.344   4.461   5.380
 1178TIP3    H2 3499   5.481   4.423   5.429
 1179TIP3   OH2 3500   4.124   2.817   2.738
 1179TIP3    H1 3501   4.047   2.802   2.792
 1179TIP3    H2 3502   4.148   2.730   2.706
 1180TIP3   OH2 3503   0.259   6.405   3.081
 1180TIP3    H1 3504   0.238   6.455   3.002
 1180TIP3    H2 3505   0.355   6.405   3.085
 1181TIP3   OH2 3506   5.747   5.106   4.601
 1181TIP3    H1 3507   5.827   5.152   4.626
 1181TIP3    H2 3508   5.703   5.086   4.684
 1182TIP3   OH2 3509   1.678   4.516   4.982
 1182TIP3    H1 3510   1.760   4.521   4.932
 1182TIP3    H2 3511   1.611   4.502   4.916
 1183TIP3   OH2 3512   1.689   3.400   4.054
 1183TIP3    H1 3513   1.727   3.412   4.141
 1183TIP3    H2 3514   1.763   3.403   3.994
 1184TIP3   OH2 3515   4.454   4.396   4.816
 1184TIP3    H1 3516   4.455   4.302   4.832
 1184TIP3    H2 3517   4.516   4.431   4.879
 1185TIP3   OH2 3518   1.111   0.861   1.627
 1185TIP3    H1 3519   1.100   0.912   1.547
 1185TIP3    H2 3520   1.190   0.809   1.612
 1186TIP3   OH2 3521   6.894   2.297   0.443
 1186TIP3    H1 3522   6.927   2.387   0.449
 1186TIP3    H2 3523   6.964   2.244   0.480
 1187TIP3   OH2 3524   0.646   4.721   5.863
 1187TIP3    H1 3525   0.624   4.693   5.952
 1187TIP3    H2 3526   0.622   4.646   5.808
 1188TIP3   OH2 3527   6.415   6.346   0.320
 1188TIP3    H1 3528   6.330   6.346   0.364
 1188TIP3    H2 3529   6.472   6.297   0.378
 1189TIP3   OH2 3530   1.414   0.325   2.219
 1189TIP3    H1 3531   1.390   0.271   2.144
 1189TIP3    H2 3532   1.436   0.262   2.288
 1190TIP3   OH2 3533   0.488   5.775   3.563
 1190TIP3    H1 3534   0.405   5.768   3.612
 1190TIP3    H2 3535   0.490   5.697   3.509
 1191TIP3   OH2 3536   2.127   3.807   3.480
 1191TIP3    H1 3537   2.068   3.798   3.406
 1191TIP3    H2 3538   2.129   3.720   3.520
 1192TIP3   OH2 3539   4.757   1.557   3.371
 1192TIP3    H1 3540   4.825   1.622   3.353
 1192TIP3    H2 3541   4.747   1.557   3.466
 1193TIP3   OH2 3542   3.373   5.544   5.652
 1193TIP3    H1 3543   3.438   5.485   5.615
 1193TIP3    H2 3544   3.336   5.589   5.576
 1194TIP3   OH2 3545   2.578   6.623   0.479
 1194TIP3    H1 3546   2.505   6.579   0.434
 1194TIP3    H2 3547   2.611   6.558   0.540
 1195TIP3   OH2 3548   7.007   1.257   1.633
 1195TIP3    H1 3549   7.024   1.210   1.551
 1195TIP3    H2 3550   7.019   1.190   1.701
 1196TIP3   OH2 3551   2.278   5.247   5.368
 1196TIP3    H1 3552   2.251   5.196   5.445
 1196TIP3    H2 3553   2.205   5.239   5.307
 1197TIP3   OH2 3554   2.834   2.830   1.500
 1197TIP3    H1 3555   2.870   2.858   1.416
 1197TIP3    H2 3556   2.883   2.880   1.566
 1198TIP3   OH2 3557   3.568   5.061   5.655
 1198TIP3    H1 3558   3.635   5.033   5.592
 1198TIP3    H2 3559   3.518   4.981   5.674
 1199TIP3   OH2 3560   2.340   3.345   2.328
 1199TIP3    H1 3561   2.252   3.335   2.365
 1199TIP3    H2 3562   2.332   3.309   2.239
 1200TIP3   OH2 3563   0.010   3.417   0.148
 1200TIP3    H1 3564  -0.055   3.357   0.186
 1200TIP3    H2 3565   0.072   3.432   0.218
 1201TIP3   OH2 3566   1.440   5.207   0.033
 1201TIP3    H1 3567   1.364   5.225   0.088
 1201TIP3    H2 3568   1.514   5.205   0.094
 1202TIP3   OH2 3569   5.271   3.039   1.221
 1202TIP3    H1 3570   5.365   3.038   1.199
 1202TIP3    H2 3571   5.245   3.130   1.210
 1203TIP3   OH2 3572   3.836   0.900   1.714
 1203TIP3    H1 3573   3.924   0.890   1.749
 1203TIP3    H2 3574   3.779   0.858   1.779
 1204TIP3   OH2 3575   1.672   0.994   2.205
 1204TIP3    H1 3576   1.765   0.990   2.185
 1204TIP3    H2 3577   1.668   1.038   2.290
 1205TIP3   OH2 3578   1.856   5.130   5.369
 1205TIP3    H1 3579   1.868   5.064   5.436
 1205TIP3    H2 3580   1.825   5.082   5.292
 1206TIP3   OH2 3581   1.428   6.398   2.740
 1206TIP3    H1 3582   1.493   6.356   2.684
 1206TIP3    H2 3583   1.423   6.342   2.818
 1207TIP3   OH2 3584   1.521   2.605   3.375
 1207TIP3    H1 3585   1.522   2.689   3.329
 1207TIP3    H2 3586   1.499   2.541   3.307
 1208TIP3   OH2 3587   6.290   1.430   1.230
 1208TIP3    H1 3588   6.315   1.410   1.140
 1208TIP3    H2 3589   6.202   1.467   1.222
 1209TIP3   OH2 3590   4.149   5.862   3.116
 1209TIP3    H1 3591   4.198   5.847   3.197
 1209TIP3    H2 3592   4.057   5.857   3.142
 1210TIP3   OH2 3593   2.622   2.862   1.662
 1210TIP3    H1 3594   2.626   2.779   1.710
 1210TIP3    H2 3595   2.694   2.855   1.598
 1211TIP3   OH2 3596   6.123   6.458   0.881
 1211TIP3    H1 3597   6.155   6.521   0.816
 1211TIP3    H2 3598   6.062   6.509   0.935
 1212TIP3   OH2 3599   5.279   6.297   4.086
 1212TIP3    H1 3600   5.300   6.264   4.174
 1212TIP3    H2 3601   5.324   6.382   4.082
 1213TIP3   OH2 3602   4.868   6.177   2.735
 1213TIP3    H1 3603   4.915   6.166   2.653
 1213TIP3    H2 3604   4.936   6.199   2.799
 1214TIP3   OH2 3605   7.203   0.413   4.740
 1214TIP3    H1 3606   7.108   0.423   4.735
 1214TIP3    H2 3607   7.217   0.333   4.791
 1215TIP3   OH2 3608   3.195   6.224   0.900
 1215TIP3    H1 3609   3.273   6.191   0.855
 1215TIP3    H2 3610   3.212   6.317   0.913
 1216TIP3   OH2 3611   2.986   4.938   1.190
 1216TIP3    H1 3612   3.056   5.002   1.200
 1216TIP3    H2 3613   3.006   4.893   1.108
 1217TIP3   OH2 3614   1.939   0.527   2.511
 1217TIP3    H1 3615   1.967   0.437   2.530
 1217TIP3    H2 3616   1.972   0.544   2.423
 1218TIP3   OH2 3617   2.283   4.076   2.693
 1218TIP3    H1 3618   2.356   4.071   2.631
 1218TIP3    H2 3619   2.248   4.164   2.682
 1219TIP3   OH2 3620   3.499   0.420   3.418
 1219TIP3    H1 3621   3.594   0.425   3.427
 1219TIP3    H2 3622   3.476   0.494   3.362
 1220TIP3   OH2 3623   3.722   5.708   5.542
 1220TIP3    H1 3624   3.773   5.655   5.480
 1220TIP3    H2 3625   3.630   5.689   5.519
 1221TIP3   OH2 3626   5.278   2.271   3.349
 1221TIP3    H1 3627   5.210   2.205   3.365
 1221TIP3    H2 3628   5.267   2.333   3.421
 1222TIP3   OH2 3629   4.262   2.302   1.185
 1222TIP3    H1 3630   4.328   2.311   1.254
 1222TIP3    H2 3631   4.307   2.254   1.115
 1223TIP3   OH2 3632   2.310   6.710   5.589
 1223TIP3    H1 3633   2.367   6.771   5.636
 1223TIP3    H2 3634   2.311   6.740   5.499
 1224TIP3   OH2 3635   1.955   5.441   3.654
 1224TIP3    H1 3636   1.930   5.351   3.675
 1224TIP3    H2 3637   2.012   5.432   3.577
 1225TIP3   OH2 3638   4.074   2.836   0.894
 1225TIP3    H1 3639   4.083   2.756   0.945
 1225TIP3    H2 3640   4.128   2.900   0.941
 1226TIP3   OH2 3641   5.249   2.025   1.800
 1226TIP3    H1 3642   5.287   2.037   1.888
 1226TIP3    H2 3643   5.224   1.933   1.797
 1227TIP3   OH2 3644   4.659   4.300   0.123
 1227TIP3    H1 3645   4.727   4.307   0.190
 1227TIP3    H2 3646   4.580   4.279   0.172
 1228TIP3   OH2 3647   1.660   0.291   4.402
 1228TIP3    H1 3648   1.619   0.350   4.465
 1228TIP3    H2 3649   1.651   0.204   4.442
 1229TIP3   OH2 3650   2.098   5.489   1.342
 1229TIP3    H1 3651   2.041   5.487   1.419
 1229TIP3    H2 3652   2.054   5.547   1.281
 1230TIP3   OH2 3653   5.429   2.692   5.609
 1230TIP3    H1 3654   5.471   2.653   5.532
 1230TIP3    H2 3655   5.422   2.785   5.587
 1231TIP3   OH2 3656   6.304   1.232   3.384
 1231TIP3    H1 3657   6.271   1.168   3.447
 1231TIP3    H2 3658   6.393   1.252   3.415
 1232TIP3   OH2 3659   3.044   0.985   2.660
 1232TIP3    H1 3660   2.964   1.005   2.710
 1232TIP3    H2 3661   3.099   0.938   2.723
 1233TIP3   OH2 3662   2.013   4.659   4.291
 1233TIP3    H1 3663   1.933   4.671   4.240
 1233TIP3    H2 3664   2.009   4.727   4.358
 1234TIP3   OH2 3665   3.710   5.432   0.979
 1234TIP3    H1 3666   3.771   5.496   1.016
 1234TIP3    H2 3667   3.624   5.458   1.013
 1235TIP3   OH2 3668   6.346   6.595   0.158
 1235TIP3    H1 3669   6.367   6.524   0.219
 1235TIP3    H2 3670   6.289   6.653   0.209
 1236TIP3   OH2 3671   6.627   1.346   5.365
 1236TIP3    H1 3672   6.571   1.424   5.360
 1236TIP3    H2 3673   6.703   1.368   5.312
 1237TIP3   OH2 3674   4.719   3.316   0.961
 1237TIP3    H1 3675   4.708   3.411   0.964
 1237TIP3    H2 3676   4.640   3.283   0.920
 1238TIP3   OH2 3677   2.188   1.667   5.721
 1238TIP3    H1 3678   2.139   1.605   5.775
 1238TIP3    H2 3679   2.261   1.616   5.685
 1239TIP3   OH2 3680   2.885   2.819   2.191
 1239TIP3    H1 3681   2.798   2.854   2.169
 1239TIP3    H2 3682   2.867   2.738   2.237
 1240TIP3   OH2 3683   4.476   5.797   1.940
 1240TIP3    H1 3684   4.471   5.792   2.035
 1240TIP3    H2 3685   4.386   5.779   1.910
 1241TIP3   OH2 3686   4.475   4.437   5.793
 1241TIP3    H1 3687   4.481   4.486   5.875
 1241TIP3    H2 3688   4.432   4.496   5.732
 1242TIP3   OH2 3689   0.554   3.480   3.223
 1242TIP3    H1 3690   0.550   3.449   3.132
 1242TIP3    H2 3691   0.468   3.461   3.259
 1243TIP3   OH2 3692   6.053   3.283   2.858
 1243TIP3    H1 3693   5.966   3.269   2.896
 1243TIP3    H2 3694   6.056   3.377   2.839
 1244TIP3   OH2 3695   7.073   0.889   2.847
 1244TIP3    H1 3696   6.991   0.929   2.818
 1244TIP3    H2 3697   7.047   0.807   2.888
 1245TIP3   OH2 3698   6.821   5.140   4.949
 1245TIP3    H1 3699   6.902   5.190   4.964
 1245TIP3    H2 3700   6.792   5.168   4.862
 1246TIP3   OH2 3701   4.359   4.039   0.735
 1246TIP3    H1 3702   4.303   4.041   0.657
 1246TIP3    H2 3703   4.408   4.121   0.731
 1247TIP3   OH2 3704   5.770   0.479   1.267
 1247TIP3    H1 3705   5.737   0.419   1.200
 1247TIP3    H2 3706   5.755   0.433   1.350
 1248TIP3   OH2 3707   2.715   3.034   3.441
 1248TIP3    H1 3708   2.631   3.054   3.483
 1248TIP3    H2 3709   2.774   3.102   3.473
 1249TIP3   OH2 3710   5.681   2.638   1.330
 1249TIP3    H1 3711   5.609   2.695   1.303
 1249TIP3    H2 3712   5.759   2.692   1.322
 1250TIP3   OH2 3713   2.540   1.045   2.946
 1250TIP3    H1 3714   2.524   0.953   2.967
 1250TIP3    H2 3715   2.453   1.080   2.926
 1251TIP3   OH2 3716   3.007   0.748   4.233
 1251TIP3    H1 3717   2.976   0.836   4.212
 1251TIP3    H2 3718   3.087   0.737   4.181
 1252TIP3   OH2 3719   2.293   2.417   3.110
 1252TIP3    H1 3720   2.248   2.333   3.115
 1252TIP3    H2 3721   2.239   2.476   3.162
 1253TIP3   OH2 3722   1.791   1.101   5.056
 1253TIP3    H1 3723   1.834   1.183   5.082
 1253TIP3    H2 3724   1.851   1.063   4.991
 1254TIP3   OH2 3725   2.039   4.057   1.320
 1254TIP3    H1 3726   2.049   4.123   1.252
 1254TIP3    H2 3727   1.949   4.067   1.351
 1255TIP3   OH2 3728   3.551   5.251   2.805
 1255TIP3    H1 3729   3.493   5.207   2.868
 1255TIP3    H2 3730   3.497   5.322   2.769
 1256TIP3   OH2 3731   2.392   3.136   0.249
 1256TIP3    H1 3732   2.446   3.151   0.171
 1256TIP3    H2 3733   2.315   3.089   0.216
 1257TIP3   OH2 3734   4.659   6.789   0.251
 1257TIP3    H1 3735   4.733   6.745   0.292
 1257TIP3    H2 3736   4.636   6.734   0.177
 1258TIP3   OH2 3737   2.590   1.291   0.159
 1258TIP3    H1 3738   2.681   1.285   0.190
 1258TIP3    H2 3739   2.556   1.371   0.200
 1259TIP3   OH2 3740   1.574   4.954   2.819
 1259TIP3    H1 3741   1.637   4.889   2.850
 1259TIP3    H2 3742   1.585   5.028   2.879
 1260TIP3   OH2 3743   0.445   4.953   1.976
 1260TIP3    H1 3744   0.374   4.958   2.040
 1260TIP3    H2 3745   0.495   5.034   1.988
 1261TIP3   OH2 3746   5.707   1.612   1.929
 1261TIP3    H1 3747   5.636   1.549   1.930
 1261TIP3    H2 3748   5.723   1.629   1.836
 1262TIP3   OH2 3749   2.426   3.324   2.703
 1262TIP3    H1 3750   2.426   3.239   2.658
 1262TIP3    H2 3751   2.472   3.383   2.644
 1263TIP3   OH2 3752   5.814   6.755   2.325
 1263TIP3    H1 3753   5.785   6.732   2.413
 1263TIP3    H2 3754   5.875   6.686   2.301
 1264TIP3   OH2 3755   6.288   1.574   5.259
 1264TIP3    H1 3756   6.260   1.501   5.204
 1264TIP3    H2 3757   6.374   1.548   5.293
 1265TIP3   OH2 3758   6.833   2.852   3.297
 1265TIP3    H1 3759   6.862   2.931   3.343
 1265TIP3    H2 3760   6.826   2.877   3.206
 1266TIP3   OH2 3761   1.195   5.948   1.104
 1266TIP3    H1 3762   1.119   5.974   1.053
 1266TIP3    H2 3763   1.264   5.935   1.039
 1267TIP3   OH2 3764   4.124   0.914   3.101
 1267TIP3    H1 3765   4.133   0.980   3.032
 1267TIP3    H2 3766   4.211   0.907   3.139
 1268TIP3   OH2 3767   0.058   2.878   4.871
 1268TIP3    H1 3768   0.015   2.959   4.842
 1268TIP3    H2 3769   0.114   2.906   4.944
 1269TIP3   OH2 3770   3.305   1.335   3.717
 1269TIP3    H1 3771   3.323   1.406   3.777
 1269TIP3    H2 3772   3.371   1.269   3.736
 1270TIP3   OH2 3773   3.637   6.518   3.657
 1270TIP3    H1 3774   3.593   6.523   3.742
 1270TIP3    H2 3775   3.594   6.585   3.603
 1271TIP3   OH2 3776   2.294   4.289   1.163
 1271TIP3    H1 3777   2.383   4.321   1.152
 1271TIP3    H2 3778   2.268   4.319   1.250
 1272TIP3   OH2 3779   6.505   6.647   4.599
 1272TIP3    H1 3780   6.474   6.650   4.690
 1272TIP3    H2 3781   6.580   6.707   4.598
 1273TIP3   OH2 3782   2.840   5.015   5.508
 1273TIP3    H1 3783   2.750   5.047   5.500
 1273TIP3    H2 3784   2.843   4.940   5.449
 1274TIP3   OH2 3785   6.778   4.122   3.804
 1274TIP3    H1 3786   6.725   4.200   3.791
 1274TIP3    H2 3787   6.728   4.069   3.867
 1275TIP3   OH2 3788   3.640   4.135   0.050
 1275TIP3    H1 3789   3.686   4.082  -0.015
 1275TIP3    H2 3790   3.621   4.074   0.122
 1276TIP3   OH2 3791   6.838   0.808   1.121
 1276TIP3    H1 3792   6.873   0.845   1.040
 1276TIP3    H2 3793   6.743   0.820   1.114
 1277TIP3   OH2 3794   0.820   5.318   2.013
 1277TIP3    H1 3795   0.859   5.405   2.010
 1277TIP3    H2 3796   0.824   5.287   1.923
 1278TIP3   OH2 3797   4.925   2.628   0.497
 1278TIP3    H1 3798   4.841   2.671   0.484
 1278TIP3    H2 3799   4.903   2.536   0.511
 1279TIP3   OH2 3800   1.623   3.104   3.364
 1279TIP3    H1 3801   1.660   3.156   3.435
 1279TIP3    H2 3802   1.530   3.095   3.387
 1280TIP3   OH2 3803   6.890   4.746   3.430
 1280TIP3    H1 3804   6.956   4.794   3.480
 1280TIP3    H2 3805   6.810   4.755   3.481
 1281TIP3   OH2 3806   0.544   5.514   5.360
 1281TIP3    H1 3807   0.623   5.482   5.404
 1281TIP3    H2 3808   0.475   5.507   5.426
 1282TIP3   OH2 3809   1.196   4.040   0.880
 1282TIP3    H1 3810   1.288   4.032   0.905
 1282TIP3    H2 3811   1.149   3.984   0.942
 1283TIP3   OH2 3812   3.094   0.243   5.711
 1283TIP3    H1 3813   3.074   0.321   5.762
 1283TIP3    H2 3814   3.113   0.275   5.623
 1284TIP3   OH2 3815   1.203   2.952   1.348
 1284TIP3    H1 3816   1.130   2.987   1.296
 1284TIP3    H2 3817   1.270   2.930   1.283
 1285TIP3   OH2 3818   6.729   2.056   1.183
 1285TIP3    H1 3819   6.639   2.075   1.207
 1285TIP3    H2 3820   6.721   1.995   1.109
 1286TIP3   OH2 3821   2.605   3.600   1.093
 1286TIP3    H1 3822   2.619   3.540   1.166
 1286TIP3    H2 3823   2.683   3.654   1.091
 1287TIP3   OH2 3824   0.854   4.427   5.210
 1287TIP3    H1 3825   0.843   4.522   5.204
 1287TIP3    H2 3826   0.785   4.391   5.154
 1288TIP3   OH2 3827   4.246   5.703   2.215
 1288TIP3    H1 3828   4.172   5.671   2.164
 1288TIP3    H2 3829   4.240   5.799   2.209
 1289TIP3   OH2 3830   2.211   0.125   0.928
 1289TIP3    H1 3831   2.154   0.060   0.887
 1289TIP3    H2 3832   2.231   0.188   0.859
 1290TIP3   OH2 3833   1.834   0.713   5.359
 1290TIP3    H1 3834   1.861   0.716   5.451
 1290TIP3    H2 3835   1.856   0.800   5.325
 1291TIP3   OH2 3836   6.973   5.091   5.334
 1291TIP3    H1 3837   7.012   5.177   5.322
 1291TIP3    H2 3838   6.883   5.101   5.303
 1292TIP3   OH2 3839   2.586   2.240   2.103
 1292TIP3    H1 3840   2.605   2.146   2.104
 1292TIP3    H2 3841   2.493   2.246   2.122
 1293TIP3   OH2 3842   2.948   1.241   2.888
 1293TIP3    H1 3843   2.938   1.146   2.879
 1293TIP3    H2 3844   2.892   1.264   2.962
 1294TIP3   OH2 3845   7.119   5.338   5.747
 1294TIP3    H1 3846   7.121   5.250   5.710
 1294TIP3    H2 3847   7.032   5.371   5.725
 1295TIP3   OH2 3848   5.919   2.071   5.021
 1295TIP3    H1 3849   5.922   2.018   5.101
 1295TIP3    H2 3850   5.993   2.131   5.029
 1296TIP3   OH2 3851   5.138   5.901   2.596
 1296TIP3    H1 3852   5.056   5.855   2.613
 1296TIP3    H2 3853   5.204   5.832   2.588
 1297TIP3   OH2 3854   3.512   5.133   0.220
 1297TIP3    H1 3855   3.501   5.228   0.223
 1297TIP3    H2 3856   3.580   5.114   0.284
 1298TIP3   OH2 3857   6.899   3.611   4.948
 1298TIP3    H1 3858   6.912   3.678   4.881
 1298TIP3    H2 3859   6.813   3.574   4.930
 1299TIP3   OH2 3860   3.897   0.181   0.170
 1299TIP3    H1 3861   3.955   0.205   0.098
 1299TIP3    H2 3862   3.860   0.265   0.200
 1300TIP3   OH2 3863   1.137   6.530   4.326
 1300TIP3    H1 3864   1.058   6.504   4.277
 1300TIP3    H2 3865   1.108   6.602   4.382
 1301TIP3   OH2 3866   3.257   3.985   4.442
 1301TIP3    H1 3867   3.307   3.910   4.408
 1301TIP3    H2 3868   3.179   3.988   4.387
 1302TIP3   OH2 3869   1.281   1.592   1.050
 1302TIP3    H1 3870   1.296   1.563   1.140
 1302TIP3    H2 3871   1.185   1.591   1.041
 1303TIP3   OH2 3872   6.125   0.704   2.123
 1303TIP3    H1 3873   6.213   0.731   2.095
 1303TIP3    H2 3874   6.068   0.774   2.094
 1304TIP3   OH2 3875   2.976   2.418   5.478
 1304TIP3    H1 3876   2.901   2.460   5.437
 1304TIP3    H2 3877   3.018   2.487   5.529
 1305TIP3   OH2 3878   6.043   3.438   3.241
 1305TIP3    H1 3879   6.026   3.352   3.280
 1305TIP3    H2 3880   5.961   3.486   3.254
 1306TIP3   OH2 3881   1.106   3.922   5.259
 1306TIP3    H1 3882   1.035   3.965   5.307
 1306TIP3    H2 3883   1.138   3.989   5.199
 1307TIP3   OH2 3884   6.083   0.403   1.244
 1307TIP3    H1 3885   6.055   0.333   1.303
 1307TIP3    H2 3886   6.032   0.389   1.164
 1308TIP3   OH2 3887   5.869   1.715   2.698
 1308TIP3    H1 3888   5.856   1.651   2.768
 1308TIP3    H2 3889   5.957   1.749   2.713
 1309TIP3   OH2 3890   3.499   6.760   0.132
 1309TIP3    H1 3891   3.589   6.793   0.136
 1309TIP3    H2 3892   3.504   6.684   0.074
 1310TIP3   OH2 3893   2.378   5.346   2.552
 1310TIP3    H1 3894   2.378   5.318   2.461
 1310TIP3    H2 3895   2.414   5.435   2.549
 1311TIP3   OH2 3896   3.899   2.438   5.284
 1311TIP3    H1 3897   3.944   2.518   5.312
 1311TIP3    H2 3898   3.876   2.393   5.366
 1312TIP3   OH2 3899   5.870   2.070   1.619
 1312TIP3    H1 3900   5.946   2.013   1.631
 1312TIP3    H2 3901   5.863   2.117   1.702
 1313TIP3   OH2 3902   3.136   3.244   4.842
 1313TIP3    H1 3903   3.163   3.240   4.934
 1313TIP3    H2 3904   3.052   3.290   4.844
 1314TIP3   OH2 3905   3.878   3.531   3.129
 1314TIP3    H1 3906   3.800   3.477   3.140
 1314TIP3    H2 3907   3.914   3.503   3.045
 1315TIP3   OH2 3908   0.582   3.425   5.518
 1315TIP3    H1 3909   0.616   3.497   5.571
 1315TIP3    H2 3910   0.519   3.466   5.459
 1316TIP3   OH2 3911   2.624   5.909   4.867
 1316TIP3    H1 3912   2.573   5.834   4.897
 1316TIP3    H2 3913   2.580   5.984   4.907
 1317TIP3   OH2 3914   0.275   4.705   2.255
 1317TIP3    H1 3915   0.331   4.679   2.182
 1317TIP3    H2 3916   0.244   4.623   2.292
 1318TIP3   OH2 3917   1.535   0.081   4.540
 1318TIP3    H1 3918   1.497   0.011   4.593
 1318TIP3    H2 3919   1.616   0.044   4.504
 1319TIP3   OH2 3920   0.277   2.856   1.382
 1319TIP3    H1 3921   0.229   2.908   1.446
 1319TIP3    H2 3922   0.359   2.833   1.426
 1320TIP3   OH2 3923   5.079   4.747   5.765
 1320TIP3    H1 3924   5.092   4.676   5.702
 1320TIP3    H2 3925   5.078   4.704   5.850
 1321TIP3   OH2 3926   0.563   5.871   1.965
 1321TIP3    H1 3927   0.628   5.810   1.998
 1321TIP3    H2 3928   0.611   5.953   1.950
 1322TIP3   OH2 3929   4.335   4.268   1.609
 1322TIP3    H1 3930   4.394   4.193   1.614
 1322TIP3    H2 3931   4.325   4.297   1.700
 1323TIP3   OH2 3932   3.324   5.412   2.237
 1323TIP3    H1 3933   3.361   5.355   2.304
 1323TIP3    H2 3934   3.399   5.459   2.202
 1324TIP3   OH2 3935   2.298   3.512   1.170
 1324TIP3    H1 3936   2.348   3.582   1.213
 1324TIP3    H2 3937   2.340   3.500   1.085
 1325TIP3   OH2 3938   5.848   6.137   0.482
 1325TIP3    H1 3939   5.835   6.171   0.393
 1325TIP3    H2 3940   5.902   6.204   0.525
 1326TIP3   OH2 3941   3.009   6.579   0.409
 1326TIP3    H1 3942   3.096   6.611   0.434
 1326TIP3    H2 3943   2.980   6.640   0.341
 1327TIP3   OH2 3944   1.327   0.842   4.363
 1327TIP3    H1 3945   1.351   0.770   4.304
 1327TIP3    H2 3946   1.233   0.853   4.350
 1328TIP3   OH2 3947   5.550   2.805   2.954
 1328TIP3    H1 3948   5.511   2.768   3.033
 1328TIP3    H2 3949   5.507   2.890   2.944
 1329TIP3   OH2 3950   6.691   0.646   5.411
 1329TIP3    H1 3951   6.783   0.621   5.408
 1329TIP3    H2 3952   6.672   0.680   5.324
 1330TIP3   OH2 3953   4.874   0.061   2.017
 1330TIP3    H1 3954   4.923   0.091   2.093
 1330TIP3    H2 3955   4.941   0.026   1.958
 1331TIP3   OH2 3956   2.060   6.551   4.421
 1331TIP3    H1 3957   2.051   6.495   4.344
 1331TIP3    H2 3958   2.052   6.491   4.495
 1332TIP3   OH2 3959   4.256   4.717   1.192
 1332TIP3    H1 3960   4.259   4.703   1.286
 1332TIP3    H2 3961   4.188   4.657   1.161
 1333TIP3   OH2 3962   5.107   3.123   5.612
 1333TIP3    H1 3963   5.089   3.051   5.673
 1333TIP3    H2 3964   5.080   3.201   5.659
 1334TIP3   OH2 3965   2.705   2.879   3.226
 1334TIP3    H1 3966   2.707   2.937   3.302
 1334TIP3    H2 3967   2.780   2.906   3.173
 1335TIP3   OH2 3968   1.019   1.389   0.370
 1335TIP3    H1 3969   0.927   1.390   0.344
 1335TIP3    H2 3970   1.041   1.481   0.383
 1336TIP3   OH2 3971   1.291   3.904   2.461
 1336TIP3    H1 3972   1.351   3.838   2.429
 1336TIP3    H2 3973   1.346   3.965   2.511
 1337TIP3   OH2 3974   0.816   4.296   1.338
 1337TIP3    H1 3975   0.894   4.241   1.329
 1337TIP3    H2 3976   0.800   4.330   1.250
 1338TIP3   OH2 3977   2.965   5.695   4.635
 1338TIP3    H1 3978   2.998   5.612   4.670
 1338TIP3    H2 3979   2.907   5.669   4.563
 1339TIP3   OH2 3980   0.899   5.398   2.927
 1339TIP3    H1 3981   0.942   5.474   2.965
 1339TIP3    H2 3982   0.959   5.325   2.944
 1340TIP3   OH2 3983   0.511   1.631   3.355
 1340TIP3    H1 3984   0.596   1.674   3.367
 1340TIP3    H2 3985   0.523   1.544   3.393
 1341TIP3   OH2 3986   1.767   2.438   2.652
 1341TIP3    H1 3987   1.779   2.352   2.691
 1341TIP3    H2 3988   1.856   2.466   2.628
 1342TIP3   OH2 3989   6.807   6.488   2.733
 1342TIP3    H1 3990   6.837   6.450   2.651
 1342TIP3    H2 3991   6.720   6.524   2.714
 1343TIP3   OH2 3992   5.624   0.788   1.518
 1343TIP3    H1 3993   5.565   0.721   1.483
 1343TIP3    H2 3994   5.689   0.739   1.568
 1344TIP3   OH2 3995   5.189   3.741   1.786
 1344TIP3    H1 3996   5.105   3.771   1.751
 1344TIP3    H2 3997   5.250   3.813   1.768
 1345TIP3   OH2 3998   1.537   4.162   4.169
 1345TIP3    H1 3999   1.607   4.177   4.231
 1345TIP3    H2 4000   1.461   4.207   4.205
 1346TIP3   OH2 4001   7.041   0.564   5.723
 1346TIP3    H1 4002   7.104   0.631   5.695
 1346TIP3    H2 4003   7.070   0.484   5.679
 1347TIP3   OH2 4004   3.175   6.587   1.434
 1347TIP3    H1 4005   3.183   6.628   1.348
 1347TIP3    H2 4006   3.180   6.659   1.497
 1348TIP3   OH2 4007   3.996   4.581   4.365
 1348TIP3    H1 4008   3.984   4.624   4.450
 1348TIP3    H2 4009   3.953   4.640   4.303
 1349TIP3   OH2 4010   3.031   5.205   2.749
 1349TIP3    H1 4011   2.942   5.217   2.782
 1349TIP3    H2 4012   3.037   5.263   2.673
 1350TIP3   OH2 4013   2.112   2.143   2.924
 1350TIP3    H1 4014   2.027   2.124   2.883
 1350TIP3    H2 4015   2.172   2.149   2.850
 1351TIP3   OH2 4016   1.096   3.693   5.087
 1351TIP3    H1 4017   1.153   3.726   5.156
 1351TIP3    H2 4018   1.042   3.768   5.063
 1352TIP3   OH2 4019   4.156   0.903   1.813
 1352TIP3    H1 4020   4.189   0.873   1.728
 1352TIP3    H2 4021   4.144   0.823   1.863
 1353TIP3   OH2 4022   1.604   5.377   5.286
 1353TIP3    H1 4023   1.526   5.432   5.290
 1353TIP3    H2 4024   1.581   5.299   5.337
 1354TIP3   OH2 4025   6.318   0.127   1.812
 1354TIP3    H1 4026   6.400   0.095   1.849
 1354TIP3    H2 4027   6.336   0.135   1.718
 1355TIP3   OH2 4028   4.060   1.389   2.444
 1355TIP3    H1 4029   4.144   1.343   2.442
 1355TIP3    H2 4030   4.084   1.481   2.429
 1356TIP3   OH2 4031   3.231   5.587   2.838
 1356TIP3    H1 4032   3.196   5.525   2.902
 1356TIP3    H2 4033   3.263   5.660   2.891
 1357TIP3   OH2 4034   1.531   1.977   4.550
 1357TIP3    H1 4035   1.448   2.026   4.553
 1357TIP3    H2 4036   1.511   1.900   4.497
 1358TIP3   OH2 4037   7.107   4.959   3.275
 1358TIP3    H1 4038   7.104   5.052   3.253
 1358TIP3    H2 4039   7.149   4.918   3.200
 1359TIP3   OH2 4040   2.777   3.330   2.300
 1359TIP3    H1 4041   2.775   3.416   2.341
 1359TIP3    H2 4042   2.690   3.294   2.316
 1360TIP3   OH2 4043   3.126   1.520   3.019
 1360TIP3    H1 4044   3.137   1.515   2.924
 1360TIP3    H2 4045   3.148   1.611   3.040
 1361TIP3   OH2 4046   4.164   1.526   3.213
 1361TIP3    H1 4047   4.213   1.444   3.225
 1361TIP3    H2 4048   4.184   1.552   3.123
 1362TIP3   OH2 4049   3.430   3.338   4.502
 1362TIP3    H1 4050   3.403   3.286   4.427
 1362TIP3    H2 4051   3.483   3.278   4.555
 1363TIP3   OH2 4052   6.699   6.744   3.783
 1363TIP3    H1 4053   6.694   6.835   3.813
 1363TIP3    H2 4054   6.668   6.693   3.858
 1364TIP3   OH2 4055   1.029   3.483   4.303
 1364TIP3    H1 4056   1.024   3.468   4.398
 1364TIP3    H2 4057   0.969   3.418   4.266
 1365TIP3   OH2 4058   1.524   1.826   1.081
 1365TIP3    H1 4059   1.608   1.865   1.106
 1365TIP3    H2 4060   1.464   1.854   1.151
 1366TIP3   OH2 4061   7.014   6.595   4.501
 1366TIP3    H1 4062   7.029   6.569   4.410
 1366TIP3    H2 4063   7.099   6.582   4.544
 1367TIP3   OH2 4064   5.202   0.089   3.976
 1367TIP3    H1 4065   5.195   0.116   3.884
 1367TIP3    H2 4066   5.129   0.027   3.988
 1368TIP3   OH2 4067   2.402   6.346   0.834
 1368TIP3    H1 4068   2.466   6.362   0.766
 1368TIP3    H2 4069   2.430   6.400   0.908
 1369TIP3   OH2 4070   2.411   4.623   1.376
 1369TIP3    H1 4071   2.497   4.642   1.414
 1369TIP3    H2 4072   2.430   4.602   1.285
 1370TIP3   OH2 4073   1.046   2.707   2.761
 1370TIP3    H1 4074   1.102   2.748   2.695
 1370TIP3    H2 4075   1.107   2.664   2.821
 1371TIP3   OH2 4076   6.305   1.610   2.887
 1371TIP3    H1 4077   6.400   1.607   2.897
 1371TIP3    H2 4078   6.280   1.518   2.876
 1372TIP3   OH2 4079   4.871   2.342   1.604
 1372TIP3    H1 4080   4.833   2.256   1.586
 1372TIP3    H2 4081   4.904   2.335   1.694
 1373TIP3   OH2 4082   0.777   1.041   5.304
 1373TIP3    H1 4083   0.766   1.135   5.287
 1373TIP3    H2 4084   0.696   1.001   5.273
 1374TIP3   OH2 4085   6.372   3.136   5.622
 1374TIP3    H1 4086   6.357   3.214   5.567
 1374TIP3    H2 4087   6.390   3.066   5.559
 1375TIP3   OH2 4088   0.509   4.377   0.956
 1375TIP3    H1 4089   0.580   4.407   1.014
 1375TIP3    H2 4090   0.552   4.320   0.893
 1376TIP3   OH2 4091   3.181   0.946   4.465
 1376TIP3    H1 4092   3.270   0.969   4.492
 1376TIP3    H2 4093   3.188   0.925   4.372
 1377TIP3   OH2 4094   3.677   6.561   3.235
 1377TIP3    H1 4095   3.770   6.557   3.261
 1377TIP3    H2 4096   3.634   6.496   3.291
 1378TIP3   OH2 4097   6.744   1.360   1.726
 1378TIP3    H1 4098   6.773   1.445   1.695
 1378TIP3    H2 4099   6.825   1.310   1.738
 1379TIP3   OH2 4100   6.538   0.068   0.634
 1379TIP3    H1 4101   6.500   0.105   0.554
 1379TIP3    H2 4102   6.601   0.134   0.664
 1380TIP3   OH2 4103   6.997   3.966   3.955
 1380TIP3    H1 4104   6.935   4.005   3.893
 1380TIP3    H2 4105   7.083   3.990   3.920
 1381TIP3   OH2 4106   4.610   2.642   3.267
 1381TIP3    H1 4107   4.561   2.573   3.311
 1381TIP3    H2 4108   4.641   2.698   3.337
 1382TIP3   OH2 4109   5.196   1.729   2.793
 1382TIP3    H1 4110   5.180   1.727   2.887
 1382TIP3    H2 4111   5.283   1.767   2.783
 1383TIP3   OH2 4112   3.433   6.344   2.204
 1383TIP3    H1 4113   3.502   6.358   2.268
 1383TIP3    H2 4114   3.352   6.348   2.255
 1384TIP3   OH2 4115   1.862   4.421   5.433
 1384TIP3    H1 4116   1.786   4.414   5.491
 1384TIP3    H2 4117   1.834   4.376   5.353
 1385TIP3   OH2 4118   1.952   4.654   1.388
 1385TIP3    H1 4119   1.953   4.727   1.326
 1385TIP3    H2 4120   2.035   4.608   1.372
 1386TIP3   OH2 4121   4.158   1.130   1.467
 1386TIP3    H1 4122   4.158   1.218   1.431
 1386TIP3    H2 4123   4.068   1.100   1.460
 1387TIP3   OH2 4124   6.684   2.011   2.583
 1387TIP3    H1 4125   6.648   2.070   2.650
 1387TIP3    H2 4126   6.695   1.928   2.628
 1388TIP3   OH2 4127   2.277   0.023   4.805
 1388TIP3    H1 4128   2.273   0.083   4.731
 1388TIP3    H2 4129   2.370   0.000   4.812
 1389TIP3   OH2 4130   3.252   3.953   0.836
 1389TIP3    H1 4131   3.282   3.951   0.927
 1389TIP3    H2 4132   3.328   3.981   0.786
 1390TIP3   OH2 4133   3.405   5.648   3.140
 1390TIP3    H1 4134   3.449   5.565   3.156
 1390TIP3    H2 4135   3.435   5.675   3.053
 1391TIP3   OH2 4136   4.371   3.555   1.190
 1391TIP3    H1 4137   4.308   3.492   1.224
 1391TIP3    H2 4138   4.335   3.582   1.106
 1392TIP3   OH2 4139   1.642   3.580   0.251
 1392TIP3    H1 4140   1.721   3.614   0.293
 1392TIP3    H2 4141   1.674   3.513   0.190
 1393TIP3   OH2 4142   2.747   5.560   4.500
 1393TIP3    H1 4143   2.752   5.633   4.438
 1393TIP3    H2 4144   2.726   5.484   4.445
 1394TIP3   OH2 4145   5.789   3.004   3.390
 1394TIP3    H1 4146   5.783   2.975   3.481
 1394TIP3    H2 4147   5.744   3.088   3.389
 1395TIP3   OH2 4148   7.207   2.338   3.490
 1395TIP3    H1 4149   7.113   2.331   3.504
 1395TIP3    H2 4150   7.229   2.265   3.432
 1396TIP3   OH2 4151   7.170   1.597   4.403
 1396TIP3    H1 4152   7.120   1.524   4.438
 1396TIP3    H2 4153   7.126   1.675   4.437
 1397TIP3   OH2 4154   6.874   1.132   0.237
 1397TIP3    H1 4155   6.808   1.066   0.259
 1397TIP3    H2 4156   6.832   1.216   0.254
 1398TIP3   OH2 4157   0.144   3.184   2.467
 1398TIP3    H1 4158   0.201   3.241   2.520
 1398TIP3    H2 4159   0.203   3.144   2.404
 1399TIP3   OH2 4160   3.245   3.713   1.310
 1399TIP3    H1 4161   3.231   3.619   1.307
 1399TIP3    H2 4162   3.175   3.750   1.256
 1400TIP3   OH2 4163   4.650   4.857   3.933
 1400TIP3    H1 4164   4.562   4.827   3.954
 1400TIP3    H2 4165   4.641   4.901   3.849
 1401TIP3   OH2 4166   5.485   3.382   3.228
 1401TIP3    H1 4167   5.569   3.346   3.198
 1401TIP3    H2 4168   5.510   3.461   3.277
 1402TIP3   OH2 4169   0.135   2.590   5.891
 1402TIP3    H1 4170   0.115   2.515   5.835
 1402TIP3    H2 4171   0.199   2.641   5.841
 1403TIP3   OH2 4172   4.311   4.936   0.281
 1403TIP3    H1 4173   4.244   4.867   0.274
 1403TIP3    H2 4174   4.275   5.008   0.229
 1404TIP3   OH2 4175   1.109   6.059   3.957
 1404TIP3    H1 4176   1.087   6.084   3.867
 1404TIP3    H2 4177   1.134   5.966   3.950
 1405TIP3   OH2 4178   0.679   6.424   2.784
 1405TIP3    H1 4179   0.766   6.455   2.759
 1405TIP3    H2 4180   0.673   6.443   2.878
 1406TIP3   OH2 4181   6.775   2.041   1.438
 1406TIP3    H1 4182   6.760   2.035   1.344
 1406TIP3    H2 4183   6.869   2.025   1.448
 1407TIP3   OH2 4184   1.602   2.356   0.339
 1407TIP3    H1 4185   1.633   2.265   0.339
 1407TIP3    H2 4186   1.581   2.373   0.247
 1408TIP3   OH2 4187   6.401   1.835   5.431
 1408TIP3    H1 4188   6.384   1.866   5.342
 1408TIP3    H2 4189   6.398   1.915   5.485
 1409TIP3   OH2 4190   2.656   5.996   3.428
 1409TIP3    H1 4191   2.718   5.947   3.481
 1409TIP3    H2 4192   2.691   5.989   3.339
 1410TIP3   OH2 4193   3.844   5.713   2.333
 1410TIP3    H1 4194   3.798   5.781   2.282
 1410TIP3    H2 4195   3.774   5.659   2.369
 1411TIP3   OH2 4196   1.606   2.026   5.474
 1411TIP3    H1 4197   1.596   1.943   5.522
 1411TIP3    H2 4198   1.659   2.003   5.397
 1412TIP3   OH2 4199   6.304   6.132   1.708
 1412TIP3    H1 4200   6.331   6.197   1.774
 1412TIP3    H2 4201   6.210   6.144   1.699
 1413TIP3   OH2 4202   2.530   6.311   3.046
 1413TIP3    H1 4203   2.486   6.348   2.969
 1413TIP3    H2 4204   2.488   6.225   3.058
 1414TIP3   OH2 4205   3.406   2.924   3.194
 1414TIP3    H1 4206   3.315   2.946   3.173
 1414TIP3    H2 4207   3.415   2.832   3.170
 1415TIP3   OH2 4208   0.003   2.185   0.494
 1415TIP3    H1 4209   0.037   2.096   0.508
 1415TIP3    H2 4210   0.036   2.211   0.408
 1416TIP3   OH2 4211   6.714   2.948   3.069
 1416TIP3    H1 4212   6.653   2.894   3.018
 1416TIP3    H2 4213   6.659   3.016   3.107
 1417TIP3   OH2 4214   0.114   4.026   5.224
 1417TIP3    H1 4215   0.108   3.937   5.190
 1417TIP3    H2 4216   0.142   4.079   5.150
 1418TIP3   OH2 4217   5.070   0.418   4.360
 1418TIP3    H1 4218   5.015   0.340   4.352
 1418TIP3    H2 4219   5.144   0.391   4.414
 1419TIP3   OH2 4220   2.224   3.816   2.901
 1419TIP3    H1 4221   2.137   3.856   2.894
 1419TIP3    H2 4222   2.233   3.766   2.820
 1420TIP3   OH2 4223   5.983   6.816   4.403
 1420TIP3    H1 4224   5.913   6.750   4.396
 1420TIP3    H2 4225   6.053   6.783   4.346
 1421TIP3   OH2 4226   6.791   2.359   1.003
 1421TIP3    H1 4227   6.751   2.319   1.080
 1421TIP3    H2 4228   6.860   2.415   1.038
 1422TIP3   OH2 4229   6.679   4.217   4.411
 1422TIP3    H1 4230   6.607   4.234   4.350
 1422TIP3    H2 4231   6.667   4.126   4.437
 1423TIP3   OH2 4232   3.747   3.685   0.728
 1423TIP3    H1 4233   3.654   3.678   0.704
 1423TIP3    H2 4234   3.759   3.778   0.748
 1424TIP3   OH2 4235   2.464   5.704   4.936
 1424TIP3    H1 4236   2.430   5.649   5.007
 1424TIP3    H2 4237   2.488   5.642   4.867
 1425TIP3   OH2 4238   6.615   2.711   4.847
 1425TIP3    H1 4239   6.579   2.764   4.918
 1425TIP3    H2 4240   6.650   2.633   4.890
 1426TIP3   OH2 4241   1.010   6.586   0.695
 1426TIP3    H1 4242   1.041   6.508   0.741
 1426TIP3    H2 4243   0.957   6.632   0.760
 1427TIP3   OH2 4244   5.633   0.850   4.852
 1427TIP3    H1 4245   5.705   0.884   4.904
 1427TIP3    H2 4246   5.653   0.757   4.842
 1428TIP3   OH2 4247   5.543   2.508   3.856
 1428TIP3    H1 4248   5.589   2.447   3.798
 1428TIP3    H2 4249   5.544   2.465   3.941
 1429TIP3   OH2 4250   5.902   5.585   1.034
 1429TIP3    H1 4251   5.946   5.501   1.020
 1429TIP3    H2 4252   5.958   5.632   1.096
 1430TIP3   OH2 4253   1.451   2.058   0.913
 1430TIP3    H1 4254   1.463   1.974   0.957
 1430TIP3    H2 4255   1.443   2.121   0.984
 1431TIP3   OH2 4256   4.396   1.482   3.014
 1431TIP3    H1 4257   4.400   1.525   2.929
 1431TIP3    H2 4258   4.477   1.507   3.058
 1432TIP3   OH2 4259   5.499   3.155   3.691
 1432TIP3    H1 4260   5.443   3.230   3.674
 1432TIP3    H2 4261   5.467   3.087   3.632
 1433TIP3   OH2 4262   3.739   0.334   1.929
 1433TIP3    H1 4263   3.769   0.409   1.878
 1433TIP3    H2 4264   3.741   0.364   2.020
 1434TIP3   OH2 4265   4.936   4.249   3.252
 1434TIP3    H1 4266   4.931   4.160   3.217
 1434TIP3    H2 4267   5.008   4.289   3.204
 1435TIP3   OH2 4268   1.761   6.632   4.454
 1435TIP3    H1 4269   1.689   6.600   4.508
 1435TIP3    H2 4270   1.838   6.587   4.488
 1436TIP3   OH2 4271   2.840   4.851   4.906
 1436TIP3    H1 4272   2.846   4.768   4.859
 1436TIP3    H2 4273   2.909   4.905   4.868
 1437TIP3   OH2 4274   4.836   1.798   2.270
 1437TIP3    H1 4275   4.773   1.784   2.199
 1437TIP3    H2 4276   4.782   1.803   2.349
 1438TIP3   OH2 4277   4.206   6.188   1.101
 1438TIP3    H1 4278   4.202   6.145   1.016
 1438TIP3    H2 4279   4.157   6.130   1.160
 1439TIP3   OH2 4280   6.571   4.124   0.834
 1439TIP3    H1 4281   6.503   4.058   0.846
 1439TIP3    H2 4282   6.637   4.103   0.900
 1440TIP3   OH2 4283   6.211   5.587   3.068
 1440TIP3    H1 4284   6.152   5.599   3.142
 1440TIP3    H2 4285   6.157   5.603   2.991
 1441TIP3   OH2 4286   3.331   0.529   5.394
 1441TIP3    H1 4287   3.300   0.572   5.314
 1441TIP3    H2 4288   3.406   0.581   5.422
 1442TIP3   OH2 4289   6.915   2.207   5.811
 1442TIP3    H1 4290   6.823   2.217   5.788
 1442TIP3    H2 4291   6.922   2.119   5.847
 1443TIP3   OH2 4292   0.522   5.911   2.538
 1443TIP3    H1 4293   0.547   5.823   2.510
 1443TIP3    H2 4294   0.548   5.967   2.465
 1444TIP3   OH2 4295   4.949   5.356   3.676
 1444TIP3    H1 4296   4.986   5.421   3.736
 1444TIP3    H2 4297   4.883   5.310   3.728
 1445TIP3   OH2 4298   7.022   4.553   5.268
 1445TIP3    H1 4299   6.948   4.602   5.304
 1445TIP3    H2 4300   7.019   4.572   5.174
 1446TIP3   OH2 4301   5.928   6.590   1.000
 1446TIP3    H1 4302   5.834   6.581   0.990
 1446TIP3    H2 4303   5.940   6.679   1.034
 1447TIP3   OH2 4304   2.241   6.088   5.060
 1447TIP3    H1 4305   2.248   6.121   4.971
 1447TIP3    H2 4306   2.270   5.997   5.055
 1448TIP3   OH2 4307   3.391   4.598   4.436
 1448TIP3    H1 4308   3.439   4.651   4.500
 1448TIP3    H2 4309   3.341   4.662   4.385
 1449TIP3   OH2 4310   3.700   2.614   3.692
 1449TIP3    H1 4311   3.683   2.557   3.766
 1449TIP3    H2 4312   3.725   2.698   3.731
 1450TIP3   OH2 4313   1.216   1.969   4.986
 1450TIP3    H1 4314   1.160   2.036   5.024
 1450TIP3    H2 4315   1.283   1.952   5.052
 1451TIP3   OH2 4316   1.433   0.883   4.789
 1451TIP3    H1 4317   1.508   0.937   4.764
 1451TIP3    H2 4318   1.454   0.854   4.878
 1452TIP3   OH2 4319   4.932   6.203   2.460
 1452TIP3    H1 4320   4.958   6.231   2.372
 1452TIP3    H2 4321   4.872   6.130   2.445
 1453TIP3   OH2 4322   3.833   4.985   2.155
 1453TIP3    H1 4323   3.906   4.951   2.103
 1453TIP3    H2 4324   3.834   4.931   2.234
 1454TIP3   OH2 4325   6.377   5.081   3.840
 1454TIP3    H1 4326   6.359   5.158   3.786
 1454TIP3    H2 4327   6.335   5.008   3.794
 1455TIP3   OH2 4328   6.162   1.739   2.155
 1455TIP3    H1 4329   6.176   1.711   2.245
 1455TIP3    H2 4330   6.110   1.670   2.115
 1456TIP3   OH2 4331   6.506   1.442   5.060
 1456TIP3    H1 4332   6.486   1.496   4.984
 1456TIP3    H2 4333   6.601   1.450   5.071
 1457TIP3   OH2 4334   1.103   3.603   1.796
 1457TIP3    H1 4335   1.134   3.581   1.884
 1457TIP3    H2 4336   1.012   3.572   1.794
 1458TIP3   OH2 4337   2.105   1.891   5.543
 1458TIP3    H1 4338   2.134   1.831   5.611
 1458TIP3    H2 4339   2.186   1.919   5.499
 1459TIP3   OH2 4340   5.219   5.396   3.824
 1459TIP3    H1 4341   5.314   5.408   3.832
 1459TIP3    H2 4342   5.203   5.309   3.861
 1460TIP3   OH2 4343   7.033   2.357   2.569
 1460TIP3    H1 4344   6.961   2.324   2.517
 1460TIP3    H2 4345   7.109   2.304   2.543
 1461TIP3   OH2 4346   5.254   5.367   2.661
 1461TIP3    H1 4347   5.325   5.395   2.603
 1461TIP3    H2 4348   5.178   5.355   2.603
 1462TIP3   OH2 4349   6.707   3.649   1.769
 1462TIP3    H1 4350   6.612   3.641   1.767
 1462TIP3    H2 4351   6.723   3.732   1.815
 1463TIP3   OH2 4352   0.416   1.606   3.735
 1463TIP3    H1 4353   0.364   1.556   3.672
 1463TIP3    H2 4354   0.372   1.591   3.819
 1464TIP3   OH2 4355   6.362   3.585   0.929
 1464TIP3    H1 4356   6.299   3.648   0.962
 1464TIP3    H2 4357   6.326   3.499   0.953
 1465TIP3   OH2 4358   6.370   0.753   1.606
 1465TIP3    H1 4359   6.299   0.813   1.625
 1465TIP3    H2 4360   6.449   0.807   1.609
 1466TIP3   OH2 4361   3.154   2.564   2.742
 1466TIP3    H1 4362   3.231   2.587   2.690
 1466TIP3    H2 4363   3.154   2.469   2.745
 1467TIP3   OH2 4364   1.451   0.412   1.886
 1467TIP3    H1 4365   1.385   0.446   1.826
 1467TIP3    H2 4366   1.417   0.327   1.915
 1468TIP3   OH2 4367   7.140   4.247   1.930
 1468TIP3    H1 4368   7.165   4.171   1.982
 1468TIP3    H2 4369   7.218   4.267   1.878
 1469TIP3   OH2 4370   4.931   5.077   5.251
 1469TIP3    H1 4371   4.976   4.994   5.233
 1469TIP3    H2 4372   4.912   5.113   5.164
 1470TIP3   OH2 4373   3.924   1.616   1.476
 1470TIP3    H1 4374   3.972   1.540   1.444
 1470TIP3    H2 4375   3.884   1.653   1.398
 1471TIP3   OH2 4376   2.155   2.963   2.273
 1471TIP3    H1 4377   2.218   2.926   2.334
 1471TIP3    H2 4378   2.130   2.890   2.216
 1472TIP3   OH2 4379   0.182   5.624   4.323
 1472TIP3    H1 4380   0.149   5.682   4.391
 1472TIP3    H2 4381   0.133   5.648   4.245
 1473TIP3   OH2 4382   1.584   1.040   4.447
 1473TIP3    H1 4383   1.667   0.992   4.454
 1473TIP3    H2 4384   1.561   1.036   4.354
 1474TIP3   OH2 4385   2.909   1.124   1.568
 1474TIP3    H1 4386   2.823   1.085   1.555
 1474TIP3    H2 4387   2.940   1.085   1.650
 1475TIP3   OH2 4388   4.325   3.602   0.675
 1475TIP3    H1 4389   4.245   3.565   0.638
 1475TIP3    H2 4390   4.375   3.633   0.599
 1476TIP3   OH2 4391   0.126   1.323   1.151
 1476TIP3    H1 4392   0.160   1.383   1.218
 1476TIP3    H2 4393   0.032   1.337   1.152
 1477TIP3   OH2 4394   0.851   2.547   0.645
 1477TIP3    H1 4395   0.919   2.524   0.709
 1477TIP3    H2 4396   0.865   2.485   0.573
 1478TIP3   OH2 4397   0.671   0.741   2.731
 1478TIP3    H1 4398   0.605   0.677   2.704
 1478TIP3    H2 4399   0.724   0.695   2.796
 1479TIP3   OH2 4400   5.704   0.439   2.532
 1479TIP3    H1 4401   5.662   0.354   2.522
 1479TIP3    H2 4402   5.694   0.461   2.624
 1480TIP3   OH2 4403   5.083   0.839   0.503
 1480TIP3    H1 4404   5.163   0.836   0.555
 1480TIP3    H2 4405   5.080   0.928   0.469
 1481TIP3   OH2 4406   6.115   3.370   0.714
 1481TIP3    H1 4407   6.095   3.278   0.734
 1481TIP3    H2 4408   6.060   3.420   0.773
 1482TIP3   OH2 4409   0.364   6.509   2.469
 1482TIP3    H1 4410   0.322   6.422   2.474
 1482TIP3    H2 4411   0.419   6.513   2.547
 1483TIP3   OH2 4412   4.470   0.894   3.790
 1483TIP3    H1 4413   4.391   0.946   3.776
 1483TIP3    H2 4414   4.469   0.874   3.884
 1484TIP3   OH2 4415   6.286   0.159   2.650
 1484TIP3    H1 4416   6.192   0.157   2.630
 1484TIP3    H2 4417   6.306   0.251   2.664
 1485TIP3   OH2 4418   1.853   0.994   2.552
 1485TIP3    H1 4419   1.777   1.015   2.498
 1485TIP3    H2 4420   1.852   1.060   2.622
 1486TIP3   OH2 4421   4.320   5.010   4.194
 1486TIP3    H1 4422   4.318   5.092   4.244
 1486TIP3    H2 4423   4.239   4.965   4.218
 1487TIP3   OH2 4424   3.796   2.321   3.512
 1487TIP3    H1 4425   3.866   2.260   3.490
 1487TIP3    H2 4426   3.797   2.326   3.607
 1488TIP3   OH2 4427   6.882   0.913   2.059
 1488TIP3    H1 4428   6.900   0.849   2.128
 1488TIP3    H2 4429   6.791   0.897   2.035
 1489TIP3   OH2 4430   4.652   4.307   1.359
 1489TIP3    H1 4431   4.666   4.215   1.381
 1489TIP3    H2 4432   4.733   4.351   1.384
 1490TIP3   OH2 4433   6.595   2.641   3.914
 1490TIP3    H1 4434   6.652   2.567   3.931
 1490TIP3    H2 4435   6.634   2.714   3.961
 1491TIP3   OH2 4436   6.034   2.635   2.292
 1491TIP3    H1 4437   6.065   2.578   2.221
 1491TIP3    H2 4438   6.102   2.702   2.300
 1492TIP3   OH2 4439   1.805   2.999   5.308
 1492TIP3    H1 4440   1.809   3.033   5.398
 1492TIP3    H2 4441   1.761   3.068   5.259
 1493TIP3   OH2 4442   2.275   2.170   5.019
 1493TIP3    H1 4443   2.322   2.251   5.036
 1493TIP3    H2 4444   2.182   2.193   5.031
 1494TIP3   OH2 4445   6.797   6.252   1.024
 1494TIP3    H1 4446   6.727   6.317   1.011
 1494TIP3    H2 4447   6.804   6.243   1.119
 1495TIP3   OH2 4448   5.249   3.321   1.577
 1495TIP3    H1 4449   5.331   3.336   1.529
 1495TIP3    H2 4450   5.277   3.305   1.667
 1496TIP3   OH2 4451   5.285   6.556   5.091
 1496TIP3    H1 4452   5.199   6.575   5.055
 1496TIP3    H2 4453   5.313   6.638   5.132
 1497TIP3   OH2 4454   5.785   5.800   4.357
 1497TIP3    H1 4455   5.758   5.727   4.301
 1497TIP3    H2 4456   5.704   5.849   4.372
 1498TIP3   OH2 4457   0.742   2.512   4.817
 1498TIP3    H1 4458   0.684   2.436   4.816
 1498TIP3    H2 4459   0.828   2.476   4.795
 1499TIP3   OH2 4460   5.806   6.529   2.728
 1499TIP3    H1 4461   5.889   6.500   2.690
 1499TIP3    H2 4462   5.790   6.467   2.799
 1500TIP3   OH2 4463   6.984   3.345   3.423
 1500TIP3    H1 4464   6.974   3.421   3.480
 1500TIP3    H2 4465   7.042   3.375   3.353
 1501TIP3   OH2 4466   4.587   1.658   3.093
 1501TIP3    H1 4467   4.605   1.677   3.185
 1501TIP3    H2 4468   4.499   1.694   3.079
 1502TIP3   OH2 4469   3.882   2.162   2.023
 1502TIP3    H1 4470   3.821   2.224   2.062
 1502TIP3    H2 4471   3.938   2.215   1.966
 1503TIP3   OH2 4472   2.970   2.604   0.260
 1503TIP3    H1 4473   3.050   2.645   0.295
 1503TIP3    H2 4474   2.908   2.677   0.253
 1504TIP3   OH2 4475   1.117   5.820   3.562
 1504TIP3    H1 4476   1.111   5.908   3.526
 1504TIP3    H2 4477   1.211   5.804   3.573
 1505TIP3   OH2 4478   3.353   6.173   3.576
 1505TIP3    H1 4479   3.409   6.231   3.628
 1505TIP3    H2 4480   3.280   6.152   3.633
 1506TIP3   OH2 4481   3.131   5.584   1.221
 1506TIP3    H1 4482   3.040   5.577   1.190
 1506TIP3    H2 4483   3.125   5.640   1.298
 1507TIP3   OH2 4484   6.645   2.819   0.884
 1507TIP3    H1 4485   6.624   2.773   0.965
 1507TIP3    H2 4486   6.563   2.859   0.856
 1508TIP3   OH2 4487   2.760   5.061   1.244
 1508TIP3    H1 4488   2.845   5.018   1.237
 1508TIP3    H2 4489   2.714   5.012   1.312
 1509TIP3   OH2 4490   4.466   1.084   2.984
 1509TIP3    H1 4491   4.557   1.057   2.979
 1509TIP3    H2 4492   4.427   1.025   3.048
 1510TIP3   OH2 4493   2.407   1.180   0.939
 1510TIP3    H1 4494   2.456   1.154   0.861
 1510TIP3    H2 4495   2.474   1.194   1.006
 1511TIP3   OH2 4496   0.311   4.186   2.462
 1511TIP3    H1 4497   0.317   4.137   2.544
 1511TIP3    H2 4498   0.401   4.204   2.438
 1512TIP3   OH2 4499   5.113   5.654   5.357
 1512TIP3    H1 4500   5.185   5.595   5.382
 1512TIP3    H2 4501   5.152   5.712   5.292
 1513TIP3   OH2 4502   3.285   0.192   4.206
 1513TIP3    H1 4503   3.276   0.260   4.139
 1513TIP3    H2 4504   3.272   0.110   4.158
 1514TIP3   OH2 4505   6.302   5.902   3.965
 1514TIP3    H1 4506   6.285   5.950   3.883
 1514TIP3    H2 4507   6.325   5.814   3.936
 1515TIP3   OH2 4508   0.216   4.620   0.160
 1515TIP3    H1 4509   0.287   4.561   0.187
 1515TIP3    H2 4510   0.230   4.631   0.066
 1516TIP3   OH2 4511   6.015   2.944   2.407
 1516TIP3    H1 4512   5.951   2.921   2.474
 1516TIP3    H2 4513   6.064   3.017   2.444
 1517TIP3   OH2 4514   5.238   4.184   5.633
 1517TIP3    H1 4515   5.246   4.160   5.541
 1517TIP3    H2 4516   5.294   4.121   5.678
 1518TIP3   OH2 4517   2.528   6.617   2.318
 1518TIP3    H1 4518   2.462   6.555   2.351
 1518TIP3    H2 4519   2.542   6.590   2.227
 1519TIP3   OH2 4520   2.030   5.908   4.542
 1519TIP3    H1 4521   1.976   5.880   4.616
 1519TIP3    H2 4522   2.025   5.835   4.480
 1520TIP3   OH2 4523   1.394   6.110   4.041
 1520TIP3    H1 4524   1.382   6.027   3.995
 1520TIP3    H2 4525   1.307   6.150   4.041
 1521TIP3   OH2 4526   2.226   0.798   3.479
 1521TIP3    H1 4527   2.296   0.861   3.496
 1521TIP3    H2 4528   2.263   0.738   3.414
 1522TIP3   OH2 4529   6.308   3.570   3.387
 1522TIP3    H1 4530   6.263   3.496   3.429
 1522TIP3    H2 4531   6.399   3.543   3.383
 1523TIP3   OH2 4532   2.447   2.682   3.938
 1523TIP3    H1 4533   2.397   2.605   3.911
 1523TIP3    H2 4534   2.538   2.659   3.919
 1524TIP3   OH2 4535   1.994   2.119   4.386
 1524TIP3    H1 4536   1.995   2.215   4.385
 1524TIP3    H2 4537   2.015   2.095   4.295
 1525TIP3   OH2 4538   5.327   0.859   0.582
 1525TIP3    H1 4539   5.384   0.838   0.508
 1525TIP3    H2 4540   5.364   0.810   0.656
 1526TIP3   OH2 4541   3.680   6.573   5.315
 1526TIP3    H1 4542   3.661   6.479   5.311
 1526TIP3    H2 4543   3.703   6.588   5.407
 1527TIP3   OH2 4544   3.322   0.259   4.688
 1527TIP3    H1 4545   3.243   0.305   4.716
 1527TIP3    H2 4546   3.340   0.197   4.758
 1528TIP3   OH2 4547   6.664   0.422   4.313
 1528TIP3    H1 4548   6.695   0.493   4.257
 1528TIP3    H2 4549   6.648   0.349   4.252
 1529TIP3   OH2 4550   5.538   0.648   5.936
 1529TIP3    H1 4551   5.587   0.719   5.976
 1529TIP3    H2 4552   5.598   0.608   5.874
 1530TIP3   OH2 4553   3.195   4.490   3.678
 1530TIP3    H1 4554   3.204   4.567   3.734
 1530TIP3    H2 4555   3.260   4.503   3.608
 1531TIP3   OH2 4556   0.604   3.452   2.681
 1531TIP3    H1 4557   0.630   3.419   2.595
 1531TIP3    H2 4558   0.538   3.519   2.662
 1532TIP3   OH2 4559   1.211   6.360   3.058
 1532TIP3    H1 4560   1.292   6.312   3.037
 1532TIP3    H2 4561   1.218   6.377   3.152
 1533TIP3   OH2 4562   1.975   3.001   2.584
 1533TIP3    H1 4563   2.019   2.918   2.604
 1533TIP3    H2 4564   1.922   2.983   2.507
 1534TIP3   OH2 4565   6.964   4.312   5.124
 1534TIP3    H1 4566   6.873   4.333   5.144
 1534TIP3    H2 4567   7.015   4.365   5.186
 1535TIP3   OH2 4568   0.887   1.910   0.296
 1535TIP3    H1 4569   0.856   1.953   0.216
 1535TIP3    H2 4570   0.912   1.982   0.354
 1536TIP3   OH2 4571   7.073   0.933   2.389
 1536TIP3    H1 4572   7.075   1.007   2.449
 1536TIP3    H2 4573   7.162   0.928   2.355
 1537TIP3   OH2 4574   6.133   2.259   3.184
 1537TIP3    H1 4575   6.163   2.171   3.162
 1537TIP3    H2 4576   6.140   2.308   3.102
 1538TIP3   OH2 4577   1.754   5.662   3.363
 1538TIP3    H1 4578   1.715   5.628   3.444
 1538TIP3    H2 4579   1.803   5.587   3.328
 1539TIP3   OH2 4580   0.353   1.127   5.910
 1539TIP3    H1 4581   0.420   1.077   5.863
 1539TIP3    H2 4582   0.400   1.204   5.943
 1540TIP3   OH2 4583   0.964   3.133   3.719
 1540TIP3    H1 4584   0.925   3.179   3.645
 1540TIP3    H2 4585   1.055   3.120   3.694
 1541TIP3   OH2 4586   3.271   4.604   2.686
 1541TIP3    H1 4587   3.297   4.621   2.596
 1541TIP3    H2 4588   3.177   4.588   2.681
 1542TIP3   OH2 4589   6.605   1.001   0.847
 1542TIP3    H1 4590   6.618   1.058   0.922
 1542TIP3    H2 4591   6.661   1.038   0.779
 1543TIP3   OH2 4592   5.168   2.650   5.120
 1543TIP3    H1 4593   5.193   2.738   5.091
 1543TIP3    H2 4594   5.238   2.593   5.086
 1544TIP3   OH2 4595   1.004   0.608   1.469
 1544TIP3    H1 4596   1.069   0.560   1.417
 1544TIP3    H2 4597   0.978   0.681   1.412
 1545TIP3   OH2 4598   1.240   5.225   3.850
 1545TIP3    H1 4599   1.266   5.176   3.771
 1545TIP3    H2 4600   1.243   5.160   3.920
 1546TIP3   OH2 4601   3.915   2.230   4.101
 1546TIP3    H1 4602   3.962   2.192   4.027
 1546TIP3    H2 4603   3.973   2.216   4.176
 1547TIP3   OH2 4604   5.263   3.358   5.335
 1547TIP3    H1 4605   5.211   3.342   5.256
 1547TIP3    H2 4606   5.351   3.330   5.311
 1548TIP3   OH2 4607   2.780   6.047   1.277
 1548TIP3    H1 4608   2.792   5.956   1.303
 1548TIP3    H2 4609   2.865   6.088   1.290
 1549TIP3   OH2 4610   5.754   0.650   5.361
 1549TIP3    H1 4611   5.827   0.664   5.422
 1549TIP3    H2 4612   5.746   0.732   5.313
 1550TIP3   OH2 4613   6.753   1.569   2.295
 1550TIP3    H1 4614   6.740   1.655   2.335
 1550TIP3    H2 4615   6.784   1.589   2.206
 1551TIP3   OH2 4616   6.425   0.163   1.546
 1551TIP3    H1 4617   6.379   0.237   1.506
 1551TIP3    H2 4618   6.370   0.087   1.526
 1552TIP3   OH2 4619   5.039   5.588   3.909
 1552TIP3    H1 4620   5.103   5.517   3.914
 1552TIP3    H2 4621   5.090   5.665   3.884
 1553TIP3   OH2 4622   1.762   6.058   1.982
 1553TIP3    H1 4623   1.761   6.147   1.946
 1553TIP3    H2 4624   1.757   6.001   1.905
 1554TIP3   OH2 4625   1.551   5.160   3.336
 1554TIP3    H1 4626   1.611   5.091   3.307
 1554TIP3    H2 4627   1.600   5.205   3.406
 1555TIP3   OH2 4628   6.953   4.345   1.188
 1555TIP3    H1 4629   7.034   4.296   1.171
 1555TIP3    H2 4630   6.884   4.288   1.153
 1556TIP3   OH2 4631   5.835   6.459   1.341
 1556TIP3    H1 4632   5.808   6.462   1.433
 1556TIP3    H2 4633   5.760   6.493   1.293
 1557TIP3   OH2 4634   4.316   0.454   0.650
 1557TIP3    H1 4635   4.272   0.524   0.697
 1557TIP3    H2 4636   4.374   0.500   0.589
 1558TIP3   OH2 4637   0.229   6.304   5.045
 1558TIP3    H1 4638   0.229   6.208   5.055
 1558TIP3    H2 4639   0.251   6.337   5.132
 1559TIP3   OH2 4640   5.804   2.090   3.021
 1559TIP3    H1 4641   5.838   2.134   2.943
 1559TIP3    H2 4642   5.727   2.143   3.045
 1560TIP3   OH2 4643   6.397   3.577   1.862
 1560TIP3    H1 4644   6.437   3.558   1.947
 1560TIP3    H2 4645   6.349   3.498   1.840
 1561TIP3   OH2 4646   4.704   2.475   4.958
 1561TIP3    H1 4647   4.795   2.459   4.985
 1561TIP3    H2 4648   4.708   2.478   4.862
 1562TIP3   OH2 4649   1.644   3.825   3.425
 1562TIP3    H1 4650   1.625   3.805   3.333
 1562TIP3    H2 4651   1.712   3.892   3.422
 1563TIP3   OH2 4652   0.037   4.835   2.375
 1563TIP3    H1 4653   0.126   4.812   2.348
 1563TIP3    H2 4654   0.023   4.923   2.338
 1564TIP3   OH2 4655   3.301   6.277   5.261
 1564TIP3    H1 4656   3.296   6.183   5.274
 1564TIP3    H2 4657   3.292   6.289   5.167
 1565TIP3   OH2 4658   2.207   3.399   4.898
 1565TIP3    H1 4659   2.182   3.371   4.810
 1565TIP3    H2 4660   2.147   3.470   4.919
 1566TIP3   OH2 4661   2.884   1.047   0.069
 1566TIP3    H1 4662   2.944   1.033  -0.005
 1566TIP3    H2 4663   2.813   0.985   0.054
 1567TIP3   OH2 4664   1.955   2.786   0.383
 1567TIP3    H1 4665   2.001   2.870   0.374
 1567TIP3    H2 4666   2.000   2.728   0.321
 1568TIP3   OH2 4667   2.569   4.930   3.961
 1568TIP3    H1 4668   2.572   4.844   3.919
 1568TIP3    H2 4669   2.500   4.977   3.914
 1569TIP3   OH2 4670   1.272   2.305   2.943
 1569TIP3    H1 4671   1.359   2.269   2.924
 1569TIP3    H2 4672   1.211   2.244   2.902
 1570TIP3   OH2 4673   3.008   1.934   1.609
 1570TIP3    H1 4674   3.046   2.019   1.631
 1570TIP3    H2 4675   3.076   1.870   1.630
 1571TIP3   OH2 4676   7.156   6.175   1.993
 1571TIP3    H1 4677   7.094   6.161   1.921
 1571TIP3    H2 4678   7.105   6.159   2.072
 1572TIP3   OH2 4679   1.272   2.328   5.399
 1572TIP3    H1 4680   1.180   2.301   5.395
 1572TIP3    H2 4681   1.319   2.256   5.358
 1573TIP3   OH2 4682   6.762   4.534   0.345
 1573TIP3    H1 4683   6.735   4.491   0.426
 1573TIP3    H2 4684   6.857   4.520   0.341
 1574TIP3   OH2 4685   5.956   3.216   3.674
 1574TIP3    H1 4686   5.860   3.222   3.677
 1574TIP3    H2 4687   5.979   3.165   3.751
 1575TIP3   OH2 4688   3.474   4.683   5.078
 1575TIP3    H1 4689   3.569   4.688   5.066
 1575TIP3    H2 4690   3.454   4.590   5.066
 1576TIP3   OH2 4691   1.707   5.581   3.615
 1576TIP3    H1 4692   1.800   5.568   3.635
 1576TIP3    H2 4693   1.664   5.502   3.650
 1577TIP3   OH2 4694   5.119   4.239   2.908
 1577TIP3    H1 4695   5.155   4.309   2.853
 1577TIP3    H2 4696   5.111   4.278   2.995
 1578TIP3   OH2 4697   1.158   0.082   0.759
 1578TIP3    H1 4698   1.114   0.098   0.843
 1578TIP3    H2 4699   1.196   0.167   0.736
 1579TIP3   OH2 4700   4.919   2.417   5.505
 1579TIP3    H1 4701   4.966   2.486   5.456
 1579TIP3    H2 4702   4.986   2.351   5.522
 1580TIP3   OH2 4703   0.981   4.841   2.607
 1580TIP3    H1 4704   0.995   4.749   2.584
 1580TIP3    H2 4705   1.054   4.862   2.666
 1581TIP3   OH2 4706   6.807   1.873   4.574
 1581TIP3    H1 4707   6.767   1.826   4.647
 1581TIP3    H2 4708   6.765   1.837   4.496
 1582TIP3   OH2 4709   1.011   1.671   0.435
 1582TIP3    H1 4710   0.957   1.681   0.514
 1582TIP3    H2 4711   0.975   1.734   0.373
 1583TIP3   OH2 4712   1.365   5.070   2.661
 1583TIP3    H1 4713   1.436   5.037   2.715
 1583TIP3    H2 4714   1.368   5.016   2.582
 1584TIP3   OH2 4715   5.178   5.151   3.609
 1584TIP3    H1 4716   5.273   5.141   3.613
 1584TIP3    H2 4717   5.162   5.241   3.638
 1585TIP3   OH2 4718   1.500   4.815   3.197
 1585TIP3    H1 4719   1.593   4.833   3.204
 1585TIP3    H2 4720   1.464   4.891   3.152
 1586TIP3   OH2 4721   4.734   6.208   1.765
 1586TIP3    H1 4722   4.691   6.123   1.771
 1586TIP3    H2 4723   4.827   6.189   1.776
 1587TIP3   OH2 4724   0.731   2.230   3.536
 1587TIP3    H1 4725   0.659   2.222   3.598
 1587TIP3    H2 4726   0.749   2.140   3.509
 1588TIP3   OH2 4727   6.020   5.918   4.938
 1588TIP3    H1 4728   6.006   5.986   5.004
 1588TIP3    H2 4729   5.967   5.844   4.969
 1589TIP3   OH2 4730   4.033   3.804   5.245
 1589TIP3    H1 4731   3.978   3.760   5.309
 1589TIP3    H2 4732   4.088   3.862   5.297
 1590TIP3   OH2 4733   6.724  -0.007   3.497
 1590TIP3    H1 4734   6.810  -0.027   3.460
 1590TIP3    H2 4735   6.687   0.059   3.439
 1591TIP3   OH2 4736   5.985   0.357   1.906
 1591TIP3    H1 4737   6.077   0.357   1.931
 1591TIP3    H2 4738   5.981   0.411   1.827
 1592TIP3   OH2 4739   6.802   2.773   1.891
 1592TIP3    H1 4740   6.877   2.806   1.842
 1592TIP3    H2 4741   6.799   2.827   1.969
 1593TIP3   OH2 4742   4.642   3.201   4.169
 1593TIP3    H1 4743   4.553   3.168   4.165
 1593TIP3    H2 4744   4.693   3.130   4.209
 1594TIP3   OH2 4745   6.333   2.291   4.268
 1594TIP3    H1 4746   6.270   2.235   4.222
 1594TIP3    H2 4747   6.281   2.365   4.299
 1595TIP3   OH2 4748   0.868   6.712   2.293
 1595TIP3    H1 4749   0.796   6.752   2.244
 1595TIP3    H2 4750   0.826   6.654   2.356
 1596TIP3   OH2 4751   1.459   3.826   3.620
 1596TIP3    H1 4752   1.523   3.834   3.550
 1596TIP3    H2 4753   1.383   3.876   3.589
 1597TIP3   OH2 4754   6.314   6.226   0.076
 1597TIP3    H1 4755   6.220   6.239   0.084
 1597TIP3    H2 4756   6.352   6.274   0.150
 1598TIP3   OH2 4757   2.982   6.743   0.171
 1598TIP3    H1 4758   2.972   6.830   0.133
 1598TIP3    H2 4759   2.896   6.702   0.157
 1599TIP3   OH2 4760   1.274   5.404   2.918
 1599TIP3    H1 4761   1.224   5.332   2.956
 1599TIP3    H2 4762   1.360   5.398   2.962
 1600TIP3   OH2 4763   6.482   4.159   1.787
 1600TIP3    H1 4764   6.479   4.069   1.755
 1600TIP3    H2 4765   6.394   4.176   1.822
 1601TIP3   OH2 4766   3.353   1.433   5.498
 1601TIP3    H1 4767   3.343   1.341   5.523
 1601TIP3    H2 4768   3.385   1.476   5.577
 1602TIP3   OH2 4769   6.194   0.453   0.788
 1602TIP3    H1 4770   6.272   0.474   0.839
 1602TIP3    H2 4771   6.226   0.395   0.719
 1603TIP3   OH2 4772  -0.053   1.705   5.702
 1603TIP3    H1 4773   0.011   1.706   5.773
 1603TIP3    H2 4774  -0.112   1.633   5.724
 1604TIP3   OH2 4775   5.037   3.558   4.684
 1604TIP3    H1 4776   5.004   3.563   4.773
 1604TIP3    H2 4777   5.129   3.583   4.690
 1605TIP3   OH2 4778   0.745   5.053   4.515
 1605TIP3    H1 4779   0.731   4.961   4.539
 1605TIP3    H2 4780   0.669   5.076   4.462
 1606TIP3   OH2 4781   3.839   4.761   4.227
 1606TIP3    H1 4782   3.824   4.821   4.154
 1606TIP3    H2 4783   3.756   4.760   4.274
 1607TIP3   OH2 4784   2.498   4.998   5.712
 1607TIP3    H1 4785   2.557   4.925   5.698
 1607TIP3    H2 4786   2.555   5.075   5.717
 1608TIP3   OH2 4787   4.910   3.134   4.847
 1608TIP3    H1 4788   4.934   3.171   4.762
 1608TIP3    H2 4789   4.820   3.103   4.835
 1609TIP3   OH2 4790   5.788   2.200   1.871
 1609TIP3    H1 4791   5.740   2.130   1.915
 1609TIP3    H2 4792   5.853   2.228   1.935
 1610TIP3   OH2 4793   0.285   6.412   5.286
 1610TIP3    H1 4794   0.284   6.385   5.378
 1610TIP3    H2 4795   0.378   6.425   5.266
 1611TIP3   OH2 4796   3.710   1.663   1.659
 1611TIP3    H1 4797   3.730   1.587   1.714
 1611TIP3    H2 4798   3.759   1.648   1.578
 1612TIP3   OH2 4799   3.111   5.748   0.514
 1612TIP3    H1 4800   3.017   5.756   0.530
 1612TIP3    H2 4801   3.119   5.740   0.419
 1613TIP3   OH2 4802   0.650   1.668   2.986
 1613TIP3    H1 4803   0.701   1.727   3.042
 1613TIP3    H2 4804   0.632   1.592   3.042
 1614TIP3   OH2 4805   3.923   5.568   4.708
 1614TIP3    H1 4806   3.869   5.598   4.781
 1614TIP3    H2 4807   3.877   5.599   4.630
 1615TIP3   OH2 4808   0.159   6.692   2.508
 1615TIP3    H1 4809   0.138   6.655   2.594
 1615TIP3    H2 4810   0.238   6.645   2.481
 1616TIP3   OH2 4811   3.859   6.513   1.762
 1616TIP3    H1 4812   3.885   6.468   1.843
 1616TIP3    H2 4813   3.811   6.590   1.792
 1617TIP3   OH2 4814   2.211   1.505   3.717
 1617TIP3    H1 4815   2.270   1.509   3.642
 1617TIP3    H2 4816   2.173   1.417   3.713
 1618TIP3   OH2 4817   3.000   2.701   5.027
 1618TIP3    H1 4818   3.003   2.675   5.119
 1618TIP3    H2 4819   2.933   2.644   4.989
 1619TIP3   OH2 4820   1.887   4.006   3.395
 1619TIP3    H1 4821   1.847   4.073   3.339
 1619TIP3    H2 4822   1.978   4.002   3.367
 1620TIP3   OH2 4823   1.575   4.275   0.785
 1620TIP3    H1 4824   1.554   4.339   0.716
 1620TIP3    H2 4825   1.497   4.273   0.841
 1621TIP3   OH2 4826   6.330   3.334   2.016
 1621TIP3    H1 4827   6.326   3.299   1.927
 1621TIP3    H2 4828   6.275   3.413   2.014
 1622TIP3   OH2 4829   5.798   4.094   1.794
 1622TIP3    H1 4830   5.863   4.103   1.724
 1622TIP3    H2 4831   5.830   4.021   1.847
 1623TIP3   OH2 4832   5.247   2.798   4.457
 1623TIP3    H1 4833   5.205   2.771   4.538
 1623TIP3    H2 4834   5.199   2.751   4.388
 1624TIP3   OH2 4835   5.672   6.478   4.142
 1624TIP3    H1 4836   5.658   6.408   4.206
 1624TIP3    H2 4837   5.585   6.514   4.125
 1625TIP3   OH2 4838   7.212   4.493   3.592
 1625TIP3    H1 4839   7.262   4.486   3.673
 1625TIP3    H2 4840   7.133   4.441   3.609
 1626TIP3   OH2 4841   6.598   4.553   3.510
 1626TIP3    H1 4842   6.587   4.597   3.595
 1626TIP3    H2 4843   6.689   4.523   3.511
 1627TIP3   OH2 4844   2.470   1.052   1.754
 1627TIP3    H1 4845   2.543   1.044   1.692
 1627TIP3    H2 4846   2.399   1.089   1.703
 1628TIP3   OH2 4847   5.397   0.262   1.518
 1628TIP3    H1 4848   5.402   0.356   1.534
 1628TIP3    H2 4849   5.452   0.247   1.441
 1629TIP3   OH2 4850   6.440   5.953   1.914
 1629TIP3    H1 4851   6.379   5.881   1.931
 1629TIP3    H2 4852   6.385   6.031   1.916
 1630TIP3   OH2 4853   1.339   6.744   0.525
 1630TIP3    H1 4854   1.362   6.730   0.617
 1630TIP3    H2 4855   1.423   6.752   0.480
 1631TIP3   OH2 4856   6.188   5.069   1.793
 1631TIP3    H1 4857   6.191   5.165   1.802
 1631TIP3    H2 4858   6.257   5.038   1.851
 1632TIP3   OH2 4859   0.527   4.780   0.770
 1632TIP3    H1 4860   0.619   4.772   0.797
 1632TIP3    H2 4861   0.527   4.850   0.705
 1633TIP3   OH2 4862   3.971   6.116   2.326
 1633TIP3    H1 4863   4.012   6.198   2.299
 1633TIP3    H2 4864   3.925   6.137   2.407
 1634TIP3   OH2 4865   1.061   2.909   5.358
 1634TIP3    H1 4866   1.066   3.004   5.359
 1634TIP3    H2 4867   1.033   2.886   5.447
 1635TIP3   OH2 4868   5.916   5.812   4.051
 1635TIP3    H1 4869   5.986   5.826   4.115
 1635TIP3    H2 4870   5.863   5.892   4.055
 1636TIP3   OH2 4871   5.360   6.755   3.200
 1636TIP3    H1 4872   5.360   6.821   3.130
 1636TIP3    H2 4873   5.419   6.687   3.169
 1637TIP3   OH2 4874   3.107   4.178   1.863
 1637TIP3    H1 4875   3.202   4.170   1.867
 1637TIP3    H2 4876   3.091   4.265   1.826
 1638TIP3   OH2 4877   3.578   3.367   5.081
 1638TIP3    H1 4878   3.596   3.342   5.172
 1638TIP3    H2 4879   3.575   3.462   5.082
 1639TIP3   OH2 4880   1.917   2.247   3.996
 1639TIP3    H1 4881   1.845   2.209   4.047
 1639TIP3    H2 4882   1.889   2.238   3.905
 1640TIP3   OH2 4883   0.779   6.407   3.650
 1640TIP3    H1 4884   0.865   6.435   3.618
 1640TIP3    H2 4885   0.775   6.313   3.629
 1641TIP3   OH2 4886   6.155   1.180   4.132
 1641TIP3    H1 4887   6.222   1.124   4.172
 1641TIP3    H2 4888   6.196   1.212   4.052
 1642TIP3   OH2 4889   0.907   1.506   4.787
 1642TIP3    H1 4890   0.873   1.420   4.764
 1642TIP3    H2 4891   0.851   1.534   4.860
 1643TIP3   OH2 4892   1.377   1.938   0.546
 1643TIP3    H1 4893   1.376   2.032   0.529
 1643TIP3    H2 4894   1.436   1.929   0.621
 1644TIP3   OH2 4895   5.334   6.357   3.356
 1644TIP3    H1 4896   5.284   6.358   3.438
 1644TIP3    H2 4897   5.417   6.315   3.379
 1645TIP3   OH2 4898   0.650   4.624   1.524
 1645TIP3    H1 4899   0.568   4.584   1.493
 1645TIP3    H2 4900   0.690   4.661   1.446
 1646TIP3   OH2 4901   3.969   4.460   5.112
 1646TIP3    H1 4902   3.910   4.412   5.171
 1646TIP3    H2 4903   3.917   4.472   5.032
 1647TIP3   OH2 4904   1.701   6.792   1.166
 1647TIP3    H1 4905   1.684   6.712   1.117
 1647TIP3    H2 4906   1.640   6.787   1.240
 1648TIP3   OH2 4907   4.814   2.666   1.744
 1648TIP3    H1 4908   4.904   2.638   1.728
 1648TIP3    H2 4909   4.774   2.591   1.790
 1649TIP3   OH2 4910   6.919   1.552   0.814
 1649TIP3    H1 4911   6.857   1.486   0.786
 1649TIP3    H2 4912   7.003   1.506   0.820
 1650TIP3   OH2 4913   5.083   0.020   0.287
 1650TIP3    H1 4914   5.056   0.085   0.352
 1650TIP3    H2 4915   5.076  -0.064   0.332
 1651TIP3   OH2 4916   5.563   3.568   5.343
 1651TIP3    H1 4917   5.523   3.509   5.279
 1651TIP3    H2 4918   5.549   3.656   5.307
 1652TIP3   OH2 4919   4.680   0.821   5.400
 1652TIP3    H1 4920   4.642   0.737   5.376
 1652TIP3    H2 4921   4.703   0.862   5.317
 1653TIP3   OH2 4922   5.296   4.306   0.905
 1653TIP3    H1 4923   5.252   4.389   0.924
 1653TIP3    H2 4924   5.227   4.249   0.871
 1654TIP3   OH2 4925   5.555   3.534   0.713
 1654TIP3    H1 4926   5.611   3.459   0.697
 1654TIP3    H2 4927   5.577   3.562   0.802
 1655TIP3   OH2 4928   0.077   1.677   5.447
 1655TIP3    H1 4929   0.054   1.584   5.444
 1655TIP3    H2 4930   0.031   1.710   5.524
 1656TIP3   OH2 4931   0.552   6.278   2.390
 1656TIP3    H1 4932   0.483   6.258   2.453
 1656TIP3    H2 4933   0.631   6.287   2.443
 1657TIP3   OH2 4934   1.356   0.784   3.629
 1657TIP3    H1 4935   1.265   0.796   3.655
 1657TIP3    H2 4936   1.364   0.689   3.616
 1658TIP3   OH2 4937   4.246   1.243   4.296
 1658TIP3    H1 4938   4.234   1.267   4.388
 1658TIP3    H2 4939   4.183   1.172   4.282
 1659TIP3   OH2 4940   4.695   2.551   0.297
 1659TIP3    H1 4941   4.725   2.604   0.223
 1659TIP3    H2 4942   4.763   2.486   0.311
 1660TIP3   OH2 4943   3.003   1.543   1.483
 1660TIP3    H1 4944   2.911   1.537   1.511
 1660TIP3    H2 4945   2.998   1.560   1.389
 1661TIP3   OH2 4946   1.901   2.186   3.376
 1661TIP3    H1 4947   1.814   2.198   3.338
 1661TIP3    H2 4948   1.893   2.108   3.431
 1662TIP3   OH2 4949   1.078   2.493  -0.008
 1662TIP3    H1 4950   1.018   2.487   0.067
 1662TIP3    H2 4951   1.102   2.402  -0.025
 1663TIP3   OH2 4952   7.009   6.195   3.365
 1663TIP3    H1 4953   6.937   6.221   3.423
 1663TIP3    H2 4954   7.066   6.272   3.362
 1664TIP3   OH2 4955   3.933   4.191   2.426
 1664TIP3    H1 4956   3.984   4.244   2.488
 1664TIP3    H2 4957   3.990   4.117   2.406
 1665TIP3   OH2 4958   4.463   5.720   3.759
 1665TIP3    H1 4959   4.487   5.777   3.686
 1665TIP3    H2 4960   4.515   5.641   3.746
 1666TIP3   OH2 4961   7.078   1.784   0.773
 1666TIP3    H1 4962   7.095   1.756   0.683
 1666TIP3    H2 4963   7.017   1.719   0.807
 1667TIP3   OH2 4964   4.151   2.457   5.751
 1667TIP3    H1 4965   4.163   2.447   5.656
 1667TIP3    H2 4966   4.082   2.523   5.759
 1668TIP3   OH2 4967   3.312   0.272   1.283
 1668TIP3    H1 4968   3.327   0.252   1.375
 1668TIP3    H2 4969   3.299   0.367   1.281
 1669TIP3   OH2 4970   2.130   3.141   3.039
 1669TIP3    H1 4971   2.104   3.168   3.127
 1669TIP3    H2 4972   2.168   3.220   3.001
 1670TIP3   OH2 4973   2.739   2.195   3.979
 1670TIP3    H1 4974   2.777   2.180   3.893
 1670TIP3    H2 4975   2.742   2.289   3.991
 1671TIP3   OH2 4976   0.888   6.463   0.199
 1671TIP3    H1 4977   0.870   6.371   0.220
 1671TIP3    H2 4978   0.915   6.501   0.282
 1672TIP3   OH2 4979   6.846   6.516   0.033
 1672TIP3    H1 4980   6.845   6.608   0.060
 1672TIP3    H2 4981   6.763   6.481   0.065
 1673TIP3   OH2 4982   1.554   5.723   2.734
 1673TIP3    H1 4983   1.466   5.715   2.771
 1673TIP3    H2 4984   1.539   5.749   2.643
 1674TIP3   OH2 4985   7.262   2.505   2.858
 1674TIP3    H1 4986   7.232   2.551   2.780
 1674TIP3    H2 4987   7.267   2.572   2.926
 1675TIP3   OH2 4988   2.421   3.627  -0.023
 1675TIP3    H1 4989   2.407   3.708   0.025
 1675TIP3    H2 4990   2.365   3.635  -0.101
 1676TIP3   OH2 4991   3.153   5.798   0.956
 1676TIP3    H1 4992   3.219   5.801   0.887
 1676TIP3    H2 4993   3.201   5.771   1.035
 1677TIP3   OH2 4994   3.708   1.599   3.175
 1677TIP3    H1 4995   3.717   1.557   3.089
 1677TIP3    H2 4996   3.763   1.545   3.233
 1678TIP3   OH2 4997   2.970   2.163   3.464
 1678TIP3    H1 4998   2.938   2.162   3.373
 1678TIP3    H2 4999   3.043   2.101   3.464
 1679TIP3   OH2 5000   3.165   0.879   2.215
 1679TIP3    H1 5001   3.136   0.811   2.154
 1679TIP3    H2 5002   3.194   0.951   2.159
 1680TIP3   OH2 5003   1.509   1.672   3.678
 1680TIP3    H1 5004   1.465   1.658   3.763
 1680TIP3    H2 5005   1.571   1.599   3.671
 1681TIP3   OH2 5006   6.113   2.408   2.966
 1681TIP3    H1 5007   6.053   2.358   2.911
 1681TIP3    H2 5008   6.180   2.439   2.905
 1682TIP3   OH2 5009   0.109   0.124   1.728
 1682TIP3    H1 5010   0.096   0.052   1.667
 1682TIP3    H2 5011   0.100   0.084   1.815
 1683TIP3   OH2 5012   5.957   3.407   5.187
 1683TIP3    H1 5013   5.942   3.449   5.271
 1683TIP3    H2 5014   5.910   3.324   5.192
 1684TIP3   OH2 5015   4.348   5.833   2.889
 1684TIP3    H1 5016   4.284   5.803   2.824
 1684TIP3    H2 5017   4.297   5.889   2.948
 1685TIP3   OH2 5018   0.739   2.921   3.835
 1685TIP3    H1 5019   0.696   2.852   3.785
 1685TIP3    H2 5020   0.801   2.960   3.774
 1686TIP3   OH2 5021   4.770   0.401   2.819
 1686TIP3    H1 5022   4.799   0.492   2.823
 1686TIP3    H2 5023   4.851   0.352   2.802
 1687TIP3   OH2 5024   6.785   3.745   3.693
 1687TIP3    H1 5025   6.691   3.762   3.702
 1687TIP3    H2 5026   6.822   3.828   3.664
 1688TIP3   OH2 5027   4.759   3.069   3.828
 1688TIP3    H1 5028   4.828   3.116   3.876
 1688TIP3    H2 5029   4.754   2.984   3.872
 1689TIP3   OH2 5030   3.167   4.217   0.299
 1689TIP3    H1 5031   3.219   4.138   0.309
 1689TIP3    H2 5032   3.131   4.211   0.210
 1690TIP3   OH2 5033   0.110   1.771   2.420
 1690TIP3    H1 5034   0.154   1.729   2.346
 1690TIP3    H2 5035   0.124   1.711   2.494
 1691TIP3   OH2 5036   6.284   2.561   4.557
 1691TIP3    H1 5037   6.365   2.536   4.514
 1691TIP3    H2 5038   6.243   2.479   4.583
 1692TIP3   OH2 5039   5.091   1.469   5.177
 1692TIP3    H1 5040   5.092   1.519   5.258
 1692TIP3    H2 5041   5.163   1.406   5.186
 1693TIP3   OH2 5042   4.362   1.472   1.533
 1693TIP3    H1 5043   4.366   1.534   1.606
 1693TIP3    H2 5044   4.405   1.517   1.461
 1694TIP3   OH2 5045   1.103   6.294   2.534
 1694TIP3    H1 5046   1.144   6.381   2.538
 1694TIP3    H2 5047   1.159   6.239   2.588
 1695TIP3   OH2 5048   1.975   4.322   2.403
 1695TIP3    H1 5049   2.051   4.369   2.367
 1695TIP3    H2 5050   1.943   4.269   2.330
 1696TIP3   OH2 5051   0.964   3.384   2.709
 1696TIP3    H1 5052   1.038   3.366   2.766
 1696TIP3    H2 5053   0.899   3.426   2.766
 1697TIP3   OH2 5054   5.499   6.047   5.497
 1697TIP3    H1 5055   5.543   6.005   5.423
 1697TIP3    H2 5056   5.565   6.051   5.566
 1698TIP3   OH2 5057   2.158   1.047   5.594
 1698TIP3    H1 5058   2.141   0.987   5.667
 1698TIP3    H2 5059   2.239   1.093   5.620
 1699TIP3   OH2 5060   6.323   0.928   2.093
 1699TIP3    H1 5061   6.308   0.988   2.167
 1699TIP3    H2 5062   6.281   0.973   2.019
 1700TIP3   OH2 5063   5.960   5.690   5.832
 1700TIP3    H1 5064   5.937   5.602   5.801
 1700TIP3    H2 5065   5.934   5.690   5.924
 1701TIP3   OH2 5066   4.679   2.401   0.696
 1701TIP3    H1 5067   4.603   2.446   0.733
 1701TIP3    H2 5068   4.724   2.363   0.772
 1702TIP3   OH2 5069   3.926   1.124   1.213
 1702TIP3    H1 5070   3.982   1.162   1.145
 1702TIP3    H2 5071   3.897   1.041   1.176
 1703TIP3   OH2 5072   5.638   6.474   0.257
 1703TIP3    H1 5073   5.613   6.563   0.279
 1703TIP3    H2 5074   5.555   6.426   0.251
 1704TIP3   OH2 5075   4.354   5.459   4.908
 1704TIP3    H1 5076   4.342   5.435   5.000
 1704TIP3    H2 5077   4.444   5.491   4.903
 1705TIP3   OH2 5078   6.573   4.834   4.164
 1705TIP3    H1 5079   6.611   4.764   4.111
 1705TIP3    H2 5080   6.597   4.813   4.254
 1706TIP3   OH2 5081   6.438   5.915   1.598
 1706TIP3    H1 5082   6.386   5.992   1.622
 1706TIP3    H2 5083   6.492   5.898   1.675
 1707TIP3   OH2 5084   1.202   0.999   5.073
 1707TIP3    H1 5085   1.243   1.069   5.023
 1707TIP3    H2 5086   1.186   1.037   5.159
 1708TIP3   OH2 5087   0.451   4.498   3.116
 1708TIP3    H1 5088   0.423   4.534   3.200
 1708TIP3    H2 5089   0.458   4.574   3.058
 1709TIP3   OH2 5090   6.780   3.903   5.073
 1709TIP3    H1 5091   6.696   3.896   5.027
 1709TIP3    H2 5092   6.798   3.815   5.104
 1710TIP3   OH2 5093   5.962   0.819   2.367
 1710TIP3    H1 5094   5.983   0.747   2.309
 1710TIP3    H2 5095   5.955   0.895   2.310
 1711TIP3   OH2 5096   0.171   1.548   1.302
 1711TIP3    H1 5097   0.238   1.589   1.357
 1711TIP3    H2 5098   0.103   1.521   1.363
 1712TIP3   OH2 5099   2.340   1.287   0.015
 1712TIP3    H1 5100   2.418   1.277   0.070
 1712TIP3    H2 5101   2.337   1.207  -0.037
 1713TIP3   OH2 5102   1.539   4.694   4.650
 1713TIP3    H1 5103   1.517   4.764   4.588
 1713TIP3    H2 5104   1.613   4.649   4.610
 1714TIP3   OH2 5105   3.400   3.808   0.351
 1714TIP3    H1 5106   3.494   3.793   0.343
 1714TIP3    H2 5107   3.365   3.790   0.264
 1715TIP3   OH2 5108   1.150   6.647   3.729
 1715TIP3    H1 5109   1.229   6.700   3.739
 1715TIP3    H2 5110   1.142   6.599   3.812
 1716TIP3   OH2 5111   0.386   2.459   4.921
 1716TIP3    H1 5112   0.421   2.456   4.832
 1716TIP3    H2 5113   0.296   2.490   4.910
 1717TIP3   OH2 5114   6.340   0.775   5.144
 1717TIP3    H1 5115   6.261   0.736   5.107
 1717TIP3    H2 5116   6.333   0.759   5.238
 1718TIP3   OH2 5117   5.366   3.944   1.629
 1718TIP3    H1 5118   5.299   3.921   1.564
 1718TIP3    H2 5119   5.444   3.964   1.577
 1719TIP3   OH2 5120   6.634   0.991   2.330
 1719TIP3    H1 5121   6.718   1.037   2.325
 1719TIP3    H2 5122   6.606   0.984   2.239
 1720TIP3   OH2 5123   5.428   3.754   0.308
 1720TIP3    H1 5124   5.479   3.819   0.356
 1720TIP3    H2 5125   5.493   3.698   0.267
 1721TIP3   OH2 5126   0.672   6.153   2.784
 1721TIP3    H1 5127   0.651   6.245   2.768
 1721TIP3    H2 5128   0.712   6.122   2.703
 1722TIP3   OH2 5129   6.695   5.224   4.719
 1722TIP3    H1 5130   6.664   5.143   4.678
 1722TIP3    H2 5131   6.628   5.245   4.784
 1723TIP3   OH2 5132   2.889   4.540   0.507
 1723TIP3    H1 5133   2.975   4.525   0.546
 1723TIP3    H2 5134   2.879   4.469   0.445
 1724TIP3   OH2 5135   7.136   5.721   0.485
 1724TIP3    H1 5136   7.071   5.695   0.419
 1724TIP3    H2 5137   7.180   5.640   0.509
 1725TIP3   OH2 5138   6.542   1.248   2.058
 1725TIP3    H1 5139   6.511   1.337   2.039
 1725TIP3    H2 5140   6.617   1.260   2.116
 1726TIP3   OH2 5141   4.143   1.383   1.363
 1726TIP3    H1 5142   4.113   1.432   1.286
 1726TIP3    H2 5143   4.226   1.425   1.387
 1727TIP3   OH2 5144   4.759   5.621   0.600
 1727TIP3    H1 5145   4.756   5.599   0.507
 1727TIP3    H2 5146   4.852   5.628   0.621
 1728TIP3   OH2 5147   3.540   1.593   2.182
 1728TIP3    H1 5148   3.603   1.555   2.121
 1728TIP3    H2 5149   3.511   1.674   2.140
 1729TIP3   OH2 5150   6.304   1.105   1.632
 1729TIP3    H1 5151   6.323   1.037   1.568
 1729TIP3    H2 5152   6.390   1.136   1.661
 1730TIP3   OH2 5153   4.496   6.281   2.368
 1730TIP3    H1 5154   4.531   6.210   2.314
 1730TIP3    H2 5155   4.495   6.245   2.457
 1731TIP3   OH2 5156   4.245   1.659   1.194
 1731TIP3    H1 5157   4.217   1.746   1.225
 1731TIP3    H2 5158   4.332   1.647   1.232
 1732TIP3   OH2 5159   3.271   1.507   0.466
 1732TIP3    H1 5160   3.199   1.444   0.469
 1732TIP3    H2 5161   3.271   1.547   0.553
 1733TIP3   OH2 5162   5.098   0.571   4.119
 1733TIP3    H1 5163   5.064   0.522   4.194
 1733TIP3    H2 5164   5.191   0.547   4.114
 1734TIP3   OH2 5165   2.058   2.850   5.326
 1734TIP3    H1 5166   1.966   2.876   5.324
 1734TIP3    H2 5167   2.069   2.805   5.410
 1735TIP3   OH2 5168   3.052   0.687   2.027
 1735TIP3    H1 5169   3.053   0.753   1.958
 1735TIP3    H2 5170   3.037   0.604   1.982
 1736TIP3   OH2 5171   0.426   0.472   5.112
 1736TIP3    H1 5172   0.506   0.522   5.127
 1736TIP3    H2 5173   0.358   0.538   5.101
 1737TIP3   OH2 5174   2.547   1.482   5.434
 1737TIP3    H1 5175   2.524   1.431   5.357
 1737TIP3    H2 5176   2.468   1.481   5.488
 1738TIP3   OH2 5177   3.235   5.813   3.303
 1738TIP3    H1 5178   3.292   5.760   3.247
 1738TIP3    H2 5179   3.222   5.894   3.254
 1739TIP3   OH2 5180   3.963   1.684   2.003
 1739TIP3    H1 5181   3.962   1.767   1.955
 1739TIP3    H2 5182   3.941   1.618   1.936
 1740TIP3   OH2 5183   0.617   0.597   3.620
 1740TIP3    H1 5184   0.592   0.504   3.619
 1740TIP3    H2 5185   0.553   0.639   3.677
 1741TIP3   OH2 5186   4.092   5.473   3.621
 1741TIP3    H1 5187   4.025   5.526   3.577
 1741TIP3    H2 5188   4.043   5.417   3.681
 1742TIP3   OH2 5189   2.348   2.096   3.566
 1742TIP3    H1 5190   2.367   2.183   3.532
 1742TIP3    H2 5191   2.428   2.046   3.552
 1743TIP3   OH2 5192   0.058   2.021   1.670
 1743TIP3    H1 5193   0.130   2.048   1.727
 1743TIP3    H2 5194   0.044   2.096   1.612
 1744TIP3   OH2 5195   5.471   3.205   4.615
 1744TIP3    H1 5196   5.435   3.157   4.541
 1744TIP3    H2 5197   5.485   3.139   4.683
 1745TIP3   OH2 5198   5.138   3.001   0.528
 1745TIP3    H1 5199   5.054   2.991   0.573
 1745TIP3    H2 5200   5.182   3.071   0.576
 1746TIP3   OH2 5201   6.910   1.053   3.638
 1746TIP3    H1 5202   6.905   1.035   3.544
 1746TIP3    H2 5203   6.889   1.145   3.646
 1747TIP3   OH2 5204   1.114   0.400   0.334
 1747TIP3    H1 5205   1.043   0.372   0.391
 1747TIP3    H2 5206   1.078   0.473   0.284
 1748TIP3   OH2 5207   1.013   6.632   1.423
 1748TIP3    H1 5208   1.098   6.673   1.410
 1748TIP3    H2 5209   0.984   6.609   1.334
 1749TIP3   OH2 5210   2.276   4.847   0.901
 1749TIP3    H1 5211   2.289   4.775   0.839
 1749TIP3    H2 5212   2.323   4.819   0.980
 1750TIP3   OH2 5213   5.261   1.506   2.333
 1750TIP3    H1 5214   5.200   1.578   2.347
 1750TIP3    H2 5215   5.337   1.528   2.385
 1751TIP3   OH2 5216   0.888   0.108   5.528
 1751TIP3    H1 5217   0.912   0.058   5.450
 1751TIP3    H2 5218   0.878   0.041   5.596
 1752TIP3   OH2 5219   6.263   5.037   2.817
 1752TIP3    H1 5220   6.331   5.028   2.750
 1752TIP3    H2 5221   6.204   5.104   2.783
 1753TIP3   OH2 5222   2.382   0.294   4.321
 1753TIP3    H1 5223   2.363   0.220   4.264
 1753TIP3    H2 5224   2.395   0.255   4.407
 1754TIP3   OH2 5225   5.000   5.382   4.460
 1754TIP3    H1 5226   4.975   5.392   4.368
 1754TIP3    H2 5227   5.001   5.287   4.474
 1755TIP3   OH2 5228   3.825   5.175   5.254
 1755TIP3    H1 5229   3.811   5.269   5.261
 1755TIP3    H2 5230   3.760   5.136   5.312
 1756TIP3   OH2 5231   4.561   1.998   4.554
 1756TIP3    H1 5232   4.579   1.922   4.498
 1756TIP3    H2 5233   4.477   2.032   4.522
 1757TIP3   OH2 5234   0.776   5.851   2.232
 1757TIP3    H1 5235   0.846   5.910   2.257
 1757TIP3    H2 5236   0.743   5.887   2.149
 1758TIP3   OH2 5237   1.905   5.930   5.081
 1758TIP3    H1 5238   1.812   5.924   5.104
 1758TIP3    H2 5239   1.917   6.021   5.053
 1759TIP3   OH2 5240   2.262   1.180   2.858
 1759TIP3    H1 5241   2.319   1.246   2.818
 1759TIP3    H2 5242   2.189   1.231   2.893
 1760TIP3   OH2 5243   6.679   5.295   4.183
 1760TIP3    H1 5244   6.706   5.378   4.220
 1760TIP3    H2 5245   6.615   5.318   4.115
 1761TIP3   OH2 5246   4.647   0.258   1.093
 1761TIP3    H1 5247   4.704   0.289   1.023
 1761TIP3    H2 5248   4.590   0.332   1.112
 1762TIP3   OH2 5249   2.558   5.010   1.645
 1762TIP3    H1 5250   2.469   4.983   1.667
 1762TIP3    H2 5251   2.547   5.083   1.585
 1763TIP3   OH2 5252   6.447   3.740   1.189
 1763TIP3    H1 5253   6.513   3.681   1.226
 1763TIP3    H2 5254   6.374   3.736   1.250
 1764TIP3   OH2 5255   6.905   3.225   4.982
 1764TIP3    H1 5256   6.826   3.277   4.993
 1764TIP3    H2 5257   6.975   3.290   4.975
 1765TIP3   OH2 5258   4.940   6.398   4.328
 1765TIP3    H1 5259   4.929   6.369   4.418
 1765TIP3    H2 5260   4.923   6.320   4.275
 1766TIP3   OH2 5261   0.257   5.012   4.673
 1766TIP3    H1 5262   0.350   5.012   4.696
 1766TIP3    H2 5263   0.252   4.963   4.591
 1767TIP3   OH2 5264   3.436   4.451   3.468
 1767TIP3    H1 5265   3.461   4.526   3.414
 1767TIP3    H2 5266   3.359   4.415   3.425
 1768TIP3   OH2 5267   2.967   4.780   5.638
 1768TIP3    H1 5268   2.882   4.739   5.626
 1768TIP3    H2 5269   2.950   4.855   5.695
 1769TIP3   OH2 5270   5.968   3.558   4.534
 1769TIP3    H1 5271   6.033   3.621   4.502
 1769TIP3    H2 5272   6.017   3.477   4.548
 1770TIP3   OH2 5273   0.728   2.248   0.549
 1770TIP3    H1 5274   0.718   2.312   0.478
 1770TIP3    H2 5275   0.823   2.247   0.566
 1771TIP3   OH2 5276   1.158   1.835   1.146
 1771TIP3    H1 5277   1.156   1.746   1.181
 1771TIP3    H2 5278   1.236   1.875   1.184
 1772TIP3   OH2 5279   0.176   4.782   5.165
 1772TIP3    H1 5280   0.100   4.838   5.179
 1772TIP3    H2 5281   0.152   4.698   5.205
 1773TIP3   OH2 5282   6.258   3.758   3.033
 1773TIP3    H1 5283   6.291   3.843   3.061
 1773TIP3    H2 5284   6.166   3.759   3.057
 1774TIP3   OH2 5285   6.748   4.672   3.974
 1774TIP3    H1 5286   6.842   4.682   3.960
 1774TIP3    H2 5287   6.741   4.611   4.047
 1775TIP3   OH2 5288   1.395   2.568   5.467
 1775TIP3    H1 5289   1.423   2.518   5.544
 1775TIP3    H2 5290   1.359   2.503   5.407
 1776TIP3   OH2 5291   1.188   2.044   0.326
 1776TIP3    H1 5292   1.251   2.075   0.391
 1776TIP3    H2 5293   1.241   2.020   0.250
 1777TIP3   OH2 5294   1.756   1.961   3.841
 1777TIP3    H1 5295   1.757   1.979   3.747
 1777TIP3    H2 5296   1.835   1.909   3.856
 1778TIP3   OH2 5297   3.782   2.470   3.933
 1778TIP3    H1 5298   3.878   2.464   3.934
 1778TIP3    H2 5299   3.760   2.524   4.008
 1779TIP3   OH2 5300   4.691   3.849   1.517
 1779TIP3    H1 5301   4.675   3.758   1.494
 1779TIP3    H2 5302   4.692   3.849   1.613
 1780TIP3   OH2 5303   3.006   1.588   4.930
 1780TIP3    H1 5304   2.980   1.617   4.842
 1780TIP3    H2 5305   2.923   1.572   4.975
 1781TIP3   OH2 5306   3.399   3.592   3.506
 1781TIP3    H1 5307   3.450   3.665   3.471
 1781TIP3    H2 5308   3.454   3.555   3.575
 1782TIP3   OH2 5309   0.800   5.946   1.034
 1782TIP3    H1 5310   0.833   5.857   1.018
 1782TIP3    H2 5311   0.717   5.950   0.987
 1783TIP3   OH2 5312   5.377   0.129   2.733
 1783TIP3    H1 5313   5.349   0.103   2.645
 1783TIP3    H2 5314   5.470   0.148   2.724
 1784TIP3   OH2 5315   6.548   4.212   1.278
 1784TIP3    H1 5316   6.483   4.166   1.330
 1784TIP3    H2 5317   6.623   4.223   1.337
 1785TIP3   OH2 5318   6.128   0.632   3.170
 1785TIP3    H1 5319   6.079   0.683   3.105
 1785TIP3    H2 5320   6.196   0.588   3.118
 1786TIP3   OH2 5321   2.793   3.920   5.276
 1786TIP3    H1 5322   2.753   3.833   5.285
 1786TIP3    H2 5323   2.795   3.936   5.181
 1787TIP3   OH2 5324   6.564   6.243   5.453
 1787TIP3    H1 5325   6.639   6.279   5.405
 1787TIP3    H2 5326   6.488   6.273   5.405
 1788TIP3   OH2 5327   2.015   5.739   1.935
 1788TIP3    H1 5328   1.961   5.795   1.991
 1788TIP3    H2 5329   2.059   5.800   1.875
 1789TIP3   OH2 5330   1.773   3.383   5.648
 1789TIP3    H1 5331   1.853   3.435   5.637
 1789TIP3    H2 5332   1.702   3.447   5.647
 1790TIP3   OH2 5333   5.949   5.513   4.740
 1790TIP3    H1 5334   5.955   5.608   4.745
 1790TIP3    H2 5335   5.908   5.496   4.655
 1791TIP3   OH2 5336   6.082   6.034   3.621
 1791TIP3    H1 5337   6.028   5.983   3.682
 1791TIP3    H2 5338   6.158   5.978   3.604
 1792TIP3   OH2 5339   0.461   0.641   4.539
 1792TIP3    H1 5340   0.518   0.681   4.473
 1792TIP3    H2 5341   0.494   0.551   4.547
 1793TIP3   OH2 5342   6.146   6.763   0.257
 1793TIP3    H1 5343   6.058   6.785   0.226
 1793TIP3    H2 5344   6.161   6.822   0.331
 1794TIP3   OH2 5345   3.935   2.693   4.560
 1794TIP3    H1 5346   3.950   2.782   4.528
 1794TIP3    H2 5347   3.856   2.664   4.515
 1795TIP3   OH2 5348   6.896   0.829   3.813
 1795TIP3    H1 5349   6.973   0.804   3.864
 1795TIP3    H2 5350   6.928   0.895   3.752
 1796TIP3   OH2 5351   4.511   1.310   4.499
 1796TIP3    H1 5352   4.427   1.354   4.512
 1796TIP3    H2 5353   4.557   1.320   4.582
 1797TIP3   OH2 5354   6.433   1.935   0.884
 1797TIP3    H1 5355   6.450   2.017   0.836
 1797TIP3    H2 5356   6.353   1.952   0.934
 1798TIP3   OH2 5357   6.742   5.686   5.638
 1798TIP3    H1 5358   6.673   5.732   5.591
 1798TIP3    H2 5359   6.821   5.738   5.621
 1799TIP3   OH2 5360   6.489   0.101   3.650
 1799TIP3    H1 5361   6.463   0.073   3.562
 1799TIP3    H2 5362   6.406   0.119   3.695
 1800TIP3   OH2 5363   5.944   1.860   2.994
 1800TIP3    H1 5364   5.951   1.857   2.899
 1800TIP3    H2 5365   5.891   1.937   3.012
 1801TIP3   OH2 5366   4.756   2.092   2.709
 1801TIP3    H1 5367   4.774   2.176   2.750
 1801TIP3    H2 5368   4.713   2.041   2.778
 1802TIP3   OH2 5369   2.670   5.345   0.621
 1802TIP3    H1 5370   2.689   5.252   0.615
 1802TIP3    H2 5371   2.605   5.352   0.691
 1803TIP3   OH2 5372   1.121   1.467   0.120
 1803TIP3    H1 5373   1.035   1.454   0.161
 1803TIP3    H2 5374   1.119   1.557   0.089
 1804TIP3   OH2 5375   1.192   6.540   1.702
 1804TIP3    H1 5376   1.120   6.478   1.713
 1804TIP3    H2 5377   1.239   6.539   1.785
 1805TIP3   OH2 5378   5.539   5.505   2.638
 1805TIP3    H1 5379   5.490   5.517   2.719
 1805TIP3    H2 5380   5.622   5.551   2.653
 1806TIP3   OH2 5381   4.913   5.467   5.091
 1806TIP3    H1 5382   4.899   5.537   5.028
 1806TIP3    H2 5383   4.863   5.494   5.169
 1807TIP3   OH2 5384   2.174   2.409   4.766
 1807TIP3    H1 5385   2.230   2.332   4.753
 1807TIP3    H2 5386   2.138   2.397   4.854
 1808TIP3   OH2 5387   5.749   3.637   1.491
 1808TIP3    H1 5388   5.793   3.592   1.418
 1808TIP3    H2 5389   5.661   3.599   1.492
 1809TIP3   OH2 5390   4.332   2.081   5.537
 1809TIP3    H1 5391   4.388   2.132   5.480
 1809TIP3    H2 5392   4.243   2.105   5.512
 1810TIP3   OH2 5393   2.261   4.320   0.365
 1810TIP3    H1 5394   2.315   4.304   0.442
 1810TIP3    H2 5395   2.315   4.293   0.291
 1811TIP3   OH2 5396   1.275   5.790   5.638
 1811TIP3    H1 5397   1.237   5.823   5.557
 1811TIP3    H2 5398   1.246   5.851   5.705
 1812TIP3   OH2 5399   6.220   5.693   5.687
 1812TIP3    H1 5400   6.149   5.706   5.750
 1812TIP3    H2 5401   6.218   5.599   5.669
 1813TIP3   OH2 5402   1.640   6.043   5.533
 1813TIP3    H1 5403   1.663   5.972   5.593
 1813TIP3    H2 5404   1.637   6.121   5.588
 1814TIP3   OH2 5405   0.358   3.489   2.022
 1814TIP3    H1 5406   0.358   3.432   2.099
 1814TIP3    H2 5407   0.268   3.485   1.989
 1815TIP3   OH2 5408   0.125   6.712   1.021
 1815TIP3    H1 5409   0.170   6.753   0.947
 1815TIP3    H2 5410   0.195   6.672   1.072
 1816TIP3   OH2 5411   1.662   3.904   1.615
 1816TIP3    H1 5412   1.629   3.988   1.581
 1816TIP3    H2 5413   1.592   3.872   1.672
 1817TIP3   OH2 5414   1.830   0.763   0.023
 1817TIP3    H1 5415   1.858   0.691   0.079
 1817TIP3    H2 5416   1.900   0.773  -0.041
 1818TIP3   OH2 5417   6.915   5.543   4.319
 1818TIP3    H1 5418   6.941   5.576   4.405
 1818TIP3    H2 5419   6.918   5.447   4.328
 1819TIP3   OH2 5420   5.479   2.714   4.835
 1819TIP3    H1 5421   5.506   2.661   4.759
 1819TIP3    H2 5422   5.532   2.680   4.907
 1820TIP3   OH2 5423   6.185   4.500   3.669
 1820TIP3    H1 5424   6.188   4.576   3.728
 1820TIP3    H2 5425   6.225   4.429   3.719
 1821TIP3   OH2 5426   6.067   5.332   0.841
 1821TIP3    H1 5427   6.021   5.379   0.771
 1821TIP3    H2 5428   6.109   5.259   0.796
 1822TIP3   OH2 5429   5.068   1.246   4.281
 1822TIP3    H1 5430   5.008   1.317   4.259
 1822TIP3    H2 5431   5.023   1.167   4.251
 1823TIP3   OH2 5432   4.015   6.700   1.073
 1823TIP3    H1 5433   4.054   6.614   1.060
 1823TIP3    H2 5434   3.965   6.692   1.154
 1824TIP3   OH2 5435   3.773   2.898   3.257
 1824TIP3    H1 5436   3.717   2.878   3.182
 1824TIP3    H2 5437   3.750   2.831   3.322
 1825TIP3   OH2 5438   0.161   1.433   4.568
 1825TIP3    H1 5439   0.158   1.352   4.618
 1825TIP3    H2 5440   0.072   1.444   4.533
 1826TIP3   OH2 5441   2.669   3.067   0.837
 1826TIP3    H1 5442   2.696   3.117   0.915
 1826TIP3    H2 5443   2.611   2.999   0.872
 1827TIP3   OH2 5444   5.360   3.517   1.059
 1827TIP3    H1 5445   5.286   3.544   1.004
 1827TIP3    H2 5446   5.437   3.549   1.012
 1828TIP3   OH2 5447   3.384   0.901   2.388
 1828TIP3    H1 5448   3.422   0.819   2.358
 1828TIP3    H2 5449   3.311   0.918   2.329
 1829TIP3   OH2 5450   5.732   3.081   5.434
 1829TIP3    H1 5451   5.773   3.149   5.487
 1829TIP3    H2 5452   5.707   3.013   5.497
 1830TIP3   OH2 5453   4.673   6.156   2.208
 1830TIP3    H1 5454   4.664   6.231   2.149
 1830TIP3    H2 5455   4.725   6.093   2.158
 1831TIP3   OH2 5456   3.090   4.302   4.545
 1831TIP3    H1 5457   3.079   4.224   4.599
 1831TIP3    H2 5458   3.050   4.279   4.461
 1832TIP3   OH2 5459   4.190   0.023   2.038
 1832TIP3    H1 5460   4.263   0.084   2.026
 1832TIP3    H2 5461   4.119   0.061   1.987
 1833TIP3   OH2 5462   3.680   5.261   4.780
 1833TIP3    H1 5463   3.774   5.248   4.795
 1833TIP3    H2 5464   3.661   5.347   4.818
 1834TIP3   OH2 5465   5.907   4.356   1.716
 1834TIP3    H1 5466   5.890   4.317   1.801
 1834TIP3    H2 5467   5.841   4.425   1.706
 1835TIP3   OH2 5468   2.739   2.365   3.089
 1835TIP3    H1 5469   2.648   2.363   3.060
 1835TIP3    H2 5470   2.755   2.457   3.113
 1836TIP3   OH2 5471   2.412   3.657   3.918
 1836TIP3    H1 5472   2.366   3.623   3.995
 1836TIP3    H2 5473   2.415   3.583   3.857
 1837TIP3   OH2 5474   4.594   4.732   0.745
 1837TIP3    H1 5475   4.576   4.641   0.718
 1837TIP3    H2 5476   4.639   4.723   0.829
 1838TIP3   OH2 5477   5.160   4.380   1.443
 1838TIP3    H1 5478   5.193   4.469   1.434
 1838TIP3    H2 5479   5.170   4.360   1.536
 1839TIP3   OH2 5480   1.377   6.102   1.705
 1839TIP3    H1 5481   1.398   6.190   1.673
 1839TIP3    H2 5482   1.294   6.081   1.662
 1840TIP3   OH2 5483   1.767   6.593   3.202
 1840TIP3    H1 5484   1.849   6.638   3.220
 1840TIP3    H2 5485   1.736   6.563   3.288
 1841TIP3   OH2 5486   5.412   2.979   2.747
 1841TIP3    H1 5487   5.400   3.064   2.788
 1841TIP3    H2 5488   5.406   2.996   2.653
 1842TIP3   OH2 5489   5.596   5.149   3.949
 1842TIP3    H1 5490   5.546   5.231   3.950
 1842TIP3    H2 5491   5.685   5.176   3.927
 1843TIP3   OH2 5492   2.593   4.893   1.373
 1843TIP3    H1 5493   2.575   4.920   1.463
 1843TIP3    H2 5494   2.507   4.876   1.335
 1844TIP3   OH2 5495   0.421   6.485   0.627
 1844TIP3    H1 5496   0.475   6.542   0.571
 1844TIP3    H2 5497   0.341   6.535   0.642
 1845TIP3   OH2 5498   4.467   2.283   5.389
 1845TIP3    H1 5499   4.557   2.289   5.359
 1845TIP3    H2 5500   4.415   2.294   5.309
 1846TIP3   OH2 5501   4.697   1.523   2.262
 1846TIP3    H1 5502   4.736   1.564   2.339
 1846TIP3    H2 5503   4.735   1.569   2.187
 1847TIP3   OH2 5504   0.578   1.240   0.006
 1847TIP3    H1 5505   0.628   1.255   0.087
 1847TIP3    H2 5506   0.574   1.326  -0.036
 1848TIP3   OH2 5507   7.119   6.618   2.016
 1848TIP3    H1 5508   7.166   6.554   2.070
 1848TIP3    H2 5509   7.123   6.582   1.927
 1849TIP3   OH2 5510   3.797   4.124   1.126
 1849TIP3    H1 5511   3.801   4.034   1.157
 1849TIP3    H2 5512   3.879   4.138   1.080
 1850TIP3   OH2 5513   0.610   5.692   2.368
 1850TIP3    H1 5514   0.681   5.744   2.331
 1850TIP3    H2 5515   0.646   5.604   2.375
 1851TIP3   OH2 5516   0.829   4.229   2.587
 1851TIP3    H1 5517   0.877   4.278   2.520
 1851TIP3    H2 5518   0.890   4.224   2.661
 1852TIP3   OH2 5519   4.792   2.895   4.039
 1852TIP3    H1 5520   4.808   2.970   4.096
 1852TIP3    H2 5521   4.707   2.861   4.068
 1853TIP3   OH2 5522   7.099   1.226   0.687
 1853TIP3    H1 5523   7.084   1.207   0.779
 1853TIP3    H2 5524   7.120   1.141   0.648
 1854TIP3   OH2 5525   5.054   2.953   1.082
 1854TIP3    H1 5526   4.983   2.919   1.136
 1854TIP3    H2 5527   5.121   2.979   1.145
 1855TIP3   OH2 5528   2.319   3.696   4.992
 1855TIP3    H1 5529   2.333   3.629   5.059
 1855TIP3    H2 5530   2.240   3.743   5.022
 1856TIP3   OH2 5531   6.772   0.514   1.090
 1856TIP3    H1 5532   6.782   0.608   1.081
 1856TIP3    H2 5533   6.848   0.476   1.046
 1857TIP3   OH2 5534   1.512   0.352   5.007
 1857TIP3    H1 5535   1.544   0.332   4.919
 1857TIP3    H2 5536   1.529   0.446   5.018
 1858TIP3   OH2 5537   1.541   6.632   3.979
 1858TIP3    H1 5538   1.584   6.591   4.054
 1858TIP3    H2 5539   1.448   6.616   3.993
 1859TIP3   OH2 5540   4.970   4.957   1.705
 1859TIP3    H1 5541   4.908   5.014   1.659
 1859TIP3    H2 5542   4.983   4.883   1.645
 1860TIP3   OH2 5543   4.643   0.455   3.564
 1860TIP3    H1 5544   4.636   0.524   3.629
 1860TIP3    H2 5545   4.606   0.377   3.605
 1861TIP3   OH2 5546   7.058   3.087   1.402
 1861TIP3    H1 5547   7.006   3.158   1.439
 1861TIP3    H2 5548   7.020   3.007   1.439
 1862TIP3   OH2 5549   2.801   6.664   4.212
 1862TIP3    H1 5550   2.787   6.621   4.296
 1862TIP3    H2 5551   2.774   6.600   4.147
 1863TIP3   OH2 5552   6.585   5.272   1.338
 1863TIP3    H1 5553   6.599   5.295   1.246
 1863TIP3    H2 5554   6.630   5.188   1.349
 1864TIP3   OH2 5555   0.743   4.201   3.008
 1864TIP3    H1 5556   0.824   4.240   2.977
 1864TIP3    H2 5557   0.712   4.262   3.075
 1865TIP3   OH2 5558   4.311   6.320   0.741
 1865TIP3    H1 5559   4.403   6.295   0.736
 1865TIP3    H2 5560   4.266   6.263   0.678
 1866TIP3   OH2 5561   5.244   2.918   5.133
 1866TIP3    H1 5562   5.237   2.931   5.227
 1866TIP3    H2 5563   5.331   2.951   5.110
 1867TIP3   OH2 5564   2.650   1.718   0.223
 1867TIP3    H1 5565   2.649   1.644   0.162
 1867TIP3    H2 5566   2.739   1.719   0.258
 1868TIP3   OH2 5567   3.927   4.094   0.076
 1868TIP3    H1 5568   3.915   4.042   0.155
 1868TIP3    H2 5569   3.881   4.045   0.007
 1869TIP3   OH2 5570   1.949   4.939   0.171
 1869TIP3    H1 5571   1.972   4.880   0.099
 1869TIP3    H2 5572   1.858   4.916   0.192
 1870TIP3   OH2 5573   2.554   0.063   4.827
 1870TIP3    H1 5574   2.569   0.082   4.919
 1870TIP3    H2 5575   2.642   0.051   4.790
 1871TIP3   OH2 5576   1.607   3.359   3.485
 1871TIP3    H1 5577   1.546   3.344   3.556
 1871TIP3    H2 5578   1.554   3.355   3.406
 1872TIP3   OH2 5579   4.175   6.691   1.392
 1872TIP3    H1 5580   4.183   6.666   1.484
 1872TIP3    H2 5581   4.081   6.693   1.374
 1873TIP3   OH2 5582   5.750   5.363   2.964
 1873TIP3    H1 5583   5.821   5.379   3.026
 1873TIP3    H2 5584   5.734   5.269   2.971
 1874TIP3   OH2 5585   2.120   1.486   2.134
 1874TIP3    H1 5586   2.069   1.432   2.195
 1874TIP3    H2 5587   2.054   1.526   2.076
 1875TIP3   OH2 5588   1.859   2.234   0.797
 1875TIP3    H1 5589   1.856   2.206   0.705
 1875TIP3    H2 5590   1.896   2.322   0.794
 1876TIP3   OH2 5591   1.148   4.752   2.149
 1876TIP3    H1 5592   1.191   4.688   2.093
 1876TIP3    H2 5593   1.096   4.805   2.089
 1877TIP3   OH2 5594   1.442   4.378   3.884
 1877TIP3    H1 5595   1.489   4.396   3.965
 1877TIP3    H2 5596   1.423   4.285   3.887
 1878TIP3   OH2 5597   5.923   3.643   2.192
 1878TIP3    H1 5598   5.929   3.735   2.215
 1878TIP3    H2 5599   5.914   3.598   2.276
 1879TIP3   OH2 5600   1.214   2.388   4.416
 1879TIP3    H1 5601   1.200   2.382   4.510
 1879TIP3    H2 5602   1.251   2.476   4.403
 1880TIP3   OH2 5603   2.953   2.469   3.716
 1880TIP3    H1 5604   2.888   2.451   3.647
 1880TIP3    H2 5605   2.947   2.563   3.730
 1881TIP3   OH2 5606   6.131   4.830   0.568
 1881TIP3    H1 5607   6.154   4.835   0.475
 1881TIP3    H2 5608   6.207   4.866   0.613
 1882TIP3   OH2 5609   4.434   6.198   2.901
 1882TIP3    H1 5610   4.522   6.172   2.930
 1882TIP3    H2 5611   4.439   6.195   2.805
 1883TIP3   OH2 5612   5.108   3.129   3.592
 1883TIP3    H1 5613   5.142   3.137   3.682
 1883TIP3    H2 5614   5.032   3.071   3.601
 1884TIP3   OH2 5615   3.657   1.834   0.653
 1884TIP3    H1 5616   3.594   1.853   0.723
 1884TIP3    H2 5617   3.729   1.789   0.697
 1885TIP3   OH2 5618   4.219   3.274   1.563
 1885TIP3    H1 5619   4.182   3.192   1.595
 1885TIP3    H2 5620   4.310   3.272   1.593
 1886TIP3   OH2 5621   5.955   6.556   3.088
 1886TIP3    H1 5622   5.986   6.515   3.008
 1886TIP3    H2 5623   5.999   6.641   3.091
 1887TIP3   OH2 5624   7.077   0.695   1.818
 1887TIP3    H1 5625   6.997   0.747   1.823
 1887TIP3    H2 5626   7.116   0.701   1.905
 1888TIP3   OH2 5627   5.752   0.393   4.149
 1888TIP3    H1 5628   5.702   0.445   4.212
 1888TIP3    H2 5629   5.841   0.426   4.157
 1889TIP3   OH2 5630   5.442   3.318   3.990
 1889TIP3    H1 5631   5.397   3.254   4.045
 1889TIP3    H2 5632   5.472   3.385   4.052
 1890TIP3   OH2 5633   0.469   3.952   0.140
 1890TIP3    H1 5634   0.554   3.962   0.096
 1890TIP3    H2 5635   0.490   3.909   0.223
 1891TIP3   OH2 5636   2.864   6.601   1.582
 1891TIP3    H1 5637   2.904   6.668   1.638
 1891TIP3    H2 5638   2.827   6.650   1.509
 1892TIP3   OH2 5639   5.411   2.857   1.003
 1892TIP3    H1 5640   5.326   2.813   1.007
 1892TIP3    H2 5641   5.435   2.869   1.095
 1893TIP3   OH2 5642   5.169   5.620   0.929
 1893TIP3    H1 5643   5.232   5.549   0.936
 1893TIP3    H2 5644   5.087   5.578   0.902
 1894TIP3   OH2 5645   4.420   6.103   5.651
 1894TIP3    H1 5646   4.368   6.052   5.589
 1894TIP3    H2 5647   4.482   6.151   5.596
 1895TIP3   OH2 5648   4.256   0.751   2.227
 1895TIP3    H1 5649   4.231   0.737   2.319
 1895TIP3    H2 5650   4.176   0.734   2.178
 1896TIP3   OH2 5651   2.680   5.098   3.730
 1896TIP3    H1 5652   2.707   5.028   3.671
 1896TIP3    H2 5653   2.746   5.097   3.800
 1897TIP3   OH2 5654   4.404   0.867   1.956
 1897TIP3    H1 5655   4.377   0.775   1.945
 1897TIP3    H2 5656   4.328   0.917   1.926
 1898TIP3   OH2 5657   2.697   0.572   5.476
 1898TIP3    H1 5658   2.692   0.484   5.437
 1898TIP3    H2 5659   2.753   0.621   5.417
 1899TIP3   OH2 5660   3.144   3.592   3.721
 1899TIP3    H1 5661   3.152   3.684   3.696
 1899TIP3    H2 5662   3.173   3.589   3.812
 1900TIP3   OH2 5663   0.594   6.380   0.328
 1900TIP3    H1 5664   0.654   6.453   0.336
 1900TIP3    H2 5665   0.650   6.304   0.312
 1901TIP3   OH2 5666   3.138   4.165   4.037
 1901TIP3    H1 5667   3.213   4.114   4.005
 1901TIP3    H2 5668   3.099   4.202   3.958
 1902TIP3   OH2 5669   4.335   0.325   1.735
 1902TIP3    H1 5670   4.361   0.248   1.684
 1902TIP3    H2 5671   4.338   0.296   1.826
 1903TIP3   OH2 5672   7.080   0.252   1.600
 1903TIP3    H1 5673   7.010   0.195   1.569
 1903TIP3    H2 5674   7.045   0.341   1.593
 1904TIP3   OH2 5675   3.528   0.173   2.226
 1904TIP3    H1 5676   3.574   0.093   2.203
 1904TIP3    H2 5677   3.444   0.166   2.180
 1905TIP3   OH2 5678   1.458   3.190   5.633
 1905TIP3    H1 5679   1.507   3.153   5.706
 1905TIP3    H2 5680   1.366   3.178   5.657
 1906TIP3   OH2 5681   5.153   2.607   5.393
 1906TIP3    H1 5682   5.166   2.627   5.301
 1906TIP3    H2 5683   5.210   2.531   5.409
 1907TIP3   OH2 5684   2.290   3.066   0.989
 1907TIP3    H1 5685   2.230   3.063   0.915
 1907TIP3    H2 5686   2.242   3.023   1.060
 1908TIP3   OH2 5687   0.190   1.848   5.827
 1908TIP3    H1 5688   0.234   1.764   5.840
 1908TIP3    H2 5689   0.261   1.909   5.806
 1909TIP3   OH2 5690   2.918   1.064   0.882
 1909TIP3    H1 5691   3.008   1.075   0.850
 1909TIP3    H2 5692   2.870   1.137   0.842
 1910TIP3   OH2 5693   3.447   1.020   2.979
 1910TIP3    H1 5694   3.418   1.111   2.986
 1910TIP3    H2 5695   3.470   0.995   3.069
 1911TIP3   OH2 5696   6.657   5.637   4.500
 1911TIP3    H1 5697   6.702   5.687   4.431
 1911TIP3    H2 5698   6.565   5.660   4.488
 1912TIP3   OH2 5699   1.085   0.397   3.741
 1912TIP3    H1 5700   0.997   0.422   3.714
 1912TIP3    H2 5701   1.095   0.307   3.709
 1913TIP3   OH2 5702   5.106   0.754   3.632
 1913TIP3    H1 5703   5.132   0.692   3.564
 1913TIP3    H2 5704   5.011   0.763   3.621
 1914TIP3   OH2 5705   5.839   4.340   4.825
 1914TIP3    H1 5706   5.877   4.347   4.738
 1914TIP3    H2 5707   5.817   4.247   4.834
 1915TIP3   OH2 5708   4.776   4.108   3.950
 1915TIP3    H1 5709   4.750   4.113   3.858
 1915TIP3    H2 5710   4.698   4.075   3.995
 1916TIP3   OH2 5711   5.239   3.750   1.421
 1916TIP3    H1 5712   5.160   3.735   1.369
 1916TIP3    H2 5713   5.311   3.721   1.365
 1917TIP3   OH2 5714   2.459   5.728   0.822
 1917TIP3    H1 5715   2.467   5.653   0.882
 1917TIP3    H2 5716   2.445   5.803   0.880
 1918TIP3   OH2 5717   5.528   4.505   4.884
 1918TIP3    H1 5718   5.606   4.540   4.841
 1918TIP3    H2 5719   5.471   4.478   4.813
 1919TIP3   OH2 5720   2.085   4.402   0.986
 1919TIP3    H1 5721   2.133   4.484   0.975
 1919TIP3    H2 5722   2.148   4.342   1.025
 1920TIP3   OH2 5723   4.565   0.312   0.728
 1920TIP3    H1 5724   4.620   0.382   0.692
 1920TIP3    H2 5725   4.482   0.319   0.680
 1921TIP3   OH2 5726   4.410   5.385   1.895
 1921TIP3    H1 5727   4.366   5.423   1.971
 1921TIP3    H2 5728   4.342   5.380   1.827
 1922TIP3   OH2 5729   1.103   4.277   0.752
 1922TIP3    H1 5730   1.092   4.215   0.680
 1922TIP3    H2 5731   1.128   4.223   0.827
 1923TIP3   OH2 5732   0.334   4.946   5.423
 1923TIP3    H1 5733   0.365   4.862   5.392
 1923TIP3    H2 5734   0.254   4.926   5.473
 1924TIP3   OH2 5735   3.950   1.050   0.901
 1924TIP3    H1 5736   3.883   1.045   0.833
 1924TIP3    H2 5737   3.978   1.142   0.901
 1925TIP3   OH2 5738   0.365   6.752   3.349
 1925TIP3    H1 5739   0.345   6.823   3.411
 1925TIP3    H2 5740   0.460   6.745   3.351
 1926TIP3   OH2 5741   4.958   2.261   1.102
 1926TIP3    H1 5742   5.028   2.323   1.079
 1926TIP3    H2 5743   5.002   2.195   1.155
 1927TIP3   OH2 5744   2.644   5.198   4.085
 1927TIP3    H1 5745   2.614   5.123   4.033
 1927TIP3    H2 5746   2.583   5.269   4.063
 1928TIP3   OH2 5747   4.654   0.634   4.652
 1928TIP3    H1 5748   4.708   0.598   4.722
 1928TIP3    H2 5749   4.626   0.558   4.601
 1929TIP3   OH2 5750   2.666   0.424   1.727
 1929TIP3    H1 5751   2.638   0.515   1.734
 1929TIP3    H2 5752   2.751   0.421   1.770
 1930TIP3   OH2 5753   0.628   2.764   3.157
 1930TIP3    H1 5754   0.718   2.735   3.148
 1930TIP3    H2 5755   0.579   2.713   3.092
 1931TIP3   OH2 5756   4.704   1.872   2.514
 1931TIP3    H1 5757   4.616   1.908   2.498
 1931TIP3    H2 5758   4.741   1.929   2.581
 1932TIP3   OH2 5759   1.550   1.612   5.753
 1932TIP3    H1 5760   1.555   1.614   5.849
 1932TIP3    H2 5761   1.558   1.519   5.730
 1933TIP3   OH2 5762   2.886   4.694   0.165
 1933TIP3    H1 5763   2.906   4.787   0.160
 1933TIP3    H2 5764   2.971   4.651   0.175
 1934TIP3   OH2 5765   6.797   0.279   4.500
 1934TIP3    H1 5766   6.742   0.264   4.577
 1934TIP3    H2 5767   6.749   0.346   4.449
 1935TIP3   OH2 5768   7.138   5.118   0.698
 1935TIP3    H1 5769   7.120   5.077   0.782
 1935TIP3    H2 5770   7.129   5.212   0.714
 1936TIP3   OH2 5771   0.506   5.360   1.169
 1936TIP3    H1 5772   0.479   5.399   1.252
 1936TIP3    H2 5773   0.521   5.434   1.110
 1937TIP3   OH2 5774   3.763   4.903   0.745
 1937TIP3    H1 5775   3.789   4.984   0.702
 1937TIP3    H2 5776   3.700   4.929   0.812
 1938TIP3   OH2 5777   4.377   0.321   3.168
 1938TIP3    H1 5778   4.458   0.332   3.119
 1938TIP3    H2 5779   4.346   0.234   3.145
 1939TIP3   OH2 5780   0.513   0.476   1.094
 1939TIP3    H1 5781   0.579   0.525   1.144
 1939TIP3    H2 5782   0.558   0.451   1.014
 1940TIP3   OH2 5783   4.678   3.790   4.423
 1940TIP3    H1 5784   4.690   3.767   4.331
 1940TIP3    H2 5785   4.584   3.780   4.438
 1941TIP3   OH2 5786   6.917   3.573   1.158
 1941TIP3    H1 5787   7.006   3.540   1.165
 1941TIP3    H2 5788   6.883   3.535   1.077
 1942TIP3   OH2 5789   6.676   1.986   2.067
 1942TIP3    H1 5790   6.631   2.069   2.053
 1942TIP3    H2 5791   6.651   1.959   2.156
 1943TIP3   OH2 5792   0.093   5.503   0.503
 1943TIP3    H1 5793   0.100   5.459   0.588
 1943TIP3    H2 5794   0.179   5.490   0.463
 1944TIP3   OH2 5795   0.125   4.761   0.538
 1944TIP3    H1 5796   0.082   4.844   0.518
 1944TIP3    H2 5797   0.205   4.762   0.485
 1945TIP3   OH2 5798   2.688   0.563   4.242
 1945TIP3    H1 5799   2.779   0.581   4.267
 1945TIP3    H2 5800   2.659   0.496   4.304
 1946TIP3   OH2 5801   4.874   0.520   1.348
 1946TIP3    H1 5802   4.793   0.502   1.396
 1946TIP3    H2 5803   4.944   0.494   1.408
 1947TIP3   OH2 5804   0.260   1.109   3.384
 1947TIP3    H1 5805   0.194   1.151   3.329
 1947TIP3    H2 5806   0.226   1.021   3.400
 1948TIP3   OH2 5807   1.495   2.111   3.358
 1948TIP3    H1 5808   1.453   2.027   3.378
 1948TIP3    H2 5809   1.447   2.174   3.412
 1949TIP3   OH2 5810   2.552   0.009   4.115
 1949TIP3    H1 5811   2.554   0.033   4.022
 1949TIP3    H2 5812   2.629   0.051   4.153
 1950TIP3   OH2 5813   4.032   4.434   2.999
 1950TIP3    H1 5814   4.042   4.365   3.065
 1950TIP3    H2 5815   4.019   4.514   3.050
 1951TIP3   OH2 5816   4.958   2.659   2.884
 1951TIP3    H1 5817   4.872   2.665   2.925
 1951TIP3    H2 5818   4.942   2.614   2.801
 1952TIP3   OH2 5819   7.172   4.055   3.314
 1952TIP3    H1 5820   7.143   3.964   3.303
 1952TIP3    H2 5821   7.121   4.087   3.388
 1953TIP3   OH2 5822   6.718   0.836   4.798
 1953TIP3    H1 5823   6.741   0.876   4.882
 1953TIP3    H2 5824   6.625   0.855   4.786
 1954TIP3   OH2 5825   4.931   6.668   4.196
 1954TIP3    H1 5826   4.963   6.729   4.262
 1954TIP3    H2 5827   4.916   6.586   4.243
 1955TIP3   OH2 5828   0.323   0.493   2.545
 1955TIP3    H1 5829   0.336   0.412   2.595
 1955TIP3    H2 5830   0.316   0.464   2.454
 1956TIP3   OH2 5831   6.883   4.303   2.025
 1956TIP3    H1 5832   6.978   4.294   2.012
 1956TIP3    H2 5833   6.875   4.352   2.107
 1957TIP3   OH2 5834   5.455   5.700   1.609
 1957TIP3    H1 5835   5.448   5.605   1.594
 1957TIP3    H2 5836   5.495   5.707   1.696
 1958TIP3   OH2 5837   1.888   4.153   5.041
 1958TIP3    H1 5838   1.941   4.082   5.005
 1958TIP3    H2 5839   1.947   4.199   5.101
 1959TIP3   OH2 5840   2.765   0.229   3.441
 1959TIP3    H1 5841   2.833   0.202   3.504
 1959TIP3    H2 5842   2.804   0.213   3.355
 1960TIP3   OH2 5843   1.429   3.910   4.236
 1960TIP3    H1 5844   1.477   3.991   4.221
 1960TIP3    H2 5845   1.451   3.854   4.161
 1961TIP3   OH2 5846   0.604  -0.001   3.898
 1961TIP3    H1 5847   0.634   0.090   3.909
 1961TIP3    H2 5848   0.525  -0.006   3.951
 1962TIP3   OH2 5849   6.354   6.117   2.102
 1962TIP3    H1 5850   6.447   6.099   2.087
 1962TIP3    H2 5851   6.345   6.211   2.083
 1963TIP3   OH2 5852   2.662   1.108   2.226
 1963TIP3    H1 5853   2.673   1.077   2.136
 1963TIP3    H2 5854   2.660   1.203   2.218
 1964TIP3   OH2 5855   0.839   5.326   0.254
 1964TIP3    H1 5856   0.900   5.400   0.260
 1964TIP3    H2 5857   0.793   5.339   0.172
 1965TIP3   OH2 5858   6.883   3.523   1.429
 1965TIP3    H1 5859   6.839   3.437   1.430
 1965TIP3    H2 5860   6.911   3.534   1.339
 1966TIP3   OH2 5861   3.136   5.644   5.371
 1966TIP3    H1 5862   3.120   5.656   5.277
 1966TIP3    H2 5863   3.165   5.553   5.378
 1967TIP3   OH2 5864   0.904   1.715   0.675
 1967TIP3    H1 5865   0.981   1.738   0.727
 1967TIP3    H2 5866   0.833   1.707   0.739
 1968TIP3   OH2 5867   3.654   1.270   2.558
 1968TIP3    H1 5868   3.726   1.264   2.622
 1968TIP3    H2 5869   3.582   1.224   2.600
 1969TIP3   OH2 5870   6.637   0.221   4.713
 1969TIP3    H1 5871   6.683   0.151   4.760
 1969TIP3    H2 5872   6.561   0.240   4.768
 1970TIP3   OH2 5873   2.286   2.443   0.811
 1970TIP3    H1 5874   2.233   2.437   0.732
 1970TIP3    H2 5875   2.224   2.430   0.883
 1971TIP3   OH2 5876   3.963   6.130   1.238
 1971TIP3    H1 5877   3.882   6.180   1.236
 1971TIP3    H2 5878   4.019   6.178   1.299
 1972TIP3   OH2 5879   0.381   1.037   1.120
 1972TIP3    H1 5880   0.325   1.091   1.064
 1972TIP3    H2 5881   0.468   1.075   1.110
 1973TIP3   OH2 5882   3.905   2.230   3.160
 1973TIP3    H1 5883   3.934   2.275   3.239
 1973TIP3    H2 5884   3.858   2.153   3.192
 1974TIP3   OH2 5885   2.634   1.043   4.346
 1974TIP3    H1 5886   2.590   1.113   4.296
 1974TIP3    H2 5887   2.724   1.044   4.312
 1975TIP3   OH2 5888   2.684   5.288   3.456
 1975TIP3    H1 5889   2.743   5.347   3.409
 1975TIP3    H2 5890   2.717   5.201   3.437
 1976TIP3   OH2 5891   7.101   2.330   5.632
 1976TIP3    H1 5892   7.035   2.400   5.637
 1976TIP3    H2 5893   7.071   2.265   5.695
 1977TIP3   OH2 5894   4.715   5.408   4.024
 1977TIP3    H1 5895   4.643   5.357   4.061
 1977TIP3    H2 5896   4.748   5.355   3.952
 1978TIP3   OH2 5897   0.719   5.726   1.584
 1978TIP3    H1 5898   0.641   5.738   1.529
 1978TIP3    H2 5899   0.765   5.652   1.544
 1979TIP3   OH2 5900   3.775   3.676   4.852
 1979TIP3    H1 5901   3.870   3.664   4.839
 1979TIP3    H2 5902   3.737   3.590   4.830
 1980TIP3   OH2 5903   1.723   3.704   0.852
 1980TIP3    H1 5904   1.818   3.710   0.844
 1980TIP3    H2 5905   1.690   3.760   0.781
 1981TIP3   OH2 5906   2.503   0.118   5.221
 1981TIP3    H1 5907   2.534   0.027   5.223
 1981TIP3    H2 5908   2.421   0.115   5.172
 1982TIP3   OH2 5909   3.648   0.237   2.893
 1982TIP3    H1 5910   3.557   0.229   2.864
 1982TIP3    H2 5911   3.687   0.152   2.872
 1983TIP3   OH2 5912   0.646   3.070   1.059
 1983TIP3    H1 5913   0.654   3.001   1.124
 1983TIP3    H2 5914   0.626   3.024   0.978
 1984TIP3   OH2 5915   4.175   3.210   1.874
 1984TIP3    H1 5916   4.141   3.165   1.951
 1984TIP3    H2 5917   4.100   3.257   1.838
 1985TIP3   OH2 5918   2.990   2.008   0.105
 1985TIP3    H1 5919   2.980   1.914   0.122
 1985TIP3    H2 5920   3.039   2.040   0.181
 1986TIP3   OH2 5921   0.576   5.192   1.980
 1986TIP3    H1 5922   0.521   5.262   2.014
 1986TIP3    H2 5923   0.658   5.200   2.028
 1987TIP3   OH2 5924   1.457   3.410   4.395
 1987TIP3    H1 5925   1.395   3.351   4.437
 1987TIP3    H2 5926   1.489   3.361   4.319
 1988TIP3   OH2 5927   1.146   0.906   4.639
 1988TIP3    H1 5928   1.224   0.952   4.608
 1988TIP3    H2 5929   1.136   0.832   4.579
 1989TIP3   OH2 5930   4.430   1.083   4.656
 1989TIP3    H1 5931   4.454   1.157   4.601
 1989TIP3    H2 5932   4.367   1.118   4.718
 1990TIP3   OH2 5933   3.994   0.065   0.448
 1990TIP3    H1 5934   4.039   0.140   0.486
 1990TIP3    H2 5935   3.960   0.097   0.365
 1991TIP3   OH2 5936   3.164   3.436   1.207
 1991TIP3    H1 5937   3.237   3.480   1.163
 1991TIP3    H2 5938   3.192   3.345   1.213
 1992TIP3   OH2 5939   2.715   2.078   5.719
 1992TIP3    H1 5940   2.731   2.173   5.716
 1992TIP3    H2 5941   2.796   2.039   5.687
 1993TIP3   OH2 5942   5.524   4.072   0.716
 1993TIP3    H1 5943   5.526   3.977   0.704
 1993TIP3    H2 5944   5.606   4.092   0.761
 1994TIP3   OH2 5945   4.279   4.843   3.322
 1994TIP3    H1 5946   4.252   4.751   3.330
 1994TIP3    H2 5947   4.231   4.876   3.246
 1995TIP3   OH2 5948   3.477   4.602   2.877
 1995TIP3    H1 5949   3.417   4.607   2.802
 1995TIP3    H2 5950   3.427   4.637   2.950
 1996TIP3   OH2 5951   4.609   3.345   0.694
 1996TIP3    H1 5952   4.601   3.261   0.739
 1996TIP3    H2 5953   4.542   3.400   0.735
 1997TIP3   OH2 5954   3.391   1.530   1.805
 1997TIP3    H1 5955   3.425   1.441   1.794
 1997TIP3    H2 5956   3.358   1.532   1.894
 1998TIP3   OH2 5957   2.077   4.813   3.989
 1998TIP3    H1 5958   2.116   4.873   4.053
 1998TIP3    H2 5959   2.098   4.852   3.904
 1999TIP3   OH2 5960   4.656   0.286   0.152
 1999TIP3    H1 5961   4.568   0.279   0.116
 1999TIP3    H2 5962   4.691   0.197   0.149
 2000TIP3   OH2 5963   3.196   4.082   2.791
 2000TIP3    H1 5964   3.209   4.127   2.707
 2000TIP3    H2 5965   3.222   3.992   2.774
 2001TIP3   OH2 5966   2.402   0.441   3.478
 2001TIP3    H1 5967   2.451   0.373   3.430
 2001TIP3    H2 5968   2.312   0.430   3.448
 2002TIP3   OH2 5969   3.439   3.696   0.791
 2002TIP3    H1 5970   3.361   3.723   0.743
 2002TIP3    H2 5971   3.468   3.776   0.836
 2003TIP3   OH2 5972   4.162   3.054   4.945
 2003TIP3    H1 5973   4.109   3.117   4.896
 2003TIP3    H2 5974   4.238   3.038   4.890
 2004TIP3   OH2 5975   4.445   2.143   4.341
 2004TIP3    H1 5976   4.379   2.212   4.341
 2004TIP3    H2 5977   4.525   2.186   4.370
 2005TIP3   OH2 5978   0.826   1.380   2.636
 2005TIP3    H1 5979   0.782   1.409   2.555
 2005TIP3    H2 5980   0.855   1.461   2.678
 2006TIP3   OH2 5981   1.383   0.553   2.935
 2006TIP3    H1 5982   1.406   0.465   2.965
 2006TIP3    H2 5983   1.343   0.594   3.012
 2007TIP3   OH2 5984   0.522   6.123   5.533
 2007TIP3    H1 5985   0.437   6.167   5.533
 2007TIP3    H2 5986   0.549   6.124   5.441
 2008TIP3   OH2 5987   4.573   3.114   0.265
 2008TIP3    H1 5988   4.583   3.186   0.202
 2008TIP3    H2 5989   4.540   3.157   0.345
 2009TIP3   OH2 5990   2.128   0.315   2.618
 2009TIP3    H1 5991   2.099   0.239   2.567
 2009TIP3    H2 5992   2.083   0.307   2.702
 2010TIP3   OH2 5993   4.568   6.635   0.039
 2010TIP3    H1 5994   4.476   6.657   0.048
 2010TIP3    H2 5995   4.575   6.544   0.069
 2011TIP3   OH2 5996   0.550   5.602   1.023
 2011TIP3    H1 5997   0.567   5.603   0.929
 2011TIP3    H2 5998   0.548   5.694   1.049
 2012TIP3   OH2 5999   3.797   3.393   3.828
 2012TIP3    H1 6000   3.766   3.453   3.896
 2012TIP3    H2 6001   3.780   3.306   3.864
 2013TIP3   OH2 6002   2.485   4.709   4.682
 2013TIP3    H1 6003   2.444   4.687   4.765
 2013TIP3    H2 6004   2.412   4.726   4.622
 2014TIP3   OH2 6005   5.757   2.463   0.158
 2014TIP3    H1 6006   5.852   2.455   0.145
 2014TIP3    H2 6007   5.719   2.435   0.075
 2015TIP3   OH2 6008   0.528   1.335   0.289
 2015TIP3    H1 6009   0.537   1.413   0.343
 2015TIP3    H2 6010   0.433   1.322   0.281
 2016TIP3   OH2 6011   5.901   1.232   1.992
 2016TIP3    H1 6012   5.928   1.268   2.077
 2016TIP3    H2 6013   5.953   1.280   1.928
 2017TIP3   OH2 6014   2.561   4.585   5.209
 2017TIP3    H1 6015   2.510   4.509   5.239
 2017TIP3    H2 6016   2.652   4.555   5.209
 2018TIP3   OH2 6017   6.062   0.104   3.326
 2018TIP3    H1 6018   6.063   0.015   3.361
 2018TIP3    H2 6019   6.007   0.099   3.248
 2019TIP3   OH2 6020   3.872   3.274   3.389
 2019TIP3    H1 6021   3.873   3.197   3.333
 2019TIP3    H2 6022   3.817   3.249   3.463
 2020TIP3   OH2 6023   6.737   0.872   3.012
 2020TIP3    H1 6024   6.808   0.857   3.074
 2020TIP3    H2 6025   6.673   0.803   3.031
 2021TIP3   OH2 6026   7.168   3.346   3.714
 2021TIP3    H1 6027   7.075   3.322   3.724
 2021TIP3    H2 6028   7.168   3.442   3.716
 2022TIP3   OH2 6029   4.243   2.586   2.331
 2022TIP3    H1 6030   4.213   2.668   2.370
 2022TIP3    H2 6031   4.338   2.592   2.332
 2023TIP3   OH2 6032   5.176   1.579   1.461
 2023TIP3    H1 6033   5.090   1.571   1.502
 2023TIP3    H2 6034   5.186   1.498   1.411
 2024TIP3   OH2 6035   1.016   2.620   3.351
 2024TIP3    H1 6036   0.960   2.637   3.276
 2024TIP3    H2 6037   0.963   2.565   3.409
 2025TIP3   OH2 6038   0.421   1.804   0.355
 2025TIP3    H1 6039   0.438   1.895   0.331
 2025TIP3    H2 6040   0.440   1.800   0.449
 2026TIP3   OH2 6041   4.566   0.163   2.682
 2026TIP3    H1 6042   4.603   0.228   2.623
 2026TIP3    H2 6043   4.483   0.138   2.642
 2027TIP3   OH2 6044   5.358   4.596   0.825
 2027TIP3    H1 6045   5.433   4.536   0.829
 2027TIP3    H2 6046   5.397   4.683   0.833
 2028TIP3   OH2 6047   4.313   0.534   3.708
 2028TIP3    H1 6048   4.287   0.458   3.655
 2028TIP3    H2 6049   4.384   0.575   3.659
 2029TIP3   OH2 6050   2.473   0.364   0.928
 2029TIP3    H1 6051   2.567   0.354   0.942
 2029TIP3    H2 6052   2.452   0.450   0.967
 2030TIP3   OH2 6053   4.270   0.363   0.314
 2030TIP3    H1 6054   4.186   0.409   0.324
 2030TIP3    H2 6055   4.321   0.392   0.390
 2031TIP3   OH2 6056   4.261   6.269   4.076
 2031TIP3    H1 6057   4.227   6.359   4.070
 2031TIP3    H2 6058   4.269   6.253   4.170
 2032TIP3   OH2 6059   4.903   6.374   1.001
 2032TIP3    H1 6060   4.919   6.448   1.060
 2032TIP3    H2 6061   4.964   6.306   1.031
 2033TIP3   OH2 6062   0.099   3.764   0.392
 2033TIP3    H1 6063   0.119   3.853   0.418
 2033TIP3    H2 6064   0.081   3.769   0.299
 2034TIP3   OH2 6065   6.023   0.193   1.430
 2034TIP3    H1 6066   5.969   0.119   1.400
 2034TIP3    H2 6067   6.097   0.152   1.475
 2035TIP3   OH2 6068   5.252   1.383   4.503
 2035TIP3    H1 6069   5.249   1.410   4.595
 2035TIP3    H2 6070   5.269   1.464   4.454
 2036TIP3   OH2 6071   4.182   4.376   0.738
 2036TIP3    H1 6072   4.140   4.451   0.697
 2036TIP3    H2 6073   4.120   4.304   0.726
 2037TIP3   OH2 6074   2.381   2.320   1.143
 2037TIP3    H1 6075   2.424   2.351   1.223
 2037TIP3    H2 6076   2.446   2.335   1.074
 2038TIP3   OH2 6077   0.278   0.155   3.762
 2038TIP3    H1 6078   0.253   0.064   3.747
 2038TIP3    H2 6079   0.216   0.187   3.827
 2039TIP3   OH2 6080   1.094   5.800   3.850
 2039TIP3    H1 6081   1.053   5.714   3.846
 2039TIP3    H2 6082   1.130   5.814   3.762
 2040TIP3   OH2 6083   5.608   1.751   2.907
 2040TIP3    H1 6084   5.578   1.842   2.915
 2040TIP3    H2 6085   5.553   1.714   2.837
 2041TIP3   OH2 6086   2.827   2.234   0.032
 2041TIP3    H1 6087   2.876   2.170   0.085
 2041TIP3    H2 6088   2.868   2.228  -0.055
 2042TIP3   OH2 6089   6.569   6.637   1.394
 2042TIP3    H1 6090   6.549   6.594   1.477
 2042TIP3    H2 6091   6.494   6.619   1.338
 2043TIP3   OH2 6092   0.916   3.887   2.815
 2043TIP3    H1 6093   0.924   3.873   2.910
 2043TIP3    H2 6094   0.996   3.850   2.779
 2044TIP3   OH2 6095   0.106   6.468   5.928
 2044TIP3    H1 6096   0.071   6.415   6.000
 2044TIP3    H2 6097   0.048   6.449   5.854
 2045TIP3   OH2 6098   1.515   0.095   2.333
 2045TIP3    H1 6099   1.561   0.105   2.250
 2045TIP3    H2 6100   1.554   0.018   2.373
 2046TIP3   OH2 6101   1.568   2.421   5.145
 2046TIP3    H1 6102   1.575   2.393   5.236
 2046TIP3    H2 6103   1.487   2.380   5.113
 2047TIP3   OH2 6104   6.662   3.338   5.108
 2047TIP3    H1 6105   6.571   3.317   5.087
 2047TIP3    H2 6106   6.670   3.319   5.201
 2048TIP3   OH2 6107   2.995   3.883   0.382
 2048TIP3    H1 6108   2.931   3.943   0.342
 2048TIP3    H2 6109   2.998   3.808   0.322
 2049TIP3   OH2 6110   4.784   0.986   5.661
 2049TIP3    H1 6111   4.752   0.953   5.745
 2049TIP3    H2 6112   4.723   0.950   5.596
 2050TIP3   OH2 6113   0.570   2.871   0.433
 2050TIP3    H1 6114   0.523   2.790   0.414
 2050TIP3    H2 6115   0.650   2.843   0.477
 2051TIP3   OH2 6116   2.464   0.257   1.795
 2051TIP3    H1 6117   2.547   0.304   1.792
 2051TIP3    H2 6118   2.436   0.265   1.886
 2052TIP3   OH2 6119   3.743   4.723   5.042
 2052TIP3    H1 6120   3.783   4.637   5.031
 2052TIP3    H2 6121   3.815   4.785   5.031
 2053TIP3   OH2 6122   5.966   3.533   4.935
 2053TIP3    H1 6123   5.968   3.479   5.014
 2053TIP3    H2 6124   5.881   3.513   4.895
 2054TIP3   OH2 6125   3.307   4.659   0.092
 2054TIP3    H1 6126   3.356   4.740   0.096
 2054TIP3    H2 6127   3.280   4.642   0.182
 2055TIP3   OH2 6128   1.253   1.428   2.033
 2055TIP3    H1 6129   1.294   1.367   1.971
 2055TIP3    H2 6130   1.252   1.512   1.987
 2056TIP3   OH2 6131   0.889   0.483  -0.041
 2056TIP3    H1 6132   0.901   0.393  -0.013
 2056TIP3    H2 6133   0.912   0.536   0.035
 2057TIP3   OH2 6134   5.042   0.060   2.611
 2057TIP3    H1 6135   4.958   0.025   2.642
 2057TIP3    H2 6136   5.068   0.122   2.679
 2058TIP3   OH2 6137   3.420   3.501   4.175
 2058TIP3    H1 6138   3.470   3.504   4.257
 2058TIP3    H2 6139   3.329   3.509   4.202
 2059TIP3   OH2 6140   3.923   0.781   2.322
 2059TIP3    H1 6141   3.933   0.873   2.346
 2059TIP3    H2 6142   3.829   0.770   2.307
 2060TIP3   OH2 6143   4.028   2.256   4.625
 2060TIP3    H1 6144   3.942   2.265   4.666
 2060TIP3    H2 6145   4.078   2.201   4.686
 2061TIP3   OH2 6146   5.947   4.994   2.780
 2061TIP3    H1 6147   5.888   4.922   2.757
 2061TIP3    H2 6148   6.032   4.952   2.795
 2062TIP3   OH2 6149   2.341   6.007   2.577
 2062TIP3    H1 6150   2.354   5.988   2.484
 2062TIP3    H2 6151   2.427   5.996   2.616
 2063TIP3   OH2 6152   1.704   4.786   2.973
 2063TIP3    H1 6153   1.786   4.740   2.952
 2063TIP3    H2 6154   1.650   4.721   3.017
 2064TIP3   OH2 6155   1.888   0.093   4.909
 2064TIP3    H1 6156   1.953   0.148   4.953
 2064TIP3    H2 6157   1.814   0.152   4.892
 2065TIP3   OH2 6158   4.587   5.238   0.866
 2065TIP3    H1 6159   4.552   5.285   0.943
 2065TIP3    H2 6160   4.600   5.149   0.896
 2066TIP3   OH2 6161   6.801   5.531   4.715
 2066TIP3    H1 6162   6.734   5.571   4.659
 2066TIP3    H2 6163   6.882   5.542   4.665
 2067TIP3   OH2 6164   4.468   0.579   0.421
 2067TIP3    H1 6165   4.435   0.667   0.438
 2067TIP3    H2 6166   4.530   0.590   0.349
 2068TIP3   OH2 6167   2.034   6.644   1.493
 2068TIP3    H1 6168   2.126   6.670   1.491
 2068TIP3    H2 6169   1.985   6.726   1.493
 2069TIP3   OH2 6170   0.646   2.730   1.813
 2069TIP3    H1 6171   0.590   2.662   1.775
 2069TIP3    H2 6172   0.736   2.701   1.793
 2070TIP3   OH2 6173   1.576   0.584   1.516
 2070TIP3    H1 6174   1.613   0.672   1.516
 2070TIP3    H2 6175   1.591   0.550   1.428
 2071TIP3   OH2 6176   0.635   2.472   3.255
 2071TIP3    H1 6177   0.596   2.384   3.256
 2071TIP3    H2 6178   0.560   2.531   3.258
 2072TIP3   OH2 6179   0.746   6.540   2.456
 2072TIP3    H1 6180   0.793   6.473   2.505
 2072TIP3    H2 6181   0.710   6.598   2.524
 2073TIP3   OH2 6182   3.230   6.522   3.942
 2073TIP3    H1 6183   3.238   6.482   4.029
 2073TIP3    H2 6184   3.191   6.607   3.958
 2074TIP3   OH2 6185   5.289   1.233   3.885
 2074TIP3    H1 6186   5.306   1.322   3.916
 2074TIP3    H2 6187   5.194   1.225   3.884
 2075TIP3   OH2 6188   6.447   4.847   1.199
 2075TIP3    H1 6189   6.408   4.810   1.120
 2075TIP3    H2 6190   6.511   4.782   1.227
 2076TIP3   OH2 6191   5.757   4.198   4.143
 2076TIP3    H1 6192   5.723   4.258   4.077
 2076TIP3    H2 6193   5.817   4.252   4.195
 2077TIP3   OH2 6194   1.673   5.872   5.737
 2077TIP3    H1 6195   1.656   5.779   5.720
 2077TIP3    H2 6196   1.696   5.875   5.830
 2078TIP3   OH2 6197   0.737   1.379   1.652
 2078TIP3    H1 6198   0.776   1.334   1.576
 2078TIP3    H2 6199   0.754   1.321   1.726
 2079TIP3   OH2 6200   0.016   2.903   1.831
 2079TIP3    H1 6201   0.053   2.836   1.773
 2079TIP3    H2 6202   0.086   2.922   1.893
 2080TIP3   OH2 6203   1.656   0.108   3.271
 2080TIP3    H1 6204   1.705   0.190   3.262
 2080TIP3    H2 6205   1.717   0.048   3.315
 2081TIP3   OH2 6206   3.417   0.544   1.907
 2081TIP3    H1 6207   3.399   0.536   2.001
 2081TIP3    H2 6208   3.428   0.454   1.877
 2082TIP3   OH2 6209   4.171   1.024   3.689
 2082TIP3    H1 6210   4.242   1.044   3.629
 2082TIP3    H2 6211   4.191   1.074   3.768
 2083TIP3   OH2 6212   1.452   6.653   3.167
 2083TIP3    H1 6213   1.536   6.677   3.206
 2083TIP3    H2 6214   1.474   6.604   3.088
 2084TIP3   OH2 6215   0.764   2.366   0.968
 2084TIP3    H1 6216   0.844   2.394   0.923
 2084TIP3    H2 6217   0.796   2.324   1.048
 2085TIP3   OH2 6218   6.453   6.502   2.112
 2085TIP3    H1 6219   6.387   6.469   2.173
 2085TIP3    H2 6220   6.534   6.459   2.137
 2086TIP3   OH2 6221   4.015   2.397   1.256
 2086TIP3    H1 6222   3.972   2.313   1.238
 2086TIP3    H2 6223   4.108   2.380   1.243
 2087TIP3   OH2 6224   0.350   2.428   2.003
 2087TIP3    H1 6225   0.312   2.371   2.070
 2087TIP3    H2 6226   0.275   2.475   1.966
 2088TIP3   OH2 6227   3.678   4.697   0.261
 2088TIP3    H1 6228   3.650   4.608   0.236
 2088TIP3    H2 6229   3.611   4.754   0.223
 2089TIP3   OH2 6230   3.862   5.784   1.430
 2089TIP3    H1 6231   3.852   5.716   1.497
 2089TIP3    H2 6232   3.954   5.778   1.403
 2090TIP3   OH2 6233   4.324   6.026   4.927
 2090TIP3    H1 6234   4.298   6.062   5.012
 2090TIP3    H2 6235   4.252   5.969   4.902
 2091TIP3   OH2 6236   2.100   1.159   0.151
 2091TIP3    H1 6237   2.139   1.243   0.127
 2091TIP3    H2 6238   2.026   1.182   0.207
 2092TIP3   OH2 6239   2.998   6.702   2.992
 2092TIP3    H1 6240   2.920   6.753   3.015
 2092TIP3    H2 6241   2.972   6.652   2.915
 2093TIP3   OH2 6242   4.928   2.407   2.669
 2093TIP3    H1 6243   5.007   2.405   2.722
 2093TIP3    H2 6244   4.960   2.406   2.578
 2094TIP3   OH2 6245   5.191   5.650   5.661
 2094TIP3    H1 6246   5.201   5.710   5.587
 2094TIP3    H2 6247   5.117   5.594   5.636
 2095TIP3   OH2 6248   7.119   6.281   5.215
 2095TIP3    H1 6249   7.050   6.324   5.164
 2095TIP3    H2 6250   7.075   6.207   5.256
 2096TIP3   OH2 6251   5.479   2.765   0.131
 2096TIP3    H1 6252   5.472   2.771   0.036
 2096TIP3    H2 6253   5.570   2.788   0.150
 2097TIP3   OH2 6254   0.416   6.310   5.797
 2097TIP3    H1 6255   0.394   6.378   5.861
 2097TIP3    H2 6256   0.484   6.258   5.840
 2098TIP3   OH2 6257   6.208   6.466   4.879
 2098TIP3    H1 6258   6.236   6.556   4.862
 2098TIP3    H2 6259   6.266   6.436   4.949
 2099TIP3   OH2 6260   5.576   1.117   2.095
 2099TIP3    H1 6261   5.554   1.194   2.147
 2099TIP3    H2 6262   5.658   1.139   2.052
 2100TIP3   OH2 6263   0.780   2.774   2.840
 2100TIP3    H1 6264   0.715   2.709   2.814
 2100TIP3    H2 6265   0.861   2.746   2.799
 2101TIP3   OH2 6266   2.357   3.960   4.177
 2101TIP3    H1 6267   2.332   4.024   4.243
 2101TIP3    H2 6268   2.429   3.910   4.216
 2102TIP3   OH2 6269   2.753   1.642   2.582
 2102TIP3    H1 6270   2.718   1.595   2.507
 2102TIP3    H2 6271   2.821   1.585   2.618
 2103TIP3   OH2 6272   2.471   3.614   0.829
 2103TIP3    H1 6273   2.403   3.680   0.842
 2103TIP3    H2 6274   2.513   3.607   0.915
 2104TIP3   OH2 6275   5.896   3.870   0.352
 2104TIP3    H1 6276   5.871   3.790   0.399
 2104TIP3    H2 6277   5.936   3.839   0.271
 2105TIP3   OH2 6278   1.292   2.526   3.562
 2105TIP3    H1 6279   1.259   2.494   3.478
 2105TIP3    H2 6280   1.386   2.537   3.548
 2106TIP3   OH2 6281   7.182  -0.045   3.271
 2106TIP3    H1 6282   7.252  -0.091   3.225
 2106TIP3    H2 6283   7.164   0.031   3.217
 2107TIP3   OH2 6284   4.826   4.644   5.193
 2107TIP3    H1 6285   4.742   4.679   5.163
 2107TIP3    H2 6286   4.814   4.631   5.287
 2108TIP3   OH2 6287   3.820   3.054   2.604
 2108TIP3    H1 6288   3.833   3.075   2.696
 2108TIP3    H2 6289   3.902   3.013   2.576
 2109TIP3   OH2 6290   5.018   4.061   5.067
 2109TIP3    H1 6291   4.987   4.147   5.039
 2109TIP3    H2 6292   5.044   4.017   4.986
 2110TIP3   OH2 6293   4.860   0.708   0.157
 2110TIP3    H1 6294   4.778   0.662   0.176
 2110TIP3    H2 6295   4.923   0.638   0.141
 2111TIP3   OH2 6296   2.037   1.012   4.844
 2111TIP3    H1 6297   2.118   0.977   4.882
 2111TIP3    H2 6298   2.055   1.020   4.751
 2112TIP3   OH2 6299   4.630   5.334   1.738
 2112TIP3    H1 6300   4.603   5.344   1.646
 2112TIP3    H2 6301   4.556   5.369   1.788
 2113TIP3   OH2 6302   4.064   4.261   1.467
 2113TIP3    H1 6303   4.115   4.328   1.421
 2113TIP3    H2 6304   4.086   4.180   1.422
 2114TIP3   OH2 6305   5.381   5.665   3.710
 2114TIP3    H1 6306   5.377   5.578   3.750
 2114TIP3    H2 6307   5.332   5.722   3.770
 2115TIP3   OH2 6308   2.621   3.205   4.564
 2115TIP3    H1 6309   2.536   3.171   4.536
 2115TIP3    H2 6310   2.624   3.187   4.658
 2116TIP3   OH2 6311   3.839   2.079   0.045
 2116TIP3    H1 6312   3.840   2.091  -0.050
 2116TIP3    H2 6313   3.822   1.986   0.057
 2117TIP3   OH2 6314   2.289   2.070   1.039
 2117TIP3    H1 6315   2.291   2.166   1.042
 2117TIP3    H2 6316   2.313   2.049   0.949
 2118TIP3   OH2 6317   4.558   2.811   2.355
 2118TIP3    H1 6318   4.507   2.884   2.390
 2118TIP3    H2 6319   4.634   2.805   2.412
 2119TIP3   OH2 6320   5.839   1.817   0.007
 2119TIP3    H1 6321   5.822   1.769   0.089
 2119TIP3    H2 6322   5.784   1.895   0.013
 2120TIP3   OH2 6323   3.109   3.666   5.265
 2120TIP3    H1 6324   3.156   3.633   5.188
 2120TIP3    H2 6325   3.051   3.594   5.290
 2121TIP3   OH2 6326   3.029   6.152   1.985
 2121TIP3    H1 6327   3.094   6.150   2.055
 2121TIP3    H2 6328   2.948   6.181   2.029
 2122TIP3   OH2 6329   4.046   0.789   4.704
 2122TIP3    H1 6330   3.960   0.805   4.742
 2122TIP3    H2 6331   4.100   0.758   4.777
 2123TIP3   OH2 6332   2.278   0.474   5.105
 2123TIP3    H1 6333   2.253   0.566   5.099
 2123TIP3    H2 6334   2.346   0.464   5.039
 2124TIP3   OH2 6335   5.854   0.714   5.636
 2124TIP3    H1 6336   5.940   0.755   5.638
 2124TIP3    H2 6337   5.796   0.782   5.600
 2125TIP3   OH2 6338   2.718   6.496   4.006
 2125TIP3    H1 6339   2.657   6.425   3.987
 2125TIP3    H2 6340   2.802   6.453   4.024
 2126TIP3   OH2 6341   1.115   6.553   0.407
 2126TIP3    H1 6342   1.107   6.457   0.408
 2126TIP3    H2 6343   1.128   6.577   0.499
 2127TIP3   OH2 6344   5.471   2.218   5.548
 2127TIP3    H1 6345   5.474   2.297   5.601
 2127TIP3    H2 6346   5.520   2.153   5.598
 2128TIP3   OH2 6347   6.194   1.769   3.064
 2128TIP3    H1 6348   6.243   1.716   3.001
 2128TIP3    H2 6349   6.109   1.782   3.023
 2129TIP3   OH2 6350   2.141   1.440   0.180
 2129TIP3    H1 6351   2.218   1.481   0.219
 2129TIP3    H2 6352   2.069   1.501   0.201
 2130TIP3   OH2 6353   3.901   5.588   1.106
 2130TIP3    H1 6354   3.995   5.582   1.126
 2130TIP3    H2 6355   3.880   5.680   1.116
 2131TIP3   OH2 6356   0.141   6.448   2.707
 2131TIP3    H1 6357   0.237   6.446   2.712
 2131TIP3    H2 6358   0.114   6.358   2.727
 2132TIP3   OH2 6359   1.817   5.580   0.108
 2132TIP3    H1 6360   1.808   5.488   0.132
 2132TIP3    H2 6361   1.859   5.621   0.184
 2133TIP3   OH2 6362   2.912   6.276   0.527
 2133TIP3    H1 6363   2.930   6.232   0.610
 2133TIP3    H2 6364   2.903   6.205   0.463
 2134TIP3   OH2 6365   3.054   0.097   1.670
 2134TIP3    H1 6366   3.021   0.114   1.582
 2134TIP3    H2 6367   3.118   0.027   1.659
 2135TIP3   OH2 6368   0.832   6.016   4.603
 2135TIP3    H1 6369   0.832   5.941   4.544
 2135TIP3    H2 6370   0.754   6.066   4.578
 2136TIP3   OH2 6371   1.455   2.379   3.777
 2136TIP3    H1 6372   1.378   2.429   3.752
 2136TIP3    H2 6373   1.512   2.444   3.819
 2137TIP3   OH2 6374   2.797   4.863   3.629
 2137TIP3    H1 6375   2.851   4.802   3.579
 2137TIP3    H2 6376   2.710   4.822   3.630
 2138TIP3   OH2 6377   4.159   4.653   2.245
 2138TIP3    H1 6378   4.159   4.601   2.326
 2138TIP3    H2 6379   4.094   4.722   2.261
 2139TIP3   OH2 6380   4.648   4.848   4.819
 2139TIP3    H1 6381   4.705   4.917   4.852
 2139TIP3    H2 6382   4.697   4.808   4.747
 2140TIP3   OH2 6383   1.490   4.729   1.437
 2140TIP3    H1 6384   1.554   4.722   1.508
 2140TIP3    H2 6385   1.455   4.640   1.428
 2141TIP3   OH2 6386   5.022   6.135   0.373
 2141TIP3    H1 6387   5.055   6.218   0.407
 2141TIP3    H2 6388   5.097   6.095   0.329
 2142TIP3   OH2 6389   6.066   0.574   2.870
 2142TIP3    H1 6390   6.073   0.536   2.782
 2142TIP3    H2 6391   6.070   0.499   2.929
 2143TIP3   OH2 6392   5.264   6.356   5.264
 2143TIP3    H1 6393   5.205   6.403   5.322
 2143TIP3    H2 6394   5.275   6.413   5.188
 2144TIP3   OH2 6395   0.201   4.046   2.684
 2144TIP3    H1 6396   0.143   4.040   2.760
 2144TIP3    H2 6397   0.282   4.003   2.711
 2145TIP3   OH2 6398   2.641   1.133   1.074
 2145TIP3    H1 6399   2.676   1.202   1.130
 2145TIP3    H2 6400   2.711   1.067   1.071
 2146TIP3   OH2 6401   5.607   2.731   3.696
 2146TIP3    H1 6402   5.699   2.715   3.672
 2146TIP3    H2 6403   5.581   2.653   3.745
 2147TIP3   OH2 6404   4.156   6.808   5.335
 2147TIP3    H1 6405   4.209   6.739   5.375
 2147TIP3    H2 6406   4.087   6.761   5.287
 2148TIP3   OH2 6407   5.266   4.718   2.853
 2148TIP3    H1 6408   5.216   4.783   2.803
 2148TIP3    H2 6409   5.225   4.716   2.939
 2149TIP3   OH2 6410   0.680   6.378   5.592
 2149TIP3    H1 6411   0.613   6.321   5.629
 2149TIP3    H2 6412   0.631   6.447   5.547
 2150TIP3   OH2 6413   6.130   4.875   2.089
 2150TIP3    H1 6414   6.113   4.808   2.023
 2150TIP3    H2 6415   6.179   4.829   2.157
 2151TIP3   OH2 6416   4.430   6.719   4.732
 2151TIP3    H1 6417   4.466   6.737   4.645
 2151TIP3    H2 6418   4.488   6.653   4.769
 2152TIP3   OH2 6419   6.283   0.360   1.054
 2152TIP3    H1 6420   6.351   0.426   1.038
 2152TIP3    H2 6421   6.219   0.404   1.109
 2153TIP3   OH2 6422   5.182   4.902   2.457
 2153TIP3    H1 6423   5.196   4.992   2.429
 2153TIP3    H2 6424   5.115   4.868   2.398
 2154TIP3   OH2 6425   3.930   1.873   4.072
 2154TIP3    H1 6426   3.936   1.888   3.977
 2154TIP3    H2 6427   3.896   1.784   4.080
 2155TIP3   OH2 6428   0.978   6.884   3.861
 2155TIP3    H1 6429   1.049   6.917   3.915
 2155TIP3    H2 6430   0.949   6.805   3.905
 2156TIP3   OH2 6431   0.398   5.781   1.760
 2156TIP3    H1 6432   0.382   5.869   1.727
 2156TIP3    H2 6433   0.455   5.794   1.836
 2157TIP3   OH2 6434   1.687   1.285   4.568
 2157TIP3    H1 6435   1.656   1.203   4.531
 2157TIP3    H2 6436   1.632   1.353   4.528
 2158TIP3   OH2 6437   1.812   5.653   1.755
 2158TIP3    H1 6438   1.773   5.739   1.770
 2158TIP3    H2 6439   1.873   5.641   1.828
 2159TIP3   OH2 6440   4.273   2.999   2.185
 2159TIP3    H1 6441   4.340   3.063   2.209
 2159TIP3    H2 6442   4.318   2.939   2.126
 2160TIP3   OH2 6443   1.421   5.094   1.535
 2160TIP3    H1 6444   1.490   5.160   1.542
 2160TIP3    H2 6445   1.445   5.043   1.458
 2161TIP3   OH2 6446   4.361   4.631   5.602
 2161TIP3    H1 6447   4.266   4.623   5.605
 2161TIP3    H2 6448   4.379   4.668   5.515
 2162TIP3   OH2 6449   4.712   0.673   1.088
 2162TIP3    H1 6450   4.779   0.690   1.022
 2162TIP3    H2 6451   4.752   0.608   1.147
 2163TIP3   OH2 6452   1.142   3.119   4.243
 2163TIP3    H1 6453   1.195   3.039   4.232
 2163TIP3    H2 6454   1.054   3.092   4.217
 2164TIP3   OH2 6455   7.021   1.966   1.530
 2164TIP3    H1 6456   7.061   1.966   1.443
 2164TIP3    H2 6457   7.095   1.966   1.591
 2165TIP3   OH2 6458   2.337   6.569   1.024
 2165TIP3    H1 6459   2.423   6.610   1.018
 2165TIP3    H2 6460   2.275   6.642   1.016
 2166TIP3   OH2 6461   6.793   0.176   1.519
 2166TIP3    H1 6462   6.752   0.262   1.530
 2166TIP3    H2 6463   6.730   0.114   1.556
 2167TIP3   OH2 6464   1.212   4.155   2.207
 2167TIP3    H1 6465   1.163   4.230   2.176
 2167TIP3    H2 6466   1.153   4.110   2.267
 2168TIP3   OH2 6467   0.052   4.235   2.320
 2168TIP3    H1 6468   0.131   4.180   2.319
 2168TIP3    H2 6469   0.001   4.205   2.245
 2169TIP3   OH2 6470   5.984   0.663   1.860
 2169TIP3    H1 6471   6.044   0.621   1.921
 2169TIP3    H2 6472   5.910   0.691   1.914
 2170TIP3   OH2 6473   2.552   4.159   1.635
 2170TIP3    H1 6474   2.638   4.162   1.676
 2170TIP3    H2 6475   2.507   4.087   1.680
 2171TIP3   OH2 6476   3.766   3.826   3.950
 2171TIP3    H1 6477   3.773   3.791   3.862
 2171TIP3    H2 6478   3.832   3.895   3.954
 2172TIP3   OH2 6479   1.232   2.780   0.141
 2172TIP3    H1 6480   1.201   2.757   0.053
 2172TIP3    H2 6481   1.275   2.700   0.172
 2173TIP3   OH2 6482   6.239   5.580   1.204
 2173TIP3    H1 6483   6.162   5.534   1.239
 2173TIP3    H2 6484   6.312   5.544   1.253
 2174TIP3   OH2 6485   4.945   3.193   3.994
 2174TIP3    H1 6486   4.925   3.286   3.983
 2174TIP3    H2 6487   4.950   3.182   4.089
 2175TIP3   OH2 6488   6.131   5.707   0.547
 2175TIP3    H1 6489   6.073   5.782   0.564
 2175TIP3    H2 6490   6.087   5.658   0.477
 2176TIP3   OH2 6491   1.571   2.748   5.624
 2176TIP3    H1 6492   1.485   2.758   5.583
 2176TIP3    H2 6493   1.633   2.761   5.552
 2177TIP3   OH2 6494   2.324   5.174   4.622
 2177TIP3    H1 6495   2.239   5.206   4.590
 2177TIP3    H2 6496   2.370   5.254   4.648
 2178TIP3   OH2 6497   4.837   3.876   5.164
 2178TIP3    H1 6498   4.903   3.937   5.131
 2178TIP3    H2 6499   4.776   3.865   5.091
 2179TIP3   OH2 6500   4.140   1.919   2.172
 2179TIP3    H1 6501   4.066   1.961   2.217
 2179TIP3    H2 6502   4.182   1.990   2.124
 2180TIP3   OH2 6503   6.754   4.983   2.017
 2180TIP3    H1 6504   6.704   5.017   2.091
 2180TIP3    H2 6505   6.838   5.030   2.020
 2181TIP3   OH2 6506   6.886   3.738   2.062
 2181TIP3    H1 6507   6.843   3.684   2.129
 2181TIP3    H2 6508   6.905   3.821   2.106
 2182TIP3   OH2 6509   2.186   6.718   5.042
 2182TIP3    H1 6510   2.095   6.734   5.067
 2182TIP3    H2 6511   2.237   6.750   5.116
 2183TIP3   OH2 6512   3.623   2.942   1.017
 2183TIP3    H1 6513   3.567   2.906   1.087
 2183TIP3    H2 6514   3.711   2.943   1.055
 2184TIP3   OH2 6515   5.969   1.283   1.094
 2184TIP3    H1 6516   5.954   1.373   1.065
 2184TIP3    H2 6517   5.945   1.283   1.186
 2185TIP3   OH2 6518   0.893   4.702   5.194
 2185TIP3    H1 6519   0.912   4.770   5.130
 2185TIP3    H2 6520   0.915   4.740   5.279
 2186TIP3   OH2 6521   1.876   0.707   3.630
 2186TIP3    H1 6522   1.834   0.622   3.624
 2186TIP3    H2 6523   1.810   0.769   3.595
 2187TIP3   OH2 6524   4.011   3.011   0.023
 2187TIP3    H1 6525   4.007   2.948   0.094
 2187TIP3    H2 6526   4.044   2.961  -0.052
 2188TIP3   OH2 6527   0.846   5.792   5.793
 2188TIP3    H1 6528   0.882   5.706   5.775
 2188TIP3    H2 6529   0.759   5.791   5.753
 2189TIP3   OH2 6530   1.629   4.898   0.048
 2189TIP3    H1 6531   1.606   4.976   0.098
 2189TIP3    H2 6532   1.666   4.932  -0.034
 2190TIP3   OH2 6533   7.080   3.848   2.788
 2190TIP3    H1 6534   7.098   3.935   2.824
 2190TIP3    H2 6535   6.992   3.855   2.751
 2191TIP3   OH2 6536   0.210   0.822   3.949
 2191TIP3    H1 6537   0.192   0.861   3.864
 2191TIP3    H2 6538   0.226   0.897   4.007
 2192TIP3   OH2 6539   6.040   4.174   2.113
 2192TIP3    H1 6540   6.070   4.206   2.198
 2192TIP3    H2 6541   5.971   4.235   2.087
 2193TIP3   OH2 6542   3.960   1.095   5.475
 2193TIP3    H1 6543   3.922   1.012   5.446
 2193TIP3    H2 6544   4.036   1.070   5.527
 2194TIP3   OH2 6545   6.304   6.079   2.646
 2194TIP3    H1 6546   6.211   6.058   2.636
 2194TIP3    H2 6547   6.327   6.044   2.732
 2195TIP3   OH2 6548   5.985   2.554   0.951
 2195TIP3    H1 6549   5.937   2.536   1.032
 2195TIP3    H2 6550   5.918   2.585   0.891
 2196TIP3   OH2 6551   5.688   5.440   1.756
 2196TIP3    H1 6552   5.725   5.395   1.832
 2196TIP3    H2 6553   5.745   5.414   1.683
 2197TIP3   OH2 6554   1.476   2.809   2.226
 2197TIP3    H1 6555   1.428   2.847   2.300
 2197TIP3    H2 6556   1.484   2.716   2.249
 2198TIP3   OH2 6557   2.587   6.034   1.501
 2198TIP3    H1 6558   2.615   6.062   1.414
 2198TIP3    H2 6559   2.641   5.957   1.520
 2199TIP3   OH2 6560   1.138   6.055   1.576
 2199TIP3    H1 6561   1.079   6.129   1.566
 2199TIP3    H2 6562   1.125   6.002   1.497
 2200TIP3   OH2 6563   1.365   5.809   0.392
 2200TIP3    H1 6564   1.313   5.870   0.445
 2200TIP3    H2 6565   1.322   5.808   0.307
 2201TIP3   OH2 6566   6.494   3.169   3.528
 2201TIP3    H1 6567   6.565   3.114   3.494
 2201TIP3    H2 6568   6.418   3.144   3.476
 2202TIP3   OH2 6569   4.228   5.675   0.656
 2202TIP3    H1 6570   4.215   5.605   0.720
 2202TIP3    H2 6571   4.322   5.692   0.657
 2203TIP3   OH2 6572   4.632   4.347   5.041
 2203TIP3    H1 6573   4.640   4.370   5.133
 2203TIP3    H2 6574   4.594   4.259   5.041
 2204TIP3   OH2 6575   3.534   1.418   1.045
 2204TIP3    H1 6576   3.519   1.500   0.998
 2204TIP3    H2 6577   3.474   1.422   1.120
 2205TIP3   OH2 6578   7.211   4.145   0.769
 2205TIP3    H1 6579   7.206   4.240   0.756
 2205TIP3    H2 6580   7.141   4.126   0.832
 2206TIP3   OH2 6581   3.694   4.505   1.355
 2206TIP3    H1 6582   3.607   4.542   1.336
 2206TIP3    H2 6583   3.717   4.456   1.276
 2207TIP3   OH2 6584   2.626   5.747   1.240
 2207TIP3    H1 6585   2.579   5.830   1.237
 2207TIP3    H2 6586   2.642   5.732   1.333
 2208TIP3   OH2 6587   1.785   4.327   2.615
 2208TIP3    H1 6588   1.842   4.349   2.541
 2208TIP3    H2 6589   1.797   4.234   2.628
 2209TIP3   OH2 6590   6.338   2.448   5.424
 2209TIP3    H1 6591   6.317   2.355   5.425
 2209TIP3    H2 6592   6.277   2.487   5.486
 2210TIP3   OH2 6593   3.062   2.417   1.691
 2210TIP3    H1 6594   3.093   2.332   1.660
 2210TIP3    H2 6595   3.047   2.405   1.785
 2211TIP3   OH2 6596   0.130   2.847   4.611
 2211TIP3    H1 6597   0.047   2.822   4.569
 2211TIP3    H2 6598   0.118   2.825   4.703
 2212TIP3   OH2 6599   5.644   5.010   5.703
 2212TIP3    H1 6600   5.610   4.984   5.789
 2212TIP3    H2 6601   5.734   4.977   5.702
 2213TIP3   OH2 6602   6.343   0.532   0.235
 2213TIP3    H1 6603   6.411   0.526   0.168
 2213TIP3    H2 6604   6.390   0.518   0.318
 2214TIP3   OH2 6605   0.369   3.179   0.655
 2214TIP3    H1 6606   0.419   3.161   0.575
 2214TIP3    H2 6607   0.368   3.274   0.662
 2215TIP3   OH2 6608   5.859   2.510   2.757
 2215TIP3    H1 6609   5.891   2.532   2.670
 2215TIP3    H2 6610   5.886   2.583   2.812
 2216TIP3   OH2 6611   1.840   0.023   1.820
 2216TIP3    H1 6612   1.804  -0.055   1.863
 2216TIP3    H2 6613   1.770   0.052   1.761
 2217TIP3   OH2 6614   6.484   6.374   0.776
 2217TIP3    H1 6615   6.511   6.361   0.685
 2217TIP3    H2 6616   6.444   6.290   0.800
 2218TIP3   OH2 6617   5.006   3.931   1.549
 2218TIP3    H1 6618   5.041   3.849   1.515
 2218TIP3    H2 6619   4.973   3.909   1.636
 2219TIP3   OH2 6620   3.060   0.721   2.469
 2219TIP3    H1 6621   3.083   0.765   2.388
 2219TIP3    H2 6622   2.976   0.760   2.494
 2220TIP3   OH2 6623   0.959   4.445   3.537
 2220TIP3    H1 6624   0.889   4.380   3.537
 2220TIP3    H2 6625   1.029   4.403   3.486
 2221TIP3   OH2 6626   4.078   6.581   4.918
 2221TIP3    H1 6627   4.155   6.528   4.898
 2221TIP3    H2 6628   4.082   6.594   5.013
 2222TIP3   OH2 6629   4.464   2.888   2.010
 2222TIP3    H1 6630   4.434   2.803   1.978
 2222TIP3    H2 6631   4.465   2.944   1.933
 2223TIP3   OH2 6632   1.326   0.716   5.508
 2223TIP3    H1 6633   1.399   0.771   5.478
 2223TIP3    H2 6634   1.337   0.710   5.602
 2224TIP3   OH2 6635   5.976   4.360   4.599
 2224TIP3    H1 6636   6.002   4.366   4.507
 2224TIP3    H2 6637   6.058   4.370   4.648
 2225TIP3   OH2 6638   2.294   2.467   0.027
 2225TIP3    H1 6639   2.247   2.469  -0.056
 2225TIP3    H2 6640   2.261   2.388   0.071
 2226TIP3   OH2 6641   6.033   6.197   2.664
 2226TIP3    H1 6642   6.052   6.206   2.570
 2226TIP3    H2 6643   6.021   6.103   2.677
 2227TIP3   OH2 6644   1.178   4.493   5.239
 2227TIP3    H1 6645   1.245   4.465   5.176
 2227TIP3    H2 6646   1.098   4.449   5.210
 2228TIP3   OH2 6647   6.011   0.293   3.809
 2228TIP3    H1 6648   5.956   0.243   3.748
 2228TIP3    H2 6649   5.986   0.384   3.794
 2229TIP3   OH2 6650   0.973   0.270   3.214
 2229TIP3    H1 6651   0.884   0.237   3.226
 2229TIP3    H2 6652   1.002   0.230   3.132
 2230TIP3   OH2 6653   4.009   5.627   4.373
 2230TIP3    H1 6654   4.038   5.557   4.315
 2230TIP3    H2 6655   3.913   5.623   4.371
 2231TIP3   OH2 6656   0.921   6.386   4.487
 2231TIP3    H1 6657   0.906   6.337   4.568
 2231TIP3    H2 6658   0.992   6.446   4.509
 2232TIP3   OH2 6659   1.034   3.971   3.618
 2232TIP3    H1 6660   1.006   3.972   3.526
 2232TIP3    H2 6661   0.996   3.890   3.653
 2233TIP3   OH2 6662   3.231   1.664   4.630
 2233TIP3    H1 6663   3.204   1.573   4.638
 2233TIP3    H2 6664   3.158   1.714   4.667
 2234TIP3   OH2 6665   7.088   1.258   3.839
 2234TIP3    H1 6666   6.994   1.276   3.848
 2234TIP3    H2 6667   7.102   1.177   3.888
 2235TIP3   OH2 6668   6.121   3.036   0.951
 2235TIP3    H1 6669   6.052   3.033   0.885
 2235TIP3    H2 6670   6.089   2.980   1.022
 2236TIP3   OH2 6671   0.909   0.783   5.250
 2236TIP3    H1 6672   0.859   0.864   5.262
 2236TIP3    H2 6673   0.965   0.778   5.328
 2237TIP3   OH2 6674   5.664   5.173   4.229
 2237TIP3    H1 6675   5.626   5.148   4.145
 2237TIP3    H2 6676   5.654   5.269   4.232
 2238TIP3   OH2 6677   0.330   4.472   3.408
 2238TIP3    H1 6678   0.327   4.398   3.468
 2238TIP3    H2 6679   0.397   4.530   3.446
 2239TIP3   OH2 6680   1.588   4.703   5.177
 2239TIP3    H1 6681   1.494   4.711   5.162
 2239TIP3    H2 6682   1.615   4.632   5.119
 2240TIP3   OH2 6683   4.162   0.685   5.364
 2240TIP3    H1 6684   4.148   0.592   5.380
 2240TIP3    H2 6685   4.218   0.714   5.436
 2241TIP3   OH2 6686   1.160   3.410   3.195
 2241TIP3    H1 6687   1.133   3.473   3.262
 2241TIP3    H2 6688   1.140   3.325   3.232
 2242TIP3   OH2 6689   4.558   2.745   4.089
 2242TIP3    H1 6690   4.499   2.745   4.164
 2242TIP3    H2 6691   4.508   2.705   4.018
 2243TIP3   OH2 6692   7.101   4.938   0.983
 2243TIP3    H1 6693   7.055   4.936   1.067
 2243TIP3    H2 6694   7.035   4.909   0.919
 2244TIP3   OH2 6695   3.767   5.367   0.170
 2244TIP3    H1 6696   3.852   5.404   0.193
 2244TIP3    H2 6697   3.788   5.291   0.115
 2245TIP3   OH2 6698   6.503   5.338   3.940
 2245TIP3    H1 6699   6.557   5.262   3.920
 2245TIP3    H2 6700   6.459   5.358   3.858
 2246TIP3   OH2 6701   4.511   4.744   4.138
 2246TIP3    H1 6702   4.498   4.837   4.155
 2246TIP3    H2 6703   4.504   4.702   4.223
 2247TIP3   OH2 6704   3.584   6.561   2.760
 2247TIP3    H1 6705   3.651   6.626   2.782
 2247TIP3    H2 6706   3.560   6.523   2.844
 2248TIP3   OH2 6707   1.150   3.049   2.196
 2248TIP3    H1 6708   1.244   3.060   2.205
 2248TIP3    H2 6709   1.112   3.123   2.244
 2249TIP3   OH2 6710   2.667   0.026   0.534
 2249TIP3    H1 6711   2.610   0.078   0.478
 2249TIP3    H2 6712   2.684  -0.054   0.485
 2250TIP3   OH2 6713   1.501   2.452   3.119
 2250TIP3    H1 6714   1.516   2.448   3.025
 2250TIP3    H2 6715   1.406   2.445   3.129
 2251TIP3   OH2 6716   0.967   5.348   3.245
 2251TIP3    H1 6717   0.996   5.282   3.181
 2251TIP3    H2 6718   0.897   5.395   3.200
 2252TIP3   OH2 6719   3.455   6.685   4.835
 2252TIP3    H1 6720   3.382   6.718   4.783
 2252TIP3    H2 6721   3.492   6.763   4.876
 2253TIP3   OH2 6722   7.123   1.892   2.930
 2253TIP3    H1 6723   7.170   1.837   2.993
 2253TIP3    H2 6724   7.129   1.981   2.966
 2254TIP3   OH2 6725   1.249   0.390   1.176
 2254TIP3    H1 6726   1.212   0.303   1.159
 2254TIP3    H2 6727   1.330   0.372   1.225
 2255TIP3   OH2 6728   6.057   2.096   4.477
 2255TIP3    H1 6729   6.067   2.029   4.545
 2255TIP3    H2 6730   5.964   2.095   4.456
 2256TIP3   OH2 6731   3.163   3.983   4.854
 2256TIP3    H1 6732   3.084   3.932   4.875
 2256TIP3    H2 6733   3.235   3.935   4.894
 2257TIP3   OH2 6734   4.809   0.267   3.417
 2257TIP3    H1 6735   4.773   0.349   3.452
 2257TIP3    H2 6736   4.861   0.231   3.489
 2258TIP3   OH2 6737   6.604   6.512   0.167
 2258TIP3    H1 6738   6.533   6.568   0.137
 2258TIP3    H2 6739   6.561   6.436   0.206
 2259TIP3   OH2 6740   6.294   6.210   5.034
 2259TIP3    H1 6741   6.336   6.190   4.951
 2259TIP3    H2 6742   6.206   6.172   5.027
 2260TIP3   OH2 6743   2.550   0.666   3.460
 2260TIP3    H1 6744   2.509   0.580   3.465
 2260TIP3    H2 6745   2.510   0.708   3.383
 2261TIP3   OH2 6746   3.261   2.833   1.718
 2261TIP3    H1 6747   3.266   2.774   1.643
 2261TIP3    H2 6748   3.351   2.840   1.750
 2262TIP3   OH2 6749   6.849   6.357   3.172
 2262TIP3    H1 6750   6.890   6.334   3.255
 2262TIP3    H2 6751   6.756   6.344   3.187
 2263TIP3   OH2 6752   2.444   1.798   2.392
 2263TIP3    H1 6753   2.432   1.828   2.302
 2263TIP3    H2 6754   2.501   1.722   2.385
 2264TIP3   OH2 6755   0.577   2.291   1.914
 2264TIP3    H1 6756   0.487   2.322   1.926
 2264TIP3    H2 6757   0.577   2.204   1.956
 2265TIP3   OH2 6758   4.906   2.384   0.367
 2265TIP3    H1 6759   4.859   2.302   0.352
 2265TIP3    H2 6760   4.983   2.379   0.310
 2266TIP3   OH2 6761   2.767   2.982   5.791
 2266TIP3    H1 6762   2.775   3.027   5.875
 2266TIP3    H2 6763   2.709   3.037   5.740
 2267TIP3   OH2 6764   6.164   4.708   4.563
 2267TIP3    H1 6765   6.110   4.781   4.534
 2267TIP3    H2 6766   6.166   4.715   4.658
 2268TIP3   OH2 6767   2.299   6.797   3.862
 2268TIP3    H1 6768   2.317   6.709   3.895
 2268TIP3    H2 6769   2.369   6.814   3.799
 2269TIP3   OH2 6770   1.180   4.723   3.407
 2269TIP3    H1 6771   1.150   4.718   3.316
 2269TIP3    H2 6772   1.100   4.732   3.459
 2270TIP3   OH2 6773   5.489   3.601   1.510
 2270TIP3    H1 6774   5.431   3.609   1.586
 2270TIP3    H2 6775   5.475   3.681   1.460
 2271TIP3   OH2 6776   0.131   3.719   1.349
 2271TIP3    H1 6777   0.084   3.649   1.394
 2271TIP3    H2 6778   0.196   3.749   1.413
 2272TIP3   OH2 6779   0.020   2.592   0.410
 2272TIP3    H1 6780  -0.075   2.603   0.401
 2272TIP3    H2 6781   0.046   2.657   0.475
 2273TIP3   OH2 6782   0.663   2.185   4.282
 2273TIP3    H1 6783   0.722   2.232   4.342
 2273TIP3    H2 6784   0.649   2.246   4.209
 2274TIP3   OH2 6785   6.492   3.818   5.227
 2274TIP3    H1 6786   6.458   3.849   5.143
 2274TIP3    H2 6787   6.422   3.837   5.290
 2275TIP3   OH2 6788   3.148   5.110   4.183
 2275TIP3    H1 6789   3.195   5.028   4.165
 2275TIP3    H2 6790   3.097   5.126   4.103
 2276TIP3   OH2 6791   4.996   2.903   5.441
 2276TIP3    H1 6792   5.049   2.982   5.449
 2276TIP3    H2 6793   5.046   2.836   5.487
 2277TIP3   OH2 6794   0.054   5.478   1.897
 2277TIP3    H1 6795   0.076   5.561   1.855
 2277TIP3    H2 6796   0.129   5.422   1.878
 2278TIP3   OH2 6797   3.464   3.253   3.922
 2278TIP3    H1 6798   3.456   3.349   3.922
 2278TIP3    H2 6799   3.553   3.236   3.952
 2279TIP3   OH2 6800   7.149   2.740   2.046
 2279TIP3    H1 6801   7.178   2.804   1.980
 2279TIP3    H2 6802   7.100   2.792   2.110
 2280TIP3   OH2 6803   4.057   0.802   5.124
 2280TIP3    H1 6804   4.068   0.784   5.031
 2280TIP3    H2 6805   4.108   0.735   5.169
 2281TIP3   OH2 6806   1.129   4.256   1.121
 2281TIP3    H1 6807   1.040   4.275   1.092
 2281TIP3    H2 6808   1.119   4.189   1.189
 2282TIP3   OH2 6809   5.963   2.300   2.354
 2282TIP3    H1 6810   6.040   2.265   2.398
 2282TIP3    H2 6811   5.954   2.389   2.388
 2283TIP3   OH2 6812   2.075   2.455   0.981
 2283TIP3    H1 6813   2.049   2.431   1.070
 2283TIP3    H2 6814   1.995   2.486   0.940
 2284TIP3   OH2 6815   4.434   3.242   2.283
 2284TIP3    H1 6816   4.522   3.277   2.291
 2284TIP3    H2 6817   4.382   3.316   2.250
 2285TIP3   OH2 6818   1.814   6.111   0.458
 2285TIP3    H1 6819   1.753   6.050   0.419
 2285TIP3    H2 6820   1.883   6.122   0.393
 2286TIP3   OH2 6821   4.193   1.436   3.969
 2286TIP3    H1 6822   4.208   1.524   3.934
 2286TIP3    H2 6823   4.161   1.450   4.058
 2287TIP3   OH2 6824   3.453   0.655   2.293
 2287TIP3    H1 6825   3.462   0.600   2.371
 2287TIP3    H2 6826   3.408   0.599   2.229
 2288TIP3   OH2 6827   3.747   5.811   4.018
 2288TIP3    H1 6828   3.667   5.859   3.998
 2288TIP3    H2 6829   3.718   5.721   4.030
 2289TIP3   OH2 6830   0.479   6.241   3.474
 2289TIP3    H1 6831   0.425   6.166   3.448
 2289TIP3    H2 6832   0.441   6.269   3.557
 2290TIP3   OH2 6833   3.678   0.612   2.565
 2290TIP3    H1 6834   3.596   0.566   2.584
 2290TIP3    H2 6835   3.746   0.546   2.576
 2291TIP3   OH2 6836   4.963   1.728   3.430
 2291TIP3    H1 6837   5.015   1.757   3.355
 2291TIP3    H2 6838   4.942   1.809   3.477
 2292TIP3   OH2 6839   3.554   1.440   5.302
 2292TIP3    H1 6840   3.477   1.422   5.356
 2292TIP3    H2 6841   3.574   1.356   5.261
 2293TIP3   OH2 6842   5.646   5.501   0.997
 2293TIP3    H1 6843   5.628   5.553   0.919
 2293TIP3    H2 6844   5.729   5.536   1.031
 2294TIP3   OH2 6845   4.618   2.730   0.496
 2294TIP3    H1 6846   4.563   2.772   0.430
 2294TIP3    H2 6847   4.638   2.644   0.458
 2295TIP3   OH2 6848   7.139   0.707   5.188
 2295TIP3    H1 6849   7.095   0.698   5.104
 2295TIP3    H2 6850   7.105   0.790   5.224
 2296TIP3   OH2 6851   1.335   4.889   4.277
 2296TIP3    H1 6852   1.352   4.937   4.357
 2296TIP3    H2 6853   1.286   4.811   4.305
 2297TIP3   OH2 6854   5.963   5.019   3.862
 2297TIP3    H1 6855   5.871   5.017   3.890
 2297TIP3    H2 6856   5.976   4.936   3.816
 2298TIP3   OH2 6857   6.400   1.215   3.040
 2298TIP3    H1 6858   6.458   1.173   3.104
 2298TIP3    H2 6859   6.436   1.189   2.955
 2299TIP3   OH2 6860   0.334   4.225   2.091
 2299TIP3    H1 6861   0.266   4.222   2.023
 2299TIP3    H2 6862   0.344   4.318   2.110
 2300TIP3   OH2 6863   1.302   1.135   4.314
 2300TIP3    H1 6864   1.275   1.091   4.395
 2300TIP3    H2 6865   1.365   1.075   4.273
 2301TIP3   OH2 6866   7.122   3.430   4.905
 2301TIP3    H1 6867   7.088   3.506   4.954
 2301TIP3    H2 6868   7.138   3.464   4.817
 2302TIP3   OH2 6869   2.700   4.300   3.290
 2302TIP3    H1 6870   2.609   4.301   3.321
 2302TIP3    H2 6871   2.695   4.331   3.199
 2303TIP3   OH2 6872   2.851   4.789   0.612
 2303TIP3    H1 6873   2.938   4.799   0.652
 2303TIP3    H2 6874   2.856   4.706   0.565
 2304TIP3   OH2 6875   0.711   3.952   5.458
 2304TIP3    H1 6876   0.713   3.894   5.382
 2304TIP3    H2 6877   0.800   3.984   5.466
 2305TIP3   OH2 6878   4.333   1.836   5.345
 2305TIP3    H1 6879   4.406   1.814   5.403
 2305TIP3    H2 6880   4.296   1.916   5.383
 2306TIP3   OH2 6881   3.058   6.800   0.906
 2306TIP3    H1 6882   3.057   6.796   0.811
 2306TIP3    H2 6883   2.974   6.763   0.933
 2307TIP3   OH2 6884   5.277   1.045   5.447
 2307TIP3    H1 6885   5.275   0.955   5.413
 2307TIP3    H2 6886   5.357   1.049   5.499
 2308TIP3   OH2 6887   5.329   4.099   3.248
 2308TIP3    H1 6888   5.305   4.083   3.156
 2308TIP3    H2 6889   5.245   4.107   3.293
 2309TIP3   OH2 6890   6.735   4.559   5.034
 2309TIP3    H1 6891   6.700   4.518   5.113
 2309TIP3    H2 6892   6.717   4.653   5.045
 2310TIP3   OH2 6893   6.917   2.891   2.124
 2310TIP3    H1 6894   6.923   2.823   2.191
 2310TIP3    H2 6895   6.832   2.933   2.140
 2311TIP3   OH2 6896   7.170   4.910   5.209
 2311TIP3    H1 6897   7.110   4.878   5.142
 2311TIP3    H2 6898   7.125   4.984   5.250
 2312TIP3   OH2 6899   6.180   3.756   1.001
 2312TIP3    H1 6900   6.169   3.813   1.076
 2312TIP3    H2 6901   6.092   3.728   0.978
 2313TIP3   OH2 6902   0.832   6.519   5.805
 2313TIP3    H1 6903   0.821   6.612   5.786
 2313TIP3    H2 6904   0.779   6.475   5.739
 2314TIP3   OH2 6905   5.175   1.993   3.428
 2314TIP3    H1 6906   5.188   1.916   3.373
 2314TIP3    H2 6907   5.083   2.017   3.413
 2315TIP3   OH2 6908   5.645   5.704   1.858
 2315TIP3    H1 6909   5.605   5.634   1.910
 2315TIP3    H2 6910   5.707   5.658   1.801
 2316TIP3   OH2 6911   3.547   2.844   1.785
 2316TIP3    H1 6912   3.546   2.846   1.881
 2316TIP3    H2 6913   3.624   2.896   1.762
 2317TIP3   OH2 6914   3.280   2.773   0.686
 2317TIP3    H1 6915   3.242   2.697   0.728
 2317TIP3    H2 6916   3.230   2.847   0.720
 2318TIP3   OH2 6917   1.050   5.675   4.374
 2318TIP3    H1 6918   1.134   5.719   4.363
 2318TIP3    H2 6919   1.047   5.610   4.304
 2319TIP3   OH2 6920   4.282   5.260   1.614
 2319TIP3    H1 6921   4.255   5.181   1.663
 2319TIP3    H2 6922   4.354   5.230   1.558
 2320TIP3   OH2 6923   1.972   0.822   1.714
 2320TIP3    H1 6924   2.021   0.853   1.790
 2320TIP3    H2 6925   1.914   0.755   1.749
 2321TIP3   OH2 6926   3.167   2.340   3.631
 2321TIP3    H1 6927   3.118   2.284   3.571
 2321TIP3    H2 6928   3.102   2.404   3.662
 2322TIP3   OH2 6929  -0.044   1.249   2.240
 2322TIP3    H1 6930  -0.056   1.336   2.277
 2322TIP3    H2 6931  -0.011   1.264   2.152
 2323TIP3   OH2 6932   5.075   2.957   2.679
 2323TIP3    H1 6933   5.136   2.890   2.649
 2323TIP3    H2 6934   5.077   3.024   2.610
 2324TIP3   OH2 6935   2.504   1.196   1.354
 2324TIP3    H1 6936   2.446   1.235   1.419
 2324TIP3    H2 6937   2.514   1.263   1.287
 2325TIP3   OH2 6938   4.743   2.750   1.440
 2325TIP3    H1 6939   4.815   2.723   1.498
 2325TIP3    H2 6940   4.671   2.770   1.499
 2326TIP3   OH2 6941   1.638   4.625   2.432
 2326TIP3    H1 6942   1.690   4.594   2.357
 2326TIP3    H2 6943   1.548   4.629   2.399
 2327TIP3   OH2 6944   0.268   3.942   0.714
 2327TIP3    H1 6945   0.282   3.973   0.803
 2327TIP3    H2 6946   0.178   3.907   0.715
 2328TIP3   OH2 6947   5.176   2.094   4.556
 2328TIP3    H1 6948   5.145   2.163   4.498
 2328TIP3    H2 6949   5.256   2.130   4.595
 2329TIP3   OH2 6950   1.826   0.484   1.114
 2329TIP3    H1 6951   1.884   0.412   1.090
 2329TIP3    H2 6952   1.882   0.545   1.161
 2330TIP3   OH2 6953   0.087   0.060   2.219
 2330TIP3    H1 6954   0.090   0.147   2.260
 2330TIP3    H2 6955   0.030   0.009   2.277
 2331TIP3   OH2 6956   3.917   0.488   5.300
 2331TIP3    H1 6957   3.951   0.502   5.212
 2331TIP3    H2 6958   3.985   0.438   5.345
 2332TIP3   OH2 6959   0.804   5.141   2.703
 2332TIP3    H1 6960   0.897   5.136   2.682
 2332TIP3    H2 6961   0.792   5.080   2.776
 2333TIP3   OH2 6962   1.285   5.644   2.268
 2333TIP3    H1 6963   1.293   5.682   2.180
 2333TIP3    H2 6964   1.191   5.634   2.282
 2334TIP3   OH2 6965   0.347   4.633   1.447
 2334TIP3    H1 6966   0.263   4.617   1.404
 2334TIP3    H2 6967   0.336   4.719   1.489
 2335TIP3   OH2 6968   0.849   1.683   2.130
 2335TIP3    H1 6969   0.868   1.768   2.171
 2335TIP3    H2 6970   0.903   1.683   2.051
 2336TIP3   OH2 6971   2.866   0.379   1.231
 2336TIP3    H1 6972   2.927   0.305   1.228
 2336TIP3    H2 6973   2.876   0.414   1.319
 2337TIP3   OH2 6974   6.225   5.180   5.898
 2337TIP3    H1 6975   6.271   5.158   5.817
 2337TIP3    H2 6976   6.136   5.199   5.871
 2338TIP3   OH2 6977   5.999   5.602   5.478
 2338TIP3    H1 6978   5.995   5.553   5.560
 2338TIP3    H2 6979   6.092   5.622   5.466
 2339TIP3   OH2 6980   3.139   2.977   0.838
 2339TIP3    H1 6981   3.083   2.997   0.763
 2339TIP3    H2 6982   3.176   3.062   0.864
 2340TIP3   OH2 6983   3.337   3.158   4.292
 2340TIP3    H1 6984   3.297   3.086   4.341
 2340TIP3    H2 6985   3.274   3.178   4.223
 2341TIP3   OH2 6986   5.840   2.349   3.579
 2341TIP3    H1 6987   5.898   2.279   3.549
 2341TIP3    H2 6988   5.789   2.373   3.502
 2342TIP3   OH2 6989   2.816   5.630   1.759
 2342TIP3    H1 6990   2.874   5.567   1.802
 2342TIP3    H2 6991   2.728   5.591   1.767
 2343TIP3   OH2 6992   0.526   5.731   5.071
 2343TIP3    H1 6993   0.548   5.655   5.017
 2343TIP3    H2 6994   0.472   5.697   5.141
 2344TIP3   OH2 6995   4.841   1.921   0.087
 2344TIP3    H1 6996   4.801   1.938   0.002
 2344TIP3    H2 6997   4.835   1.827   0.098
 2345TIP3   OH2 6998   3.102   2.483   4.187
 2345TIP3    H1 6999   3.078   2.509   4.098
 2345TIP3    H2 7000   3.143   2.561   4.225
 2346TIP3   OH2 7001   6.332   3.211   0.928
 2346TIP3    H1 7002   6.295   3.299   0.920
 2346TIP3    H2 7003   6.255   3.154   0.937
 2347TIP3   OH2 7004   2.351   6.642   2.966
 2347TIP3    H1 7005   2.349   6.598   3.051
 2347TIP3    H2 7006   2.329   6.733   2.986
 2348TIP3   OH2 7007   1.472   0.559   4.167
 2348TIP3    H1 7008   1.402   0.493   4.172
 2348TIP3    H2 7009   1.434   0.630   4.116
 2349TIP3   OH2 7010   5.772   5.565   3.965
 2349TIP3    H1 7011   5.810   5.636   4.016
 2349TIP3    H2 7012   5.734   5.608   3.888
 2350TIP3   OH2 7013   4.097   0.722   4.411
 2350TIP3    H1 7014   4.161   0.662   4.373
 2350TIP3    H2 7015   4.129   0.741   4.499
 2351TIP3   OH2 7016   5.885   4.571   5.194
 2351TIP3    H1 7017   5.934   4.588   5.274
 2351TIP3    H2 7018   5.828   4.647   5.183
 2352TIP3   OH2 7019   1.955   4.549   4.872
 2352TIP3    H1 7020   1.957   4.644   4.867
 2352TIP3    H2 7021   2.047   4.524   4.880
 2353TIP3   OH2 7022   0.638   6.411   4.529
 2353TIP3    H1 7023   0.587   6.468   4.587
 2353TIP3    H2 7024   0.729   6.427   4.555
 2354TIP3   OH2 7025   1.368   0.597   2.223
 2354TIP3    H1 7026   1.376   0.643   2.140
 2354TIP3    H2 7027   1.363   0.504   2.199
 2355TIP3   OH2 7028   6.915   3.276   2.260
 2355TIP3    H1 7029   6.851   3.281   2.332
 2355TIP3    H2 7030   6.928   3.182   2.246
 2356TIP3   OH2 7031   7.004   2.156   1.216
 2356TIP3    H1 7032   6.915   2.129   1.195
 2356TIP3    H2 7033   7.058   2.119   1.145
 2357TIP3   OH2 7034   5.776   1.723   0.274
 2357TIP3    H1 7035   5.699   1.775   0.298
 2357TIP3    H2 7036   5.850   1.783   0.288
 2358TIP3   OH2 7037   0.931   1.171   2.739
 2358TIP3    H1 7038   0.885   1.251   2.717
 2358TIP3    H2 7039   1.021   1.199   2.756
 2359TIP3   OH2 7040   5.146   5.896   0.936
 2359TIP3    H1 7041   5.165   5.802   0.929
 2359TIP3    H2 7042   5.222   5.933   0.982
 2360TIP3   OH2 7043   5.767   1.907   5.201
 2360TIP3    H1 7044   5.793   1.816   5.216
 2360TIP3    H2 7045   5.672   1.903   5.189
 2361TIP3   OH2 7046   2.521   0.802   4.327
 2361TIP3    H1 7047   2.561   0.721   4.296
 2361TIP3    H2 7048   2.591   0.867   4.320
 2362TIP3   OH2 7049   5.414   0.057   3.685
 2362TIP3    H1 7050   5.353  -0.016   3.677
 2362TIP3    H2 7051   5.359   0.135   3.691
 2363TIP3   OH2 7052   0.630   6.622   3.717
 2363TIP3    H1 7053   0.546   6.578   3.712
 2363TIP3    H2 7054   0.692   6.554   3.742
 2364TIP3   OH2 7055   1.071   1.016   0.312
 2364TIP3    H1 7056   0.990   1.049   0.273
 2364TIP3    H2 7057   1.109   0.960   0.244
 2365TIP3   OH2 7058   3.955   5.163   4.288
 2365TIP3    H1 7059   3.956   5.199   4.377
 2365TIP3    H2 7060   3.865   5.173   4.259
 2366TIP3   OH2 7061   0.969   0.368   1.861
 2366TIP3    H1 7062   0.915   0.289   1.855
 2366TIP3    H2 7063   0.916   0.436   1.820
 2367TIP3   OH2 7064   2.105   6.633   3.260
 2367TIP3    H1 7065   2.107   6.719   3.300
 2367TIP3    H2 7066   2.150   6.575   3.322
 2368TIP3   OH2 7067   1.962   1.163   5.416
 2368TIP3    H1 7068   2.025   1.234   5.401
 2368TIP3    H2 7069   1.997   1.116   5.492
 2369TIP3   OH2 7070   0.681   1.359   4.184
 2369TIP3    H1 7071   0.776   1.367   4.179
 2369TIP3    H2 7072   0.654   1.428   4.244
 2370TIP3   OH2 7073   4.974   1.217   1.584
 2370TIP3    H1 7074   5.058   1.250   1.552
 2370TIP3    H2 7075   4.909   1.271   1.540
 2371TIP3   OH2 7076   3.094   5.304   2.065
 2371TIP3    H1 7077   3.157   5.343   2.126
 2371TIP3    H2 7078   3.073   5.219   2.103
 2372TIP3   OH2 7079   5.293   1.495   5.446
 2372TIP3    H1 7080   5.310   1.501   5.540
 2372TIP3    H2 7081   5.228   1.425   5.437
 2373TIP3   OH2 7082   4.981   2.044   2.195
 2373TIP3    H1 7083   5.027   2.051   2.278
 2373TIP3    H2 7084   4.937   1.959   2.199
 2374TIP3   OH2 7085   0.114   1.825   5.097
 2374TIP3    H1 7086   0.208   1.810   5.090
 2374TIP3    H2 7087   0.074   1.742   5.070
 2375TIP3   OH2 7088   3.132   0.098   0.548
 2375TIP3    H1 7089   3.090   0.152   0.481
 2375TIP3    H2 7090   3.225   0.122   0.544
 2376TIP3   OH2 7091   5.763   0.406   4.588
 2376TIP3    H1 7092   5.819   0.335   4.620
 2376TIP3    H2 7093   5.702   0.363   4.529
 2377TIP3   OH2 7094   3.467   4.470   4.178
 2377TIP3    H1 7095   3.390   4.415   4.168
 2377TIP3    H2 7096   3.458   4.509   4.265
 2378TIP3   OH2 7097   4.054   4.924   2.969
 2378TIP3    H1 7098   4.078   4.944   2.879
 2378TIP3    H2 7099   3.969   4.966   2.981
 2379TIP3   OH2 7100   3.573   1.802   5.614
 2379TIP3    H1 7101   3.528   1.775   5.534
 2379TIP3    H2 7102   3.502   1.821   5.676
 2380TIP3   OH2 7103   2.921   2.078   1.974
 2380TIP3    H1 7104   2.830   2.057   1.992
 2380TIP3    H2 7105   2.924   2.173   1.971
 2381TIP3   OH2 7106   6.484   0.389   3.715
 2381TIP3    H1 7107   6.549   0.350   3.656
 2381TIP3    H2 7108   6.430   0.315   3.743
 2382TIP3   OH2 7109   7.138   4.711   3.030
 2382TIP3    H1 7110   7.083   4.690   3.105
 2382TIP3    H2 7111   7.224   4.677   3.053
 2383TIP3   OH2 7112   6.839   2.933   4.720
 2383TIP3    H1 7113   6.744   2.930   4.730
 2383TIP3    H2 7114   6.854   2.992   4.647
 2384TIP3   OH2 7115   6.089   5.316   2.940
 2384TIP3    H1 7116   6.170   5.300   2.988
 2384TIP3    H2 7117   6.036   5.238   2.955
 2385TIP3   OH2 7118   2.939   0.549   1.448
 2385TIP3    H1 7119   3.001   0.618   1.423
 2385TIP3    H2 7120   2.881   0.591   1.511
 2386TIP3   OH2 7121   1.715   3.441   1.659
 2386TIP3    H1 7122   1.774   3.382   1.612
 2386TIP3    H2 7123   1.746   3.529   1.636
 2387TIP3   OH2 7124   6.826   3.125   3.364
 2387TIP3    H1 7125   6.880   3.202   3.381
 2387TIP3    H2 7126   6.786   3.141   3.278
 2388TIP3   OH2 7127   2.357   1.600   5.043
 2388TIP3    H1 7128   2.435   1.631   4.997
 2388TIP3    H2 7129   2.284   1.621   4.984
 2389TIP3   OH2 7130   1.492   5.568   5.617
 2389TIP3    H1 7131   1.467   5.660   5.611
 2389TIP3    H2 7132   1.580   5.569   5.653
 2390TIP3   OH2 7133   5.825   2.710   0.724
 2390TIP3    H1 7134   5.804   2.729   0.632
 2390TIP3    H2 7135   5.755   2.752   0.774
 2391TIP3   OH2 7136   2.516   5.774   4.533
 2391TIP3    H1 7137   2.446   5.833   4.563
 2391TIP3    H2 7138   2.517   5.704   4.597
 2392TIP3   OH2 7139   5.340   6.388   1.957
 2392TIP3    H1 7140   5.360   6.402   2.049
 2392TIP3    H2 7141   5.334   6.293   1.947
 2393TIP3   OH2 7142   3.021   5.741   3.743
 2393TIP3    H1 7143   3.033   5.752   3.838
 2393TIP3    H2 7144   2.982   5.654   3.734
 2394TIP3   OH2 7145   0.240   5.850   0.787
 2394TIP3    H1 7146   0.158   5.898   0.797
 2394TIP3    H2 7147   0.262   5.822   0.876
 2395TIP3   OH2 7148   2.234   1.423   1.103
 2395TIP3    H1 7149   2.176   1.348   1.086
 2395TIP3    H2 7150   2.175   1.498   1.107
 2396TIP3   OH2 7151   3.758   3.535   4.064
 2396TIP3    H1 7152   3.791   3.625   4.062
 2396TIP3    H2 7153   3.763   3.511   4.156
 2397TIP3   OH2 7154   1.488   5.323   3.079
 2397TIP3    H1 7155   1.556   5.291   3.020
 2397TIP3    H2 7156   1.520   5.302   3.167
 2398TIP3   OH2 7157   3.415   6.246   4.155
 2398TIP3    H1 7158   3.332   6.202   4.134
 2398TIP3    H2 7159   3.466   6.180   4.201
 2399TIP3   OH2 7160   5.607   4.360   1.338
 2399TIP3    H1 7161   5.571   4.324   1.257
 2399TIP3    H2 7162   5.607   4.286   1.399
 2400TIP3   OH2 7163   4.964   5.490   5.624
 2400TIP3    H1 7164   4.988   5.406   5.663
 2400TIP3    H2 7165   4.906   5.467   5.552
 2401TIP3   OH2 7166   2.046   3.130   2.020
 2401TIP3    H1 7167   2.046   3.049   2.072
 2401TIP3    H2 7168   2.089   3.194   2.077
 2402TIP3   OH2 7169   0.297   3.910   1.128
 2402TIP3    H1 7170   0.389   3.934   1.121
 2402TIP3    H2 7171   0.251   3.978   1.078
 2403TIP3   OH2 7172   5.471   6.281   2.834
 2403TIP3    H1 7173   5.419   6.262   2.756
 2403TIP3    H2 7174   5.464   6.375   2.845
 2404TIP3   OH2 7175   0.367   4.177   5.846
 2404TIP3    H1 7176   0.286   4.188   5.796
 2404TIP3    H2 7177   0.423   4.249   5.819
 2405TIP3   OH2 7178   4.683   3.708   4.170
 2405TIP3    H1 7179   4.605   3.695   4.116
 2405TIP3    H2 7180   4.750   3.738   4.108
 2406TIP3   OH2 7181   0.880   1.085   1.643
 2406TIP3    H1 7182   0.972   1.065   1.625
 2406TIP3    H2 7183   0.880   1.116   1.733
 2407TIP3   OH2 7184   0.407   3.513   5.319
 2407TIP3    H1 7185   0.314   3.516   5.299
 2407TIP3    H2 7186   0.446   3.470   5.242
 2408TIP3   OH2 7187   6.647   5.374   4.453
 2408TIP3    H1 7188   6.611   5.462   4.464
 2408TIP3    H2 7189   6.685   5.353   4.538
 2409TIP3   OH2 7190   1.277   0.307   0.818
 2409TIP3    H1 7191   1.238   0.351   0.893
 2409TIP3    H2 7192   1.325   0.376   0.772
 2410TIP3   OH2 7193   6.673   1.754   4.776
 2410TIP3    H1 7194   6.695   1.665   4.803
 2410TIP3    H2 7195   6.672   1.804   4.858
 2411TIP3   OH2 7196   4.833   6.722   0.706
 2411TIP3    H1 7197   4.870   6.774   0.634
 2411TIP3    H2 7198   4.902   6.661   0.729
 2412TIP3   OH2 7199   6.149   4.449   3.397
 2412TIP3    H1 7200   6.230   4.432   3.349
 2412TIP3    H2 7201   6.176   4.464   3.487
 2413TIP3   OH2 7202   6.687   2.414   4.307
 2413TIP3    H1 7203   6.776   2.394   4.278
 2413TIP3    H2 7204   6.674   2.358   4.384
 2414TIP3   OH2 7205   2.910   2.145   3.742
 2414TIP3    H1 7206   2.992   2.130   3.789
 2414TIP3    H2 7207   2.936   2.147   3.650
 2415TIP3   OH2 7208   6.876   3.111   2.572
 2415TIP3    H1 7209   6.813   3.170   2.615
 2415TIP3    H2 7210   6.950   3.168   2.549
 2416TIP3   OH2 7211   5.291   2.984   0.246
 2416TIP3    H1 7212   5.365   2.929   0.220
 2416TIP3    H2 7213   5.242   2.931   0.308
 2417TIP3   OH2 7214   0.566   4.476   4.117
 2417TIP3    H1 7215   0.617   4.397   4.104
 2417TIP3    H2 7216   0.610   4.522   4.189
 2418TIP3   OH2 7217   5.137   5.768   0.346
 2418TIP3    H1 7218   5.138   5.697   0.282
 2418TIP3    H2 7219   5.150   5.847   0.294
 2419TIP3   OH2 7220   5.897   5.326   1.596
 2419TIP3    H1 7221   5.936   5.246   1.630
 2419TIP3    H2 7222   5.954   5.396   1.627
 2420TIP3   OH2 7223   4.014   6.119   0.880
 2420TIP3    H1 7224   3.934   6.110   0.933
 2420TIP3    H2 7225   4.031   6.213   0.877
 2421TIP3   OH2 7226   7.081   3.250   5.661
 2421TIP3    H1 7227   7.026   3.232   5.737
 2421TIP3    H2 7228   7.096   3.164   5.621
 2422TIP3   OH2 7229   1.155   5.500   3.386
 2422TIP3    H1 7230   1.079   5.477   3.332
 2422TIP3    H2 7231   1.190   5.579   3.345
 2423TIP3   OH2 7232   4.972   4.739   4.513
 2423TIP3    H1 7233   4.925   4.692   4.583
 2423TIP3    H2 7234   5.050   4.686   4.498
 2424TIP3   OH2 7235   3.697   5.834   3.689
 2424TIP3    H1 7236   3.698   5.743   3.719
 2424TIP3    H2 7237   3.782   5.870   3.717
 2425TIP3   OH2 7238   4.285   1.750   3.923
 2425TIP3    H1 7239   4.209   1.805   3.902
 2425TIP3    H2 7240   4.344   1.762   3.849
 2426TIP3   OH2 7241   0.749   1.052   3.442
 2426TIP3    H1 7242   0.673   1.107   3.458
 2426TIP3    H2 7243   0.729   0.970   3.487
 2427TIP3   OH2 7244   2.347   5.642   2.549
 2427TIP3    H1 7245   2.362   5.689   2.631
 2427TIP3    H2 7246   2.371   5.705   2.481
 2428TIP3   OH2 7247   0.744   4.965   2.147
 2428TIP3    H1 7248   0.754   4.876   2.115
 2428TIP3    H2 7249   0.819   4.978   2.205
 2429TIP3   OH2 7250   1.172   5.082   2.237
 2429TIP3    H1 7251   1.254   5.128   2.220
 2429TIP3    H2 7252   1.144   5.051   2.151
 2430TIP3   OH2 7253   3.691   1.073   1.551
 2430TIP3    H1 7254   3.753   1.142   1.527
 2430TIP3    H2 7255   3.739   1.016   1.610
 2431TIP3   OH2 7256   6.195   4.864   3.222
 2431TIP3    H1 7257   6.226   4.801   3.157
 2431TIP3    H2 7258   6.153   4.810   3.289
 2432TIP3   OH2 7259   2.291   2.842   3.152
 2432TIP3    H1 7260   2.272   2.779   3.082
 2432TIP3    H2 7261   2.227   2.822   3.220
 2433TIP3   OH2 7262   4.895   2.263   3.872
 2433TIP3    H1 7263   4.887   2.282   3.965
 2433TIP3    H2 7264   4.965   2.198   3.867
 2434TIP3   OH2 7265   3.049   5.342   2.517
 2434TIP3    H1 7266   3.121   5.406   2.519
 2434TIP3    H2 7267   2.993   5.371   2.446
 2435TIP3   OH2 7268   1.375   2.367   1.515
 2435TIP3    H1 7269   1.416   2.389   1.598
 2435TIP3    H2 7270   1.434   2.404   1.449
 2436TIP3   OH2 7271   5.466   2.059   4.335
 2436TIP3    H1 7272   5.452   2.002   4.259
 2436TIP3    H2 7273   5.465   2.000   4.410
 2437TIP3   OH2 7274   4.219   1.574   2.096
 2437TIP3    H1 7275   4.127   1.583   2.069
 2437TIP3    H2 7276   4.264   1.648   2.053
 2438TIP3   OH2 7277   1.923   5.557   2.248
 2438TIP3    H1 7278   1.971   5.482   2.281
 2438TIP3    H2 7279   1.954   5.631   2.299
 2439TIP3   OH2 7280   2.116   3.882   4.092
 2439TIP3    H1 7281   2.208   3.900   4.113
 2439TIP3    H2 7282   2.084   3.963   4.053
 2440TIP3   OH2 7283   7.152   2.874   4.189
 2440TIP3    H1 7284   7.178   2.920   4.110
 2440TIP3    H2 7285   7.144   2.782   4.163
 2441TIP3   OH2 7286   2.417   3.322   3.215
 2441TIP3    H1 7287   2.423   3.290   3.125
 2441TIP3    H2 7288   2.399   3.244   3.267
 2442TIP3   OH2 7289   4.042   5.495   0.798
 2442TIP3    H1 7290   4.039   5.571   0.856
 2442TIP3    H2 7291   3.972   5.511   0.734
 2443TIP3   OH2 7292   0.510   4.027   4.512
 2443TIP3    H1 7293   0.586   4.019   4.570
 2443TIP3    H2 7294   0.453   3.955   4.539
 2444TIP3   OH2 7295   6.511   0.194   4.172
 2444TIP3    H1 7296   6.581   0.182   4.107
 2444TIP3    H2 7297   6.531   0.129   4.240
 2445TIP3   OH2 7298   5.300   0.331   0.312
 2445TIP3    H1 7299   5.285   0.422   0.288
 2445TIP3    H2 7300   5.350   0.335   0.393
 2446TIP3   OH2 7301   2.948   5.460   4.001
 2446TIP3    H1 7302   2.897   5.541   4.009
 2446TIP3    H2 7303   2.991   5.451   4.086
 2447TIP3   OH2 7304   5.225   4.846   0.478
 2447TIP3    H1 7305   5.320   4.837   0.475
 2447TIP3    H2 7306   5.210   4.925   0.530
 2448TIP3   OH2 7307   0.683   3.505   4.332
 2448TIP3    H1 7308   0.633   3.511   4.250
 2448TIP3    H2 7309   0.725   3.420   4.328
 2449TIP3   OH2 7310   2.108   5.294   2.614
 2449TIP3    H1 7311   2.204   5.291   2.623
 2449TIP3    H2 7312   2.092   5.357   2.544
 2450TIP3   OH2 7313   2.238   4.656   3.325
 2450TIP3    H1 7314   2.206   4.625   3.410
 2450TIP3    H2 7315   2.312   4.713   3.347
 2451TIP3   OH2 7316   0.797   5.134   3.374
 2451TIP3    H1 7317   0.789   5.113   3.467
 2451TIP3    H2 7318   0.888   5.115   3.352
 2452TIP3   OH2 7319   4.768   3.159   3.045
 2452TIP3    H1 7320   4.822   3.100   2.993
 2452TIP3    H2 7321   4.755   3.236   2.988
 2453TIP3   OH2 7322   6.533   1.936   3.862
 2453TIP3    H1 7323   6.503   1.904   3.947
 2453TIP3    H2 7324   6.609   1.882   3.842
 2454TIP3   OH2 7325   0.883   6.031   5.680
 2454TIP3    H1 7326   0.846   6.005   5.596
 2454TIP3    H2 7327   0.878   5.952   5.734
 2455TIP3   OH2 7328   1.308   0.754   0.840
 2455TIP3    H1 7329   1.214   0.764   0.822
 2455TIP3    H2 7330   1.320   0.795   0.926
 2456TIP3   OH2 7331   6.984   4.769   2.397
 2456TIP3    H1 7332   6.991   4.674   2.402
 2456TIP3    H2 7333   7.073   4.800   2.382
 2457TIP3   OH2 7334   1.761   0.803   4.148
 2457TIP3    H1 7335   1.728   0.854   4.074
 2457TIP3    H2 7336   1.823   0.862   4.191
 2458TIP3   OH2 7337   6.710   3.928   0.310
 2458TIP3    H1 7338   6.743   3.873   0.239
 2458TIP3    H2 7339   6.733   3.881   0.390
 2459TIP3   OH2 7340   4.470   0.819   4.777
 2459TIP3    H1 7341   4.466   0.899   4.725
 2459TIP3    H2 7342   4.537   0.766   4.733
 2460TIP3   OH2 7343   3.968   2.722   4.954
 2460TIP3    H1 7344   3.912   2.661   4.907
 2460TIP3    H2 7345   3.930   2.808   4.939
 2461TIP3   OH2 7346   3.105   1.851   1.971
 2461TIP3    H1 7347   3.032   1.914   1.971
 2461TIP3    H2 7348   3.064   1.767   1.952
 2462TIP3   OH2 7349   1.300   2.957   2.975
 2462TIP3    H1 7350   1.271   3.016   2.906
 2462TIP3    H2 7351   1.316   2.874   2.931
 2463TIP3   OH2 7352   4.904   3.719   0.150
 2463TIP3    H1 7353   4.893   3.743   0.242
 2463TIP3    H2 7354   4.883   3.625   0.148
 2464TIP3   OH2 7355   1.697   2.710   0.299
 2464TIP3    H1 7356   1.716   2.634   0.244
 2464TIP3    H2 7357   1.782   2.743   0.326
 2465TIP3   OH2 7358   3.491   1.610   1.295
 2465TIP3    H1 7359   3.489   1.674   1.224
 2465TIP3    H2 7360   3.453   1.657   1.370
 2466TIP3   OH2 7361   0.927   3.219   3.013
 2466TIP3    H1 7362   0.960   3.191   3.099
 2466TIP3    H2 7363   1.004   3.249   2.966
 2467TIP3   OH2 7364   2.809   2.608   3.202
 2467TIP3    H1 7365   2.770   2.694   3.215
 2467TIP3    H2 7366   2.893   2.612   3.248
 2468TIP3   OH2 7367   3.237   3.209   0.884
 2468TIP3    H1 7368   3.319   3.234   0.928
 2468TIP3    H2 7369   3.242   3.251   0.798
 2469TIP3   OH2 7370   4.685   3.332   2.323
 2469TIP3    H1 7371   4.758   3.376   2.278
 2469TIP3    H2 7372   4.724   3.253   2.359
 2470TIP3   OH2 7373   6.924   4.608   1.083
 2470TIP3    H1 7374   6.916   4.516   1.109
 2470TIP3    H2 7375   6.970   4.649   1.157
 2471TIP3   OH2 7376   4.970   4.309   3.557
 2471TIP3    H1 7377   4.925   4.313   3.472
 2471TIP3    H2 7378   4.908   4.345   3.619
 2472TIP3   OH2 7379   2.162   3.328   0.629
 2472TIP3    H1 7380   2.105   3.370   0.565
 2472TIP3    H2 7381   2.216   3.268   0.577
 2473TIP3   OH2 7382   4.904   4.842   3.593
 2473TIP3    H1 7383   4.929   4.839   3.501
 2473TIP3    H2 7384   4.831   4.904   3.595
 2474TIP3   OH2 7385   2.230   1.618   5.293
 2474TIP3    H1 7386   2.284   1.571   5.228
 2474TIP3    H2 7387   2.286   1.689   5.324
 2475TIP3   OH2 7388   5.231   3.794   2.683
 2475TIP3    H1 7389   5.272   3.711   2.656
 2475TIP3    H2 7390   5.303   3.858   2.679
 2476TIP3   OH2 7391   1.948   1.550   4.965
 2476TIP3    H1 7392   1.935   1.579   4.875
 2476TIP3    H2 7393   2.018   1.607   4.998
 2477TIP3   OH2 7394   3.502   5.910   5.517
 2477TIP3    H1 7395   3.594   5.932   5.530
 2477TIP3    H2 7396   3.503   5.836   5.456
 2478TIP3   OH2 7397   0.447   5.911   0.050
 2478TIP3    H1 7398   0.364   5.865   0.052
 2478TIP3    H2 7399   0.424   6.001   0.025
 2479TIP3   OH2 7400   0.752   2.199   0.255
 2479TIP3    H1 7401   0.673   2.189   0.309
 2479TIP3    H2 7402   0.735   2.144   0.178
 2480TIP3   OH2 7403   1.768   2.522   0.129
 2480TIP3    H1 7404   1.712   2.449   0.103
 2480TIP3    H2 7405   1.842   2.481   0.175
 2481TIP3   OH2 7406   4.700   1.101   3.397
 2481TIP3    H1 7407   4.791   1.122   3.419
 2481TIP3    H2 7408   4.700   1.084   3.303
 2482TIP3   OH2 7409   6.126   1.061   2.873
 2482TIP3    H1 7410   6.126   1.099   2.961
 2482TIP3    H2 7411   6.062   0.991   2.877
 2483TIP3   OH2 7412   1.969   6.275   0.158
 2483TIP3    H1 7413   2.025   6.203   0.185
 2483TIP3    H2 7414   1.945   6.320   0.239
 2484TIP3   OH2 7415   2.480   5.477   3.047
 2484TIP3    H1 7416   2.544   5.522   3.101
 2484TIP3    H2 7417   2.489   5.385   3.069
 2485TIP3   OH2 7418   6.540   0.130   1.210
 2485TIP3    H1 7419   6.556   0.223   1.229
 2485TIP3    H2 7420   6.513   0.093   1.294
 2486TIP3   OH2 7421   1.719   6.818   3.850
 2486TIP3    H1 7422   1.687   6.907   3.839
 2486TIP3    H2 7423   1.651   6.773   3.900
 2487TIP3   OH2 7424   0.347   3.432   3.951
 2487TIP3    H1 7425   0.304   3.364   3.899
 2487TIP3    H2 7426   0.290   3.508   3.943
 2488TIP3   OH2 7427   6.085   5.211   3.707
 2488TIP3    H1 7428   6.069   5.156   3.630
 2488TIP3    H2 7429   6.064   5.155   3.781
 2489TIP3   OH2 7430   5.930   0.076   1.982
 2489TIP3    H1 7431   5.878   0.067   2.062
 2489TIP3    H2 7432   5.933   0.170   1.965
 2490TIP3   OH2 7433   6.987   5.254   4.322
 2490TIP3    H1 7434   7.063   5.251   4.265
 2490TIP3    H2 7435   7.021   5.230   4.408
 2491TIP3   OH2 7436   5.628   5.049   0.455
 2491TIP3    H1 7437   5.718   5.044   0.488
 2491TIP3    H2 7438   5.634   5.020   0.364
 2492TIP3   OH2 7439   1.601   0.330   0.841
 2492TIP3    H1 7440   1.664   0.332   0.913
 2492TIP3    H2 7441   1.542   0.403   0.858
 2493TIP3   OH2 7442   1.968   3.595   5.590
 2493TIP3    H1 7443   1.937   3.658   5.524
 2493TIP3    H2 7444   2.061   3.584   5.570
 2494TIP3   OH2 7445   4.915   1.546   1.583
 2494TIP3    H1 7446   4.950   1.491   1.653
 2494TIP3    H2 7447   4.899   1.631   1.625
 2495TIP3   OH2 7448   1.965   2.854   1.759
 2495TIP3    H1 7449   1.870   2.846   1.755
 2495TIP3    H2 7450   1.985   2.939   1.720
 2496TIP3   OH2 7451   5.308   3.307   1.235
 2496TIP3    H1 7452   5.377   3.316   1.300
 2496TIP3    H2 7453   5.316   3.385   1.180
 2497TIP3   OH2 7454   5.021   5.904   3.725
 2497TIP3    H1 7455   5.073   5.885   3.803
 2497TIP3    H2 7456   5.086   5.916   3.655
 2498TIP3   OH2 7457   6.886   3.817   4.757
 2498TIP3    H1 7458   6.960   3.857   4.712
 2498TIP3    H2 7459   6.837   3.772   4.688
 2499TIP3   OH2 7460   0.143   1.285   2.465
 2499TIP3    H1 7461   0.165   1.271   2.373
 2499TIP3    H2 7462   0.169   1.204   2.509
 2500TIP3   OH2 7463   5.663   1.146   2.952
 2500TIP3    H1 7464   5.654   1.238   2.979
 2500TIP3    H2 7465   5.709   1.104   3.025
 2501TIP3   OH2 7466   3.571   0.587   0.358
 2501TIP3    H1 7467   3.600   0.677   0.372
 2501TIP3    H2 7468   3.650   0.535   0.370
 2502TIP3   OH2 7469   3.918   5.857   1.124
 2502TIP3    H1 7470   3.830   5.894   1.115
 2502TIP3    H2 7471   3.958   5.908   1.194
 2503TIP3   OH2 7472   4.350   2.917   0.844
 2503TIP3    H1 7473   4.383   2.831   0.869
 2503TIP3    H2 7474   4.331   2.910   0.751
 2504TIP3   OH2 7475   6.776   6.677   5.151
 2504TIP3    H1 7476   6.829   6.736   5.205
 2504TIP3    H2 7477   6.829   6.663   5.072
 2505TIP3   OH2 7478   6.997   4.131   4.198
 2505TIP3    H1 7479   6.990   4.083   4.116
 2505TIP3    H2 7480   6.927   4.096   4.252
 2506TIP3   OH2 7481   6.345   3.271   1.758
 2506TIP3    H1 7482   6.440   3.264   1.747
 2506TIP3    H2 7483   6.310   3.187   1.728
 2507TIP3   OH2 7484   0.908   4.856   4.970
 2507TIP3    H1 7485   1.002   4.838   4.964
 2507TIP3    H2 7486   0.877   4.848   4.880
 2508TIP3   OH2 7487   6.425   4.396   1.101
 2508TIP3    H1 7488   6.471   4.340   1.163
 2508TIP3    H2 7489   6.403   4.474   1.152
 2509TIP3   OH2 7490   5.284   6.092   5.191
 2509TIP3    H1 7491   5.241   6.177   5.202
 2509TIP3    H2 7492   5.376   6.110   5.209
 2510TIP3   OH2 7493   1.649   1.140   3.727
 2510TIP3    H1 7494   1.652   1.054   3.686
 2510TIP3    H2 7495   1.632   1.200   3.654
 2511TIP3   OH2 7496   2.877   5.962   2.323
 2511TIP3    H1 7497   2.794   5.936   2.285
 2511TIP3    H2 7498   2.904   6.038   2.272
 2512TIP3   OH2 7499   4.484   2.224   1.001
 2512TIP3    H1 7500   4.478   2.311   0.962
 2512TIP3    H2 7501   4.572   2.194   0.980
 2513TIP3   OH2 7502   3.980   1.307   5.640
 2513TIP3    H1 7503   3.957   1.239   5.577
 2513TIP3    H2 7504   3.905   1.367   5.638
 2514TIP3   OH2 7505   5.780   0.458   0.706
 2514TIP3    H1 7506   5.695   0.488   0.739
 2514TIP3    H2 7507   5.791   0.371   0.743
 2515TIP3   OH2 7508   6.029   6.738   2.765
 2515TIP3    H1 7509   6.016   6.832   2.759
 2515TIP3    H2 7510   6.095   6.718   2.699
 2516TIP3   OH2 7511   2.187   4.361   4.212
 2516TIP3    H1 7512   2.221   4.427   4.152
 2516TIP3    H2 7513   2.135   4.411   4.276
 2517TIP3   OH2 7514   5.304   1.458   3.177
 2517TIP3    H1 7515   5.256   1.384   3.214
 2517TIP3    H2 7516   5.241   1.501   3.120
 2518TIP3   OH2 7517   1.873   6.606   0.148
 2518TIP3    H1 7518   1.793   6.605   0.096
 2518TIP3    H2 7519   1.862   6.682   0.206
 2519TIP3   OH2 7520   0.049   3.631   2.182
 2519TIP3    H1 7521   0.040   3.724   2.160
 2519TIP3    H2 7522   0.138   3.623   2.215
 2520TIP3   OH2 7523   0.122   1.136   0.788
 2520TIP3    H1 7524   0.193   1.183   0.832
 2520TIP3    H2 7525   0.073   1.204   0.742
 2521TIP3   OH2 7526   3.494   4.360   3.799
 2521TIP3    H1 7527   3.432   4.291   3.774
 2521TIP3    H2 7528   3.447   4.411   3.865
 2522TIP3   OH2 7529   4.975   5.695   4.704
 2522TIP3    H1 7530   4.895   5.729   4.663
 2522TIP3    H2 7531   4.974   5.731   4.793
 2523TIP3   OH2 7532   3.429   5.646   4.615
 2523TIP3    H1 7533   3.387   5.622   4.698
 2523TIP3    H2 7534   3.461   5.735   4.629
 2524TIP3   OH2 7535   5.758   2.370   1.628
 2524TIP3    H1 7536   5.676   2.380   1.580
 2524TIP3    H2 7537   5.743   2.295   1.686
 2525TIP3   OH2 7538   1.986   3.542   4.931
 2525TIP3    H1 7539   1.905   3.501   4.901
 2525TIP3    H2 7540   1.967   3.573   5.019
 2526TIP3   OH2 7541   3.189   3.884   3.725
 2526TIP3    H1 7542   3.251   3.955   3.743
 2526TIP3    H2 7543   3.104   3.918   3.753
 2527TIP3   OH2 7544   2.740   3.989   5.759
 2527TIP3    H1 7545   2.691   4.069   5.740
 2527TIP3    H2 7546   2.808   3.985   5.692
 2528TIP3   OH2 7547   0.746   4.596   2.978
 2528TIP3    H1 7548   0.826   4.552   2.948
 2528TIP3    H2 7549   0.675   4.537   2.950
 2529TIP3   OH2 7550   2.994   6.538   2.721
 2529TIP3    H1 7551   3.051   6.484   2.776
 2529TIP3    H2 7552   2.999   6.498   2.634
 2530TIP3   OH2 7553   6.380   2.659   3.742
 2530TIP3    H1 7554   6.320   2.667   3.817
 2530TIP3    H2 7555   6.457   2.616   3.778
 2531TIP3   OH2 7556   6.956   6.099   5.564
 2531TIP3    H1 7557   6.913   6.068   5.643
 2531TIP3    H2 7558   6.967   6.193   5.578
 2532TIP3   OH2 7559   6.312   5.038   4.432
 2532TIP3    H1 7560   6.383   5.046   4.369
 2532TIP3    H2 7561   6.232   5.043   4.380
 2533TIP3   OH2 7562   6.213   5.656   3.971
 2533TIP3    H1 7563   6.190   5.643   3.879
 2533TIP3    H2 7564   6.259   5.576   3.996
 2534TIP3   OH2 7565   5.444   4.138   2.304
 2534TIP3    H1 7566   5.524   4.089   2.319
 2534TIP3    H2 7567   5.404   4.096   2.228
 2535TIP3   OH2 7568   4.055   5.197   3.094
 2535TIP3    H1 7569   4.071   5.188   3.000
 2535TIP3    H2 7570   3.986   5.135   3.114
 2536TIP3   OH2 7571   6.641   5.118   3.861
 2536TIP3    H1 7572   6.557   5.072   3.859
 2536TIP3    H2 7573   6.687   5.087   3.782
 2537TIP3   OH2 7574   2.755   3.401   2.029
 2537TIP3    H1 7575   2.752   3.393   2.125
 2537TIP3    H2 7576   2.782   3.315   1.998
 2538TIP3   OH2 7577   0.547   1.493   0.785
 2538TIP3    H1 7578   0.620   1.432   0.784
 2538TIP3    H2 7579   0.505   1.479   0.870
 2539TIP3   OH2 7580   1.926   4.141   4.411
 2539TIP3    H1 7581   1.951   4.233   4.415
 2539TIP3    H2 7582   1.957   4.104   4.494
 2540TIP3   OH2 7583   0.804   3.494   3.686
 2540TIP3    H1 7584   0.715   3.480   3.656
 2540TIP3    H2 7585   0.856   3.426   3.643
 2541TIP3   OH2 7586   2.524   3.142   2.372
 2541TIP3    H1 7587   2.458   3.209   2.355
 2541TIP3    H2 7588   2.494   3.101   2.454
 2542TIP3   OH2 7589   1.599   1.754   2.886
 2542TIP3    H1 7590   1.608   1.669   2.844
 2542TIP3    H2 7591   1.542   1.737   2.961
 2543TIP3   OH2 7592   1.977   4.190   2.845
 2543TIP3    H1 7593   1.938   4.103   2.846
 2543TIP3    H2 7594   1.905   4.249   2.866
 2544TIP3   OH2 7595   3.500   1.608   3.351
 2544TIP3    H1 7596   3.576   1.615   3.294
 2544TIP3    H2 7597   3.426   1.635   3.296
 2545TIP3   OH2 7598   3.907   1.889   5.789
 2545TIP3    H1 7599   4.001   1.908   5.797
 2545TIP3    H2 7600   3.887   1.909   5.698
 2546TIP3   OH2 7601   0.869   0.743   4.095
 2546TIP3    H1 7602   0.946   0.686   4.103
 2546TIP3    H2 7603   0.795   0.682   4.095
 2547TIP3   OH2 7604   2.767   5.014   1.821
 2547TIP3    H1 7605   2.709   5.024   1.897
 2547TIP3    H2 7606   2.707   5.009   1.746
 2548TIP3   OH2 7607   2.572   3.144   5.697
 2548TIP3    H1 7608   2.576   3.236   5.724
 2548TIP3    H2 7609   2.511   3.144   5.622
 2549TIP3   OH2 7610   2.783   3.426   5.279
 2549TIP3    H1 7611   2.699   3.387   5.301
 2549TIP3    H2 7612   2.777   3.443   5.185
 2550TIP3   OH2 7613   0.085   5.029   3.074
 2550TIP3    H1 7614   0.093   5.075   2.991
 2550TIP3    H2 7615   0.122   4.942   3.057
 2551TIP3   OH2 7616   3.528   2.975   3.787
 2551TIP3    H1 7617   3.553   3.053   3.837
 2551TIP3    H2 7618   3.479   3.010   3.712
 2552TIP3   OH2 7619   2.330   0.708   5.449
 2552TIP3    H1 7620   2.373   0.685   5.531
 2552TIP3    H2 7621   2.383   0.667   5.381
 2553TIP3   OH2 7622   4.761   1.606   2.548
 2553TIP3    H1 7623   4.833   1.622   2.608
 2553TIP3    H2 7624   4.733   1.694   2.521
 2554TIP3   OH2 7625   4.393   4.323   0.221
 2554TIP3    H1 7626   4.341   4.318   0.302
 2554TIP3    H2 7627   4.366   4.245   0.171
 2555TIP3   OH2 7628   2.896   1.464   4.446
 2555TIP3    H1 7629   2.919   1.379   4.485
 2555TIP3    H2 7630   2.846   1.442   4.367
 2556TIP3   OH2 7631   5.366   0.038   4.374
 2556TIP3    H1 7632   5.422   0.102   4.331
 2556TIP3    H2 7633   5.353  -0.030   4.308
 2557TIP3   OH2 7634   0.515   0.640   0.516
 2557TIP3    H1 7635   0.554   0.560   0.552
 2557TIP3    H2 7636   0.588   0.701   0.508
 2558TIP3   OH2 7637   6.273   1.090   5.596
 2558TIP3    H1 7638   6.275   1.182   5.622
 2558TIP3    H2 7639   6.304   1.042   5.673
 2559TIP3   OH2 7640   1.180   0.338   3.429
 2559TIP3    H1 7641   1.137   0.275   3.486
 2559TIP3    H2 7642   1.147   0.317   3.342
 2560TIP3   OH2 7643   4.152   0.231   0.604
 2560TIP3    H1 7644   4.162   0.153   0.659
 2560TIP3    H2 7645   4.218   0.292   0.636
 2561TIP3   OH2 7646   0.132   2.782   5.562
 2561TIP3    H1 7647   0.190   2.714   5.596
 2561TIP3    H2 7648   0.090   2.741   5.486
 2562TIP3   OH2 7649   0.534   2.004   4.790
 2562TIP3    H1 7650   0.613   1.961   4.755
 2562TIP3    H2 7651   0.475   2.009   4.715
 2563TIP3   OH2 7652   2.486   1.711   1.062
 2563TIP3    H1 7653   2.455   1.770   1.131
 2563TIP3    H2 7654   2.435   1.631   1.073
 2564TIP3   OH2 7655   4.364   1.026   1.339
 2564TIP3    H1 7656   4.284   1.054   1.385
 2564TIP3    H2 7657   4.346   0.935   1.315
 2565TIP3   OH2 7658   2.403   5.920   1.235
 2565TIP3    H1 7659   2.398   6.014   1.250
 2565TIP3    H2 7660   2.347   5.904   1.160
 2566TIP3   OH2 7661   2.314   4.930   5.912
 2566TIP3    H1 7662   2.381   4.956   5.849
 2566TIP3    H2 7663   2.238   4.909   5.859
 2567TIP3   OH2 7664   0.067   2.047   3.149
 2567TIP3    H1 7665   0.080   2.069   3.241
 2567TIP3    H2 7666  -0.014   2.092   3.124
 2568TIP3   OH2 7667   6.751   1.322   1.029
 2568TIP3    H1 7668   6.666   1.278   1.034
 2568TIP3    H2 7669   6.757   1.371   1.111
 2569TIP3   OH2 7670   1.400   3.244   0.567
 2569TIP3    H1 7671   1.320   3.295   0.582
 2569TIP3    H2 7672   1.438   3.282   0.488
 2570TIP3   OH2 7673   4.575   2.354   3.074
 2570TIP3    H1 7674   4.577   2.345   2.978
 2570TIP3    H2 7675   4.640   2.293   3.105
 2571TIP3   OH2 7676   3.338   1.238   5.250
 2571TIP3    H1 7677   3.272   1.208   5.188
 2571TIP3    H2 7678   3.365   1.159   5.298
 2572TIP3   OH2 7679   5.331   4.093   2.968
 2572TIP3    H1 7680   5.378   4.176   2.965
 2572TIP3    H2 7681   5.249   4.109   2.922
 2573TIP3   OH2 7682   6.881   1.092   3.335
 2573TIP3    H1 7683   6.884   1.019   3.273
 2573TIP3    H2 7684   6.795   1.133   3.320
 2574TIP3   OH2 7685   0.683   1.899   4.304
 2574TIP3    H1 7686   0.760   1.842   4.304
 2574TIP3    H2 7687   0.718   1.987   4.294
 2575TIP3   OH2 7688   1.110   6.444   5.789
 2575TIP3    H1 7689   1.058   6.492   5.853
 2575TIP3    H2 7690   1.046   6.395   5.737
 2576TIP3   OH2 7691   6.058   1.040   5.075
 2576TIP3    H1 7692   6.087   1.049   5.166
 2576TIP3    H2 7693   6.136   1.055   5.023
 2577TIP3   OH2 7694   0.787   5.621   3.312
 2577TIP3    H1 7695   0.831   5.627   3.397
 2577TIP3    H2 7696   0.694   5.611   3.333
 2578TIP3   OH2 7697   2.693   5.868   5.307
 2578TIP3    H1 7698   2.756   5.798   5.322
 2578TIP3    H2 7699   2.731   5.944   5.350
 2579TIP3   OH2 7700   2.094   5.129   3.812
 2579TIP3    H1 7701   2.037   5.102   3.741
 2579TIP3    H2 7702   2.037   5.178   3.872
 2580TIP3   OH2 7703   6.442   2.983   1.415
 2580TIP3    H1 7704   6.510   2.955   1.354
 2580TIP3    H2 7705   6.485   2.985   1.500
 2581TIP3   OH2 7706   2.045   0.333   4.268
 2581TIP3    H1 7707   2.057   0.366   4.180
 2581TIP3    H2 7708   1.981   0.262   4.259
 2582TIP3   OH2 7709   4.679   5.537   4.283
 2582TIP3    H1 7710   4.736   5.611   4.305
 2582TIP3    H2 7711   4.719   5.500   4.204
 2583TIP3   OH2 7712   1.509   5.202   0.469
 2583TIP3    H1 7713   1.515   5.120   0.519
 2583TIP3    H2 7714   1.515   5.271   0.536
 2584TIP3   OH2 7715   3.636   6.354   2.559
 2584TIP3    H1 7716   3.625   6.422   2.626
 2584TIP3    H2 7717   3.685   6.397   2.489
 2585TIP3   OH2 7718   4.373   0.896   4.353
 2585TIP3    H1 7719   4.318   0.974   4.352
 2585TIP3    H2 7720   4.323   0.830   4.304
 2586TIP3   OH2 7721   5.581   5.135   1.685
 2586TIP3    H1 7722   5.668   5.124   1.724
 2586TIP3    H2 7723   5.592   5.108   1.594
 2587TIP3   OH2 7724   3.986   3.129   3.956
 2587TIP3    H1 7725   4.048   3.064   3.922
 2587TIP3    H2 7726   4.033   3.212   3.952
 2588TIP3   OH2 7727   1.772   0.514   4.060
 2588TIP3    H1 7728   1.810   0.592   4.102
 2588TIP3    H2 7729   1.682   0.512   4.092
 2589TIP3   OH2 7730   4.972   3.028   2.926
 2589TIP3    H1 7731   5.030   3.007   2.854
 2589TIP3    H2 7732   4.963   2.946   2.975
 2590TIP3   OH2 7733   6.006   0.856   3.470
 2590TIP3    H1 7734   6.002   0.872   3.376
 2590TIP3    H2 7735   5.958   0.774   3.482
 2591TIP3   OH2 7736   6.097   6.056   4.178
 2591TIP3    H1 7737   6.176   6.068   4.126
 2591TIP3    H2 7738   6.037   6.124   4.146
 2592TIP3   OH2 7739   6.447   4.443   3.937
 2592TIP3    H1 7740   6.481   4.436   4.026
 2592TIP3    H2 7741   6.406   4.530   3.933
 2593TIP3   OH2 7742   2.480   6.554   5.826
 2593TIP3    H1 7743   2.564   6.599   5.815
 2593TIP3    H2 7744   2.417   6.609   5.779
 2594TIP3   OH2 7745   6.400   3.712   0.453
 2594TIP3    H1 7746   6.369   3.641   0.509
 2594TIP3    H2 7747   6.484   3.738   0.491
 2595TIP3   OH2 7748   1.866   5.952   4.193
 2595TIP3    H1 7749   1.793   5.904   4.232
 2595TIP3    H2 7750   1.922   5.975   4.267
 2596TIP3   OH2 7751   1.976   1.818   4.297
 2596TIP3    H1 7752   1.984   1.893   4.238
 2596TIP3    H2 7753   2.060   1.773   4.289
 2597TIP3   OH2 7754   4.492   2.427   3.424
 2597TIP3    H1 7755   4.455   2.393   3.342
 2597TIP3    H2 7756   4.435   2.393   3.492
 2598TIP3   OH2 7757   4.084   2.463   5.030
 2598TIP3    H1 7758   4.013   2.486   5.089
 2598TIP3    H2 7759   4.059   2.502   4.946
 2599TIP3   OH2 7760   0.525   2.943   0.832
 2599TIP3    H1 7761   0.430   2.948   0.835
 2599TIP3    H2 7762   0.544   2.874   0.768
 2600TIP3   OH2 7763   4.421   1.577   2.326
 2600TIP3    H1 7764   4.368   1.539   2.256
 2600TIP3    H2 7765   4.510   1.548   2.305
 2601TIP3   OH2 7766   4.932   0.437   0.488
 2601TIP3    H1 7767   4.839   0.417   0.486
 2601TIP3    H2 7768   4.948   0.484   0.407
 2602TIP3   OH2 7769   2.525   1.242   2.643
 2602TIP3    H1 7770   2.511   1.148   2.629
 2602TIP3    H2 7771   2.604   1.247   2.696
 2603TIP3   OH2 7772   0.856   0.739   4.462
 2603TIP3    H1 7773   0.785   0.728   4.399
 2603TIP3    H2 7774   0.813   0.770   4.542
 2604TIP3   OH2 7775   4.507   3.838   2.642
 2604TIP3    H1 7776   4.462   3.922   2.635
 2604TIP3    H2 7777   4.598   3.857   2.618
 2605TIP3   OH2 7778   6.226   5.434   4.952
 2605TIP3    H1 7779   6.308   5.455   4.997
 2605TIP3    H2 7780   6.212   5.507   4.892
 2606TIP3   OH2 7781   2.991   2.023   5.659
 2606TIP3    H1 7782   2.988   2.061   5.571
 2606TIP3    H2 7783   2.977   1.930   5.644
 2607TIP3   OH2 7784   0.240   2.391   0.443
 2607TIP3    H1 7785   0.198   2.458   0.496
 2607TIP3    H2 7786   0.167   2.346   0.400
 2608TIP3   OH2 7787   2.788   2.449   1.604
 2608TIP3    H1 7788   2.878   2.461   1.636
 2608TIP3    H2 7789   2.734   2.504   1.660
 2609TIP3   OH2 7790   2.047   5.736   5.327
 2609TIP3    H1 7791   2.135   5.751   5.290
 2609TIP3    H2 7792   2.044   5.641   5.341
 2610TIP3   OH2 7793   4.749   2.102   5.126
 2610TIP3    H1 7794   4.712   2.052   5.199
 2610TIP3    H2 7795   4.673   2.140   5.082
 2611TIP3   OH2 7796   3.972   1.496   0.561
 2611TIP3    H1 7797   4.063   1.524   0.552
 2611TIP3    H2 7798   3.930   1.527   0.481
 2612TIP3   OH2 7799   1.131   3.277   1.654
 2612TIP3    H1 7800   1.149   3.332   1.731
 2612TIP3    H2 7801   1.177   3.321   1.583
 2613TIP3   OH2 7802   7.102   2.983   5.613
 2613TIP3    H1 7803   7.056   2.924   5.673
 2613TIP3    H2 7804   7.181   2.936   5.589
 2614TIP3   OH2 7805   7.181   0.792   2.606
 2614TIP3    H1 7806   7.111   0.825   2.550
 2614TIP3    H2 7807   7.158   0.824   2.694
 2615TIP3   OH2 7808   5.556   1.804   0.585
 2615TIP3    H1 7809   5.540   1.846   0.501
 2615TIP3    H2 7810   5.509   1.721   0.580
 2616TIP3   OH2 7811   0.482   4.601   4.711
 2616TIP3    H1 7812   0.454   4.660   4.782
 2616TIP3    H2 7813   0.480   4.514   4.751
 2617TIP3   OH2 7814   0.490   0.741   2.454
 2617TIP3    H1 7815   0.411   0.747   2.507
 2617TIP3    H2 7816   0.532   0.660   2.482
 2618TIP3   OH2 7817   4.769   1.661   0.100
 2618TIP3    H1 7818   4.749   1.651   0.007
 2618TIP3    H2 7819   4.684   1.680   0.141
 2619TIP3   OH2 7820   4.741   1.873   3.566
 2619TIP3    H1 7821   4.715   1.795   3.614
 2619TIP3    H2 7822   4.782   1.930   3.632
 2620TIP3   OH2 7823   7.069   1.660   0.515
 2620TIP3    H1 7824   7.026   1.575   0.513
 2620TIP3    H2 7825   7.093   1.678   0.424
 2621TIP3   OH2 7826   1.094   5.616   5.770
 2621TIP3    H1 7827   1.140   5.536   5.745
 2621TIP3    H2 7828   1.142   5.687   5.728
 2622TIP3   OH2 7829   7.000   2.323   1.787
 2622TIP3    H1 7830   6.945   2.263   1.737
 2622TIP3    H2 7831   6.944   2.398   1.806
 2623TIP3   OH2 7832   6.870   1.618   1.654
 2623TIP3    H1 7833   6.941   1.605   1.717
 2623TIP3    H2 7834   6.914   1.637   1.571
 2624TIP3   OH2 7835   2.415   5.812   2.346
 2624TIP3    H1 7836   2.343   5.767   2.302
 2624TIP3    H2 7837   2.473   5.839   2.275
 2625TIP3   OH2 7838   7.227   2.879   3.137
 2625TIP3    H1 7839   7.172   2.843   3.206
 2625TIP3    H2 7840   7.197   2.835   3.057
 2626TIP3   OH2 7841   2.401   1.008   3.429
 2626TIP3    H1 7842   2.483   1.023   3.382
 2626TIP3    H2 7843   2.337   0.990   3.360
 2627TIP3   OH2 7844   1.062   6.164   3.668
 2627TIP3    H1 7845   1.102   6.145   3.583
 2627TIP3    H2 7846   0.968   6.169   3.650
 2628TIP3   OH2 7847   2.075   0.131   5.234
 2628TIP3    H1 7848   2.035   0.195   5.176
 2628TIP3    H2 7849   2.076   0.174   5.320
 2629TIP3   OH2 7850   2.671   4.452   2.214
 2629TIP3    H1 7851   2.598   4.471   2.273
 2629TIP3    H2 7852   2.676   4.529   2.157
 2630TIP3   OH2 7853   1.355   5.980   0.068
 2630TIP3    H1 7854   1.428   5.918   0.065
 2630TIP3    H2 7855   1.348   6.014  -0.021
 2631TIP3   OH2 7856   1.270   1.431   5.086
 2631TIP3    H1 7857   1.203   1.401   5.148
 2631TIP3    H2 7858   1.344   1.372   5.101
 2632TIP3   OH2 7859   3.331   1.323   4.018
 2632TIP3    H1 7860   3.340   1.417   4.001
 2632TIP3    H2 7861   3.236   1.310   4.024
 2633TIP3   OH2 7862   0.106   0.182   3.973
 2633TIP3    H1 7863   0.046   0.243   4.016
 2633TIP3    H2 7864   0.063   0.097   3.979
 2634TIP3   OH2 7865   7.006   5.999   1.330
 2634TIP3    H1 7866   6.975   6.089   1.324
 2634TIP3    H2 7867   6.927   5.946   1.326
 2635TIP3   OH2 7868   5.713   6.251   5.789
 2635TIP3    H1 7869   5.790   6.243   5.733
 2635TIP3    H2 7870   5.674   6.163   5.789
 2636TIP3   OH2 7871   0.367   3.058   3.770
 2636TIP3    H1 7872   0.422   3.088   3.698
 2636TIP3    H2 7873   0.355   2.964   3.753
 2637TIP3   OH2 7874   0.217   5.417   3.593
 2637TIP3    H1 7875   0.243   5.411   3.685
 2637TIP3    H2 7876   0.125   5.389   3.593
 2638TIP3   OH2 7877   5.398   3.191   2.127
 2638TIP3    H1 7878   5.487   3.223   2.139
 2638TIP3    H2 7879   5.358   3.197   2.214
 2639TIP3   OH2 7880   2.404   2.959   2.891
 2639TIP3    H1 7881   2.480   2.911   2.922
 2639TIP3    H2 7882   2.330   2.920   2.938
 2640TIP3   OH2 7883   7.036   4.734   0.386
 2640TIP3    H1 7884   7.016   4.741   0.480
 2640TIP3    H2 7885   7.083   4.815   0.365
 2641TIP3   OH2 7886   5.088   5.084   0.114
 2641TIP3    H1 7887   5.166   5.115   0.067
 2641TIP3    H2 7888   5.107   5.099   0.206
 2642TIP3   OH2 7889   2.328   3.882   0.850
 2642TIP3    H1 7890   2.314   3.908   0.759
 2642TIP3    H2 7891   2.279   3.947   0.900
 2643TIP3   OH2 7892   4.598   0.647   1.687
 2643TIP3    H1 7893   4.593   0.597   1.606
 2643TIP3    H2 7894   4.565   0.734   1.664
 2644TIP3   OH2 7895   6.369   0.788   5.403
 2644TIP3    H1 7896   6.429   0.828   5.465
 2644TIP3    H2 7897   6.330   0.714   5.451
 2645TIP3   OH2 7898   4.704   4.102   3.696
 2645TIP3    H1 7899   4.740   4.037   3.636
 2645TIP3    H2 7900   4.612   4.079   3.704
 2646TIP3   OH2 7901   3.871   1.802   2.642
 2646TIP3    H1 7902   3.861   1.861   2.568
 2646TIP3    H2 7903   3.851   1.715   2.607
 2647TIP3   OH2 7904   4.119   3.036   1.087
 2647TIP3    H1 7905   4.179   2.973   1.127
 2647TIP3    H2 7906   4.034   3.014   1.124
 2648TIP3   OH2 7907   6.799   4.817   0.155
 2648TIP3    H1 7908   6.735   4.785   0.092
 2648TIP3    H2 7909   6.865   4.748   0.160
 2649TIP3   OH2 7910   4.834   6.209   1.457
 2649TIP3    H1 7911   4.825   6.128   1.407
 2649TIP3    H2 7912   4.789   6.191   1.539
 2650TIP3   OH2 7913   4.221   4.331   0.440
 2650TIP3    H1 7914   4.140   4.337   0.389
 2650TIP3    H2 7915   4.237   4.420   0.471
 2651TIP3   OH2 7916   5.682   1.608   3.371
 2651TIP3    H1 7917   5.719   1.588   3.457
 2651TIP3    H2 7918   5.752   1.654   3.325
 2652TIP3   OH2 7919   5.788   2.883   2.825
 2652TIP3    H1 7920   5.707   2.852   2.867
 2652TIP3    H2 7921   5.858   2.838   2.872
 2653TIP3   OH2 7922   4.432   3.337   5.617
 2653TIP3    H1 7923   4.404   3.268   5.557
 2653TIP3    H2 7924   4.352   3.361   5.665
 2654TIP3   OH2 7925   2.815   4.203   1.971
 2654TIP3    H1 7926   2.874   4.150   2.025
 2654TIP3    H2 7927   2.729   4.164   1.984
 2655TIP3   OH2 7928   6.697   3.958   1.845
 2655TIP3    H1 7929   6.751   4.018   1.793
 2655TIP3    H2 7930   6.720   3.977   1.935
 2656TIP3   OH2 7931   1.096   4.147   2.678
 2656TIP3    H1 7932   1.145   4.225   2.703
 2656TIP3    H2 7933   1.161   4.087   2.643
 2657TIP3   OH2 7934   1.564   6.233   4.221
 2657TIP3    H1 7935   1.484   6.215   4.173
 2657TIP3    H2 7936   1.549   6.197   4.308
 2658TIP3   OH2 7937   2.087   0.550   5.399
 2658TIP3    H1 7938   2.082   0.605   5.320
 2658TIP3    H2 7939   2.147   0.596   5.457
 2659TIP3   OH2 7940   1.859   3.323   1.029
 2659TIP3    H1 7941   1.880   3.288   0.942
 2659TIP3    H2 7942   1.941   3.318   1.078
 2660TIP3   OH2 7943   5.929   2.740   0.302
 2660TIP3    H1 7944   5.915   2.645   0.312
 2660TIP3    H2 7945   5.922   2.755   0.208
 2661TIP3   OH2 7946   1.551   4.689   0.443
 2661TIP3    H1 7947   1.501   4.737   0.377
 2661TIP3    H2 7948   1.643   4.706   0.421
 2662TIP3   OH2 7949   5.011   3.262   4.632
 2662TIP3    H1 7950   4.924   3.302   4.623
 2662TIP3    H2 7951   5.069   3.335   4.650
 2663TIP3   OH2 7952   3.051   5.444   4.596
 2663TIP3    H1 7953   3.073   5.380   4.663
 2663TIP3    H2 7954   2.984   5.401   4.543
 2664TIP3   OH2 7955   5.841   0.808   0.613
 2664TIP3    H1 7956   5.790   0.797   0.694
 2664TIP3    H2 7957   5.910   0.742   0.619
 2665TIP3   OH2 7958   1.931   6.679   5.582
 2665TIP3    H1 7959   1.992   6.621   5.627
 2665TIP3    H2 7960   1.955   6.767   5.612
 2666TIP3   OH2 7961   7.009   3.716   0.415
 2666TIP3    H1 7962   7.104   3.724   0.421
 2666TIP3    H2 7963   6.975   3.796   0.457
 2667TIP3   OH2 7964   5.071   1.468   3.477
 2667TIP3    H1 7965   5.041   1.559   3.475
 2667TIP3    H2 7966   5.061   1.442   3.568
 2668TIP3   OH2 7967   7.098   2.289   3.942
 2668TIP3    H1 7968   7.074   2.265   3.852
 2668TIP3    H2 7969   7.182   2.246   3.956
 2669TIP3   OH2 7970   3.551   2.345   5.384
 2669TIP3    H1 7971   3.477   2.314   5.436
 2669TIP3    H2 7972   3.567   2.434   5.417
 2670TIP3   OH2 7973   2.693   0.491   2.070
 2670TIP3    H1 7974   2.739   0.548   2.132
 2670TIP3    H2 7975   2.758   0.426   2.044
 2671TIP3   OH2 7976   1.892   4.035   0.639
 2671TIP3    H1 7977   1.958   4.083   0.589
 2671TIP3    H2 7978   1.942   3.966   0.684
 2672TIP3   OH2 7979   0.844   6.106   3.150
 2672TIP3    H1 7980   0.876   6.017   3.133
 2672TIP3    H2 7981   0.829   6.109   3.244
 2673TIP3   OH2 7982   4.869   4.886   2.934
 2673TIP3    H1 7983   4.838   4.968   2.973
 2673TIP3    H2 7984   4.942   4.912   2.878
 2674TIP3   OH2 7985   0.676   6.772   3.425
 2674TIP3    H1 7986   0.669   6.762   3.520
 2674TIP3    H2 7987   0.769   6.759   3.406
 2675TIP3   OH2 7988   0.461   2.555   5.304
 2675TIP3    H1 7989   0.374   2.567   5.264
 2675TIP3    H2 7990   0.519   2.536   5.230
 2676TIP3   OH2 7991   1.808   0.213   3.794
 2676TIP3    H1 7992   1.815   0.295   3.745
 2676TIP3    H2 7993   1.798   0.241   3.885
 2677TIP3   OH2 7994   6.335   3.281   4.009
 2677TIP3    H1 7995   6.252   3.326   3.993
 2677TIP3    H2 7996   6.401   3.338   3.969
 2678TIP3   OH2 7997   2.239   5.087   5.582
 2678TIP3    H1 7998   2.175   5.035   5.631
 2678TIP3    H2 7999   2.324   5.059   5.615
 2679TIP3   OH2 8000   3.988   5.991   5.557
 2679TIP3    H1 8001   4.055   6.022   5.617
 2679TIP3    H2 8002   4.012   5.900   5.539
 2680TIP3   OH2 8003   6.123   2.476   2.072
 2680TIP3    H1 8004   6.059   2.409   2.048
 2680TIP3    H2 8005   6.143   2.521   1.990
 2681TIP3   OH2 8006   3.390   4.792   0.396
 2681TIP3    H1 8007   3.297   4.815   0.395
 2681TIP3    H2 8008   3.396   4.715   0.453
 2682TIP3   OH2 8009   2.337   3.429   1.854
 2682TIP3    H1 8010   2.275   3.452   1.785
 2682TIP3    H2 8011   2.389   3.509   1.866
 2683TIP3   OH2 8012   0.764   0.413   1.457
 2683TIP3    H1 8013   0.840   0.363   1.428
 2683TIP3    H2 8014   0.800   0.476   1.521
 2684TIP3   OH2 8015   6.785   0.261   5.662
 2684TIP3    H1 8016   6.838   0.335   5.632
 2684TIP3    H2 8017   6.822   0.185   5.617
 2685TIP3   OH2 8018   6.337   0.079   3.413
 2685TIP3    H1 8019   6.264   0.051   3.359
 2685TIP3    H2 8020   6.351   0.171   3.389
 2686TIP3   OH2 8021   1.185   2.351   0.262
 2686TIP3    H1 8022   1.204   2.269   0.308
 2686TIP3    H2 8023   1.119   2.327   0.197
 2687TIP3   OH2 8024   2.809   1.009   2.826
 2687TIP3    H1 8025   2.842   0.945   2.889
 2687TIP3    H2 8026   2.716   1.017   2.847
 2688TIP3   OH2 8027   5.515   2.647   3.426
 2688TIP3    H1 8028   5.548   2.666   3.514
 2688TIP3    H2 8029   5.423   2.625   3.439
 2689TIP3   OH2 8030   2.659   5.680   3.722
 2689TIP3    H1 8031   2.660   5.588   3.748
 2689TIP3    H2 8032   2.573   5.692   3.681
 2690TIP3   OH2 8033   3.388   5.571   4.972
 2690TIP3    H1 8034   3.436   5.647   5.003
 2690TIP3    H2 8035   3.397   5.506   5.041
 2691TIP3   OH2 8036   6.417   1.565   4.832
 2691TIP3    H1 8037   6.328   1.553   4.798
 2691TIP3    H2 8038   6.444   1.650   4.798
 2692TIP3   OH2 8039   5.416   1.877   0.055
 2692TIP3    H1 8040   5.389   1.958   0.010
 2692TIP3    H2 8041   5.439   1.817  -0.016
 2693TIP3   OH2 8042   3.447   1.959   3.460
 2693TIP3    H1 8043   3.423   2.039   3.506
 2693TIP3    H2 8044   3.533   1.936   3.495
 2694TIP3   OH2 8045   4.746   6.429   5.685
 2694TIP3    H1 8046   4.685   6.370   5.729
 2694TIP3    H2 8047   4.768   6.385   5.603
 2695TIP3   OH2 8048   2.243   1.257   4.086
 2695TIP3    H1 8049   2.213   1.166   4.086
 2695TIP3    H2 8050   2.178   1.304   4.033
 2696TIP3   OH2 8051   4.030   5.921   4.805
 2696TIP3    H1 8052   4.073   5.866   4.740
 2696TIP3    H2 8053   3.941   5.933   4.771
 2697TIP3   OH2 8054   3.744   3.439   1.355
 2697TIP3    H1 8055   3.789   3.490   1.288
 2697TIP3    H2 8056   3.710   3.363   1.308
 2698TIP3   OH2 8057   5.307   4.818   0.070
 2698TIP3    H1 8058   5.365   4.745   0.092
 2698TIP3    H2 8059   5.271   4.846   0.154
 2699TIP3   OH2 8060   4.533   0.781   0.738
 2699TIP3    H1 8061   4.598   0.843   0.772
 2699TIP3    H2 8062   4.538   0.792   0.643
 2700TIP3   OH2 8063   0.033   6.425   2.147
 2700TIP3    H1 8064   0.049   6.363   2.075
 2700TIP3    H2 8065   0.020   6.369   2.224
 2701TIP3   OH2 8066   1.072   3.633   3.017
 2701TIP3    H1 8067   0.987   3.596   2.996
 2701TIP3    H2 8068   1.115   3.567   3.072
 2702TIP3   OH2 8069   0.166   2.608   0.768
 2702TIP3    H1 8070   0.123   2.529   0.736
 2702TIP3    H2 8071   0.167   2.598   0.863
 2703TIP3   OH2 8072   1.954   2.127   1.730
 2703TIP3    H1 8073   1.992   2.112   1.643
 2703TIP3    H2 8074   1.898   2.050   1.745
 2704TIP3   OH2 8075   5.737   1.017   1.447
 2704TIP3    H1 8076   5.699   0.932   1.468
 2704TIP3    H2 8077   5.753   1.058   1.532
 2705TIP3   OH2 8078   6.892   3.327   3.718
 2705TIP3    H1 8079   6.833   3.361   3.651
 2705TIP3    H2 8080   6.836   3.308   3.793
 2706TIP3   OH2 8081   6.634   3.519   2.010
 2706TIP3    H1 8082   6.635   3.577   2.086
 2706TIP3    H2 8083   6.700   3.555   1.951
 2707TIP3   OH2 8084   6.919   4.696   2.736
 2707TIP3    H1 8085   6.898   4.661   2.822
 2707TIP3    H2 8086   7.008   4.665   2.719
 2708TIP3   OH2 8087   6.161   0.803   2.578
 2708TIP3    H1 8088   6.075   0.774   2.550
 2708TIP3    H2 8089   6.162   0.897   2.560
 2709TIP3   OH2 8090   4.424   5.566   3.318
 2709TIP3    H1 8091   4.482   5.510   3.369
 2709TIP3    H2 8092   4.475   5.645   3.302
 2710TIP3   OH2 8093   3.835   4.701   5.420
 2710TIP3    H1 8094   3.821   4.608   5.437
 2710TIP3    H2 8095   3.887   4.731   5.495
 2711TIP3   OH2 8096   4.676   1.609   3.969
 2711TIP3    H1 8097   4.617   1.619   4.044
 2711TIP3    H2 8098   4.672   1.515   3.948
 2712TIP3   OH2 8099   5.279   3.514   3.483
 2712TIP3    H1 8100   5.366   3.525   3.445
 2712TIP3    H2 8101   5.294   3.463   3.562
 2713TIP3   OH2 8102   0.372   5.597   1.272
 2713TIP3    H1 8103   0.403   5.654   1.343
 2713TIP3    H2 8104   0.450   5.580   1.220
 2714TIP3   OH2 8105   0.936   5.172   1.396
 2714TIP3    H1 8106   0.935   5.077   1.401
 2714TIP3    H2 8107   1.021   5.197   1.432
 2715TIP3   OH2 8108   6.215   5.092   2.527
 2715TIP3    H1 8109   6.134   5.092   2.475
 2715TIP3    H2 8110   6.251   5.181   2.515
 2716TIP3   OH2 8111   6.813   1.741   5.859
 2716TIP3    H1 8112   6.764   1.693   5.793
 2716TIP3    H2 8113   6.780   1.707   5.943
 2717TIP3   OH2 8114   4.064   6.596   2.395
 2717TIP3    H1 8115   3.982   6.546   2.389
 2717TIP3    H2 8116   4.118   6.547   2.456
 2718TIP3   OH2 8117   3.164   6.733   2.562
 2718TIP3    H1 8118   3.246   6.684   2.553
 2718TIP3    H2 8119   3.136   6.716   2.651
 2719TIP3   OH2 8120   0.421   6.748   4.456
 2719TIP3    H1 8121   0.393   6.666   4.416
 2719TIP3    H2 8122   0.380   6.817   4.403
 2720TIP3   OH2 8123   5.013   6.259   5.593
 2720TIP3    H1 8124   4.982   6.176   5.631
 2720TIP3    H2 8125   4.977   6.326   5.651
 2721TIP3   OH2 8126   4.799   1.328   2.766
 2721TIP3    H1 8127   4.730   1.334   2.700
 2721TIP3    H2 8128   4.754   1.341   2.850
 2722TIP3   OH2 8129   2.171   3.424   2.664
 2722TIP3    H1 8130   2.260   3.408   2.694
 2722TIP3    H2 8131   2.118   3.359   2.708
 2723TIP3   OH2 8132   0.637   1.171   1.093
 2723TIP3    H1 8133   0.724   1.144   1.121
 2723TIP3    H2 8134   0.615   1.245   1.150
 2724TIP3   OH2 8135   6.381   6.362   3.324
 2724TIP3    H1 8136   6.449   6.412   3.280
 2724TIP3    H2 8137   6.426   6.284   3.357
 2725TIP3   OH2 8138   0.293   1.165   3.003
 2725TIP3    H1 8139   0.208   1.136   2.972
 2725TIP3    H2 8140   0.343   1.182   2.924
 2726TIP3   OH2 8141   5.062   3.364   3.447
 2726TIP3    H1 8142   5.132   3.425   3.472
 2726TIP3    H2 8143   5.086   3.282   3.491
 2727TIP3   OH2 8144   4.197   4.987   5.438
 2727TIP3    H1 8145   4.161   5.071   5.467
 2727TIP3    H2 8146   4.140   4.921   5.480
 2728TIP3   OH2 8147   6.032   3.735   3.400
 2728TIP3    H1 8148   6.102   3.697   3.346
 2728TIP3    H2 8149   6.069   3.735   3.489
 2729TIP3   OH2 8150   4.889   4.219   2.579
 2729TIP3    H1 8151   4.882   4.274   2.501
 2729TIP3    H2 8152   4.899   4.130   2.546
 2730TIP3   OH2 8153   4.285   4.744   2.880
 2730TIP3    H1 8154   4.276   4.707   2.792
 2730TIP3    H2 8155   4.204   4.794   2.893
 2731TIP3   OH2 8156   1.074   0.547   3.154
 2731TIP3    H1 8157   1.017   0.608   3.108
 2731TIP3    H2 8158   1.036   0.461   3.137
 2732TIP3   OH2 8159   5.924   6.443   2.002
 2732TIP3    H1 8160   5.910   6.362   2.051
 2732TIP3    H2 8161   5.850   6.447   1.941
 2733TIP3   OH2 8162   1.819   0.548   2.773
 2733TIP3    H1 8163   1.868   0.535   2.691
 2733TIP3    H2 8164   1.736   0.587   2.746
 2734TIP3   OH2 8165   0.614   3.875   3.791
 2734TIP3    H1 8166   0.536   3.905   3.744
 2734TIP3    H2 8167   0.606   3.780   3.792
 2735TIP3   OH2 8168   3.177   2.773   1.983
 2735TIP3    H1 8169   3.199   2.792   1.891
 2735TIP3    H2 8170   3.242   2.821   2.034
 2736TIP3   OH2 8171   3.737   4.403   2.551
 2736TIP3    H1 8172   3.721   4.491   2.584
 2736TIP3    H2 8173   3.782   4.358   2.623
 2737TIP3   OH2 8174   6.542   6.223   0.534
 2737TIP3    H1 8175   6.491   6.142   0.533
 2737TIP3    H2 8176   6.633   6.194   0.533
 2738TIP3   OH2 8177   3.741   5.686   0.710
 2738TIP3    H1 8178   3.790   5.724   0.784
 2738TIP3    H2 8179   3.720   5.760   0.654
 2739TIP3   OH2 8180   5.969   1.355   2.841
 2739TIP3    H1 8181   5.971   1.359   2.745
 2739TIP3    H2 8182   5.896   1.412   2.866
 2740TIP3   OH2 8183   1.162   4.586   4.162
 2740TIP3    H1 8184   1.248   4.624   4.178
 2740TIP3    H2 8185   1.159   4.570   4.068
 2741TIP3   OH2 8186   4.515   5.833   3.300
 2741TIP3    H1 8187   4.526   5.919   3.341
 2741TIP3    H2 8188   4.548   5.845   3.211
 2742TIP3   OH2 8189   1.850   5.879   2.166
 2742TIP3    H1 8190   1.821   5.947   2.105
 2742TIP3    H2 8191   1.775   5.820   2.173
 2743TIP3   OH2 8192   0.697   4.835   2.583
 2743TIP3    H1 8193   0.657   4.759   2.626
 2743TIP3    H2 8194   0.791   4.821   2.594
 2744TIP3   OH2 8195   1.464   6.202   2.919
 2744TIP3    H1 8196   1.519   6.173   2.846
 2744TIP3    H2 8197   1.507   6.167   2.997
 2745TIP3   OH2 8198   1.160   4.444   4.417
 2745TIP3    H1 8199   1.165   4.499   4.338
 2745TIP3    H2 8200   1.066   4.438   4.435
 2746TIP3   OH2 8201   6.976   0.136   3.982
 2746TIP3    H1 8202   7.023   0.187   4.049
 2746TIP3    H2 8203   7.027   0.150   3.902
 2747TIP3   OH2 8204   4.757   5.557   2.415
 2747TIP3    H1 8205   4.792   5.645   2.401
 2747TIP3    H2 8206   4.773   5.511   2.333
 2748TIP3   OH2 8207   0.894   2.392   1.585
 2748TIP3    H1 8208   0.942   2.374   1.504
 2748TIP3    H2 8209   0.960   2.426   1.645
 2749TIP3   OH2 8210   3.308   3.458   5.367
 2749TIP3    H1 8211   3.358   3.383   5.333
 2749TIP3    H2 8212   3.226   3.420   5.398
 2750TIP3   OH2 8213   0.800   6.000   5.408
 2750TIP3    H1 8214   0.720   6.052   5.397
 2750TIP3    H2 8215   0.793   5.932   5.341
 2751TIP3   OH2 8216   0.134   0.910   2.299
 2751TIP3    H1 8217   0.203   0.976   2.304
 2751TIP3    H2 8218   0.157   0.846   2.366
 2752TIP3   OH2 8219   4.721   2.448   4.666
 2752TIP3    H1 8220   4.742   2.499   4.588
 2752TIP3    H2 8221   4.760   2.362   4.649
 2753TIP3   OH2 8222   6.892   1.586   2.061
 2753TIP3    H1 8223   6.972   1.639   2.062
 2753TIP3    H2 8224   6.904   1.527   1.987
 2754TIP3   OH2 8225   0.805   6.358   0.936
 2754TIP3    H1 8226   0.782   6.354   1.029
 2754TIP3    H2 8227   0.757   6.285   0.896
 2755TIP3   OH2 8228   4.117   4.952   2.711
 2755TIP3    H1 8229   4.094   5.044   2.721
 2755TIP3    H2 8230   4.210   4.952   2.688
 2756TIP3   OH2 8231   4.654   2.651   3.750
 2756TIP3    H1 8232   4.678   2.559   3.736
 2756TIP3    H2 8233   4.693   2.673   3.835
 2757TIP3   OH2 8234   0.177   5.686   3.895
 2757TIP3    H1 8235   0.153   5.726   3.811
 2757TIP3    H2 8236   0.269   5.707   3.906
 2758TIP3   OH2 8237   6.477   1.575   3.424
 2758TIP3    H1 8238   6.395   1.566   3.374
 2758TIP3    H2 8239   6.463   1.653   3.477
 2759TIP3   OH2 8240   4.517   1.122   0.564
 2759TIP3    H1 8241   4.593   1.072   0.592
 2759TIP3    H2 8242   4.496   1.179   0.638
 2760TIP3   OH2 8243   1.711   0.988   1.911
 2760TIP3    H1 8244   1.658   0.911   1.892
 2760TIP3    H2 8245   1.712   0.994   2.007
 2761TIP3   OH2 8246   6.932   0.935   0.870
 2761TIP3    H1 8247   6.961   0.924   0.780
 2761TIP3    H2 8248   6.963   1.022   0.895
 2762TIP3   OH2 8249   2.109   0.448   4.042
 2762TIP3    H1 8250   2.204   0.441   4.047
 2762TIP3    H2 8251   2.089   0.533   4.082
 2763TIP3   OH2 8252   6.254   1.090   4.900
 2763TIP3    H1 8253   6.269   1.162   4.839
 2763TIP3    H2 8254   6.307   1.112   4.977
 2764TIP3   OH2 8255   0.582   5.011   2.376
 2764TIP3    H1 8256   0.647   4.972   2.434
 2764TIP3    H2 8257   0.613   4.991   2.288
 2765TIP3   OH2 8258   1.981   2.918   2.978
 2765TIP3    H1 8259   1.926   2.919   3.057
 2765TIP3    H2 8260   2.039   2.993   2.988
 2766TIP3   OH2 8261   2.987   0.746   3.254
 2766TIP3    H1 8262   3.012   0.836   3.274
 2766TIP3    H2 8263   2.974   0.705   3.339
 2767TIP3   OH2 8264   2.712   3.827   1.383
 2767TIP3    H1 8265   2.693   3.839   1.476
 2767TIP3    H2 8266   2.779   3.758   1.382
 2768TIP3   OH2 8267   1.829   2.233   3.725
 2768TIP3    H1 8268   1.782   2.154   3.697
 2768TIP3    H2 8269   1.897   2.245   3.659
 2769TIP3   OH2 8270   2.468   0.835   0.761
 2769TIP3    H1 8271   2.482   0.927   0.784
 2769TIP3    H2 8272   2.469   0.834   0.665
 2770TIP3   OH2 8273   6.771   4.588   4.232
 2770TIP3    H1 8274   6.741   4.663   4.282
 2770TIP3    H2 8275   6.866   4.588   4.243
 2771TIP3   OH2 8276   4.264   0.787   1.591
 2771TIP3    H1 8277   4.227   0.699   1.594
 2771TIP3    H2 8278   4.259   0.812   1.499
 2772TIP3   OH2 8279   4.271   5.205   2.524
 2772TIP3    H1 8280   4.347   5.197   2.466
 2772TIP3    H2 8281   4.214   5.269   2.480
 2773TIP3   OH2 8282   0.473   4.341   4.789
 2773TIP3    H1 8283   0.385   4.302   4.793
 2773TIP3    H2 8284   0.530   4.268   4.764
 2774TIP3   OH2 8285   0.735   2.920   5.339
 2774TIP3    H1 8286   0.817   2.891   5.298
 2774TIP3    H2 8287   0.757   3.005   5.378
 2775TIP3   OH2 8288   3.917   4.705   1.796
 2775TIP3    H1 8289   3.895   4.709   1.702
 2775TIP3    H2 8290   3.848   4.649   1.834
 2776TIP3   OH2 8291   6.880   3.768   0.170
 2776TIP3    H1 8292   6.934   3.731   0.100
 2776TIP3    H2 8293   6.924   3.743   0.250
 2777TIP3   OH2 8294   6.772   4.715   2.229
 2777TIP3    H1 8295   6.810   4.643   2.178
 2777TIP3    H2 8296   6.846   4.753   2.276
 2778TIP3   OH2 8297   6.237   2.726   3.211
 2778TIP3    H1 8298   6.305   2.758   3.271
 2778TIP3    H2 8299   6.158   2.720   3.265
 2779TIP3   OH2 8300   6.362   0.509   3.059
 2779TIP3    H1 8301   6.384   0.493   2.967
 2779TIP3    H2 8302   6.433   0.564   3.092
 2780TIP3   OH2 8303   6.163   6.601   1.949
 2780TIP3    H1 8304   6.167   6.680   2.004
 2780TIP3    H2 8305   6.076   6.565   1.966
 2781TIP3   OH2 8306   2.130   0.845   5.767
 2781TIP3    H1 8307   2.132   0.750   5.772
 2781TIP3    H2 8308   2.175   0.875   5.846
 2782TIP3   OH2 8309   6.658   3.650   4.451
 2782TIP3    H1 8310   6.618   3.729   4.486
 2782TIP3    H2 8311   6.720   3.622   4.519
 2783TIP3   OH2 8312   0.059   5.574   0.910
 2783TIP3    H1 8313   0.135   5.536   0.865
 2783TIP3    H2 8314   0.094   5.604   0.994
 2784TIP3   OH2 8315   4.600   2.583   1.219
 2784TIP3    H1 8316   4.607   2.488   1.211
 2784TIP3    H2 8317   4.648   2.605   1.298
 2785TIP3   OH2 8318   1.710   2.525   2.393
 2785TIP3    H1 8319   1.663   2.469   2.331
 2785TIP3    H2 8320   1.680   2.496   2.479
 2786TIP3   OH2 8321   2.108   2.091   1.477
 2786TIP3    H1 8322   2.077   2.177   1.449
 2786TIP3    H2 8323   2.180   2.070   1.417
 2787TIP3   OH2 8324   4.329   1.740   2.517
 2787TIP3    H1 8325   4.366   1.681   2.451
 2787TIP3    H2 8326   4.238   1.712   2.526
 2788TIP3   OH2 8327   7.114   2.025   0.092
 2788TIP3    H1 8328   7.084   1.978   0.014
 2788TIP3    H2 8329   7.110   2.117   0.067
 2789TIP3   OH2 8330   0.959   4.386   3.018
 2789TIP3    H1 8331   1.008   4.449   3.070
 2789TIP3    H2 8332   0.972   4.415   2.927
 2790TIP3   OH2 8333   5.010   0.219   4.749
 2790TIP3    H1 8334   5.054   0.198   4.831
 2790TIP3    H2 8335   4.943   0.151   4.740
 2791TIP3   OH2 8336   2.670   5.892   4.126
 2791TIP3    H1 8337   2.711   5.950   4.062
 2791TIP3    H2 8338   2.576   5.907   4.116
 2792TIP3   OH2 8339   2.083   6.704   0.568
 2792TIP3    H1 8340   2.147   6.746   0.626
 2792TIP3    H2 8341   2.130   6.692   0.486
 2793TIP3   OH2 8342   4.778   2.810   4.472
 2793TIP3    H1 8343   4.721   2.876   4.511
 2793TIP3    H2 8344   4.814   2.852   4.394
 2794TIP3   OH2 8345   1.472   1.067   3.057
 2794TIP3    H1 8346   1.381   1.037   3.059
 2794TIP3    H2 8347   1.474   1.134   2.989
 2795TIP3   OH2 8348   2.890   5.678   1.161
 2795TIP3    H1 8349   2.866   5.705   1.072
 2795TIP3    H2 8350   2.810   5.693   1.213
 2796TIP3   OH2 8351   0.051   2.304   5.419
 2796TIP3    H1 8352   0.001   2.334   5.343
 2796TIP3    H2 8353   0.006   2.342   5.494
 2797TIP3   OH2 8354   4.061   0.588   5.669
 2797TIP3    H1 8355   4.104   0.667   5.637
 2797TIP3    H2 8356   4.051   0.602   5.763
 2798TIP3   OH2 8357   1.559   4.790   3.482
 2798TIP3    H1 8358   1.599   4.781   3.395
 2798TIP3    H2 8359   1.622   4.749   3.541
 2799TIP3   OH2 8360   6.528   5.080   5.017
 2799TIP3    H1 8361   6.475   5.156   4.993
 2799TIP3    H2 8362   6.607   5.088   4.964
 2800TIP3   OH2 8363   4.402   4.503   4.085
 2800TIP3    H1 8364   4.366   4.480   4.171
 2800TIP3    H2 8365   4.431   4.594   4.095
 2801TIP3   OH2 8366   0.630   3.441   4.619
 2801TIP3    H1 8367   0.622   3.537   4.626
 2801TIP3    H2 8368   0.598   3.421   4.531
 2802TIP3   OH2 8369   6.060   1.045   0.661
 2802TIP3    H1 8370   6.093   0.968   0.707
 2802TIP3    H2 8371   6.055   1.018   0.569
 2803TIP3   OH2 8372   1.055   4.973   1.660
 2803TIP3    H1 8373   1.043   4.965   1.565
 2803TIP3    H2 8374   1.008   4.898   1.697
 2804TIP3   OH2 8375   4.417   3.756   4.524
 2804TIP3    H1 8376   4.348   3.805   4.568
 2804TIP3    H2 8377   4.464   3.711   4.594
 2805TIP3   OH2 8378   4.988   2.841   4.890
 2805TIP3    H1 8379   4.898   2.873   4.884
 2805TIP3    H2 8380   5.001   2.826   4.984
 2806TIP3   OH2 8381   5.377   5.595   0.700
 2806TIP3    H1 8382   5.292   5.617   0.736
 2806TIP3    H2 8383   5.369   5.615   0.606
 2807TIP3   OH2 8384   2.441   2.583   1.974
 2807TIP3    H1 8385   2.453   2.604   2.066
 2807TIP3    H2 8386   2.348   2.562   1.966
 2808TIP3   OH2 8387   3.256   5.850   2.034
 2808TIP3    H1 8388   3.212   5.913   2.091
 2808TIP3    H2 8389   3.229   5.764   2.069
 2809TIP3   OH2 8390   2.487   6.175   0.577
 2809TIP3    H1 8391   2.404   6.171   0.624
 2809TIP3    H2 8392   2.492   6.091   0.531
 2810TIP3   OH2 8393   2.985   4.134   3.597
 2810TIP3    H1 8394   2.920   4.193   3.634
 2810TIP3    H2 8395   2.970   4.138   3.503
 2811TIP3   OH2 8396   0.782   5.463   1.469
 2811TIP3    H1 8397   0.697   5.444   1.508
 2811TIP3    H2 8398   0.825   5.378   1.460
 2812TIP3   OH2 8399   3.153   4.531   5.660
 2812TIP3    H1 8400   3.141   4.603   5.598
 2812TIP3    H2 8401   3.106   4.558   5.739
 2813TIP3   OH2 8402   1.648   3.502   5.230
 2813TIP3    H1 8403   1.686   3.421   5.195
 2813TIP3    H2 8404   1.609   3.476   5.314
 2814TIP3   OH2 8405   2.165   1.207   3.651
 2814TIP3    H1 8406   2.088   1.176   3.699
 2814TIP3    H2 8407   2.231   1.139   3.665
 2815TIP3   OH2 8408   3.756   0.918   3.003
 2815TIP3    H1 8409   3.721   0.845   3.054
 2815TIP3    H2 8410   3.817   0.878   2.942
 2816TIP3   OH2 8411   2.084   2.510   3.710
 2816TIP3    H1 8412   2.175   2.508   3.740
 2816TIP3    H2 8413   2.043   2.580   3.760
 2817TIP3   OH2 8414   6.193   2.809   2.591
 2817TIP3    H1 8415   6.142   2.848   2.520
 2817TIP3    H2 8416   6.147   2.836   2.671
 2818TIP3   OH2 8417   6.629   5.410   5.163
 2818TIP3    H1 8418   6.588   5.408   5.077
 2818TIP3    H2 8419   6.569   5.460   5.218
 2819TIP3   OH2 8420   3.009   4.783   1.963
 2819TIP3    H1 8421   3.010   4.845   1.890
 2819TIP3    H2 8422   3.033   4.699   1.924
 2820TIP3   OH2 8423   1.765   0.292   1.986
 2820TIP3    H1 8424   1.742   0.272   1.895
 2820TIP3    H2 8425   1.732   0.380   2.001
 2821TIP3   OH2 8426   3.280   0.857   0.444
 2821TIP3    H1 8427   3.334   0.853   0.365
 2821TIP3    H2 8428   3.296   0.773   0.488
 2822TIP3   OH2 8429   5.749   0.906   2.506
 2822TIP3    H1 8430   5.820   0.862   2.458
 2822TIP3    H2 8431   5.765   0.999   2.492
 2823TIP3   OH2 8432   3.851   2.504   1.455
 2823TIP3    H1 8433   3.906   2.480   1.380
 2823TIP3    H2 8434   3.827   2.421   1.495
 2824TIP3   OH2 8435   5.362   1.395   5.730
 2824TIP3    H1 8436   5.430   1.386   5.797
 2824TIP3    H2 8437   5.315   1.475   5.756
 2825TIP3   OH2 8438   5.583   5.218   0.972
 2825TIP3    H1 8439   5.670   5.188   0.945
 2825TIP3    H2 8440   5.592   5.313   0.981
 2826TIP3   OH2 8441   5.299   0.860   3.078
 2826TIP3    H1 8442   5.380   0.842   3.126
 2826TIP3    H2 8443   5.272   0.946   3.108
 2827TIP3   OH2 8444   3.630   4.103   1.353
 2827TIP3    H1 8445   3.667   4.133   1.270
 2827TIP3    H2 8446   3.672   4.018   1.369
 2828TIP3   OH2 8447   0.664   5.146   5.629
 2828TIP3    H1 8448   0.606   5.080   5.665
 2828TIP3    H2 8449   0.677   5.120   5.538
 2829TIP3   OH2 8450   0.508   1.408   4.710
 2829TIP3    H1 8451   0.421   1.368   4.702
 2829TIP3    H2 8452   0.548   1.363   4.784
 2830TIP3   OH2 8453   5.790   5.611   0.217
 2830TIP3    H1 8454   5.873   5.622   0.263
 2830TIP3    H2 8455   5.812   5.560   0.140
 2831TIP3   OH2 8456   4.653   0.852   4.342
 2831TIP3    H1 8457   4.561   0.870   4.359
 2831TIP3    H2 8458   4.652   0.782   4.276
 2832TIP3   OH2 8459   2.612   2.586   0.551
 2832TIP3    H1 8460   2.655   2.544   0.626
 2832TIP3    H2 8461   2.611   2.518   0.484
 2833TIP3   OH2 8462   4.274   4.041   2.647
 2833TIP3    H1 8463   4.305   4.130   2.661
 2833TIP3    H2 8464   4.229   4.018   2.729
 2834TIP3   OH2 8465   3.386   4.749   2.320
 2834TIP3    H1 8466   3.307   4.735   2.268
 2834TIP3    H2 8467   3.378   4.839   2.353
 2835TIP3   OH2 8468   6.968   2.672   2.284
 2835TIP3    H1 8469   6.977   2.596   2.226
 2835TIP3    H2 8470   7.057   2.691   2.313
 2836TIP3   OH2 8471   6.749   4.702   4.671
 2836TIP3    H1 8472   6.730   4.614   4.703
 2836TIP3    H2 8473   6.841   4.700   4.646
 2837TIP3   OH2 8474   0.794   3.256   4.298
 2837TIP3    H1 8475   0.779   3.205   4.219
 2837TIP3    H2 8476   0.840   3.196   4.357
 2838TIP3   OH2 8477   2.334   6.470   2.446
 2838TIP3    H1 8478   2.274   6.400   2.422
 2838TIP3    H2 8479   2.296   6.508   2.525
 2839TIP3   OH2 8480   0.844   6.545   4.765
 2839TIP3    H1 8481   0.759   6.584   4.746
 2839TIP3    H2 8482   0.837   6.513   4.855
 2840TIP3   OH2 8483   3.205   6.704   1.183
 2840TIP3    H1 8484   3.172   6.761   1.114
 2840TIP3    H2 8485   3.194   6.615   1.147
 2841TIP3   OH2 8486   5.219   4.543   4.575
 2841TIP3    H1 8487   5.224   4.572   4.665
 2841TIP3    H2 8488   5.293   4.484   4.564
 2842TIP3   OH2 8489   3.812   1.662   3.850
 2842TIP3    H1 8490   3.734   1.677   3.797
 2842TIP3    H2 8491   3.786   1.596   3.914
 2843TIP3   OH2 8492   0.969   3.516   4.895
 2843TIP3    H1 8493   0.917   3.460   4.952
 2843TIP3    H2 8494   1.005   3.583   4.953
 2844TIP3   OH2 8495   4.310   1.701   0.056
 2844TIP3    H1 8496   4.287   1.657   0.138
 2844TIP3    H2 8497   4.384   1.757   0.078
 2845TIP3   OH2 8498   1.779   6.833   2.343
 2845TIP3    H1 8499   1.859   6.813   2.296
 2845TIP3    H2 8500   1.717   6.860   2.275
 2846TIP3   OH2 8501   5.827   5.349   4.934
 2846TIP3    H1 8502   5.733   5.342   4.917
 2846TIP3    H2 8503   5.861   5.398   4.859
 2847TIP3   OH2 8504   3.499   3.147   5.551
 2847TIP3    H1 8505   3.513   3.233   5.591
 2847TIP3    H2 8506   3.476   3.166   5.460
 2848TIP3   OH2 8507   2.061   0.676   2.046
 2848TIP3    H1 8508   2.064   0.656   1.952
 2848TIP3    H2 8509   2.084   0.594   2.090
 2849TIP3   OH2 8510   2.208   1.859   2.896
 2849TIP3    H1 8511   2.226   1.852   2.802
 2849TIP3    H2 8512   2.144   1.931   2.902
 2850TIP3   OH2 8513   1.611   3.029   2.935
 2850TIP3    H1 8514   1.541   3.059   2.877
 2850TIP3    H2 8515   1.686   3.084   2.912
 2851TIP3   OH2 8516   4.617   0.466   1.460
 2851TIP3    H1 8517   4.614   0.384   1.510
 2851TIP3    H2 8518   4.535   0.467   1.409
 2852TIP3   OH2 8519   0.139   5.715   1.821
 2852TIP3    H1 8520   0.111   5.779   1.755
 2852TIP3    H2 8521   0.235   5.714   1.813
 2853TIP3   OH2 8522   0.320   0.174   5.612
 2853TIP3    H1 8523   0.290   0.188   5.701
 2853TIP3    H2 8524   0.285   0.248   5.562
 2854TIP3   OH2 8525   6.580   5.634   2.656
 2854TIP3    H1 8526   6.513   5.566   2.645
 2854TIP3    H2 8527   6.539   5.714   2.621
 2855TIP3   OH2 8528   2.581   3.770   0.646
 2855TIP3    H1 8529   2.654   3.751   0.705
 2855TIP3    H2 8530   2.506   3.727   0.687
 2856TIP3   OH2 8531   4.751   2.750   5.473
 2856TIP3    H1 8532   4.798   2.782   5.550
 2856TIP3    H2 8533   4.761   2.820   5.408
 2857TIP3   OH2 8534   1.266   3.516   2.324
 2857TIP3    H1 8535   1.225   3.553   2.403
 2857TIP3    H2 8536   1.360   3.520   2.342
 2858TIP3   OH2 8537   1.186   1.599   2.262
 2858TIP3    H1 8538   1.243   1.660   2.214
 2858TIP3    H2 8539   1.127   1.656   2.311
 2859TIP3   OH2 8540   2.478   1.868   3.012
 2859TIP3    H1 8541   2.403   1.894   2.959
 2859TIP3    H2 8542   2.548   1.929   2.988
 2860TIP3   OH2 8543   3.029   4.440   2.684
 2860TIP3    H1 8544   3.062   4.440   2.774
 2860TIP3    H2 8545   2.977   4.360   2.677
 2861TIP3   OH2 8546   1.950   1.137   2.990
 2861TIP3    H1 8547   1.937   1.053   3.034
 2861TIP3    H2 8548   2.017   1.182   3.043
 2862TIP3   OH2 8549   6.242   1.460   3.790
 2862TIP3    H1 8550   6.152   1.461   3.823
 2862TIP3    H2 8551   6.237   1.505   3.706
 2863TIP3   OH2 8552   4.329   6.153   3.379
 2863TIP3    H1 8553   4.295   6.068   3.352
 2863TIP3    H2 8554   4.424   6.144   3.374
 2864TIP3   OH2 8555   0.085   2.113   5.158
 2864TIP3    H1 8556   0.097   2.118   5.253
 2864TIP3    H2 8557   0.162   2.157   5.122
 2865TIP3   OH2 8558   1.360   1.412   0.294
 2865TIP3    H1 8559   1.293   1.378   0.234
 2865TIP3    H2 8560   1.335   1.503   0.308
 2866TIP3   OH2 8561   0.091   2.681   4.342
 2866TIP3    H1 8562   0.178   2.701   4.378
 2866TIP3    H2 8563   0.072   2.755   4.284
 2867TIP3   OH2 8564   3.364   2.406   4.994
 2867TIP3    H1 8565   3.349   2.402   4.900
 2867TIP3    H2 8566   3.425   2.334   5.011
 2868TIP3   OH2 8567   3.304   3.255   5.888
 2868TIP3    H1 8568   3.358   3.298   5.822
 2868TIP3    H2 8569   3.337   3.165   5.892
 2869TIP3   OH2 8570   1.428   1.756   1.699
 2869TIP3    H1 8571   1.495   1.762   1.631
 2869TIP3    H2 8572   1.350   1.793   1.659
 2870TIP3   OH2 8573   5.538   3.515   4.188
 2870TIP3    H1 8574   5.625   3.515   4.228
 2870TIP3    H2 8575   5.479   3.492   4.259
 2871TIP3   OH2 8576   6.114   1.895   4.675
 2871TIP3    H1 8577   6.055   1.859   4.742
 2871TIP3    H2 8578   6.178   1.946   4.724
 2872TIP3   OH2 8579   3.659   2.831   3.009
 2872TIP3    H1 8580   3.608   2.894   2.958
 2872TIP3    H2 8581   3.598   2.759   3.025
 2873TIP3   OH2 8582   2.934   5.782   2.495
 2873TIP3    H1 8583   2.933   5.860   2.439
 2873TIP3    H2 8584   2.848   5.742   2.481
 2874TIP3   OH2 8585   7.137   3.214   0.533
 2874TIP3    H1 8586   7.198   3.276   0.573
 2874TIP3    H2 8587   7.086   3.181   0.606
 2875TIP3   OH2 8588   3.065   1.569   1.938
 2875TIP3    H1 8589   3.135   1.541   1.997
 2875TIP3    H2 8590   2.986   1.529   1.975
 2876TIP3   OH2 8591   3.538   4.564   5.837
 2876TIP3    H1 8592   3.606   4.578   5.904
 2876TIP3    H2 8593   3.540   4.470   5.820
 2877TIP3   OH2 8594   2.429   4.341   3.370
 2877TIP3    H1 8595   2.393   4.271   3.424
 2877TIP3    H2 8596   2.363   4.354   3.301
 2878TIP3   OH2 8597   3.837   0.865   1.070
 2878TIP3    H1 8598   3.751   0.897   1.045
 2878TIP3    H2 8599   3.897   0.904   1.005
 2879TIP3   OH2 8600   2.804   4.344   4.098
 2879TIP3    H1 8601   2.792   4.433   4.066
 2879TIP3    H2 8602   2.824   4.293   4.019
 2880TIP3   OH2 8603   5.297   2.363   3.739
 2880TIP3    H1 8604   5.383   2.396   3.712
 2880TIP3    H2 8605   5.248   2.357   3.657
 2881TIP3   OH2 8606   0.103   2.148   4.034
 2881TIP3    H1 8607   0.083   2.057   4.013
 2881TIP3    H2 8608   0.198   2.154   4.026
 2882TIP3   OH2 8609   7.161   0.574   4.396
 2882TIP3    H1 8610   7.218   0.647   4.420
 2882TIP3    H2 8611   7.132   0.594   4.307
 2883TIP3   OH2 8612   4.151   3.889   3.663
 2883TIP3    H1 8613   4.092   3.815   3.676
 2883TIP3    H2 8614   4.172   3.919   3.752
 2884TIP3   OH2 8615   1.630   2.677   5.122
 2884TIP3    H1 8616   1.621   2.582   5.114
 2884TIP3    H2 8617   1.721   2.694   5.095
 2885TIP3   OH2 8618   5.094   5.837   3.379
 2885TIP3    H1 8619   5.106   5.742   3.382
 2885TIP3    H2 8620   5.140   5.869   3.457
 2886TIP3   OH2 8621   3.211   4.745   3.778
 2886TIP3    H1 8622   3.185   4.805   3.848
 2886TIP3    H2 8623   3.190   4.792   3.697
 2887TIP3   OH2 8624   4.362   1.229   0.838
 2887TIP3    H1 8625   4.316   1.290   0.896
 2887TIP3    H2 8626   4.437   1.200   0.889
 2888TIP3   OH2 8627   5.754   1.744   1.389
 2888TIP3    H1 8628   5.668   1.764   1.352
 2888TIP3    H2 8629   5.807   1.821   1.368
 2889TIP3   OH2 8630   3.412   0.258   0.498
 2889TIP3    H1 8631   3.368   0.326   0.548
 2889TIP3    H2 8632   3.444   0.197   0.564
 2890TIP3   OH2 8633   6.121   4.778   0.064
 2890TIP3    H1 8634   6.088   4.800  -0.023
 2890TIP3    H2 8635   6.054   4.722   0.103
 2891TIP3   OH2 8636   1.094   2.524   5.571
 2891TIP3    H1 8637   1.187   2.511   5.591
 2891TIP3    H2 8638   1.093   2.547   5.478
 2892TIP3   OH2 8639   6.092   2.277   0.982
 2892TIP3    H1 8640   6.072   2.370   0.967
 2892TIP3    H2 8641   6.089   2.238   0.895
 2893TIP3   OH2 8642   1.282   4.020   3.490
 2893TIP3    H1 8643   1.210   3.993   3.547
 2893TIP3    H2 8644   1.291   4.114   3.506
 2894TIP3   OH2 8645   3.712   5.631   4.376
 2894TIP3    H1 8646   3.689   5.541   4.354
 2894TIP3    H2 8647   3.641   5.661   4.433
 2895TIP3   OH2 8648   5.179   5.539   2.086
 2895TIP3    H1 8649   5.147   5.588   2.161
 2895TIP3    H2 8650   5.164   5.448   2.108
 2896TIP3   OH2 8651   3.306   6.269   4.993
 2896TIP3    H1 8652   3.306   6.183   4.950
 2896TIP3    H2 8653   3.336   6.330   4.926
 2897TIP3   OH2 8654   4.654   3.881   5.862
 2897TIP3    H1 8655   4.693   3.799   5.891
 2897TIP3    H2 8656   4.716   3.915   5.797
 2898TIP3   OH2 8657   2.009   4.264   3.183
 2898TIP3    H1 8658   2.039   4.181   3.217
 2898TIP3    H2 8659   1.949   4.298   3.250
 2899TIP3   OH2 8660   0.844   5.978   0.010
 2899TIP3    H1 8661   0.795   6.010   0.086
 2899TIP3    H2 8662   0.935   6.001   0.029
 2900TIP3   OH2 8663   3.313   3.877   3.113
 2900TIP3    H1 8664   3.278   3.858   3.200
 2900TIP3    H2 8665   3.239   3.861   3.054
 2901TIP3   OH2 8666   5.702   6.506   1.575
 2901TIP3    H1 8667   5.654   6.573   1.623
 2901TIP3    H2 8668   5.643   6.431   1.573
 2902TIP3   OH2 8669   5.536   4.028   3.691
 2902TIP3    H1 8670   5.619   4.030   3.739
 2902TIP3    H2 8671   5.482   4.092   3.737
 2903TIP3   OH2 8672   6.670   3.983   4.829
 2903TIP3    H1 8673   6.648   3.995   4.736
 2903TIP3    H2 8674   6.750   3.929   4.826
 2904TIP3   OH2 8675   0.803   3.889   1.207
 2904TIP3    H1 8676   0.836   3.948   1.139
 2904TIP3    H2 8677   0.827   3.801   1.177
 2905TIP3   OH2 8678   7.015   4.082   0.951
 2905TIP3    H1 8679   7.010   4.074   1.046
 2905TIP3    H2 8680   6.935   4.041   0.919
 2906TIP3   OH2 8681   1.461   3.738   1.113
 2906TIP3    H1 8682   1.482   3.808   1.175
 2906TIP3    H2 8683   1.544   3.696   1.095
 2907TIP3   OH2 8684   3.902   1.421   5.251
 2907TIP3    H1 8685   3.984   1.394   5.211
 2907TIP3    H2 8686   3.898   1.516   5.237
 2908TIP3   OH2 8687   1.576   3.069   4.299
 2908TIP3    H1 8688   1.523   3.140   4.264
 2908TIP3    H2 8689   1.657   3.111   4.328
 2909TIP3   OH2 8690   3.447   1.177   0.868
 2909TIP3    H1 8691   3.441   1.251   0.928
 2909TIP3    H2 8692   3.462   1.216   0.782
 2910TIP3   OH2 8693   5.961   6.483   1.688
 2910TIP3    H1 8694   5.871   6.498   1.658
 2910TIP3    H2 8695   6.003   6.569   1.682
 2911TIP3   OH2 8696   2.679   2.338   1.876
 2911TIP3    H1 8697   2.611   2.306   1.817
 2911TIP3    H2 8698   2.650   2.310   1.963
 2912TIP3   OH2 8699   0.885   0.874   2.024
 2912TIP3    H1 8700   0.981   0.880   2.023
 2912TIP3    H2 8701   0.857   0.946   2.081
 2913TIP3   OH2 8702   4.576   1.248   5.206
 2913TIP3    H1 8703   4.666   1.270   5.182
 2913TIP3    H2 8704   4.545   1.324   5.256
 2914TIP3   OH2 8705   6.625   1.619   5.691
 2914TIP3    H1 8706   6.545   1.635   5.641
 2914TIP3    H2 8707   6.673   1.555   5.639
 2915TIP3   OH2 8708   2.672   5.390   1.732
 2915TIP3    H1 8709   2.719   5.335   1.795
 2915TIP3    H2 8710   2.722   5.380   1.651
 2916TIP3   OH2 8711   2.328   2.038   3.836
 2916TIP3    H1 8712   2.424   2.041   3.838
 2916TIP3    H2 8713   2.305   2.057   3.745
 2917TIP3   OH2 8714   2.808   0.086   1.797
 2917TIP3    H1 8715   2.782  -0.005   1.783
 2917TIP3    H2 8716   2.885   0.098   1.742
 2918TIP3   OH2 8717   2.296   5.639   3.720
 2918TIP3    H1 8718   2.344   5.682   3.650
 2918TIP3    H2 8719   2.303   5.546   3.701
 2919TIP3   OH2 8720   3.034   1.733   3.338
 2919TIP3    H1 8721   2.980   1.790   3.285
 2919TIP3    H2 8722   2.976   1.661   3.364
 2920TIP3   OH2 8723   3.156   1.619   0.091
 2920TIP3    H1 8724   3.064   1.595   0.090
 2920TIP3    H2 8725   3.195   1.561   0.158
 2921TIP3   OH2 8726   0.559   3.597   3.887
 2921TIP3    H1 8727   0.479   3.558   3.852
 2921TIP3    H2 8728   0.596   3.530   3.944
 2922TIP3   OH2 8729   0.767   6.183   0.274
 2922TIP3    H1 8730   0.857   6.159   0.296
 2922TIP3    H2 8731   0.724   6.099   0.258
 2923TIP3   OH2 8732   2.224   4.399   4.607
 2923TIP3    H1 8733   2.244   4.487   4.573
 2923TIP3    H2 8734   2.309   4.356   4.615
 2924TIP3   OH2 8735   5.314   6.465   3.635
 2924TIP3    H1 8736   5.289   6.514   3.556
 2924TIP3    H2 8737   5.388   6.514   3.670
 2925TIP3   OH2 8738   0.649   6.788   2.147
 2925TIP3    H1 8739   0.641   6.698   2.115
 2925TIP3    H2 8740   0.559   6.819   2.152
 2926TIP3   OH2 8741   5.578   5.907   5.266
 2926TIP3    H1 8742   5.538   5.841   5.209
 2926TIP3    H2 8743   5.583   5.986   5.212
 2927TIP3   OH2 8744   2.909   4.849   3.915
 2927TIP3    H1 8745   2.871   4.849   3.827
 2927TIP3    H2 8746   2.936   4.939   3.930
 2928TIP3   OH2 8747   6.663   5.739   3.756
 2928TIP3    H1 8748   6.696   5.679   3.821
 2928TIP3    H2 8749   6.620   5.683   3.691
 2929TIP3   OH2 8750   4.287   6.225   4.383
 2929TIP3    H1 8751   4.217   6.218   4.448
 2929TIP3    H2 8752   4.347   6.290   4.420
 2930TIP3   OH2 8753   2.911   2.299   4.701
 2930TIP3    H1 8754   2.950   2.384   4.723
 2930TIP3    H2 8755   2.850   2.319   4.629
 2931TIP3   OH2 8756   1.378   1.908   2.806
 2931TIP3    H1 8757   1.455   1.877   2.853
 2931TIP3    H2 8758   1.314   1.838   2.816
 2932TIP3   OH2 8759   1.040   4.588   1.906
 2932TIP3    H1 8760   1.079   4.624   1.826
 2932TIP3    H2 8761   0.951   4.564   1.881
 2933TIP3   OH2 8762   1.906   4.216   5.735
 2933TIP3    H1 8763   1.905   4.229   5.830
 2933TIP3    H2 8764   1.824   4.254   5.705
 2934TIP3   OH2 8765   3.716   0.024   4.779
 2934TIP3    H1 8766   3.747  -0.066   4.790
 2934TIP3    H2 8767   3.620   0.015   4.771
 2935TIP3   OH2 8768   0.123   2.572   1.927
 2935TIP3    H1 8769   0.064   2.618   1.987
 2935TIP3    H2 8770   0.147   2.638   1.862
 2936TIP3   OH2 8771   2.190   6.598   2.715
 2936TIP3    H1 8772   2.203   6.577   2.808
 2936TIP3    H2 8773   2.143   6.681   2.715
 2937TIP3   OH2 8774   6.546   1.122   1.086
 2937TIP3    H1 8775   6.459   1.125   1.046
 2937TIP3    H2 8776   6.530   1.121   1.180
 2938TIP3   OH2 8777   2.458   5.585   1.095
 2938TIP3    H1 8778   2.387   5.649   1.095
 2938TIP3    H2 8779   2.528   5.628   1.145
 2939TIP3   OH2 8780   2.132   0.558   0.244
 2939TIP3    H1 8781   2.149   0.512   0.162
 2939TIP3    H2 8782   2.183   0.638   0.238
 2940TIP3   OH2 8783   0.816   2.270   1.216
 2940TIP3    H1 8784   0.899   2.289   1.260
 2940TIP3    H2 8785   0.813   2.174   1.213
 2941TIP3   OH2 8786   2.242   0.768   0.562
 2941TIP3    H1 8787   2.265   0.694   0.618
 2941TIP3    H2 8788   2.326   0.804   0.534
 2942TIP3   OH2 8789   3.921   2.947   2.306
 2942TIP3    H1 8790   3.906   2.854   2.294
 2942TIP3    H2 8791   3.833   2.985   2.314
 2943TIP3   OH2 8792   2.429   0.639   0.981
 2943TIP3    H1 8793   2.435   0.681   0.895
 2943TIP3    H2 8794   2.339   0.652   1.009
 2944TIP3   OH2 8795   3.516   1.707   0.937
 2944TIP3    H1 8796   3.592   1.745   0.981
 2944TIP3    H2 8797   3.467   1.783   0.905
 2945TIP3   OH2 8798   5.996   1.274   5.335
 2945TIP3    H1 8799   5.923   1.245   5.390
 2945TIP3    H2 8800   6.046   1.195   5.317
 2946TIP3   OH2 8801   6.079   1.507   5.447
 2946TIP3    H1 8802   6.156   1.534   5.398
 2946TIP3    H2 8803   6.048   1.429   5.402
 2947TIP3   OH2 8804   1.433   3.615   4.139
 2947TIP3    H1 8805   1.475   3.559   4.073
 2947TIP3    H2 8806   1.339   3.598   4.128
 2948TIP3   OH2 8807   1.692   5.619   2.416
 2948TIP3    H1 8808   1.764   5.618   2.353
 2948TIP3    H2 8809   1.678   5.527   2.439
 2949TIP3   OH2 8810   2.364   0.209   0.071
 2949TIP3    H1 8811   2.348   0.136   0.011
 2949TIP3    H2 8812   2.285   0.213   0.125
 2950TIP3   OH2 8813   0.877   0.190   2.295
 2950TIP3    H1 8814   0.942   0.122   2.281
 2950TIP3    H2 8815   0.913   0.268   2.252
 2951TIP3   OH2 8816   1.599   5.763   0.868
 2951TIP3    H1 8817   1.535   5.826   0.902
 2951TIP3    H2 8818   1.565   5.678   0.897
 2952TIP3   OH2 8819   5.652   1.214   0.591
 2952TIP3    H1 8820   5.710   1.198   0.665
 2952TIP3    H2 8821   5.655   1.309   0.578
 2953TIP3   OH2 8822   0.732   0.164   3.283
 2953TIP3    H1 8823   0.734   0.117   3.366
 2953TIP3    H2 8824   0.691   0.103   3.222
 2954TIP3   OH2 8825   4.421   3.768   3.834
 2954TIP3    H1 8826   4.390   3.688   3.877
 2954TIP3    H2 8827   4.511   3.748   3.808
 2955TIP3   OH2 8828   2.430   3.962   5.741
 2955TIP3    H1 8829   2.434   3.980   5.647
 2955TIP3    H2 8830   2.453   4.045   5.782
 2956TIP3   OH2 8831   3.359   5.282   1.904
 2956TIP3    H1 8832   3.400   5.213   1.852
 2956TIP3    H2 8833   3.274   5.298   1.862
 2957TIP3   OH2 8834   3.155   0.366   0.127
 2957TIP3    H1 8835   3.070   0.369   0.083
 2957TIP3    H2 8836   3.203   0.296   0.083
 2958TIP3   OH2 8837   3.030   2.682   3.339
 2958TIP3    H1 8838   3.002   2.740   3.410
 2958TIP3    H2 8839   3.097   2.627   3.379
 2959TIP3   OH2 8840   5.671   0.448   2.836
 2959TIP3    H1 8841   5.732   0.516   2.867
 2959TIP3    H2 8842   5.588   0.470   2.878
 2960TIP3   OH2 8843   3.769   0.234   1.249
 2960TIP3    H1 8844   3.732   0.253   1.335
 2960TIP3    H2 8845   3.738   0.305   1.193
 2961TIP3   OH2 8846   2.053   1.411   5.818
 2961TIP3    H1 8847   2.040   1.320   5.846
 2961TIP3    H2 8848   1.976   1.431   5.765
 2962TIP3   OH2 8849   1.624   0.456   2.430
 2962TIP3    H1 8850   1.692   0.399   2.394
 2962TIP3    H2 8851   1.672   0.531   2.466
 2963TIP3   OH2 8852   3.835   2.900   1.720
 2963TIP3    H1 8853   3.892   2.832   1.757
 2963TIP3    H2 8854   3.825   2.876   1.628
 2964TIP3   OH2 8855   6.692   0.671   3.820
 2964TIP3    H1 8856   6.734   0.589   3.793
 2964TIP3    H2 8857   6.760   0.737   3.811
 2965TIP3   OH2 8858   2.700   0.169   2.659
 2965TIP3    H1 8859   2.735   0.148   2.573
 2965TIP3    H2 8860   2.728   0.259   2.675
 2966TIP3   OH2 8861   1.936   1.630   0.294
 2966TIP3    H1 8862   1.864   1.617   0.356
 2966TIP3    H2 8863   2.013   1.645   0.349
 2967TIP3   OH2 8864   0.073   5.485   5.387
 2967TIP3    H1 8865   0.153   5.537   5.388
 2967TIP3    H2 8866   0.103   5.395   5.401
 2968TIP3   OH2 8867   5.238   4.579   5.227
 2968TIP3    H1 8868   5.205   4.537   5.148
 2968TIP3    H2 8869   5.302   4.643   5.196
 2969TIP3   OH2 8870   7.110   3.066   4.757
 2969TIP3    H1 8871   7.125   3.088   4.665
 2969TIP3    H2 8872   7.019   3.038   4.760
 2970TIP3   OH2 8873   3.330   5.794   5.177
 2970TIP3    H1 8874   3.391   5.787   5.104
 2970TIP3    H2 8875   3.253   5.746   5.149
 2971TIP3   OH2 8876   4.493   6.555   5.031
 2971TIP3    H1 8877   4.556   6.568   5.102
 2971TIP3    H2 8878   4.448   6.473   5.053
 2972TIP3   OH2 8879   6.584   4.309   2.738
 2972TIP3    H1 8880   6.611   4.369   2.808
 2972TIP3    H2 8881   6.491   4.329   2.725
 2973TIP3   OH2 8882   3.397   4.128   1.863
 2973TIP3    H1 8883   3.404   4.033   1.855
 2973TIP3    H2 8884   3.479   4.162   1.828
 2974TIP3   OH2 8885   3.777   1.103   2.755
 2974TIP3    H1 8886   3.726   1.053   2.819
 2974TIP3    H2 8887   3.770   1.052   2.674
 2975TIP3   OH2 8888   3.709   1.435   2.055
 2975TIP3    H1 8889   3.763   1.486   1.995
 2975TIP3    H2 8890   3.708   1.346   2.018
 2976TIP3   OH2 8891   0.605   1.651   4.567
 2976TIP3    H1 8892   0.569   1.565   4.589
 2976TIP3    H2 8893   0.663   1.672   4.640
 2977TIP3   OH2 8894   2.303   4.779   2.919
 2977TIP3    H1 8895   2.234   4.713   2.912
 2977TIP3    H2 8896   2.385   4.731   2.904
 2978TIP3   OH2 8897   5.799   2.022   4.408
 2978TIP3    H1 8898   5.779   2.087   4.340
 2978TIP3    H2 8899   5.749   1.944   4.383
 2979TIP3   OH2 8900   1.506   3.262   4.985
 2979TIP3    H1 8901   1.447   3.288   5.055
 2979TIP3    H2 8902   1.540   3.177   5.013
 2980TIP3   OH2 8903   0.825   3.085   5.024
 2980TIP3    H1 8904   0.786   3.112   4.941
 2980TIP3    H2 8905   0.834   2.990   5.016
 2981TIP3   OH2 8906   1.668   0.165   1.049
 2981TIP3    H1 8907   1.704   0.112   1.120
 2981TIP3    H2 8908   1.579   0.133   1.037
 2982TIP3   OH2 8909   0.865   3.760   1.853
 2982TIP3    H1 8910   0.876   3.792   1.764
 2982TIP3    H2 8911   0.918   3.818   1.907
 2983TIP3   OH2 8912   6.490   2.727   2.184
 2983TIP3    H1 8913   6.408   2.678   2.180
 2983TIP3    H2 8914   6.541   2.683   2.253
 2984TIP3   OH2 8915   5.617   5.068   2.163
 2984TIP3    H1 8916   5.702   5.101   2.191
 2984TIP3    H2 8917   5.593   5.123   2.089
 2985TIP3   OH2 8918   0.309   6.228   2.524
 2985TIP3    H1 8919   0.322   6.147   2.573
 2985TIP3    H2 8920   0.236   6.209   2.465
 2986TIP3   OH2 8921   4.545   5.840   4.962
 2986TIP3    H1 8922   4.517   5.760   4.917
 2986TIP3    H2 8923   4.480   5.906   4.936
 2987TIP3   OH2 8924   6.559   0.995   3.309
 2987TIP3    H1 8925   6.602   0.927   3.361
 2987TIP3    H2 8926   6.511   1.046   3.373
 2988TIP3   OH2 8927   0.739   0.410   3.399
 2988TIP3    H1 8928   0.712   0.399   3.490
 2988TIP3    H2 8929   0.752   0.321   3.367
 2989TIP3   OH2 8930   5.292   2.261   1.504
 2989TIP3    H1 8931   5.365   2.313   1.538
 2989TIP3    H2 8932   5.294   2.278   1.409
 2990TIP3   OH2 8933   3.869   5.930   4.254
 2990TIP3    H1 8934   3.825   5.876   4.188
 2990TIP3    H2 8935   3.802   5.947   4.320
 2991TIP3   OH2 8936   0.833   2.994   2.666
 2991TIP3    H1 8937   0.818   3.060   2.734
 2991TIP3    H2 8938   0.808   2.911   2.706
 2992TIP3   OH2 8939   6.656   3.814   0.036
 2992TIP3    H1 8940   6.681   3.900   0.005
 2992TIP3    H2 8941   6.735   3.779   0.078
 2993TIP3   OH2 8942   2.186   4.499   2.311
 2993TIP3    H1 8943   2.139   4.575   2.346
 2993TIP3    H2 8944   2.231   4.533   2.233
 2994TIP3   OH2 8945   5.148   0.163   3.714
 2994TIP3    H1 8946   5.135   0.116   3.632
 2994TIP3    H2 8947   5.148   0.255   3.690
 2995TIP3   OH2 8948   2.472   0.114   2.227
 2995TIP3    H1 8949   2.558   0.156   2.219
 2995TIP3    H2 8950   2.420   0.152   2.156
 2996TIP3   OH2 8951   4.733   6.046   2.941
 2996TIP3    H1 8952   4.812   6.056   2.994
 2996TIP3    H2 8953   4.758   6.079   2.855
 2997TIP3   OH2 8954   1.277   0.304   5.198
 2997TIP3    H1 8955   1.256   0.395   5.220
 2997TIP3    H2 8956   1.341   0.311   5.127
 2998TIP3   OH2 8957   1.419   5.474   0.209
 2998TIP3    H1 8958   1.473   5.494   0.285
 2998TIP3    H2 8959   1.368   5.398   0.235
 2999TIP3   OH2 8960   3.251   2.110   2.682
 2999TIP3    H1 8961   3.209   2.177   2.737
 2999TIP3    H2 8962   3.245   2.145   2.593
 3000TIP3   OH2 8963   5.341   2.230   0.987
 3000TIP3    H1 8964   5.355   2.271   0.902
 3000TIP3    H2 8965   5.248   2.208   0.989
 3001TIP3   OH2 8966   7.031   2.208   2.215
 3001TIP3    H1 8967   6.961   2.183   2.275
 3001TIP3    H2 8968   7.110   2.170   2.253
 3002TIP3   OH2 8969   0.681   4.968   1.343
 3002TIP3    H1 8970   0.728   5.050   1.356
 3002TIP3    H2 8971   0.748   4.906   1.316
 3003TIP3   OH2 8972   3.106   2.493   4.477
 3003TIP3    H1 8973   3.021   2.524   4.448
 3003TIP3    H2 8974   3.100   2.492   4.572
 3004TIP3   OH2 8975   1.485   3.711   1.452
 3004TIP3    H1 8976   1.451   3.648   1.515
 3004TIP3    H2 8977   1.579   3.695   1.451
 3005TIP3   OH2 8978   2.458   5.212   1.448
 3005TIP3    H1 8979   2.480   5.159   1.372
 3005TIP3    H2 8980   2.442   5.299   1.413
 3006TIP3   OH2 8981   6.094   5.164   4.987
 3006TIP3    H1 8982   6.157   5.234   4.974
 3006TIP3    H2 8983   6.110   5.103   4.915
 3007TIP3   OH2 8984   3.191   0.921   3.372
 3007TIP3    H1 8985   3.133   0.945   3.444
 3007TIP3    H2 8986   3.271   0.971   3.389
 3008TIP3   OH2 8987   0.345   0.383   2.252
 3008TIP3    H1 8988   0.373   0.409   2.163
 3008TIP3    H2 8989   0.258   0.346   2.240
 3009TIP3   OH2 8990   1.344   0.478   2.508
 3009TIP3    H1 8991   1.319   0.387   2.487
 3009TIP3    H2 8992   1.395   0.506   2.432
 3010TIP3   OH2 8993   6.018   6.127   5.129
 3010TIP3    H1 8994   5.981   6.211   5.155
 3010TIP3    H2 8995   6.015   6.074   5.209
 3011TIP3   OH2 8996   2.374   2.802   4.847
 3011TIP3    H1 8997   2.443   2.812   4.782
 3011TIP3    H2 8998   2.402   2.728   4.901
 3012TIP3   OH2 8999   2.564   4.373   2.893
 3012TIP3    H1 9000   2.645   4.324   2.906
 3012TIP3    H2 9001   2.494   4.308   2.905
 3013TIP3   OH2 9002   6.676   4.801   5.180
 3013TIP3    H1 9003   6.658   4.854   5.257
 3013TIP3    H2 9004   6.769   4.817   5.162
 3014TIP3   OH2 9005   1.430   5.541   0.964
 3014TIP3    H1 9006   1.379   5.462   0.984
 3014TIP3    H2 9007   1.367   5.613   0.970
 3015TIP3   OH2 9008   2.862   1.985   1.114
 3015TIP3    H1 9009   2.955   1.976   1.133
 3015TIP3    H2 9010   2.818   1.969   1.198
 3016TIP3   OH2 9011   1.839   5.454   0.519
 3016TIP3    H1 9012   1.878   5.522   0.465
 3016TIP3    H2 9013   1.772   5.499   0.570
 3017TIP3   OH2 9014   1.874   2.823   5.047
 3017TIP3    H1 9015   1.821   2.894   5.082
 3017TIP3    H2 9016   1.952   2.865   5.012
 3018TIP3   OH2 9017   3.886   0.864   5.339
 3018TIP3    H1 9018   3.897   0.784   5.390
 3018TIP3    H2 9019   3.944   0.853   5.264
 3019TIP3   OH2 9020   2.715   3.656   3.108
 3019TIP3    H1 9021   2.766   3.615   3.178
 3019TIP3    H2 9022   2.624   3.637   3.131
 3020TIP3   OH2 9023   6.963   0.371   0.959
 3020TIP3    H1 9024   7.051   0.337   0.939
 3020TIP3    H2 9025   6.948   0.438   0.892
 3021TIP3   OH2 9026   5.801   2.353   0.509
 3021TIP3    H1 9027   5.760   2.321   0.590
 3021TIP3    H2 9028   5.727   2.381   0.455
 3022TIP3   OH2 9029   5.131   2.827   2.212
 3022TIP3    H1 9030   5.172   2.868   2.288
 3022TIP3    H2 9031   5.202   2.814   2.150
 3023TIP3   OH2 9032   3.157   3.071   3.058
 3023TIP3    H1 9033   3.101   3.142   3.027
 3023TIP3    H2 9034   3.147   3.071   3.153
 3024TIP3   OH2 9035   0.729   5.039   5.387
 3024TIP3    H1 9036   0.800   5.045   5.324
 3024TIP3    H2 9037   0.745   4.956   5.433
 3025TIP3   OH2 9038   0.097   1.985   2.767
 3025TIP3    H1 9039   0.155   1.916   2.734
 3025TIP3    H2 9040   0.049   1.944   2.839
 3026TIP3   OH2 9041   2.074   0.639   1.237
 3026TIP3    H1 9042   2.045   0.608   1.323
 3026TIP3    H2 9043   2.156   0.684   1.255
 3027TIP3   OH2 9044   5.123   2.402   0.208
 3027TIP3    H1 9045   5.157   2.335   0.267
 3027TIP3    H2 9046   5.202   2.448   0.177
 3028TIP3   OH2 9047   0.325   5.791   0.515
 3028TIP3    H1 9048   0.298   5.796   0.606
 3028TIP3    H2 9049   0.267   5.852   0.469
 3029TIP3   OH2 9050   4.182   3.480   2.580
 3029TIP3    H1 9051   4.136   3.500   2.498
 3029TIP3    H2 9052   4.119   3.430   2.632
 3030TIP3   OH2 9053   7.027   3.702   3.020
 3030TIP3    H1 9054   6.966   3.651   2.967
 3030TIP3    H2 9055   7.053   3.775   2.964
 3031TIP3   OH2 9056   5.217   5.274   3.279
 3031TIP3    H1 9057   5.164   5.265   3.200
 3031TIP3    H2 9058   5.154   5.301   3.346
 3032TIP3   OH2 9059   6.587   3.685   5.626
 3032TIP3    H1 9060   6.634   3.678   5.543
 3032TIP3    H2 9061   6.547   3.773   5.624
 3033TIP3   OH2 9062   4.345   1.416   1.018
 3033TIP3    H1 9063   4.433   1.408   1.054
 3033TIP3    H2 9064   4.322   1.508   1.031
 3034TIP3   OH2 9065   6.630   1.008   3.864
 3034TIP3    H1 9066   6.683   0.987   3.788
 3034TIP3    H2 9067   6.540   1.003   3.834
 3035TIP3   OH2 9068   1.672   4.955   4.458
 3035TIP3    H1 9069   1.747   5.009   4.479
 3035TIP3    H2 9070   1.656   4.972   4.365
 3036TIP3   OH2 9071   7.045   1.602   4.134
 3036TIP3    H1 9072   7.091   1.552   4.066
 3036TIP3    H2 9073   7.101   1.592   4.211
 3037TIP3   OH2 9074   3.826   3.130   5.193
 3037TIP3    H1 9075   3.909   3.083   5.196
 3037TIP3    H2 9076   3.846   3.215   5.233
 3038TIP3   OH2 9077   5.052   5.288   1.288
 3038TIP3    H1 9078   4.975   5.345   1.296
 3038TIP3    H2 9079   5.021   5.202   1.315
 3039TIP3   OH2 9080   4.254   4.585   4.783
 3039TIP3    H1 9081   4.324   4.520   4.785
 3039TIP3    H2 9082   4.298   4.669   4.795
 3040TIP3   OH2 9083   5.677   2.123   5.718
 3040TIP3    H1 9084   5.748   2.167   5.672
 3040TIP3    H2 9085   5.689   2.030   5.698
 3041TIP3   OH2 9086   1.470   4.122   4.943
 3041TIP3    H1 9087   1.528   4.177   4.890
 3041TIP3    H2 9088   1.481   4.034   4.908
 3042TIP3   OH2 9089   1.770   3.434   3.044
 3042TIP3    H1 9090   1.861   3.457   3.063
 3042TIP3    H2 9091   1.770   3.414   2.950
 3043TIP3   OH2 9092   4.369   6.574   1.232
 3043TIP3    H1 9093   4.310   6.621   1.292
 3043TIP3    H2 9094   4.408   6.643   1.179
 3044TIP3   OH2 9095   3.614   3.004   0.356
 3044TIP3    H1 9096   3.569   3.005   0.440
 3044TIP3    H2 9097   3.544   3.010   0.291
 3045TIP3   OH2 9098   2.472   6.302   5.729
 3045TIP3    H1 9099   2.395   6.282   5.781
 3045TIP3    H2 9100   2.496   6.391   5.755
 3046TIP3   OH2 9101   2.263   4.701   1.593
 3046TIP3    H1 9102   2.319   4.668   1.522
 3046TIP3    H2 9103   2.181   4.651   1.584
 3047TIP3   OH2 9104   5.103   1.265   5.788
 3047TIP3    H1 9105   5.122   1.172   5.783
 3047TIP3    H2 9106   5.185   1.308   5.766
 3048TIP3   OH2 9107   3.964   2.835   0.224
 3048TIP3    H1 9108   3.951   2.897   0.296
 3048TIP3    H2 9109   3.914   2.758   0.249
 3049TIP3   OH2 9110   0.639   3.127   0.172
 3049TIP3    H1 9111   0.619   3.104   0.081
 3049TIP3    H2 9112   0.679   3.214   0.166
 3050TIP3   OH2 9113   5.860   1.739   4.569
 3050TIP3    H1 9114   5.863   1.706   4.659
 3050TIP3    H2 9115   5.875   1.833   4.577
 3051TIP3   OH2 9116   0.526   5.538   0.710
 3051TIP3    H1 9117   0.480   5.536   0.626
 3051TIP3    H2 9118   0.617   5.518   0.689
 3052TIP3   OH2 9119   3.719   3.737   3.099
 3052TIP3    H1 9120   3.743   3.801   3.032
 3052TIP3    H2 9121   3.794   3.678   3.104
 3053TIP3   OH2 9122   5.328   0.449   5.690
 3053TIP3    H1 9123   5.386   0.467   5.617
 3053TIP3    H2 9124   5.296   0.535   5.718
 3054TIP3   OH2 9125   0.405   6.712   1.189
 3054TIP3    H1 9126   0.469   6.780   1.173
 3054TIP3    H2 9127   0.412   6.653   1.114
 3055TIP3   OH2 9128   0.623   0.388   0.610
 3055TIP3    H1 9129   0.539   0.362   0.571
 3055TIP3    H2 9130   0.625   0.342   0.694
 3056TIP3   OH2 9131   0.801   1.409   0.221
 3056TIP3    H1 9132   0.811   1.504   0.228
 3056TIP3    H2 9133   0.723   1.389   0.273
 3057TIP3   OH2 9134   0.725   1.943   3.557
 3057TIP3    H1 9135   0.776   1.868   3.527
 3057TIP3    H2 9136   0.760   1.963   3.644
 3058TIP3   OH2 9137   3.706   4.648   2.755
 3058TIP3    H1 9138   3.717   4.689   2.841
 3058TIP3    H2 9139   3.626   4.596   2.764
 3059TIP3   OH2 9140   2.956   0.707   3.534
 3059TIP3    H1 9141   2.992   0.789   3.567
 3059TIP3    H2 9142   3.020   0.641   3.561
 3060TIP3   OH2 9143   5.028   0.290   2.801
 3060TIP3    H1 9144   5.033   0.344   2.723
 3060TIP3    H2 9145   5.106   0.314   2.852
 3061TIP3   OH2 9146   6.393   1.409   2.573
 3061TIP3    H1 9147   6.331   1.383   2.641
 3061TIP3    H2 9148   6.427   1.326   2.539
 3062TIP3   OH2 9149   5.563   3.018   1.766
 3062TIP3    H1 9150   5.582   3.037   1.858
 3062TIP3    H2 9151   5.477   2.976   1.768
 3063TIP3   OH2 9152   4.315   1.667   3.477
 3063TIP3    H1 9153   4.327   1.618   3.396
 3063TIP3    H2 9154   4.266   1.607   3.534
 3064TIP3   OH2 9155   3.214   3.161   1.235
 3064TIP3    H1 9156   3.202   3.111   1.316
 3064TIP3    H2 9157   3.301   3.135   1.204
 3065TIP3   OH2 9158   0.264   3.952   2.232
 3065TIP3    H1 9159   0.350   3.987   2.256
 3065TIP3    H2 9160   0.250   3.982   2.143
 3066TIP3   OH2 9161   1.442   4.052   5.773
 3066TIP3    H1 9162   1.478   3.964   5.781
 3066TIP3    H2 9163   1.421   4.077   5.863
 3067TIP3   OH2 9164   5.772   2.567   2.034
 3067TIP3    H1 9165   5.836   2.504   1.999
 3067TIP3    H2 9166   5.706   2.574   1.965
 3068TIP3   OH2 9167   1.924   1.083   2.128
 3068TIP3    H1 9168   1.943   1.159   2.183
 3068TIP3    H2 9169   2.004   1.031   2.130
 3069TIP3   OH2 9170   4.743   4.095   5.681
 3069TIP3    H1 9171   4.653   4.082   5.651
 3069TIP3    H2 9172   4.797   4.058   5.612
 3070TIP3   OH2 9173   4.824   3.474  -0.026
 3070TIP3    H1 9174   4.880   3.453   0.048
 3070TIP3    H2 9175   4.745   3.511   0.013
 3071TIP3   OH2 9176   2.803   5.124   2.463
 3071TIP3    H1 9177   2.781   5.167   2.546
 3071TIP3    H2 9178   2.831   5.036   2.489
 3072TIP3   OH2 9179   5.501   6.677   5.429
 3072TIP3    H1 9180   5.478   6.585   5.446
 3072TIP3    H2 9181   5.594   6.683   5.451
 3073TIP3   OH2 9182   4.710   2.417   5.893
 3073TIP3    H1 9183   4.655   2.374   5.828
 3073TIP3    H2 9184   4.789   2.441   5.846
 3074TIP3   OH2 9185   4.426   3.296   4.986
 3074TIP3    H1 9186   4.467   3.240   4.920
 3074TIP3    H2 9187   4.335   3.307   4.955
 3075TIP3   OH2 9188   2.999   3.876   0.892
 3075TIP3    H1 9189   3.092   3.856   0.886
 3075TIP3    H2 9190   2.993   3.969   0.868
 3076TIP3   OH2 9191   4.124   5.940   4.114
 3076TIP3    H1 9192   4.075   5.937   4.196
 3076TIP3    H2 9193   4.212   5.964   4.140
 3077TIP3   OH2 9194   6.709   1.424   1.300
 3077TIP3    H1 9195   6.657   1.361   1.350
 3077TIP3    H2 9196   6.713   1.502   1.356
 3078TIP3   OH2 9197   2.582   2.090   4.500
 3078TIP3    H1 9198   2.632   2.168   4.524
 3078TIP3    H2 9199   2.545   2.059   4.583
 3079TIP3   OH2 9200   6.523   3.750   0.689
 3079TIP3    H1 9201   6.485   3.682   0.745
 3079TIP3    H2 9202   6.501   3.832   0.733
 3080TIP3   OH2 9203   7.072   2.552   4.498
 3080TIP3    H1 9204   7.060   2.636   4.542
 3080TIP3    H2 9205   7.129   2.570   4.424
 3081TIP3   OH2 9206   2.787   6.634   3.405
 3081TIP3    H1 9207   2.801   6.562   3.466
 3081TIP3    H2 9208   2.718   6.602   3.346
 3082TIP3   OH2 9209   3.891   1.977   4.329
 3082TIP3    H1 9210   3.900   1.944   4.240
 3082TIP3    H2 9211   3.965   2.036   4.340
 3083TIP3   OH2 9212   3.375   4.971   2.679
 3083TIP3    H1 9213   3.341   5.029   2.611
 3083TIP3    H2 9214   3.297   4.929   2.715
 3084TIP3   OH2 9215   6.026   4.938   4.502
 3084TIP3    H1 9216   6.053   4.990   4.426
 3084TIP3    H2 9217   5.935   4.963   4.517
 3085TIP3   OH2 9218   4.935   2.333   1.865
 3085TIP3    H1 9219   4.907   2.374   1.947
 3085TIP3    H2 9220   5.031   2.339   1.867
 3086TIP3   OH2 9221   6.579   3.262   4.839
 3086TIP3    H1 9222   6.548   3.351   4.822
 3086TIP3    H2 9223   6.560   3.248   4.932
 3087TIP3   OH2 9224   5.114   6.137   4.928
 3087TIP3    H1 9225   5.187   6.174   4.878
 3087TIP3    H2 9226   5.155   6.074   4.988
 3088TIP3   OH2 9227   2.813   3.127   5.454
 3088TIP3    H1 9228   2.720   3.133   5.434
 3088TIP3    H2 9229   2.828   3.193   5.521
 3089TIP3   OH2 9230   6.716   3.315   4.462
 3089TIP3    H1 9231   6.683   3.232   4.496
 3089TIP3    H2 9232   6.640   3.372   4.460
 3090TIP3   OH2 9233   5.821   4.409   2.200
 3090TIP3    H1 9234   5.826   4.484   2.140
 3090TIP3    H2 9235   5.866   4.439   2.279
 3091TIP3   OH2 9236   4.563   3.963   1.962
 3091TIP3    H1 9237   4.632   4.024   1.987
 3091TIP3    H2 9238   4.593   3.878   1.995
 3092TIP3   OH2 9239   3.639   3.795   5.445
 3092TIP3    H1 9240   3.705   3.865   5.440
 3092TIP3    H2 9241   3.590   3.814   5.525
 3093TIP3   OH2 9242   0.909   4.507   5.859
 3093TIP3    H1 9243   0.956   4.435   5.817
 3093TIP3    H2 9244   0.817   4.487   5.844
 3094TIP3   OH2 9245   6.817   2.099   4.333
 3094TIP3    H1 9246   6.843   2.183   4.295
 3094TIP3    H2 9247   6.731   2.115   4.371
 3095TIP3   OH2 9248   3.200   6.011   0.607
 3095TIP3    H1 9249   3.182   5.935   0.552
 3095TIP3    H2 9250   3.116   6.030   0.649
 3096TIP3   OH2 9251   5.086   6.715   3.121
 3096TIP3    H1 9252   5.164   6.729   3.174
 3096TIP3    H2 9253   5.120   6.693   3.034
 3097TIP3   OH2 9254   4.443   6.355   1.042
 3097TIP3    H1 9255   4.482   6.340   0.956
 3097TIP3    H2 9256   4.374   6.289   1.049
 3098TIP3   OH2 9257   3.337   3.342   2.552
 3098TIP3    H1 9258   3.366   3.431   2.573
 3098TIP3    H2 9259   3.242   3.350   2.539
 3099TIP3   OH2 9260   2.277   3.606   0.607
 3099TIP3    H1 9261   2.206   3.663   0.577
 3099TIP3    H2 9262   2.256   3.588   0.699
 3100TIP3   OH2 9263   7.032   2.329   2.844
 3100TIP3    H1 9264   7.116   2.357   2.880
 3100TIP3    H2 9265   7.034   2.357   2.753
 3101TIP3   OH2 9266   5.594   2.180   1.327
 3101TIP3    H1 9267   5.675   2.182   1.276
 3101TIP3    H2 9268   5.527   2.153   1.264
 3102TIP3   OH2 9269   6.587   2.513   0.892
 3102TIP3    H1 9270   6.656   2.455   0.924
 3102TIP3    H2 9271   6.584   2.585   0.956
 3103TIP3   OH2 9272   3.493   4.643   3.731
 3103TIP3    H1 9273   3.405   4.678   3.719
 3103TIP3    H2 9274   3.478   4.552   3.759
 3104TIP3   OH2 9275   5.087   0.051   2.251
 3104TIP3    H1 9276   5.103   0.139   2.286
 3104TIP3    H2 9277   5.046   0.004   2.324
 3105TIP3   OH2 9278   0.615   0.460   3.147
 3105TIP3    H1 9279   0.679   0.504   3.091
 3105TIP3    H2 9280   0.659   0.452   3.232
 3106TIP3   OH2 9281   4.363   6.210   1.842
 3106TIP3    H1 9282   4.389   6.162   1.920
 3106TIP3    H2 9283   4.355   6.301   1.870
 3107TIP3   OH2 9284   2.405   1.160   1.995
 3107TIP3    H1 9285   2.436   1.110   1.919
 3107TIP3    H2 9286   2.425   1.105   2.070
 3108TIP3   OH2 9287   2.299   4.601   0.732
 3108TIP3    H1 9288   2.376   4.604   0.675
 3108TIP3    H2 9289   2.302   4.514   0.771
 3109TIP3   OH2 9290   6.719   6.736   1.116
 3109TIP3    H1 9291   6.740   6.736   1.209
 3109TIP3    H2 9292   6.637   6.687   1.109
 3110TIP3   OH2 9293   4.699   3.866   3.489
 3110TIP3    H1 9294   4.687   3.776   3.458
 3110TIP3    H2 9295   4.783   3.894   3.452
 3111TIP3   OH2 9296   4.432   0.153   4.747
 3111TIP3    H1 9297   4.354   0.181   4.796
 3111TIP3    H2 9298   4.417   0.060   4.730
 3112TIP3   OH2 9299   5.244   0.267   4.493
 3112TIP3    H1 9300   5.210   0.257   4.582
 3112TIP3    H2 9301   5.249   0.177   4.459
 3113TIP3   OH2 9302   2.471   1.819   1.984
 3113TIP3    H1 9303   2.395   1.782   2.028
 3113TIP3    H2 9304   2.493   1.755   1.916
 3114TIP3   OH2 9305   0.356   3.212   0.002
 3114TIP3    H1 9306   0.449   3.207  -0.020
 3114TIP3    H2 9307   0.327   3.120   0.003
 3115TIP3   OH2 9308   7.037   5.732   2.489
 3115TIP3    H1 9309   7.078   5.671   2.428
 3115TIP3    H2 9310   6.952   5.751   2.451
 3116TIP3   OH2 9311   6.575   2.531   2.772
 3116TIP3    H1 9312   6.643   2.491   2.826
 3116TIP3    H2 9313   6.612   2.536   2.685
 3117TIP3   OH2 9314   1.802   5.082   1.457
 3117TIP3    H1 9315   1.746   5.113   1.529
 3117TIP3    H2 9316   1.796   5.152   1.392
 3118TIP3   OH2 9317   6.177   3.423   1.006
 3118TIP3    H1 9318   6.149   3.414   1.097
 3118TIP3    H2 9319   6.101   3.459   0.961
 3119TIP3   OH2 9320   2.696   1.890   4.313
 3119TIP3    H1 9321   2.767   1.941   4.273
 3119TIP3    H2 9322   2.617   1.942   4.297
 3120TIP3   OH2 9323   2.806   3.543   3.637
 3120TIP3    H1 9324   2.887   3.519   3.681
 3120TIP3    H2 9325   2.804   3.639   3.641
 3121TIP3   OH2 9326   4.264   4.517   4.343
 3121TIP3    H1 9327   4.275   4.443   4.402
 3121TIP3    H2 9328   4.173   4.544   4.355
 3122TIP3   OH2 9329   2.724   2.355   2.600
 3122TIP3    H1 9330   2.651   2.345   2.540
 3122TIP3    H2 9331   2.705   2.435   2.648
 3123TIP3   OH2 9332   2.993   6.120   0.763
 3123TIP3    H1 9333   2.982   6.037   0.809
 3123TIP3    H2 9334   3.049   6.172   0.821
 3124TIP3   OH2 9335   3.934   4.920   3.228
 3124TIP3    H1 9336   3.839   4.920   3.244
 3124TIP3    H2 9337   3.972   4.920   3.316
 3125TIP3   OH2 9338   2.938   6.230   3.351
 3125TIP3    H1 9339   2.942   6.137   3.372
 3125TIP3    H2 9340   2.879   6.236   3.276
 3126TIP3   OH2 9341   1.167   6.153   4.733
 3126TIP3    H1 9342   1.072   6.164   4.724
 3126TIP3    H2 9343   1.178   6.062   4.759
 3127TIP3   OH2 9344   0.945   1.740   5.488
 3127TIP3    H1 9345   0.862   1.705   5.521
 3127TIP3    H2 9346   0.991   1.770   5.566
 3128TIP3   OH2 9347   1.569   5.157   5.473
 3128TIP3    H1 9348   1.577   5.227   5.538
 3128TIP3    H2 9349   1.569   5.076   5.525
 3129TIP3   OH2 9350   2.594   6.649   1.011
 3129TIP3    H1 9351   2.663   6.712   1.026
 3129TIP3    H2 9352   2.632   6.565   1.036
 3130TIP3   OH2 9353   6.542   0.383   5.339
 3130TIP3    H1 9354   6.537   0.462   5.393
 3130TIP3    H2 9355   6.536   0.416   5.249
 3131TIP3   OH2 9356   1.272   1.673   5.618
 3131TIP3    H1 9357   1.280   1.749   5.560
 3131TIP3    H2 9358   1.352   1.675   5.671
 3132TIP3   OH2 9359   5.366   2.134   2.063
 3132TIP3    H1 9360   5.397   2.193   2.132
 3132TIP3    H2 9361   5.355   2.050   2.107
 3133TIP3   OH2 9362   4.544   4.961   0.155
 3133TIP3    H1 9363   4.526   4.896   0.087
 3133TIP3    H2 9364   4.470   4.954   0.215
 3134TIP3   OH2 9365   4.571   5.107   5.117
 3134TIP3    H1 9366   4.494   5.137   5.068
 3134TIP3    H2 9367   4.599   5.184   5.167
 3135TIP3   OH2 9368   6.958   3.607   1.679
 3135TIP3    H1 9369   6.933   3.572   1.594
 3135TIP3    H2 9370   6.876   3.637   1.718
 3136TIP3   OH2 9371   4.481   0.681   2.636
 3136TIP3    H1 9372   4.572   0.708   2.621
 3136TIP3    H2 9373   4.475   0.594   2.595
 3137TIP3   OH2 9374   0.097   4.207   1.597
 3137TIP3    H1 9375   0.179   4.258   1.598
 3137TIP3    H2 9376   0.121   4.124   1.557
 3138TIP3   OH2 9377   6.481  -0.008   2.587
 3138TIP3    H1 9378   6.461  -0.066   2.514
 3138TIP3    H2 9379   6.402   0.045   2.598
 3139TIP3   OH2 9380   7.030   5.381   5.387
 3139TIP3    H1 9381   6.974   5.386   5.465
 3139TIP3    H2 9382   7.113   5.418   5.415
 3140TIP3   OH2 9383   1.888   3.021   3.574
 3140TIP3    H1 9384   1.799   2.993   3.595
 3140TIP3    H2 9385   1.940   2.993   3.650
 3141TIP3   OH2 9386   1.984   3.377   1.787
 3141TIP3    H1 9387   1.939   3.452   1.826
 3141TIP3    H2 9388   2.071   3.409   1.765
 3142TIP3   OH2 9389   4.456   2.414   0.247
 3142TIP3    H1 9390   4.376   2.461   0.225
 3142TIP3    H2 9391   4.522   2.483   0.257
 3143TIP3   OH2 9392   5.068   3.394   2.444
 3143TIP3    H1 9393   5.162   3.412   2.444
 3143TIP3    H2 9394   5.038   3.428   2.359
 3144TIP3   OH2 9395   7.136   3.123   3.028
 3144TIP3    H1 9396   7.067   3.090   2.970
 3144TIP3    H2 9397   7.166   3.046   3.075
 3145TIP3   OH2 9398   0.077   1.064   2.858
 3145TIP3    H1 9399   0.019   0.987   2.863
 3145TIP3    H2 9400   0.129   1.049   2.779
 3146TIP3   OH2 9401   1.544   2.700   0.783
 3146TIP3    H1 9402   1.454   2.731   0.792
 3146TIP3    H2 9403   1.592   2.774   0.746
 3147TIP3   OH2 9404   0.138   5.212   2.518
 3147TIP3    H1 9405   0.044   5.210   2.502
 3147TIP3    H2 9406   0.174   5.150   2.455
 3148TIP3   OH2 9407   1.920   6.484   2.188
 3148TIP3    H1 9408   1.935   6.512   2.278
 3148TIP3    H2 9409   1.973   6.543   2.135
 3149TIP3   OH2 9410   5.369   3.686   5.064
 3149TIP3    H1 9411   5.310   3.703   4.990
 3149TIP3    H2 9412   5.401   3.597   5.049
 3150TIP3   OH2 9413   0.240   3.248   4.577
 3150TIP3    H1 9414   0.196   3.180   4.527
 3150TIP3    H2 9415   0.258   3.208   4.662
 3151TIP3   OH2 9416   5.472   5.061   0.208
 3151TIP3    H1 9417   5.428   5.084   0.289
 3151TIP3    H2 9418   5.434   4.977   0.183
 3152TIP3   OH2 9419   4.133   0.332   1.388
 3152TIP3    H1 9420   4.040   0.352   1.399
 3152TIP3    H2 9421   4.140   0.302   1.297
 3153TIP3   OH2 9422   1.592   6.238   0.224
 3153TIP3    H1 9423   1.643   6.306   0.269
 3153TIP3    H2 9424   1.647   6.213   0.150
 3154TIP3   OH2 9425   2.369   2.830   2.478
 3154TIP3    H1 9426   2.365   2.750   2.530
 3154TIP3    H2 9427   2.459   2.832   2.443
 3155TIP3   OH2 9428   2.910   0.305   4.570
 3155TIP3    H1 9429   2.991   0.317   4.621
 3155TIP3    H2 9430   2.938   0.312   4.479
 3156TIP3   OH2 9431   4.082   4.908   4.225
 3156TIP3    H1 9432   4.050   4.993   4.256
 3156TIP3    H2 9433   4.003   4.858   4.205
 3157TIP3   OH2 9434   2.063   1.897   0.256
 3157TIP3    H1 9435   2.090   1.849   0.178
 3157TIP3    H2 9436   1.985   1.945   0.228
 3158TIP3   OH2 9437   7.075   2.864   3.604
 3158TIP3    H1 9438   6.992   2.913   3.605
 3158TIP3    H2 9439   7.048   2.773   3.612
 3159TIP3   OH2 9440   2.429   4.683   4.235
 3159TIP3    H1 9441   2.512   4.646   4.266
 3159TIP3    H2 9442   2.442   4.778   4.240
 3160TIP3   OH2 9443   6.600   0.905   2.042
 3160TIP3    H1 9444   6.606   0.814   2.069
 3160TIP3    H2 9445   6.510   0.930   2.062
 3161TIP3   OH2 9446   2.633   2.069   0.473
 3161TIP3    H1 9447   2.649   2.133   0.403
 3161TIP3    H2 9448   2.554   2.024   0.446
 3162TIP3   OH2 9449   4.635   4.372   2.909
 3162TIP3    H1 9450   4.588   4.403   2.986
 3162TIP3    H2 9451   4.723   4.409   2.918
 3163TIP3   OH2 9452   6.181   0.062   0.430
 3163TIP3    H1 9453   6.093   0.029   0.412
 3163TIP3    H2 9454   6.238   0.013   0.371
 3164TIP3   OH2 9455   4.678   2.500   2.445
 3164TIP3    H1 9456   4.767   2.468   2.435
 3164TIP3    H2 9457   4.677   2.544   2.530
 3165TIP3   OH2 9458   7.200   1.466   5.265
 3165TIP3    H1 9459   7.123   1.414   5.240
 3165TIP3    H2 9460   7.242   1.487   5.182
 3166TIP3   OH2 9461   6.016   4.535   1.121
 3166TIP3    H1 9462   5.969   4.562   1.042
 3166TIP3    H2 9463   5.957   4.558   1.193
 3167TIP3   OH2 9464   2.273   1.856   0.761
 3167TIP3    H1 9465   2.243   1.765   0.767
 3167TIP3    H2 9466   2.246   1.885   0.674
 3168TIP3   OH2 9467   3.163   1.812   2.965
 3168TIP3    H1 9468   3.083   1.860   2.944
 3168TIP3    H2 9469   3.234   1.873   2.944
 3169TIP3   OH2 9470   3.458   3.237   0.284
 3169TIP3    H1 9471   3.388   3.301   0.271
 3169TIP3    H2 9472   3.523   3.284   0.337
 3170TIP3   OH2 9473   5.381   5.591   2.825
 3170TIP3    H1 9474   5.454   5.630   2.873
 3170TIP3    H2 9475   5.303   5.616   2.874
 3171TIP3   OH2 9476   0.826   2.362   2.483
 3171TIP3    H1 9477   0.911   2.401   2.503
 3171TIP3    H2 9478   0.778   2.364   2.566
 3172TIP3   OH2 9479   4.057   3.218   4.352
 3172TIP3    H1 9480   4.079   3.296   4.302
 3172TIP3    H2 9481   3.962   3.209   4.341
 3173TIP3   OH2 9482   4.300   1.973   0.635
 3173TIP3    H1 9483   4.310   1.955   0.541
 3173TIP3    H2 9484   4.310   2.068   0.641
 3174TIP3   OH2 9485   2.397   1.771   3.920
 3174TIP3    H1 9486   2.479   1.779   3.871
 3174TIP3    H2 9487   2.333   1.818   3.867
 3175TIP3   OH2 9488   0.205   6.652   2.090
 3175TIP3    H1 9489   0.134   6.712   2.069
 3175TIP3    H2 9490   0.163   6.567   2.103
 3176TIP3   OH2 9491   5.210   5.288   4.188
 3176TIP3    H1 9492   5.253   5.228   4.250
 3176TIP3    H2 9493   5.178   5.231   4.118
 3177TIP3   OH2 9494   4.165   0.526   1.608
 3177TIP3    H1 9495   4.157   0.479   1.524
 3177TIP3    H2 9496   4.218   0.468   1.663
 3178TIP3   OH2 9497   5.489   2.308   1.795
 3178TIP3    H1 9498   5.529   2.239   1.742
 3178TIP3    H2 9499   5.496   2.277   1.885
 3179TIP3   OH2 9500   7.150   4.539   2.734
 3179TIP3    H1 9501   7.157   4.539   2.830
 3179TIP3    H2 9502   7.210   4.469   2.707
 3180TIP3   OH2 9503   5.289   6.254   5.662
 3180TIP3    H1 9504   5.193   6.249   5.659
 3180TIP3    H2 9505   5.317   6.231   5.574
 3181TIP3   OH2 9506   3.076   1.348   3.313
 3181TIP3    H1 9507   3.068   1.396   3.395
 3181TIP3    H2 9508   3.169   1.350   3.292
 3182TIP3   OH2 9509   0.211   4.391   4.762
 3182TIP3    H1 9510   0.174   4.366   4.677
 3182TIP3    H2 9511   0.137   4.391   4.822
 3183TIP3   OH2 9512   5.880   5.076   1.181
 3183TIP3    H1 9513   5.821   5.134   1.229
 3183TIP3    H2 9514   5.944   5.135   1.141
 3184TIP3   OH2 9515   5.212   6.664   3.463
 3184TIP3    H1 9516   5.202   6.751   3.503
 3184TIP3    H2 9517   5.262   6.680   3.383
 3185TIP3   OH2 9518   4.116   2.983   0.435
 3185TIP3    H1 9519   4.187   2.963   0.495
 3185TIP3    H2 9520   4.037   2.960   0.484
 3186TIP3   OH2 9521   4.420   3.880   4.271
 3186TIP3    H1 9522   4.365   3.845   4.342
 3186TIP3    H2 9523   4.370   3.955   4.238
 3187TIP3   OH2 9524   0.551   6.645   0.846
 3187TIP3    H1 9525   0.472   6.634   0.900
 3187TIP3    H2 9526   0.523   6.625   0.757
 3188TIP3   OH2 9527   6.642   2.166   4.906
 3188TIP3    H1 9528   6.636   2.076   4.938
 3188TIP3    H2 9529   6.708   2.163   4.837
 3189TIP3   OH2 9530   5.618   5.629   2.974
 3189TIP3    H1 9531   5.639   5.536   2.983
 3189TIP3    H2 9532   5.626   5.664   3.062
 3190TIP3   OH2 9533   4.707   6.385   4.982
 3190TIP3    H1 9534   4.802   6.388   4.971
 3190TIP3    H2 9535   4.690   6.300   5.023
 3191TIP3   OH2 9536   6.722   5.896   1.348
 3191TIP3    H1 9537   6.641   5.941   1.370
 3191TIP3    H2 9538   6.725   5.820   1.406
 3192TIP3   OH2 9539   3.756   0.978   5.114
 3192TIP3    H1 9540   3.673   0.934   5.096
 3192TIP3    H2 9541   3.790   0.935   5.192
 3193TIP3   OH2 9542   2.784   0.251   0.253
 3193TIP3    H1 9543   2.809   0.292   0.335
 3193TIP3    H2 9544   2.804   0.316   0.185
 3194TIP3   OH2 9545   0.423   0.123   4.713
 3194TIP3    H1 9546   0.376   0.163   4.786
 3194TIP3    H2 9547   0.505   0.091   4.752
 3195TIP3   OH2 9548   5.530   4.903   3.417
 3195TIP3    H1 9549   5.575   4.824   3.386
 3195TIP3    H2 9550   5.448   4.871   3.454
 3196TIP3   OH2 9551   2.052   5.717   5.013
 3196TIP3    H1 9552   2.025   5.801   5.048
 3196TIP3    H2 9553   1.974   5.662   5.018
 3197TIP3   OH2 9554   2.100   4.050   0.997
 3197TIP3    H1 9555   2.018   4.075   1.038
 3197TIP3    H2 9556   2.114   3.959   1.024
 3198TIP3   OH2 9557   5.984   2.957   5.549
 3198TIP3    H1 9558   5.973   3.002   5.633
 3198TIP3    H2 9559   5.992   3.028   5.486
 3199TIP3   OH2 9560   6.027   1.551   4.488
 3199TIP3    H1 9561   6.042   1.541   4.394
 3199TIP3    H2 9562   5.963   1.622   4.495
 3200TIP3   OH2 9563   4.309   1.906   2.782
 3200TIP3    H1 9564   4.273   1.995   2.778
 3200TIP3    H2 9565   4.273   1.862   2.705
 3201TIP3   OH2 9566   1.120   1.413   2.674
 3201TIP3    H1 9567   1.186   1.355   2.637
 3201TIP3    H2 9568   1.150   1.501   2.651
 3202TIP3   OH2 9569   1.549   0.643   0.162
 3202TIP3    H1 9570   1.523   0.605   0.078
 3202TIP3    H2 9571   1.632   0.600   0.183
 3203TIP3   OH2 9572   1.946   2.522   4.044
 3203TIP3    H1 9573   1.932   2.428   4.031
 3203TIP3    H2 9574   1.926   2.561   3.959
 3204TIP3   OH2 9575   1.276   5.300   5.426
 3204TIP3    H1 9576   1.283   5.393   5.404
 3204TIP3    H2 9577   1.360   5.279   5.466
 3205TIP3   OH2 9578   1.201   0.904   2.768
 3205TIP3    H1 9579   1.292   0.933   2.761
 3205TIP3    H2 9580   1.196   0.827   2.711
 3206TIP3   OH2 9581   3.591   2.391   4.454
 3206TIP3    H1 9582   3.645   2.395   4.375
 3206TIP3    H2 9583   3.503   2.375   4.421
 3207TIP3   OH2 9584   2.650   6.318   4.657
 3207TIP3    H1 9585   2.592   6.308   4.581
 3207TIP3    H2 9586   2.676   6.229   4.679
 3208TIP3   OH2 9587   1.808   1.927   0.930
 3208TIP3    H1 9588   1.882   1.897   0.878
 3208TIP3    H2 9589   1.797   2.019   0.907
 3209TIP3   OH2 9590   5.347   4.434   0.028
 3209TIP3    H1 9591   5.289   4.383  -0.029
 3209TIP3    H2 9592   5.378   4.371   0.093
 3210TIP3   OH2 9593   6.242   4.260   5.776
 3210TIP3    H1 9594   6.186   4.253   5.854
 3210TIP3    H2 9595   6.300   4.184   5.782
 3211TIP3   OH2 9596   6.644   4.722   0.806
 3211TIP3    H1 9597   6.672   4.631   0.807
 3211TIP3    H2 9598   6.556   4.720   0.844
 3212TIP3   OH2 9599   4.611   6.345   3.765
 3212TIP3    H1 9600   4.534   6.300   3.799
 3212TIP3    H2 9601   4.588   6.438   3.771
 3213TIP3   OH2 9602   3.127   5.362   1.390
 3213TIP3    H1 9603   3.049   5.340   1.340
 3213TIP3    H2 9604   3.187   5.401   1.327
 3214TIP3   OH2 9605   6.661   0.193   3.309
 3214TIP3    H1 9606   6.675   0.137   3.232
 3214TIP3    H2 9607   6.584   0.245   3.286
 3215TIP3   OH2 9608   4.387   1.777   5.642
 3215TIP3    H1 9609   4.458   1.780   5.706
 3215TIP3    H2 9610   4.311   1.748   5.693
 3216TIP3   OH2 9611   1.221   3.042   3.682
 3216TIP3    H1 9612   1.294   3.096   3.711
 3216TIP3    H2 9613   1.244   2.953   3.710
 3217TIP3   OH2 9614   3.501   4.266   0.950
 3217TIP3    H1 9615   3.587   4.267   0.908
 3217TIP3    H2 9616   3.517   4.298   1.039
 3218TIP3   OH2 9617   3.867   3.746   0.095
 3218TIP3    H1 9618   3.891   3.711   0.009
 3218TIP3    H2 9619   3.947   3.784   0.130
 3219TIP3   OH2 9620   3.584   6.710   2.364
 3219TIP3    H1 9621   3.666   6.725   2.317
 3219TIP3    H2 9622   3.517   6.752   2.311
 3220TIP3   OH2 9623   3.983   4.116   4.035
 3220TIP3    H1 9624   4.056   4.069   3.993
 3220TIP3    H2 9625   3.927   4.143   3.962
 3221TIP3   OH2 9626   3.865   5.452   4.185
 3221TIP3    H1 9627   3.850   5.541   4.154
 3221TIP3    H2 9628   3.778   5.417   4.201
 3222TIP3   OH2 9629   3.688   1.888   5.108
 3222TIP3    H1 9630   3.662   1.966   5.059
 3222TIP3    H2 9631   3.655   1.815   5.055
 3223TIP3   OH2 9632   3.005   3.781   1.184
 3223TIP3    H1 9633   2.946   3.791   1.109
 3223TIP3    H2 9634   2.950   3.742   1.252
 3224TIP3   OH2 9635   4.455   4.292   3.916
 3224TIP3    H1 9636   4.452   4.337   4.000
 3224TIP3    H2 9637   4.421   4.355   3.853
 3225TIP3   OH2 9638   6.808   6.074   2.415
 3225TIP3    H1 9639   6.720   6.060   2.380
 3225TIP3    H2 9640   6.809   6.025   2.497
 3226TIP3   OH2 9641   0.493   0.001   5.767
 3226TIP3    H1 9642   0.451   0.046   5.693
 3226TIP3    H2 9643   0.475  -0.092   5.751
 3227TIP3   OH2 9644   0.438   3.680   1.739
 3227TIP3    H1 9645   0.502   3.693   1.808
 3227TIP3    H2 9646   0.410   3.588   1.748
 3228TIP3   OH2 9647   1.801   4.698   3.846
 3228TIP3    H1 9648   1.864   4.630   3.869
 3228TIP3    H2 9649   1.732   4.653   3.798
 3229TIP3   OH2 9650   4.916   4.398   0.872
 3229TIP3    H1 9651   4.898   4.462   0.803
 3229TIP3    H2 9652   4.832   4.358   0.890
 3230TIP3   OH2 9653   5.421   2.044   1.145
 3230TIP3    H1 9654   5.413   2.121   1.088
 3230TIP3    H2 9655   5.432   1.970   1.085
 3231TIP3   OH2 9656   6.445   3.361   0.193
 3231TIP3    H1 9657   6.493   3.389   0.272
 3231TIP3    H2 9658   6.380   3.430   0.180
 3232TIP3   OH2 9659   6.180   0.503   2.346
 3232TIP3    H1 9660   6.159   0.576   2.289
 3232TIP3    H2 9661   6.120   0.433   2.318
 3233TIP3   OH2 9662   6.322   4.677   4.009
 3233TIP3    H1 9663   6.230   4.690   3.986
 3233TIP3    H2 9664   6.346   4.755   4.058
 3234TIP3   OH2 9665   3.715   0.687   2.151
 3234TIP3    H1 9666   3.658   0.731   2.213
 3234TIP3    H2 9667   3.689   0.595   2.156
 3235TIP3   OH2 9668   3.071   6.703   3.406
 3235TIP3    H1 9669   2.982   6.678   3.381
 3235TIP3    H2 9670   3.061   6.788   3.450
 3236TIP3   OH2 9671   2.144   3.901   2.513
 3236TIP3    H1 9672   2.075   3.872   2.574
 3236TIP3    H2 9673   2.195   3.964   2.564
 3237TIP3   OH2 9674   0.142   5.696   1.161
 3237TIP3    H1 9675   0.066   5.705   1.218
 3237TIP3    H2 9676   0.212   5.664   1.218
 3238TIP3   OH2 9677   2.351   0.780   4.092
 3238TIP3    H1 9678   2.342   0.685   4.103
 3238TIP3    H2 9679   2.377   0.813   4.178
 3239TIP3   OH2 9680   2.937   2.895   1.248
 3239TIP3    H1 9681   2.865   2.860   1.196
 3239TIP3    H2 9682   2.957   2.979   1.208
 3240TIP3   OH2 9683   0.273   5.902   5.234
 3240TIP3    H1 9684   0.236   5.983   5.270
 3240TIP3    H2 9685   0.307   5.928   5.148
 3241TIP3   OH2 9686   2.160   4.033   3.307
 3241TIP3    H1 9687   2.219   3.973   3.262
 3241TIP3    H2 9688   2.215   4.077   3.371
 3242TIP3   OH2 9689   6.842   3.014   3.639
 3242TIP3    H1 9690   6.850   3.089   3.580
 3242TIP3    H2 9691   6.751   2.984   3.627
 3243TIP3   OH2 9692   0.059   1.895   0.503
 3243TIP3    H1 9693   0.035   1.802   0.499
 3243TIP3    H2 9694   0.136   1.897   0.561
 3244TIP3   OH2 9695   3.061   5.897   1.260
 3244TIP3    H1 9696   3.080   5.973   1.205
 3244TIP3    H2 9697   3.000   5.844   1.208
 3245TIP3   OH2 9698   4.853   4.959   4.103
 3245TIP3    H1 9699   4.809   4.906   4.036
 3245TIP3    H2 9700   4.814   4.931   4.186
 3246TIP3   OH2 9701   4.339   4.839   3.832
 3246TIP3    H1 9702   4.350   4.749   3.803
 3246TIP3    H2 9703   4.305   4.831   3.921
 3247TIP3   OH2 9704   1.888   5.115   0.830
 3247TIP3    H1 9705   1.984   5.121   0.825
 3247TIP3    H2 9706   1.865   5.173   0.903
 3248TIP3   OH2 9707   0.527   3.139   5.407
 3248TIP3    H1 9708   0.474   3.059   5.409
 3248TIP3    H2 9709   0.510   3.182   5.491
 3249TIP3   OH2 9710   3.433   2.389   2.753
 3249TIP3    H1 9711   3.446   2.482   2.734
 3249TIP3    H2 9712   3.487   2.373   2.831
 3250TIP3   OH2 9713   2.721   3.462   4.475
 3250TIP3    H1 9714   2.689   3.373   4.492
 3250TIP3    H2 9715   2.727   3.468   4.380
 3251TIP3   OH2 9716   3.963   4.917   5.006
 3251TIP3    H1 9717   3.962   5.006   5.042
 3251TIP3    H2 9718   4.014   4.924   4.925
 3252TIP3   OH2 9719   1.790   3.420   4.578
 3252TIP3    H1 9720   1.748   3.409   4.663
 3252TIP3    H2 9721   1.847   3.496   4.589
 3253TIP3   OH2 9722   0.129   6.203   2.314
 3253TIP3    H1 9723   0.116   6.117   2.355
 3253TIP3    H2 9724   0.082   6.264   2.372
 3254TIP3   OH2 9725   4.135   6.317   2.224
 3254TIP3    H1 9726   4.178   6.380   2.282
 3254TIP3    H2 9727   4.207   6.272   2.181
 3255TIP3   OH2 9728   4.982   0.033   0.041
 3255TIP3    H1 9729   5.005   0.015   0.132
 3255TIP3    H2 9730   5.066   0.053  -0.001
 3256TIP3   OH2 9731   4.415   3.645   5.797
 3256TIP3    H1 9732   4.322   3.647   5.821
 3256TIP3    H2 9733   4.436   3.736   5.776
 3257TIP3   OH2 9734   4.654   2.376   3.735
 3257TIP3    H1 9735   4.564   2.365   3.704
 3257TIP3    H2 9736   4.701   2.300   3.701
 3258TIP3   OH2 9737   4.556   4.761   1.915
 3258TIP3    H1 9738   4.466   4.793   1.921
 3258TIP3    H2 9739   4.570   4.747   1.821
 3259TIP3   OH2 9740   2.260   5.947   3.778
 3259TIP3    H1 9741   2.250   5.884   3.848
 3259TIP3    H2 9742   2.245   5.897   3.698
 3260TIP3   OH2 9743   0.589   5.479   4.920
 3260TIP3    H1 9744   0.653   5.457   4.852
 3260TIP3    H2 9745   0.634   5.463   5.002
 3261TIP3   OH2 9746   3.301   0.585   0.339
 3261TIP3    H1 9747   3.394   0.602   0.352
 3261TIP3    H2 9748   3.296   0.491   0.322
 3262TIP3   OH2 9749   1.274   3.758   5.760
 3262TIP3    H1 9750   1.294   3.763   5.666
 3262TIP3    H2 9751   1.247   3.667   5.773
 3263TIP3   OH2 9752   2.538   2.124   4.137
 3263TIP3    H1 9753   2.615   2.140   4.084
 3263TIP3    H2 9754   2.534   2.199   4.196
 3264TIP3   OH2 9755   4.972   4.662   3.779
 3264TIP3    H1 9756   4.936   4.710   3.704
 3264TIP3    H2 9757   4.895   4.638   3.831
 3265TIP3   OH2 9758   5.290   5.731   4.313
 3265TIP3    H1 9759   5.292   5.659   4.375
 3265TIP3    H2 9760   5.218   5.787   4.344
 3266TIP3   OH2 9761   1.248   1.516   4.100
 3266TIP3    H1 9762   1.243   1.595   4.046
 3266TIP3    H2 9763   1.232   1.444   4.039
 3267TIP3   OH2 9764   1.992   6.558   5.319
 3267TIP3    H1 9765   1.947   6.616   5.381
 3267TIP3    H2 9766   1.996   6.609   5.238
 3268TIP3   OH2 9767   0.782   3.581   5.660
 3268TIP3    H1 9768   0.842   3.558   5.730
 3268TIP3    H2 9769   0.736   3.660   5.692
 3269TIP3   OH2 9770   6.809   0.516   3.544
 3269TIP3    H1 9771   6.845   0.511   3.632
 3269TIP3    H2 9772   6.762   0.433   3.532
 3270TIP3   OH2 9773   2.598   3.621   4.169
 3270TIP3    H1 9774   2.595   3.624   4.073
 3270TIP3    H2 9775   2.507   3.627   4.196
 3271TIP3   OH2 9776   0.895   5.264   2.271
 3271TIP3    H1 9777   0.867   5.269   2.180
 3271TIP3    H2 9778   0.925   5.174   2.283
 3272TIP3   OH2 9779   0.659   0.912   1.305
 3272TIP3    H1 9780   0.637   0.835   1.358
 3272TIP3    H2 9781   0.652   0.986   1.366
 3273TIP3   OH2 9782   3.922   4.332   0.328
 3273TIP3    H1 9783   3.921   4.247   0.285
 3273TIP3    H2 9784   3.858   4.325   0.398
 3274TIP3   OH2 9785   3.893   0.976   3.725
 3274TIP3    H1 9786   3.980   1.016   3.719
 3274TIP3    H2 9787   3.887   0.919   3.649
 3275TIP3   OH2 9788   4.426   3.910   5.744
 3275TIP3    H1 9789   4.388   3.996   5.726
 3275TIP3    H2 9790   4.511   3.930   5.784
 3276TIP3   OH2 9791   2.790   6.384   5.145
 3276TIP3    H1 9792   2.855   6.342   5.089
 3276TIP3    H2 9793   2.825   6.471   5.162
 3277TIP3   OH2 9794   1.355   1.037   1.752
 3277TIP3    H1 9795   1.367   1.022   1.658
 3277TIP3    H2 9796   1.307   0.960   1.783
 3278TIP3   OH2 9797   2.613   1.150   5.079
 3278TIP3    H1 9798   2.540   1.154   5.018
 3278TIP3    H2 9799   2.660   1.070   5.056
 3279TIP3   OH2 9800   2.105   1.865   1.930
 3279TIP3    H1 9801   2.085   1.938   1.988
 3279TIP3    H2 9802   2.189   1.832   1.961
 3280TIP3   OH2 9803   1.220   4.123   5.096
 3280TIP3    H1 9804   1.307   4.118   5.056
 3280TIP3    H2 9805   1.159   4.110   5.024
 3281TIP3   OH2 9806   2.074   1.082   4.573
 3281TIP3    H1 9807   2.130   1.077   4.495
 3281TIP3    H2 9808   2.041   1.172   4.573
 3282TIP3   OH2 9809   6.848   1.780   3.799
 3282TIP3    H1 9810   6.920   1.842   3.805
 3282TIP3    H2 9811   6.851   1.731   3.881
 3283TIP3   OH2 9812   5.939   4.905   5.407
 3283TIP3    H1 9813   5.884   4.880   5.481
 3283TIP3    H2 9814   6.006   4.962   5.445
 3284TIP3   OH2 9815   2.399   3.128   5.475
 3284TIP3    H1 9816   2.323   3.127   5.416
 3284TIP3    H2 9817   2.417   3.036   5.492
 3285TIP3   OH2 9818   1.961   2.953   0.858
 3285TIP3    H1 9819   1.976   3.047   0.853
 3285TIP3    H2 9820   2.046   2.914   0.837
 3286TIP3   OH2 9821   2.672   2.854   3.739
 3286TIP3    H1 9822   2.754   2.807   3.721
 3286TIP3    H2 9823   2.609   2.813   3.680
 3287TIP3   OH2 9824   6.314   6.539   5.605
 3287TIP3    H1 9825   6.254   6.605   5.571
 3287TIP3    H2 9826   6.393   6.548   5.553
 3288TIP3   OH2 9827   1.863   3.677   1.650
 3288TIP3    H1 9828   1.957   3.680   1.666
 3288TIP3    H2 9829   1.851   3.718   1.564
 3289TIP3   OH2 9830   5.080   4.888   5.122
 3289TIP3    H1 9831   5.082   4.798   5.089
 3289TIP3    H2 9832   5.124   4.884   5.207
 3290TIP3   OH2 9833   6.491   2.204   3.075
 3290TIP3    H1 9834   6.505   2.282   3.129
 3290TIP3    H2 9835   6.404   2.173   3.099
 3291TIP3   OH2 9836   0.440   1.395   1.529
 3291TIP3    H1 9837   0.355   1.353   1.538
 3291TIP3    H2 9838   0.500   1.324   1.510
 3292TIP3   OH2 9839   3.734   0.310   3.126
 3292TIP3    H1 9840   3.692   0.289   3.043
 3292TIP3    H2 9841   3.802   0.244   3.136
 3293TIP3   OH2 9842   3.115   4.843   0.965
 3293TIP3    H1 9843   3.182   4.912   0.970
 3293TIP3    H2 9844   3.143   4.778   1.029
 3294TIP3   OH2 9845   0.265   2.209   3.718
 3294TIP3    H1 9846   0.200   2.146   3.687
 3294TIP3    H2 9847   0.260   2.281   3.655
 3295TIP3   OH2 9848   1.076   3.254   0.056
 3295TIP3    H1 9849   1.077   3.178   0.114
 3295TIP3    H2 9850   1.016   3.229  -0.014
 3296TIP3   OH2 9851   0.317   6.072   2.970
 3296TIP3    H1 9852   0.333   6.069   2.875
 3296TIP3    H2 9853   0.401   6.098   3.007
 3297TIP3   OH2 9854   3.630   4.576   1.713
 3297TIP3    H1 9855   3.560   4.581   1.648
 3297TIP3    H2 9856   3.597   4.624   1.789
 3298TIP3   OH2 9857   2.798   1.307   1.266
 3298TIP3    H1 9858   2.779   1.333   1.356
 3298TIP3    H2 9859   2.867   1.241   1.273
 3299TIP3   OH2 9860   3.025   1.637   1.208
 3299TIP3    H1 9861   3.077   1.560   1.184
 3299TIP3    H2 9862   2.949   1.634   1.150
 3300TIP3   OH2 9863   1.346   1.072   0.881
 3300TIP3    H1 9864   1.375   1.071   0.791
 3300TIP3    H2 9865   1.394   1.144   0.922
 3301TIP3   OH2 9866   4.666   0.324   5.414
 3301TIP3    H1 9867   4.753   0.306   5.450
 3301TIP3    H2 9868   4.660   0.420   5.414
 3302TIP3   OH2 9869   5.996   0.230   4.679
 3302TIP3    H1 9870   6.046   0.311   4.679
 3302TIP3    H2 9871   6.035   0.177   4.609
 3303TIP3   OH2 9872   3.756   1.315   0.600
 3303TIP3    H1 9873   3.821   1.383   0.583
 3303TIP3    H2 9874   3.684   1.360   0.644
 3304TIP3   OH2 9875   6.762   0.023   0.163
 3304TIP3    H1 9876   6.751   0.106   0.117
 3304TIP3    H2 9877   6.822   0.042   0.235
 3305TIP3   OH2 9878   4.110   4.819   4.560
 3305TIP3    H1 9879   4.202   4.807   4.536
 3305TIP3    H2 9880   4.080   4.732   4.584
 3306TIP3   OH2 9881   4.086   1.594   0.996
 3306TIP3    H1 9882   4.143   1.631   1.064
 3306TIP3    H2 9883   4.121   1.630   0.914
 3307TIP3   OH2 9884   3.738   5.458   4.956
 3307TIP3    H1 9885   3.726   5.500   5.041
 3307TIP3    H2 9886   3.818   5.406   4.966
 3308TIP3   OH2 9887   1.103   0.097   3.038
 3308TIP3    H1 9888   1.192   0.115   3.005
 3308TIP3    H2 9889   1.112   0.015   3.087
 3309TIP3   OH2 9890   6.645   5.878   0.229
 3309TIP3    H1 9891   6.679   5.876   0.140
 3309TIP3    H2 9892   6.561   5.923   0.222
 3310TIP3   OH2 9893   6.698   6.570   0.594
 3310TIP3    H1 9894   6.664   6.618   0.669
 3310TIP3    H2 9895   6.744   6.495   0.632
 3311TIP3   OH2 9896   2.498   0.226   3.316
 3311TIP3    H1 9897   2.503   0.211   3.222
 3311TIP3    H2 9898   2.588   0.245   3.343
 3312TIP3   OH2 9899   2.208   0.150   2.917
 3312TIP3    H1 9900   2.143   0.219   2.905
 3312TIP3    H2 9901   2.292   0.192   2.898
 3313TIP3   OH2 9902   1.105   1.480   5.567
 3313TIP3    H1 9903   1.165   1.553   5.580
 3313TIP3    H2 9904   1.048   1.481   5.643
 3314TIP3   OH2 9905   5.773   3.219   2.871
 3314TIP3    H1 9906   5.731   3.228   2.956
 3314TIP3    H2 9907   5.773   3.125   2.854
 3315TIP3   OH2 9908   0.200   4.292   0.122
 3315TIP3    H1 9909   0.223   4.200   0.113
 3315TIP3    H2 9910   0.265   4.338   0.068
 3316TIP3   OH2 9911   4.566   4.148   2.637
 3316TIP3    H1 9912   4.562   4.176   2.546
 3316TIP3    H2 9913   4.596   4.226   2.685
 3317TIP3   OH2 9914   0.687   0.953   2.418
 3317TIP3    H1 9915   0.770   0.943   2.464
 3317TIP3    H2 9916   0.640   0.871   2.435
 3318TIP3   OH2 9917   3.993   0.721   1.264
 3318TIP3    H1 9918   3.966   0.767   1.185
 3318TIP3    H2 9919   4.010   0.631   1.235
 3319TIP3   OH2 9920   1.239   0.711   0.424
 3319TIP3    H1 9921   1.221   0.620   0.448
 3319TIP3    H2 9922   1.175   0.762   0.473
 3320TIP3   OH2 9923   0.502   3.848   0.411
 3320TIP3    H1 9924   0.451   3.770   0.432
 3320TIP3    H2 9925   0.501   3.900   0.491
 3321TIP3   OH2 9926   6.544   3.165   3.829
 3321TIP3    H1 9927   6.537   3.180   3.734
 3321TIP3    H2 9928   6.522   3.073   3.840
 3322TIP3   OH2 9929   5.093   0.032   1.465
 3322TIP3    H1 9930   5.057   0.092   1.530
 3322TIP3    H2 9931   5.020  -0.025   1.441
 3323TIP3   OH2 9932   0.227   0.756   2.529
 3323TIP3    H1 9933   0.228   0.660   2.537
 3323TIP3    H2 9934   0.140   0.781   2.561
 3324TIP3   OH2 9935   1.726   5.689   0.631
 3324TIP3    H1 9936   1.777   5.755   0.584
 3324TIP3    H2 9937   1.673   5.739   0.693
 3325TIP3   OH2 9938   6.034   3.984   1.375
 3325TIP3    H1 9939   6.085   4.039   1.316
 3325TIP3    H2 9940   6.019   4.040   1.452
 3326TIP3   OH2 9941   4.727   0.064   1.771
 3326TIP3    H1 9942   4.775  -0.002   1.722
 3326TIP3    H2 9943   4.759   0.054   1.861
 3327TIP3   OH2 9944   3.470   3.347   0.955
 3327TIP3    H1 9945   3.453   3.436   0.986
 3327TIP3    H2 9946   3.560   3.348   0.924
 3328TIP3   OH2 9947   0.672   2.415   3.814
 3328TIP3    H1 9948   0.597   2.464   3.781
 3328TIP3    H2 9949   0.648   2.323   3.802
 3329TIP3   OH2 9950   2.148   0.302   5.454
 3329TIP3    H1 9951   2.129   0.387   5.414
 3329TIP3    H2 9952   2.212   0.322   5.523
 3330TIP3   OH2 9953   4.290   3.479   4.571
 3330TIP3    H1 9954   4.322   3.412   4.511
 3330TIP3    H2 9955   4.198   3.490   4.549
 3331TIP3   OH2 9956   4.821   4.070   1.389
 3331TIP3    H1 9957   4.794   3.994   1.441
 3331TIP3    H2 9958   4.908   4.092   1.423
 3332TIP3   OH2 9959   2.132   5.653   2.990
 3332TIP3    H1 9960   2.113   5.656   2.896
 3332TIP3    H2 9961   2.168   5.739   3.010
 3333TIP3   OH2 9962   0.072   2.195   2.573
 3333TIP3    H1 9963   0.117   2.271   2.612
 3333TIP3    H2 9964   0.057   2.136   2.647
 3334TIP3   OH2 9965   4.559   3.098   0.840
 3334TIP3    H1 9966   4.635   3.046   0.817
 3334TIP3    H2 9967   4.491   3.034   0.860
 3335TIP3   OH2 9968   6.587   0.647   3.154
 3335TIP3    H1 9969   6.556   0.697   3.229
 3335TIP3    H2 9970   6.642   0.579   3.191
 3336TIP3   OH2 9971   0.157   0.610   0.172
 3336TIP3    H1 9972   0.105   0.533   0.148
 3336TIP3    H2 9973   0.104   0.684   0.144
 3337TIP3   OH2 9974   0.572   5.052   5.097
 3337TIP3    H1 9975   0.653   5.102   5.084
 3337TIP3    H2 9976   0.509   5.094   5.038
 3338TIP3   OH2 9977   6.007   2.658   4.303
 3338TIP3    H1 9978   6.078   2.722   4.312
 3338TIP3    H2 9979   5.927   2.709   4.311
 3339TIP3   OH2 9980   2.699   6.756   4.490
 3339TIP3    H1 9981   2.698   6.687   4.556
 3339TIP3    H2 9982   2.792   6.768   4.468
 3340TIP3   OH2 9983   3.852   1.647   0.258
 3340TIP3    H1 9984   3.827   1.686   0.175
 3340TIP3    H2 9985   3.947   1.640   0.255
 3341TIP3   OH2 9986   4.372   1.680   0.550
 3341TIP3    H1 9987   4.457   1.703   0.513
 3341TIP3    H2 9988   4.370   1.584   0.547
 3342TIP3   OH2 9989   0.649   0.055   2.427
 3342TIP3    H1 9990   0.736   0.047   2.389
 3342TIP3    H2 9991   0.639   0.149   2.444
 3343TIP3   OH2 9992   3.635   1.206   5.140
 3343TIP3    H1 9993   3.686   1.126   5.131
 3343TIP3    H2 9994   3.556   1.190   5.090
 3344TIP3   OH2 9995   3.275   2.665   4.345
 3344TIP3    H1 9996   3.234   2.616   4.417
 3344TIP3    H2 9997   3.257   2.756   4.365
 3345TIP3   OH2 9998   6.629   0.565   4.079
 3345TIP3    H1 9999   6.660   0.582   3.990
 3345TIP3    H210000   6.622   0.652   4.119
 3346TIP3   OH210001   6.869   6.804   0.048
 3346TIP3    H110002   6.847   6.895   0.027
 3346TIP3    H210003   6.954   6.790   0.006
 3347TIP3   OH210004   2.590   5.067   2.303
 3347TIP3    H110005   2.662   5.084   2.364
 3347TIP3    H210006   2.543   4.993   2.342
 3348TIP3   OH210007   6.424   0.324   0.665
 3348TIP3    H110008   6.381   0.323   0.579
 3348TIP3    H210009   6.396   0.242   0.707
 3349TIP3   OH210010   0.872   3.629   1.129
 3349TIP3    H110011   0.781   3.604   1.113
 3349TIP3    H210012   0.912   3.551   1.166
 3350TIP3   OH210013   3.575   3.917   4.137
 3350TIP3    H110014   3.570   4.012   4.121
 3350TIP3    H210015   3.608   3.881   4.054
 3351TIP3   OH210016   6.977   1.392   0.490
 3351TIP3    H110017   7.044   1.337   0.530
 3351TIP3    H210018   6.897   1.372   0.539
 3352TIP3   OH210019   0.832   1.094   2.187
 3352TIP3    H110020   0.839   1.168   2.247
 3352TIP3    H210021   0.828   1.133   2.100
 3353TIP3   OH210022   5.556   1.357   3.096
 3353TIP3    H110023   5.584   1.330   3.184
 3353TIP3    H210024   5.468   1.391   3.108
 3354TIP3   OH210025   0.283   2.395   4.202
 3354TIP3    H110026   0.287   2.464   4.137
 3354TIP3    H210027   0.201   2.410   4.249
 3355TIP3   OH210028   3.329   4.560   3.965
 3355TIP3    H110029   3.302   4.651   3.976
 3355TIP3    H210030   3.404   4.551   4.023
 3356TIP3   OH210031   1.173   5.869   1.779
 3356TIP3    H110032   1.191   5.829   1.694
 3356TIP3    H210033   1.149   5.959   1.759
 3357TIP3   OH210034   2.965   0.122   1.170
 3357TIP3    H110035   3.037   0.074   1.211
 3357TIP3    H210036   3.001   0.152   1.086
 3358TIP3   OH210037   2.987   4.154   0.821
 3358TIP3    H110038   3.078   4.184   0.826
 3358TIP3    H210039   2.939   4.230   0.789
 3359TIP3   OH210040   0.386   2.127   4.277
 3359TIP3    H110041   0.476   2.099   4.263
 3359TIP3    H210042   0.384   2.218   4.245
 3360TIP3   OH210043   0.298   2.951   0.050
 3360TIP3    H110044   0.251   2.896  -0.013
 3360TIP3    H210045   0.251   2.939   0.132
 3361TIP3   OH210046   6.269   4.620   1.144
 3361TIP3    H110047   6.290   4.623   1.237
 3361TIP3    H210048   6.174   4.607   1.141
 3362TIP3   OH210049   6.735   4.350   5.238
 3362TIP3    H110050   6.720   4.405   5.315
 3362TIP3    H210051   6.748   4.262   5.273
 3363TIP3   OH210052   1.850   0.236   0.316
 3363TIP3    H110053   1.781   0.186   0.272
 3363TIP3    H210054   1.804   0.282   0.387
 3364TIP3   OH210055   6.536   2.360   4.087
 3364TIP3    H110056   6.457   2.340   4.137
 3364TIP3    H210057   6.608   2.352   4.150
 3365TIP3   OH210058   6.172   1.249   0.252
 3365TIP3    H110059   6.086   1.210   0.269
 3365TIP3    H210060   6.227   1.218   0.324
 3366TIP3   OH210061   1.797   0.984   5.295
 3366TIP3    H110062   1.850   1.044   5.347
 3366TIP3    H210063   1.793   1.024   5.208
 3367TIP3   OH210064   4.361   6.364   3.576
 3367TIP3    H110065   4.445   6.345   3.617
 3367TIP3    H210066   4.341   6.284   3.526
 3368TIP3   OH210067   2.586   5.582   4.744
 3368TIP3    H110068   2.656   5.587   4.810
 3368TIP3    H210069   2.632   5.568   4.661
 3369TIP3   OH210070   1.265   0.562   5.293
 3369TIP3    H110071   1.207   0.620   5.244
 3369TIP3    H210072   1.280   0.607   5.376
 3370TIP3   OH210073   3.037   2.907   5.829
 3370TIP3    H110074   2.949   2.920   5.792
 3370TIP3    H210075   3.024   2.846   5.901
 3371TIP3   OH210076   6.352   2.620   0.536
 3371TIP3    H110077   6.398   2.704   0.535
 3371TIP3    H210078   6.282   2.632   0.600
 3372TIP3   OH210079   2.803   2.376   3.506
 3372TIP3    H110080   2.750   2.394   3.429
 3372TIP3    H210081   2.832   2.285   3.494
 3373TIP3   OH210082   0.018   1.458   2.642
 3373TIP3    H110083   0.066   1.404   2.579
 3373TIP3    H210084   0.062   1.443   2.726
 3374TIP3   OH210085   5.441   6.200   1.292
 3374TIP3    H110086   5.350   6.186   1.317
 3374TIP3    H210087   5.453   6.145   1.215
 3375TIP3   OH210088   5.334   3.806   0.953
 3375TIP3    H110089   5.332   3.742   0.881
 3375TIP3    H210090   5.423   3.842   0.951
 3376TIP3   OH210091   4.804   3.740   2.403
 3376TIP3    H110092   4.812   3.761   2.496
 3376TIP3    H210093   4.788   3.825   2.361
 3377TIP3   OH210094   5.934   6.472   4.935
 3377TIP3    H110095   6.027   6.484   4.919
 3377TIP3    H210096   5.901   6.559   4.956
 3378TIP3   OH210097   5.909   3.056   4.981
 3378TIP3    H110098   5.906   2.961   4.995
 3378TIP3    H210099   5.904   3.093   5.069
 3379TIP3   OH210100   0.540   0.119   1.039
 3379TIP3    H110101   0.576   0.183   0.977
 3379TIP3    H210102   0.569   0.151   1.125
 3380TIP3   OH210103   5.844   2.254   4.250
 3380TIP3    H110104   5.908   2.304   4.300
 3380TIP3    H210105   5.830   2.305   4.170
 3381TIP3   OH210106   7.109   4.862   3.544
 3381TIP3    H110107   7.151   4.938   3.583
 3381TIP3    H210108   7.111   4.879   3.450
 3382TIP3   OH210109   2.282   2.659   1.083
 3382TIP3    H110110   2.234   2.578   1.062
 3382TIP3    H210111   2.335   2.636   1.159
 3383TIP3   OH210112   2.602   5.018   2.042
 3383TIP3    H110113   2.587   5.039   2.134
 3383TIP3    H210114   2.558   4.934   2.028
 3384TIP3   OH210115   4.689   6.415   1.261
 3384TIP3    H110116   4.718   6.364   1.337
 3384TIP3    H210117   4.760   6.477   1.245
 3385TIP3   OH210118   2.190   2.762   0.861
 3385TIP3    H110119   2.217   2.734   0.948
 3385TIP3    H210120   2.245   2.712   0.801
 3386TIP3   OH210121   2.458   2.768   0.662
 3386TIP3    H110122   2.420   2.809   0.584
 3386TIP3    H210123   2.505   2.692   0.628
 3387TIP3   OH210124   6.959   1.016   4.785
 3387TIP3    H110125   6.959   1.067   4.866
 3387TIP3    H210126   6.884   1.049   4.736
 3388TIP3   OH210127   7.014   5.114   2.875
 3388TIP3    H110128   7.041   5.204   2.856
 3388TIP3    H210129   7.076   5.060   2.826
 3389TIP3   OH210130   0.806   0.390   4.394
 3389TIP3    H110131   0.871   0.330   4.431
 3389TIP3    H210132   0.759   0.426   4.469
 3390TIP3   OH210133   0.843   2.126   5.634
 3390TIP3    H110134   0.881   2.136   5.547
 3390TIP3    H210135   0.837   2.215   5.668
 3391TIP3   OH210136   3.073   0.665   0.871
 3391TIP3    H110137   3.077   0.584   0.821
 3391TIP3    H210138   2.999   0.712   0.834
 3392TIP3   OH210139   4.943   5.506   0.805
 3392TIP3    H110140   4.992   5.426   0.824
 3392TIP3    H210141   4.885   5.518   0.880
 3393TIP3   OH210142   1.009   6.564   4.036
 3393TIP3    H110143   0.930   6.594   4.080
 3393TIP3    H210144   0.982   6.484   3.990
 3394TIP3   OH210145   7.027   1.270   5.544
 3394TIP3    H110146   7.115   1.306   5.550
 3394TIP3    H210147   7.041   1.181   5.511
 3395TIP3   OH210148   7.142   4.011   0.447
 3395TIP3    H110149   7.092   4.089   0.470
 3395TIP3    H210150   7.233   4.041   0.445
 3396TIP3   OH210151   2.559   5.012   4.776
 3396TIP3    H110152   2.617   4.937   4.789
 3396TIP3    H210153   2.584   5.048   4.691
 3397TIP3   OH210154   4.157   3.547   1.674
 3397TIP3    H110155   4.190   3.464   1.640
 3397TIP3    H210156   4.071   3.558   1.634
 3398TIP3   OH210157   1.640   6.522   4.216
 3398TIP3    H110158   1.593   6.441   4.236
 3398TIP3    H210159   1.680   6.548   4.299
 3399TIP3   OH210160   5.808   5.706   5.312
 3399TIP3    H110161   5.859   5.678   5.388
 3399TIP3    H210162   5.717   5.705   5.343
 3400TIP3   OH210163   1.900   1.484   1.634
 3400TIP3    H110164   1.963   1.413   1.642
 3400TIP3    H210165   1.953   1.562   1.616
 3401TIP3   OH210166   3.032   3.851   4.068
 3401TIP3    H110167   2.969   3.834   3.998
 3401TIP3    H210168   3.106   3.891   4.024
 3402TIP3   OH210169   1.241   5.989   3.121
 3402TIP3    H110170   1.277   6.061   3.069
 3402TIP3    H210171   1.178   5.946   3.063
 3403TIP3   OH210172   5.878   0.119   3.636
 3403TIP3    H110173   5.870   0.042   3.579
 3403TIP3    H210174   5.795   0.121   3.684
 3404TIP3   OH210175   5.713   6.101   1.016
 3404TIP3    H110176   5.768   6.170   1.054
 3404TIP3    H210177   5.710   6.033   1.083
 3405TIP3   OH210178   5.684   2.073   0.056
 3405TIP3    H110179   5.678   2.107   0.145
 3405TIP3    H210180   5.762   2.115   0.019
 3406TIP3   OH210181   0.257   3.350   2.869
 3406TIP3    H110182   0.193   3.400   2.919
 3406TIP3    H210183   0.220   3.263   2.862
 3407TIP3   OH210184   1.367   3.124   3.208
 3407TIP3    H110185   1.413   3.186   3.152
 3407TIP3    H210186   1.382   3.039   3.168
 3408TIP3   OH210187   6.192   1.935   0.565
 3408TIP3    H110188   6.224   2.020   0.594
 3408TIP3    H210189   6.270   1.889   0.535
 3409TIP3   OH210190   2.141   0.306   0.711
 3409TIP3    H110191   2.069   0.369   0.702
 3409TIP3    H210192   2.148   0.266   0.625
 3410TIP3   OH210193   2.580   2.772   5.821
 3410TIP3    H110194   2.553   2.785   5.912
 3410TIP3    H210195   2.660   2.823   5.812
 3411TIP3   OH210196   6.218   2.833   5.731
 3411TIP3    H110197   6.143   2.888   5.709
 3411TIP3    H210198   6.291   2.872   5.684
 3412TIP3   OH210199   5.394   2.256   2.319
 3412TIP3    H110200   5.471   2.199   2.315
 3412TIP3    H210201   5.427   2.338   2.356
 3413TIP3   OH210202   6.039   6.818   1.355
 3413TIP3    H110203   6.005   6.728   1.361
 3413TIP3    H210204   5.997   6.854   1.278
 3414TIP3   OH210205   0.715   0.594   1.233
 3414TIP3    H110206   0.716   0.565   1.324
 3414TIP3    H210207   0.807   0.598   1.208
 3415TIP3   OH210208   6.380   0.351   4.744
 3415TIP3    H110209   6.375   0.259   4.770
 3415TIP3    H210210   6.356   0.351   4.652
 3416TIP3   OH210211   1.184   4.468   3.872
 3416TIP3    H110212   1.278   4.473   3.891
 3416TIP3    H210213   1.165   4.375   3.868
 3417TIP3   OH210214   6.971   5.130   2.009
 3417TIP3    H110215   6.995   5.222   2.021
 3417TIP3    H210216   7.023   5.101   1.935
 3418TIP3   OH210217   5.003   2.162   5.846
 3418TIP3    H110218   5.044   2.125   5.768
 3418TIP3    H210219   4.937   2.096   5.871
 3419TIP3   OH210220   5.529   2.005   4.955
 3419TIP3    H110221   5.509   1.939   5.022
 3419TIP3    H210222   5.525   1.956   4.872
 3420TIP3   OH210223   6.542   2.091   1.616
 3420TIP3    H110224   6.493   2.070   1.696
 3420TIP3    H210225   6.604   2.158   1.643
 3421TIP3   OH210226   5.783   0.567   1.641
 3421TIP3    H110227   5.762   0.502   1.574
 3421TIP3    H210228   5.873   0.546   1.667
 3422TIP3   OH210229   2.648   2.987   2.177
 3422TIP3    H110230   2.558   2.954   2.176
 3422TIP3    H210231   2.646   3.058   2.242
 3423TIP3   OH210232   2.753   2.034   0.848
 3423TIP3    H110233   2.769   2.021   0.941
 3423TIP3    H210234   2.688   1.967   0.826
 3424TIP3   OH210235   1.018   2.786   1.474
 3424TIP3    H110236   1.069   2.711   1.505
 3424TIP3    H210237   1.084   2.850   1.446
 3425TIP3   OH210238   2.437   2.110   5.652
 3425TIP3    H110239   2.420   2.101   5.558
 3425TIP3    H210240   2.528   2.085   5.664
 3426TIP3   OH210241   6.079   2.331   4.629
 3426TIP3    H110242   6.016   2.302   4.694
 3426TIP3    H210243   6.071   2.267   4.557
 3427TIP3   OH210244   5.063   4.960   4.794
 3427TIP3    H110245   5.033   4.992   4.879
 3427TIP3    H210246   4.988   4.971   4.736
 3428TIP3   OH210247   3.455   3.614   5.543
 3428TIP3    H110248   3.515   3.669   5.492
 3428TIP3    H210249   3.418   3.554   5.478
 3429TIP3   OH210250   3.087   1.377   5.667
 3429TIP3    H110251   3.040   1.353   5.587
 3429TIP3    H210252   3.019   1.410   5.726
 3430TIP3   OH210253   1.181   6.266   0.602
 3430TIP3    H110254   1.143   6.284   0.688
 3430TIP3    H210255   1.260   6.320   0.599
 3431TIP3   OH210256   0.946   0.079   5.198
 3431TIP3    H110257   0.939   0.174   5.186
 3431TIP3    H210258   0.890   0.042   5.130
 3432TIP3   OH210259   1.652   2.863   3.555
 3432TIP3    H110260   1.642   2.877   3.461
 3432TIP3    H210261   1.649   2.768   3.565
 3433TIP3   OH210262   5.468   1.445   3.705
 3433TIP3    H110263   5.412   1.488   3.641
 3433TIP3    H210264   5.441   1.483   3.789
 3434TIP3   OH210265   4.681   1.863   4.040
 3434TIP3    H110266   4.586   1.861   4.039
 3434TIP3    H210267   4.707   1.798   3.975
 3435TIP3   OH210268   4.473   0.210   2.252
 3435TIP3    H110269   4.565   0.233   2.240
 3435TIP3    H210270   4.474   0.137   2.313
 3436TIP3   OH210271   5.810   3.990   3.194
 3436TIP3    H110272   5.771   4.012   3.109
 3436TIP3    H210273   5.735   3.978   3.252
 3437TIP3   OH210274   0.986   5.385   1.155
 3437TIP3    H110275   0.963   5.395   1.062
 3437TIP3    H210276   0.967   5.293   1.175
 3438TIP3   OH210277   3.196   6.399   2.862
 3438TIP3    H110278   3.253   6.428   2.933
 3438TIP3    H210279   3.133   6.340   2.904
 3439TIP3   OH210280   0.537   6.745   4.926
 3439TIP3    H110281   0.477   6.671   4.921
 3439TIP3    H210282   0.516   6.798   4.849
 3440TIP3   OH210283   0.482   5.159   3.736
 3440TIP3    H110284   0.412   5.095   3.727
 3440TIP3    H210285   0.547   5.117   3.791
 3441TIP3   OH210286   3.277   1.742   4.042
 3441TIP3    H110287   3.282   1.693   4.124
 3441TIP3    H210288   3.270   1.833   4.068
 3442TIP3   OH210289   6.395   5.564   2.383
 3442TIP3    H110290   6.348   5.624   2.441
 3442TIP3    H210291   6.417   5.617   2.306
 3443TIP3   OH210292   3.924   3.195   1.432
 3443TIP3    H110293   3.880   3.276   1.408
 3443TIP3    H210294   3.910   3.187   1.527
 3444TIP3   OH210295   1.551   3.373   5.479
 3444TIP3    H110296   1.547   3.452   5.533
 3444TIP3    H210297   1.538   3.301   5.541
 3445TIP3   OH210298   4.059   0.594   2.642
 3445TIP3    H110299   4.061   0.525   2.708
 3445TIP3    H210300   3.996   0.658   2.676
 3446TIP3   OH210301   3.899   1.138   3.117
 3446TIP3    H110302   3.952   1.067   3.155
 3446TIP3    H210303   3.837   1.093   3.059
 3447TIP3   OH210304   4.983  -0.002   5.298
 3447TIP3    H110305   5.017  -0.065   5.361
 3447TIP3    H210306   5.028  -0.024   5.216
 3448TIP3   OH210307   3.809   5.456   2.001
 3448TIP3    H110308   3.745   5.440   1.930
 3448TIP3    H210309   3.804   5.377   2.055
 3449TIP3   OH210310   7.047   4.310   1.557
 3449TIP3    H110311   7.056   4.352   1.643
 3449TIP3    H210312   7.121   4.250   1.552
 3450TIP3   OH210313   5.438   1.908   4.570
 3450TIP3    H110314   5.476   1.852   4.638
 3450TIP3    H210315   5.382   1.969   4.618
 3451TIP3   OH210316   2.790   6.392   0.265
 3451TIP3    H110317   2.698   6.373   0.278
 3451TIP3    H210318   2.825   6.407   0.353
 3452TIP3   OH210319   0.560   1.905   1.911
 3452TIP3    H110320   0.651   1.935   1.918
 3452TIP3    H210321   0.535   1.882   2.000
 3453TIP3   OH210322   6.838   1.366   3.111
 3453TIP3    H110323   6.901   1.376   3.183
 3453TIP3    H210324   6.753   1.360   3.154
 3454TIP3   OH210325   1.256   2.576   2.908
 3454TIP3    H110326   1.349   2.597   2.913
 3454TIP3    H210327   1.253   2.481   2.910
 3455TIP3   OH210328   2.796   1.855   4.903
 3455TIP3    H110329   2.803   1.847   4.808
 3455TIP3    H210330   2.886   1.864   4.933
 3456TIP3   OH210331   0.149  -0.026   5.268
 3456TIP3    H110332   0.120   0.064   5.285
 3456TIP3    H210333   0.179  -0.058   5.353
 3457TIP3   OH210334   2.384   2.894   3.752
 3457TIP3    H110335   2.391   2.968   3.813
 3457TIP3    H210336   2.408   2.817   3.805
 3458TIP3   OH210337   4.318   0.197   5.487
 3458TIP3    H110338   4.384   0.166   5.424
 3458TIP3    H210339   4.235   0.164   5.452
 3459TIP3   OH210340   4.187   4.592   3.400
 3459TIP3    H110341   4.170   4.515   3.455
 3459TIP3    H210342   4.200   4.557   3.312
 3460TIP3   OH210343   1.337   5.417   4.834
 3460TIP3    H110344   1.299   5.365   4.904
 3460TIP3    H210345   1.345   5.356   4.760
 3461TIP3   OH210346   5.936   3.041   2.162
 3461TIP3    H110347   5.924   2.983   2.238
 3461TIP3    H210348   5.946   2.982   2.088
 3462TIP3   OH210349   3.271   3.457   0.303
 3462TIP3    H110350   3.218   3.490   0.375
 3462TIP3    H210351   3.228   3.491   0.224
 3463TIP3   OH210352   5.552   2.437   1.458
 3463TIP3    H110353   5.600   2.506   1.413
 3463TIP3    H210354   5.484   2.411   1.396
 3464TIP3   OH210355   5.891   0.938   4.746
 3464TIP3    H110356   5.880   0.843   4.750
 3464TIP3    H210357   5.862   0.969   4.832
 3465TIP3   OH210358   0.811   2.642   1.017
 3465TIP3    H110359   0.774   2.563   0.978
 3465TIP3    H210360   0.893   2.613   1.056
 3466TIP3   OH210361   1.464   4.921   3.719
 3466TIP3    H110362   1.372   4.940   3.702
 3466TIP3    H210363   1.501   4.904   3.633
 3467TIP3   OH210364   3.662   3.161   5.926
 3467TIP3    H110365   3.715   3.176   5.847
 3467TIP3    H210366   3.695   3.225   5.989
 3468TIP3   OH210367   1.264   6.160   4.481
 3468TIP3    H110368   1.223   6.157   4.567
 3468TIP3    H210369   1.193   6.144   4.419
 3469TIP3   OH210370   3.119   6.157   1.146
 3469TIP3    H110371   3.195   6.206   1.177
 3469TIP3    H210372   3.116   6.175   1.052
 3470TIP3   OH210373   3.261   6.730   2.939
 3470TIP3    H110374   3.168   6.717   2.959
 3470TIP3    H210375   3.265   6.815   2.897
 3471TIP3   OH210376   4.961   5.356   0.418
 3471TIP3    H110377   4.923   5.301   0.486
 3471TIP3    H210378   5.001   5.295   0.357
 3472TIP3   OH210379   5.893  -0.004   0.413
 3472TIP3    H110380   5.821   0.053   0.440
 3472TIP3    H210381   5.878  -0.019   0.320
 3473TIP3   OH210382   3.535   2.267   3.260
 3473TIP3    H110383   3.606   2.207   3.283
 3473TIP3    H210384   3.541   2.336   3.326
 3474TIP3   OH210385   1.157   1.041   1.426
 3474TIP3    H110386   1.247   1.061   1.451
 3474TIP3    H210387   1.138   1.103   1.356
 3475TIP3   OH210388   6.797   2.737   1.520
 3475TIP3    H110389   6.837   2.654   1.494
 3475TIP3    H210390   6.866   2.784   1.567
 3476TIP3   OH210391   5.312   4.804   3.183
 3476TIP3    H110392   5.274   4.882   3.224
 3476TIP3    H210393   5.346   4.836   3.099
 3477TIP3   OH210394   2.658   3.969   3.946
 3477TIP3    H110395   2.582   3.941   3.894
 3477TIP3    H210396   2.632   3.955   4.037
 3478TIP3   OH210397   5.964   2.642   3.330
 3478TIP3    H110398   5.895   2.605   3.385
 3478TIP3    H210399   5.917   2.677   3.254
 3479TIP3   OH210400   4.622   1.334   3.300
 3479TIP3    H110401   4.664   1.412   3.335
 3479TIP3    H210402   4.638   1.266   3.366
 3480TIP3   OH210403   4.265   4.107   5.098
 3480TIP3    H110404   4.292   4.117   5.189
 3480TIP3    H210405   4.234   4.194   5.073
 3481TIP3   OH210406   0.382   5.469   1.925
 3481TIP3    H110407   0.441   5.504   1.990
 3481TIP3    H210408   0.418   5.498   1.841
 3482TIP3   OH210409   0.205   1.874   4.494
 3482TIP3    H110410   0.192   1.839   4.405
 3482TIP3    H210411   0.298   1.897   4.497
 3483TIP3   OH210412   0.685   2.483   0.371
 3483TIP3    H110413   0.694   2.512   0.280
 3483TIP3    H210414   0.608   2.529   0.403
 3484TIP3   OH210415   7.040   5.685   3.391
 3484TIP3    H110416   7.028   5.638   3.309
 3484TIP3    H210417   7.059   5.775   3.365
 3485TIP3   OH210418   6.791   1.436   5.108
 3485TIP3    H110419   6.857   1.406   5.046
 3485TIP3    H210420   6.841   1.472   5.181
 3486TIP3   OH210421   6.771   4.310   1.468
 3486TIP3    H110422   6.831   4.355   1.410
 3486TIP3    H210423   6.827   4.258   1.526
 3487TIP3   OH210424   3.580   2.835   4.698
 3487TIP3    H110425   3.587   2.766   4.764
 3487TIP3    H210426   3.664   2.880   4.700
 3488TIP3   OH210427   0.063   2.982   1.043
 3488TIP3    H110428   0.109   3.060   1.073
 3488TIP3    H210429  -0.008   2.969   1.106
 3489TIP3   OH210430   6.295   2.564   2.489
 3489TIP3    H110431   6.295   2.657   2.514
 3489TIP3    H210432   6.292   2.566   2.394
 3490TIP3   OH210433   4.088   4.957   2.380
 3490TIP3    H110434   4.042   5.040   2.385
 3490TIP3    H210435   4.180   4.981   2.370
 3491TIP3   OH210436   1.011   0.805   5.775
 3491TIP3    H110437   1.062   0.775   5.850
 3491TIP3    H210438   0.981   0.892   5.800
 3492TIP3   OH210439   6.105   3.003   4.684
 3492TIP3    H110440   6.073   3.093   4.686
 3492TIP3    H210441   6.028   2.950   4.704
 3493TIP3   OH210442   2.233   5.032   1.982
 3493TIP3    H110443   2.271   5.002   1.900
 3493TIP3    H210444   2.253   5.125   1.985
 3494TIP3   OH210445   4.150   5.790   5.114
 3494TIP3    H110446   4.183   5.789   5.024
 3494TIP3    H210447   4.108   5.705   5.125
 3495TIP3   OH210448   5.997   2.239   2.071
 3495TIP3    H110449   5.962   2.284   2.148
 3495TIP3    H210450   5.987   2.146   2.090
 3496TIP3   OH210451   1.256   5.836   2.046
 3496TIP3    H110452   1.198   5.856   2.119
 3496TIP3    H210453   1.202   5.847   1.968
 3497TIP3   OH210454   1.996   4.121   5.339
 3497TIP3    H110455   2.021   4.169   5.418
 3497TIP3    H210456   2.066   4.141   5.277
 3498TIP3   OH210457   5.901   4.498   3.730
 3498TIP3    H110458   5.940   4.479   3.816
 3498TIP3    H210459   5.974   4.529   3.677
 3499TIP3   OH210460   6.424   6.316   4.542
 3499TIP3    H110461   6.436   6.321   4.637
 3499TIP3    H210462   6.356   6.381   4.523
 3500TIP3   OH210463   1.867   0.477   4.497
 3500TIP3    H110464   1.852   0.412   4.428
 3500TIP3    H210465   1.799   0.543   4.483
 3501TIP3   OH210466   2.509   4.814   3.637
 3501TIP3    H110467   2.489   4.750   3.705
 3501TIP3    H210468   2.469   4.777   3.558
 3502TIP3   OH210469   6.482   5.507   1.764
 3502TIP3    H110470   6.499   5.600   1.752
 3502TIP3    H210471   6.550   5.463   1.713
 3503TIP3   OH210472   4.566   3.725   2.148
 3503TIP3    H110473   4.653   3.685   2.143
 3503TIP3    H210474   4.507   3.652   2.167
 3504TIP3   OH210475   2.079   0.159   3.960
 3504TIP3    H110476   1.999   0.187   4.003
 3504TIP3    H210477   2.122   0.240   3.934
 3505TIP3   OH210478   4.290   6.430   5.764
 3505TIP3    H110479   4.331   6.511   5.737
 3505TIP3    H210480   4.315   6.420   5.856
 3506TIP3   OH210481   5.170   3.067   1.495
 3506TIP3    H110482   5.194   3.159   1.507
 3506TIP3    H210483   5.198   3.047   1.405
 3507TIP3   OH210484   3.354   6.248   2.700
 3507TIP3    H110485   3.431   6.237   2.756
 3507TIP3    H210486   3.309   6.324   2.734
 3508TIP3   OH210487   5.731   4.727   3.737
 3508TIP3    H110488   5.642   4.729   3.703
 3508TIP3    H210489   5.761   4.638   3.723
 3509TIP3   OH210490   6.597   6.514   3.235
 3509TIP3    H110491   6.673   6.549   3.189
 3509TIP3    H210492   6.606   6.547   3.325
 3510TIP3   OH210493   6.541   0.484   5.084
 3510TIP3    H110494   6.471   0.515   5.027
 3510TIP3    H210495   6.621   0.514   5.043
 3511TIP3   OH210496   0.785   5.424   0.665
 3511TIP3    H110497   0.773   5.346   0.718
 3511TIP3    H210498   0.838   5.482   0.720
 3512TIP3   OH210499   4.133   4.473   1.662
 3512TIP3    H110500   4.147   4.395   1.609
 3512TIP3    H210501   4.070   4.445   1.729
 3513TIP3   OH210502   3.093   0.380   5.465
 3513TIP3    H110503   3.177   0.426   5.467
 3513TIP3    H210504   3.040   0.429   5.402
 3514TIP3   OH210505   1.180   0.072   5.353
 3514TIP3    H110506   1.087   0.074   5.329
 3514TIP3    H210507   1.217   0.148   5.308
 3515TIP3   OH210508   0.144   5.885   1.602
 3515TIP3    H110509   0.196   5.866   1.524
 3515TIP3    H210510   0.187   5.961   1.641
 3516TIP3   OH210511   5.485   1.314   1.481
 3516TIP3    H110512   5.483   1.408   1.497
 3516TIP3    H210513   5.573   1.298   1.445
 3517TIP3   OH210514   3.911   3.159   5.775
 3517TIP3    H110515   3.997   3.192   5.750
 3517TIP3    H210516   3.910   3.164   5.870
 3518TIP3   OH210517   5.061   4.105   4.018
 3518TIP3    H110518   4.985   4.156   3.992
 3518TIP3    H210519   5.112   4.165   4.073
 3519TIP3   OH210520   5.149   3.513   1.983
 3519TIP3    H110521   5.125   3.439   1.928
 3519TIP3    H210522   5.165   3.584   1.921
 3520TIP3   OH210523   4.937   1.684   3.761
 3520TIP3    H110524   4.976   1.743   3.825
 3520TIP3    H210525   5.007   1.624   3.737
 3521TIP3   OH210526   2.154   3.919   5.831
 3521TIP3    H110527   2.247   3.939   5.825
 3521TIP3    H210528   2.122   3.925   5.741
 3522TIP3   OH210529   2.326   3.647   2.686
 3522TIP3    H110530   2.246   3.598   2.669
 3522TIP3    H210531   2.394   3.600   2.637
 3523TIP3   OH210532   6.094   0.941   0.408
 3523TIP3    H110533   6.079   0.945   0.313
 3523TIP3    H210534   6.130   0.854   0.423
 3524TIP3   OH210535   0.655   3.269   3.357
 3524TIP3    H110536   0.642   3.193   3.301
 3524TIP3    H210537   0.623   3.343   3.304
 3525TIP3   OH210538   6.936   4.230   4.868
 3525TIP3    H110539   7.001   4.166   4.839
 3525TIP3    H210540   6.971   4.265   4.950
 3526TIP3   OH210541   0.596   6.138   5.262
 3526TIP3    H110542   0.569   6.083   5.188
 3526TIP3    H210543   0.581   6.227   5.231
 3527TIP3   OH210544   0.976   2.853   5.608
 3527TIP3    H110545   1.017   2.826   5.690
 3527TIP3    H210546   0.902   2.907   5.635
 3528TIP3   OH210547   2.347   4.278   2.294
 3528TIP3    H110548   2.320   4.353   2.348
 3528TIP3    H210549   2.337   4.308   2.204
 3529TIP3   OH210550   5.325   1.666   3.575
 3529TIP3    H110551   5.378   1.679   3.496
 3529TIP3    H210552   5.239   1.700   3.553
 3530TIP3   OH210553   5.437   6.695   4.800
 3530TIP3    H110554   5.471   6.724   4.716
 3530TIP3    H210555   5.490   6.741   4.865
 3531TIP3   OH210556   7.193   2.326   1.563
 3531TIP3    H110557   7.109   2.306   1.605
 3531TIP3    H210558   7.171   2.346   1.473
 3532TIP3   OH210559   4.109   5.193   1.311
 3532TIP3    H110560   4.125   5.100   1.327
 3532TIP3    H210561   4.053   5.195   1.233
 3533TIP3   OH210562   6.808   3.009   0.975
 3533TIP3    H110563   6.861   2.985   1.051
 3533TIP3    H210564   6.776   2.925   0.940
 3534TIP3   OH210565   0.403   5.401   5.555
 3534TIP3    H110566   0.434   5.333   5.496
 3534TIP3    H210567   0.357   5.354   5.625
 3535TIP3   OH210568   4.864   4.087   2.851
 3535TIP3    H110569   4.833   4.167   2.895
 3535TIP3    H210570   4.886   4.116   2.763
 3536TIP3   OH210571   1.365   3.547   5.197
 3536TIP3    H110572   1.335   3.616   5.138
 3536TIP3    H210573   1.460   3.558   5.202
 3537TIP3   OH210574   6.184   1.038   5.341
 3537TIP3    H110575   6.237   1.090   5.402
 3537TIP3    H210576   6.245   0.974   5.305
 3538TIP3   OH210577   3.386   3.832   4.921
 3538TIP3    H110578   3.443   3.887   4.974
 3538TIP3    H210579   3.433   3.823   4.838
 3539TIP3   OH210580   2.027   3.626   5.874
 3539TIP3    H110581   2.050   3.715   5.846
 3539TIP3    H210582   1.986   3.587   5.796
 3540TIP3   OH210583   3.175   2.807   1.144
 3540TIP3    H110584   3.145   2.732   1.093
 3540TIP3    H210585   3.103   2.825   1.205
 3541TIP3   OH210586   2.087   3.325   1.173
 3541TIP3    H110587   2.142   3.251   1.201
 3541TIP3    H210588   2.148   3.399   1.169
 3542TIP3   OH210589   3.693   0.475   1.119
 3542TIP3    H110590   3.653   0.464   1.033
 3542TIP3    H210591   3.649   0.552   1.156
 3543TIP3   OH210592   0.860   0.565   3.785
 3543TIP3    H110593   0.835   0.517   3.863
 3543TIP3    H210594   0.777   0.592   3.744
 3544TIP3   OH210595   2.908   5.305   1.221
 3544TIP3    H110596   2.846   5.360   1.173
 3544TIP3    H210597   2.868   5.218   1.220
 3545TIP3   OH210598   3.679   5.433   1.779
 3545TIP3    H110599   3.654   5.367   1.715
 3545TIP3    H210600   3.607   5.496   1.778
 3546TIP3   OH210601   5.257   2.806   1.483
 3546TIP3    H110602   5.216   2.891   1.500
 3546TIP3    H210603   5.245   2.758   1.564
 3547TIP3   OH210604   5.551   2.785   2.266
 3547TIP3    H110605   5.646   2.791   2.260
 3547TIP3    H210606   5.520   2.791   2.176
 3548TIP3   OH210607   3.910   1.361   2.783
 3548TIP3    H110608   3.875   1.272   2.781
 3548TIP3    H210609   3.904   1.387   2.875
 3549TIP3   OH210610   0.825   2.480   3.469
 3549TIP3    H110611   0.788   2.415   3.530
 3549TIP3    H210612   0.759   2.488   3.400
 3550TIP3   OH210613   2.239   5.862   4.890
 3550TIP3    H110614   2.329   5.831   4.894
 3550TIP3    H210615   2.187   5.791   4.930
 3551TIP3   OH210616   4.176   1.930   5.742
 3551TIP3    H110617   4.255   1.919   5.796
 3551TIP3    H210618   4.209   1.948   5.654
 3552TIP3   OH210619   5.743   2.760   3.213
 3552TIP3    H110620   5.685   2.801   3.278
 3552TIP3    H210621   5.694   2.764   3.131
 3553TIP3   OH210622   1.442   3.943   0.482
 3553TIP3    H110623   1.352   3.960   0.511
 3553TIP3    H210624   1.444   3.976   0.392
 3554TIP3   OH210625   6.448   2.236   2.557
 3554TIP3    H110626   6.484   2.218   2.644
 3554TIP3    H210627   6.498   2.311   2.526
 3555TIP3   OH210628   4.100   5.409   4.830
 3555TIP3    H110629   4.062   5.469   4.766
 3555TIP3    H210630   4.191   5.437   4.839
 3556TIP3   OH210631   5.520   3.764   2.924
 3556TIP3    H110632   5.519   3.671   2.903
 3556TIP3    H210633   5.604   3.796   2.889
 3557TIP3   OH210634   1.575  -0.010   2.734
 3557TIP3    H110635   1.534   0.063   2.688
 3557TIP3    H210636   1.573   0.015   2.827
 3558TIP3   OH210637   4.550   4.028   5.204
 3558TIP3    H110638   4.523   3.951   5.153
 3558TIP3    H210639   4.532   4.004   5.295
 3559TIP3   OH210640   3.152   3.349   3.583
 3559TIP3    H110641   3.151   3.434   3.626
 3559TIP3    H210642   3.215   3.297   3.632
 3560TIP3   OH210643   2.079   0.627   2.958
 3560TIP3    H110644   2.163   0.648   2.917
 3560TIP3    H210645   2.017   0.690   2.919
 3561TIP3   OH210646   6.973   1.820   2.716
 3561TIP3    H110647   7.023   1.860   2.788
 3561TIP3    H210648   7.008   1.731   2.709
 3562TIP3   OH210649   5.790   1.447   0.266
 3562TIP3    H110650   5.841   1.412   0.192
 3562TIP3    H210651   5.791   1.542   0.253
 3563TIP3   OH210652   4.131   6.739   4.380
 3563TIP3    H110653   4.044   6.717   4.345
 3563TIP3    H210654   4.182   6.659   4.369
 3564TIP3   OH210655   2.150   5.142   3.350
 3564TIP3    H110656   2.057   5.163   3.351
 3564TIP3    H210657   2.179   5.169   3.262
 3565TIP3   OH210658   4.731   4.474   5.745
 3565TIP3    H110659   4.638   4.462   5.765
 3565TIP3    H210660   4.733   4.505   5.654
 3566TIP3   OH210661   0.099   6.178   0.112
 3566TIP3    H110662   0.171   6.180   0.175
 3566TIP3    H210663   0.041   6.109   0.143
 3567TIP3   OH210664   7.249   1.330   0.357
 3567TIP3    H110665   7.176   1.385   0.383
 3567TIP3    H210666   7.210   1.244   0.340
 3568TIP3   OH210667   4.228   2.558   0.226
 3568TIP3    H110668   4.254   2.635   0.176
 3568TIP3    H210669   4.194   2.593   0.309
 3569TIP3   OH210670   3.361   4.498   1.889
 3569TIP3    H110671   3.425   4.563   1.917
 3569TIP3    H210672   3.355   4.438   1.964
 3570TIP3   OH210673   0.496   0.953   4.011
 3570TIP3    H110674   0.583   0.959   4.049
 3570TIP3    H210675   0.472   1.043   3.990
 3571TIP3   OH210676   3.198   1.525   5.298
 3571TIP3    H110677   3.251   1.512   5.377
 3571TIP3    H210678   3.234   1.464   5.234
 3572TIP3   OH210679   3.116   6.015   3.684
 3572TIP3    H110680   3.142   5.923   3.682
 3572TIP3    H210681   3.029   6.014   3.724
 3573TIP3   OH210682   1.737   4.011   5.312
 3573TIP3    H110683   1.830   4.036   5.305
 3573TIP3    H210684   1.693   4.091   5.338
 3574TIP3   OH210685   3.888   5.567   1.624
 3574TIP3    H110686   3.823   5.505   1.656
 3574TIP3    H210687   3.913   5.617   1.702
 3575TIP3   OH210688   0.689   4.407   3.193
 3575TIP3    H110689   0.754   4.475   3.174
 3575TIP3    H210690   0.606   4.445   3.163
 3576TIP3   OH210691   1.346   6.238   4.955
 3576TIP3    H110692   1.334   6.209   4.864
 3576TIP3    H210693   1.258   6.261   4.984
 3577TIP3   OH210694   1.037   0.856   4.300
 3577TIP3    H110695   1.014   0.827   4.212
 3577TIP3    H210696   0.987   0.800   4.358
 3578TIP3   OH210697   0.065   1.534   2.902
 3578TIP3    H110698   0.080   1.613   2.954
 3578TIP3    H210699   0.018   1.476   2.962
 3579TIP3   OH210700   4.520   6.612   2.813
 3579TIP3    H110701   4.427   6.591   2.809
 3579TIP3    H210702   4.528   6.677   2.883
 3580TIP3   OH210703   0.597   1.050   1.940
 3580TIP3    H110704   0.686   1.076   1.916
 3580TIP3    H210705   0.563   1.005   1.863
 3581TIP3   OH210706   6.905   1.611   3.023
 3581TIP3    H110707   6.870   1.522   3.035
 3581TIP3    H210708   6.931   1.614   2.931
 3582TIP3   OH210709   5.218   1.814   0.770
 3582TIP3    H110710   5.127   1.822   0.799
 3582TIP3    H210711   5.218   1.845   0.679
 3583TIP3   OH210712   0.241   0.614   0.929
 3583TIP3    H110713   0.323   0.624   0.978
 3583TIP3    H210714   0.212   0.704   0.913
 3584TIP3   OH210715   5.858   1.942   2.432
 3584TIP3    H110716   5.880   1.849   2.431
 3584TIP3    H210717   5.941   1.986   2.415
 3585TIP3   OH210718   6.589   6.460   1.037
 3585TIP3    H110719   6.502   6.429   1.065
 3585TIP3    H210720   6.580   6.476   0.943
 3586TIP3   OH210721   0.043   6.651   0.187
 3586TIP3    H110722   0.104   6.721   0.166
 3586TIP3    H210723  -0.037   6.696   0.214
 3587TIP3   OH210724   6.016   4.397   5.640
 3587TIP3    H110725   5.965   4.415   5.720
 3587TIP3    H210726   6.099   4.361   5.673
 3588TIP3   OH210727   4.441   2.227   4.762
 3588TIP3    H110728   4.367   2.171   4.787
 3588TIP3    H210729   4.407   2.316   4.768
 3589TIP3   OH210730   3.753   2.423   2.092
 3589TIP3    H110731   3.694   2.410   2.017
 3589TIP3    H210732   3.713   2.373   2.163
 3590TIP3   OH210733   0.188   1.499   1.783
 3590TIP3    H110734   0.133   1.564   1.738
 3590TIP3    H210735   0.271   1.543   1.799
 3591TIP3   OH210736   5.954   5.500   0.433
 3591TIP3    H110737   5.877   5.469   0.386
 3591TIP3    H210738   5.936   5.481   0.525
 3592TIP3   OH210739   6.961   3.753   5.562
 3592TIP3    H110740   6.927   3.842   5.570
 3592TIP3    H210741   6.911   3.703   5.628
 3593TIP3   OH210742   1.973   2.812   2.080
 3593TIP3    H110743   1.951   2.764   2.160
 3593TIP3    H210744   1.893   2.861   2.059
 3594TIP3   OH210745   2.278   1.675   4.551
 3594TIP3    H110746   2.232   1.759   4.546
 3594TIP3    H210747   2.264   1.635   4.465
 3595TIP3   OH210748   6.837   5.612   4.970
 3595TIP3    H110749   6.818   5.582   4.881
 3595TIP3    H210750   6.836   5.533   5.023
 3596TIP3   OH210751   2.926   5.513   5.791
 3596TIP3    H110752   2.898   5.528   5.881
 3596TIP3    H210753   3.015   5.548   5.788
 3597TIP3   OH210754   3.501   6.505   3.912
 3597TIP3    H110755   3.409   6.481   3.925
 3597TIP3    H210756   3.510   6.591   3.953
 3598TIP3   OH210757   4.368   5.741   4.621
 3598TIP3    H110758   4.365   5.801   4.546
 3598TIP3    H210759   4.301   5.675   4.602
 3599TIP3   OH210760   1.184   2.876   1.909
 3599TIP3    H110761   1.102   2.858   1.955
 3599TIP3    H210762   1.193   2.971   1.911
 3600TIP3   OH210763   1.686   3.213   2.532
 3600TIP3    H110764   1.649   3.243   2.448
 3600TIP3    H210765   1.774   3.250   2.534
 3601TIP3   OH210766   1.447   2.814   1.942
 3601TIP3    H110767   1.460   2.800   2.035
 3601TIP3    H210768   1.363   2.859   1.936
 3602TIP3   OH210769   0.288   5.667   0.186
 3602TIP3    H110770   0.234   5.675   0.265
 3602TIP3    H210771   0.227   5.633   0.120
 3603TIP3   OH210772   7.022   0.857   1.564
 3603TIP3    H110773   7.051   0.947   1.575
 3603TIP3    H210774   6.981   0.834   1.648
 3604TIP3   OH210775   1.388   3.177   2.783
 3604TIP3    H110776   1.353   3.174   2.694
 3604TIP3    H210777   1.454   3.247   2.781
 3605TIP3   OH210778   6.235   3.721   2.704
 3605TIP3    H110779   6.191   3.792   2.658
 3605TIP3    H210780   6.264   3.760   2.786
 3606TIP3   OH210781   5.197   1.295   1.413
 3606TIP3    H110782   5.287   1.276   1.439
 3606TIP3    H210783   5.184   1.245   1.332
 3607TIP3   OH210784   2.277   1.737   1.293
 3607TIP3    H110785   2.277   1.832   1.287
 3607TIP3    H210786   2.199   1.710   1.244
 3608TIP3   OH210787   2.339   0.564   2.818
 3608TIP3    H110788   2.368   0.511   2.743
 3608TIP3    H210789   2.392   0.533   2.891
 3609TIP3   OH210790   6.775   1.364   5.606
 3609TIP3    H110791   6.721   1.341   5.530
 3609TIP3    H210792   6.858   1.318   5.590
 3610TIP3   OH210793   2.846   1.580   4.711
 3610TIP3    H110794   2.879   1.548   4.627
 3610TIP3    H210795   2.776   1.519   4.734
 3611TIP3   OH210796   6.574   0.038   1.856
 3611TIP3    H110797   6.579  -0.030   1.924
 3611TIP3    H210798   6.596  -0.008   1.775
 3612TIP3   OH210799   5.801   1.027   4.997
 3612TIP3    H110800   5.764   1.109   4.964
 3612TIP3    H210801   5.886   1.053   5.034
 3613TIP3   OH210802   6.431   6.445   5.107
 3613TIP3    H110803   6.425   6.351   5.092
 3613TIP3    H210804   6.366   6.463   5.175
 3614TIP3   OH210805   0.733   4.278   3.970
 3614TIP3    H110806   0.773   4.227   3.900
 3614TIP3    H210807   0.756   4.232   4.051
 3615TIP3   OH210808   3.911   4.273   4.776
 3615TIP3    H110809   3.843   4.213   4.744
 3615TIP3    H210810   3.959   4.222   4.841
 3616TIP3   OH210811   4.413   5.467   4.260
 3616TIP3    H110812   4.372   5.513   4.187
 3616TIP3    H210813   4.499   5.508   4.269
 3617TIP3   OH210814   1.166   1.801   3.000
 3617TIP3    H110815   1.077   1.823   2.973
 3617TIP3    H210816   1.197   1.879   3.046
 3618TIP3   OH210817   4.985   0.419   0.187
 3618TIP3    H110818   5.065   0.381   0.152
 3618TIP3    H210819   4.915   0.386   0.131
 3619TIP3   OH210820   6.104   1.945   1.585
 3619TIP3    H110821   6.133   1.943   1.494
 3619TIP3    H210822   6.180   1.913   1.634
 3620TIP3   OH210823   4.792   5.603   1.012
 3620TIP3    H110824   4.799   5.620   1.106
 3620TIP3    H210825   4.771   5.688   0.974
 3621TIP3   OH210826   3.464   6.026   1.115
 3621TIP3    H110827   3.448   6.115   1.085
 3621TIP3    H210828   3.510   5.984   1.043
 3622TIP3   OH210829   6.831   6.495   1.400
 3622TIP3    H110830   6.747   6.540   1.395
 3622TIP3    H210831   6.855   6.498   1.493
 3623TIP3   OH210832   2.586   1.066   0.759
 3623TIP3    H110833   2.574   1.087   0.667
 3623TIP3    H210834   2.642   1.137   0.792
 3624TIP3   OH210835  -0.024   0.373   3.443
 3624TIP3    H110836  -0.021   0.285   3.482
 3624TIP3    H210837   0.047   0.372   3.378
 3625TIP3   OH210838   7.027   3.795   5.301
 3625TIP3    H110839   7.054   3.880   5.338
 3625TIP3    H210840   7.017   3.738   5.376
 3626TIP3   OH210841   4.076   5.846   4.523
 3626TIP3    H110842   4.160   5.886   4.500
 3626TIP3    H210843   4.075   5.763   4.474
 3627TIP3   OH210844   3.354   2.308   4.076
 3627TIP3    H110845   3.302   2.360   4.015
 3627TIP3    H210846   3.327   2.338   4.163
 3628TIP3   OH210847   3.784   2.146   3.766
 3628TIP3    H110848   3.744   2.145   3.852
 3628TIP3    H210849   3.878   2.149   3.783
 3629TIP3   OH210850   2.044   4.931   3.503
 3629TIP3    H110851   1.983   4.885   3.445
 3629TIP3    H210852   2.055   5.018   3.463
 3630TIP3   OH210853   6.891   3.025   4.492
 3630TIP3    H110854   6.980   3.059   4.495
 3630TIP3    H210855   6.859   3.049   4.405
 3631TIP3   OH210856   6.877   1.427   2.499
 3631TIP3    H110857   6.854   1.476   2.419
 3631TIP3    H210858   6.806   1.364   2.510
 3632TIP3   OH210859   0.310   2.240   5.141
 3632TIP3    H110860   0.363   2.291   5.079
 3632TIP3    H210861   0.374   2.186   5.187
 3633TIP3   OH210862   3.068   6.528   5.526
 3633TIP3    H110863   3.113   6.536   5.442
 3633TIP3    H210864   3.021   6.445   5.520
 3634TIP3   OH210865   0.648   5.479   2.885
 3634TIP3    H110866   0.621   5.526   2.964
 3634TIP3    H210867   0.741   5.459   2.901
 3635TIP3   OH210868   0.050   3.370   4.107
 3635TIP3    H110869   0.068   3.295   4.164
 3635TIP3    H210870   0.094   3.347   4.025
 3636TIP3   OH210871   5.086   3.090   2.435
 3636TIP3    H110872   5.094   3.184   2.449
 3636TIP3    H210873   5.171   3.063   2.401
 3637TIP3   OH210874   0.919   0.190   0.057
 3637TIP3    H110875   0.877   0.143  -0.015
 3637TIP3    H210876   0.847   0.219   0.112
 3638TIP3   OH210877   5.392   5.252   5.494
 3638TIP3    H110878   5.477   5.296   5.497
 3638TIP3    H210879   5.412   5.160   5.509
 3639TIP3   OH210880   4.964   5.199   3.974
 3639TIP3    H110881   5.001   5.115   3.947
 3639TIP3    H210882   4.897   5.175   4.039
 3640TIP3   OH210883   0.812   4.094   0.681
 3640TIP3    H110884   0.852   4.064   0.600
 3640TIP3    H210885   0.845   4.183   0.693
 3641TIP3   OH210886   4.342   2.365   3.669
 3641TIP3    H110887   4.252   2.369   3.701
 3641TIP3    H210888   4.363   2.272   3.667
 3642TIP3   OH210889   6.488   1.508   2.092
 3642TIP3    H110890   6.476   1.575   2.159
 3642TIP3    H210891   6.494   1.557   2.010
 3643TIP3   OH210892   4.752   1.590   0.505
 3643TIP3    H110893   4.705   1.580   0.587
 3643TIP3    H210894   4.840   1.616   0.531
 3644TIP3   OH210895   2.899   2.751   1.909
 3644TIP3    H110896   2.934   2.800   1.835
 3644TIP3    H210897   2.967   2.758   1.976
 3645TIP3   OH210898   2.430   1.910   0.068
 3645TIP3    H110899   2.498   1.868   0.015
 3645TIP3    H210900   2.364   1.938   0.004
 3646TIP3   OH210901   1.458   5.028   5.250
 3646TIP3    H110902   1.508   5.076   5.316
 3646TIP3    H210903   1.463   4.937   5.277
 3647TIP3   OH210904   5.957   4.296   2.777
 3647TIP3    H110905   6.023   4.282   2.845
 3647TIP3    H210906   5.983   4.378   2.735
 3648TIP3   OH210907   6.375   1.143   2.313
 3648TIP3    H110908   6.466   1.161   2.290
 3648TIP3    H210909   6.380   1.089   2.393
 3649TIP3   OH210910   2.821   0.754   5.293
 3649TIP3    H110911   2.750   0.791   5.346
 3649TIP3    H210912   2.804   0.784   5.204
 3650TIP3   OH210913   5.590   4.707   5.371
 3650TIP3    H110914   5.539   4.785   5.393
 3650TIP3    H210915   5.654   4.737   5.307
 3651TIP3   OH210916   2.971   5.211   5.929
 3651TIP3    H110917   2.892   5.261   5.945
 3651TIP3    H210918   2.970   5.192   5.836
 3652TIP3   OH210919   3.532   1.290   1.795
 3652TIP3    H110920   3.625   1.268   1.792
 3652TIP3    H210921   3.496   1.252   1.715
 3653TIP3   OH210922   7.152   1.802   1.995
 3653TIP3    H110923   7.156   1.822   2.089
 3653TIP3    H210924   7.095   1.870   1.958
 3654TIP3   OH210925   2.426   3.068   3.551
 3654TIP3    H110926   2.410   2.990   3.603
 3654TIP3    H210927   2.348   3.077   3.496
 3655TIP3   OH210928   4.146   5.304   3.324
 3655TIP3    H110929   4.141   5.220   3.369
 3655TIP3    H210930   4.123   5.285   3.233
 3656TIP3   OH210931   2.343   2.451   5.021
 3656TIP3    H110932   2.283   2.525   5.021
 3656TIP3    H210933   2.421   2.484   4.975
 3657TIP3   OH210934   5.330   1.944   4.119
 3657TIP3    H110935   5.375   1.865   4.089
 3657TIP3    H210936   5.342   2.007   4.048
 3658TIP3   OH210937   0.144   2.572   3.637
 3658TIP3    H110938   0.086   2.532   3.573
 3658TIP3    H210939   0.095   2.568   3.720
 3659TIP3   OH210940   2.612   0.523   3.982
 3659TIP3    H110941   2.664   0.530   4.062
 3659TIP3    H210942   2.657   0.459   3.929
 3660TIP3   OH210943   5.929   0.217   0.685
 3660TIP3    H110944   5.925   0.211   0.589
 3660TIP3    H210945   6.022   0.211   0.705
 3661TIP3   OH210946   0.903   6.612   1.921
 3661TIP3    H110947   0.820   6.575   1.891
 3661TIP3    H210948   0.967   6.543   1.906
 3662TIP3   OH210949  -0.011   5.317   3.368
 3662TIP3    H110950   0.066   5.260   3.364
 3662TIP3    H210951  -0.061   5.294   3.290
 3663TIP3   OH210952   1.891   1.261   4.313
 3663TIP3    H110953   1.963   1.313   4.349
 3663TIP3    H210954   1.812   1.300   4.351
 3664TIP3   OH210955   5.967   5.920   5.335
 3664TIP3    H110956   5.887   5.874   5.311
 3664TIP3    H210957   6.019   5.856   5.383
 3665TIP3   OH210958   4.139   6.619   2.010
 3665TIP3    H110959   4.062   6.565   2.027
 3665TIP3    H210960   4.211   6.557   2.005
 3666TIP3   OH210961   2.954   3.949   3.822
 3666TIP3    H110962   2.930   4.040   3.842
 3666TIP3    H210963   2.884   3.918   3.764
 3667TIP3   OH210964   4.023   0.423   0.264
 3667TIP3    H110965   3.938   0.435   0.222
 3667TIP3    H210966   4.045   0.509   0.299
 3668TIP3   OH210967   5.285   3.497   2.769
 3668TIP3    H110968   5.309   3.521   2.858
 3668TIP3    H210969   5.195   3.466   2.776
 3669TIP3   OH210970   0.391   3.439   0.586
 3669TIP3    H110971   0.467   3.467   0.534
 3669TIP3    H210972   0.316   3.473   0.538
 3670TIP3   OH210973   2.305   1.903   4.968
 3670TIP3    H110974   2.281   1.996   4.966
 3670TIP3    H210975   2.258   1.868   5.043
 3671TIP3   OH210976   5.154   1.977   4.916
 3671TIP3    H110977   5.064   2.001   4.938
 3671TIP3    H210978   5.146   1.925   4.836
 3672TIP3   OH210979   2.318   1.211   5.791
 3672TIP3    H110980   2.278   1.218   5.877
 3672TIP3    H210981   2.412   1.197   5.808
 3673TIP3   OH210982   2.568   3.900   4.359
 3673TIP3    H110983   2.590   3.880   4.450
 3673TIP3    H210984   2.640   3.863   4.308
 3674TIP3   OH210985   2.848   0.674   2.199
 3674TIP3    H110986   2.839   0.761   2.238
 3674TIP3    H210987   2.907   0.687   2.125
 3675TIP3   OH210988   3.507   1.776   4.899
 3675TIP3    H110989   3.513   1.710   4.830
 3675TIP3    H210990   3.483   1.726   4.978
 3676TIP3   OH210991   1.714  -0.001   3.016
 3676TIP3    H110992   1.809  -0.008   3.011
 3676TIP3    H210993   1.698   0.074   3.073
 3677TIP3   OH210994   1.315   4.962   1.744
 3677TIP3    H110995   1.227   4.943   1.711
 3677TIP3    H210996   1.358   5.007   1.672
 3678TIP3   OH210997   6.429   6.655   2.396
 3678TIP3    H110998   6.520   6.630   2.414
 3678TIP3    H210999   6.398   6.588   2.336
 3679TIP3   OH211000   1.372   4.448   5.823
 3679TIP3    H111001   1.449   4.410   5.782
 3679TIP3    H211002   1.393   4.541   5.831
 3680TIP3   OH211003   6.300   0.623   1.248
 3680TIP3    H111004   6.263   0.645   1.162
 3680TIP3    H211005   6.247   0.674   1.310
 3681TIP3   OH211006   3.519   6.029   1.677
 3681TIP3    H111007   3.590   6.030   1.613
 3681TIP3    H211008   3.440   6.014   1.626
 3682TIP3   OH211009   3.322   2.969   5.898
 3682TIP3    H111010   3.288   3.003   5.981
 3682TIP3    H211011   3.253   2.912   5.865
 3683TIP3   OH211012   0.942   6.290   5.634
 3683TIP3    H111013   0.913   6.198   5.638
 3683TIP3    H211014   0.864   6.339   5.613
 3684TIP3   OH211015   4.667   1.886   4.317
 3684TIP3    H111016   4.665   1.982   4.321
 3684TIP3    H211017   4.666   1.865   4.224
 3685TIP3   OH211018   3.753   1.329   4.813
 3685TIP3    H111019   3.822   1.278   4.857
 3685TIP3    H211020   3.703   1.368   4.884
 3686TIP3   OH211021   0.838   1.606   5.032
 3686TIP3    H111022   0.831   1.700   5.049
 3686TIP3    H211023   0.850   1.567   5.119
 3687TIP3   OH211024   0.000   0.782   5.706
 3687TIP3    H111025   0.065   0.760   5.640
 3687TIP3    H211026   0.033   0.862   5.747
 3688TIP3   OH211027   5.529   1.539   0.298
 3688TIP3    H111028   5.607   1.510   0.251
 3688TIP3    H211029   5.550   1.525   0.391
 3689TIP3   OH211030   3.441   2.563   2.176
 3689TIP3    H111031   3.530   2.577   2.143
 3689TIP3    H211032   3.430   2.632   2.241
 3690TIP3   OH211033   5.147   6.256   0.711
 3690TIP3    H111034   5.094   6.335   0.712
 3690TIP3    H211035   5.172   6.243   0.803
 3691TIP3   OH211036   3.349   4.214   0.572
 3691TIP3    H111037   3.331   4.236   0.663
 3691TIP3    H211038   3.279   4.154   0.547
 3692TIP3   OH211039   7.128   5.675   2.738
 3692TIP3    H111040   7.071   5.693   2.663
 3692TIP3    H211041   7.211   5.649   2.700
 3693TIP3   OH211042   3.866   0.797   3.441
 3693TIP3    H111043   3.891   0.886   3.420
 3693TIP3    H211044   3.771   0.802   3.457
 3694TIP3   OH211045   1.830   1.624   0.045
 3694TIP3    H111046   1.878   1.580  -0.024
 3694TIP3    H211047   1.880   1.606   0.125
 3695TIP3   OH211048   5.985   3.908   5.298
 3695TIP3    H111049   5.945   3.868   5.375
 3695TIP3    H211050   5.916   3.910   5.233
 3696TIP3   OH211051   5.557   1.498   4.636
 3696TIP3    H111052   5.623   1.530   4.697
 3696TIP3    H211053   5.476   1.493   4.687
 3697TIP3   OH211054   3.617   0.386   4.793
 3697TIP3    H111055   3.616   0.318   4.726
 3697TIP3    H211056   3.659   0.461   4.751
 3698TIP3   OH211057   6.948   4.868   5.485
 3698TIP3    H111058   6.966   4.924   5.410
 3698TIP3    H211059   6.913   4.928   5.551
 3699TIP3   OH211060   0.762   5.249  -0.032
 3699TIP3    H111061   0.803   5.211  -0.110
 3699TIP3    H211062   0.746   5.175   0.026
 3700TIP3   OH211063   3.390   4.498   1.580
 3700TIP3    H111064   3.345   4.486   1.664
 3700TIP3    H211065   3.412   4.410   1.551
 3701TIP3   OH211066   1.973   4.692   2.337
 3701TIP3    H111067   1.940   4.656   2.420
 3701TIP3    H211068   1.911   4.660   2.271
 3702TIP3   OH211069   1.069   4.145   3.146
 3702TIP3    H111070   0.996   4.088   3.120
 3702TIP3    H211071   1.057   4.224   3.093
 3703TIP3   OH211072   1.831   5.433   2.018
 3703TIP3    H111073   1.892   5.375   1.972
 3703TIP3    H211074   1.883   5.469   2.091
 3704TIP3   OH211075   3.815   3.645   2.630
 3704TIP3    H111076   3.877   3.671   2.562
 3704TIP3    H211077   3.753   3.718   2.636
 3705TIP3   OH211078   6.755   1.071   0.634
 3705TIP3    H111079   6.712   1.009   0.576
 3705TIP3    H211080   6.847   1.068   0.609
 3706TIP3   OH211081   6.090   0.870   4.342
 3706TIP3    H111082   6.040   0.788   4.343
 3706TIP3    H211083   6.029   0.935   4.307
 3707TIP3   OH211084   4.526   3.448   3.556
 3707TIP3    H111085   4.476   3.371   3.528
 3707TIP3    H211086   4.463   3.519   3.557
 3708TIP3   OH211087   4.067   1.500   0.159
 3708TIP3    H111088   4.152   1.473   0.193
 3708TIP3    H211089   4.061   1.459   0.072
 3709TIP3   OH211090   1.590   4.880   1.967
 3709TIP3    H111091   1.552   4.948   2.023
 3709TIP3    H211092   1.610   4.925   1.885
 3710TIP3   OH211093   6.192   0.526   2.617
 3710TIP3    H111094   6.196   0.622   2.623
 3710TIP3    H211095   6.169   0.510   2.525
 3711TIP3   OH211096   0.140   2.630   3.353
 3711TIP3    H111097   0.155   2.693   3.423
 3711TIP3    H211098   0.051   2.649   3.322
 3712TIP3   OH211099   2.745   5.774   4.351
 3712TIP3    H111100   2.721   5.792   4.260
 3712TIP3    H211101   2.688   5.831   4.402
 3713TIP3   OH211102   4.670   6.103   0.767
 3713TIP3    H111103   4.756   6.062   0.772
 3713TIP3    H211104   4.653   6.111   0.673
 3714TIP3   OH211105   4.111   6.263   4.991
 3714TIP3    H111106   4.043   6.330   4.984
 3714TIP3    H211107   4.063   6.181   5.001
 3715TIP3   OH211108   4.037   3.713   4.791
 3715TIP3    H111109   4.076   3.711   4.878
 3715TIP3    H211110   4.098   3.665   4.735
 3716TIP3   OH211111   2.028   2.438   2.555
 3716TIP3    H111112   2.055   2.369   2.617
 3716TIP3    H211113   2.028   2.395   2.470
 3717TIP3   OH211114   0.423   3.702   4.245
 3717TIP3    H111115   0.449   3.610   4.234
 3717TIP3    H211116   0.335   3.707   4.207
 3718TIP3   OH211117   3.280   4.477   4.672
 3718TIP3    H111118   3.211   4.417   4.644
 3718TIP3    H211119   3.308   4.520   4.591
 3719TIP3   OH211120   2.767   1.495   5.056
 3719TIP3    H111121   2.722   1.411   5.049
 3719TIP3    H211122   2.705   1.558   5.020
 3720TIP3   OH211123   2.022   2.383   4.490
 3720TIP3    H111124   2.062   2.399   4.576
 3720TIP3    H211125   1.928   2.383   4.506
 3721TIP3   OH211126   4.948   1.473   3.969
 3721TIP3    H111127   4.898   1.395   3.995
 3721TIP3    H211128   4.883   1.543   3.966
 3722TIP3   OH211129   0.562   0.383   4.599
 3722TIP3    H111130   0.525   0.295   4.597
 3722TIP3    H211131   0.539   0.418   4.685
 3723TIP3   OH211132   5.737   1.026   3.205
 3723TIP3    H111133   5.801   0.954   3.211
 3723TIP3    H211134   5.781   1.100   3.246
 3724TIP3   OH211135   0.911   1.147   0.140
 3724TIP3    H111136   0.888   1.228   0.184
 3724TIP3    H211137   0.967   1.174   0.067
 3725TIP3   OH211138   4.282   5.728   4.879
 3725TIP3    H111139   4.301   5.744   4.786
 3725TIP3    H211140   4.292   5.633   4.889
 3726TIP3   OH211141   3.158   6.290   3.159
 3726TIP3    H111142   3.206   6.361   3.200
 3726TIP3    H211143   3.077   6.283   3.210
 3727TIP3   OH211144   6.524   1.587   5.416
 3727TIP3    H111145   6.616   1.614   5.405
 3727TIP3    H211146   6.479   1.667   5.442
 3728TIP3   OH211147   5.032   5.017   2.197
 3728TIP3    H111148   4.965   4.960   2.158
 3728TIP3    H211149   5.106   4.959   2.215
 3729TIP3   OH211150   3.670   0.423   3.930
 3729TIP3    H111151   3.680   0.380   3.845
 3729TIP3    H211152   3.752   0.470   3.943
 3730TIP3   OH211153   7.097   2.693   3.292
 3730TIP3    H111154   7.019   2.748   3.297
 3730TIP3    H211155   7.066   2.610   3.256
 3731TIP3   OH211156   2.731   2.586   2.094
 3731TIP3    H111157   2.665   2.556   2.031
 3731TIP3    H211158   2.801   2.623   2.041
 3732TIP3   OH211159   4.079   1.917   4.680
 3732TIP3    H111160   4.097   1.886   4.592
 3732TIP3    H211161   3.990   1.888   4.699
 3733TIP3   OH211162   2.111   6.438   4.964
 3733TIP3    H111163   2.144   6.403   4.881
 3733TIP3    H211164   2.102   6.532   4.949
 3734TIP3   OH211165   2.314   2.654   5.490
 3734TIP3    H111166   2.296   2.564   5.516
 3734TIP3    H211167   2.239   2.704   5.523
 3735TIP3   OH211168   1.882   1.158   0.310
 3735TIP3    H111169   1.844   1.091   0.253
 3735TIP3    H211170   1.808   1.212   0.336
 3736TIP3   OH211171   6.235   1.359   2.148
 3736TIP3    H111172   6.277   1.289   2.198
 3736TIP3    H211173   6.308   1.409   2.111
 3737TIP3   OH211174   3.867   4.487   0.851
 3737TIP3    H111175   3.887   4.408   0.801
 3737TIP3    H211176   3.934   4.550   0.826
 3738TIP3   OH211177   4.476   4.667   4.407
 3738TIP3    H111178   4.538   4.598   4.434
 3738TIP3    H211179   4.393   4.621   4.394
 3739TIP3   OH211180   5.138   4.156   5.284
 3739TIP3    H111181   5.074   4.219   5.320
 3739TIP3    H211182   5.090   4.111   5.215
 3740TIP3   OH211183   1.944   5.861   3.323
 3740TIP3    H111184   1.947   5.891   3.232
 3740TIP3    H211185   1.880   5.790   3.323
 3741TIP3   OH211186   3.136   4.604   1.806
 3741TIP3    H111187   3.224   4.574   1.832
 3741TIP3    H211188   3.077   4.540   1.845
 3742TIP3   OH211189   0.615   5.961   3.281
 3742TIP3    H111190   0.677   5.929   3.347
 3742TIP3    H211191   0.642   5.918   3.200
 3743TIP3   OH211192   3.070   4.163   0.035
 3743TIP3    H111193   3.133   4.120  -0.022
 3743TIP3    H211194   3.019   4.219  -0.023
 3744TIP3   OH211195   5.745   3.425   4.801
 3744TIP3    H111196   5.707   3.339   4.818
 3744TIP3    H211197   5.769   3.422   4.708
 3745TIP3   OH211198   4.098   6.191   4.605
 3745TIP3    H111199   4.112   6.106   4.647
 3745TIP3    H211200   4.027   6.175   4.543
 3746TIP3   OH211201   5.043   5.276   1.568
 3746TIP3    H111202   5.104   5.295   1.497
 3746TIP3    H211203   5.097   5.283   1.647
 3747TIP3   OH211204   1.818   4.817   1.200
 3747TIP3    H111205   1.751   4.861   1.253
 3747TIP3    H211206   1.768   4.767   1.135
 3748TIP3   OH211207   2.273   3.147   3.823
 3748TIP3    H111208   2.180   3.128   3.829
 3748TIP3    H211209   2.287   3.174   3.732
 3749TIP3   OH211210   2.666   3.199   0.600
 3749TIP3    H111211   2.672   3.145   0.679
 3749TIP3    H211212   2.662   3.289   0.633
 3750TIP3   OH211213   5.009   3.837   0.980
 3750TIP3    H111214   4.992   3.831   0.886
 3750TIP3    H211215   4.946   3.902   1.011
 3751TIP3   OH211216   2.947   4.444   2.214
 3751TIP3    H111217   2.852   4.448   2.231
 3751TIP3    H211218   2.986   4.435   2.301
 3752TIP3   OH211219   1.149   1.016   1.101
 3752TIP3    H111220   1.190   1.077   1.040
 3752TIP3    H211221   1.219   0.958   1.128
 3753TIP3   OH211222   4.954   3.649   3.652
 3753TIP3    H111223   4.981   3.731   3.610
 3753TIP3    H211224   4.902   3.605   3.586
 3754TIP3   OH211225   1.220   6.308   0.045
 3754TIP3    H111226   1.215   6.327   0.138
 3754TIP3    H211227   1.307   6.272   0.031
 3755TIP3   OH211228   1.497   5.527   4.350
 3755TIP3    H111229   1.500   5.490   4.261
 3755TIP3    H211230   1.475   5.453   4.406
 3756TIP3   OH211231   6.362   5.083   0.279
 3756TIP3    H111232   6.448   5.120   0.302
 3756TIP3    H211233   6.372   5.055   0.189
 3757TIP3   OH211234   3.429   3.585   2.593
 3757TIP3    H111235   3.425   3.624   2.680
 3757TIP3    H211236   3.483   3.645   2.542
 3758TIP3   OH211237   6.511   1.795   2.919
 3758TIP3    H111238   6.523   1.707   2.955
 3758TIP3    H211239   6.584   1.807   2.858
 3759TIP3   OH211240   1.970   4.765   2.883
 3759TIP3    H111241   2.013   4.740   2.965
 3759TIP3    H211242   2.016   4.714   2.816
 3760TIP3   OH211243   1.416   4.492   4.809
 3760TIP3    H111244   1.431   4.579   4.773
 3760TIP3    H211245   1.420   4.433   4.733
 3761TIP3   OH211246   6.624   2.406   3.438
 3761TIP3    H111247   6.591   2.444   3.519
 3761TIP3    H211248   6.613   2.312   3.449
 3762TIP3   OH211249   5.777   0.297   0.492
 3762TIP3    H111250   5.688   0.320   0.464
 3762TIP3    H211251   5.809   0.375   0.538
 3763TIP3   OH211252   0.513   6.173   0.486
 3763TIP3    H111253   0.459   6.185   0.564
 3763TIP3    H211254   0.514   6.258   0.444
 3764TIP3   OH211255   0.315   0.064   1.356
 3764TIP3    H111256   0.334   0.137   1.415
 3764TIP3    H211257   0.325   0.101   1.269
 3765TIP3   OH211258   0.670   6.521   0.026
 3765TIP3    H111259   0.578   6.508   0.049
 3765TIP3    H211260   0.718   6.507   0.107
 3766TIP3   OH211261   5.900   1.239   0.425
 3766TIP3    H111262   5.841   1.303   0.385
 3766TIP3    H211263   5.858   1.154   0.410
 3767TIP3   OH211264   6.043   5.078   3.462
 3767TIP3    H111265   6.103   5.035   3.401
 3767TIP3    H211266   5.970   5.016   3.472
 3768TIP3   OH211267   0.559   6.588   5.483
 3768TIP3    H111268   0.628   6.633   5.434
 3768TIP3    H211269   0.484   6.647   5.479
 3769TIP3   OH211270   6.445   5.470   2.898
 3769TIP3    H111271   6.356   5.497   2.917
 3769TIP3    H211272   6.454   5.478   2.803
 3770TIP3   OH211273   5.682   6.092   2.360
 3770TIP3    H111274   5.597   6.050   2.347
 3770TIP3    H211275   5.733   6.029   2.410
 3771TIP3   OH211276   1.995   0.366   4.703
 3771TIP3    H111277   1.940   0.406   4.636
 3771TIP3    H211278   1.964   0.405   4.785
 3772TIP3   OH211279   4.406   3.934   5.442
 3772TIP3    H111280   4.435   3.858   5.392
 3772TIP3    H211281   4.427   3.913   5.533
 3773TIP3   OH211282   6.396   5.648   5.106
 3773TIP3    H111283   6.441   5.701   5.171
 3773TIP3    H211284   6.345   5.711   5.054
 3774TIP3   OH211285   4.374   1.631   1.765
 3774TIP3    H111286   4.343   1.626   1.855
 3774TIP3    H211287   4.349   1.718   1.736
 3775TIP3   OH211288   1.577   0.426   5.305
 3775TIP3    H111289   1.574   0.450   5.398
 3775TIP3    H211290   1.486   0.431   5.276
 3776TIP3   OH211291   6.828   1.163   4.148
 3776TIP3    H111292   6.749   1.211   4.123
 3776TIP3    H211293   6.885   1.229   4.187
 3777TIP3   OH211294   5.217   6.234   0.962
 3777TIP3    H111295   5.291   6.175   0.974
 3777TIP3    H211296   5.223   6.294   1.037
 3778TIP3   OH211297   1.692   5.757   3.840
 3778TIP3    H111298   1.745   5.729   3.765
 3778TIP3    H211299   1.754   5.765   3.912
 3779TIP3   OH211300   4.325   3.871   1.915
 3779TIP3    H111301   4.320   3.835   2.003
 3779TIP3    H211302   4.405   3.923   1.914
 3780TIP3   OH211303   2.519   2.419   4.229
 3780TIP3    H111304   2.520   2.512   4.205
 3780TIP3    H211305   2.449   2.412   4.294
 3781TIP3   OH211306   1.793   2.617   0.566
 3781TIP3    H111307   1.738   2.548   0.529
 3781TIP3    H211308   1.867   2.624   0.505
 3782TIP3   OH211309   0.731   3.779   5.253
 3782TIP3    H111310   0.771   3.695   5.276
 3782TIP3    H211311   0.639   3.770   5.280
 3783TIP3   OH211312   6.758   6.340   2.484
 3783TIP3    H111313   6.677   6.332   2.536
 3783TIP3    H211314   6.787   6.250   2.471
 3784TIP3   OH211315   2.209   0.470   4.440
 3784TIP3    H111316   2.264   0.412   4.387
 3784TIP3    H211317   2.122   0.431   4.435
 3785TIP3   OH211318   1.698   2.715   1.373
 3785TIP3    H111319   1.786   2.741   1.400
 3785TIP3    H211320   1.640   2.773   1.422
 3786TIP3   OH211321   7.148   0.261   4.166
 3786TIP3    H111322   7.210   0.292   4.231
 3786TIP3    H211323   7.063   0.267   4.209
 3787TIP3   OH211324   4.322   2.027   3.115
 3787TIP3    H111325   4.337   1.932   3.114
 3787TIP3    H211326   4.252   2.040   3.051
 3788TIP3   OH211327   3.172   4.503   3.309
 3788TIP3    H111328   3.247   4.517   3.251
 3788TIP3    H211329   3.130   4.588   3.315
 3789TIP3   OH211330   4.763   0.594   5.143
 3789TIP3    H111331   4.767   0.607   5.049
 3789TIP3    H211332   4.673   0.617   5.166
 3790TIP3   OH211333   1.373   4.291   0.962
 3790TIP3    H111334   1.283   4.266   0.980
 3790TIP3    H211335   1.418   4.284   1.047
 3791TIP3   OH211336   2.903   6.244   1.563
 3791TIP3    H111337   2.918   6.330   1.524
 3791TIP3    H211338   2.971   6.188   1.527
 3792TIP3   OH211339   2.038   0.361   2.867
 3792TIP3    H111340   2.057   0.452   2.892
 3792TIP3    H211341   1.946   0.363   2.840
 3793TIP3   OH211342   2.802   1.495   5.560
 3793TIP3    H111343   2.721   1.503   5.510
 3793TIP3    H211344   2.863   1.451   5.500
 3794TIP3   OH211345   3.057   5.971   5.381
 3794TIP3    H111346   3.151   5.985   5.378
 3794TIP3    H211347   3.034   5.938   5.294
 3795TIP3   OH211348   4.589   0.550   1.939
 3795TIP3    H111349   4.662   0.490   1.954
 3795TIP3    H211350   4.589   0.564   1.844
 3796TIP3   OH211351   6.074   3.797   3.666
 3796TIP3    H111352   6.086   3.885   3.700
 3796TIP3    H211353   5.983   3.775   3.687
 3797TIP3   OH211354   6.263   6.064   3.395
 3797TIP3    H111355   6.353   6.034   3.385
 3797TIP3    H211356   6.268   6.135   3.459
 3798TIP3   OH211357   5.162   0.266   5.557
 3798TIP3    H111358   5.224   0.245   5.488
 3798TIP3    H211359   5.217   0.283   5.634
 3799TIP3   OH211360   0.409   0.661   1.952
 3799TIP3    H111361   0.401   0.677   2.045
 3799TIP3    H211362   0.484   0.602   1.944
 3800TIP3   OH211363   0.975   5.559   0.325
 3800TIP3    H111364   1.012   5.637   0.367
 3800TIP3    H211365   0.970   5.581   0.233
 3801TIP3   OH211366   6.492   3.240   1.148
 3801TIP3    H111367   6.423   3.236   1.215
 3801TIP3    H211368   6.445   3.248   1.065
 3802TIP3   OH211369   6.222   6.045   1.283
 3802TIP3    H111370   6.242   6.126   1.330
 3802TIP3    H211371   6.294   5.986   1.306
 3803TIP3   OH211372   1.084   1.048   5.342
 3803TIP3    H111373   0.993   1.073   5.358
 3803TIP3    H211374   1.116   1.018   5.428
 3804TIP3   OH211375   6.013   2.183   3.925
 3804TIP3    H111376   6.061   2.154   4.003
 3804TIP3    H211377   6.030   2.277   3.920
 3805TIP3   OH211378   5.027   3.184   0.313
 3805TIP3    H111379   4.953   3.124   0.319
 3805TIP3    H211380   5.032   3.224   0.400
 3806TIP3   OH211381   3.804   4.259   2.779
 3806TIP3    H111382   3.885   4.211   2.760
 3806TIP3    H211383   3.795   4.255   2.874
 3807TIP3   OH211384   6.555   6.628   5.504
 3807TIP3    H111385   6.601   6.685   5.566
 3807TIP3    H211386   6.624   6.575   5.464
 3808TIP3   OH211387   5.850   3.180   1.323
 3808TIP3    H111388   5.865   3.238   1.398
 3808TIP3    H211389   5.826   3.096   1.363
 3809TIP3   OH211390   6.037   0.155   2.519
 3809TIP3    H111391   6.094   0.107   2.459
 3809TIP3    H211392   6.016   0.236   2.473
 3810TIP3   OH211393   2.631   0.588   0.665
 3810TIP3    H111394   2.669   0.594   0.753
 3810TIP3    H211395   2.537   0.576   0.681
 3811TIP3   OH211396   4.762   0.443   3.987
 3811TIP3    H111397   4.791   0.499   3.915
 3811TIP3    H211398   4.836   0.385   4.003
 3812TIP3   OH211399   3.942   6.425   2.018
 3812TIP3    H111400   3.987   6.344   2.045
 3812TIP3    H211401   3.861   6.425   2.068
 3813TIP3   OH211402   6.466   4.194   5.296
 3813TIP3    H111403   6.409   4.179   5.371
 3813TIP3    H211404   6.508   4.278   5.315
 3814TIP3   OH211405   1.632   0.953   2.861
 3814TIP3    H111406   1.597   1.001   2.936
 3814TIP3    H211407   1.703   1.008   2.828
 3815TIP3   OH211408   4.369   0.385   4.471
 3815TIP3    H111409   4.363   0.469   4.518
 3815TIP3    H211410   4.369   0.319   4.540
 3816TIP3   OH211411   1.121   6.175   5.923
 3816TIP3    H111412   1.038   6.211   5.891
 3816TIP3    H211413   1.184   6.246   5.910
 3817TIP3   OH211414   0.227   4.350   3.178
 3817TIP3    H111415   0.305   4.383   3.133
 3817TIP3    H211416   0.218   4.406   3.255
 3818TIP3   OH211417   3.540   5.463   3.609
 3818TIP3    H111418   3.555   5.386   3.555
 3818TIP3    H211419   3.611   5.462   3.673
 3819TIP3   OH211420   4.422   1.984   4.123
 3819TIP3    H111421   4.461   2.032   4.196
 3819TIP3    H211422   4.335   1.960   4.154
 3820TIP3   OH211423   0.169   4.483   2.409
 3820TIP3    H111424   0.112   4.440   2.346
 3820TIP3    H211425   0.173   4.423   2.484
 3821TIP3   OH211426   6.324   6.739   1.588
 3821TIP3    H111427   6.364   6.798   1.652
 3821TIP3    H211428   6.362   6.653   1.607
 3822TIP3   OH211429   5.637   0.308   1.785
 3822TIP3    H111430   5.601   0.271   1.705
 3822TIP3    H211431   5.724   0.269   1.792
 3823TIP3   OH211432   5.638   4.764   4.211
 3823TIP3    H111433   5.728   4.787   4.190
 3823TIP3    H211434   5.611   4.830   4.276
 3824TIP3   OH211435   6.030   0.939   5.580
 3824TIP3    H111436   5.987   1.024   5.589
 3824TIP3    H211437   6.119   0.960   5.552
 3825TIP3   OH211438   0.906   2.710   3.621
 3825TIP3    H111439   0.908   2.680   3.530
 3825TIP3    H211440   0.814   2.727   3.639
 3826TIP3   OH211441   0.885   5.866   2.549
 3826TIP3    H111442   0.976   5.840   2.559
 3826TIP3    H211443   0.835   5.798   2.593
 3827TIP3   OH211444   1.937   0.481   0.672
 3827TIP3    H111445   1.848   0.472   0.706
 3827TIP3    H211446   1.928   0.535   0.593
 3828TIP3   OH211447   0.504   1.853   3.796
 3828TIP3    H111448   0.480   1.771   3.753
 3828TIP3    H211449   0.600   1.850   3.802
 3829TIP3   OH211450   1.646   1.067   4.795
 3829TIP3    H111451   1.692   1.070   4.878
 3829TIP3    H211452   1.704   1.016   4.738
 3830TIP3   OH211453   4.249   6.013   1.384
 3830TIP3    H111454   4.180   6.055   1.435
 3830TIP3    H211455   4.331   6.045   1.423
 3831TIP3   OH211456   1.901   3.874   3.058
 3831TIP3    H111457   1.914   3.874   2.963
 3831TIP3    H211458   1.854   3.955   3.076
 3832TIP3   OH211459   4.567   1.432   4.254
 3832TIP3    H111460   4.545   1.396   4.340
 3832TIP3    H211461   4.514   1.511   4.246
 3833TIP3   OH211462   3.714   1.203   5.402
 3833TIP3    H111463   3.698   1.190   5.309
 3833TIP3    H211464   3.808   1.186   5.413
 3834TIP3   OH211465   2.198   3.767   5.357
 3834TIP3    H111466   2.181   3.678   5.386
 3834TIP3    H211467   2.190   3.820   5.437
 3835TIP3   OH211468   0.199   2.111   5.518
 3835TIP3    H111469   0.154   2.185   5.477
 3835TIP3    H211470   0.131   2.066   5.568
 3836TIP3   OH211471   2.958   4.184   2.723
 3836TIP3    H111472   2.948   4.175   2.629
 3836TIP3    H211473   3.020   4.115   2.747
 3837TIP3   OH211474   4.626   3.586   1.150
 3837TIP3    H111475   4.550   3.528   1.155
 3837TIP3    H211476   4.676   3.567   1.229
 3838TIP3   OH211477   7.119   6.124   0.575
 3838TIP3    H111478   7.177   6.199   0.591
 3838TIP3    H211479   7.159   6.080   0.500
 3839TIP3   OH211480   7.119   4.367   4.330
 3839TIP3    H111481   7.103   4.293   4.270
 3839TIP3    H211482   7.057   4.434   4.302
 3840TIP3   OH211483   2.784   4.041   5.022
 3840TIP3    H111484   2.777   4.044   4.926
 3840TIP3    H211485   2.872   4.075   5.040
 3841TIP3   OH211486   5.098   3.562   0.357
 3841TIP3    H111487   5.189   3.539   0.342
 3841TIP3    H211488   5.094   3.657   0.343
 3842TIP3   OH211489   3.200   2.182   1.643
 3842TIP3    H111490   3.247   2.133   1.710
 3842TIP3    H211491   3.246   2.161   1.562
 3843TIP3   OH211492   6.963   1.680   4.856
 3843TIP3    H111493   6.949   1.586   4.864
 3843TIP3    H211494   6.930   1.702   4.769
 3844TIP3   OH211495   5.064   1.286   2.848
 3844TIP3    H111496   5.100   1.197   2.848
 3844TIP3    H211497   4.970   1.273   2.839
 3845TIP3   OH211498   1.128   1.245   3.438
 3845TIP3    H111499   1.074   1.278   3.366
 3845TIP3    H211500   1.096   1.155   3.452
 3846TIP3   OH211501   0.847   5.352   3.604
 3846TIP3    H111502   0.921   5.292   3.601
 3846TIP3    H211503   0.793   5.329   3.528
 3847TIP3   OH211504   6.550   0.277   5.818
 3847TIP3    H111505   6.515   0.190   5.839
 3847TIP3    H211506   6.638   0.260   5.784
 3848TIP3   OH211507   5.347   5.847   1.950
 3848TIP3    H111508   5.362   5.769   2.004
 3848TIP3    H211509   5.406   5.913   1.986
 3849TIP3   OH211510   4.855   1.815   4.655
 3849TIP3    H111511   4.807   1.882   4.704
 3849TIP3    H211512   4.800   1.737   4.662
 3850TIP3   OH211513   5.520   5.878   4.406
 3850TIP3    H111514   5.434   5.864   4.367
 3850TIP3    H211515   5.501   5.905   4.496
 3851TIP3   OH211516   5.072   1.054   5.166
 3851TIP3    H111517   5.031   1.054   5.253
 3851TIP3    H211518   5.054   0.967   5.131
 3852TIP3   OH211519   0.292   3.081   1.232
 3852TIP3    H111520   0.386   3.070   1.219
 3852TIP3    H211521   0.275   3.047   1.320
 3853TIP3   OH211522   2.876   2.227   1.352
 3853TIP3    H111523   2.862   2.214   1.446
 3853TIP3    H211524   2.924   2.150   1.323
 3854TIP3   OH211525   4.164   4.012   1.766
 3854TIP3    H111526   4.229   3.975   1.826
 3854TIP3    H211527   4.197   4.099   1.744
 3855TIP3   OH211528   1.988   2.350   1.478
 3855TIP3    H111529   2.078   2.384   1.484
 3855TIP3    H211530   1.939   2.399   1.544
 3856TIP3   OH211531   2.504   3.510   5.144
 3856TIP3    H111532   2.552   3.563   5.208
 3856TIP3    H211533   2.555   3.519   5.063
 3857TIP3   OH211534   6.157   4.228   2.361
 3857TIP3    H111535   6.233   4.286   2.371
 3857TIP3    H211536   6.186   4.144   2.398
 3858TIP3   OH211537   3.424   0.792   0.108
 3858TIP3    H111538   3.456   0.702   0.101
 3858TIP3    H211539   3.328   0.783   0.105
 3859TIP3   OH211540   0.616   4.333   5.093
 3859TIP3    H111541   0.580   4.343   5.005
 3859TIP3    H211542   0.597   4.243   5.117
 3860TIP3   OH211543   4.105   4.980   4.792
 3860TIP3    H111544   4.189   4.941   4.818
 3860TIP3    H211545   4.096   4.956   4.699
 3861TIP3   OH211546   2.540   1.025   4.676
 3861TIP3    H111547   2.486   1.103   4.686
 3861TIP3    H211548   2.578   1.033   4.589
 3862TIP3   OH211549   1.276   1.854   2.156
 3862TIP3    H111550   1.206   1.891   2.102
 3862TIP3    H211551   1.287   1.917   2.227
 3863TIP3   OH211552   0.582   5.099   1.706
 3863TIP3    H111553   0.570   5.028   1.769
 3863TIP3    H211554   0.603   5.175   1.761
 3864TIP3   OH211555   5.322   2.977   1.986
 3864TIP3    H111556   5.347   3.053   2.038
 3864TIP3    H211557   5.385   2.909   2.010
 3865TIP3   OH211558   0.925   2.476   4.209
 3865TIP3    H111559   0.994   2.431   4.160
 3865TIP3    H211560   0.911   2.421   4.286
 3866TIP3   OH211561   4.066   3.311   2.344
 3866TIP3    H111562   3.987   3.327   2.396
 3866TIP3    H211563   4.041   3.240   2.284
 3867TIP3   OH211564   6.532   4.427   0.826
 3867TIP3    H111565   6.522   4.358   0.893
 3867TIP3    H211566   6.532   4.380   0.743
 3868TIP3   OH211567   4.719   0.901   0.549
 3868TIP3    H111568   4.688   0.891   0.459
 3868TIP3    H211569   4.792   0.963   0.543
 3869TIP3   OH211570   4.960   3.985   3.171
 3869TIP3    H111571   4.891   3.920   3.183
 3869TIP3    H211572   5.022   3.942   3.110
 3870TIP3   OH211573   6.262   3.575   3.732
 3870TIP3    H111574   6.283   3.504   3.671
 3870TIP3    H211575   6.213   3.638   3.679
 3871TIP3   OH211576   1.525   6.445   5.446
 3871TIP3    H111577   1.578   6.373   5.480
 3871TIP3    H211578   1.450   6.402   5.404
 3872TIP3   OH211579   4.207   2.467   4.575
 3872TIP3    H111580   4.289   2.470   4.623
 3872TIP3    H211581   4.167   2.384   4.600
 3873TIP3   OH211582   0.885   0.681   0.463
 3873TIP3    H111583   0.930   0.606   0.503
 3873TIP3    H211584   0.829   0.715   0.532
 3874TIP3   OH211585   6.457   0.577   0.484
 3874TIP3    H111586   6.454   0.669   0.456
 3874TIP3    H211587   6.481   0.581   0.576
 3875TIP3   OH211588   1.572   0.747   1.007
 3875TIP3    H111589   1.622   0.686   0.953
 3875TIP3    H211590   1.600   0.833   0.978
 3876TIP3   OH211591   2.105   5.175   0.262
 3876TIP3    H111592   2.172   5.157   0.328
 3876TIP3    H211593   2.053   5.094   0.257
 3877TIP3   OH211594   2.269   4.026   2.260
 3877TIP3    H111595   2.216   4.002   2.335
 3877TIP3    H211596   2.295   4.117   2.277
 3878TIP3   OH211597   1.276   5.712   3.247
 3878TIP3    H111598   1.251   5.799   3.215
 3878TIP3    H211599   1.363   5.725   3.284
 3879TIP3   OH211600   5.625   1.930   3.823
 3879TIP3    H111601   5.707   1.959   3.864
 3879TIP3    H211602   5.642   1.938   3.729
 3880TIP3   OH211603   1.059   0.951   2.320
 3880TIP3    H111604   0.986   1.011   2.315
 3880TIP3    H211605   1.060   0.905   2.236
 3881TIP3   OH211606   1.070   1.745   0.092
 3881TIP3    H111607   1.015   1.773   0.165
 3881TIP3    H211608   1.033   1.790   0.016
 3882TIP3   OH211609   3.406   1.140   1.569
 3882TIP3    H111610   3.404   1.228   1.533
 3882TIP3    H211611   3.496   1.110   1.555
 3883TIP3   OH211612   4.825   5.603   0.335
 3883TIP3    H111613   4.862   5.604   0.247
 3883TIP3    H211614   4.864   5.526   0.376
 3884TIP3   OH211615   2.987   6.688   4.893
 3884TIP3    H111616   2.991   6.648   4.807
 3884TIP3    H211617   3.057   6.753   4.893
 3885TIP3   OH211618   1.159   0.958   0.653
 3885TIP3    H111619   1.250   0.984   0.668
 3885TIP3    H211620   1.118   0.963   0.740
 3886TIP3   OH211621   1.233   0.336   5.648
 3886TIP3    H111622   1.181   0.279   5.705
 3886TIP3    H211623   1.172   0.364   5.580
 3887TIP3   OH211624   5.565   6.113   3.596
 3887TIP3    H111625   5.495   6.158   3.643
 3887TIP3    H211626   5.612   6.065   3.664
 3888TIP3   OH211627   1.079   0.144   3.621
 3888TIP3    H111628   1.121   0.065   3.658
 3888TIP3    H211629   0.986   0.129   3.633
 3889TIP3   OH211630   5.994   3.651   5.876
 3889TIP3    H111631   5.929   3.675   5.942
 3889TIP3    H211632   5.988   3.555   5.870
 3890TIP3   OH211633   3.578   3.849   1.564
 3890TIP3    H111634   3.504   3.793   1.586
 3890TIP3    H211635   3.545   3.938   1.572
 3891TIP3   OH211636   3.456   1.101   3.746
 3891TIP3    H111637   3.398   1.027   3.727
 3891TIP3    H211638   3.506   1.073   3.823
 3892TIP3   OH211639   4.664   1.298   2.993
 3892TIP3    H111640   4.684   1.209   3.022
 3892TIP3    H211641   4.569   1.301   2.990
 3893TIP3   OH211642   3.576   0.189   4.020
 3893TIP3    H111643   3.607   0.278   4.000
 3893TIP3    H211644   3.553   0.192   4.113
 3894TIP3   OH211645   5.376   1.270   1.752
 3894TIP3    H111646   5.394   1.278   1.658
 3894TIP3    H211647   5.371   1.176   1.768
 3895TIP3   OH211648   4.593   5.564   4.871
 3895TIP3    H111649   4.675   5.520   4.895
 3895TIP3    H211650   4.591   5.561   4.776
 3896TIP3   OH211651   6.108   5.964   2.506
 3896TIP3    H111652   6.157   5.964   2.424
 3896TIP3    H211653   6.104   5.872   2.531
 3897TIP3   OH211654   3.379   5.677   3.733
 3897TIP3    H111655   3.383   5.759   3.682
 3897TIP3    H211656   3.420   5.612   3.676
 3898TIP3   OH211657   1.299   0.657   3.212
 3898TIP3    H111658   1.258   0.728   3.262
 3898TIP3    H211659   1.226   0.602   3.185
 3899TIP3   OH211660   3.580   1.223   3.994
 3899TIP3    H111661   3.576   1.137   4.037
 3899TIP3    H211662   3.493   1.260   4.006
 3900TIP3   OH211663   4.378   1.249   3.240
 3900TIP3    H111664   4.460   1.279   3.280
 3900TIP3    H211665   4.398   1.245   3.146
 3901TIP3   OH211666   0.192   3.440   0.941
 3901TIP3    H111667   0.235   3.486   1.012
 3901TIP3    H211668   0.228   3.352   0.944
 3902TIP3   OH211669   0.477   0.727   3.859
 3902TIP3    H111670   0.436   0.713   3.944
 3902TIP3    H211671   0.492   0.821   3.854
 3903TIP3   OH211672   5.065   3.795   4.913
 3903TIP3    H111673   5.034   3.735   4.981
 3903TIP3    H211674   4.994   3.796   4.848
 3904TIP3   OH211675   6.939   4.128   4.498
 3904TIP3    H111676   6.965   4.220   4.490
 3904TIP3    H211677   6.847   4.127   4.472
 3905TIP3   OH211678   7.062   5.097   1.724
 3905TIP3    H111679   7.032   5.018   1.679
 3905TIP3    H211680   7.147   5.116   1.685
 3906TIP3   OH211681   1.127   2.379   3.975
 3906TIP3    H111682   1.060   2.417   3.917
 3906TIP3    H211683   1.177   2.454   4.006
 3907TIP3   OH211684   2.686   5.216   2.704
 3907TIP3    H111685   2.654   5.167   2.780
 3907TIP3    H211686   2.625   5.290   2.696
 3908TIP3   OH211687   6.139   4.711   1.388
 3908TIP3    H111688   6.070   4.688   1.449
 3908TIP3    H211689   6.115   4.798   1.356
 3909TIP3   OH211690   2.842   3.062   2.371
 3909TIP3    H111691   2.875   3.013   2.295
 3909TIP3    H211692   2.863   3.153   2.351
 3910TIP3   OH211693   5.234   4.918   4.555
 3910TIP3    H111694   5.241   4.877   4.642
 3910TIP3    H211695   5.243   4.845   4.494
 3911TIP3   OH211696   3.484   1.943   1.470
 3911TIP3    H111697   3.473   1.848   1.480
 3911TIP3    H211698   3.567   1.962   1.513
 3912TIP3   OH211699   0.247   4.445   0.911
 3912TIP3    H111700   0.338   4.421   0.926
 3912TIP3    H211701   0.251   4.516   0.847
 3913TIP3   OH211702   5.585   6.750   3.440
 3913TIP3    H111703   5.584   6.811   3.513
 3913TIP3    H211704   5.645   6.680   3.468
 3914TIP3   OH211705   0.027   2.298   0.250
 3914TIP3    H111706   0.066   2.282   0.164
 3914TIP3    H211707  -0.022   2.380   0.240
 3915TIP3   OH211708   5.471   4.245   0.209
 3915TIP3    H111709   5.479   4.157   0.171
 3915TIP3    H211710   5.539   4.248   0.277
 3916TIP3   OH211711   4.581   0.244   4.030
 3916TIP3    H111712   4.637   0.177   3.993
 3916TIP3    H211713   4.620   0.327   4.003
 3917TIP3   OH211714   4.584   4.031   4.571
 3917TIP3    H111715   4.551   4.086   4.501
 3917TIP3    H211716   4.625   3.957   4.525
 3918TIP3   OH211717   5.474   4.088   5.796
 3918TIP3    H111718   5.511   4.010   5.754
 3918TIP3    H211719   5.500   4.079   5.888
 3919TIP3   OH211720   1.690   2.894   2.067
 3919TIP3    H111721   1.628   2.886   2.140
 3919TIP3    H211722   1.636   2.883   1.989
 3920TIP3   OH211723   1.812   1.664   5.403
 3920TIP3    H111724   1.889   1.637   5.452
 3920TIP3    H211725   1.749   1.692   5.470
 3921TIP3   OH211726   3.488   3.106   1.630
 3921TIP3    H111727   3.396   3.115   1.605
 3921TIP3    H211728   3.491   3.129   1.722
 3922TIP3   OH211729   2.950   2.686   0.816
 3922TIP3    H111730   2.928   2.723   0.731
 3922TIP3    H211731   3.026   2.737   0.844
 3923TIP3   OH211732   4.566   3.570   4.655
 3923TIP3    H111733   4.488   3.527   4.619
 3923TIP3    H211734   4.639   3.515   4.629
 3924TIP3   OH211735   0.279   3.763   5.720
 3924TIP3    H111736   0.303   3.672   5.741
 3924TIP3    H211737   0.348   3.816   5.760
 3925TIP3   OH211738   6.197   0.599   5.528
 3925TIP3    H111739   6.218   0.601   5.621
 3925TIP3    H211740   6.160   0.512   5.514
 3926TIP3   OH211741   4.265   4.092   3.866
 3926TIP3    H111742   4.204   4.160   3.839
 3926TIP3    H211743   4.345   4.139   3.889
 3927TIP3   OH211744   6.054   1.872   3.448
 3927TIP3    H111745   6.128   1.822   3.411
 3927TIP3    H211746   6.087   1.903   3.532
 3928TIP3   OH211747   2.795   4.203   3.844
 3928TIP3    H111748   2.730   4.153   3.894
 3928TIP3    H211749   2.749   4.226   3.763
 3929TIP3   OH211750   6.829   4.007   2.104
 3929TIP3    H111751   6.812   4.053   2.186
 3929TIP3    H211752   6.877   4.071   2.051
 3930TIP3   OH211753   6.607   4.051   4.033
 3930TIP3    H111754   6.550   4.104   4.090
 3930TIP3    H211755   6.664   4.005   4.093
 3931TIP3   OH211756   5.341   1.026   0.206
 3931TIP3    H111757   5.402   1.094   0.234
 3931TIP3    H211758   5.295   1.002   0.286
 3932TIP3   OH211759   3.053   1.974   2.236
 3932TIP3    H111760   3.105   1.897   2.213
 3932TIP3    H211761   3.058   2.031   2.160
 3933TIP3   OH211762   1.202   6.430   1.411
 3933TIP3    H111763   1.244   6.394   1.489
 3933TIP3    H211764   1.186   6.522   1.432
 3934TIP3   OH211765   3.949   2.049   2.754
 3934TIP3    H111766   3.932   1.955   2.751
 3934TIP3    H211767   4.028   2.060   2.701
 3935TIP3   OH211768   1.963   0.094   3.504
 3935TIP3    H111769   1.945   0.034   3.576
 3935TIP3    H211770   1.926   0.177   3.532
 3936TIP3   OH211771   1.786   3.218   4.410
 3936TIP3    H111772   1.844   3.246   4.339
 3936TIP3    H211773   1.812   3.272   4.485
 3937TIP3   OH211774   5.998   6.424   3.864
 3937TIP3    H111775   6.056   6.396   3.793
 3937TIP3    H211776   5.910   6.410   3.829
 3938TIP3   OH211777   2.504   3.711   3.537
 3938TIP3    H111778   2.493   3.778   3.470
 3938TIP3    H211779   2.546   3.638   3.492
 3939TIP3   OH211780   5.953   6.525   2.324
 3939TIP3    H111781   5.907   6.463   2.380
 3939TIP3    H211782   5.951   6.486   2.237
 3940TIP3   OH211783   7.146   6.490   1.456
 3940TIP3    H111784   7.115   6.571   1.496
 3940TIP3    H211785   7.127   6.501   1.363
 3941TIP3   OH211786   4.497   3.786   0.832
 3941TIP3    H111787   4.448   3.856   0.789
 3941TIP3    H211788   4.447   3.706   0.812
 3942TIP3   OH211789   6.607   1.379   3.260
 3942TIP3    H111790   6.583   1.314   3.326
 3942TIP3    H211791   6.560   1.458   3.287
 3943TIP3   OH211792   2.794   1.897   2.288
 3943TIP3    H111793   2.878   1.938   2.269
 3943TIP3    H211794   2.816   1.809   2.320
 3944TIP3   OH211795   0.644   3.842   4.268
 3944TIP3    H111796   0.567   3.791   4.245
 3944TIP3    H211797   0.691   3.788   4.331
 3945TIP3   OH211798   4.717   3.378   5.824
 3945TIP3    H111799   4.696   3.414   5.738
 3945TIP3    H211800   4.733   3.285   5.808
 3946TIP3   OH211801   2.534   1.847   0.816
 3946TIP3    H111802   2.443   1.872   0.798
 3946TIP3    H211803   2.531   1.801   0.900
 3947TIP3   OH211804   0.295   6.304   5.552
 3947TIP3    H111805   0.331   6.299   5.640
 3947TIP3    H211806   0.202   6.282   5.562
 3948TIP3   OH211807   3.437   0.991   4.506
 3948TIP3    H111808   3.508   1.038   4.549
 3948TIP3    H211809   3.457   0.997   4.412
 3949TIP3   OH211810   6.692   4.741   1.905
 3949TIP3    H111811   6.606   4.704   1.926
 3949TIP3    H211812   6.687   4.832   1.933
 3950TIP3   OH211813   6.550   5.617   3.485
 3950TIP3    H111814   6.635   5.574   3.490
 3950TIP3    H211815   6.500   5.565   3.422
 3951TIP3   OH211816   2.733   4.612   1.902
 3951TIP3    H111817   2.753   4.628   1.809
 3951TIP3    H211818   2.812   4.570   1.936
 3952TIP3   OH211819   4.551   0.344   5.108
 3952TIP3    H111820   4.628   0.374   5.157
 3952TIP3    H211821   4.505   0.285   5.168
 3953TIP3   OH211822   3.647   0.640   5.218
 3953TIP3    H111823   3.739   0.617   5.218
 3953TIP3    H211824   3.611   0.597   5.140
 3954TIP3   OH211825   3.507   5.372   3.146
 3954TIP3    H111826   3.529   5.334   3.232
 3954TIP3    H211827   3.478   5.297   3.094
 3955TIP3   OH211828   4.775   5.977   2.460
 3955TIP3    H111829   4.722   5.913   2.506
 3955TIP3    H211830   4.809   5.930   2.384
 3956TIP3   OH211831   1.657   4.769   5.473
 3956TIP3    H111832   1.620   4.759   5.385
 3956TIP3    H211833   1.663   4.679   5.506
 3957TIP3   OH211834   1.905   3.989   3.685
 3957TIP3    H111835   2.000   3.980   3.683
 3957TIP3    H211836   1.882   4.019   3.597
 3958TIP3   OH211837   5.759   3.787   5.738
 3958TIP3    H111838   5.689   3.794   5.673
 3958TIP3    H211839   5.748   3.700   5.775
 3959TIP3   OH211840   4.175   2.932   5.747
 3959TIP3    H111841   4.132   2.936   5.661
 3959TIP3    H211842   4.253   2.987   5.738
 3960TIP3   OH211843   1.388   6.711   5.197
 3960TIP3    H111844   1.455   6.776   5.175
 3960TIP3    H211845   1.405   6.690   5.289
 3961TIP3   OH211846   6.416   4.862   2.569
 3961TIP3    H111847   6.381   4.941   2.528
 3961TIP3    H211848   6.508   4.860   2.543
 3962TIP3   OH211849   3.376   5.384   4.492
 3962TIP3    H111850   3.407   5.472   4.513
 3962TIP3    H211851   3.354   5.345   4.577
 3963TIP3   OH211852   0.742   5.704   4.168
 3963TIP3    H111853   0.648   5.707   4.188
 3963TIP3    H211854   0.745   5.680   4.075
 3964TIP3   OH211855   5.403   6.553   4.133
 3964TIP3    H111856   5.340   6.608   4.087
 3964TIP3    H211857   5.365   6.542   4.221
 3965TIP3   OH211858   2.935   3.311   1.607
 3965TIP3    H111859   2.858   3.255   1.599
 3965TIP3    H211860   2.901   3.395   1.637
 3966TIP3   OH211861   3.977   1.688   5.234
 3966TIP3    H111862   4.042   1.677   5.304
 3966TIP3    H211863   3.952   1.781   5.240
 3967TIP3   OH211864   4.479   4.267   3.538
 3967TIP3    H111865   4.544   4.278   3.469
 3967TIP3    H211866   4.457   4.174   3.535
 3968TIP3   OH211867   2.282   4.144   4.363
 3968TIP3    H111868   2.215   4.196   4.319
 3968TIP3    H211869   2.318   4.202   4.429
 3969TIP3   OH211870   1.344   2.785   5.845
 3969TIP3    H111871   1.289   2.707   5.838
 3969TIP3    H211872   1.433   2.753   5.830
 3970TIP3   OH211873   1.738   0.930   3.901
 3970TIP3    H111874   1.727   1.015   3.857
 3970TIP3    H211875   1.824   0.899   3.872
 3971TIP3   OH211876   5.342   4.559   2.046
 3971TIP3    H111877   5.418   4.562   2.104
 3971TIP3    H211878   5.290   4.485   2.077
 3972TIP3   OH211879   1.361   6.561   4.713
 3972TIP3    H111880   1.273   6.531   4.688
 3972TIP3    H211881   1.376   6.520   4.798
 3973TIP3   OH211882   4.940   5.705   2.672
 3973TIP3    H111883   4.923   5.625   2.722
 3973TIP3    H211884   4.859   5.755   2.678
 3974TIP3   OH211885   4.508   3.047   5.133
 3974TIP3    H111886   4.494   2.953   5.122
 3974TIP3    H211887   4.446   3.088   5.072
 3975TIP3   OH211888   5.505   6.511   2.955
 3975TIP3    H111889   5.561   6.581   2.921
 3975TIP3    H211890   5.542   6.491   3.041
 3976TIP3   OH211891   6.167   3.445   5.429
 3976TIP3    H111892   6.221   3.382   5.383
 3976TIP3    H211893   6.172   3.525   5.376
 3977TIP3   OH211894   2.126   5.412   3.445
 3977TIP3    H111895   2.196   5.347   3.441
 3977TIP3    H211896   2.099   5.423   3.354
 3978TIP3   OH211897   2.286   3.952   0.573
 3978TIP3    H111898   2.227   3.963   0.499
 3978TIP3    H211899   2.374   3.963   0.536
 3979TIP3   OH211900   5.969   1.914   0.324
 3979TIP3    H111901   6.039   1.879   0.380
 3979TIP3    H211902   5.976   2.009   0.334
 3980TIP3   OH211903   5.126   3.057   1.811
 3980TIP3    H111904   5.172   2.978   1.838
 3980TIP3    H211905   5.191   3.127   1.819
 3981TIP3   OH211906   4.519   5.284   0.487
 3981TIP3    H111907   4.587   5.325   0.539
 3981TIP3    H211908   4.556   5.276   0.399
 3982TIP3   OH211909   6.329   5.342   3.685
 3982TIP3    H111910   6.234   5.339   3.687
 3982TIP3    H211911   6.353   5.315   3.597
 3983TIP3   OH211912   0.854   1.027   4.620
 3983TIP3    H111913   0.946   1.001   4.619
 3983TIP3    H211914   0.843   1.079   4.540
 3984TIP3   OH211915   6.459   6.681   0.473
 3984TIP3    H111916   6.533   6.626   0.498
 3984TIP3    H211917   6.395   6.668   0.543
 3985TIP3   OH211918   3.957   5.879   3.745
 3985TIP3    H111919   4.003   5.958   3.771
 3985TIP3    H211920   4.026   5.820   3.714
 3986TIP3   OH211921   1.491   4.205   1.829
 3986TIP3    H111922   1.420   4.267   1.808
 3986TIP3    H211923   1.470   4.174   1.917
 3987TIP3   OH211924   3.924   1.242   0.285
 3987TIP3    H111925   3.832   1.259   0.266
 3987TIP3    H211926   3.967   1.327   0.273
 3988TIP3   OH211927   4.390   1.119   5.028
 3988TIP3    H111928   4.439   1.153   5.103
 3988TIP3    H211929   4.364   1.031   5.054
 3989TIP3   OH211930   5.143   1.335   0.995
 3989TIP3    H111931   5.212   1.281   0.956
 3989TIP3    H211932   5.108   1.282   1.066
 3990TIP3   OH211933   1.282   0.353   4.172
 3990TIP3    H111934   1.255   0.272   4.130
 3990TIP3    H211935   1.272   0.336   4.266
 3991TIP3   OH211936   5.109   4.723   2.185
 3991TIP3    H111937   5.079   4.743   2.096
 3991TIP3    H211938   5.195   4.683   2.173
 3992TIP3   OH211939   7.168   3.029   0.309
 3992TIP3    H111940   7.164   3.066   0.398
 3992TIP3    H211941   7.258   2.998   0.300
 3993TIP3   OH211942   2.784   1.348   4.234
 3993TIP3    H111943   2.691   1.326   4.243
 3993TIP3    H211944   2.818   1.283   4.173
 3994TIP3   OH211945   2.180   2.110   5.867
 3994TIP3    H111946   2.249   2.087   5.805
 3994TIP3    H211947   2.209   2.073   5.950
 3995TIP3   OH211948   1.833   0.314   2.330
 3995TIP3    H111949   1.865   0.277   2.248
 3995TIP3    H211950   1.865   0.255   2.398
 3996TIP3   OH211951   0.973   0.547   3.445
 3996TIP3    H111952   0.887   0.507   3.432
 3996TIP3    H211953   1.035   0.475   3.436
 3997TIP3   OH211954   1.163   1.603   4.860
 3997TIP3    H111955   1.218   1.567   4.930
 3997TIP3    H211956   1.097   1.536   4.845
 3998TIP3   OH211957   4.284   1.457   4.511
 3998TIP3    H111958   4.253   1.541   4.478
 3998TIP3    H211959   4.249   1.452   4.600
 3999TIP3   OH211960   5.118   2.454   3.977
 3999TIP3    H111961   5.097   2.486   3.890
 3999TIP3    H211962   5.199   2.404   3.966
 4000TIP3   OH211963   3.716   1.427   0.267
 4000TIP3    H111964   3.623   1.443   0.281
 4000TIP3    H211965   3.756   1.514   0.272
 4001TIP3   OH211966   0.988   0.934   4.908
 4001TIP3    H111967   1.062   0.980   4.949
 4001TIP3    H211968   1.016   0.922   4.817
 4002TIP3   OH211969   1.091   1.803   0.858
 4002TIP3    H111970   1.094   1.818   0.953
 4002TIP3    H211971   1.171   1.754   0.840
 4003TIP3   OH211972   3.574   5.804   0.137
 4003TIP3    H111973   3.559   5.766   0.051
 4003TIP3    H211974   3.669   5.798   0.149
 4004TIP3   OH211975   0.125   6.205   0.861
 4004TIP3    H111976   0.040   6.168   0.887
 4004TIP3    H211977   0.166   6.230   0.943
 4005TIP3   OH211978   1.860   2.796   0.070
 4005TIP3    H111979   1.950   2.764   0.069
 4005TIP3    H211980   1.806   2.717   0.065
 4006TIP3   OH211981   2.184   1.327   0.755
 4006TIP3    H111982   2.125   1.323   0.830
 4006TIP3    H211983   2.232   1.244   0.757
 4007TIP3   OH211984   1.132   3.154   5.042
 4007TIP3    H111985   1.041   3.159   5.072
 4007TIP3    H211986   1.179   3.215   5.099
 4008TIP3   OH211987   1.650   2.755   2.938
 4008TIP3    H111988   1.741   2.764   2.969
 4008TIP3    H211989   1.618   2.845   2.933
 4009TIP3   OH211990   7.187   4.003   5.689
 4009TIP3    H111991   7.125   4.001   5.617
 4009TIP3    H211992   7.244   4.078   5.669
 4010TIP3   OH211993   3.254   2.593   1.500
 4010TIP3    H111994   3.170   2.582   1.455
 4010TIP3    H211995   3.248   2.536   1.577
 4011TIP3   OH211996   5.275   5.982   0.669
 4011TIP3    H111997   5.195   5.933   0.649
 4011TIP3    H211998   5.246   6.072   0.681
 4012TIP3   OH211999   5.808   5.235   2.670
 4012TIP3    H112000   5.780   5.265   2.757
 4012TIP3    H212001   5.837   5.145   2.685
 4013TIP3   OH212002   1.833   6.374   3.829
 4013TIP3    H112003   1.852   6.431   3.904
 4013TIP3    H212004   1.776   6.306   3.865
 4014TIP3   OH212005   2.063   2.018   4.143
 4014TIP3    H112006   2.152   1.995   4.168
 4014TIP3    H212007   2.043   1.961   4.068
 4015TIP3   OH212008   0.817   2.909   4.098
 4015TIP3    H112009   0.880   2.975   4.069
 4015TIP3    H212010   0.762   2.894   4.021
 4016TIP3   OH212011   3.976   5.228   2.712
 4016TIP3    H112012   4.060   5.260   2.745
 4016TIP3    H212013   3.914   5.244   2.783
 4017TIP3   OH212014   0.972   2.215   1.861
 4017TIP3    H112015   0.978   2.311   1.863
 4017TIP3    H212016   0.882   2.198   1.830
 4018TIP3   OH212017   1.241  -0.030   1.645
 4018TIP3    H112018   1.221   0.021   1.566
 4018TIP3    H212019   1.325  -0.071   1.626
 4019TIP3   OH212020   5.456   5.350   4.599
 4019TIP3    H112021   5.404   5.272   4.622
 4019TIP3    H212022   5.395   5.405   4.549
 4020TIP3   OH212023   6.862   4.409   1.787
 4020TIP3    H112024   6.873   4.320   1.820
 4020TIP3    H212025   6.951   4.437   1.766
 4021TIP3   OH212026   2.759   3.729   2.628
 4021TIP3    H112027   2.695   3.791   2.663
 4021TIP3    H212028   2.838   3.781   2.614
 4022TIP3   OH212029   4.786   0.779   1.901
 4022TIP3    H112030   4.696   0.752   1.913
 4022TIP3    H212031   4.818   0.799   1.989
 4023TIP3   OH212032   2.798   3.770   5.929
 4023TIP3    H112033   2.853   3.820   5.990
 4023TIP3    H212034   2.746   3.837   5.883
 4024TIP3   OH212035   5.557   1.794   4.073
 4024TIP3    H112036   5.612   1.768   4.147
 4024TIP3    H212037   5.619   1.830   4.009
 4025TIP3   OH212038   1.184   4.677   1.649
 4025TIP3    H112039   1.100   4.718   1.632
 4025TIP3    H212040   1.213   4.645   1.563
 4026TIP3   OH212041   3.975   6.564   3.309
 4026TIP3    H112042   4.062   6.586   3.343
 4026TIP3    H212043   3.978   6.470   3.294
 4027TIP3   OH212044   3.828   4.099   5.724
 4027TIP3    H112045   3.912   4.138   5.700
 4027TIP3    H212046   3.852   4.016   5.766
 4028TIP3   OH212047   3.248   3.823   2.713
 4028TIP3    H112048   3.211   3.748   2.759
 4028TIP3    H212049   3.332   3.838   2.755
 4029TIP3   OH212050   6.104   2.903   3.648
 4029TIP3    H112051   6.098   2.825   3.704
 4029TIP3    H212052   6.019   2.945   3.657
 4030TIP3   OH212053   4.500   6.635   5.778
 4030TIP3    H112054   4.500   6.582   5.698
 4030TIP3    H212055   4.591   6.660   5.791
 4031TIP3   OH212056   6.822   2.252   5.135
 4031TIP3    H112057   6.864   2.330   5.172
 4031TIP3    H212058   6.882   2.222   5.067
 4032TIP3   OH212059   0.493   1.152   4.874
 4032TIP3    H112060   0.537   1.120   4.795
 4032TIP3    H212061   0.452   1.073   4.912
 4033TIP3   OH212062   4.575   5.859   3.043
 4033TIP3    H112063   4.514   5.880   2.973
 4033TIP3    H212064   4.651   5.914   3.026
 4034TIP3   OH212065   3.580   1.831   3.121
 4034TIP3    H112066   3.489   1.810   3.143
 4034TIP3    H212067   3.621   1.745   3.108
 4035TIP3   OH212068   2.435   5.375   3.987
 4035TIP3    H112069   2.418   5.284   3.966
 4035TIP3    H212070   2.394   5.425   3.916
 4036TIP3   OH212071   1.571   6.472   4.588
 4036TIP3    H112072   1.537   6.431   4.508
 4036TIP3    H212073   1.494   6.511   4.630
 4037TIP3   OH212074   6.082   5.574   2.296
 4037TIP3    H112075   6.029   5.523   2.358
 4037TIP3    H212076   6.164   5.590   2.343
 4038TIP3   OH212077   1.175   3.770   2.781
 4038TIP3    H112078   1.269   3.784   2.775
 4038TIP3    H212079   1.165   3.706   2.851
 4039TIP3   OH212080   4.041   2.911   5.458
 4039TIP3    H112081   4.048   2.922   5.363
 4039TIP3    H212082   3.953   2.942   5.479
 4040TIP3   OH212083   2.745   3.599   2.363
 4040TIP3    H112084   2.778   3.659   2.296
 4040TIP3    H212085   2.749   3.649   2.444
 4041TIP3   OH212086   5.350   3.331   2.391
 4041TIP3    H112087   5.411   3.291   2.453
 4041TIP3    H212088   5.361   3.425   2.403
 4042TIP3   OH212089   5.060   1.941   0.267
 4042TIP3    H112090   4.990   1.927   0.204
 4042TIP3    H212091   5.108   2.016   0.232
 4043TIP3   OH212092   1.604   1.475   1.753
 4043TIP3    H112093   1.693   1.442   1.767
 4043TIP3    H212094   1.611   1.569   1.768
 4044TIP3   OH212095   0.570   0.821   1.054
 4044TIP3    H112096   0.619   0.843   1.133
 4044TIP3    H212097   0.491   0.875   1.059
 4045TIP3   OH212098   0.616   0.577   5.478
 4045TIP3    H112099   0.684   0.583   5.544
 4045TIP3    H212100   0.587   0.486   5.482
 4046TIP3   OH212101   5.449   1.741   4.791
 4046TIP3    H112102   5.530   1.700   4.821
 4046TIP3    H212103   5.391   1.667   4.772
 4047TIP3   OH212104   1.539   6.083   2.173
 4047TIP3    H112105   1.585   6.121   2.098
 4047TIP3    H212106   1.565   5.991   2.173
 4048TIP3   OH212107   0.077   0.097   0.507
 4048TIP3    H112108   0.103   0.181   0.469
 4048TIP3    H212109   0.073   0.037   0.433
 4049TIP3   OH212110   5.990   0.605   0.668
 4049TIP3    H112111   5.909   0.554   0.667
 4049TIP3    H212112   6.048   0.558   0.728
 4050TIP3   OH212113   7.002   4.257   2.763
 4050TIP3    H112114   6.916   4.216   2.757
 4050TIP3    H212115   7.015   4.299   2.678
 4051TIP3   OH212116   5.037   3.967   0.061
 4051TIP3    H112117   5.057   4.038   0.121
 4051TIP3    H212118   5.010   3.894   0.117
 4052TIP3   OH212119   2.185   3.854   1.791
 4052TIP3    H112120   2.128   3.793   1.836
 4052TIP3    H212121   2.145   3.940   1.807
 4053TIP3   OH212122   1.505   5.568   0.472
 4053TIP3    H112123   1.588   5.598   0.509
 4053TIP3    H212124   1.457   5.649   0.454
 4054TIP3   OH212125   1.577   2.085   0.687
 4054TIP3    H112126   1.520   2.061   0.760
 4054TIP3    H212127   1.615   2.170   0.713
 4055TIP3   OH212128   4.910   0.203   1.590
 4055TIP3    H112129   4.881   0.242   1.673
 4055TIP3    H212130   4.830   0.174   1.548
 4056TIP3   OH212131   4.105   2.891   1.442
 4056TIP3    H112132   4.145   2.950   1.506
 4056TIP3    H212133   4.019   2.929   1.424
 4057TIP3   OH212134   3.680   3.910   1.948
 4057TIP3    H112135   3.723   3.851   2.010
 4057TIP3    H212136   3.668   3.992   1.996
 4058TIP3   OH212137   4.983   5.417   4.745
 4058TIP3    H112138   4.984   5.512   4.758
 4058TIP3    H212139   5.002   5.405   4.651
 4059TIP3   OH212140   5.898   5.050   5.167
 4059TIP3    H112141   5.928   4.995   5.239
 4059TIP3    H212142   5.962   5.121   5.163
 4060TIP3   OH212143   7.131   0.812   4.614
 4060TIP3    H112144   7.198   0.743   4.610
 4060TIP3    H212145   7.049   0.765   4.631
 4061TIP3   OH212146   1.024   6.720   4.519
 4061TIP3    H112147   0.955   6.786   4.509
 4061TIP3    H212148   1.031   6.706   4.613
 4062TIP3   OH212149   3.124   4.937   1.728
 4062TIP3    H112150   3.167   5.011   1.686
 4062TIP3    H212151   3.127   4.867   1.663
 4063TIP3   OH212152   4.305   5.951   5.468
 4063TIP3    H112153   4.378   5.907   5.424
 4063TIP3    H212154   4.226   5.910   5.431
 4064TIP3   OH212155   1.986   0.811   1.441
 4064TIP3    H112156   1.894   0.814   1.415
 4064TIP3    H212157   1.983   0.812   1.537
 4065TIP3   OH212158   4.977   1.094   3.606
 4065TIP3    H112159   5.004   1.181   3.636
 4065TIP3    H212160   5.055   1.059   3.562
 4066TIP3   OH212161   1.052   3.129   5.904
 4066TIP3    H112162   0.977   3.070   5.898
 4066TIP3    H212163   1.063   3.163   5.815
 4067TIP3   OH212164   2.770   6.163   5.689
 4067TIP3    H112165   2.696   6.172   5.628
 4067TIP3    H212166   2.799   6.073   5.678
 4068TIP3   OH212167   3.335   3.466   4.844
 4068TIP3    H112168   3.314   3.535   4.781
 4068TIP3    H212169   3.303   3.385   4.803
 4069TIP3   OH212170   2.335   5.542   5.120
 4069TIP3    H112171   2.322   5.622   5.171
 4069TIP3    H212172   2.394   5.489   5.174
 4070TIP3   OH212173   4.247   4.061   1.351
 4070TIP3    H112174   4.263   3.990   1.289
 4070TIP3    H212175   4.294   4.035   1.430
 4071TIP3   OH212176   6.041   6.185   3.039
 4071TIP3    H112177   6.025   6.174   3.133
 4071TIP3    H212178   6.137   6.186   3.031
 4072TIP3   OH212179   5.326   5.178   1.252
 4072TIP3    H112180   5.315   5.097   1.201
 4072TIP3    H212181   5.259   5.237   1.218
 4073TIP3   OH212182   5.270   5.197   1.716
 4073TIP3    H112183   5.252   5.130   1.782
 4073TIP3    H212184   5.287   5.148   1.636
 4074TIP3   OH212185   3.160   1.101   3.836
 4074TIP3    H112186   3.250   1.126   3.858
 4074TIP3    H212187   3.106   1.152   3.896
 4075TIP3   OH212188   6.248   1.354   5.710
 4075TIP3    H112189   6.207   1.403   5.639
 4075TIP3    H212190   6.302   1.417   5.756
 4076TIP3   OH212191   7.117   5.989   0.196
 4076TIP3    H112192   7.103   5.912   0.140
 4076TIP3    H212193   7.043   6.047   0.176
 4077TIP3   OH212194   5.195   4.000   1.129
 4077TIP3    H112195   5.194   3.938   1.056
 4077TIP3    H212196   5.126   3.970   1.187
 4078TIP3   OH212197   3.022   1.735   4.380
 4078TIP3    H112198   2.958   1.735   4.309
 4078TIP3    H212199   3.099   1.692   4.343
 4079TIP3   OH212200   6.685   3.681   5.361
 4079TIP3    H112201   6.654   3.740   5.292
 4079TIP3    H212202   6.768   3.646   5.328
 4080TIP3   OH212203   0.319   4.232   5.155
 4080TIP3    H112204   0.346   4.324   5.149
 4080TIP3    H212205   0.384   4.185   5.103
 4081TIP3   OH212206   1.892   5.996   2.411
 4081TIP3    H112207   1.853   5.941   2.344
 4081TIP3    H212208   1.886   6.085   2.375
 4082TIP3   OH212209   0.131   5.211   3.869
 4082TIP3    H112210   0.172   5.160   3.939
 4082TIP3    H212211   0.168   5.299   3.878
 4083TIP3   OH212212   5.299   6.308   4.809
 4083TIP3    H112213   5.350   6.285   4.731
 4083TIP3    H212214   5.363   6.312   4.880
 4084TIP3   OH212215   2.882   2.066   4.160
 4084TIP3    H112216   2.918   2.143   4.204
 4084TIP3    H212217   2.834   2.102   4.085
 4085TIP3   OH212218   4.689   0.690   3.081
 4085TIP3    H112219   4.716   0.776   3.049
 4085TIP3    H212220   4.607   0.708   3.127
 4086TIP3   OH212221   1.835   3.155   5.519
 4086TIP3    H112222   1.795   3.228   5.564
 4086TIP3    H212223   1.908   3.128   5.575
 4087TIP3   OH212224   4.613   5.047   4.323
 4087TIP3    H112225   4.677   4.979   4.301
 4087TIP3    H212226   4.612   5.104   4.245
 4088TIP3   OH212227   5.504   6.257   4.645
 4088TIP3    H112228   5.506   6.183   4.706
 4088TIP3    H212229   5.576   6.313   4.673
 4089TIP3   OH212230   4.727   4.958   5.584
 4089TIP3    H112231   4.725   5.022   5.514
 4089TIP3    H212232   4.783   4.888   5.551
 4090TIP3   OH212233   6.631   0.853   0.133
 4090TIP3    H112234   6.677   0.822   0.211
 4090TIP3    H212235   6.590   0.934   0.161
 4091TIP3   OH212236   0.071   6.206   2.764
 4091TIP3    H112237   0.143   6.160   2.807
 4091TIP3    H212238  -0.008   6.156   2.788
 4092TIP3   OH212239   4.859   3.069   1.638
 4092TIP3    H112240   4.953   3.054   1.648
 4092TIP3    H212241   4.852   3.131   1.565
 4093TIP3   OH212242   0.827   5.947   1.966
 4093TIP3    H112243   0.903   5.994   2.000
 4093TIP3    H212244   0.857   5.911   1.883
 4094TIP3   OH212245   6.190   5.334   1.586
 4094TIP3    H112246   6.226   5.381   1.511
 4094TIP3    H212247   6.238   5.251   1.588
 4095TIP3   OH212248   3.850   4.719   0.490
 4095TIP3    H112249   3.888   4.807   0.493
 4095TIP3    H212250   3.771   4.728   0.437
 4096TIP3   OH212251   2.216   5.300   5.759
 4096TIP3    H112252   2.217   5.229   5.694
 4096TIP3    H212253   2.136   5.286   5.809
 4097TIP3   OH212254   2.571   0.678   1.650
 4097TIP3    H112255   2.484   0.717   1.646
 4097TIP3    H212256   2.572   0.614   1.578
 4098TIP3   OH212257   4.154   5.958   2.136
 4098TIP3    H112258   4.117   5.989   2.053
 4098TIP3    H212259   4.081   5.963   2.198
 4099TIP3   OH212260   1.356   2.521   5.750
 4099TIP3    H112261   1.364   2.497   5.843
 4099TIP3    H212262   1.447   2.528   5.719
 4100TIP3   OH212263   3.277   3.014   0.378
 4100TIP3    H112264   3.194   3.059   0.390
 4100TIP3    H212265   3.331   3.076   0.329
 4101TIP3   OH212266   0.706   6.246   2.161
 4101TIP3    H112267   0.785   6.271   2.210
 4101TIP3    H212268   0.638   6.241   2.228
 4102TIP3   OH212269   3.945   5.720   0.379
 4102TIP3    H112270   3.907   5.797   0.422
 4102TIP3    H212271   3.906   5.646   0.426
 4103TIP3   OH212272   5.302   3.211   0.601
 4103TIP3    H112273   5.369   3.235   0.537
 4103TIP3    H212274   5.349   3.202   0.683
 4104TIP3   OH212275   0.732   1.297   5.250
 4104TIP3    H112276   0.730   1.380   5.297
 4104TIP3    H212277   0.713   1.319   5.159
 4105TIP3   OH212278   6.771   6.386   2.144
 4105TIP3    H112279   6.799   6.336   2.220
 4105TIP3    H212280   6.825   6.465   2.146
 4106TIP3   OH212281   2.240   4.660   5.249
 4106TIP3    H112282   2.305   4.594   5.272
 4106TIP3    H212283   2.247   4.725   5.319
 4107TIP3   OH212284   6.213   5.396   5.289
 4107TIP3    H112285   6.144   5.462   5.287
 4107TIP3    H212286   6.294   5.446   5.298
 4108TIP3   OH212287   5.299   3.612   4.780
 4108TIP3    H112288   5.393   3.629   4.775
 4108TIP3    H212289   5.292   3.519   4.799
 4109TIP3   OH212290   5.553   1.390   2.242
 4109TIP3    H112291   5.508   1.418   2.162
 4109TIP3    H212292   5.634   1.440   2.242
 4110TIP3   OH212293   0.541   0.414   4.203
 4110TIP3    H112294   0.451   0.393   4.226
 4110TIP3    H212295   0.593   0.385   4.278
 4111TIP3   OH212296   1.335   1.659   1.936
 4111TIP3    H112297   1.389   1.677   1.859
 4111TIP3    H212298   1.348   1.735   1.992
 4112TIP3   OH212299   3.482   2.551   1.742
 4112TIP3    H112300   3.505   2.644   1.750
 4112TIP3    H212301   3.447   2.528   1.828
 4113TIP3   OH212302   5.547   6.594   3.772
 4113TIP3    H112303   5.626   6.638   3.804
 4113TIP3    H212304   5.475   6.652   3.797
 4114TIP3   OH212305   2.194   1.613   4.281
 4114TIP3    H112306   2.289   1.610   4.273
 4114TIP3    H212307   2.163   1.602   4.191
 4115TIP3   OH212308   2.189   2.961   0.203
 4115TIP3    H112309   2.100   2.990   0.223
 4115TIP3    H212310   2.180   2.915   0.120
 4116TIP3   OH212311   4.483   0.206   1.334
 4116TIP3    H112312   4.517   0.195   1.245
 4116TIP3    H212313   4.552   0.169   1.390
 4117TIP3   OH212314   2.227   4.524   4.935
 4117TIP3    H112315   2.280   4.572   4.871
 4117TIP3    H212316   2.248   4.563   5.019
 4118TIP3   OH212317   4.811   5.167   2.273
 4118TIP3    H112318   4.789   5.146   2.183
 4118TIP3    H212319   4.888   5.113   2.292
 4119TIP3   OH212320   4.992   6.487   0.726
 4119TIP3    H112321   4.976   6.467   0.818
 4119TIP3    H212322   5.045   6.567   0.727
 4120TIP3   OH212323   0.819   1.195   3.899
 4120TIP3    H112324   0.800   1.109   3.937
 4120TIP3    H212325   0.890   1.179   3.838
 4121TIP3   OH212326   2.776   1.889   1.790
 4121TIP3    H112327   2.699   1.938   1.762
 4121TIP3    H212328   2.846   1.920   1.732
 4122TIP3   OH212329   0.949   4.491   1.547
 4122TIP3    H112330   0.960   4.441   1.466
 4122TIP3    H212331   0.891   4.438   1.601
 4123TIP3   OH212332   0.208   1.251   1.532
 4123TIP3    H112333   0.196   1.219   1.442
 4123TIP3    H212334   0.130   1.303   1.550
 4124TIP3   OH212335   2.143   1.201   1.964
 4124TIP3    H112336   2.238   1.189   1.959
 4124TIP3    H212337   2.111   1.117   1.998
 4125TIP3   OH212338   6.499   2.598   4.399
 4125TIP3    H112339   6.571   2.539   4.377
 4125TIP3    H212340   6.541   2.678   4.429
 4126TIP3   OH212341   3.226   5.583   0.065
 4126TIP3    H112342   3.185   5.596   0.150
 4126TIP3    H212343   3.268   5.497   0.071
 4127TIP3   OH212344   5.747   4.598   3.118
 4127TIP3    H112345   5.737   4.506   3.093
 4127TIP3    H212346   5.776   4.642   3.037
 4128TIP3   OH212347   6.894   3.272   0.073
 4128TIP3    H112348   6.943   3.286   0.154
 4128TIP3    H212349   6.839   3.350   0.065
 4129TIP3   OH212350   2.696   5.241   3.117
 4129TIP3    H112351   2.648   5.170   3.074
 4129TIP3    H212352   2.755   5.198   3.178
 4130TIP3   OH212353   5.775   4.371   5.456
 4130TIP3    H112354   5.777   4.370   5.360
 4130TIP3    H212355   5.867   4.380   5.481
 4131TIP3   OH212356   2.276   6.433   1.870
 4131TIP3    H112357   2.346   6.481   1.826
 4131TIP3    H212358   2.264   6.354   1.817
 4132TIP3   OH212359   1.825   3.694   5.148
 4132TIP3    H112360   1.747   3.738   5.183
 4132TIP3    H212361   1.802   3.601   5.147
 4133TIP3   OH212362   3.303   3.433   1.593
 4133TIP3    H112363   3.219   3.465   1.626
 4133TIP3    H212364   3.368   3.493   1.631
 4134TIP3   OH212365   1.381   1.849   5.808
 4134TIP3    H112366   1.333   1.904   5.746
 4134TIP3    H212367   1.473   1.866   5.789
 4135TIP3   OH212368   4.533   0.118   5.332
 4135TIP3    H112369   4.592   0.043   5.338
 4135TIP3    H212370   4.584   0.192   5.364
 4136TIP3   OH212371   5.985   0.585   3.406
 4136TIP3    H112372   6.054   0.611   3.345
 4136TIP3    H212373   6.014   0.500   3.440
 4137TIP3   OH212374   6.695   6.689   2.200
 4137TIP3    H112375   6.734   6.769   2.164
 4137TIP3    H212376   6.601   6.702   2.187
 4138TIP3   OH212377   6.920   1.801   5.586
 4138TIP3    H112378   6.887   1.862   5.652
 4138TIP3    H212379   7.014   1.794   5.605
 4139TIP3   OH212380   2.677   0.034   0.847
 4139TIP3    H112381   2.708   0.025   0.757
 4139TIP3    H212382   2.687   0.127   0.866
 4140TIP3   OH212383   1.290   4.977   3.411
 4140TIP3    H112384   1.385   4.969   3.398
 4140TIP3    H212385   1.260   4.887   3.420
 4141TIP3   OH212386   5.592   0.571   4.007
 4141TIP3    H112387   5.643   0.491   4.016
 4141TIP3    H212388   5.646   0.639   4.047
 4142TIP3   OH212389   3.175   1.707   2.322
 4142TIP3    H112390   3.227   1.782   2.350
 4142TIP3    H212391   3.217   1.631   2.363
 4143TIP3   OH212392   4.766   1.064   3.954
 4143TIP3    H112393   4.738   1.152   3.931
 4143TIP3    H212394   4.693   1.028   4.004
 4144TIP3   OH212395   5.466   5.129   3.250
 4144TIP3    H112396   5.382   5.165   3.279
 4144TIP3    H212397   5.486   5.061   3.314
 4145TIP3   OH212398   3.146   0.717   0.161
 4145TIP3    H112399   3.080   0.762   0.214
 4145TIP3    H212400   3.199   0.670   0.224
 4146TIP3   OH212401   6.532   2.172   5.496
 4146TIP3    H112402   6.499   2.144   5.581
 4146TIP3    H212403   6.460   2.158   5.436
 4147TIP3   OH212404   5.474   2.345   4.363
 4147TIP3    H112405   5.488   2.376   4.452
 4147TIP3    H212406   5.470   2.250   4.372
 4148TIP3   OH212407   2.297   0.429   1.325
 4148TIP3    H112408   2.315   0.352   1.272
 4148TIP3    H212409   2.213   0.462   1.292
 4149TIP3   OH212410   3.186   2.679   4.709
 4149TIP3    H112411   3.184   2.770   4.738
 4149TIP3    H212412   3.097   2.648   4.725
 4150TIP3   OH212413   0.322   6.671   5.152
 4150TIP3    H112414   0.327   6.638   5.063
 4150TIP3    H212415   0.296   6.596   5.205
 4151TIP3   OH212416   0.308   6.635   1.433
 4151TIP3    H112417   0.347   6.630   1.346
 4151TIP3    H212418   0.221   6.672   1.418
 4152TIP3   OH212419   5.599   3.991   1.442
 4152TIP3    H112420   5.666   3.976   1.376
 4152TIP3    H212421   5.526   4.032   1.394
 4153TIP3   OH212422   6.839   6.728   0.864
 4153TIP3    H112423   6.828   6.736   0.959
 4153TIP3    H212424   6.871   6.639   0.850
 4154TIP3   OH212425   6.208   4.477   0.107
 4154TIP3    H112426   6.134   4.472   0.167
 4154TIP3    H212427   6.172   4.451   0.022
 4155TIP3   OH212428   4.315   1.414   0.597
 4155TIP3    H112429   4.382   1.353   0.627
 4155TIP3    H212430   4.234   1.363   0.597
 4156TIP3   OH212431   4.131   3.807   3.973
 4156TIP3    H112432   4.210   3.849   3.941
 4156TIP3    H212433   4.156   3.715   3.987
 4157TIP3   OH212434   5.442   4.887   1.732
 4157TIP3    H112435   5.372   4.945   1.765
 4157TIP3    H212436   5.464   4.923   1.647
 4158TIP3   OH212437   2.259   6.260   2.643
 4158TIP3    H112438   2.272   6.170   2.615
 4158TIP3    H212439   2.186   6.292   2.591
 4159TIP3   OH212440   3.801   3.870   1.260
 4159TIP3    H112441   3.821   3.829   1.344
 4159TIP3    H212442   3.772   3.798   1.205
 4160TIP3   OH212443   0.115   0.187   2.524
 4160TIP3    H112444   0.202   0.193   2.565
 4160TIP3    H212445   0.099   0.093   2.516
 4161TIP3   OH212446   0.418   5.266   3.494
 4161TIP3    H112447   0.336   5.307   3.521
 4161TIP3    H212448   0.454   5.230   3.575
 4162TIP3   OH212449   4.817   2.834   2.612
 4162TIP3    H112450   4.907   2.846   2.642
 4162TIP3    H212451   4.794   2.918   2.572
 4163TIP3   OH212452   5.253   3.612   5.679
 4163TIP3    H112453   5.234   3.553   5.606
 4163TIP3    H212454   5.167   3.645   5.706
 4164TIP3   OH212455   2.937   2.288   1.069
 4164TIP3    H112456   2.866   2.283   1.133
 4164TIP3    H212457   2.996   2.216   1.092
 4165TIP3   OH212458   2.817   6.229   3.073
 4165TIP3    H112459   2.837   6.228   2.979
 4165TIP3    H212460   2.727   6.260   3.079
 4166TIP3   OH212461   0.027   5.036   0.081
 4166TIP3    H112462  -0.040   4.971   0.060
 4166TIP3    H212463   0.085   4.992   0.143
 4167TIP3   OH212464   2.591   5.023   5.392
 4167TIP3    H112465   2.539   5.060   5.321
 4167TIP3    H212466   2.572   4.929   5.389
 4168TIP3   OH212467   2.331   1.062   2.436
 4168TIP3    H112468   2.358   1.004   2.364
 4168TIP3    H212469   2.393   1.043   2.506
 4169TIP3   OH212470   3.216   5.382   5.363
 4169TIP3    H112471   3.192   5.394   5.271
 4169TIP3    H212472   3.208   5.288   5.378
 4170TIP3   OH212473   0.606   5.786   0.480
 4170TIP3    H112474   0.632   5.702   0.442
 4170TIP3    H212475   0.513   5.776   0.499
 4171TIP3   OH212476   3.321   6.395   2.465
 4171TIP3    H112477   3.355   6.477   2.500
 4171TIP3    H212478   3.355   6.328   2.524
 4172TIP3   OH212479   0.334   1.657   1.479
 4172TIP3    H112480   0.377   1.575   1.502
 4172TIP3    H212481   0.406   1.721   1.472
 4173TIP3   OH212482   4.413   6.520   4.012
 4173TIP3    H112483   4.473   6.502   4.085
 4173TIP3    H212484   4.399   6.435   3.971
 4174TIP3   OH212485   2.716   1.639   4.433
 4174TIP3    H112486   2.714   1.727   4.395
 4174TIP3    H212487   2.808   1.614   4.432
 4175TIP3   OH212488   3.963   6.288   3.285
 4175TIP3    H112489   4.003   6.221   3.341
 4175TIP3    H212490   3.881   6.248   3.256
 4176TIP3   OH212491   6.165   0.032   0.114
 4176TIP3    H112492   6.165   0.115   0.066
 4176TIP3    H212493   6.239   0.040   0.175
 4177TIP3   OH212494   1.221   0.202   2.481
 4177TIP3    H112495   1.146   0.185   2.539
 4177TIP3    H212496   1.249   0.115   2.452
 4178TIP3   OH212497   5.734   3.886   2.788
 4178TIP3    H112498   5.737   3.807   2.734
 4178TIP3    H212499   5.789   3.949   2.743
 4179TIP3   OH212500   0.943   3.387   1.262
 4179TIP3    H112501   0.873   3.323   1.275
 4179TIP3    H212502   0.974   3.407   1.351
 4180TIP3   OH212503   6.640   3.708   1.409
 4180TIP3    H112504   6.616   3.622   1.444
 4180TIP3    H212505   6.734   3.702   1.393
 4181TIP3   OH212506   3.689   5.619   5.216
 4181TIP3    H112507   3.748   5.550   5.246
 4181TIP3    H212508   3.739   5.700   5.228
 4182TIP3   OH212509   0.284   5.210   1.847
 4182TIP3    H112510   0.340   5.287   1.858
 4182TIP3    H212511   0.275   5.199   1.753
 4183TIP3   OH212512   1.557   2.635   4.574
 4183TIP3    H112513   1.474   2.611   4.532
 4183TIP3    H212514   1.532   2.704   4.637
 4184TIP3   OH212515   6.244   3.638   2.311
 4184TIP3    H112516   6.246   3.576   2.384
 4184TIP3    H212517   6.217   3.586   2.236
 4185TIP3   OH212518   5.909   3.928   4.075
 4185TIP3    H112519   5.992   3.972   4.056
 4185TIP3    H212520   5.932   3.837   4.089
 4186TIP3   OH212521   0.309   6.507   1.002
 4186TIP3    H112522   0.220   6.501   1.036
 4186TIP3    H212523   0.349   6.423   1.023
 4187TIP3   OH212524   0.248   4.092   3.414
 4187TIP3    H112525   0.285   4.163   3.467
 4187TIP3    H212526   0.154   4.097   3.430
 4188TIP3   OH212527   6.588   4.688   3.729
 4188TIP3    H112528   6.618   4.777   3.709
 4188TIP3    H212529   6.624   4.669   3.815
 4189TIP3   OH212530   3.822   4.874   2.482
 4189TIP3    H112531   3.817   4.859   2.577
 4189TIP3    H212532   3.915   4.890   2.466
 4190TIP3   OH212533   6.386   2.352   3.624
 4190TIP3    H112534   6.406   2.287   3.691
 4190TIP3    H212535   6.298   2.383   3.646
 4191TIP3   OH212536   3.571   2.046   1.211
 4191TIP3    H112537   3.626   1.993   1.154
 4191TIP3    H212538   3.606   2.032   1.299
 4192TIP3   OH212539   2.286   4.657   1.864
 4192TIP3    H112540   2.281   4.664   1.768
 4192TIP3    H212541   2.224   4.722   1.896
 4193TIP3   OH212542   6.369   6.310   1.121
 4193TIP3    H112543   6.437   6.262   1.169
 4193TIP3    H212544   6.352   6.257   1.044
 4194TIP3   OH212545   6.938   2.159   3.752
 4194TIP3    H112546   6.967   2.090   3.692
 4194TIP3    H212547   6.845   2.172   3.730
 4195TIP3   OH212548   2.572   4.647   2.890
 4195TIP3    H112549   2.632   4.684   2.955
 4195TIP3    H212550   2.594   4.554   2.887
 4196TIP3   OH212551   1.046   1.135   3.756
 4196TIP3    H112552   1.073   1.116   3.666
 4196TIP3    H212553   1.002   1.056   3.785
 4197TIP3   OH212554   5.466   2.985   4.777
 4197TIP3    H112555   5.381   2.998   4.820
 4197TIP3    H212556   5.486   2.893   4.793
 4198TIP3   OH212557   6.409   4.750   5.045
 4198TIP3    H112558   6.503   4.743   5.064
 4198TIP3    H212559   6.367   4.698   5.113
 4199TIP3   OH212560   3.387   6.209   0.503
 4199TIP3    H112561   3.327   6.140   0.529
 4199TIP3    H212562   3.391   6.204   0.408
 4200TIP3   OH212563   2.728   2.476   0.766
 4200TIP3    H112564   2.783   2.552   0.784
 4200TIP3    H212565   2.786   2.401   0.776
 4201TIP3   OH212566   6.094   3.243   5.641
 4201TIP3    H112567   6.084   3.311   5.574
 4201TIP3    H212568   6.183   3.257   5.675
 4202TIP3   OH212569   0.253   1.237   4.744
 4202TIP3    H112570   0.184   1.171   4.753
 4202TIP3    H212571   0.321   1.210   4.805
 4203TIP3   OH212572   6.501   2.966   2.727
 4203TIP3    H112573   6.459   3.026   2.788
 4203TIP3    H212574   6.432   2.943   2.665
 4204TIP3   OH212575   6.500   6.347   4.830
 4204TIP3    H112576   6.516   6.442   4.836
 4204TIP3    H212577   6.570   6.308   4.882
 4205TIP3   OH212578   0.475   1.764   0.650
 4205TIP3    H112579   0.563   1.790   0.622
 4205TIP3    H212580   0.484   1.672   0.674
 4206TIP3   OH212581   2.667   2.868   5.277
 4206TIP3    H112582   2.724   2.794   5.297
 4206TIP3    H212583   2.603   2.869   5.348
 4207TIP3   OH212584   3.269   5.671   0.738
 4207TIP3    H112585   3.235   5.585   0.712
 4207TIP3    H212586   3.246   5.729   0.666
 4208TIP3   OH212587   4.264   4.063   0.146
 4208TIP3    H112588   4.228   4.088   0.061
 4208TIP3    H212589   4.187   4.047   0.200
 4209TIP3   OH212590   2.101   2.666   0.159
 4209TIP3    H112591   2.170   2.657   0.225
 4209TIP3    H212592   2.055   2.582   0.160
 4210TIP3   OH212593   2.829   4.602   4.000
 4210TIP3    H112594   2.774   4.575   3.927
 4210TIP3    H212595   2.869   4.684   3.970
 4211TIP3   OH212596   5.498   3.838   5.308
 4211TIP3    H112597   5.466   3.833   5.218
 4211TIP3    H212598   5.530   3.928   5.318
 4212TIP3   OH212599   3.349   3.244   2.804
 4212TIP3    H112600   3.358   3.278   2.714
 4212TIP3    H212601   3.256   3.223   2.811
 4213TIP3   OH212602   3.000   3.402   4.281
 4213TIP3    H112603   3.041   3.402   4.367
 4213TIP3    H212604   3.036   3.479   4.237
 4214TIP3   OH212605   3.332  -0.085   5.565
 4214TIP3    H112606   3.333   0.000   5.520
 4214TIP3    H212607   3.253  -0.083   5.618
 4215TIP3   OH212608   6.324   3.498   0.569
 4215TIP3    H112609   6.247   3.453   0.605
 4215TIP3    H212610   6.399   3.454   0.610
 4216TIP3   OH212611   0.606   5.713   4.711
 4216TIP3    H112612   0.554   5.642   4.748
 4216TIP3    H212613   0.697   5.691   4.734
 4217TIP3   OH212614   2.537   4.078   2.079
 4217TIP3    H112615   2.515   4.071   2.172
 4217TIP3    H212616   2.583   3.996   2.060
 4218TIP3   OH212617   6.375   1.209   5.131
 4218TIP3    H112618   6.298   1.265   5.136
 4218TIP3    H212619   6.449   1.271   5.128
 4219TIP3   OH212620   6.639   6.228   3.321
 4219TIP3    H112621   6.687   6.232   3.403
 4219TIP3    H212622   6.642   6.136   3.294
 4220TIP3   OH212623   7.059   5.609   1.699
 4220TIP3    H112624   6.984   5.551   1.685
 4220TIP3    H212625   7.064   5.620   1.794
 4221TIP3   OH212626   1.121   0.713   3.795
 4221TIP3    H112627   1.085   0.637   3.750
 4221TIP3    H212628   1.044   0.758   3.831
 4222TIP3   OH212629   0.125   1.047   4.095
 4222TIP3    H112630   0.123   1.142   4.109
 4222TIP3    H212631   0.035   1.025   4.069
 4223TIP3   OH212632   5.364   5.958   4.618
 4223TIP3    H112633   5.304   6.029   4.643
 4223TIP3    H212634   5.359   5.896   4.690
 4224TIP3   OH212635   7.137   6.360  -0.024
 4224TIP3    H112636   7.168   6.333   0.062
 4224TIP3    H212637   7.210   6.342  -0.083
 4225TIP3   OH212638   3.747   3.481   4.357
 4225TIP3    H112639   3.679   3.527   4.406
 4225TIP3    H212640   3.829   3.518   4.390
 4226TIP3   OH212641   3.972   6.011   5.044
 4226TIP3    H112642   4.017   5.972   4.969
 4226TIP3    H212643   3.884   6.031   5.011
 4227TIP3   OH212644   1.889   5.902   0.844
 4227TIP3    H112645   1.818   5.861   0.893
 4227TIP3    H212646   1.888   5.993   0.872
 4228TIP3   OH212647   1.973   3.227   0.806
 4228TIP3    H112648   1.918   3.223   0.728
 4228TIP3    H212649   2.053   3.271   0.776
 4229TIP3   OH212650   2.688   6.086   1.019
 4229TIP3    H112651   2.699   6.091   1.114
 4229TIP3    H212652   2.763   6.034   0.989
 4230TIP3   OH212653   1.884   5.848   1.512
 4230TIP3    H112654   1.853   5.906   1.582
 4230TIP3    H212655   1.921   5.773   1.558
 4231TIP3   OH212656   6.258   1.342   2.834
 4231TIP3    H112657   6.282   1.279   2.902
 4231TIP3    H212658   6.163   1.351   2.841
 4232TIP3   OH212659   1.901   4.861   5.524
 4232TIP3    H112660   1.822   4.808   5.527
 4232TIP3    H212661   1.962   4.809   5.472
 4233TIP3   OH212662   0.798   3.688   4.767
 4233TIP3    H112663   0.806   3.682   4.672
 4233TIP3    H212664   0.866   3.630   4.800
 4234TIP3   OH212665   5.253   5.930   3.584
 4234TIP3    H112666   5.342   5.906   3.559
 4234TIP3    H212667   5.257   6.024   3.604
 4235TIP3   OH212668   4.753   3.321   3.306
 4235TIP3    H112669   4.672   3.336   3.257
 4235TIP3    H212670   4.819   3.305   3.239
 4236TIP3   OH212671   2.348   1.831   5.365
 4236TIP3    H112672   2.320   1.905   5.312
 4236TIP3    H212673   2.420   1.866   5.418
 4237TIP3   OH212674   5.203   2.394   2.774
 4237TIP3    H112675   5.278   2.435   2.731
 4237TIP3    H212676   5.185   2.450   2.849
 4238TIP3   OH212677   6.699   4.844   2.533
 4238TIP3    H112678   6.785   4.815   2.504
 4238TIP3    H212679   6.709   4.938   2.549
 4239TIP3   OH212680   1.083   2.792   2.269
 4239TIP3    H112681   1.115   2.726   2.207
 4239TIP3    H212682   1.114   2.875   2.234
 4240TIP3   OH212683   1.715   2.178   4.187
 4240TIP3    H112684   1.694   2.099   4.238
 4240TIP3    H212685   1.759   2.235   4.250
 4241TIP3   OH212686   6.694   5.290   3.329
 4241TIP3    H112687   6.701   5.311   3.236
 4241TIP3    H212688   6.716   5.372   3.373
 4242TIP3   OH212689   5.386   6.390   0.259
 4242TIP3    H112690   5.313   6.448   0.240
 4242TIP3    H212691   5.348   6.319   0.310
 4243TIP3   OH212692   5.480   0.764   0.820
 4243TIP3    H112693   5.573   0.779   0.837
 4243TIP3    H212694   5.436   0.797   0.899
 4244TIP3   OH212695   5.000   4.469   2.654
 4244TIP3    H112696   4.949   4.518   2.589
 4244TIP3    H212697   4.996   4.378   2.624
 4245TIP3   OH212698   5.863   2.625   3.637
 4245TIP3    H112699   5.931   2.648   3.700
 4245TIP3    H212700   5.871   2.530   3.627
 4246TIP3   OH212701   3.441   5.138   4.097
 4246TIP3    H112702   3.407   5.050   4.083
 4246TIP3    H212703   3.398   5.168   4.177
 4247TIP3   OH212704   4.365   0.731   3.466
 4247TIP3    H112705   4.408   0.655   3.428
 4247TIP3    H212706   4.272   0.707   3.469
 4248TIP3   OH212707   2.839   6.127   1.795
 4248TIP3    H112708   2.912   6.156   1.850
 4248TIP3    H212709   2.859   6.161   1.708
 4249TIP3   OH212710   5.410   1.557   1.608
 4249TIP3    H112711   5.435   1.638   1.652
 4249TIP3    H212712   5.327   1.577   1.566
 4250TIP3   OH212713   0.250   2.004   1.259
 4250TIP3    H112714   0.338   1.991   1.225
 4250TIP3    H212715   0.198   2.029   1.183
 4251TIP3   OH212716   5.041   3.104   2.071
 4251TIP3    H112717   5.031   3.014   2.104
 4251TIP3    H212718   5.058   3.094   1.978
 4252TIP3   OH212719   4.263   3.971   3.418
 4252TIP3    H112720   4.220   3.903   3.469
 4252TIP3    H212721   4.324   4.012   3.480
 4253TIP3   OH212722   1.443   5.313   2.594
 4253TIP3    H112723   1.396   5.229   2.603
 4253TIP3    H212724   1.401   5.370   2.659
 4254TIP3   OH212725   0.784   1.832   5.300
 4254TIP3    H112726   0.811   1.849   5.210
 4254TIP3    H212727   0.857   1.782   5.338
 4255TIP3   OH212728   4.097   5.055   3.781
 4255TIP3    H112729   4.085   5.088   3.870
 4255TIP3    H212730   4.157   4.981   3.792
 4256TIP3   OH212731   0.288   1.444   5.166
 4256TIP3    H112732   0.353   1.375   5.182
 4256TIP3    H212733   0.285   1.493   5.249
 4257TIP3   OH212734   3.376   2.907   2.085
 4257TIP3    H112735   3.374   2.898   2.180
 4257TIP3    H212736   3.425   2.988   2.070
 4258TIP3   OH212737   3.136   1.874   1.149
 4258TIP3    H112738   3.092   1.837   1.226
 4258TIP3    H212739   3.176   1.798   1.107
 4259TIP3   OH212740   3.821   1.653   0.849
 4259TIP3    H112741   3.792   1.732   0.893
 4259TIP3    H212742   3.916   1.661   0.844
 4260TIP3   OH212743   5.787   6.225   2.939
 4260TIP3    H112744   5.862   6.212   2.997
 4260TIP3    H212745   5.827   6.234   2.852
 4261TIP3   OH212746   4.367   5.231   5.420
 4261TIP3    H112747   4.365   5.156   5.361
 4261TIP3    H212748   4.414   5.199   5.497
 4262TIP3   OH212749   7.060   5.753   0.936
 4262TIP3    H112750   7.132   5.691   0.945
 4262TIP3    H212751   7.006   5.739   1.014
 4263TIP3   OH212752   1.995   0.247   1.436
 4263TIP3    H112753   2.033   0.261   1.350
 4263TIP3    H212754   1.909   0.208   1.418
 4264TIP3   OH212755   0.353   2.178   0.702
 4264TIP3    H112756   0.443   2.206   0.719
 4264TIP3    H212757   0.300   2.257   0.716
 4265TIP3   OH212758   1.809   2.662   4.644
 4265TIP3    H112759   1.723   2.637   4.610
 4265TIP3    H212760   1.843   2.725   4.581
 4266TIP3   OH212761   5.656   2.439   2.950
 4266TIP3    H112762   5.604   2.519   2.940
 4266TIP3    H212763   5.703   2.431   2.867
 4267TIP3   OH212764   7.035   4.699   3.882
 4267TIP3    H112765   6.968   4.663   3.824
 4267TIP3    H212766   7.117   4.660   3.852
 4268TIP3   OH212767   1.218   0.446   1.707
 4268TIP3    H112768   1.138   0.403   1.738
 4268TIP3    H212769   1.193   0.538   1.696
 4269TIP3   OH212770   5.418   1.444   1.990
 4269TIP3    H112771   5.329   1.479   1.998
 4269TIP3    H212772   5.408   1.361   1.945
 4270TIP3   OH212773   1.256   1.996   0.056
 4270TIP3    H112774   1.233   1.909   0.089
 4270TIP3    H212775   1.309   1.978  -0.022
 4271TIP3   OH212776   0.252   6.067   4.219
 4271TIP3    H112777   0.259   6.040   4.311
 4271TIP3    H212778   0.159   6.057   4.198
 4272TIP3   OH212779   5.590   4.168   2.027
 4272TIP3    H112780   5.605   4.212   1.943
 4272TIP3    H212781   5.663   4.197   2.082
 4273TIP3   OH212782   4.851   0.078   4.434
 4273TIP3    H112783   4.778   0.120   4.389
 4273TIP3    H212784   4.835   0.093   4.527
 4274TIP3   OH212785   5.939   3.542   0.232
 4274TIP3    H112786   5.898   3.548   0.318
 4274TIP3    H212787   6.025   3.582   0.243
 4275TIP3   OH212788   0.495   5.887   0.996
 4275TIP3    H112789   0.522   5.972   1.030
 4275TIP3    H212790   0.459   5.906   0.909
 4276TIP3   OH212791   1.620   2.734   5.900
 4276TIP3    H112792   1.595   2.744   5.808
 4276TIP3    H212793   1.664   2.649   5.903
 4277TIP3   OH212794   0.507   6.038   3.692
 4277TIP3    H112795   0.558   6.113   3.662
 4277TIP3    H212796   0.491   5.987   3.612
 4278TIP3   OH212797   1.150   3.256   0.844
 4278TIP3    H112798   1.085   3.256   0.915
 4278TIP3    H212799   1.232   3.280   0.887
 4279TIP3   OH212800   3.180   4.726   4.753
 4279TIP3    H112801   3.121   4.752   4.682
 4279TIP3    H212802   3.170   4.631   4.758
 4280TIP3   OH212803   2.649   6.172   3.618
 4280TIP3    H112804   2.559   6.169   3.649
 4280TIP3    H212805   2.647   6.128   3.534
 4281TIP3   OH212806   3.563   2.278   1.927
 4281TIP3    H112807   3.601   2.302   1.843
 4281TIP3    H212808   3.475   2.316   1.925
 4282TIP3   OH212809   0.452   2.546   3.614
 4282TIP3    H112810   0.424   2.459   3.585
 4282TIP3    H212811   0.380   2.604   3.588
 4283TIP3   OH212812   6.602   2.503   5.295
 4283TIP3    H112813   6.521   2.461   5.321
 4283TIP3    H212814   6.668   2.470   5.357
 4284TIP3   OH212815   3.376   4.108   2.182
 4284TIP3    H112816   3.400   4.072   2.097
 4284TIP3    H212817   3.451   4.089   2.239
 4285TIP3   OH212818   3.311   3.781   1.612
 4285TIP3    H112819   3.264   3.792   1.530
 4285TIP3    H212820   3.255   3.723   1.664
 4286TIP3   OH212821   6.114   1.789   2.749
 4286TIP3    H112822   6.149   1.851   2.686
 4286TIP3    H212823   6.189   1.735   2.774
 4287TIP3   OH212824   6.863   2.565   0.054
 4287TIP3    H112825   6.860   2.562  -0.041
 4287TIP3    H212826   6.857   2.658   0.076
 4288TIP3   OH212827   6.825   6.019   5.826
 4288TIP3    H112828   6.760   5.963   5.784
 4288TIP3    H212829   6.893   5.959   5.856
 4289TIP3   OH212830   3.714   0.407   2.188
 4289TIP3    H112831   3.783   0.399   2.253
 4289TIP3    H212832   3.649   0.342   2.213
 4290TIP3   OH212833   4.495   1.224   0.323
 4290TIP3    H112834   4.456   1.204   0.408
 4290TIP3    H212835   4.585   1.250   0.343
 4291TIP3   OH212836   2.629   1.379   4.730
 4291TIP3    H112837   2.610   1.472   4.712
 4291TIP3    H212838   2.543   1.336   4.727
 4292TIP3   OH212839   5.624   3.930   0.405
 4292TIP3    H112840   5.717   3.936   0.384
 4292TIP3    H212841   5.607   4.005   0.463
 4293TIP3   OH212842   6.368   3.312   2.659
 4293TIP3    H112843   6.459   3.312   2.630
 4293TIP3    H212844   6.365   3.246   2.728
 4294TIP3   OH212845   5.955   3.503   2.426
 4294TIP3    H112846   6.042   3.516   2.465
 4294TIP3    H212847   5.950   3.409   2.412
 4295TIP3   OH212848   3.671   1.106   2.024
 4295TIP3    H112849   3.720   1.061   2.092
 4295TIP3    H212850   3.587   1.126   2.064
 4296TIP3   OH212851   5.733   0.936   5.506
 4296TIP3    H112852   5.708   0.945   5.414
 4296TIP3    H212853   5.819   0.977   5.512
 4297TIP3   OH212854   6.812   5.415   0.259
 4297TIP3    H112855   6.728   5.453   0.286
 4297TIP3    H212856   6.862   5.490   0.225
 4298TIP3   OH212857   1.553   2.488   1.350
 4298TIP3    H112858   1.619   2.419   1.338
 4298TIP3    H212859   1.603   2.563   1.382
 4299TIP3   OH212860   1.787   1.308   1.901
 4299TIP3    H112861   1.763   1.218   1.922
 4299TIP3    H212862   1.840   1.337   1.976
 4300TIP3   OH212863   5.717   4.816   0.248
 4300TIP3    H112864   5.766   4.889   0.211
 4300TIP3    H212865   5.662   4.786   0.176
 4301TIP3   OH212866   4.767   5.004   4.582
 4301TIP3    H112867   4.757   4.935   4.516
 4301TIP3    H212868   4.690   5.059   4.570
 4302TIP3   OH212869   5.599   2.966   0.587
 4302TIP3    H112870   5.617   2.898   0.522
 4302TIP3    H212871   5.556   3.035   0.537
 4303TIP3   OH212872   6.899   6.034   4.287
 4303TIP3    H112873   6.953   5.970   4.242
 4303TIP3    H212874   6.950   6.060   4.364
 4304TIP3   OH212875   5.639   6.567   3.209
 4304TIP3    H112876   5.735   6.571   3.212
 4304TIP3    H212877   5.612   6.593   3.297
 4305TIP3   OH212878   3.400   2.234   0.147
 4305TIP3    H112879   3.342   2.165   0.176
 4305TIP3    H212880   3.365   2.314   0.188
 4306TIP3   OH212881   2.092   3.866   5.119
 4306TIP3    H112882   2.119   3.833   5.205
 4306TIP3    H212883   1.997   3.859   5.119
 4307TIP3   OH212884   3.508   2.839   4.291
 4307TIP3    H112885   3.461   2.903   4.344
 4307TIP3    H212886   3.441   2.778   4.260
 4308TIP3   OH212887   1.398   1.086   0.612
 4308TIP3    H112888   1.465   1.070   0.547
 4308TIP3    H212889   1.322   1.116   0.562
 4309TIP3   OH212890   1.582   0.419   1.295
 4309TIP3    H112891   1.596   0.326   1.317
 4309TIP3    H212892   1.658   0.442   1.241
 4310TIP3   OH212893   0.891   1.286   1.413
 4310TIP3    H112894   0.978   1.296   1.374
 4310TIP3    H212895   0.883   1.191   1.428
 4311TIP3   OH212896   2.177   5.839   5.576
 4311TIP3    H112897   2.139   5.853   5.490
 4311TIP3    H212898   2.121   5.890   5.635
 4312TIP3   OH212899   4.054   3.738   1.826
 4312TIP3    H112900   4.099   3.820   1.808
 4312TIP3    H212901   4.097   3.673   1.771
 4313TIP3   OH212902   2.481   1.328   3.063
 4313TIP3    H112903   2.564   1.310   3.018
 4313TIP3    H212904   2.469   1.422   3.053
 4314TIP3   OH212905   3.686   2.974   0.737
 4314TIP3    H112906   3.649   2.972   0.825
 4314TIP3    H212907   3.611   2.964   0.679
 4315TIP3   OH212908   6.531   3.839   3.670
 4315TIP3    H112909   6.486   3.870   3.748
 4315TIP3    H212910   6.485   3.882   3.597
 4316TIP3   OH212911   6.900   3.035   2.893
 4316TIP3    H112912   6.833   2.984   2.938
 4316TIP3    H212913   6.852   3.082   2.825
 4317TIP3   OH212914   6.257   5.572   4.704
 4317TIP3    H112915   6.318   5.623   4.650
 4317TIP3    H212916   6.228   5.502   4.647
 4318TIP3   OH212917   4.002   6.397   5.307
 4318TIP3    H112918   3.998   6.301   5.303
 4318TIP3    H212919   3.982   6.417   5.399
 4319TIP3   OH212920   3.177   6.417   1.225
 4319TIP3    H112921   3.107   6.363   1.186
 4319TIP3    H212922   3.148   6.432   1.315
 4320TIP3   OH212923   5.406   2.955   5.562
 4320TIP3    H112924   5.454   3.034   5.589
 4320TIP3    H212925   5.354   2.983   5.487
 4321TIP3   OH212926   3.832   4.226   3.829
 4321TIP3    H112927   3.884   4.298   3.793
 4321TIP3    H212928   3.741   4.248   3.807
 4322TIP3   OH212929   6.541   1.565   1.787
 4322TIP3    H112930   6.605   1.625   1.826
 4322TIP3    H212931   6.586   1.481   1.782
 4323TIP3   OH212932   3.917   1.983   5.225
 4323TIP3    H112933   3.828   1.976   5.193
 4323TIP3    H212934   3.908   2.007   5.317
 4324TIP3   OH212935   1.639   4.325   3.526
 4324TIP3    H112936   1.553   4.343   3.487
 4324TIP3    H212937   1.627   4.242   3.572
 4325TIP3   OH212938   3.568   1.940   0.110
 4325TIP3    H112939   3.604   1.945   0.198
 4325TIP3    H212940   3.474   1.922   0.123
 4326TIP3   OH212941   4.522   5.592   0.967
 4326TIP3    H112942   4.616   5.580   0.956
 4326TIP3    H212943   4.491   5.510   1.006
 4327TIP3   OH212944   3.641   3.500   3.611
 4327TIP3    H112945   3.649   3.477   3.703
 4327TIP3    H212946   3.650   3.595   3.609
 4328TIP3   OH212947   0.913   3.915   0.484
 4328TIP3    H112948   0.917   3.838   0.541
 4328TIP3    H212949   0.879   3.882   0.401
 4329TIP3   OH212950   1.650   5.349   3.746
 4329TIP3    H112951   1.724   5.296   3.716
 4329TIP3    H212952   1.599   5.289   3.802
 4330TIP3   OH212953   2.156   5.004   4.172
 4330TIP3    H112954   2.203   4.970   4.248
 4330TIP3    H212955   2.108   5.080   4.206
 4331TIP3   OH212956   0.678   5.785   1.290
 4331TIP3    H112957   0.687   5.827   1.204
 4331TIP3    H212958   0.663   5.858   1.350
 4332TIP3   OH212959   4.329   2.423   2.877
 4332TIP3    H112960   4.237   2.449   2.883
 4332TIP3    H212961   4.376   2.493   2.922
 4333TIP3   OH212962   2.014   6.137   5.514
 4333TIP3    H112963   2.041   6.097   5.432
 4333TIP3    H212964   2.070   6.214   5.523
 4334TIP3   OH212965   5.736   5.210   1.404
 4334TIP3    H112966   5.786   5.255   1.471
 4334TIP3    H212967   5.655   5.261   1.396
 4335TIP3   OH212968   3.669   2.456   4.853
 4335TIP3    H112969   3.685   2.476   4.945
 4335TIP3    H212970   3.574   2.458   4.844
 4336TIP3   OH212971   3.690   1.407   1.293
 4336TIP3    H112972   3.642   1.489   1.300
 4336TIP3    H212973   3.680   1.381   1.202
 4337TIP3   OH212974   5.755   1.993   3.294
 4337TIP3    H112975   5.779   1.987   3.202
 4337TIP3    H212976   5.662   1.974   3.296
 4338TIP3   OH212977   2.055   5.289   2.224
 4338TIP3    H112978   2.096   5.305   2.139
 4338TIP3    H212979   2.129   5.275   2.283
 4339TIP3   OH212980   5.370   3.792   3.146
 4339TIP3    H112981   5.416   3.792   3.062
 4339TIP3    H212982   5.277   3.791   3.123
 4340TIP3   OH212983   4.066   1.079   4.788
 4340TIP3    H112984   4.034   0.990   4.771
 4340TIP3    H212985   4.006   1.113   4.854
 4341TIP3   OH212986   5.017   0.503   5.385
 4341TIP3    H112987   5.053   0.483   5.298
 4341TIP3    H212988   5.019   0.419   5.431
 4342TIP3   OH212989   3.135   0.277   1.866
 4342TIP3    H112990   3.105   0.360   1.830
 4342TIP3    H212991   3.120   0.213   1.795
 4343TIP3   OH212992   4.242   3.778   2.152
 4343TIP3    H112993   4.225   3.692   2.190
 4343TIP3    H212994   4.305   3.819   2.211
 4344TIP3   OH212995   7.199   1.002   3.635
 4344TIP3    H112996   7.192   0.961   3.549
 4344TIP3    H212997   7.110   1.032   3.654
 4345TIP3   OH212998   5.033   2.913   5.791
 4345TIP3    H112999   5.075   2.843   5.741
 4345TIP3    H213000   5.007   2.871   5.873
 4346TIP3   OH213001   3.392   0.474   4.496
 4346TIP3    H113002   3.482   0.468   4.465
 4346TIP3    H213003   3.384   0.403   4.561
 4347TIP3   OH213004   4.634   0.249   1.624
 4347TIP3    H113005   4.662   0.312   1.691
 4347TIP3    H213006   4.643   0.164   1.666
 4348TIP3   OH213007   2.671   4.989   0.384
 4348TIP3    H113008   2.664   4.894   0.387
 4348TIP3    H213009   2.585   5.020   0.356
 4349TIP3   OH213010   1.435   1.847   3.464
 4349TIP3    H113011   1.488   1.795   3.525
 4349TIP3    H213012   1.367   1.787   3.434
 4350TIP3   OH213013   6.755   5.963   3.336
 4350TIP3    H113014   6.785   5.896   3.274
 4350TIP3    H213015   6.809   5.949   3.414
 4351TIP3   OH213016   3.059   2.137   4.844
 4351TIP3    H113017   3.116   2.092   4.782
 4351TIP3    H213018   3.003   2.193   4.789
 4352TIP3   OH213019   5.403   4.899   2.146
 4352TIP3    H113020   5.429   4.818   2.191
 4352TIP3    H213021   5.470   4.963   2.170
 4353TIP3   OH213022   7.178   1.063   1.135
 4353TIP3    H113023   7.087   1.072   1.106
 4353TIP3    H213024   7.221   1.142   1.102
 4354TIP3   OH213025   1.871   4.493   1.787
 4354TIP3    H113026   1.817   4.415   1.795
 4354TIP3    H213027   1.810   4.566   1.804
 4355TIP3   OH213028   5.519   2.684   4.518
 4355TIP3    H113029   5.438   2.734   4.519
 4355TIP3    H213030   5.493   2.597   4.488
 4356TIP3   OH213031   0.155   3.014   2.854
 4356TIP3    H113032   0.121   3.045   2.938
 4356TIP3    H213033   0.245   2.985   2.874
 4357TIP3   OH213034   5.983   3.767   5.541
 4357TIP3    H113035   5.943   3.686   5.509
 4357TIP3    H213036   5.943   3.781   5.626
 4358TIP3   OH213037   4.577   4.388   4.429
 4358TIP3    H113038   4.594   4.324   4.359
 4358TIP3    H213039   4.494   4.362   4.466
 4359TIP3   OH213040   6.340   4.190   0.372
 4359TIP3    H113041   6.390   4.118   0.334
 4359TIP3    H213042   6.376   4.200   0.460
 4360TIP3   OH213043   0.087   6.322   0.610
 4360TIP3    H113044   0.093   6.293   0.701
 4360TIP3    H213045   0.048   6.409   0.616
 4361TIP3   OH213046   6.975   3.797   4.176
 4361TIP3    H113047   6.991   3.843   4.094
 4361TIP3    H213048   6.963   3.705   4.150
 4362TIP3   OH213049   4.327   0.691   4.166
 4362TIP3    H113050   4.297   0.611   4.210
 4362TIP3    H213051   4.382   0.660   4.094
 4363TIP3   OH213052   1.898   5.836   4.780
 4363TIP3    H113053   1.939   5.824   4.866
 4363TIP3    H213054   1.820   5.888   4.797
 4364TIP3   OH213055   1.518   1.650   4.606
 4364TIP3    H113056   1.429   1.622   4.583
 4364TIP3    H213057   1.567   1.644   4.524
 4365TIP3   OH213058   1.753   5.005   3.228
 4365TIP3    H113059   1.741   4.994   3.133
 4365TIP3    H213060   1.803   4.927   3.254
 4366TIP3   OH213061   5.647   0.167   3.791
 4366TIP3    H113062   5.629   0.259   3.775
 4366TIP3    H213063   5.591   0.120   3.729
 4367TIP3   OH213064   3.070   1.165   1.344
 4367TIP3    H113065   3.023   1.159   1.428
 4367TIP3    H213066   3.106   1.253   1.343
 4368TIP3   OH213067   4.743   2.018   3.823
 4368TIP3    H113068   4.768   2.108   3.844
 4368TIP3    H213069   4.737   1.974   3.908
 4369TIP3   OH213070   2.396   6.170   3.699
 4369TIP3    H113071   2.330   6.234   3.725
 4369TIP3    H213072   2.353   6.085   3.712
 4370TIP3   OH213073   1.707   2.750   5.384
 4370TIP3    H113074   1.659   2.714   5.309
 4370TIP3    H213075   1.740   2.834   5.353
 4371TIP3   OH213076   1.034   5.992   2.222
 4371TIP3    H113077   1.096   5.978   2.293
 4371TIP3    H213078   1.014   6.086   2.224
 4372TIP3   OH213079   1.047   2.362   1.345
 4372TIP3    H113080   1.119   2.319   1.298
 4372TIP3    H213081   1.066   2.455   1.337
 4373TIP3   OH213082   5.662   5.215   0.106
 4373TIP3    H113083   5.732   5.150   0.111
 4373TIP3    H213084   5.587   5.172   0.147
 4374TIP3   OH213085   4.787   1.035   4.824
 4374TIP3    H113086   4.873   1.012   4.860
 4374TIP3    H213087   4.782   0.986   4.742
 4375TIP3   OH213088   3.125   1.789   5.327
 4375TIP3    H113089   3.132   1.696   5.308
 4375TIP3    H213090   3.038   1.813   5.297
 4376TIP3   OH213091   2.942   1.072   5.634
 4376TIP3    H113092   2.851   1.043   5.643
 4376TIP3    H213093   2.970   1.089   5.724
 4377TIP3   OH213094   0.253   1.926   0.682
 4377TIP3    H113095   0.295   2.011   0.678
 4377TIP3    H213096   0.324   1.863   0.667
 4378TIP3   OH213097   6.585   5.173   2.680
 4378TIP3    H113098   6.648   5.202   2.745
 4378TIP3    H213099   6.636   5.160   2.600
 4379TIP3   OH213100   5.628   6.637   1.019
 4379TIP3    H113101   5.626   6.619   0.925
 4379TIP3    H213102   5.538   6.622   1.048
 4380TIP3   OH213103   3.563   1.597   4.203
 4380TIP3    H113104   3.541   1.517   4.251
 4380TIP3    H213105   3.608   1.652   4.268
 4381TIP3   OH213106   0.079   5.276   4.620
 4381TIP3    H113107   0.096   5.183   4.636
 4381TIP3    H213108  -0.016   5.283   4.615
 4382TIP3   OH213109   4.896   1.246   5.605
 4382TIP3    H113110   4.966   1.249   5.669
 4382TIP3    H213111   4.847   1.166   5.626
 4383TIP3   OH213112   3.889   3.994   5.068
 4383TIP3    H113113   3.960   3.979   5.006
 4383TIP3    H213114   3.887   3.915   5.121
 4384TIP3   OH213115   0.807   4.121   3.723
 4384TIP3    H113116   0.785   4.029   3.737
 4384TIP3    H213117   0.876   4.119   3.656
 4385TIP3   OH213118   4.334   1.961   3.428
 4385TIP3    H113119   4.343   1.870   3.456
 4385TIP3    H213120   4.297   1.955   3.340
 4386TIP3   OH213121   6.159   5.561   1.729
 4386TIP3    H113122   6.203   5.632   1.684
 4386TIP3    H213123   6.163   5.488   1.667
 4387TIP3   OH213124   1.565   6.039   0.638
 4387TIP3    H113125   1.603   6.013   0.554
 4387TIP3    H213126   1.622   6.109   0.670
 4388TIP3   OH213127   5.951   5.942   2.788
 4388TIP3    H113128   5.857   5.947   2.801
 4388TIP3    H213129   5.984   5.897   2.866
 4389TIP3   OH213130   1.047   1.335   0.929
 4389TIP3    H113131   1.112   1.369   0.867
 4389TIP3    H213132   0.994   1.275   0.877
 4390TIP3   OH213133   0.581   6.153   3.040
 4390TIP3    H113134   0.644   6.116   3.102
 4390TIP3    H213135   0.633   6.178   2.964
 4391TIP3   OH213136   5.921   5.802   4.618
 4391TIP3    H113137   5.869   5.851   4.554
 4391TIP3    H213138   5.997   5.772   4.569
 4392TIP3   OH213139   2.975  -0.050   0.196
 4392TIP3    H113140   2.975   0.040   0.164
 4392TIP3    H213141   2.957  -0.102   0.118
 4393TIP3   OH213142   5.034   5.827   1.555
 4393TIP3    H113143   5.031   5.751   1.612
 4393TIP3    H213144   5.124   5.859   1.561
 4394TIP3   OH213145   1.308   4.667   3.047
 4394TIP3    H113146   1.353   4.629   2.971
 4394TIP3    H213147   1.378   4.693   3.106
 4395TIP3   OH213148   3.921   5.201   4.894
 4395TIP3    H113149   3.946   5.120   4.848
 4395TIP3    H213150   3.986   5.265   4.866
 4396TIP3   OH213151   4.437   3.933   2.285
 4396TIP3    H113152   4.498   4.003   2.309
 4396TIP3    H213153   4.489   3.853   2.293
 4397TIP3   OH213154   5.327   1.458   4.760
 4397TIP3    H113155   5.343   1.373   4.801
 4397TIP3    H213156   5.243   1.487   4.797
 4398TIP3   OH213157   4.543   0.986   4.085
 4398TIP3    H113158   4.450   0.980   4.061
 4398TIP3    H213159   4.546   0.951   4.174
 4399TIP3   OH213160   5.831   2.817   0.994
 4399TIP3    H113161   5.845   2.890   0.935
 4399TIP3    H213162   5.738   2.795   0.983
 4400TIP3   OH213163   0.464   2.890   4.061
 4400TIP3    H113164   0.439   2.906   3.970
 4400TIP3    H213165   0.539   2.947   4.075
 4401TIP3   OH213166   1.809   4.530   0.909
 4401TIP3    H113167   1.729   4.541   0.960
 4401TIP3    H213168   1.817   4.611   0.859
 4402TIP3   OH213169   6.738   1.752   5.384
 4402TIP3    H113170   6.798   1.774   5.456
 4402TIP3    H213171   6.770   1.804   5.310
 4403TIP3   OH213172   6.961   1.979   0.978
 4403TIP3    H113173   6.876   1.937   0.962
 4403TIP3    H213174   7.006   1.972   0.894
 4404TIP3   OH213175   6.787   1.711   3.269
 4404TIP3    H113176   6.808   1.633   3.321
 4404TIP3    H213177   6.815   1.689   3.180
 4405TIP3   OH213178   1.502   5.765   3.370
 4405TIP3    H113179   1.524   5.854   3.398
 4405TIP3    H213180   1.586   5.728   3.342
 4406TIP3   OH213181   1.612   5.307   1.524
 4406TIP3    H113182   1.659   5.312   1.607
 4406TIP3    H213183   1.632   5.389   1.480
 4407TIP3   OH213184   6.238   3.640   1.620
 4407TIP3    H113185   6.290   3.609   1.694
 4407TIP3    H213186   6.174   3.571   1.605
 4408TIP3   OH213187   6.939   2.305   4.179
 4408TIP3    H113188   7.025   2.306   4.221
 4408TIP3    H213189   6.958   2.308   4.085
 4409TIP3   OH213190   7.143   3.271   5.269
 4409TIP3    H113191   7.127   3.350   5.321
 4409TIP3    H213192   7.234   3.281   5.239
 4410TIP3   OH213193   6.699   6.287   4.988
 4410TIP3    H113194   6.698   6.192   5.001
 4410TIP3    H213195   6.706   6.323   5.077
 4411TIP3   OH213196   1.430   5.508   1.784
 4411TIP3    H113197   1.349   5.458   1.784
 4411TIP3    H213198   1.462   5.503   1.874
 4412TIP3   OH213199   3.856   1.551   2.572
 4412TIP3    H113200   3.872   1.524   2.662
 4412TIP3    H213201   3.902   1.485   2.519
 4413TIP3   OH213202   5.151   4.574   3.544
 4413TIP3    H113203   5.122   4.598   3.631
 4413TIP3    H213204   5.189   4.486   3.555
 4414TIP3   OH213205   3.142   5.058   2.959
 4414TIP3    H113206   3.156   5.112   2.882
 4414TIP3    H213207   3.056   5.018   2.947
 4415TIP3   OH213208   4.621   1.312   0.745
 4415TIP3    H113209   4.686   1.290   0.812
 4415TIP3    H213210   4.609   1.406   0.754
 4416TIP3   OH213211   6.279   3.186   1.322
 4416TIP3    H113212   6.333   3.140   1.386
 4416TIP3    H213213   6.213   3.122   1.296
 4417TIP3   OH213214   4.340   0.723   5.579
 4417TIP3    H113215   4.371   0.637   5.608
 4417TIP3    H213216   4.396   0.785   5.624
 4418TIP3   OH213217   1.204   4.999   3.698
 4418TIP3    H113218   1.172   4.963   3.615
 4418TIP3    H213219   1.131   4.985   3.759
 4419TIP3   OH213220   4.626   5.515   5.497
 4419TIP3    H113221   4.700   5.568   5.471
 4419TIP3    H213222   4.549   5.561   5.464
 4420TIP3   OH213223   3.319   0.844   0.900
 4420TIP3    H113224   3.254   0.774   0.896
 4420TIP3    H213225   3.267   0.925   0.892
 4421TIP3   OH213226   3.554   3.998   0.638
 4421TIP3    H113227   3.588   3.944   0.567
 4421TIP3    H213228   3.497   4.062   0.596
 4422TIP3   OH213229   7.107   5.440   2.871
 4422TIP3    H113230   7.107   5.518   2.816
 4422TIP3    H213231   7.189   5.396   2.851
 4423TIP3   OH213232   2.212   5.346   4.912
 4423TIP3    H113233   2.240   5.404   4.983
 4423TIP3    H213234   2.193   5.405   4.839
 4424TIP3   OH213235   6.099   4.369   5.246
 4424TIP3    H113236   6.114   4.370   5.340
 4424TIP3    H213237   6.007   4.347   5.236
 4425TIP3   OH213238   0.545   1.970   3.251
 4425TIP3    H113239   0.635   1.940   3.266
 4425TIP3    H213240   0.495   1.931   3.322
 4426TIP3   OH213241   4.469   1.066   1.053
 4426TIP3    H113242   4.444   1.030   1.138
 4426TIP3    H213243   4.560   1.038   1.041
 4427TIP3   OH213244   6.353   0.174   5.431
 4427TIP3    H113245   6.405   0.095   5.449
 4427TIP3    H213246   6.416   0.235   5.393
 4428TIP3   OH213247   6.299   3.827   4.429
 4428TIP3    H113248   6.327   3.735   4.429
 4428TIP3    H213249   6.369   3.873   4.475
 4429TIP3   OH213250   2.645   2.445   0.107
 4429TIP3    H113251   2.574   2.412   0.052
 4429TIP3    H213252   2.725   2.412   0.065
 4430TIP3   OH213253  -0.012   5.286   4.141
 4430TIP3    H113254  -0.008   5.196   4.110
 4430TIP3    H213255   0.078   5.317   4.138
 4431TIP3   OH213256   4.934   5.913   5.135
 4431TIP3    H113257   4.935   5.977   5.206
 4431TIP3    H213258   4.999   5.848   5.162
 4432TIP3   OH213259   3.436   4.735   4.667
 4432TIP3    H113260   3.475   4.799   4.727
 4432TIP3    H213261   3.345   4.728   4.696
 4433TIP3   OH213262   1.279   5.955   5.851
 4433TIP3    H113263   1.360   6.005   5.845
 4433TIP3    H213264   1.211   6.021   5.866
 4434TIP3   OH213265   6.850   0.723   1.405
 4434TIP3    H113266   6.851   0.753   1.314
 4434TIP3    H213267   6.894   0.792   1.453
 4435TIP3   OH213268   1.670   1.414   3.053
 4435TIP3    H113269   1.604   1.460   3.106
 4435TIP3    H213270   1.736   1.387   3.117
 4436TIP3   OH213271   4.414   3.444   0.891
 4436TIP3    H113272   4.362   3.503   0.836
 4436TIP3    H213273   4.349   3.385   0.929
 4437TIP3   OH213274   3.404   3.769   4.311
 4437TIP3    H113275   3.465   3.740   4.378
 4437TIP3    H213276   3.458   3.815   4.247
 4438TIP3   OH213277   6.418   4.703   1.931
 4438TIP3    H113278   6.419   4.655   1.848
 4438TIP3    H213279   6.412   4.795   1.905
 4439TIP3   OH213280   5.525   1.243   2.515
 4439TIP3    H113281   5.481   1.255   2.431
 4439TIP3    H213282   5.457   1.212   2.574
 4440TIP3   OH213283   2.605   5.971   2.682
 4440TIP3    H113284   2.663   5.949   2.609
 4440TIP3    H213285   2.611   6.067   2.689
 4441TIP3   OH213286   5.517   0.848   0.076
 4441TIP3    H113287   5.440   0.892   0.111
 4441TIP3    H213288   5.533   0.891  -0.008
 4442TIP3   OH213289   6.885   4.594   2.004
 4442TIP3    H113290   6.814   4.652   1.978
 4442TIP3    H213291   6.874   4.516   1.948
 4443TIP3   OH213292   0.940   5.013   5.659
 4443TIP3    H113293   0.861   5.044   5.704
 4443TIP3    H213294   0.981   5.092   5.624
 4444TIP3   OH213295   5.117   4.461   3.933
 4444TIP3    H113296   5.077   4.527   3.877
 4444TIP3    H213297   5.043   4.417   3.976
 4445TIP3   OH213298   4.179   2.186   1.790
 4445TIP3    H113299   4.116   2.140   1.736
 4445TIP3    H213300   4.253   2.204   1.731
 4446TIP3   OH213301   4.212   2.174   1.465
 4446TIP3    H113302   4.213   2.154   1.372
 4446TIP3    H213303   4.283   2.238   1.476
 4447TIP3   OH213304   5.109   4.872   4.238
 4447TIP3    H113305   5.167   4.947   4.227
 4447TIP3    H213306   5.025   4.901   4.201
 4448TIP3   OH213307   2.632   4.289   2.601
 4448TIP3    H113308   2.557   4.328   2.646
 4448TIP3    H213309   2.595   4.215   2.553
 4449TIP3   OH213310   3.406   0.792   1.806
 4449TIP3    H113311   3.402   0.705   1.844
 4449TIP3    H213312   3.499   0.817   1.812
 4450TIP3   OH213313   4.352   1.772   3.019
 4450TIP3    H113314   4.261   1.745   3.023
 4450TIP3    H213315   4.358   1.825   2.939
 4451TIP3   OH213316   7.068   1.865   4.439
 4451TIP3    H113317   6.980   1.868   4.476
 4451TIP3    H213318   7.100   1.955   4.445
 4452TIP3   OH213319   5.641   4.541   5.904
 4452TIP3    H113320   5.551   4.520   5.929
 4452TIP3    H213321   5.639   4.545   5.809
 4453TIP3   OH213322   5.221   5.187   2.407
 4453TIP3    H113323   5.156   5.250   2.439
 4453TIP3    H213324   5.304   5.234   2.409
 4454TIP3   OH213325   2.298   0.588   3.761
 4454TIP3    H113326   2.206   0.590   3.736
 4454TIP3    H213327   2.341   0.536   3.693
 4455TIP3   OH213328   0.527   4.889   0.122
 4455TIP3    H113329   0.615   4.852   0.135
 4455TIP3    H213330   0.529   4.972   0.170
 4456TIP3   OH213331   3.784   5.824   5.777
 4456TIP3    H113332   3.708   5.783   5.819
 4456TIP3    H213333   3.785   5.787   5.688
 4457TIP3   OH213334   0.704   6.289   4.218
 4457TIP3    H113335   0.710   6.195   4.236
 4457TIP3    H213336   0.612   6.303   4.195
 4458TIP3   OH213337   4.469   6.676   1.791
 4458TIP3    H113338   4.500   6.746   1.847
 4458TIP3    H213339   4.549   6.633   1.759
 4459TIP3   OH213340   1.558   1.748   4.297
 4459TIP3    H113341   1.467   1.723   4.285
 4459TIP3    H213342   1.600   1.728   4.213
 4460TIP3   OH213343   2.376   3.245   2.066
 4460TIP3    H113344   2.443   3.180   2.044
 4460TIP3    H213345   2.381   3.308   1.994
 4461TIP3   OH213346   4.599   6.599   1.050
 4461TIP3    H113347   4.575   6.538   0.980
 4461TIP3    H213348   4.645   6.670   1.005
 4462TIP3   OH213349   0.134   5.548   2.633
 4462TIP3    H113350   0.118   5.471   2.579
 4462TIP3    H213351   0.173   5.612   2.573
 4463TIP3   OH213352   1.661   3.327   0.696
 4463TIP3    H113353   1.667   3.402   0.637
 4463TIP3    H213354   1.605   3.358   0.768
 4464TIP3   OH213355   2.312   6.565   4.001
 4464TIP3    H113356   2.272   6.479   3.986
 4464TIP3    H213357   2.312   6.574   4.097
 4465TIP3   OH213358   5.431   2.548   4.131
 4465TIP3    H113359   5.342   2.531   4.102
 4465TIP3    H213360   5.446   2.486   4.202
 4466TIP3   OH213361   5.250   3.052   5.379
 4466TIP3    H113362   5.321   3.112   5.353
 4466TIP3    H213363   5.200   3.101   5.444
 4467TIP3   OH213364   4.995   5.236   3.097
 4467TIP3    H113365   4.900   5.224   3.096
 4467TIP3    H213366   5.010   5.320   3.055
 4468TIP3   OH213367   7.170   5.916   4.198
 4468TIP3    H113368   7.217   5.836   4.175
 4468TIP3    H213369   7.181   5.974   4.123
 4469TIP3   OH213370   6.212   2.246   0.411
 4469TIP3    H113371   6.265   2.284   0.341
 4469TIP3    H213372   6.177   2.322   0.458
 4470TIP3   OH213373   3.896   1.008   4.509
 4470TIP3    H113374   3.801   0.999   4.523
 4470TIP3    H213375   3.933   0.932   4.555
 4471TIP3   OH213376   0.079   4.383   5.891
 4471TIP3    H113377   0.112   4.385   5.801
 4471TIP3    H213378   0.040   4.296   5.900
 4472TIP3   OH213379   5.460   0.573   5.020
 4472TIP3    H113380   5.519   0.627   4.968
 4472TIP3    H213381   5.386   0.556   4.961
 4473TIP3   OH213382   0.764   0.172   1.822
 4473TIP3    H113383   0.683   0.144   1.779
 4473TIP3    H213384   0.756   0.139   1.912
 4474TIP3   OH213385   0.607   6.119   1.713
 4474TIP3    H113386   0.637   6.182   1.779
 4474TIP3    H213387   0.676   6.053   1.709
 4475TIP3   OH213388   2.720   5.008   5.101
 4475TIP3    H113389   2.734   4.946   5.029
 4475TIP3    H213390   2.626   5.001   5.120
 4476TIP3   OH213391   4.411   1.295   4.009
 4476TIP3    H113392   4.348   1.367   4.006
 4476TIP3    H213393   4.412   1.267   4.100
 4477TIP3   OH213394   6.872   6.558   2.374
 4477TIP3    H113395   6.817   6.488   2.409
 4477TIP3    H213396   6.810   6.620   2.335
 4478TIP3   OH213397   3.211   3.782   3.364
 4478TIP3    H113398   3.216   3.695   3.326
 4478TIP3    H213399   3.127   3.785   3.410
 4479TIP3   OH213400   3.860   3.024   1.969
 4479TIP3    H113401   3.934   3.067   2.014
 4479TIP3    H213402   3.888   3.019   1.878
 4480TIP3   OH213403   2.866   3.609   1.376
 4480TIP3    H113404   2.804   3.540   1.349
 4480TIP3    H213405   2.936   3.562   1.420
 4481TIP3   OH213406   5.614   2.304   5.318
 4481TIP3    H113407   5.619   2.242   5.390
 4481TIP3    H213408   5.610   2.250   5.239
 4482TIP3   OH213409   6.307   6.328   5.390
 4482TIP3    H113410   6.272   6.241   5.375
 4482TIP3    H213411   6.292   6.344   5.483
 4483TIP3   OH213412   2.760   4.271   1.221
 4483TIP3    H113413   2.702   4.202   1.254
 4483TIP3    H213414   2.774   4.250   1.129
 4484TIP3   OH213415   1.759   0.121   1.363
 4484TIP3    H113416   1.670   0.142   1.393
 4484TIP3    H213417   1.765   0.026   1.370
 4485TIP3   OH213418   0.031   2.715   1.273
 4485TIP3    H113419  -0.013   2.651   1.330
 4485TIP3    H213420   0.082   2.769   1.333
 4486TIP3   OH213421   3.642   5.351   5.568
 4486TIP3    H113422   3.706   5.388   5.508
 4486TIP3    H213423   3.693   5.299   5.630
 4487TIP3   OH213424   1.098   5.159   2.688
 4487TIP3    H113425   1.166   5.096   2.667
 4487TIP3    H213426   1.099   5.165   2.784
 4488TIP3   OH213427   2.370   2.263   0.348
 4488TIP3    H113428   2.464   2.251   0.360
 4488TIP3    H213429   2.330   2.230   0.428
 4489TIP3   OH213430   3.926   2.788   4.041
 4489TIP3    H113431   3.872   2.725   4.089
 4489TIP3    H213432   3.887   2.792   3.954
 4490TIP3   OH213433   5.118   2.884   3.301
 4490TIP3    H113434   5.044   2.946   3.306
 4490TIP3    H213435   5.194   2.939   3.285
 4491TIP3   OH213436   0.513   1.846   0.941
 4491TIP3    H113437   0.453   1.773   0.954
 4491TIP3    H213438   0.462   1.912   0.895
 4492TIP3   OH213439   1.710   3.654   1.175
 4492TIP3    H113440   1.685   3.585   1.237
 4492TIP3    H213441   1.784   3.618   1.127
 4493TIP3   OH213442   1.110   6.795   2.926
 4493TIP3    H113443   1.137   6.837   3.008
 4493TIP3    H213444   1.191   6.767   2.885
 4494TIP3   OH213445   0.685   1.080   0.733
 4494TIP3    H113446   0.594   1.069   0.761
 4494TIP3    H213447   0.679   1.100   0.640
 4495TIP3   OH213448   2.332   2.787   1.636
 4495TIP3    H113449   2.300   2.856   1.578
 4495TIP3    H213450   2.422   2.813   1.657
 4496TIP3   OH213451   3.093   0.369   4.773
 4496TIP3    H113452   3.120   0.336   4.859
 4496TIP3    H213453   3.045   0.450   4.792
 4497TIP3   OH213454   4.269   4.135   2.140
 4497TIP3    H113455   4.326   4.059   2.147
 4497TIP3    H213456   4.262   4.152   2.046
 4498TIP3   OH213457   1.008   6.533   5.348
 4498TIP3    H113458   1.099   6.503   5.338
 4498TIP3    H213459   1.015   6.618   5.390
 4499TIP3   OH213460   1.830   4.441   4.011
 4499TIP3    H113461   1.918   4.417   4.042
 4499TIP3    H213462   1.798   4.364   3.965
 4500TIP3   OH213463   6.878   5.091   3.695
 4500TIP3    H113464   6.873   5.066   3.602
 4500TIP3    H213465   6.971   5.086   3.716
 4501TIP3   OH213466   3.748   3.946   0.842
 4501TIP3    H113467   3.818   4.011   0.852
 4501TIP3    H213468   3.685   3.988   0.783
 4502TIP3   OH213469   2.522   6.286   4.433
 4502TIP3    H113470   2.555   6.286   4.343
 4502TIP3    H213471   2.490   6.375   4.447
 4503TIP3   OH213472   6.964   0.064   2.985
 4503TIP3    H113473   6.989   0.076   2.893
 4503TIP3    H213474   7.046   0.070   3.034
 4504TIP3   OH213475   0.779   2.471   1.938
 4504TIP3    H113476   0.782   2.490   2.031
 4504TIP3    H213477   0.697   2.423   1.925
 4505TIP3   OH213478   1.501   2.395   4.210
 4505TIP3    H113479   1.570   2.331   4.225
 4505TIP3    H213480   1.464   2.411   4.297
 4506TIP3   OH213481   1.290   0.184   3.890
 4506TIP3    H113482   1.294   0.093   3.920
 4506TIP3    H213483   1.196   0.204   3.887
 4507TIP3   OH213484   5.371   5.704   1.215
 4507TIP3    H113485   5.454   5.703   1.263
 4507TIP3    H213486   5.320   5.634   1.255
 4508TIP3   OH213487   0.546   5.534   3.474
 4508TIP3    H113488   0.498   5.456   3.447
 4508TIP3    H213489   0.604   5.504   3.545
 4509TIP3   OH213490   6.452   5.514   5.381
 4509TIP3    H113491   6.408   5.568   5.446
 4509TIP3    H213492   6.506   5.454   5.433
 4510TIP3   OH213493   0.557   4.618   1.254
 4510TIP3    H113494   0.489   4.622   1.321
 4510TIP3    H213495   0.521   4.666   1.179
 4511TIP3   OH213496   5.325   1.037   2.399
 4511TIP3    H113497   5.239   1.014   2.434
 4511TIP3    H213498   5.375   0.956   2.402
 4512TIP3   OH213499   0.521   5.399   1.550
 4512TIP3    H113500   0.441   5.447   1.568
 4512TIP3    H213501   0.492   5.309   1.533
 4513TIP3   OH213502   6.413   4.037   2.824
 4513TIP3    H113503   6.486   4.077   2.777
 4513TIP3    H213504   6.453   3.967   2.876
 4514TIP3   OH213505   6.830   2.712   5.443
 4514TIP3    H113506   6.748   2.725   5.490
 4514TIP3    H213507   6.873   2.797   5.447
 4515TIP3   OH213508   2.860   5.932   5.581
 4515TIP3    H113509   2.831   5.849   5.544
 4515TIP3    H213510   2.934   5.958   5.525
 4516TIP3   OH213511   7.014   5.246   0.179
 4516TIP3    H113512   6.958   5.317   0.209
 4516TIP3    H213513   7.063   5.218   0.256
 4517TIP3   OH213514   1.661   3.069   3.816
 4517TIP3    H113515   1.650   2.993   3.760
 4517TIP3    H213516   1.699   3.035   3.897
 4518TIP3   OH213517   3.626   5.921   0.942
 4518TIP3    H113518   3.613   5.845   0.999
 4518TIP3    H213519   3.598   5.891   0.856
 4519TIP3   OH213520   1.779   5.427   3.151
 4519TIP3    H113521   1.864   5.450   3.187
 4519TIP3    H213522   1.790   5.431   3.056
 4520TIP3   OH213523   1.182   5.047   1.968
 4520TIP3    H113524   1.098   5.026   1.927
 4520TIP3    H213525   1.247   5.015   1.905
 4521TIP3   OH213526   2.723   6.005   3.164
 4521TIP3    H113527   2.776   6.074   3.122
 4521TIP3    H213528   2.696   5.949   3.092
 4522TIP3   OH213529   3.601   3.792   2.508
 4522TIP3    H113530   3.572   3.883   2.522
 4522TIP3    H213531   3.620   3.788   2.414
 4523TIP3   OH213532   4.705   4.965   5.849
 4523TIP3    H113533   4.729   4.877   5.880
 4523TIP3    H213534   4.697   4.955   5.754
 4524TIP3   OH213535   5.995   1.379   2.575
 4524TIP3    H113536   5.903   1.405   2.574
 4524TIP3    H213537   6.025   1.387   2.485
 4525TIP3   OH213538   1.972   2.178   5.000
 4525TIP3    H113539   1.963   2.224   5.083
 4525TIP3    H213540   1.902   2.212   4.945
 4526TIP3   OH213541   0.883   6.795   1.592
 4526TIP3    H113542   0.922   6.724   1.541
 4526TIP3    H213543   0.934   6.873   1.567
 4527TIP3   OH213544   1.590   1.526   1.045
 4527TIP3    H113545   1.668   1.575   1.019
 4527TIP3    H213546   1.525   1.593   1.064
 4528TIP3   OH213547   4.720   5.247   4.790
 4528TIP3    H113548   4.670   5.228   4.711
 4528TIP3    H213549   4.791   5.303   4.760
 4529TIP3   OH213550   5.661   0.378   0.184
 4529TIP3    H113551   5.722   0.415   0.247
 4529TIP3    H213552   5.636   0.452   0.128
 4530TIP3   OH213553   4.355   3.314   4.044
 4530TIP3    H113554   4.396   3.264   3.973
 4530TIP3    H213555   4.340   3.251   4.113
 4531TIP3   OH213556   4.635   5.135   2.021
 4531TIP3    H113557   4.649   5.182   1.939
 4531TIP3    H213558   4.540   5.131   2.031
 4532TIP3   OH213559   1.414   4.380   3.185
 4532TIP3    H113560   1.428   4.407   3.094
 4532TIP3    H213561   1.326   4.411   3.206
 4533TIP3   OH213562   3.354   2.463   0.319
 4533TIP3    H113563   3.309   2.546   0.329
 4533TIP3    H213564   3.308   2.403   0.378
 4534TIP3   OH213565   1.944   1.629   1.974
 4534TIP3    H113566   1.863   1.628   1.924
 4534TIP3    H213567   1.990   1.708   1.945
 4535TIP3   OH213568   3.130   4.635   1.187
 4535TIP3    H113569   3.103   4.545   1.165
 4535TIP3    H213570   3.185   4.625   1.265
 4536TIP3   OH213571   0.262   4.939   3.727
 4536TIP3    H113572   0.174   4.973   3.739
 4536TIP3    H213573   0.270   4.923   3.633
 4537TIP3   OH213574   5.754   2.824   4.600
 4537TIP3    H113575   5.683   2.775   4.559
 4537TIP3    H213576   5.823   2.759   4.616
 4538TIP3   OH213577   3.233   5.502   3.866
 4538TIP3    H113578   3.298   5.570   3.848
 4538TIP3    H213579   3.171   5.544   3.925
 4539TIP3   OH213580   4.771   1.816   1.274
 4539TIP3    H113581   4.705   1.871   1.317
 4539TIP3    H213582   4.746   1.817   1.182
 4540TIP3   OH213583   1.662   0.759   5.141
 4540TIP3    H113584   1.689   0.739   5.230
 4540TIP3    H213585   1.743   0.770   5.092
 4541TIP3   OH213586   5.039   6.728   5.838
 4541TIP3    H113587   5.063   6.646   5.882
 4541TIP3    H213588   5.104   6.791   5.867
 4542TIP3   OH213589   6.082   6.526   1.417
 4542TIP3    H113590   6.004   6.495   1.370
 4542TIP3    H213591   6.078   6.482   1.502
 4543TIP3   OH213592   4.203   0.334   2.458
 4543TIP3    H113593   4.253   0.289   2.389
 4543TIP3    H213594   4.269   0.384   2.506
 4544TIP3   OH213595   2.280   3.727   4.470
 4544TIP3    H113596   2.198   3.776   4.465
 4544TIP3    H213597   2.347   3.793   4.485
 4545TIP3   OH213598   2.081   2.723   2.553
 4545TIP3    H113599   2.066   2.630   2.568
 4545TIP3    H213600   2.176   2.733   2.560
 4546TIP3   OH213601   6.055   0.988   0.148
 4546TIP3    H113602   6.129   0.963   0.092
 4546TIP3    H213603   6.009   1.056   0.099
 4547TIP3   OH213604   3.266   2.878   2.849
 4547TIP3    H113605   3.259   2.794   2.895
 4547TIP3    H213606   3.232   2.942   2.911
 4548TIP3   OH213607   3.682   1.466   5.046
 4548TIP3    H113608   3.714   1.384   5.083
 4548TIP3    H213609   3.612   1.493   5.106
 4549TIP3   OH213610   6.754   0.585   4.953
 4549TIP3    H113611   6.807   0.624   5.022
 4549TIP3    H213612   6.729   0.658   4.897
 4550TIP3   OH213613   6.796   3.140   1.469
 4550TIP3    H113614   6.746   3.154   1.550
 4550TIP3    H213615   6.760   3.204   1.407
 4551TIP3   OH213616   2.378   5.452   1.336
 4551TIP3    H113617   2.417   5.475   1.251
 4551TIP3    H213618   2.285   5.474   1.327
 4552TIP3   OH213619   5.247   0.022   5.714
 4552TIP3    H113620   5.213  -0.056   5.758
 4552TIP3    H213621   5.179   0.045   5.651
 4553TIP3   OH213622   3.078   4.153   3.053
 4553TIP3    H113623   3.090   4.082   2.990
 4553TIP3    H213624   3.121   4.228   3.014
 4554TIP3   OH213625   4.941   3.969   3.500
 4554TIP3    H113626   4.957   4.063   3.505
 4554TIP3    H213627   5.017   3.934   3.453
 4555TIP3   OH213628   0.646   6.673   4.630
 4555TIP3    H113629   0.709   6.734   4.591
 4555TIP3    H213630   0.566   6.687   4.578
 4556TIP3   OH213631   4.092   3.111   3.485
 4556TIP3    H113632   4.132   3.025   3.501
 4556TIP3    H213633   4.152   3.154   3.424
 4557TIP3   OH213634   3.150   4.688   5.421
 4557TIP3    H113635   3.145   4.612   5.363
 4557TIP3    H213636   3.064   4.729   5.415
 4558TIP3   OH213637   6.168   6.032   1.005
 4558TIP3    H113638   6.173   6.048   1.099
 4558TIP3    H213639   6.197   5.941   0.994
 4559TIP3   OH213640   1.610   6.248   4.793
 4559TIP3    H113641   1.679   6.313   4.776
 4559TIP3    H213642   1.555   6.252   4.715
 4560TIP3   OH213643   5.946   6.010   4.392
 4560TIP3    H113644   5.987   6.027   4.308
 4560TIP3    H213645   5.880   5.942   4.374
 4561TIP3   OH213646   4.371   2.803   5.164
 4561TIP3    H113647   4.312   2.793   5.090
 4561TIP3    H213648   4.401   2.714   5.183
 4562TIP3   OH213649   1.888   3.695   0.285
 4562TIP3    H113650   1.972   3.672   0.245
 4562TIP3    H213651   1.864   3.779   0.245
 4563TIP3   OH213652   1.319   2.635   1.329
 4563TIP3    H113653   1.402   2.592   1.351
 4563TIP3    H213654   1.344   2.726   1.311
 4564TIP3   OH213655   4.350   6.802   5.046
 4564TIP3    H113656   4.379   6.713   5.025
 4564TIP3    H213657   4.285   6.790   5.115
 4565TIP3   OH213658   6.586   0.833   1.070
 4565TIP3    H113659   6.549   0.894   1.134
 4565TIP3    H213660   6.602   0.887   0.992
 4566TIP3   OH213661   0.929   6.315   2.284
 4566TIP3    H113662   0.915   6.409   2.301
 4566TIP3    H213663   0.985   6.286   2.356
 4567TIP3   OH213664   1.642   1.897   5.767
 4567TIP3    H113665   1.685   1.982   5.758
 4567TIP3    H213666   1.705   1.835   5.730
 4568TIP3   OH213667   1.579   5.577   4.039
 4568TIP3    H113668   1.496   5.533   4.021
 4568TIP3    H213669   1.612   5.603   3.953
 4569TIP3   OH213670   5.547   3.793   2.560
 4569TIP3    H113671   5.610   3.827   2.496
 4569TIP3    H213672   5.498   3.870   2.589
 4570TIP3   OH213673   5.667   2.977   3.926
 4570TIP3    H113674   5.614   2.898   3.934
 4570TIP3    H213675   5.605   3.045   3.900
 4571TIP3   OH213676   6.926   5.035  -0.001
 4571TIP3    H113677   6.857   5.005   0.058
 4571TIP3    H213678   6.969   5.106   0.048
 4572TIP3   OH213679   2.145   2.938   5.003
 4572TIP3    H113680   2.210   2.893   4.949
 4572TIP3    H213681   2.183   2.941   5.090
 4573TIP3   OH213682   2.194   3.946   3.701
 4573TIP3    H113683   2.187   3.898   3.619
 4573TIP3    H213684   2.230   3.883   3.763
 4574TIP3   OH213685   0.362   5.846   4.600
 4574TIP3    H113686   0.446   5.832   4.642
 4574TIP3    H213687   0.297   5.827   4.667
 4575TIP3   OH213688   0.859   2.418   5.665
 4575TIP3    H113689   0.947   2.436   5.633
 4575TIP3    H213690   0.854   2.462   5.750
 4576TIP3   OH213691   0.682   5.241   0.893
 4576TIP3    H113692   0.611   5.299   0.919
 4576TIP3    H213693   0.694   5.183   0.969
 4577TIP3   OH213694   0.037   0.370   1.246
 4577TIP3    H113695   0.005   0.449   1.289
 4577TIP3    H213696  -0.037   0.309   1.250
 4578TIP3   OH213697   0.624   2.512   5.069
 4578TIP3    H113698   0.696   2.522   5.006
 4578TIP3    H213699   0.552   2.476   5.017
 4579TIP3   OH213700   0.892   1.264   2.398
 4579TIP3    H113701   0.987   1.266   2.385
 4579TIP3    H213702   0.879   1.298   2.487
 4580TIP3   OH213703   5.110   5.278   2.105
 4580TIP3    H113704   5.099   5.214   2.175
 4580TIP3    H213705   5.050   5.248   2.036
 4581TIP3   OH213706   5.167   2.147   2.412
 4581TIP3    H113707   5.197   2.092   2.484
 4581TIP3    H213708   5.247   2.189   2.379
 4582TIP3   OH213709   4.716   0.414   2.535
 4582TIP3    H113710   4.705   0.403   2.629
 4582TIP3    H213711   4.808   0.392   2.519
 4583TIP3   OH213712   0.385   1.670   1.827
 4583TIP3    H113713   0.429   1.755   1.831
 4583TIP3    H213714   0.455   1.606   1.834
 4584TIP3   OH213715   5.449   6.778   1.380
 4584TIP3    H113716   5.426   6.865   1.348
 4584TIP3    H213717   5.543   6.770   1.363
 4585TIP3   OH213718   3.150   0.882   5.069
 4585TIP3    H113719   3.079   0.885   5.133
 4585TIP3    H213720   3.205   0.958   5.090
 4586TIP3   OH213721   1.604   5.822   4.184
 4586TIP3    H113722   1.532   5.854   4.129
 4586TIP3    H213723   1.613   5.730   4.161
 4587TIP3   OH213724   1.260   3.596   1.025
 4587TIP3    H113725   1.295   3.508   1.006
 4587TIP3    H213726   1.335   3.644   1.059
 4588TIP3   OH213727   3.712   5.085   4.134
 4588TIP3    H113728   3.671   5.018   4.189
 4588TIP3    H213729   3.640   5.143   4.109
 4589TIP3   OH213730   4.706   2.101   3.072
 4589TIP3    H113731   4.696   2.096   3.167
 4589TIP3    H213732   4.648   2.033   3.038
 4590TIP3   OH213733   3.157   3.219   2.284
 4590TIP3    H113734   3.231   3.228   2.224
 4590TIP3    H213735   3.158   3.127   2.309
 4591TIP3   OH213736   5.986   0.887   1.225
 4591TIP3    H113737   6.060   0.947   1.229
 4591TIP3    H213738   5.997   0.830   1.302
 4592TIP3   OH213739   4.534   3.582   0.507
 4592TIP3    H113740   4.540   3.492   0.538
 4592TIP3    H213741   4.620   3.620   0.525
 4593TIP3   OH213742   5.241   0.899   4.078
 4593TIP3    H113743   5.166   0.958   4.083
 4593TIP3    H213744   5.203   0.815   4.050
 4594TIP3   OH213745   1.914   4.444   2.987
 4594TIP3    H113746   1.844   4.485   3.038
 4594TIP3    H213747   1.966   4.397   3.052
 4595TIP3   OH213748   1.402   3.572   2.692
 4595TIP3    H113749   1.325   3.534   2.648
 4595TIP3    H213750   1.394   3.542   2.782
 4596TIP3   OH213751   6.581   3.071   4.604
 4596TIP3    H113752   6.489   3.074   4.575
 4596TIP3    H213753   6.584   3.131   4.678
 4597TIP3   OH213754   0.990   0.485   4.684
 4597TIP3    H113755   1.057   0.507   4.749
 4597TIP3    H213756   0.913   0.535   4.710
 4598TIP3   OH213757   6.891   1.061   5.846
 4598TIP3    H113758   6.818   1.112   5.811
 4598TIP3    H213759   6.850   0.996   5.903
 4599TIP3   OH213760   2.661   3.456   0.696
 4599TIP3    H113761   2.700   3.526   0.642
 4599TIP3    H213762   2.576   3.491   0.722
 4600TIP3   OH213763   2.998   4.802   4.503
 4600TIP3    H113764   3.052   4.765   4.432
 4600TIP3    H213765   2.932   4.855   4.458
 4601TIP3   OH213766   2.685   2.655   2.716
 4601TIP3    H113767   2.757   2.693   2.666
 4601TIP3    H213768   2.656   2.726   2.774
 4602TIP3   OH213769   2.470   1.870   0.350
 4602TIP3    H113770   2.546   1.821   0.320
 4602TIP3    H213771   2.421   1.890   0.270
 4603TIP3   OH213772   3.547   5.919   0.372
 4603TIP3    H113773   3.548   5.881   0.284
 4603TIP3    H213774   3.524   6.011   0.359
 4604TIP3   OH213775   2.953   4.614   1.580
 4604TIP3    H113776   3.012   4.615   1.654
 4604TIP3    H213777   2.988   4.680   1.520
 4605TIP3   OH213778   2.965   1.357   5.391
 4605TIP3    H113779   2.906   1.310   5.332
 4605TIP3    H213780   3.040   1.382   5.336
 4606TIP3   OH213781   0.067   0.102   3.513
 4606TIP3    H113782   0.112   0.037   3.566
 4606TIP3    H213783   0.018   0.052   3.448
 4607TIP3   OH213784   2.446   5.802   3.181
 4607TIP3    H113785   2.529   5.763   3.152
 4607TIP3    H213786   2.397   5.729   3.217
 4608TIP3   OH213787   0.650   4.366   0.561
 4608TIP3    H113788   0.714   4.389   0.628
 4608TIP3    H213789   0.612   4.449   0.533
 4609TIP3   OH213790   0.734   5.192   1.166
 4609TIP3    H113791   0.660   5.252   1.178
 4609TIP3    H213792   0.799   5.220   1.231
 4610TIP3   OH213793   1.434   2.228   1.112
 4610TIP3    H113794   1.359   2.287   1.110
 4610TIP3    H213795   1.482   2.253   1.191
 4611TIP3   OH213796   3.244   4.210   3.729
 4611TIP3    H113797   3.182   4.154   3.682
 4611TIP3    H213798   3.233   4.296   3.690
 4612TIP3   OH213799   4.927   6.324   3.913
 4612TIP3    H113800   4.913   6.284   3.998
 4612TIP3    H213801   4.840   6.355   3.885
 4613TIP3   OH213802   2.309   4.239   2.969
 4613TIP3    H113803   2.219   4.214   2.952
 4613TIP3    H213804   2.302   4.324   3.013
 4614TIP3   OH213805   0.143   4.336   2.646
 4614TIP3    H113806   0.148   4.241   2.636
 4614TIP3    H213807   0.230   4.361   2.678
 4615TIP3   OH213808   1.755   4.661   1.589
 4615TIP3    H113809   1.798   4.745   1.574
 4615TIP3    H213810   1.824   4.606   1.627
 4616TIP3   OH213811   3.886   3.638   2.014
 4616TIP3    H113812   3.953   3.638   2.082
 4616TIP3    H213813   3.931   3.672   1.936
 4617TIP3   OH213814   6.432   4.368   2.337
 4617TIP3    H113815   6.496   4.298   2.326
 4617TIP3    H213816   6.480   4.436   2.386
 4618TIP3   OH213817   5.697   1.268   4.899
 4618TIP3    H113818   5.744   1.349   4.919
 4618TIP3    H213819   5.669   1.278   4.808
 4619TIP3   OH213820   3.444   0.713   2.984
 4619TIP3    H113821   3.450   0.807   2.968
 4619TIP3    H213822   3.357   0.701   3.021
 4620TIP3   OH213823   0.991   3.706   3.329
 4620TIP3    H113824   1.068   3.763   3.323
 4620TIP3    H213825   1.024   3.628   3.375
 4621TIP3   OH213826   0.078   2.924   2.569
 4621TIP3    H113827   0.090   3.011   2.531
 4621TIP3    H213828   0.094   2.937   2.663
 4622TIP3   OH213829   4.921   3.985   1.957
 4622TIP3    H113830   4.995   4.007   1.900
 4622TIP3    H213831   4.956   3.917   2.015
 4623TIP3   OH213832   2.611   0.085   3.109
 4623TIP3    H113833   2.605   0.028   3.185
 4623TIP3    H213834   2.588   0.029   3.034
 4624TIP3   OH213835   6.672   2.271   4.543
 4624TIP3    H113836   6.668   2.347   4.601
 4624TIP3    H213837   6.729   2.209   4.588
 4625TIP3   OH213838   3.019   6.742   1.782
 4625TIP3    H113839   3.035   6.651   1.807
 4625TIP3    H213840   3.093   6.765   1.726
 4626TIP3   OH213841   2.830   1.153   5.263
 4626TIP3    H113842   2.743   1.149   5.222
 4626TIP3    H213843   2.822   1.097   5.341
 4627TIP3   OH213844   6.897   0.014   2.224
 4627TIP3    H113845   6.808   0.020   2.188
 4627TIP3    H213846   6.885  -0.020   2.313
 4628TIP3   OH213847   0.844   4.270   1.966
 4628TIP3    H113848   0.812   4.304   1.882
 4628TIP3    H213849   0.772   4.216   1.998
 4629TIP3   OH213850   5.728   3.968   2.448
 4629TIP3    H113851   5.775   4.017   2.515
 4629TIP3    H213852   5.795   3.946   2.382
 4630TIP3   OH213853   3.088   0.313   3.497
 4630TIP3    H113854   3.177   0.278   3.509
 4630TIP3    H213855   3.068   0.296   3.405
 4631TIP3   OH213856   6.156   5.317   3.391
 4631TIP3    H113857   6.236   5.310   3.340
 4631TIP3    H213858   6.144   5.231   3.431
 4632TIP3   OH213859   2.881   3.485   2.647
 4632TIP3    H113860   2.827   3.563   2.633
 4632TIP3    H213861   2.960   3.502   2.595
 4633TIP3   OH213862   1.847   5.718   2.715
 4633TIP3    H113863   1.835   5.806   2.752
 4633TIP3    H213864   1.760   5.679   2.717
 4634TIP3   OH213865   6.316   4.892   0.763
 4634TIP3    H113866   6.344   4.827   0.827
 4634TIP3    H213867   6.394   4.910   0.711
 4635TIP3   OH213868   6.023   3.536   2.891
 4635TIP3    H113869   5.953   3.528   2.956
 4635TIP3    H213870   6.078   3.607   2.924
 4636TIP3   OH213871   7.127   2.421   1.282
 4636TIP3    H113872   7.214   2.413   1.242
 4636TIP3    H213873   7.082   2.340   1.257
 4637TIP3   OH213874   1.075   4.174   0.403
 4637TIP3    H113875   1.029   4.091   0.416
 4637TIP3    H213876   1.039   4.208   0.322
 4638TIP3   OH213877   6.651   0.721   3.431
 4638TIP3    H113878   6.584   0.745   3.493
 4638TIP3    H213879   6.714   0.669   3.481
 4639TIP3   OH213880   5.762   0.680   0.381
 4639TIP3    H113881   5.804   0.699   0.298
 4639TIP3    H213882   5.806   0.735   0.445
 4640TIP3   OH213883   0.228   4.037   0.030
 4640TIP3    H113884   0.152   3.991   0.067
 4640TIP3    H213885   0.304   3.992   0.067
 4641TIP3   OH213886   4.771   4.822   4.333
 4641TIP3    H113887   4.833   4.785   4.396
 4641TIP3    H213888   4.728   4.746   4.294
 4642TIP3   OH213889   1.194   3.422   0.481
 4642TIP3    H113890   1.224   3.403   0.392
 4642TIP3    H213891   1.220   3.513   0.497
 4643TIP3   OH213892   5.295   6.188   4.348
 4643TIP3    H113893   5.278   6.112   4.404
 4643TIP3    H213894   5.316   6.258   4.409
 4644TIP3   OH213895   3.427   1.470   3.089
 4644TIP3    H113896   3.432   1.467   3.184
 4644TIP3    H213897   3.360   1.406   3.066
 4645TIP3   OH213898   1.459   2.212   5.798
 4645TIP3    H113899   1.506   2.129   5.806
 4645TIP3    H213900   1.523   2.272   5.759
 4646TIP3   OH213901   0.260   4.292   4.230
 4646TIP3    H113902   0.305   4.303   4.314
 4646TIP3    H213903   0.220   4.205   4.236
 4647TIP3   OH213904   4.790   5.945   2.021
 4647TIP3    H113905   4.719   5.943   1.956
 4647TIP3    H213906   4.870   5.936   1.968
 4648TIP3   OH213907   5.227   6.455   2.998
 4648TIP3    H113908   5.310   6.476   3.041
 4648TIP3    H213909   5.223   6.516   2.924
 4649TIP3   OH213910   2.410   0.865   2.162
 4649TIP3    H113911   2.427   0.825   2.247
 4649TIP3    H213912   2.434   0.798   2.098
 4650TIP3   OH213913   2.574   4.352   5.586
 4650TIP3    H113914   2.514   4.372   5.514
 4650TIP3    H213915   2.645   4.302   5.544
 4651TIP3   OH213916   4.127   2.548   2.649
 4651TIP3    H113917   4.216   2.513   2.650
 4651TIP3    H213918   4.086   2.513   2.728
 4652TIP3   OH213919   0.067   5.462   2.175
 4652TIP3    H113920   0.074   5.495   2.085
 4652TIP3    H213921   0.132   5.393   2.181
 4653TIP3   OH213922   1.449   4.759   0.204
 4653TIP3    H113923   1.394   4.835   0.216
 4653TIP3    H213924   1.514   4.786   0.139
 4654TIP3   OH213925   2.042   4.310   0.192
 4654TIP3    H113926   2.125   4.313   0.239
 4654TIP3    H213927   1.993   4.238   0.234
 4655TIP3   OH213928   5.239   1.916   3.042
 4655TIP3    H113929   5.191   1.966   2.976
 4655TIP3    H213930   5.332   1.931   3.021
 4656TIP3   OH213931   0.912   0.060   0.656
 4656TIP3    H113932   1.005   0.067   0.682
 4656TIP3    H213933   0.864   0.088   0.735
 4657TIP3   OH213934   4.416   3.236   3.393
 4657TIP3    H113935   4.363   3.242   3.313
 4657TIP3    H213936   4.466   3.155   3.382
 4658TIP3   OH213937   0.909   4.387   4.269
 4658TIP3    H113938   0.841   4.455   4.270
 4658TIP3    H213939   0.861   4.307   4.250
 4659TIP3   OH213940   3.391   6.160   3.295
 4659TIP3    H113941   3.308   6.174   3.249
 4659TIP3    H213942   3.372   6.184   3.386
 4660TIP3   OH213943   5.897   3.051   3.131
 4660TIP3    H113944   5.955   3.024   3.202
 4660TIP3    H213945   5.817   3.001   3.146
 4661TIP3   OH213946   6.880   2.085   1.717
 4661TIP3    H113947   6.911   2.023   1.650
 4661TIP3    H213948   6.911   2.048   1.799
 4662TIP3   OH213949   1.244   6.747   1.339
 4662TIP3    H113950   1.275   6.767   1.250
 4662TIP3    H213951   1.273   6.822   1.391
 4663TIP3   OH213952   1.216   0.990   3.047
 4663TIP3    H113953   1.164   0.940   3.110
 4663TIP3    H213954   1.181   0.965   2.962
 4664TIP3   OH213955   3.928   3.548   1.128
 4664TIP3    H113956   3.974   3.552   1.044
 4664TIP3    H213957   3.990   3.587   1.190
 4665TIP3   OH213958   6.532   4.272   5.680
 4665TIP3    H113959   6.481   4.256   5.759
 4665TIP3    H213960   6.555   4.185   5.648
 4666TIP3   OH213961   3.540   5.899   0.662
 4666TIP3    H113962   3.535   5.919   0.569
 4666TIP3    H213963   3.469   5.949   0.702
 4667TIP3   OH213964   4.694   4.617   5.508
 4667TIP3    H113965   4.742   4.695   5.481
 4667TIP3    H213966   4.603   4.634   5.483
 4668TIP3   OH213967   4.422   3.339   2.602
 4668TIP3    H113968   4.334   3.376   2.602
 4668TIP3    H213969   4.408   3.244   2.606
 4669TIP3   OH213970   5.437   4.350   2.983
 4669TIP3    H113971   5.376   4.397   3.041
 4669TIP3    H213972   5.518   4.345   3.034
 4670TIP3   OH213973   2.089   4.886   5.720
 4670TIP3    H113974   2.071   4.812   5.778
 4670TIP3    H213975   2.020   4.882   5.654
 4671TIP3   OH213976   4.739   0.923   5.158
 4671TIP3    H113977   4.801   0.984   5.199
 4671TIP3    H213978   4.757   0.929   5.064
 4672TIP3   OH213979   6.468   1.910   3.598
 4672TIP3    H113980   6.375   1.885   3.592
 4672TIP3    H213981   6.486   1.910   3.692
 4673TIP3   OH213982   6.898   6.692   4.039
 4673TIP3    H113983   6.890   6.771   3.986
 4673TIP3    H213984   6.808   6.668   4.060
 4674TIP3   OH213985   5.016   3.753   1.267
 4674TIP3    H113986   4.934   3.724   1.306
 4674TIP3    H213987   5.003   3.742   1.173
 4675TIP3   OH213988   2.672   0.917   1.975
 4675TIP3    H113989   2.674   0.879   2.062
 4675TIP3    H213990   2.639   0.847   1.918
 4676TIP3   OH213991   5.346   0.212   0.058
 4676TIP3    H113992   5.313   0.242   0.143
 4676TIP3    H213993   5.401   0.284   0.026
 4677TIP3   OH213994   5.442   0.782   5.169
 4677TIP3    H113995   5.351   0.781   5.200
 4677TIP3    H213996   5.452   0.699   5.122
 4678TIP3   OH213997   4.119   3.686   0.251
 4678TIP3    H113998   4.204   3.642   0.256
 4678TIP3    H213999   4.060   3.619   0.216
 4679TIP3   OH214000   3.153   2.165   2.437
 4679TIP3    H114001   3.207   2.220   2.380
 4679TIP3    H214002   3.118   2.097   2.380
 4680TIP3   OH214003   3.614   5.363   2.307
 4680TIP3    H114004   3.705   5.336   2.297
 4680TIP3    H214005   3.578   5.304   2.374
 4681TIP3   OH214006   1.479   2.982   0.129
 4681TIP3    H114007   1.567   2.959   0.160
 4681TIP3    H214008   1.426   2.905   0.148
 4682TIP3   OH214009   6.371   1.972   2.774
 4682TIP3    H114010   6.458   2.003   2.750
 4682TIP3    H214011   6.386   1.883   2.806
 4683TIP3   OH214012   5.063   2.316   3.569
 4683TIP3    H114013   5.036   2.372   3.497
 4683TIP3    H214014   5.032   2.361   3.648
 4684TIP3   OH214015   6.616   5.365   3.076
 4684TIP3    H114016   6.680   5.324   3.018
 4684TIP3    H214017   6.551   5.403   3.017
 4685TIP3   OH214018   6.668   5.946   2.943
 4685TIP3    H114019   6.737   6.007   2.970
 4685TIP3    H214020   6.715   5.875   2.898
 4686TIP3   OH214021   2.285   5.637   0.616
 4686TIP3    H114022   2.271   5.546   0.645
 4686TIP3    H214023   2.339   5.676   0.684
 4687TIP3   OH214024   6.065   6.232   2.376
 4687TIP3    H114025   5.987   6.239   2.321
 4687TIP3    H214026   6.092   6.141   2.367
 4688TIP3   OH214027   4.901   5.633   0.058
 4688TIP3    H114028   4.947   5.550   0.051
 4688TIP3    H214029   4.944   5.690  -0.005
 4689TIP3   OH214030   1.653   5.812   1.330
 4689TIP3    H114031   1.577   5.855   1.370
 4689TIP3    H214032   1.722   5.820   1.396
 4690TIP3   OH214033   7.114   4.468   1.756
 4690TIP3    H114034   7.163   4.539   1.714
 4690TIP3    H214035   7.163   4.451   1.837
 4691TIP3   OH214036   3.473   4.441   0.437
 4691TIP3    H114037   3.429   4.502   0.496
 4691TIP3    H214038   3.434   4.356   0.458
 4692TIP3   OH214039   4.276   0.269   0.889
 4692TIP3    H114040   4.286   0.179   0.856
 4692TIP3    H214041   4.328   0.322   0.829
 4693TIP3   OH214042   3.235   0.687   1.578
 4693TIP3    H114043   3.261   0.698   1.670
 4693TIP3    H214044   3.289   0.749   1.530
 4694TIP3   OH214045   6.398   5.930   5.204
 4694TIP3    H114046   6.347   6.008   5.225
 4694TIP3    H214047   6.485   5.949   5.238
 4695TIP3   OH214048   6.372   4.139   4.657
 4695TIP3    H114049   6.435   4.210   4.665
 4695TIP3    H214050   6.423   4.064   4.627
 4696TIP3   OH214051   4.632   2.446   5.606
 4696TIP3    H114052   4.716   2.492   5.604
 4696TIP3    H214053   4.580   2.488   5.538
 4697TIP3   OH214054   3.393   5.766   2.439
 4697TIP3    H114055   3.401   5.829   2.510
 4697TIP3    H214056   3.344   5.692   2.477
 4698TIP3   OH214057   2.856   3.336   3.376
 4698TIP3    H114058   2.904   3.417   3.362
 4698TIP3    H214059   2.909   3.288   3.440
 4699TIP3   OH214060   7.101   1.773   2.267
 4699TIP3    H114061   7.170   1.765   2.333
 4699TIP3    H214062   7.041   1.838   2.303
 4700TIP3   OH214063   4.566   1.847   0.769
 4700TIP3    H114064   4.629   1.899   0.720
 4700TIP3    H214065   4.480   1.875   0.736
 4701TIP3   OH214066   1.287   6.175   1.964
 4701TIP3    H114067   1.347   6.139   1.899
 4701TIP3    H214068   1.306   6.126   2.044
 4702TIP3   OH214069   3.642   1.699   3.604
 4702TIP3    H114070   3.605   1.694   3.516
 4702TIP3    H214071   3.704   1.771   3.601
 4703TIP3   OH214072   2.190   4.813   3.742
 4703TIP3    H114073   2.154   4.852   3.663
 4703TIP3    H214074   2.267   4.764   3.712
 4704TIP3   OH214075   1.791   2.579   1.952
 4704TIP3    H114076   1.820   2.578   1.861
 4704TIP3    H214077   1.814   2.666   1.984
 4705TIP3   OH214078   2.669   5.838   2.962
 4705TIP3    H114079   2.747   5.785   2.942
 4705TIP3    H214080   2.622   5.842   2.879
 4706TIP3   OH214081   6.820   0.684   0.272
 4706TIP3    H114082   6.914   0.682   0.291
 4706TIP3    H214083   6.791   0.594   0.286
 4707TIP3   OH214084   2.784   0.522   3.447
 4707TIP3    H114085   2.788   0.440   3.496
 4707TIP3    H214086   2.810   0.499   3.358
 4708TIP3   OH214087   6.646   2.976   2.122
 4708TIP3    H114088   6.576   2.916   2.144
 4708TIP3    H214089   6.620   3.059   2.162
 4709TIP3   OH214090   3.461   2.929   0.574
 4709TIP3    H114091   3.415   2.852   0.609
 4709TIP3    H214092   3.398   2.969   0.514
 4710TIP3   OH214093   2.696   6.276   5.434
 4710TIP3    H114094   2.699   6.308   5.343
 4710TIP3    H214095   2.608   6.297   5.464
 4711TIP3   OH214096   4.347   4.329   4.539
 4711TIP3    H114097   4.271   4.273   4.555
 4711TIP3    H214098   4.398   4.324   4.619
 4712TIP3   OH214099   3.359   5.867   3.541
 4712TIP3    H114100   3.360   5.962   3.529
 4712TIP3    H214101   3.301   5.834   3.473
 4713TIP3   OH214102   5.132   6.649   2.769
 4713TIP3    H114103   5.086   6.578   2.726
 4713TIP3    H214104   5.082   6.728   2.746
 4714TIP3   OH214105   0.269   5.061   5.164
 4714TIP3    H114106   0.261   4.977   5.118
 4714TIP3    H214107   0.275   5.038   5.256
 4715TIP3   OH214108   1.767   3.145   1.951
 4715TIP3    H114109   1.740   3.086   2.022
 4715TIP3    H214110   1.861   3.157   1.964
 4716TIP3   OH214111   4.019   5.540   5.135
 4716TIP3    H114112   3.967   5.520   5.213
 4716TIP3    H214113   4.089   5.474   5.135
 4717TIP3   OH214114   5.213   6.608   1.368
 4717TIP3    H114115   5.153   6.681   1.380
 4717TIP3    H214116   5.299   6.649   1.355
 4718TIP3   OH214117   5.108   4.420   5.670
 4718TIP3    H114118   5.027   4.377   5.695
 4718TIP3    H214119   5.168   4.349   5.649
 4719TIP3   OH214120   6.894   1.872   2.440
 4719TIP3    H114121   6.804   1.895   2.464
 4719TIP3    H214122   6.936   1.853   2.524
 4720TIP3   OH214123   5.302   4.657   1.803
 4720TIP3    H114124   5.313   4.624   1.892
 4720TIP3    H214125   5.365   4.729   1.796
 4721TIP3   OH214126   3.762   4.590   1.997
 4721TIP3    H114127   3.678   4.623   2.029
 4721TIP3    H214128   3.827   4.630   2.055
 4722TIP3   OH214129   1.099   0.525   0.684
 4722TIP3    H114130   1.080   0.459   0.752
 4722TIP3    H214131   1.051   0.602   0.712
 4723TIP3   OH214132   5.805   0.395   2.113
 4723TIP3    H114133   5.860   0.378   2.037
 4723TIP3    H214134   5.796   0.491   2.115
 4724TIP3   OH214135   2.122   0.190   0.249
 4724TIP3    H114136   2.058   0.253   0.284
 4724TIP3    H214137   2.070   0.111   0.232
 4725TIP3   OH214138   5.480   2.065   3.301
 4725TIP3    H114139   5.392   2.047   3.267
 4725TIP3    H214140   5.506   2.147   3.259
 4726TIP3   OH214141   7.040   0.177   4.564
 4726TIP3    H114142   6.985   0.105   4.533
 4726TIP3    H214143   6.978   0.243   4.595
 4727TIP3   OH214144   3.541   4.952   4.778
 4727TIP3    H114145   3.566   4.972   4.868
 4727TIP3    H214146   3.490   5.027   4.749
 4728TIP3   OH214147   0.304   2.974   5.371
 4728TIP3    H114148   0.248   3.029   5.426
 4728TIP3    H214149   0.294   2.886   5.406
 4729TIP3   OH214150   3.319   0.701   2.629
 4729TIP3    H114151   3.291   0.756   2.557
 4729TIP3    H214152   3.354   0.762   2.694
 4730TIP3   OH214153   4.498   1.963   1.803
 4730TIP3    H114154   4.553   2.005   1.870
 4730TIP3    H214155   4.462   2.036   1.753
 4731TIP3   OH214156   6.831   0.312   2.809
 4731TIP3    H114157   6.762   0.376   2.824
 4731TIP3    H214158   6.789   0.246   2.753
 4732TIP3   OH214159   2.196   5.499   0.306
 4732TIP3    H114160   2.209   5.453   0.389
 4732TIP3    H214161   2.173   5.431   0.243
 4733TIP3   OH214162   3.252   1.220   2.965
 4733TIP3    H114163   3.195   1.153   3.005
 4733TIP3    H214164   3.197   1.260   2.897
 4734TIP3   OH214165   0.366   4.260   3.589
 4734TIP3    H114166   0.304   4.249   3.661
 4734TIP3    H214167   0.444   4.297   3.631
 4735TIP3   OH214168   1.467   5.413   0.692
 4735TIP3    H114169   1.479   5.483   0.757
 4735TIP3    H214170   1.472   5.458   0.607
 4736TIP3   OH214171   5.171   0.337   2.006
 4736TIP3    H114172   5.252   0.369   1.968
 4736TIP3    H214173   5.166   0.245   1.979
 4737TIP3   OH214174   2.672   0.300   5.087
 4737TIP3    H114175   2.631   0.231   5.141
 4737TIP3    H214176   2.601   0.332   5.031
 4738TIP3   OH214177   1.177   0.557   4.890
 4738TIP3    H114178   1.151   0.621   4.956
 4738TIP3    H214179   1.262   0.588   4.859
 4739TIP3   OH214180   5.035   4.842   0.769
 4739TIP3    H114181   4.963   4.822   0.829
 4739TIP3    H214182   5.053   4.759   0.724
 4740TIP3   OH214183   6.013   6.715   5.085
 4740TIP3    H114184   5.975   6.744   5.168
 4740TIP3    H214185   6.097   6.760   5.081
 4741TIP3   OH214186   5.454   2.667   3.162
 4741TIP3    H114187   5.517   2.645   3.231
 4741TIP3    H214188   5.369   2.644   3.200
 4742TIP3   OH214189   4.101   4.477   5.612
 4742TIP3    H114190   4.019   4.488   5.565
 4742TIP3    H214191   4.082   4.504   5.702
 4743TIP3   OH214192   1.039   0.233   3.997
 4743TIP3    H114193   1.043   0.324   3.969
 4743TIP3    H214194   0.970   0.231   4.063
 4744TIP3   OH214195   3.642   2.582   2.395
 4744TIP3    H114196   3.665   2.531   2.473
 4744TIP3    H214197   3.689   2.539   2.323
 4745TIP3   OH214198   3.864   3.877   4.651
 4745TIP3    H114199   3.928   3.885   4.579
 4745TIP3    H214200   3.909   3.824   4.717
 4746TIP3   OH214201   5.935   2.230   1.411
 4746TIP3    H114202   5.931   2.215   1.506
 4746TIP3    H214203   5.860   2.287   1.393
 4747TIP3   OH214204   1.471   5.774   2.451
 4747TIP3    H114205   1.407   5.716   2.411
 4747TIP3    H214206   1.556   5.738   2.426
 4748TIP3   OH214207   3.059   0.825   1.799
 4748TIP3    H114208   3.147   0.857   1.782
 4748TIP3    H214209   3.006   0.904   1.810
 4749TIP3   OH214210   2.381   6.401   3.482
 4749TIP3    H114211   2.327   6.398   3.561
 4749TIP3    H214212   2.354   6.325   3.431
 4750TIP3   OH214213   2.537   4.434   1.605
 4750TIP3    H114214   2.542   4.343   1.576
 4750TIP3    H214215   2.580   4.484   1.536
 4751TIP3   OH214216   0.838   2.804   4.977
 4751TIP3    H114217   0.772   2.741   4.952
 4751TIP3    H214218   0.912   2.751   5.006
 4752TIP3   OH214219   4.200   2.694   1.643
 4752TIP3    H114220   4.115   2.668   1.679
 4752TIP3    H214221   4.179   2.758   1.576
 4753TIP3   OH214222   3.600   0.941   4.020
 4753TIP3    H114223   3.563   0.858   3.990
 4753TIP3    H214224   3.693   0.934   4.003
 4754TIP3   OH214225   4.092   6.409   2.654
 4754TIP3    H114226   4.162   6.344   2.652
 4754TIP3    H214227   4.025   6.373   2.712
 4755TIP3   OH214228   4.217   3.561   3.187
 4755TIP3    H114229   4.192   3.623   3.119
 4755TIP3    H214230   4.157   3.579   3.259
 4756TIP3   OH214231   1.625   3.286   2.263
 4756TIP3    H114232   1.590   3.370   2.293
 4756TIP3    H214233   1.717   3.305   2.242
 4757TIP3   OH214234   0.212   2.593   5.179
 4757TIP3    H114235   0.196   2.499   5.176
 4757TIP3    H214236   0.168   2.627   5.101
 4758TIP3   OH214237   7.158   3.508   5.409
 4758TIP3    H114238   7.156   3.499   5.505
 4758TIP3    H214239   7.226   3.572   5.392
 4759TIP3   OH214240   5.812   6.608   3.537
 4759TIP3    H114241   5.845   6.522   3.509
 4759TIP3    H214242   5.855   6.669   3.478
 4760TIP3   OH214243   2.759   1.084   3.632
 4760TIP3    H114244   2.752   1.175   3.603
 4760TIP3    H214245   2.748   1.088   3.727
 4761TIP3   OH214246   0.118   0.636   4.864
 4761TIP3    H114247   0.075   0.563   4.818
 4761TIP3    H214248   0.046   0.691   4.894
 4762TIP3   OH214249   3.196  -0.001   1.258
 4762TIP3    H114250   3.235   0.083   1.284
 4762TIP3    H214251   3.265  -0.045   1.210
 4763TIP3   OH214252   0.145   6.361   1.816
 4763TIP3    H114253   0.179   6.331   1.731
 4763TIP3    H214254   0.162   6.289   1.876
 4764TIP3   OH214255   7.014   3.221   1.721
 4764TIP3    H114256   7.062   3.228   1.803
 4764TIP3    H214257   6.929   3.186   1.745
 4765TIP3   OH214258   6.828   6.711   0.337
 4765TIP3    H114259   6.821   6.713   0.242
 4765TIP3    H214260   6.749   6.665   0.366
 4766TIP3   OH214261   6.592   5.120   2.211
 4766TIP3    H114262   6.502   5.088   2.208
 4766TIP3    H214263   6.588   5.209   2.177
 4767TIP3   OH214264   0.367   1.466   2.732
 4767TIP3    H114265   0.413   1.391   2.770
 4767TIP3    H214266   0.378   1.455   2.638
 4768TIP3   OH214267   3.553   6.827   3.102
 4768TIP3    H114268   3.600   6.743   3.109
 4768TIP3    H214269   3.473   6.805   3.054
 4769TIP3   OH214270   1.053   2.035   5.824
 4769TIP3    H114271   1.106   2.110   5.797
 4769TIP3    H214272   0.978   2.036   5.764
 4770TIP3   OH214273   1.002   3.426   4.558
 4770TIP3    H114274   1.004   3.466   4.645
 4770TIP3    H214275   0.944   3.350   4.567
 4771TIP3   OH214276   3.552   0.688   5.517
 4771TIP3    H114277   3.565   0.781   5.497
 4771TIP3    H214278   3.633   0.662   5.561
 4772TIP3   OH214279   5.293   0.403   2.854
 4772TIP3    H114280   5.332   0.356   2.781
 4772TIP3    H214281   5.269   0.488   2.819
 4773TIP3   OH214282   0.836   2.895   0.161
 4773TIP3    H114283   0.817   2.843   0.239
 4773TIP3    H214284   0.766   2.961   0.159
 4774TIP3   OH214285   1.350   4.294   3.558
 4774TIP3    H114286   1.365   4.386   3.539
 4774TIP3    H214287   1.362   4.286   3.653
 4775TIP3   OH214288   0.361   4.286   4.492
 4775TIP3    H114289   0.284   4.244   4.531
 4775TIP3    H214290   0.430   4.219   4.496
 4776TIP3   OH214291   3.684   0.772   5.864
 4776TIP3    H114292   3.589   0.763   5.854
 4776TIP3    H214293   3.705   0.719   5.940
 4777TIP3   OH214294   1.508   0.433   4.607
 4777TIP3    H114295   1.493   0.521   4.571
 4777TIP3    H214296   1.438   0.421   4.671
 4778TIP3   OH214297   2.511   4.041   0.348
 4778TIP3    H114298   2.486   4.060   0.258
 4778TIP3    H214299   2.568   3.964   0.341
 4779TIP3   OH214300   6.381   6.014   4.599
 4779TIP3    H114301   6.290   6.008   4.629
 4779TIP3    H214302   6.398   6.107   4.591
 4780TIP3   OH214303   3.975   4.980   0.511
 4780TIP3    H114304   4.057   4.954   0.470
 4780TIP3    H214305   4.000   5.036   0.583
 4781TIP3   OH214306   4.960   2.165   5.353
 4781TIP3    H114307   4.930   2.142   5.441
 4781TIP3    H214308   4.881   2.196   5.309
 4782TIP3   OH214309   0.936   1.274   4.151
 4782TIP3    H114310   0.891   1.270   4.066
 4782TIP3    H214311   1.029   1.271   4.129
 4783TIP3   OH214312   3.299   5.993   4.921
 4783TIP3    H114313   3.392   5.974   4.906
 4783TIP3    H214314   3.255   5.956   4.844
 4784TIP3   OH214315   1.099   2.839   4.366
 4784TIP3    H114316   1.008   2.841   4.334
 4784TIP3    H214317   1.101   2.903   4.437
 4785TIP3   OH214318   6.333   6.192   4.077
 4785TIP3    H114319   6.413   6.144   4.098
 4785TIP3    H214320   6.322   6.254   4.149
 4786TIP3   OH214321   1.774   1.818   3.085
 4786TIP3    H114322   1.697   1.802   3.031
 4786TIP3    H214323   1.819   1.734   3.089
 4787TIP3   OH214324   7.001   3.559   2.263
 4787TIP3    H114325   7.070   3.574   2.199
 4787TIP3    H214326   6.971   3.469   2.246
 4788TIP3   OH214327   5.603   0.610   2.330
 4788TIP3    H114328   5.548   0.646   2.400
 4788TIP3    H214329   5.652   0.540   2.373
 4789TIP3   OH214330   5.996   5.251   4.668
 4789TIP3    H114331   5.996   5.338   4.706
 4789TIP3    H214332   6.051   5.199   4.726
 4790TIP3   OH214333   6.726   5.134   2.466
 4790TIP3    H114334   6.666   5.149   2.394
 4790TIP3    H214335   6.783   5.211   2.466
 4791TIP3   OH214336   0.518   1.882   2.179
 4791TIP3    H114337   0.534   1.817   2.248
 4791TIP3    H214338   0.549   1.964   2.216
 4792TIP3   OH214339   5.407   5.724   4.079
 4792TIP3    H114340   5.469   5.651   4.082
 4792TIP3    H214341   5.379   5.736   4.169
 4793TIP3   OH214342   2.941   6.341   4.076
 4793TIP3    H114343   3.028   6.365   4.107
 4793TIP3    H214344   2.951   6.251   4.044
 4794TIP3   OH214345   3.740   3.311   1.629
 4794TIP3    H114346   3.704   3.305   1.541
 4794TIP3    H214347   3.678   3.366   1.677
 4795TIP3   OH214348   6.432   6.029   4.875
 4795TIP3    H114349   6.442   6.025   4.780
 4795TIP3    H214350   6.376   5.953   4.896
 4796TIP3   OH214351   0.818   2.801   0.422
 4796TIP3    H114352   0.793   2.716   0.457
 4796TIP3    H214353   0.914   2.799   0.421
 4797TIP3   OH214354   5.416   2.035   0.691
 4797TIP3    H114355   5.488   1.973   0.703
 4797TIP3    H214356   5.338   1.980   0.687
 4798TIP3   OH214357   6.897   5.505   2.639
 4798TIP3    H114358   6.940   5.424   2.613
 4798TIP3    H214359   6.816   5.507   2.587
 4799TIP3   OH214360   3.069   2.617   2.368
 4799TIP3    H114361   3.003   2.663   2.420
 4799TIP3    H214362   3.062   2.525   2.395
 4800TIP3   OH214363   7.062   4.614   4.210
 4800TIP3    H114364   7.048   4.703   4.179
 4800TIP3    H214365   7.156   4.598   4.196
 4801TIP3   OH214366   2.294   4.142   3.525
 4801TIP3    H114367   2.226   4.208   3.537
 4801TIP3    H214368   2.279   4.079   3.596
 4802TIP3   OH214369   3.778   6.576   4.072
 4802TIP3    H114370   3.807   6.534   3.991
 4802TIP3    H214371   3.684   6.560   4.076
 4803TIP3   OH214372   1.276   6.453   2.248
 4803TIP3    H114373   1.310   6.368   2.276
 4803TIP3    H214374   1.181   6.440   2.243
 4804TIP3   OH214375   6.540   2.113   3.412
 4804TIP3    H114376   6.550   2.065   3.330
 4804TIP3    H214377   6.485   2.057   3.467
 4805TIP3   OH214378   3.216   4.989   0.053
 4805TIP3    H114379   3.271   4.929   0.104
 4805TIP3    H214380   3.278   5.048   0.011
 4806TIP3   OH214381   2.787   5.121   4.572
 4806TIP3    H114382   2.759   5.039   4.533
 4806TIP3    H214383   2.762   5.188   4.509
 4807TIP3   OH214384   4.736   5.615   1.655
 4807TIP3    H114385   4.750   5.710   1.646
 4807TIP3    H214386   4.643   5.606   1.676
 4808TIP3   OH214387   4.309   0.683   5.884
 4808TIP3    H114388   4.361   0.757   5.854
 4808TIP3    H214389   4.227   0.721   5.914
 4809TIP3   OH214390   3.998   1.798   3.521
 4809TIP3    H114391   3.975   1.787   3.429
 4809TIP3    H214392   4.063   1.729   3.538
 4810TIP3   OH214393   5.583   0.187   2.516
 4810TIP3    H114394   5.590   0.092   2.525
 4810TIP3    H214395   5.596   0.204   2.423
 4811TIP3   OH214396   0.077   3.361   2.237
 4811TIP3    H114397   0.048   3.344   2.326
 4811TIP3    H214398   0.065   3.456   2.226
 4812TIP3   OH214399   7.108   5.998   1.583
 4812TIP3    H114400   7.180   5.935   1.585
 4812TIP3    H214401   7.079   5.999   1.492
 4813TIP3   OH214402   6.445   2.257   5.140
 4813TIP3    H114403   6.496   2.184   5.104
 4813TIP3    H214404   6.462   2.330   5.080
 4814TIP3   OH214405   6.126   0.859   1.694
 4814TIP3    H114406   6.101   0.778   1.738
 4814TIP3    H214407   6.049   0.916   1.705
 4815TIP3   OH214408   4.396   0.286   0.037
 4815TIP3    H114409   4.368   0.221  -0.027
 4815TIP3    H214410   4.345   0.266   0.116
 4816TIP3   OH214411   2.034   6.418   3.076
 4816TIP3    H114412   1.946   6.384   3.095
 4816TIP3    H214413   2.049   6.484   3.144
 4817TIP3   OH214414   5.047   5.067   5.499
 4817TIP3    H114415   5.002   5.100   5.421
 4817TIP3    H214416   5.111   5.004   5.465
 4818TIP3   OH214417   0.504   5.203   5.376
 4818TIP3    H114418   0.594   5.170   5.370
 4818TIP3    H214419   0.450   5.124   5.381
 4819TIP3   OH214420   0.243   3.834   1.579
 4819TIP3    H114421   0.301   3.773   1.624
 4819TIP3    H214422   0.161   3.830   1.629
 4820TIP3   OH214423   0.387   6.691   2.287
 4820TIP3    H114424   0.379   6.627   2.357
 4820TIP3    H214425   0.322   6.665   2.222
 4821TIP3   OH214426   5.315   1.291   2.685
 4821TIP3    H114427   5.294   1.258   2.772
 4821TIP3    H214428   5.233   1.284   2.635
 4822TIP3   OH214429   4.965   6.067   1.734
 4822TIP3    H114430   5.029   6.102   1.671
 4822TIP3    H214431   5.007   5.988   1.769
 4823TIP3   OH214432   5.844   6.217   4.926
 4823TIP3    H114433   5.893   6.287   4.883
 4823TIP3    H214434   5.896   6.194   5.003
 4824TIP3   OH214435   4.983   3.407   0.175
 4824TIP3    H114436   4.990   3.319   0.211
 4824TIP3    H214437   5.043   3.459   0.228
 4825TIP3   OH214438   5.611   0.257   2.241
 4825TIP3    H114439   5.668   0.305   2.181
 4825TIP3    H214440   5.523   0.287   2.219
 4826TIP3   OH214441   1.678   2.883   4.770
 4826TIP3    H114442   1.722   2.809   4.728
 4826TIP3    H214443   1.626   2.923   4.700
 4827TIP3   OH214444   3.201   4.232   1.571
 4827TIP3    H114445   3.176   4.216   1.481
 4827TIP3    H214446   3.297   4.236   1.569
 4828TIP3   OH214447   3.234   4.146   2.539
 4828TIP3    H114448   3.186   4.117   2.461
 4828TIP3    H214449   3.324   4.121   2.522
 4829TIP3   OH214450   2.993   2.145   5.430
 4829TIP3    H114451   3.054   2.164   5.359
 4829TIP3    H214452   2.955   2.230   5.453
 4830TIP3   OH214453   0.529   5.086   4.717
 4830TIP3    H114454   0.498   5.144   4.787
 4830TIP3    H214455   0.590   5.027   4.760
 4831TIP3   OH214456   2.881   1.832   2.732
 4831TIP3    H114457   2.963   1.867   2.699
 4831TIP3    H214458   2.846   1.781   2.659
 4832TIP3   OH214459   0.182   4.476   5.566
 4832TIP3    H114460   0.259   4.533   5.564
 4832TIP3    H214461   0.138   4.492   5.482
 4833TIP3   OH214462   5.494   4.429   1.068
 4833TIP3    H114463   5.576   4.413   1.021
 4833TIP3    H214464   5.431   4.368   1.029
 4834TIP3   OH214465   0.498   4.624   3.527
 4834TIP3    H114466   0.455   4.630   3.612
 4834TIP3    H214467   0.591   4.639   3.546
 4835TIP3   OH214468   1.334   5.010   0.265
 4835TIP3    H114469   1.384   5.081   0.307
 4835TIP3    H214470   1.290   5.052   0.192
 4836TIP3   OH214471   0.846   2.590   3.134
 4836TIP3    H114472   0.855   2.568   3.041
 4836TIP3    H214473   0.761   2.554   3.159
 4837TIP3   OH214474   2.979   1.204   4.450
 4837TIP3    H114475   2.935   1.170   4.373
 4837TIP3    H214476   3.047   1.139   4.469
 4838TIP3   OH214477   2.669   4.602   1.430
 4838TIP3    H114478   2.743   4.626   1.485
 4838TIP3    H214479   2.708   4.577   1.346
 4839TIP3   OH214480   5.985   3.772   4.779
 4839TIP3    H114481   5.923   3.779   4.851
 4839TIP3    H214482   6.006   3.678   4.775
 4840TIP3   OH214483   0.777   2.811   2.249
 4840TIP3    H114484   0.782   2.842   2.340
 4840TIP3    H214485   0.859   2.842   2.209
 4841TIP3   OH214486   5.219   1.729   1.748
 4841TIP3    H114487   5.153   1.659   1.745
 4841TIP3    H214488   5.221   1.763   1.659
 4842TIP3   OH214489   3.256   2.085   0.579
 4842TIP3    H114490   3.249   2.075   0.674
 4842TIP3    H214491   3.321   2.020   0.553
 4843TIP3   OH214492   3.207   0.394   2.885
 4843TIP3    H114493   3.198   0.424   2.975
 4843TIP3    H214494   3.295   0.423   2.859
 4844TIP3   OH214495   6.238   0.408   1.954
 4844TIP3    H114496   6.261   0.497   1.927
 4844TIP3    H214497   6.283   0.351   1.893
 4845TIP3   OH214498   1.667   6.514   2.272
 4845TIP3    H114499   1.757   6.497   2.244
 4845TIP3    H214500   1.613   6.467   2.209
 4846TIP3   OH214501   0.618   4.797   1.737
 4846TIP3    H114502   0.612   4.731   1.669
 4846TIP3    H214503   0.543   4.854   1.722
 4847TIP3   OH214504   2.621   0.648   2.729
 4847TIP3    H114505   2.698   0.591   2.723
 4847TIP3    H214506   2.607   0.661   2.822
 4848TIP3   OH214507   5.593   2.140   1.610
 4848TIP3    H114508   5.675   2.092   1.607
 4848TIP3    H214509   5.569   2.153   1.518
 4849TIP3   OH214510   1.546   3.516   2.394
 4849TIP3    H114511   1.528   3.609   2.381
 4849TIP3    H214512   1.613   3.514   2.463
 4850TIP3   OH214513   5.566   3.090   1.190
 4850TIP3    H114514   5.639   3.120   1.243
 4850TIP3    H214515   5.552   3.159   1.125
 4851TIP3   OH214516   4.834   5.719   1.285
 4851TIP3    H114517   4.838   5.634   1.330
 4851TIP3    H214518   4.923   5.736   1.256
 4852TIP3   OH214519   2.468   1.367   5.203
 4852TIP3    H114520   2.410   1.412   5.141
 4852TIP3    H214521   2.501   1.291   5.155
 4853TIP3   OH214522   1.725   0.791   5.829
 4853TIP3    H114523   1.706   0.882   5.806
 4853TIP3    H214524   1.655   0.766   5.889
 4854TIP3   OH214525   2.267   5.980   0.067
 4854TIP3    H114526   2.273   5.884   0.071
 4854TIP3    H214527   2.357   6.008   0.050
 4855TIP3   OH214528   0.091   0.882   0.917
 4855TIP3    H114529   0.127   0.970   0.905
 4855TIP3    H214530   0.015   0.895   0.973
 4856TIP3   OH214531   3.837   2.970   0.505
 4856TIP3    H114532   3.762   2.976   0.446
 4856TIP3    H214533   3.804   3.000   0.590
 4857TIP3   OH214534   4.033   4.813   3.463
 4857TIP3    H114535   4.022   4.779   3.551
 4857TIP3    H214536   4.080   4.743   3.416
 4858TIP3   OH214537   1.049   5.224   3.489
 4858TIP3    H114538   1.023   5.265   3.407
 4858TIP3    H214539   1.143   5.211   3.482
 4859TIP3   OH214540   2.874   4.846   5.290
 4859TIP3    H114541   2.944   4.887   5.240
 4859TIP3    H214542   2.794   4.868   5.242
 4860TIP3   OH214543   3.101  -0.044   5.711
 4860TIP3    H114544   3.106   0.046   5.679
 4860TIP3    H214545   3.007  -0.061   5.720
 4861TIP3   OH214546   4.793   4.416   2.395
 4861TIP3    H114547   4.700   4.405   2.374
 4861TIP3    H214548   4.810   4.509   2.381
 4862TIP3   OH214549   6.258   4.757   2.299
 4862TIP3    H114550   6.267   4.787   2.390
 4862TIP3    H214551   6.348   4.754   2.266
 4863TIP3   OH214552   6.498   0.627   5.758
 4863TIP3    H114553   6.522   0.717   5.733
 4863TIP3    H214554   6.537   0.572   5.690
 4864TIP3   OH214555   0.605   6.128   4.572
 4864TIP3    H114556   0.601   6.221   4.553
 4864TIP3    H214557   0.564   6.086   4.496
 4865TIP3   OH214558   6.636   3.272   1.691
 4865TIP3    H114559   6.631   3.361   1.656
 4865TIP3    H214560   6.643   3.284   1.785
 4866TIP3   OH214561   2.256   2.102   1.732
 4866TIP3    H114562   2.193   2.135   1.796
 4866TIP3    H214563   2.216   2.121   1.647
 4867TIP3   OH214564   2.358   2.900   4.076
 4867TIP3    H114565   2.271   2.883   4.113
 4867TIP3    H214566   2.387   2.814   4.045
 4868TIP3   OH214567   4.697   3.591   0.882
 4868TIP3    H114568   4.690   3.607   0.976
 4868TIP3    H214569   4.649   3.663   0.842
 4869TIP3   OH214570   4.854   2.710   2.254
 4869TIP3    H114571   4.932   2.728   2.306
 4869TIP3    H214572   4.813   2.796   2.243
 4870TIP3   OH214573   4.377   2.506   5.880
 4870TIP3    H114574   4.415   2.419   5.889
 4870TIP3    H214575   4.297   2.492   5.830
 4871TIP3   OH214576   2.867   0.824   3.014
 4871TIP3    H114577   2.878   0.777   3.097
 4871TIP3    H214578   2.775   0.810   2.991
 4872TIP3   OH214579   4.140   0.083   3.345
 4872TIP3    H114580   4.133   0.010   3.407
 4872TIP3    H214581   4.222   0.126   3.367
 4873TIP3   OH214582   5.587   4.205   3.175
 4873TIP3    H114583   5.510   4.170   3.218
 4873TIP3    H214584   5.605   4.143   3.104
 4874TIP3   OH214585   1.197   5.918   5.403
 4874TIP3    H114586   1.129   5.984   5.388
 4874TIP3    H214587   1.279   5.966   5.392
 4875TIP3   OH214588   4.080   3.383   5.699
 4875TIP3    H114589   4.126   3.348   5.622
 4875TIP3    H214590   3.990   3.396   5.669
 4876TIP3   OH214591   0.596   0.085   2.030
 4876TIP3    H114592   0.658   0.012   2.032
 4876TIP3    H214593   0.531   0.063   2.097
 4877TIP3   OH214594   3.794   5.111   0.324
 4877TIP3    H114595   3.822   5.058   0.399
 4877TIP3    H214596   3.784   5.199   0.359
 4878TIP3   OH214597   4.359   4.445   3.705
 4878TIP3    H114598   4.412   4.400   3.640
 4878TIP3    H214599   4.383   4.537   3.697
 4879TIP3   OH214600   5.378   2.468   5.021
 4879TIP3    H114601   5.316   2.434   4.957
 4879TIP3    H214602   5.439   2.396   5.036
 4880TIP3   OH214603   0.883   6.457   3.204
 4880TIP3    H114604   0.826   6.526   3.170
 4880TIP3    H214605   0.832   6.416   3.274
 4881TIP3   OH214606   5.101   4.521   0.226
 4881TIP3    H114607   5.131   4.490   0.141
 4881TIP3    H214608   5.065   4.608   0.209
 4882TIP3   OH214609   4.165   6.683   3.827
 4882TIP3    H114610   4.260   6.680   3.816
 4882TIP3    H214611   4.134   6.733   3.751
 4883TIP3   OH214612   7.213   6.282   4.208
 4883TIP3    H114613   7.151   6.353   4.197
 4883TIP3    H214614   7.178   6.230   4.280
 4884TIP3   OH214615   0.046   0.390   2.714
 4884TIP3    H114616   0.129   0.405   2.760
 4884TIP3    H214617   0.065   0.318   2.654
 4885TIP3   OH214618   1.557   6.859   4.345
 4885TIP3    H114619   1.593   6.802   4.413
 4885TIP3    H214620   1.465   6.832   4.337
 4886TIP3   OH214621   0.839   3.918   2.559
 4886TIP3    H114622   0.883   3.915   2.644
 4886TIP3    H214623   0.806   4.008   2.553
 4887TIP3   OH214624   7.165   1.870   4.173
 4887TIP3    H114625   7.137   1.826   4.254
 4887TIP3    H214626   7.254   1.900   4.191
 4888TIP3   OH214627   4.985   4.409   2.097
 4888TIP3    H114628   5.064   4.393   2.149
 4888TIP3    H214629   4.939   4.326   2.095
 4889TIP3   OH214630   2.000   4.617   3.577
 4889TIP3    H114631   1.961   4.544   3.625
 4889TIP3    H214632   1.927   4.655   3.528
 4890TIP3   OH214633   7.189   2.885   3.910
 4890TIP3    H114634   7.187   2.792   3.886
 4890TIP3    H214635   7.128   2.927   3.849
 4891TIP3   OH214636   3.800   4.386   4.407
 4891TIP3    H114637   3.888   4.425   4.405
 4891TIP3    H214638   3.742   4.458   4.432
 4892TIP3   OH214639   0.850   5.955   1.695
 4892TIP3    H114640   0.892   6.031   1.655
 4892TIP3    H214641   0.838   5.893   1.623
 4893TIP3   OH214642   1.515   3.879   4.839
 4893TIP3    H114643   1.471   3.874   4.754
 4893TIP3    H214644   1.605   3.849   4.821
 4894TIP3   OH214645   2.615   5.630   2.464
 4894TIP3    H114646   2.638   5.556   2.407
 4894TIP3    H214647   2.553   5.682   2.412
 4895TIP3   OH214648   4.639   6.210   4.509
 4895TIP3    H114649   4.612   6.300   4.493
 4895TIP3    H214650   4.564   6.169   4.551
 4896TIP3   OH214651   3.327   2.347   4.394
 4896TIP3    H114652   3.307   2.310   4.480
 4896TIP3    H214653   3.242   2.374   4.359
 4897TIP3   OH214654   1.905   1.905   5.372
 4897TIP3    H114655   1.986   1.906   5.424
 4897TIP3    H214656   1.874   1.815   5.378
 4898TIP3   OH214657   1.354   1.592   0.798
 4898TIP3    H114658   1.322   1.607   0.887
 4898TIP3    H214659   1.320   1.505   0.776
 4899TIP3   OH214660   0.173   1.629   0.505
 4899TIP3    H114661   0.255   1.670   0.477
 4899TIP3    H214662   0.124   1.616   0.424
 4900TIP3   OH214663   4.005   4.533   4.648
 4900TIP3    H114664   4.014   4.441   4.672
 4900TIP3    H214665   4.080   4.575   4.691
 4901TIP3   OH214666   6.015   4.466   0.308
 4901TIP3    H114667   6.002   4.371   0.303
 4901TIP3    H214668   6.051   4.480   0.395
 4902TIP3   OH214669   6.764   4.955   1.561
 4902TIP3    H114670   6.753   4.877   1.616
 4902TIP3    H214671   6.723   4.931   1.477
 4903TIP3   OH214672   0.688   5.804   3.077
 4903TIP3    H114673   0.618   5.745   3.103
 4903TIP3    H214674   0.664   5.833   2.989
 4904TIP3   OH214675   2.533   4.757   5.462
 4904TIP3    H114676   2.574   4.759   5.548
 4904TIP3    H214677   2.562   4.674   5.424
 4905TIP3   OH214678   1.377   6.193   3.476
 4905TIP3    H114679   1.364   6.280   3.513
 4905TIP3    H214680   1.289   6.157   3.468
 4906TIP3   OH214681   0.612   2.721   4.691
 4906TIP3    H114682   0.658   2.646   4.729
 4906TIP3    H214683   0.540   2.738   4.752
 4907TIP3   OH214684   5.767   5.921   1.737
 4907TIP3    H114685   5.733   5.836   1.766
 4907TIP3    H214686   5.692   5.964   1.697
 4908TIP3   OH214687   5.619   4.961   4.387
 4908TIP3    H114688   5.641   5.029   4.323
 4908TIP3    H214689   5.666   4.986   4.466
 4909TIP3   OH214690   0.450   2.935   1.812
 4909TIP3    H114691   0.468   3.008   1.752
 4909TIP3    H214692   0.532   2.886   1.815
 4910TIP3   OH214693   4.614   5.277   0.232
 4910TIP3    H114694   4.553   5.238   0.169
 4910TIP3    H214695   4.697   5.231   0.216
 4911TIP3   OH214696   0.489   3.441   4.166
 4911TIP3    H114697   0.451   3.369   4.217
 4911TIP3    H214698   0.454   3.429   4.077
 4912TIP3   OH214699   5.813   5.937   2.546
 4912TIP3    H114700   5.765   5.855   2.532
 4912TIP3    H214701   5.890   5.911   2.596
 4913TIP3   OH214702   6.127   4.007   4.607
 4913TIP3    H114703   6.151   3.932   4.552
 4913TIP3    H214704   6.210   4.038   4.643
 4914TIP3   OH214705   6.292   4.330   1.512
 4914TIP3    H114706   6.249   4.363   1.591
 4914TIP3    H214707   6.322   4.408   1.466
 4915TIP3   OH214708   4.250   0.234   4.938
 4915TIP3    H114709   4.260   0.147   4.976
 4915TIP3    H214710   4.155   0.246   4.929
 4916TIP3   OH214711   6.877   2.484   3.884
 4916TIP3    H114712   6.873   2.391   3.906
 4916TIP3    H214713   6.908   2.525   3.965
 4917TIP3   OH214714   2.012   1.004   3.509
 4917TIP3    H114715   2.072   1.023   3.437
 4917TIP3    H214716   2.062   0.947   3.567
 4918TIP3   OH214717   7.184   6.572   1.750
 4918TIP3    H114718   7.236   6.492   1.762
 4918TIP3    H214719   7.233   6.623   1.686
 4919TIP3   OH214720   5.338   3.064   0.851
 4919TIP3    H114721   5.352   2.974   0.880
 4919TIP3    H214722   5.249   3.085   0.879
 4920TIP3   OH214723   3.398   4.445   3.138
 4920TIP3    H114724   3.380   4.357   3.106
 4920TIP3    H214725   3.492   4.444   3.159
 4921TIP3   OH214726   1.631   1.863   0.062
 4921TIP3    H114727   1.624   1.853   0.157
 4921TIP3    H214728   1.677   1.784   0.033
 4922TIP3   OH214729   1.544   1.525   5.441
 4922TIP3    H114730   1.589   1.459   5.389
 4922TIP3    H214731   1.452   1.498   5.440
 4923TIP3   OH214732   2.292   2.403   2.245
 4923TIP3    H114733   2.348   2.482   2.243
 4923TIP3    H214734   2.239   2.409   2.166
 4924TIP3   OH214735   4.480   5.737   0.189
 4924TIP3    H114736   4.574   5.752   0.176
 4924TIP3    H214737   4.464   5.760   0.281
 4925TIP3   OH214738   0.052   0.398   0.075
 4925TIP3    H114739   0.053   0.443  -0.009
 4925TIP3    H214740  -0.034   0.356   0.078
 4926TIP3   OH214741   0.315   1.561   5.435
 4926TIP3    H114742   0.259   1.637   5.425
 4926TIP3    H214743   0.302   1.533   5.526
 4927TIP3   OH214744   6.019   1.543   2.049
 4927TIP3    H114745   6.063   1.476   1.997
 4927TIP3    H214746   5.990   1.607   1.985
 4928TIP3   OH214747   3.159   2.919   2.293
 4928TIP3    H114748   3.098   2.870   2.238
 4928TIP3    H214749   3.195   2.853   2.353
 4929TIP3   OH214750   0.948   2.058   0.507
 4929TIP3    H114751   0.969   2.061   0.600
 4929TIP3    H214752   1.031   2.078   0.463
 4930TIP3   OH214753   5.572   1.497   4.135
 4930TIP3    H114754   5.518   1.448   4.197
 4930TIP3    H214755   5.526   1.581   4.126
 4931TIP3   OH214756   4.433   2.696   3.587
 4931TIP3    H114757   4.493   2.689   3.661
 4931TIP3    H214758   4.438   2.611   3.544
 4932TIP3   OH214759   0.273   4.031   1.399
 4932TIP3    H114760   0.267   3.963   1.465
 4932TIP3    H214761   0.254   3.985   1.316
 4933TIP3   OH214762   4.036   6.165   3.750
 4933TIP3    H114763   4.076   6.249   3.773
 4933TIP3    H214764   3.983   6.141   3.827
 4934TIP3   OH214765   2.063   2.829   3.339
 4934TIP3    H114766   2.092   2.868   3.422
 4934TIP3    H214767   1.984   2.878   3.317
 4935TIP3   OH214768   5.109   0.340   2.291
 4935TIP3    H114769   5.185   0.396   2.306
 4935TIP3    H214770   5.097   0.339   2.196
 4936TIP3   OH214771   1.855   5.972   2.820
 4936TIP3    H114772   1.924   5.993   2.758
 4936TIP3    H214773   1.789   6.040   2.807
 4937TIP3   OH214774   2.074   6.340   2.473
 4937TIP3    H114775   2.030   6.297   2.400
 4937TIP3    H214776   2.018   6.415   2.494
 4938TIP3   OH214777   6.267   0.897   1.135
 4938TIP3    H114778   6.273   0.983   1.094
 4938TIP3    H214779   6.297   0.911   1.225
 4939TIP3   OH214780   1.887   4.086   0.296
 4939TIP3    H114781   1.807   4.107   0.344
 4939TIP3    H214782   1.862   4.016   0.236
 4940TIP3   OH214783   0.220   6.187   2.017
 4940TIP3    H114784   0.131   6.162   2.043
 4940TIP3    H214785   0.271   6.107   2.030
 4941TIP3   OH214786   1.205   1.536   3.017
 4941TIP3    H114787   1.115   1.503   3.007
 4941TIP3    H214788   1.196   1.631   3.009
 4942TIP3   OH214789   5.649   2.377   4.749
 4942TIP3    H114790   5.715   2.414   4.808
 4942TIP3    H214791   5.685   2.293   4.722
 4943TIP3   OH214792   3.816   0.691   1.489
 4943TIP3    H114793   3.859   0.693   1.404
 4943TIP3    H214794   3.805   0.783   1.512
 4944TIP3   OH214795   5.081   6.468   5.431
 4944TIP3    H114796   5.052   6.541   5.486
 4944TIP3    H214797   5.060   6.390   5.482
 4945TIP3   OH214798   1.502   2.125   3.906
 4945TIP3    H114799   1.506   2.214   3.871
 4945TIP3    H214800   1.580   2.082   3.871
 4946TIP3   OH214801   1.866   0.964   4.381
 4946TIP3    H114802   1.912   1.040   4.344
 4946TIP3    H214803   1.936   0.904   4.405
 4947TIP3   OH214804   5.110   0.758   5.695
 4947TIP3    H114805   5.030   0.764   5.644
 4947TIP3    H214806   5.082   0.725   5.780
 4948TIP3   OH214807   1.195   1.255   2.324
 4948TIP3    H114808   1.204   1.217   2.411
 4948TIP3    H214809   1.246   1.197   2.267
 4949TIP3   OH214810   4.727   2.722   3.489
 4949TIP3    H114811   4.707   2.671   3.567
 4949TIP3    H214812   4.707   2.812   3.513
 4950TIP3   OH214813   3.005   0.810   3.907
 4950TIP3    H114814   3.099   0.807   3.927
 4950TIP3    H214815   2.993   0.894   3.863
 4951TIP3   OH214816   0.626   5.086   0.673
 4951TIP3    H114817   0.640   5.148   0.744
 4951TIP3    H214818   0.546   5.115   0.630
 4952TIP3   OH214819   6.153   1.360   5.132
 4952TIP3    H114820   6.102   1.389   5.057
 4952TIP3    H214821   6.095   1.302   5.182
 4953TIP3   OH214822   1.738   3.989   5.598
 4953TIP3    H114823   1.813   4.031   5.640
 4953TIP3    H214824   1.739   4.023   5.508
 4954TIP3   OH214825   3.529   5.614   2.228
 4954TIP3    H114826   3.578   5.537   2.257
 4954TIP3    H214827   3.505   5.659   2.309
 4955TIP3   OH214828   0.449   2.677   2.950
 4955TIP3    H114829   0.514   2.636   2.893
 4955TIP3    H214830   0.418   2.752   2.900
 4956TIP3   OH214831   3.069   0.045   3.852
 4956TIP3    H114832   3.045  -0.043   3.824
 4956TIP3    H214833   3.129   0.031   3.925
 4957TIP3   OH214834   1.485   0.210   0.042
 4957TIP3    H114835   1.527   0.166   0.116
 4957TIP3    H214836   1.392   0.211   0.065
 4958TIP3   OH214837   3.778   2.278   2.791
 4958TIP3    H114838   3.735   2.301   2.874
 4958TIP3    H214839   3.797   2.185   2.800
 4959TIP3   OH214840   4.570   1.147   3.687
 4959TIP3    H114841   4.609   1.165   3.602
 4959TIP3    H214842   4.557   1.052   3.688
 4960TIP3   OH214843   6.295   0.736   4.729
 4960TIP3    H114844   6.249   0.806   4.684
 4960TIP3    H214845   6.379   0.730   4.684
 4961TIP3   OH214846   1.537   4.781   3.949
 4961TIP3    H114847   1.617   4.740   3.915
 4961TIP3    H214848   1.509   4.840   3.879
 4962TIP3   OH214849   2.625   6.311   1.306
 4962TIP3    H114850   2.670   6.352   1.232
 4962TIP3    H214851   2.693   6.302   1.373
 4963TIP3   OH214852   5.902   4.060   2.635
 4963TIP3    H114853   5.900   4.155   2.639
 4963TIP3    H214854   5.979   4.035   2.685
 4964TIP3   OH214855   1.106   5.864   2.915
 4964TIP3    H114856   1.040   5.838   2.979
 4964TIP3    H214857   1.074   5.947   2.879
 4965TIP3   OH214858   0.337   0.289   4.915
 4965TIP3    H114859   0.249   0.280   4.950
 4965TIP3    H214860   0.378   0.356   4.970
 4966TIP3   OH214861   7.053   5.280   2.587
 4966TIP3    H114862   7.057   5.188   2.614
 4966TIP3    H214863   7.094   5.282   2.501
 4967TIP3   OH214864   4.793   1.549   1.065
 4967TIP3    H114865   4.773   1.642   1.056
 4967TIP3    H214866   4.762   1.510   0.983
 4968TIP3   OH214867   5.448   4.899   3.831
 4968TIP3    H114868   5.388   4.868   3.763
 4968TIP3    H214869   5.469   4.821   3.882
 4969TIP3   OH214870   6.036   5.408   1.343
 4969TIP3    H114871   6.037   5.334   1.281
 4969TIP3    H214872   6.020   5.367   1.428
 4970TIP3   OH214873   1.643   4.510   3.121
 4970TIP3    H114874   1.687   4.561   3.189
 4970TIP3    H214875   1.581   4.455   3.169
 4971TIP3   OH214876   1.849   0.435   4.910
 4971TIP3    H114877   1.850   0.470   4.999
 4971TIP3    H214878   1.777   0.482   4.867
 4972TIP3   OH214879   4.416   6.310   1.359
 4972TIP3    H114880   4.326   6.279   1.346
 4972TIP3    H214881   4.422   6.326   1.453
 4973TIP3   OH214882   2.300   2.482   2.843
 4973TIP3    H114883   2.326   2.464   2.933
 4973TIP3    H214884   2.235   2.552   2.851
 4974TIP3   OH214885   1.209   1.878   4.504
 4974TIP3    H114886   1.220   1.877   4.409
 4974TIP3    H214887   1.214   1.786   4.530
 4975TIP3   OH214888   3.781   1.975   5.549
 4975TIP3    H114889   3.742   2.040   5.491
 4975TIP3    H214890   3.709   1.917   5.573
 4976TIP3   OH214891   6.273   1.142   1.038
 4976TIP3    H114892   6.230   1.197   0.973
 4976TIP3    H214893   6.227   1.162   1.120
 4977TIP3   OH214894   4.980   6.448   1.460
 4977TIP3    H114895   5.006   6.478   1.546
 4977TIP3    H214896   4.939   6.363   1.475
 4978TIP3   OH214897   0.480   6.023   5.017
 4978TIP3    H114898   0.391   6.015   4.981
 4978TIP3    H214899   0.517   5.935   5.009
 4979TIP3   OH214900   1.971   3.600   0.537
 4979TIP3    H114901   1.887   3.595   0.583
 4979TIP3    H214902   1.948   3.626   0.448
 4980TIP3   OH214903   1.760   3.240   5.141
 4980TIP3    H114904   1.853   3.236   5.119
 4980TIP3    H214905   1.722   3.161   5.103
 4981TIP3   OH214906   6.043   2.902   1.940
 4981TIP3    H114907   5.992   2.838   1.890
 4981TIP3    H214908   6.132   2.868   1.938
 4982TIP3   OH214909   2.073   1.854   2.292
 4982TIP3    H114910   2.011   1.833   2.363
 4982TIP3    H214911   2.084   1.949   2.298
 4983TIP3   OH214912   6.424   1.077   2.597
 4983TIP3    H114913   6.331   1.069   2.620
 4983TIP3    H214914   6.469   1.084   2.682
 4984TIP3   OH214915   3.628   2.287   0.316
 4984TIP3    H114916   3.646   2.221   0.383
 4984TIP3    H214917   3.580   2.239   0.248
 4985TIP3   OH214918   5.223   4.089   3.794
 4985TIP3    H114919   5.214   4.004   3.749
 4985TIP3    H214920   5.157   4.087   3.863
 4986TIP3   OH214921   2.583   3.781   0.368
 4986TIP3    H114922   2.571   3.789   0.463
 4986TIP3    H214923   2.566   3.688   0.350
 4987TIP3   OH214924   1.543   6.053   2.455
 4987TIP3    H114925   1.567   6.052   2.362
 4987TIP3    H214926   1.521   5.962   2.475
 4988TIP3   OH214927   1.771   3.840   1.862
 4988TIP3    H114928   1.840   3.904   1.880
 4988TIP3    H214929   1.764   3.837   1.766
 4989TIP3   OH214930   7.088   0.202   0.679
 4989TIP3    H114931   7.154   0.165   0.621
 4989TIP3    H214932   7.083   0.294   0.654
 4990TIP3   OH214933   4.815   3.076   2.383
 4990TIP3    H114934   4.790   3.072   2.291
 4990TIP3    H214935   4.907   3.049   2.385
 4991TIP3   OH214936   3.191   5.327   1.650
 4991TIP3    H114937   3.143   5.357   1.573
 4991TIP3    H214938   3.223   5.240   1.626
 4992TIP3   OH214939   5.690   2.807   5.625
 4992TIP3    H114940   5.633   2.756   5.567
 4992TIP3    H214941   5.630   2.865   5.671
 4993TIP3   OH214942   6.221   3.508   0.128
 4993TIP3    H114943   6.167   3.440   0.089
 4993TIP3    H214944   6.226   3.576   0.061
 4994TIP3   OH214945   6.405   4.988   3.039
 4994TIP3    H114946   6.323   4.990   2.989
 4994TIP3    H214947   6.471   4.961   2.976
 4995TIP3   OH214948   1.244   2.657   4.009
 4995TIP3    H114949   1.219   2.712   4.083
 4995TIP3    H214950   1.263   2.719   3.938
 4996TIP3   OH214951   6.113   4.991   1.342
 4996TIP3    H114952   6.030   5.008   1.299
 4996TIP3    H214953   6.179   5.013   1.276
 4997TIP3   OH214954   4.887   4.796   5.432
 4997TIP3    H114955   4.940   4.718   5.442
 4997TIP3    H214956   4.948   4.869   5.447
 4998TIP3   OH214957   2.235   3.461   5.163
 4998TIP3    H114958   2.327   3.463   5.192
 4998TIP3    H214959   2.239   3.424   5.075
 4999TIP3   OH214960   4.120   6.324   1.386
 4999TIP3    H114961   4.119   6.282   1.472
 4999TIP3    H214962   4.045   6.384   1.387
 5000TIP3   OH214963   3.200   3.734   2.263
 5000TIP3    H114964   3.288   3.698   2.270
 5000TIP3    H214965   3.178   3.726   2.170
 5001TIP3   OH214966   3.320   0.191   2.500
 5001TIP3    H114967   3.283   0.126   2.560
 5001TIP3    H214968   3.245   0.245   2.475
 5002TIP3   OH214969   3.474   3.149   1.150
 5002TIP3    H114970   3.527   3.082   1.107
 5002TIP3    H214971   3.469   3.220   1.085
 5003TIP3   OH214972   6.793   1.674   4.046
 5003TIP3    H114973   6.801   1.745   4.110
 5003TIP3    H214974   6.883   1.642   4.035
 5004TIP3   OH214975   2.533   0.653   1.937
 5004TIP3    H114976   2.478   0.611   1.870
 5004TIP3    H214977   2.558   0.581   1.995
 5005TIP3   OH214978   4.812   0.905   3.727
 5005TIP3    H114979   4.801   0.942   3.815
 5005TIP3    H214980   4.850   0.976   3.675
 5006TIP3   OH214981   5.505   1.887   1.659
 5006TIP3    H114982   5.514   1.981   1.674
 5006TIP3    H214983   5.445   1.880   1.584
 5007TIP3   OH214984   2.809   4.502   2.493
 5007TIP3    H114985   2.890   4.491   2.544
 5007TIP3    H214986   2.748   4.438   2.531
 5008TIP3   OH214987   3.131   4.949   2.183
 5008TIP3    H114988   3.040   4.937   2.212
 5008TIP3    H214989   3.157   4.862   2.153
 5009TIP3   OH214990   0.306   2.398   3.435
 5009TIP3    H114991   0.348   2.422   3.352
 5009TIP3    H214992   0.225   2.449   3.436
 5010TIP3   OH214993   0.585   0.870   4.385
 5010TIP3    H114994   0.574   0.927   4.310
 5010TIP3    H214995   0.554   0.922   4.460
 5011TIP3   OH214996   2.452   6.376   4.841
 5011TIP3    H114997   2.530   6.384   4.786
 5011TIP3    H214998   2.401   6.456   4.822
 5012TIP3   OH214999   2.229   4.596   4.040
 5012TIP3    H115000   2.277   4.627   4.117
 5012TIP3    H215001   2.159   4.660   4.029
 5013TIP3   OH215002   6.647   1.896   5.009
 5013TIP3    H115003   6.690   1.930   5.087
 5013TIP3    H215004   6.556   1.883   5.035
 5014TIP3   OH215005   5.527   0.244   3.148
 5014TIP3    H115006   5.434   0.246   3.126
 5014TIP3    H215007   5.532   0.195   3.230
 5015TIP3   OH215008   5.150   2.460   1.071
 5015TIP3    H115009   5.088   2.489   1.139
 5015TIP3    H215010   5.175   2.540   1.026
 5016TIP3   OH215011   6.104   5.648   4.434
 5016TIP3    H115012   6.119   5.708   4.361
 5016TIP3    H215013   6.026   5.598   4.408
 5017TIP3   OH215014   0.184   0.288   0.309
 5017TIP3    H115015   0.231   0.218   0.264
 5017TIP3    H215016   0.127   0.326   0.241
 5018TIP3   OH215017   0.910   3.651   3.994
 5018TIP3    H115018   0.852   3.721   4.024
 5018TIP3    H215019   0.873   3.624   3.910
 5019TIP3   OH215020   4.526   5.353   1.459
 5019TIP3    H115021   4.445   5.404   1.454
 5019TIP3    H215022   4.524   5.298   1.381
 5020TIP3   OH215023   1.045   4.370   2.103
 5020TIP3    H115024   0.981   4.317   2.057
 5020TIP3    H215025   1.040   4.456   2.061
 5021TIP3   OH215026   4.409   2.590   3.913
 5021TIP3    H115027   4.386   2.608   3.822
 5021TIP3    H215028   4.332   2.620   3.963
 5022TIP3   OH215029   1.780   1.296   1.076
 5022TIP3    H115030   1.818   1.349   1.146
 5022TIP3    H215031   1.697   1.339   1.056
 5023TIP3   OH215032   5.610   4.846   4.879
 5023TIP3    H115033   5.617   4.820   4.788
 5023TIP3    H215034   5.550   4.920   4.879
 5024TIP3   OH215035   5.215   5.252   4.686
 5024TIP3    H115036   5.142   5.209   4.640
 5024TIP3    H215037   5.220   5.209   4.770
 5025TIP3   OH215038   0.726   0.350   5.010
 5025TIP3    H115039   0.687   0.402   4.939
 5025TIP3    H215040   0.820   0.367   5.002
 5026TIP3   OH215041   0.890   6.242   4.722
 5026TIP3    H115042   0.819   6.278   4.775
 5026TIP3    H215043   0.861   6.153   4.700
 5027TIP3   OH215044   1.031   5.470   2.685
 5027TIP3    H115045   0.967   5.469   2.756
 5027TIP3    H215046   1.068   5.382   2.684
 5028TIP3   OH215047   0.331   2.784   2.699
 5028TIP3    H115048   0.381   2.712   2.662
 5028TIP3    H215049   0.240   2.763   2.681
 5029TIP3   OH215050   6.740   6.797   2.741
 5029TIP3    H115051   6.772   6.786   2.830
 5029TIP3    H215052   6.673   6.729   2.731
 5030TIP3   OH215053   6.301   3.858   3.508
 5030TIP3    H115054   6.307   3.779   3.455
 5030TIP3    H215055   6.279   3.826   3.596
 5031TIP3   OH215056   4.824   0.062   2.412
 5031TIP3    H115057   4.863   0.049   2.499
 5031TIP3    H215058   4.846  -0.018   2.364
 5032TIP3   OH215059   2.662   1.740   5.256
 5032TIP3    H115060   2.684   1.654   5.292
 5032TIP3    H215061   2.598   1.722   5.187
 5033TIP3   OH215062   4.634   5.500   4.587
 5033TIP3    H115063   4.554   5.472   4.544
 5033TIP3    H215064   4.703   5.482   4.523
 5034TIP3   OH215065   2.244   4.395   1.417
 5034TIP3    H115066   2.306   4.466   1.396
 5034TIP3    H215067   2.232   4.401   1.511
 5035TIP3   OH215068   4.040   5.412   0.328
 5035TIP3    H115069   4.115   5.402   0.386
 5035TIP3    H215070   3.965   5.419   0.387
 5036TIP3   OH215071   3.241   2.921   4.433
 5036TIP3    H115072   3.153   2.925   4.396
 5036TIP3    H215073   3.230   2.945   4.525
 5037TIP3   OH215074   6.078   5.282   0.043
 5037TIP3    H115075   6.131   5.274   0.122
 5037TIP3    H215076   6.140   5.306  -0.026
 5038TIP3   OH215077   0.296   1.508   4.343
 5038TIP3    H115078   0.311   1.594   4.304
 5038TIP3    H215079   0.237   1.525   4.416
 5039TIP3   OH215080   3.045   2.554   2.096
 5039TIP3    H115081   3.102   2.619   2.056
 5039TIP3    H215082   3.063   2.560   2.190
 5040TIP3   OH215083   6.894   1.885   4.194
 5040TIP3    H115084   6.985   1.874   4.222
 5040TIP3    H215085   6.866   1.967   4.235
 5041TIP3   OH215086   6.799   4.679   1.659
 5041TIP3    H115087   6.806   4.584   1.673
 5041TIP3    H215088   6.727   4.706   1.715
 5042TIP3   OH215089   5.890   1.213   3.323
 5042TIP3    H115090   5.918   1.253   3.405
 5042TIP3    H215091   5.948   1.252   3.256
 5043TIP3   OH215092   6.733   5.314   1.922
 5043TIP3    H115093   6.770   5.331   1.836
 5043TIP3    H215094   6.703   5.223   1.918
 5044TIP3   OH215095   5.298   3.375   3.737
 5044TIP3    H115096   5.207   3.385   3.765
 5044TIP3    H215097   5.342   3.339   3.814
 5045TIP3   OH215098   0.521   6.414   5.153
 5045TIP3    H115099   0.586   6.470   5.196
 5045TIP3    H215100   0.569   6.371   5.082
 5046TIP3   OH215101   1.852   2.177   2.792
 5046TIP3    H115102   1.865   2.092   2.750
 5046TIP3    H215103   1.793   2.159   2.865
 5047TIP3   OH215104   7.058   0.778   4.915
 5047TIP3    H115105   6.999   0.735   4.853
 5047TIP3    H215106   7.037   0.871   4.906
 5048TIP3   OH215107   4.413   3.279   4.400
 5048TIP3    H115108   4.487   3.219   4.410
 5048TIP3    H215109   4.354   3.234   4.339
 5049TIP3   OH215110   5.717   3.269   3.149
 5049TIP3    H115111   5.697   3.258   3.242
 5049TIP3    H215112   5.802   3.227   3.137
 5050TIP3   OH215113   5.957   2.171   3.418
 5050TIP3    H115114   5.893   2.124   3.364
 5050TIP3    H215115   6.025   2.197   3.356
 5051TIP3   OH215116   0.834   6.472   1.574
 5051TIP3    H115117   0.885   6.542   1.533
 5051TIP3    H215118   0.807   6.509   1.658
 5052TIP3   OH215119   2.061   3.922   4.865
 5052TIP3    H115120   2.089   3.894   4.952
 5052TIP3    H215121   2.100   3.858   4.806
 5053TIP3   OH215122   2.566   0.524   1.408
 5053TIP3    H115123   2.471   0.517   1.392
 5053TIP3    H215124   2.602   0.546   1.322
 5054TIP3   OH215125   1.988   4.408   4.387
 5054TIP3    H115126   2.010   4.489   4.341
 5054TIP3    H215127   1.954   4.437   4.472
 5055TIP3   OH215128   3.737   6.375   2.311
 5055TIP3    H115129   3.759   6.302   2.253
 5055TIP3    H215130   3.737   6.452   2.254
 5056TIP3   OH215131   7.022   3.325   0.312
 5056TIP3    H115132   7.075   3.261   0.360
 5056TIP3    H215133   6.981   3.378   0.380
 5057TIP3   OH215134   5.829   5.661   1.513
 5057TIP3    H115135   5.836   5.601   1.439
 5057TIP3    H215136   5.773   5.732   1.481
 5058TIP3   OH215137   0.452   3.379   2.412
 5058TIP3    H115138   0.421   3.389   2.502
 5058TIP3    H215139   0.388   3.426   2.359
 5059TIP3   OH215140   0.736   4.022   2.308
 5059TIP3    H115141   0.760   3.935   2.277
 5059TIP3    H215142   0.807   4.047   2.366
 5060TIP3   OH215143   3.486   3.645   2.170
 5060TIP3    H115144   3.540   3.582   2.121
 5060TIP3    H215145   3.549   3.693   2.223
 5061TIP3   OH215146   2.989   0.190   3.270
 5061TIP3    H115147   3.000   0.188   3.175
 5061TIP3    H215148   3.040   0.115   3.301
 5062TIP3   OH215149   5.091   2.616   1.308
 5062TIP3    H115150   5.137   2.682   1.359
 5062TIP3    H215151   5.034   2.572   1.371
 5063TIP3   OH215152   3.456   6.045   4.652
 5063TIP3    H115153   3.436   6.135   4.677
 5063TIP3    H215154   3.383   6.019   4.596
 5064TIP3   OH215155   4.076   2.178   5.077
 5064TIP3    H115156   4.002   2.124   5.105
 5064TIP3    H215157   4.038   2.263   5.059
 5065TIP3   OH215158   2.287   5.942   4.631
 5065TIP3    H115159   2.267   5.906   4.718
 5065TIP3    H215160   2.201   5.949   4.588
 5066TIP3   OH215161   2.989   3.836   3.506
 5066TIP3    H115162   2.899   3.834   3.540
 5066TIP3    H215163   3.032   3.905   3.557
 5067TIP3   OH215164   2.440   3.933   1.788
 5067TIP3    H115165   2.344   3.923   1.787
 5067TIP3    H215166   2.458   3.979   1.870
 5068TIP3   OH215167   5.756   4.351   2.973
 5068TIP3    H115168   5.722   4.264   2.956
 5068TIP3    H215169   5.801   4.377   2.893
 5069TIP3   OH215170   1.422   1.480   3.176
 5069TIP3    H115171   1.338   1.492   3.132
 5069TIP3    H215172   1.408   1.405   3.234
 5070TIP3   OH215173   3.876   4.990   4.551
 5070TIP3    H115174   3.955   4.951   4.512
 5070TIP3    H215175   3.830   4.915   4.590
 5071TIP3   OH215176   5.521   1.577   5.058
 5071TIP3    H115177   5.483   1.490   5.046
 5071TIP3    H215178   5.585   1.585   4.988
 5072TIP3   OH215179   1.503   6.581   1.729
 5072TIP3    H115180   1.559   6.552   1.801
 5072TIP3    H215181   1.437   6.636   1.771
 5073TIP3   OH215182   5.919   3.108   0.167
 5073TIP3    H115183   5.924   3.114   0.262
 5073TIP3    H215184   5.929   3.198   0.136
 5074TIP3   OH215185   4.230   3.077   3.107
 5074TIP3    H115186   4.319   3.076   3.069
 5074TIP3    H215187   4.223   3.163   3.149
 5075TIP3   OH215188   2.288   5.351   3.712
 5075TIP3    H115189   2.214   5.290   3.709
 5075TIP3    H215190   2.342   5.327   3.637
 5076TIP3   OH215191   3.160   5.664   5.785
 5076TIP3    H115192   3.233   5.605   5.766
 5076TIP3    H215193   3.194   5.751   5.769
 5077TIP3   OH215194   0.412   3.782   5.133
 5077TIP3    H115195   0.357   3.801   5.209
 5077TIP3    H215196   0.431   3.688   5.140
 5078TIP3   OH215197   3.986   6.069   3.460
 5078TIP3    H115198   4.058   6.069   3.522
 5078TIP3    H215199   3.909   6.046   3.512
 5079TIP3   OH215200   4.314   5.226   4.360
 5079TIP3    H115201   4.324   5.309   4.313
 5079TIP3    H215202   4.251   5.245   4.430
 5080TIP3   OH215203   0.755   4.276   4.612
 5080TIP3    H115204   0.834   4.238   4.651
 5080TIP3    H215205   0.762   4.254   4.519
 5081TIP3   OH215206   5.873   3.519   5.446
 5081TIP3    H115207   5.879   3.453   5.515
 5081TIP3    H215208   5.780   3.522   5.423
 5082TIP3   OH215209   0.222   5.718   3.589
 5082TIP3    H115210   0.217   5.623   3.590
 5082TIP3    H215211   0.203   5.742   3.498
 5083TIP3   OH215212   6.232   4.190   1.023
 5083TIP3    H115213   6.282   4.269   1.046
 5083TIP3    H215214   6.291   4.117   1.043
 5084TIP3   OH215215   0.352   2.554   3.178
 5084TIP3    H115216   0.273   2.579   3.224
 5084TIP3    H215217   0.370   2.627   3.118
 5085TIP3   OH215218   4.089   1.676   2.375
 5085TIP3    H115219   4.010   1.730   2.367
 5085TIP3    H215220   4.139   1.696   2.296
 5086TIP3   OH215221   5.939   1.960   1.336
 5086TIP3    H115222   6.030   1.970   1.311
 5086TIP3    H215223   5.924   2.030   1.399
 5087TIP3   OH215224   6.522   1.871   3.183
 5087TIP3    H115225   6.483   1.835   3.103
 5087TIP3    H215226   6.614   1.844   3.180
 5088TIP3   OH215227   4.421   2.104   3.629
 5088TIP3    H115228   4.402   2.045   3.556
 5088TIP3    H215229   4.514   2.091   3.647
 5089TIP3   OH215230   6.315   3.079   4.484
 5089TIP3    H115231   6.262   3.013   4.529
 5089TIP3    H215232   6.321   3.047   4.394
 5090TIP3   OH215233   4.746   3.590   3.356
 5090TIP3    H115234   4.652   3.589   3.341
 5090TIP3    H215235   4.772   3.498   3.346
 5091TIP3   OH215236   1.153   1.407   3.837
 5091TIP3    H115237   1.073   1.449   3.805
 5091TIP3    H215238   1.135   1.313   3.831
 5092TIP3   OH215239   1.306   4.292   0.442
 5092TIP3    H115240   1.348   4.227   0.385
 5092TIP3    H215241   1.214   4.267   0.443
 5093TIP3   OH215242   1.683   0.838   1.466
 5093TIP3    H115243   1.701   0.903   1.534
 5093TIP3    H215244   1.706   0.882   1.384
 5094TIP3   OH215245   2.373   3.930   4.626
 5094TIP3    H115246   2.414   4.009   4.591
 5094TIP3    H215247   2.412   3.919   4.712
 5095TIP3   OH215248   6.495   2.132   0.696
 5095TIP3    H115249   6.490   2.220   0.658
 5095TIP3    H215250   6.587   2.109   0.693
 5096TIP3   OH215251   6.362   6.685   1.034
 5096TIP3    H115252   6.348   6.629   1.110
 5096TIP3    H215253   6.286   6.743   1.033
 5097TIP3   OH215254   6.227   1.298   0.788
 5097TIP3    H115255   6.223   1.207   0.759
 5097TIP3    H215256   6.145   1.336   0.759
 5098TIP3   OH215257   5.836   1.052   1.046
 5098TIP3    H115258   5.888   1.132   1.055
 5098TIP3    H215259   5.878   0.989   1.105
 5099TIP3   OH215260   5.101   3.829   4.065
 5099TIP3    H115261   5.180   3.800   4.019
 5099TIP3    H215262   5.091   3.921   4.038
 5100TIP3   OH215263   1.478   2.969   4.564
 5100TIP3    H115264   1.400   3.022   4.583
 5100TIP3    H215265   1.520   3.014   4.490
 5101TIP3   OH215266   4.090   1.010   4.295
 5101TIP3    H115267   4.107   0.920   4.321
 5101TIP3    H215268   4.013   1.036   4.346
 5102TIP3   OH215269   2.949   6.177   0.165
 5102TIP3    H115270   3.026   6.234   0.165
 5102TIP3    H215271   2.876   6.236   0.148
 5103TIP3   OH215272   3.377   2.693   4.954
 5103TIP3    H115273   3.308   2.678   4.889
 5103TIP3    H215274   3.354   2.635   5.027
 5104TIP3   OH215275   5.568   1.808   2.310
 5104TIP3    H115276   5.545   1.760   2.390
 5104TIP3    H215277   5.499   1.874   2.301
 5105TIP3   OH215278   2.778   5.346   0.955
 5105TIP3    H115279   2.711   5.384   0.898
 5105TIP3    H215280   2.861   5.379   0.921
 5106TIP3   OH215281   4.987   6.387   4.971
 5106TIP3    H115282   5.059   6.440   4.939
 5106TIP3    H215283   5.009   6.297   4.944
 5107TIP3   OH215284  -0.005   2.637   1.601
 5107TIP3    H115285   0.085   2.651   1.629
 5107TIP3    H215286  -0.018   2.543   1.609
 5108TIP3   OH215287   4.284   4.675   1.471
 5108TIP3    H115288   4.349   4.606   1.459
 5108TIP3    H215289   4.226   4.643   1.539
 5109TIP3   OH215290   3.612   3.746   3.391
 5109TIP3    H115291   3.697   3.784   3.413
 5109TIP3    H215292   3.602   3.762   3.297
 5110TIP3   OH215293   6.916   2.954   5.413
 5110TIP3    H115294   6.974   2.987   5.481
 5110TIP3    H215295   6.957   2.981   5.331
 5111TIP3   OH215296   4.856   3.335   2.613
 5111TIP3    H115297   4.828   3.416   2.654
 5111TIP3    H215298   4.927   3.361   2.554
 5112TIP3   OH215299   6.173   4.495   4.167
 5112TIP3    H115300   6.213   4.541   4.093
 5112TIP3    H215301   6.181   4.556   4.241
 5113TIP3   OH215302   5.123   0.683   2.463
 5113TIP3    H115303   5.180   0.695   2.387
 5113TIP3    H215304   5.076   0.766   2.471
 5114TIP3   OH215305   6.636   3.410   3.558
 5114TIP3    H115306   6.601   3.321   3.568
 5114TIP3    H215307   6.631   3.427   3.464
 5115TIP3   OH215308   2.813   6.490   0.786
 5115TIP3    H115309   2.843   6.579   0.769
 5115TIP3    H215310   2.763   6.466   0.707
 5116TIP3   OH215311   6.765   3.458   5.770
 5116TIP3    H115312   6.780   3.453   5.675
 5116TIP3    H215313   6.822   3.391   5.807
 5117TIP3   OH215314   4.181   1.305   4.754
 5117TIP3    H115315   4.212   1.335   4.840
 5117TIP3    H215316   4.158   1.213   4.767
 5118TIP3   OH215317   1.194   6.705   5.671
 5118TIP3    H115318   1.186   6.644   5.744
 5118TIP3    H215319   1.107   6.706   5.631
 5119TIP3   OH215320   7.050   2.759   4.678
 5119TIP3    H115321   6.964   2.794   4.656
 5119TIP3    H215322   7.078   2.809   4.755
 5120TIP3   OH215323   6.633   0.266   0.959
 5120TIP3    H115324   6.682   0.227   0.886
 5120TIP3    H215325   6.673   0.352   0.972
 5121TIP3   OH215326   2.872   4.436   5.759
 5121TIP3    H115327   2.813   4.492   5.708
 5121TIP3    H215328   2.928   4.497   5.806
 5122TIP3   OH215329   0.735   6.321   1.202
 5122TIP3    H115330   0.736   6.403   1.251
 5122TIP3    H215331   0.820   6.281   1.222
 5123TIP3   OH215332   1.809   5.553   5.380
 5123TIP3    H115333   1.730   5.514   5.343
 5123TIP3    H215334   1.800   5.647   5.362
 5124TIP3   OH215335   4.072   0.064   5.445
 5124TIP3    H115336   4.039   0.105   5.365
 5124TIP3    H215337   4.093  -0.026   5.419
 5125TIP3   OH215338   7.068   4.453   0.392
 5125TIP3    H115339   7.047   4.546   0.382
 5125TIP3    H215340   7.162   4.448   0.375
 5126TIP3   OH215341   1.493   3.773   2.325
 5126TIP3    H115342   1.575   3.819   2.307
 5126TIP3    H215343   1.459   3.750   2.238
 5127TIP3   OH215344   3.901   1.789   3.267
 5127TIP3    H115345   3.852   1.706   3.266
 5127TIP3    H215346   3.962   1.782   3.193
 5128TIP3   OH215347   0.851   4.236   1.017
 5128TIP3    H115348   0.787   4.290   1.063
 5128TIP3    H215349   0.803   4.198   0.944
 5129TIP3   OH215350   5.266   6.537   5.785
 5129TIP3    H115351   5.325   6.478   5.738
 5129TIP3    H215352   5.235   6.486   5.859
 5130TIP3   OH215353   2.928   3.467   1.086
 5130TIP3    H115354   2.978   3.434   1.160
 5130TIP3    H215355   2.971   3.548   1.061
 5131TIP3   OH215356   4.052   4.594   0.656
 5131TIP3    H115357   4.131   4.634   0.619
 5131TIP3    H215358   3.987   4.602   0.587
 5132TIP3   OH215359   5.145   2.152   0.784
 5132TIP3    H115360   5.082   2.170   0.714
 5132TIP3    H215361   5.219   2.110   0.740
 5133TIP3   OH215362   4.267   0.333   3.522
 5133TIP3    H115363   4.246   0.363   3.433
 5133TIP3    H215364   4.330   0.262   3.509
 5134TIP3   OH215365   4.624   0.347   4.838
 5134TIP3    H115366   4.627   0.335   4.933
 5134TIP3    H215367   4.544   0.304   4.810
 5135TIP3   OH215368   2.580   2.291   3.717
 5135TIP3    H115369   2.645   2.323   3.655
 5135TIP3    H215370   2.606   2.200   3.733
 5136TIP3   OH215371   7.157   0.744   0.719
 5136TIP3    H115372   7.209   0.802   0.775
 5136TIP3    H215373   7.205   0.661   0.721
 5137TIP3   OH215374   4.052   6.121   5.294
 5137TIP3    H115375   4.024   6.067   5.220
 5137TIP3    H215376   3.998   6.090   5.367
 5138TIP3   OH215377   6.791   1.341   0.682
 5138TIP3    H115378   6.792   1.245   0.673
 5138TIP3    H215379   6.700   1.366   0.669
 5139TIP3   OH215380   6.209   4.333   4.455
 5139TIP3    H115381   6.248   4.271   4.517
 5139TIP3    H215382   6.236   4.419   4.487
 5140TIP3   OH215383   4.483   2.741   1.542
 5140TIP3    H115384   4.466   2.779   1.628
 5140TIP3    H215385   4.443   2.654   1.545
 5141TIP3   OH215386   6.307   5.390   1.920
 5141TIP3    H115387   6.236   5.407   1.859
 5141TIP3    H215388   6.384   5.430   1.880
 5142TIP3   OH215389   4.414   2.685   2.938
 5142TIP3    H115390   4.431   2.744   2.865
 5142TIP3    H215391   4.379   2.742   3.007
 5143TIP3   OH215392   1.173   4.061   0.002
 5143TIP3    H115393   1.085   4.035  -0.024
 5143TIP3    H215394   1.229   4.027  -0.068
 5144TIP3   OH215395   2.674   5.646   3.179
 5144TIP3    H115396   2.703   5.703   3.108
 5144TIP3    H215397   2.707   5.687   3.258
 5145TIP3   OH215398   6.256   6.768   3.716
 5145TIP3    H115399   6.335   6.800   3.672
 5145TIP3    H215400   6.217   6.707   3.653
 5146TIP3   OH215401   6.074   5.264   1.107
 5146TIP3    H115402   6.094   5.296   1.019
 5146TIP3    H215403   6.158   5.231   1.139
 5147TIP3   OH215404   3.978   4.767   0.885
 5147TIP3    H115405   3.911   4.817   0.837
 5147TIP3    H215406   4.051   4.759   0.823
 5148TIP3   OH215407   1.629   2.382   0.684
 5148TIP3    H115408   1.656   2.417   0.769
 5148TIP3    H215409   1.540   2.417   0.671
 5149TIP3   OH215410   0.483   3.464   5.058
 5149TIP3    H115411   0.537   3.386   5.046
 5149TIP3    H215412   0.405   3.448   5.005
 5150TIP3   OH215413   5.373   0.566   4.153
 5150TIP3    H115414   5.361   0.471   4.165
 5150TIP3    H215415   5.429   0.573   4.075
 5151TIP3   OH215416   4.591   1.414   1.170
 5151TIP3    H115417   4.663   1.474   1.192
 5151TIP3    H215418   4.634   1.337   1.133
 5152TIP3   OH215419   3.264   1.629   1.029
 5152TIP3    H115420   3.342   1.654   0.979
 5152TIP3    H215421   3.234   1.549   0.988
 5153TIP3   OH215422   4.131   1.047   2.868
 5153TIP3    H115423   4.130   1.142   2.855
 5153TIP3    H215424   4.172   1.013   2.788
 5154TIP3   OH215425   2.252   1.501   2.794
 5154TIP3    H115426   2.259   1.569   2.860
 5154TIP3    H215427   2.158   1.491   2.779
 5155TIP3   OH215428   2.599   1.050   5.640
 5155TIP3    H115429   2.525   1.001   5.676
 5155TIP3    H215430   2.617   1.118   5.704
 5156TIP3   OH215431   1.386   6.396   4.386
 5156TIP3    H115432   1.310   6.451   4.363
 5156TIP3    H215433   1.347   6.315   4.419
 5157TIP3   OH215434   6.374   1.018   0.678
 5157TIP3    H115435   6.455   1.019   0.729
 5157TIP3    H215436   6.318   0.954   0.722
 5158TIP3   OH215437   0.296   2.131   1.506
 5158TIP3    H115438   0.379   2.101   1.544
 5158TIP3    H215439   0.288   2.082   1.424
 5159TIP3   OH215440   2.691   4.782   3.331
 5159TIP3    H115441   2.598   4.757   3.339
 5159TIP3    H215442   2.737   4.720   3.388
 5160TIP3   OH215443   6.417   3.213   5.054
 5160TIP3    H115444   6.406   3.154   4.979
 5160TIP3    H215445   6.332   3.256   5.063
 5161TIP3   OH215446   1.720   5.172   2.305
 5161TIP3    H115447   1.702   5.230   2.378
 5161TIP3    H215448   1.712   5.084   2.341
 5162TIP3   OH215449   4.520   2.464   4.476
 5162TIP3    H115450   4.566   2.426   4.551
 5162TIP3    H215451   4.499   2.553   4.503
 5163TIP3   OH215452   5.011   1.150   4.548
 5163TIP3    H115453   4.926   1.166   4.505
 5163TIP3    H215454   5.003   1.062   4.585
 5164TIP3   OH215455   2.521   0.981   2.595
 5164TIP3    H115456   2.588   0.926   2.555
 5164TIP3    H215457   2.466   0.920   2.644
 5165TIP3   OH215458   1.957   3.827   2.219
 5165TIP3    H115459   1.914   3.790   2.296
 5165TIP3    H215460   2.036   3.775   2.208
 5166TIP3   OH215461   0.303   4.113   5.403
 5166TIP3    H115462   0.241   4.057   5.357
 5166TIP3    H215463   0.316   4.188   5.345
 5167TIP3   OH215464   1.952   5.282   5.817
 5167TIP3    H115465   1.929   5.287   5.724
 5167TIP3    H215466   1.893   5.216   5.853
 5168TIP3   OH215467   4.709   2.002   1.980
 5168TIP3    H115468   4.780   1.955   1.935
 5168TIP3    H215469   4.684   1.943   2.052
 5169TIP3   OH215470   1.898   1.743   0.684
 5169TIP3    H115471   1.875   1.651   0.672
 5169TIP3    H215472   1.900   1.778   0.594
 5170TIP3   OH215473   2.213   6.072   5.341
 5170TIP3    H115474   2.203   6.090   5.247
 5170TIP3    H215475   2.236   6.157   5.379
 5171TIP3   OH215476   2.011   6.473   3.618
 5171TIP3    H115477   1.968   6.420   3.685
 5171TIP3    H215478   2.023   6.414   3.544
 5172TIP3   OH215479   0.898   2.514   2.879
 5172TIP3    H115480   0.952   2.571   2.825
 5172TIP3    H215481   0.845   2.465   2.815
 5173TIP3   OH215482   6.508   6.621   4.902
 5173TIP3    H115483   6.557   6.699   4.928
 5173TIP3    H215484   6.497   6.571   4.983
 5174TIP3   OH215485   6.721   3.292   2.721
 5174TIP3    H115486   6.698   3.321   2.633
 5174TIP3    H215487   6.680   3.357   2.779
 5175TIP3   OH215488   1.031   3.979   4.015
 5175TIP3    H115489   0.943   3.954   3.985
 5175TIP3    H215490   1.044   3.928   4.094
 5176TIP3   OH215491   0.186   2.879   3.505
 5176TIP3    H115492   0.114   2.941   3.494
 5176TIP3    H215493   0.192   2.866   3.600
 5177TIP3   OH215494   4.032   1.302   1.006
 5177TIP3    H115495   4.089   1.379   1.001
 5177TIP3    H215496   3.944   1.339   1.016
 5178TIP3   OH215497   2.743   2.168   3.304
 5178TIP3    H115498   2.776   2.201   3.220
 5178TIP3    H215499   2.680   2.234   3.332
 5179TIP3   OH215500   1.076   2.463   2.539
 5179TIP3    H115501   1.141   2.439   2.605
 5179TIP3    H215502   1.099   2.553   2.515
 5180TIP3   OH215503   5.551   6.152   3.128
 5180TIP3    H115504   5.598   6.200   3.197
 5180TIP3    H215505   5.460   6.179   3.138
 5181TIP3   OH215506   0.721   2.017   0.916
 5181TIP3    H115507   0.647   1.960   0.937
 5181TIP3    H215508   0.681   2.098   0.884
 5182TIP3   OH215509   5.593   3.572   2.117
 5182TIP3    H115510   5.662   3.625   2.077
 5182TIP3    H215511   5.617   3.569   2.210
 5183TIP3   OH215512   2.367   5.503   5.628
 5183TIP3    H115513   2.458   5.503   5.658
 5183TIP3    H215514   2.332   5.419   5.656
 5184TIP3   OH215515   6.855   6.409   4.652
 5184TIP3    H115516   6.898   6.460   4.583
 5184TIP3    H215517   6.827   6.474   4.716
 5185TIP3   OH215518   2.312   4.596   0.049
 5185TIP3    H115519   2.240   4.535   0.036
 5185TIP3    H215520   2.370   4.581  -0.026
 5186TIP3   OH215521   4.382   1.001   3.528
 5186TIP3    H115522   4.407   0.908   3.530
 5186TIP3    H215523   4.408   1.031   3.441
 5187TIP3   OH215524   2.047   2.145   5.442
 5187TIP3    H115525   1.989   2.183   5.375
 5187TIP3    H215526   1.998   2.070   5.476
 5188TIP3   OH215527   5.407   4.098   1.281
 5188TIP3    H115528   5.342   4.153   1.324
 5188TIP3    H215529   5.369   4.078   1.196
 5189TIP3   OH215530   1.246   5.674   0.161
 5189TIP3    H115531   1.219   5.694   0.072
 5189TIP3    H215532   1.280   5.584   0.156
 5190TIP3   OH215533   6.304   2.135   5.347
 5190TIP3    H115534   6.256   2.067   5.299
 5190TIP3    H215535   6.347   2.186   5.278
 5191TIP3   OH215536   6.381   1.780   0.396
 5191TIP3    H115537   6.381   1.853   0.334
 5191TIP3    H215538   6.429   1.812   0.472
 5192TIP3   OH215539   5.855   6.216   2.185
 5192TIP3    H115540   5.861   6.153   2.114
 5192TIP3    H215541   5.786   6.183   2.242
 5193TIP3   OH215542   1.519   1.001   5.082
 5193TIP3    H115543   1.590   1.064   5.072
 5193TIP3    H215544   1.557   0.930   5.135
 5194TIP3   OH215545   4.461   1.002   5.390
 5194TIP3    H115546   4.549   0.968   5.369
 5194TIP3    H215547   4.476   1.066   5.459
 5195TIP3   OH215548   6.579   1.303   4.090
 5195TIP3    H115549   6.538   1.233   4.142
 5195TIP3    H215550   6.527   1.306   4.010
 5196TIP3   OH215551   6.611   5.119   1.750
 5196TIP3    H115552   6.695   5.082   1.722
 5196TIP3    H215553   6.570   5.149   1.669
 5197TIP3   OH215554   6.599   2.893   3.567
 5197TIP3    H115555   6.660   2.820   3.560
 5197TIP3    H215556   6.518   2.861   3.528
 5198TIP3   OH215557   7.014   1.327   3.353
 5198TIP3    H115558   7.108   1.325   3.373
 5198TIP3    H215559   6.990   1.234   3.346
 5199TIP3   OH215560   5.450   0.949   4.255
 5199TIP3    H115561   5.383   0.896   4.214
 5199TIP3    H215562   5.478   0.899   4.331
 5200TIP3   OH215563   3.413   3.133   3.515
 5200TIP3    H115564   3.381   3.136   3.605
 5200TIP3    H215565   3.410   3.040   3.491
 5201TIP3   OH215566   5.930   3.933   0.659
 5201TIP3    H115567   5.916   3.927   0.564
 5201TIP3    H215568   5.982   3.855   0.680
 5202TIP3   OH215569   1.347   1.119   0.151
 5202TIP3    H115570   1.357   1.169   0.232
 5202TIP3    H215571   1.368   1.029   0.175
 5203TIP3   OH215572   1.332   3.277   3.425
 5203TIP3    H115573   1.339   3.222   3.502
 5203TIP3    H215574   1.350   3.218   3.351
 5204TIP3   OH215575   2.295   4.188   0.884
 5204TIP3    H115576   2.209   4.158   0.911
 5204TIP3    H215577   2.338   4.215   0.965
 5205TIP3   OH215578   6.828   5.770   3.140
 5205TIP3    H115579   6.906   5.714   3.136
 5205TIP3    H215580   6.763   5.725   3.085
 5206TIP3   OH215581   4.640   0.676   3.727
 5206TIP3    H115582   4.719   0.731   3.729
 5206TIP3    H215583   4.569   0.737   3.745
 5207TIP3   OH215584   5.850   5.005   0.077
 5207TIP3    H115585   5.803   4.978  -0.002
 5207TIP3    H215586   5.938   5.024   0.046
 5208TIP3   OH215587   5.182   3.406   5.017
 5208TIP3    H115588   5.117   3.337   5.026
 5208TIP3    H215589   5.201   3.409   4.923
 5209TIP3   OH215590   4.903   1.871   0.543
 5209TIP3    H115591   4.966   1.799   0.545
 5209TIP3    H215592   4.924   1.919   0.463
 5210TIP3   OH215593   7.065   4.547   4.650
 5210TIP3    H115594   6.989   4.489   4.648
 5210TIP3    H215595   7.133   4.498   4.604
 5211TIP3   OH215596   2.120   6.743   2.312
 5211TIP3    H115597   2.174   6.757   2.234
 5211TIP3    H215598   2.163   6.673   2.359
 5212TIP3   OH215599   3.671   3.440   3.297
 5212TIP3    H115600   3.758   3.405   3.319
 5212TIP3    H215601   3.665   3.521   3.346
 5213TIP3   OH215602   3.912   6.559   0.202
 5213TIP3    H115603   3.896   6.551   0.296
 5213TIP3    H215604   3.845   6.505   0.161
 5214TIP3   OH215605   6.498   5.705   2.160
 5214TIP3    H115606   6.580   5.701   2.111
 5214TIP3    H215607   6.430   5.689   2.095
 5215TIP3   OH215608   2.335   6.667   4.265
 5215TIP3    H115609   2.352   6.741   4.323
 5215TIP3    H215610   2.245   6.681   4.235
 5216TIP3   OH215611   6.978   6.479   4.189
 5216TIP3    H115612   6.923   6.545   4.146
 5216TIP3    H215613   6.926   6.399   4.186
 5217TIP3   OH215614   2.629   2.853   4.733
 5217TIP3    H115615   2.695   2.870   4.667
 5217TIP3    H215616   2.610   2.938   4.772
 5218TIP3   OH215617   2.671   1.272   0.479
 5218TIP3    H115618   2.582   1.278   0.446
 5218TIP3    H215619   2.726   1.295   0.405
 5219TIP3   OH215620   4.841   6.020   4.493
 5219TIP3    H115621   4.815   5.990   4.581
 5219TIP3    H215622   4.778   6.088   4.471
 5220TIP3   OH215623   2.129   6.686   0.270
 5220TIP3    H115624   2.057   6.655   0.216
 5220TIP3    H215625   2.174   6.751   0.216
 5221TIP3   OH215626   4.375   3.682   1.727
 5221TIP3    H115627   4.289   3.642   1.714
 5221TIP3    H215628   4.359   3.751   1.793
 5222TIP3   OH215629   3.502   3.906   3.733
 5222TIP3    H115630   3.575   3.850   3.759
 5222TIP3    H215631   3.517   3.922   3.640
 5223TIP3   OH215632   4.556   4.428   1.070
 5223TIP3    H115633   4.463   4.428   1.050
 5223TIP3    H215634   4.567   4.360   1.137
 5224TIP3   OH215635   0.130   6.677   4.375
 5224TIP3    H115636   0.143   6.670   4.280
 5224TIP3    H215637   0.120   6.770   4.391
 5225TIP3   OH215638   4.596   1.672   4.530
 5225TIP3    H115639   4.522   1.715   4.574
 5225TIP3    H215640   4.637   1.742   4.479
 5226TIP3   OH215641   3.598   4.967   0.955
 5226TIP3    H115642   3.625   4.879   0.979
 5226TIP3    H215643   3.624   5.022   1.029
 5227TIP3   OH215644   3.954   3.248   4.917
 5227TIP3    H115645   3.901   3.265   4.839
 5227TIP3    H215646   3.916   3.169   4.955
 5228TIP3   OH215647   0.146   5.778   4.784
 5228TIP3    H115648   0.078   5.825   4.736
 5228TIP3    H215649   0.118   5.686   4.782
 5229TIP3   OH215650   2.093   0.391   2.024
 5229TIP3    H115651   2.051   0.312   1.990
 5229TIP3    H215652   2.132   0.433   1.948
 5230TIP3   OH215653   5.202   2.704   2.636
 5230TIP3    H115654   5.283   2.677   2.680
 5230TIP3    H215655   5.228   2.717   2.545
 5231TIP3   OH215656   1.680   1.521   1.494
 5231TIP3    H115657   1.758   1.508   1.547
 5231TIP3    H215658   1.653   1.433   1.469
 5232TIP3   OH215659   4.805   6.627   4.834
 5232TIP3    H115660   4.769   6.568   4.900
 5232TIP3    H215661   4.872   6.677   4.881
 5233TIP3   OH215662   3.540   3.458   1.774
 5233TIP3    H115663   3.577   3.492   1.855
 5233TIP3    H215664   3.482   3.387   1.801
 5234TIP3   OH215665   1.754   5.343   1.771
 5234TIP3    H115666   1.840   5.306   1.791
 5234TIP3    H215667   1.742   5.412   1.836
 5235TIP3   OH215668   6.789   4.607   5.416
 5235TIP3    H115669   6.807   4.554   5.493
 5235TIP3    H215670   6.757   4.690   5.451
 5236TIP3   OH215671   3.413   6.624   2.544
 5236TIP3    H115672   3.478   6.644   2.476
 5236TIP3    H215673   3.457   6.648   2.626
 5237TIP3   OH215674   6.926   2.310   3.473
 5237TIP3    H115675   6.880   2.337   3.553
 5237TIP3    H215676   6.858   2.315   3.405
 5238TIP3   OH215677   2.782   1.015   3.898
 5238TIP3    H115678   2.793   0.920   3.899
 5238TIP3    H215679   2.779   1.040   3.991
 5239TIP3   OH215680   1.317   0.408   0.500
 5239TIP3    H115681   1.265   0.450   0.569
 5239TIP3    H215682   1.261   0.410   0.423
 5240TIP3   OH215683   6.865   4.535   2.531
 5240TIP3    H115684   6.939   4.486   2.564
 5240TIP3    H215685   6.853   4.606   2.594
 5241TIP3   OH215686   5.591   1.215   4.589
 5241TIP3    H115687   5.648   1.192   4.515
 5241TIP3    H215688   5.562   1.304   4.570
 5242TIP3   OH215689   6.622   1.604   1.082
 5242TIP3    H115690   6.699   1.557   1.115
 5242TIP3    H215691   6.580   1.639   1.160
 5243TIP3   OH215692   6.765   2.490   0.684
 5243TIP3    H115693   6.714   2.519   0.760
 5243TIP3    H215694   6.699   2.459   0.621
 5244TIP3   OH215695   3.711   0.627   0.709
 5244TIP3    H115696   3.790   0.646   0.760
 5244TIP3    H215697   3.741   0.571   0.637
 5245TIP3   OH215698   3.143   4.430   0.526
 5245TIP3    H115699   3.116   4.367   0.459
 5245TIP3    H215700   3.226   4.395   0.560
 5246TIP3   OH215701   1.863   5.231   3.353
 5246TIP3    H115702   1.855   5.317   3.310
 5246TIP3    H215703   1.796   5.178   3.312
 5247TIP3   OH215704   2.510   6.688   4.906
 5247TIP3    H115705   2.569   6.648   4.842
 5247TIP3    H215706   2.567   6.741   4.962
 5248TIP3   OH215707   4.014   5.316   1.069
 5248TIP3    H115708   4.018   5.340   0.976
 5248TIP3    H215709   3.972   5.391   1.111
 5249TIP3   OH215710   2.032   4.843   4.491
 5249TIP3    H115711   2.034   4.820   4.584
 5249TIP3    H215712   1.972   4.917   4.485
 5250TIP3   OH215713   6.957   6.159   4.942
 5250TIP3    H115714   6.906   6.240   4.953
 5250TIP3    H215715   6.891   6.092   4.925
 5251TIP3   OH215716   5.185   2.700   4.708
 5251TIP3    H115717   5.277   2.703   4.735
 5251TIP3    H215718   5.137   2.722   4.787
 5252TIP3   OH215719   5.912   5.030   0.452
 5252TIP3    H115720   5.938   4.939   0.466
 5252TIP3    H215721   5.994   5.075   0.431
 5253TIP3   OH215722   0.441   4.808   1.045
 5253TIP3    H115723   0.478   4.801   0.957
 5253TIP3    H215724   0.473   4.893   1.077
 5254TIP3   OH215725   1.955   5.273   4.021
 5254TIP3    H115726   1.981   5.282   4.112
 5254TIP3    H215727   1.964   5.362   3.985
 5255TIP3   OH215728   6.630   6.589   4.302
 5255TIP3    H115729   6.647   6.504   4.343
 5255TIP3    H215730   6.615   6.649   4.376
 5256TIP3   OH215731   0.344   5.416   3.833
 5256TIP3    H115732   0.356   5.478   3.905
 5256TIP3    H215733   0.429   5.372   3.826
 5257TIP3   OH215734   2.511   5.726   1.862
 5257TIP3    H115735   2.571   5.790   1.899
 5257TIP3    H215736   2.453   5.701   1.935
 5258TIP3   OH215737   6.086   6.713   3.971
 5258TIP3    H115738   6.092   6.685   3.879
 5258TIP3    H215739   6.020   6.655   4.009
 5259TIP3   OH215740   5.954   0.101   2.801
 5259TIP3    H115741   5.885   0.146   2.848
 5259TIP3    H215742   5.928   0.104   2.709
 5260TIP3   OH215743   6.053   5.807   1.540
 5260TIP3    H115744   6.062   5.823   1.634
 5260TIP3    H215745   5.976   5.751   1.532
 5261TIP3   OH215746   2.221   1.678   4.824
 5261TIP3    H115747   2.229   1.772   4.840
 5261TIP3    H215748   2.245   1.667   4.732
 5262TIP3   OH215749   4.809   5.151   1.607
 5262TIP3    H115750   4.883   5.204   1.577
 5262TIP3    H215751   4.761   5.208   1.666
 5263TIP3   OH215752   1.514   1.159   1.190
 5263TIP3    H115753   1.609   1.150   1.203
 5263TIP3    H215754   1.504   1.169   1.096
 5264TIP3   OH215755   5.038   0.543   3.421
 5264TIP3    H115756   5.013   0.533   3.329
 5264TIP3    H215757   4.968   0.597   3.459
 5265TIP3   OH215758   5.133   5.498   0.602
 5265TIP3    H115759   5.055   5.462   0.645
 5265TIP3    H215760   5.114   5.490   0.508
 5266TIP3   OH215761   1.109   5.146   4.680
 5266TIP3    H115762   1.121   5.052   4.662
 5266TIP3    H215763   1.148   5.159   4.766
 5267TIP3   OH215764   2.094   1.597   4.018
 5267TIP3    H115765   2.007   1.558   4.013
 5267TIP3    H215766   2.143   1.557   3.947
 5268TIP3   OH215767   1.846   0.936   4.659
 5268TIP3    H115768   1.889   1.015   4.627
 5268TIP3    H215769   1.867   0.869   4.593
 5269TIP3   OH215770   7.006   2.815   2.667
 5269TIP3    H115771   6.966   2.902   2.669
 5269TIP3    H215772   7.022   2.798   2.574
 5270TIP3   OH215773   5.447   1.851   1.949
 5270TIP3    H115774   5.380   1.786   1.969
 5270TIP3    H215775   5.451   1.852   1.853
 5271TIP3   OH215776   5.535   0.033   0.597
 5271TIP3    H115777   5.568   0.042   0.508
 5271TIP3    H215778   5.597  -0.028   0.639
 5272TIP3   OH215779   5.073   3.294   2.785
 5272TIP3    H115780   5.037   3.231   2.848
 5272TIP3    H215781   5.013   3.290   2.710
 5273TIP3   OH215782   0.575   1.735   2.424
 5273TIP3    H115783   0.559   1.776   2.509
 5273TIP3    H215784   0.519   1.657   2.424
 5274TIP3   OH215785   3.228   1.453   2.443
 5274TIP3    H115786   3.301   1.431   2.501
 5274TIP3    H215787   3.187   1.369   2.421
 5275TIP3   OH215788   4.550   5.839   5.702
 5275TIP3    H115789   4.494   5.764   5.720
 5275TIP3    H215790   4.491   5.915   5.702
 5276TIP3   OH215791   5.105   2.095   1.579
 5276TIP3    H115792   5.163   2.155   1.532
 5276TIP3    H215793   5.151   2.076   1.660
 5277TIP3   OH215794   0.430   2.639   0.344
 5277TIP3    H115795   0.377   2.645   0.265
 5277TIP3    H215796   0.409   2.553   0.381
 5278TIP3   OH215797   3.799   3.994   3.681
 5278TIP3    H115798   3.743   4.026   3.611
 5278TIP3    H215799   3.824   4.072   3.731
 5279TIP3   OH215800   2.670   2.773   0.108
 5279TIP3    H115801   2.585   2.762   0.065
 5279TIP3    H215802   2.708   2.685   0.108
 5280TIP3   OH215803   1.343   2.244   0.468
 5280TIP3    H115804   1.339   2.301   0.545
 5280TIP3    H215805   1.418   2.275   0.418
 5281TIP3   OH215806   2.933   5.869   5.852
 5281TIP3    H115807   2.897   5.874   5.764
 5281TIP3    H215808   3.007   5.809   5.844
 5282TIP3   OH215809   4.600   6.106   0.214
 5282TIP3    H115810   4.652   6.035   0.176
 5282TIP3    H215811   4.513   6.068   0.227
 5283TIP3   OH215812   2.001   5.423   0.756
 5283TIP3    H115813   1.924   5.416   0.813
 5283TIP3    H215814   1.965   5.445   0.670
 5284TIP3   OH215815   1.937   0.120   2.091
 5284TIP3    H115816   2.026   0.113   2.057
 5284TIP3    H215817   1.890   0.173   2.027
 5285TIP3   OH215818   4.333   6.601   0.708
 5285TIP3    H115819   4.243   6.634   0.699
 5285TIP3    H215820   4.324   6.506   0.704
 5286TIP3   OH215821   5.981   5.193   5.670
 5286TIP3    H115822   6.020   5.143   5.598
 5286TIP3    H215823   5.979   5.132   5.744
 5287TIP3   OH215824   2.371   1.171   4.944
 5287TIP3    H115825   2.323   1.247   4.912
 5287TIP3    H215826   2.331   1.096   4.900
 5288TIP3   OH215827   0.918   2.781   1.730
 5288TIP3    H115828   0.896   2.859   1.780
 5288TIP3    H215829   0.974   2.812   1.660
 5289TIP3   OH215830   0.572   5.548   2.105
 5289TIP3    H115831   0.596   5.489   2.177
 5289TIP3    H215832   0.656   5.580   2.072
 5290TIP3   OH215833   0.401   0.690   0.106
 5290TIP3    H115834   0.319   0.660   0.145
 5290TIP3    H215835   0.393   0.667   0.013
 5291TIP3   OH215836   0.990   1.733   2.460
 5291TIP3    H115837   0.962   1.800   2.398
 5291TIP3    H215838   0.911   1.712   2.510
 5292TIP3   OH215839   5.487   4.644   0.162
 5292TIP3    H115840   5.519   4.616   0.247
 5292TIP3    H215841   5.433   4.571   0.131
 5293TIP3   OH215842   6.114   4.898   5.685
 5293TIP3    H115843   6.137   4.855   5.767
 5293TIP3    H215844   6.189   4.954   5.666
 5294TIP3   OH215845   0.748   5.886   4.889
 5294TIP3    H115846   0.815   5.912   4.826
 5294TIP3    H215847   0.671   5.868   4.836
 5295TIP3   OH215848   5.312   3.685   2.144
 5295TIP3    H115849   5.390   3.733   2.116
 5295TIP3    H215850   5.306   3.611   2.084
 5296TIP3   OH215851   5.198   4.308   4.162
 5296TIP3    H115852   5.210   4.380   4.101
 5296TIP3    H215853   5.283   4.299   4.206
 5297TIP3   OH215854   3.603   1.050   3.227
 5297TIP3    H115855   3.632   0.963   3.200
 5297TIP3    H215856   3.684   1.097   3.247
 5298TIP3   OH215857   2.510   2.693   3.243
 5298TIP3    H115858   2.590   2.745   3.245
 5298TIP3    H215859   2.441   2.757   3.224
 5299TIP3   OH215860   5.501   6.023   0.329
 5299TIP3    H115861   5.495   6.094   0.394
 5299TIP3    H215862   5.576   5.971   0.358
 5300TIP3   OH215863   4.019   6.603   2.972
 5300TIP3    H115864   4.056   6.640   3.052
 5300TIP3    H215865   3.934   6.645   2.963
 5301TIP3   OH215866   3.749   0.870   0.132
 5301TIP3    H115867   3.678   0.852   0.192
 5301TIP3    H215868   3.826   0.882   0.188
 5302TIP3   OH215869   3.298   2.753   5.485
 5302TIP3    H115870   3.360   2.823   5.505
 5302TIP3    H215871   3.351   2.675   5.474
 5303TIP3   OH215872   0.614   5.326   4.259
 5303TIP3    H115873   0.564   5.285   4.330
 5303TIP3    H215874   0.705   5.308   4.280
 5304TIP3   OH215875   3.797   3.921   2.933
 5304TIP3    H115876   3.828   3.924   2.842
 5304TIP3    H215877   3.858   3.979   2.980
 5305TIP3   OH215878   6.321   5.252   3.161
 5305TIP3    H115879   6.364   5.176   3.122
 5305TIP3    H215880   6.384   5.287   3.224
 5306TIP3   OH215881   6.603   0.836   5.572
 5306TIP3    H115882   6.642   0.779   5.505
 5306TIP3    H215883   6.635   0.923   5.550
 5307TIP3   OH215884   0.136   3.272   5.599
 5307TIP3    H115885   0.046   3.303   5.606
 5307TIP3    H215886   0.160   3.288   5.508
 5308TIP3   OH215887   0.547   4.002   1.151
 5308TIP3    H115888   0.528   4.047   1.233
 5308TIP3    H215889   0.618   3.941   1.173
 5309TIP3   OH215890   0.646   5.517   0.375
 5309TIP3    H115891   0.653   5.550   0.286
 5309TIP3    H215892   0.720   5.457   0.385
 5310TIP3   OH215893   5.225   1.658   4.471
 5310TIP3    H115894   5.217   1.740   4.521
 5310TIP3    H215895   5.165   1.670   4.397
 5311TIP3   OH215896   0.895   5.091   5.154
 5311TIP3    H115897   0.987   5.114   5.168
 5311TIP3    H215898   0.898   5.014   5.097
 5312TIP3   OH215899   0.326   1.523   4.063
 5312TIP3    H115900   0.303   1.616   4.068
 5312TIP3    H215901   0.383   1.508   4.139
 5313TIP3   OH215902   1.773   1.012   1.658
 5313TIP3    H115903   1.714   1.007   1.733
 5313TIP3    H215904   1.860   1.011   1.697
 5314TIP3   OH215905   0.061   0.257   5.304
 5314TIP3    H115906  -0.019   0.308   5.323
 5314TIP3    H215907   0.133   0.316   5.328
 5315TIP3   OH215908   0.559   4.166   5.543
 5315TIP3    H115909   0.476   4.161   5.496
 5315TIP3    H215910   0.621   4.116   5.489
 5316TIP3   OH215911   3.595   5.236   3.364
 5316TIP3    H115912   3.620   5.153   3.322
 5316TIP3    H215913   3.672   5.262   3.414
 5317TIP3   OH215914   4.406   4.976   3.540
 5317TIP3    H115915   4.338   5.013   3.597
 5317TIP3    H215916   4.357   4.923   3.477
 5318TIP3   OH215917   6.148   1.110   3.161
 5318TIP3    H115918   6.237   1.140   3.146
 5318TIP3    H215919   6.121   1.152   3.242
 5319TIP3   OH215920   2.407   1.407   3.530
 5319TIP3    H115921   2.425   1.323   3.488
 5319TIP3    H215922   2.492   1.436   3.564
 5320TIP3   OH215923   2.588   6.037   1.850
 5320TIP3    H115924   2.683   6.046   1.858
 5320TIP3    H215925   2.573   6.022   1.757
 5321TIP3   OH215926   2.281   2.397   1.502
 5321TIP3    H115927   2.310   2.480   1.464
 5321TIP3    H215928   2.362   2.351   1.525
 5322TIP3   OH215929   3.750   6.728   1.903
 5322TIP3    H115930   3.674   6.779   1.930
 5322TIP3    H215931   3.817   6.794   1.883
 5323TIP3   OH215932   4.885   0.104   5.760
 5323TIP3    H115933   4.856   0.071   5.845
 5323TIP3    H215934   4.924   0.189   5.779
 5324TIP3   OH215935   7.108   1.052   0.357
 5324TIP3    H115936   7.035   1.087   0.306
 5324TIP3    H215937   7.156   0.997   0.295
 5325TIP3   OH215938   2.724   3.133   3.785
 5325TIP3    H115939   2.703   3.133   3.878
 5325TIP3    H215940   2.708   3.043   3.757
 5326TIP3   OH215941   2.116   4.450   1.665
 5326TIP3    H115942   2.156   4.412   1.743
 5326TIP3    H215943   2.033   4.487   1.697
 5327TIP3   OH215944   2.871   6.408   3.543
 5327TIP3    H115945   2.939   6.396   3.609
 5327TIP3    H215946   2.895   6.349   3.472
 5328TIP3   OH215947   0.164   0.781   1.204
 5328TIP3    H115948   0.124   0.804   1.120
 5328TIP3    H215949   0.243   0.836   1.209
 5329TIP3   OH215950   4.367   0.750   2.894
 5329TIP3    H115951   4.364   0.845   2.876
 5329TIP3    H215952   4.428   0.716   2.830
 5330TIP3   OH215953   7.136   6.529   3.906
 5330TIP3    H115954   7.114   6.516   3.999
 5330TIP3    H215955   7.167   6.619   3.902
 5331TIP3   OH215956   2.531   2.462   0.954
 5331TIP3    H115957   2.462   2.515   0.913
 5331TIP3    H215958   2.596   2.451   0.885
 5332TIP3   OH215959   2.383   0.131   2.508
 5332TIP3    H115960   2.439   0.187   2.562
 5332TIP3    H215961   2.299   0.129   2.553
 5333TIP3   OH215962   3.216   2.732   3.118
 5333TIP3    H115963   3.181   2.689   3.196
 5333TIP3    H215964   3.142   2.736   3.058
 5334TIP3   OH215965   0.788   0.227   4.126
 5334TIP3    H115966   0.779   0.304   4.182
 5334TIP3    H215967   0.737   0.159   4.170
 5335TIP3   OH215968   6.901   1.098   5.066
 5335TIP3    H115969   6.929   1.180   5.025
 5335TIP3    H215970   6.810   1.088   5.039
 5336TIP3   OH215971   3.661   4.355   3.579
 5336TIP3    H115972   3.586   4.371   3.521
 5336TIP3    H215973   3.627   4.373   3.667
 5337TIP3   OH215974   6.131   4.033   3.319
 5337TIP3    H115975   6.174   3.974   3.381
 5337TIP3    H215976   6.038   4.017   3.332
 5338TIP3   OH215977   2.619   2.666   4.219
 5338TIP3    H115978   2.651   2.735   4.161
 5338TIP3    H215979   2.586   2.713   4.296
 5339TIP3   OH215980   5.901   5.274   3.267
 5339TIP3    H115981   5.984   5.266   3.314
 5339TIP3    H215982   5.912   5.218   3.190
 5340TIP3   OH215983   6.608   3.433   0.391
 5340TIP3    H115984   6.698   3.450   0.420
 5340TIP3    H215985   6.558   3.423   0.472
 5341TIP3   OH215986   0.115   6.132   5.310
 5341TIP3    H115987   0.051   6.182   5.260
 5341TIP3    H215988   0.108   6.165   5.399
 5342TIP3   OH215989   3.724   4.284   0.516
 5342TIP3    H115990   3.719   4.254   0.607
 5342TIP3    H215991   3.643   4.334   0.503
 5343TIP3   OH215992   0.508   3.390   1.409
 5343TIP3    H115993   0.562   3.465   1.435
 5343TIP3    H215994   0.418   3.420   1.422
 5344TIP3   OH215995   3.496   2.841   4.014
 5344TIP3    H115996   3.407   2.804   4.010
 5344TIP3    H215997   3.495   2.912   3.951
 5345TIP3   OH215998   2.425   2.585   2.622
 5345TIP3    H115999   2.515   2.591   2.654
 5345TIP3    H216000   2.378   2.540   2.692
 5346TIP3   OH216001   3.163   6.023   4.290
 5346TIP3    H116002   3.125   5.936   4.288
 5346TIP3    H216003   3.139   6.061   4.205
 5347TIP3   OH216004   1.097   5.449   4.173
 5347TIP3    H116005   1.050   5.371   4.203
 5347TIP3    H216006   1.069   5.460   4.082
 5348TIP3   OH216007   1.008   4.694   0.044
 5348TIP3    H116008   1.085   4.639   0.028
 5348TIP3    H216009   1.032   4.748   0.119
 5349TIP3   OH216010   6.899   6.587   1.642
 5349TIP3    H116011   6.988   6.596   1.676
 5349TIP3    H216012   6.885   6.665   1.589
 5350TIP3   OH216013   1.023   4.552   2.785
 5350TIP3    H116014   1.118   4.562   2.789
 5350TIP3    H216015   1.001   4.559   2.692
 5351TIP3   OH216016   1.685   0.077   3.598
 5351TIP3    H116017   1.622   0.145   3.575
 5351TIP3    H216018   1.742   0.119   3.664
 5352TIP3   OH216019   7.190   0.536   5.390
 5352TIP3    H116020   7.174   0.598   5.319
 5352TIP3    H216021   7.276   0.560   5.424
 5353TIP3   OH216022   5.239   0.744   5.413
 5353TIP3    H116023   5.163   0.718   5.465
 5353TIP3    H216024   5.304   0.676   5.430
 5354TIP3   OH216025   1.337   0.511   3.578
 5354TIP3    H116026   1.271   0.512   3.647
 5354TIP3    H216027   1.312   0.437   3.522
 5355TIP3   OH216028   1.570   1.313   0.409
 5355TIP3    H116029   1.562   1.220   0.392
 5355TIP3    H216030   1.495   1.353   0.364
 5356TIP3   OH216031   3.980   0.231   1.680
 5356TIP3    H116032   4.030   0.234   1.762
 5356TIP3    H216033   3.964   0.323   1.659
 5357TIP3   OH216034   2.594   0.462   2.429
 5357TIP3    H116035   2.655   0.462   2.504
 5357TIP3    H216036   2.507   0.459   2.469
 5358TIP3   OH216037   0.419   4.901   1.408
 5358TIP3    H116038   0.394   4.967   1.343
 5358TIP3    H216039   0.508   4.875   1.384
 5359TIP3   OH216040   2.602   1.681   4.935
 5359TIP3    H116041   2.671   1.747   4.945
 5359TIP3    H216042   2.574   1.689   4.843
 5360TIP3   OH216043   1.274   5.737   0.835
 5360TIP3    H116044   1.213   5.732   0.762
 5360TIP3    H216045   1.292   5.830   0.845
 5361TIP3   OH216046   5.626   0.022   4.721
 5361TIP3    H116047   5.658   0.070   4.644
 5361TIP3    H216048   5.625   0.087   4.791
 5362TIP3   OH216049   6.371   0.084   4.870
 5362TIP3    H116050   6.418   0.002   4.854
 5362TIP3    H216051   6.380   0.100   4.964
 5363TIP3   OH216052   2.092   0.766   2.598
 5363TIP3    H116053   2.042   0.841   2.630
 5363TIP3    H216054   2.027   0.697   2.585
 5364TIP3   OH216055   6.336   1.024   4.450
 5364TIP3    H116056   6.330   1.009   4.544
 5364TIP3    H216057   6.262   0.975   4.413
 5365TIP3   OH216058  -0.016   2.743   0.102
 5365TIP3    H116059  -0.074   2.817   0.088
 5365TIP3    H216060  -0.052   2.698   0.178
 5366TIP3   OH216061   0.981   1.815   4.815
 5366TIP3    H116062   0.933   1.732   4.814
 5366TIP3    H216063   1.071   1.789   4.834
 5367TIP3   OH216064   5.469   1.711   5.447
 5367TIP3    H116065   5.531   1.675   5.384
 5367TIP3    H216066   5.393   1.653   5.442
 5368TIP3   OH216067   3.544   1.875   4.162
 5368TIP3    H116068   3.582   1.846   4.244
 5368TIP3    H216069   3.524   1.795   4.114
 5369TIP3   OH216070   2.560   6.295   2.437
 5369TIP3    H116071   2.483   6.351   2.428
 5369TIP3    H216072   2.559   6.241   2.358
 5370TIP3   OH216073   5.637   0.143   5.819
 5370TIP3    H116074   5.729   0.170   5.818
 5370TIP3    H216075   5.640   0.052   5.788
 5371TIP3   OH216076   1.041   6.187   4.312
 5371TIP3    H116077   0.990   6.138   4.248
 5371TIP3    H216078   0.978   6.248   4.350
 5372TIP3   OH216079   3.421   6.338   4.751
 5372TIP3    H116080   3.405   6.361   4.660
 5372TIP3    H216081   3.511   6.368   4.768
 5373TIP3   OH216082   6.279   1.593   2.399
 5373TIP3    H116083   6.323   1.546   2.469
 5373TIP3    H216084   6.297   1.541   2.320
 5374TIP3   OH216085   0.746   3.321   4.841
 5374TIP3    H116086   0.694   3.349   4.766
 5374TIP3    H216087   0.833   3.302   4.805
 5375TIP3   OH216088   0.363   6.356   2.194
 5375TIP3    H116089   0.418   6.312   2.260
 5375TIP3    H216090   0.282   6.305   2.194
 5376TIP3   OH216091   0.103   1.135   4.379
 5376TIP3    H116092   0.078   1.195   4.309
 5376TIP3    H216093   0.020   1.098   4.410
 5377TIP3   OH216094   6.992   2.554   4.851
 5377TIP3    H116095   6.975   2.612   4.925
 5377TIP3    H216096   7.046   2.606   4.792
 5378TIP3   OH216097   1.901   5.030   2.871
 5378TIP3    H116098   1.880   4.940   2.845
 5378TIP3    H216099   1.991   5.027   2.902
 5379TIP3   OH216100   6.840   2.177   3.220
 5379TIP3    H116101   6.834   2.082   3.232
 5379TIP3    H216102   6.749   2.206   3.216
 5380TIP3   OH216103   6.191   2.008   1.021
 5380TIP3    H116104   6.145   2.088   1.047
 5380TIP3    H216105   6.141   1.975   0.946
 5381TIP3   OH216106   0.018   2.589   3.886
 5381TIP3    H116107  -0.064   2.544   3.870
 5381TIP3    H216108   0.034   2.576   3.980
 5382TIP3   OH216109   4.263   5.878   3.381
 5382TIP3    H116110   4.345   5.835   3.358
 5382TIP3    H216111   4.230   5.827   3.456
 5383TIP3   OH216112   0.887   3.166   4.636
 5383TIP3    H116113   0.962   3.107   4.640
 5383TIP3    H216114   0.811   3.109   4.653
 5384TIP3   OH216115   2.975   5.901   0.079
 5384TIP3    H116116   2.965   5.971   0.143
 5384TIP3    H216117   2.997   5.945  -0.003
 5385TIP3   OH216118   3.543   3.536   0.268
 5385TIP3    H116119   3.454   3.536   0.304
 5385TIP3    H216120   3.531   3.549   0.174
 5386TIP3   OH216121   4.003   0.668   3.106
 5386TIP3    H116122   4.052   0.744   3.137
 5386TIP3    H216123   3.936   0.654   3.174
 5387TIP3   OH216124   2.120   0.402   1.041
 5387TIP3    H116125   2.071   0.332   0.999
 5387TIP3    H216126   2.211   0.372   1.038
 5388TIP3   OH216127   2.711   5.005  -0.006
 5388TIP3    H116128   2.765   4.989   0.071
 5388TIP3    H216129   2.649   4.932  -0.007
 5389TIP3   OH216130   6.432   2.246   0.091
 5389TIP3    H116131   6.472   2.243   0.178
 5389TIP3    H216132   6.340   2.224   0.107
 5390TIP3   OH216133   2.936   4.138   2.453
 5390TIP3    H116134   2.850   4.169   2.426
 5390TIP3    H216135   2.991   4.149   2.375
 5391TIP3   OH216136   5.408   2.460   4.658
 5391TIP3    H116137   5.495   2.428   4.683
 5391TIP3    H216138   5.347   2.409   4.712
 5392TIP3   OH216139   5.418   3.725   4.043
 5392TIP3    H116140   5.473   3.669   4.098
 5392TIP3    H216141   5.343   3.669   4.020
 5393TIP3   OH216142   0.709   3.719   3.319
 5393TIP3    H116143   0.802   3.704   3.306
 5393TIP3    H216144   0.667   3.640   3.285
 5394TIP3   OH216145   1.326   2.375   2.127
 5394TIP3    H116146   1.282   2.319   2.191
 5394TIP3    H216147   1.259   2.436   2.098
 5395TIP3   OH216148   0.853   4.657   3.317
 5395TIP3    H116149   0.939   4.643   3.275
 5395TIP3    H216150   0.857   4.604   3.397
 5396TIP3   OH216151   1.641   1.254   1.478
 5396TIP3    H116152   1.690   1.185   1.524
 5396TIP3    H216153   1.549   1.231   1.490
 5397TIP3   OH216154   2.511   5.962   5.820
 5397TIP3    H116155   2.476   5.952   5.732
 5397TIP3    H216156   2.483   6.050   5.848
 5398TIP3   OH216157   1.609   3.601   3.666
 5398TIP3    H116158   1.678   3.638   3.721
 5398TIP3    H216159   1.554   3.676   3.644
 5399TIP3   OH216160   2.333   5.579   3.340
 5399TIP3    H116161   2.364   5.488   3.342
 5399TIP3    H216162   2.267   5.582   3.410
 5400TIP3   OH216163   6.494   6.624   3.508
 5400TIP3    H116164   6.499   6.719   3.518
 5400TIP3    H216165   6.535   6.589   3.587
 5401TIP3   OH216166   5.941   6.266   4.100
 5401TIP3    H116167   5.956   6.312   4.017
 5401TIP3    H216168   5.880   6.322   4.147
 5402TIP3   OH216169   1.802   5.582   5.045
 5402TIP3    H116170   1.750   5.523   4.989
 5402TIP3    H216171   1.748   5.661   5.052
 5403TIP3   OH216172   0.891   6.352   3.929
 5403TIP3    H116173   0.839   6.365   3.850
 5403TIP3    H216174   0.873   6.262   3.956
 5404TIP3   OH216175   2.981   3.227   0.269
 5404TIP3    H116176   3.040   3.210   0.196
 5404TIP3    H216177   3.030   3.202   0.347
 5405TIP3   OH216178   0.374   5.749   2.947
 5405TIP3    H116179   0.432   5.820   2.920
 5405TIP3    H216180   0.433   5.683   2.985
 5406TIP3   OH216181   6.862   5.416   5.603
 5406TIP3    H116182   6.844   5.510   5.597
 5406TIP3    H216183   6.778   5.374   5.582
 5407TIP3   OH216184   3.928   6.595   4.699
 5407TIP3    H116185   3.926   6.579   4.793
 5407TIP3    H216186   4.011   6.640   4.684
 5408TIP3   OH216187   6.298   5.091   2.161
 5408TIP3    H116188   6.236   5.024   2.133
 5408TIP3    H216189   6.249   5.173   2.152
 5409TIP3   OH216190   4.033   4.697   3.130
 5409TIP3    H116191   3.982   4.775   3.148
 5409TIP3    H216192   4.082   4.717   3.050
 5410TIP3   OH216193   4.403   0.859   3.143
 5410TIP3    H116194   4.381   0.791   3.078
 5410TIP3    H216195   4.420   0.811   3.223
 5411TIP3   OH216196   2.494   0.783   4.784
 5411TIP3    H116197   2.476   0.733   4.704
 5411TIP3    H216198   2.520   0.870   4.754
 5412TIP3   OH216199   2.991   2.282   4.326
 5412TIP3    H116200   3.022   2.344   4.260
 5412TIP3    H216201   3.027   2.314   4.408
 5413TIP3   OH216202   5.074   1.645   0.266
 5413TIP3    H116203   5.169   1.657   0.272
 5413TIP3    H216204   5.038   1.731   0.288
 5414TIP3   OH216205   1.771   1.197   4.065
 5414TIP3    H116206   1.795   1.206   4.158
 5414TIP3    H216207   1.700   1.132   4.065
 5415TIP3   OH216208   0.079   0.385   2.349
 5415TIP3    H116209   0.081   0.329   2.428
 5415TIP3    H216210   0.010   0.448   2.367
 5416TIP3   OH216211   0.809   5.060   0.322
 5416TIP3    H116212   0.826   5.155   0.322
 5416TIP3    H216213   0.714   5.053   0.335
 5417TIP3   OH216214   1.258   0.218   2.801
 5417TIP3    H116215   1.296   0.228   2.888
 5417TIP3    H216216   1.296   0.289   2.750
 5418TIP3   OH216217   1.584   6.113   3.168
 5418TIP3    H116218   1.563   6.086   3.258
 5418TIP3    H216219   1.612   6.032   3.125
 5419TIP3   OH216220   0.275   5.493   3.301
 5419TIP3    H116221   0.226   5.425   3.254
 5419TIP3    H216222   0.244   5.486   3.392
 5420TIP3   OH216223   5.247   2.821   2.915
 5420TIP3    H116224   5.176   2.807   2.852
 5420TIP3    H216225   5.317   2.862   2.863
 5421TIP3   OH216226   0.920   5.649   1.324
 5421TIP3    H116227   0.827   5.673   1.321
 5421TIP3    H216228   0.920   5.563   1.364
 5422TIP3   OH216229   0.407   1.935   4.035
 5422TIP3    H116230   0.406   2.031   4.037
 5422TIP3    H216231   0.432   1.914   3.946
 5423TIP3   OH216232   3.182   5.928   4.677
 5423TIP3    H116233   3.145   5.857   4.625
 5423TIP3    H216234   3.143   6.008   4.639
 5424TIP3   OH216235   6.613   5.854   5.472
 5424TIP3    H116236   6.611   5.859   5.376
 5424TIP3    H216237   6.623   5.945   5.500
 5425TIP3   OH216238   5.001   3.334   3.187
 5425TIP3    H116239   5.022   3.349   3.279
 5425TIP3    H216240   5.079   3.361   3.139
 5426TIP3   OH216241   4.878   6.668   0.363
 5426TIP3    H116242   4.902   6.626   0.280
 5426TIP3    H216243   4.860   6.596   0.423
 5427TIP3   OH216244   4.103   2.362   2.325
 5427TIP3    H116245   4.176   2.423   2.338
 5427TIP3    H216246   4.057   2.396   2.249
 5428TIP3   OH216247   1.980   1.492   2.785
 5428TIP3    H116248   1.986   1.474   2.879
 5428TIP3    H216249   1.889   1.520   2.771
 5429TIP3   OH216250   5.492   0.793   2.513
 5429TIP3    H116251   5.462   0.786   2.603
 5429TIP3    H216252   5.577   0.838   2.519
 5430TIP3   OH216253   0.291   4.494   5.099
 5430TIP3    H116254   0.343   4.568   5.067
 5430TIP3    H216255   0.219   4.486   5.037
 5431TIP3   OH216256   0.084   2.095   1.072
 5431TIP3    H116257   0.085   2.027   1.005
 5431TIP3    H216258   0.061   2.175   1.024
 5432TIP3   OH216259   3.966   4.159   4.318
 5432TIP3    H116260   3.903   4.230   4.329
 5432TIP3    H216261   3.959   4.134   4.225
 5433TIP3   OH216262   4.631   5.962   1.800
 5433TIP3    H116263   4.646   5.945   1.707
 5433TIP3    H216264   4.579   5.887   1.830
 5434TIP3   OH216265   5.338   3.147   3.333
 5434TIP3    H116266   5.291   3.139   3.250
 5434TIP3    H216267   5.273   3.180   3.394
 5435TIP3   OH216268   5.714   4.261   4.465
 5435TIP3    H116269   5.718   4.197   4.535
 5435TIP3    H216270   5.805   4.282   4.447
 5436TIP3   OH216271   1.014   1.475   1.746
 5436TIP3    H116272   0.952   1.548   1.743
 5436TIP3    H216273   0.964   1.403   1.787
 5437TIP3   OH216274   0.412   0.674   5.808
 5437TIP3    H116275   0.420   0.712   5.720
 5437TIP3    H216276   0.449   0.586   5.798
 5438TIP3   OH216277   2.268   3.741   2.301
 5438TIP3    H116278   2.296   3.821   2.255
 5438TIP3    H216279   2.215   3.773   2.374
 5439TIP3   OH216280   2.941   5.807   4.895
 5439TIP3    H116281   2.872   5.873   4.889
 5439TIP3    H216282   2.940   5.764   4.809
 5440TIP3   OH216283   5.515   0.839   3.253
 5440TIP3    H116284   5.582   0.771   3.263
 5440TIP3    H216285   5.561   0.920   3.276
 5441TIP3   OH216286   0.652   0.537   1.863
 5441TIP3    H116287   0.719   0.540   1.794
 5441TIP3    H216288   0.695   0.577   1.939
 5442TIP3   OH216289   0.460   3.147   1.626
 5442TIP3    H116290   0.477   3.167   1.534
 5442TIP3    H216291   0.404   3.219   1.656
 5443TIP3   OH216292   2.369   0.494   4.095
 5443TIP3    H116293   2.450   0.523   4.052
 5443TIP3    H216294   2.396   0.467   4.182
 5444TIP3   OH216295   5.481   0.585   3.027
 5444TIP3    H116296   5.468   0.522   3.098
 5444TIP3    H216297   5.395   0.624   3.014
 5445TIP3   OH216298   2.041   6.199   3.800
 5445TIP3    H116299   1.997   6.117   3.776
 5445TIP3    H216300   1.971   6.257   3.830
 5446TIP3   OH216301   5.596   6.238   0.603
 5446TIP3    H116302   5.688   6.245   0.577
 5446TIP3    H216303   5.572   6.327   0.630
 5447TIP3   OH216304   2.639   5.418   2.285
 5447TIP3    H116305   2.567   5.375   2.331
 5447TIP3    H216306   2.640   5.377   2.199
 5448TIP3   OH216307   6.412   4.043   4.974
 5448TIP3    H116308   6.461   4.010   4.899
 5448TIP3    H216309   6.320   4.033   4.949
 5449TIP3   OH216310   0.808   5.641   2.030
 5449TIP3    H116311   0.855   5.660   1.949
 5449TIP3    H216312   0.858   5.686   2.099
 5450TIP3   OH216313   6.710   1.090   5.465
 5450TIP3    H116314   6.703   1.055   5.376
 5450TIP3    H216315   6.672   1.177   5.460
 5451TIP3   OH216316   5.441   2.241   0.141
 5451TIP3    H116317   5.515   2.244   0.201
 5451TIP3    H216318   5.479   2.267   0.056
 5452TIP3   OH216319   4.130   5.944   0.692
 5452TIP3    H116320   4.130   5.857   0.731
 5452TIP3    H216321   4.086   5.999   0.756
 5453TIP3   OH216322   2.788   0.583   0.932
 5453TIP3    H116323   2.799   0.657   0.873
 5453TIP3    H216324   2.851   0.518   0.900
 5454TIP3   OH216325   1.541   1.633   4.911
 5454TIP3    H116326   1.458   1.593   4.936
 5454TIP3    H216327   1.599   1.619   4.985
 5455TIP3   OH216328   0.980   4.895   3.843
 5455TIP3    H116329   0.988   4.812   3.797
 5455TIP3    H216330   0.894   4.892   3.885
 5456TIP3   OH216331   5.494   1.053   3.974
 5456TIP3    H116332   5.477   1.021   4.063
 5456TIP3    H216333   5.420   1.111   3.955
 5457TIP3   OH216334   5.293   5.764   4.800
 5457TIP3    H116335   5.263   5.673   4.789
 5457TIP3    H216336   5.346   5.762   4.879
 5458TIP3   OH216337   0.500   3.388   2.965
 5458TIP3    H116338   0.413   3.369   2.930
 5458TIP3    H216339   0.556   3.399   2.887
 5459TIP3   OH216340   1.810   0.500   5.188
 5459TIP3    H116341   1.820   0.574   5.248
 5459TIP3    H216342   1.729   0.457   5.217
 5460TIP3   OH216343   0.814   3.516   0.433
 5460TIP3    H116344   0.820   3.608   0.459
 5460TIP3    H216345   0.897   3.497   0.389
 5461TIP3   OH216346   4.692   2.893   0.704
 5461TIP3    H116347   4.683   2.831   0.631
 5461TIP3    H216348   4.726   2.839   0.776
 5462TIP3   OH216349   2.694   3.873   1.658
 5462TIP3    H116350   2.741   3.956   1.653
 5462TIP3    H216351   2.618   3.891   1.714
 5463TIP3   OH216352   1.516   1.316   5.102
 5463TIP3    H116353   1.560   1.309   5.017
 5463TIP3    H216354   1.586   1.312   5.166
 5464TIP3   OH216355   1.606   0.731   1.843
 5464TIP3    H116356   1.618   0.692   1.930
 5464TIP3    H216357   1.654   0.673   1.784
 5465TIP3   OH216358   0.159   1.095   5.082
 5465TIP3    H116359   0.249   1.078   5.054
 5465TIP3    H216360   0.112   1.113   5.001
 5466TIP3   OH216361   5.505   3.467   5.584
 5466TIP3    H116362   5.549   3.482   5.501
 5466TIP3    H216363   5.444   3.541   5.593
 5467TIP3   OH216364   3.150   4.694   4.289
 5467TIP3    H116365   3.204   4.750   4.233
 5467TIP3    H216366   3.166   4.605   4.256
 5468TIP3   OH216367   2.849   5.282   1.892
 5468TIP3    H116368   2.850   5.189   1.869
 5468TIP3    H216369   2.909   5.289   1.966
 5469TIP3   OH216370   3.133   0.107   5.393
 5469TIP3    H116371   3.192   0.178   5.417
 5469TIP3    H216372   3.045   0.145   5.398
 5470TIP3   OH216373   0.957   6.031   0.647
 5470TIP3    H116374   0.907   6.112   0.650
 5470TIP3    H216375   0.959   6.006   0.555
 5471TIP3   OH216376   2.775   4.900   0.878
 5471TIP3    H116377   2.834   4.830   0.904
 5471TIP3    H216378   2.808   4.978   0.923
 5472TIP3   OH216379   4.888   2.415   3.149
 5472TIP3    H116380   4.904   2.337   3.096
 5472TIP3    H216381   4.850   2.478   3.088
 5473TIP3   OH216382   6.162   6.688   0.716
 5473TIP3    H116383   6.096   6.757   0.710
 5473TIP3    H216384   6.244   6.733   0.731
 5474TIP3   OH216385   1.664   1.716   1.871
 5474TIP3    H116386   1.720   1.780   1.828
 5474TIP3    H216387   1.600   1.768   1.919
 5475TIP3   OH216388   1.683   2.268   3.242
 5475TIP3    H116389   1.642   2.347   3.206
 5475TIP3    H216390   1.614   2.225   3.292
 5476TIP3   OH216391   4.296   4.438   3.215
 5476TIP3    H116392   4.309   4.345   3.198
 5476TIP3    H216393   4.356   4.482   3.155
 5477TIP3   OH216394   3.631   4.064   5.033
 5477TIP3    H116395   3.614   4.077   5.126
 5477TIP3    H216396   3.711   4.013   5.030
 5478TIP3   OH216397   6.045   0.396   4.089
 5478TIP3    H116398   6.018   0.336   4.020
 5478TIP3    H216399   6.115   0.448   4.049
 5479TIP3   OH216400   1.547   6.579   0.957
 5479TIP3    H116401   1.584   6.496   0.928
 5479TIP3    H216402   1.518   6.563   1.046
 5480TIP3   OH216403   6.411   4.404   3.344
 5480TIP3    H116404   6.427   4.313   3.373
 5480TIP3    H216405   6.487   4.452   3.378
 5481TIP3   OH216406   6.236   2.016   1.320
 5481TIP3    H116407   6.273   2.044   1.236
 5481TIP3    H216408   6.297   2.047   1.386
 5482TIP3   OH216409   1.388  -0.069   4.241
 5482TIP3    H116410   1.430   0.014   4.218
 5482TIP3    H216411   1.348  -0.099   4.159
 5483TIP3   OH216412   3.041   5.597   3.357
 5483TIP3    H116413   3.091   5.523   3.392
 5483TIP3    H216414   3.107   5.663   3.337
 5484TIP3   OH216415   6.967   2.615   3.665
 5484TIP3    H116416   6.891   2.619   3.607
 5484TIP3    H216417   6.940   2.557   3.736
 5485TIP3   OH216418   0.048   4.493   1.404
 5485TIP3    H116419  -0.041   4.475   1.434
 5485TIP3    H216420   0.049   4.464   1.313
 5486TIP3   OH216421   5.894   5.521   4.322
 5486TIP3    H116422   5.936   5.457   4.265
 5486TIP3    H216423   5.854   5.468   4.391
 5487TIP3   OH216424   4.035   3.831   4.422
 5487TIP3    H116425   3.951   3.813   4.380
 5487TIP3    H216426   4.078   3.893   4.362
 5488TIP3   OH216427   3.188   4.429   4.215
 5488TIP3    H116428   3.154   4.417   4.126
 5488TIP3    H216429   3.229   4.345   4.237
 5489TIP3   OH216430   5.683   5.654   4.872
 5489TIP3    H116431   5.696   5.722   4.806
 5489TIP3    H216432   5.760   5.661   4.929
 5490TIP3   OH216433   5.408   4.253   2.658
 5490TIP3    H116434   5.487   4.294   2.622
 5490TIP3    H216435   5.371   4.319   2.716
 5491TIP3   OH216436   4.166   0.115   2.817
 5491TIP3    H116437   4.193   0.032   2.778
 5491TIP3    H216438   4.240   0.141   2.871
 5492TIP3   OH216439   1.883   0.798   4.952
 5492TIP3    H116440   1.838   0.733   4.898
 5492TIP3    H216441   1.930   0.853   4.890
 5493TIP3   OH216442   4.450   1.948   2.404
 5493TIP3    H116443   4.394   2.024   2.419
 5493TIP3    H216444   4.401   1.874   2.440
 5494TIP3   OH216445   5.126   0.036   4.995
 5494TIP3    H116446   5.168  -0.043   4.961
 5494TIP3    H216447   5.191   0.106   4.980
 5495TIP3   OH216448   3.491   0.247   5.194
 5495TIP3    H116449   3.437   0.317   5.230
 5495TIP3    H216450   3.437   0.168   5.204
 5496TIP3   OH216451   5.394   0.405   2.211
 5496TIP3    H116452   5.413   0.495   2.239
 5496TIP3    H216453   5.397   0.409   2.115
 5497TIP3   OH216454   3.407   5.378   1.472
 5497TIP3    H116455   3.363   5.323   1.407
 5497TIP3    H216456   3.347   5.381   1.546
 5498TIP3   OH216457   0.545   2.978   1.296
 5498TIP3    H116458   0.561   2.930   1.377
 5498TIP3    H216459   0.533   2.909   1.230
 5499TIP3   OH216460   1.184   4.344   3.343
 5499TIP3    H116461   1.189   4.290   3.264
 5499TIP3    H216462   1.256   4.314   3.398
 5500TIP3   OH216463   3.382   0.006   5.244
 5500TIP3    H116464   3.448  -0.050   5.205
 5500TIP3    H216465   3.301  -0.046   5.241
 5501TIP3   OH216466   0.597   0.242   1.280
 5501TIP3    H116467   0.662   0.297   1.325
 5501TIP3    H216468   0.516   0.293   1.284
 5502TIP3   OH216469   5.936   1.676   5.644
 5502TIP3    H116470   5.934   1.648   5.735
 5502TIP3    H216471   5.997   1.616   5.601
 5503TIP3   OH216472   2.213  -0.002   1.533
 5503TIP3    H116473   2.186   0.071   1.478
 5503TIP3    H216474   2.309   0.000   1.530
 5504TIP3   OH216475   4.430   4.186   1.123
 5504TIP3    H116476   4.439   4.140   1.207
 5504TIP3    H216477   4.338   4.211   1.119
 5505TIP3   OH216478   4.924   6.688   4.606
 5505TIP3    H116479   5.009   6.643   4.615
 5505TIP3    H216480   4.890   6.693   4.695
 5506TIP3   OH216481   2.417   6.068   0.950
 5506TIP3    H116482   2.411   6.157   0.916
 5506TIP3    H216483   2.511   6.050   0.955
 5507TIP3   OH216484   7.027   4.895   4.087
 5507TIP3    H116485   7.018   4.835   4.013
 5507TIP3    H216486   6.955   4.957   4.077
 5508TIP3   OH216487   2.230   2.579   3.465
 5508TIP3    H116488   2.177   2.641   3.415
 5508TIP3    H216489   2.187   2.575   3.550
 5509TIP3   OH216490   4.195   6.566   3.445
 5509TIP3    H116491   4.240   6.499   3.495
 5509TIP3    H216492   4.235   6.648   3.473
 5510TIP3   OH216493   6.198   3.041   1.618
 5510TIP3    H116494   6.157   2.956   1.630
 5510TIP3    H216495   6.280   3.021   1.572
 5511TIP3   OH216496   0.977   4.858   0.280
 5511TIP3    H116497   1.061   4.882   0.321
 5511TIP3    H216498   0.918   4.930   0.302
 5512TIP3   OH216499   1.001   4.102   4.962
 5512TIP3    H116500   0.958   4.115   4.877
 5512TIP3    H216501   0.964   4.019   4.994
 5513TIP3   OH216502   0.043   1.200   5.309
 5513TIP3    H116503   0.056   1.294   5.308
 5513TIP3    H216504   0.091   1.168   5.233
 5514TIP3   OH216505   4.318   2.369   5.166
 5514TIP3    H116506   4.233   2.362   5.122
 5514TIP3    H216507   4.351   2.455   5.139
 5515TIP3   OH216508   4.227   3.020   1.676
 5515TIP3    H116509   4.320   2.997   1.674
 5515TIP3    H216510   4.216   3.066   1.759
 5516TIP3   OH216511   5.935   6.717   3.743
 5516TIP3    H116512   5.864   6.716   3.807
 5516TIP3    H216513   5.906   6.657   3.674
 5517TIP3   OH216514   1.282   5.023   4.032
 5517TIP3    H116515   1.315   4.938   4.058
 5517TIP3    H216516   1.249   5.063   4.113
 5518TIP3   OH216517   3.446   1.516   0.265
 5518TIP3    H116518   3.406   1.519   0.352
 5518TIP3    H216519   3.373   1.491   0.207
 5519TIP3   OH216520   2.149   6.486   5.678
 5519TIP3    H116521   2.199   6.566   5.662
 5519TIP3    H216522   2.156   6.472   5.773
 5520TIP3   OH216523   2.515   1.728   2.695
 5520TIP3    H116524   2.595   1.727   2.643
 5520TIP3    H216525   2.541   1.770   2.777
 5521TIP3   OH216526   2.546   4.589   2.432
 5521TIP3    H116527   2.634   4.612   2.463
 5521TIP3    H216528   2.514   4.526   2.497
 5522TIP3   OH216529   3.669   1.575   5.734
 5522TIP3    H116530   3.663   1.662   5.694
 5522TIP3    H216531   3.707   1.520   5.665
 5523TIP3   OH216532   1.537   5.827   5.307
 5523TIP3    H116533   1.496   5.912   5.323
 5523TIP3    H216534   1.631   5.843   5.314
 5524TIP3   OH216535   6.147   2.109   4.159
 5524TIP3    H116536   6.137   2.014   4.163
 5524TIP3    H216537   6.127   2.138   4.248
 5525TIP3   OH216538   2.097   6.072   0.299
 5525TIP3    H116539   2.160   6.046   0.232
 5525TIP3    H216540   2.031   6.003   0.297
 5526TIP3   OH216541   6.187   1.863   0.081
 5526TIP3    H116542   6.157   1.892   0.167
 5526TIP3    H216543   6.281   1.847   0.093
 5527TIP3   OH216544   6.188   4.863   0.308
 5527TIP3    H116545   6.263   4.917   0.284
 5527TIP3    H216546   6.154   4.829   0.225
 5528TIP3   OH216547   1.605   0.577   5.539
 5528TIP3    H116548   1.578   0.659   5.498
 5528TIP3    H216549   1.699   0.586   5.551
 5529TIP3   OH216550   1.476   2.972   0.554
 5529TIP3    H116551   1.472   3.066   0.575
 5529TIP3    H216552   1.562   2.945   0.588
 5530TIP3   OH216553   3.938   2.638   2.445
 5530TIP3    H116554   3.959   2.720   2.491
 5530TIP3    H216555   4.014   2.582   2.459
 5531TIP3   OH216556   2.219   5.071   2.431
 5531TIP3    H116557   2.252   5.155   2.399
 5531TIP3    H216558   2.177   5.031   2.355
 5532TIP3   OH216559   0.705   3.017   2.940
 5532TIP3    H116560   0.782   3.050   2.986
 5532TIP3    H216561   0.729   2.928   2.913
 5533TIP3   OH216562   4.194   2.785   1.200
 5533TIP3    H116563   4.159   2.827   1.278
 5533TIP3    H216564   4.287   2.774   1.219
 5534TIP3   OH216565   2.171   4.865   2.190
 5534TIP3    H116566   2.096   4.920   2.208
 5534TIP3    H216567   2.204   4.896   2.106
 5535TIP3   OH216568   0.564   1.468   1.841
 5535TIP3    H116569   0.607   1.435   1.762
 5535TIP3    H216570   0.615   1.432   1.913
 5536TIP3   OH216571   4.516   6.454   0.394
 5536TIP3    H116572   4.565   6.495   0.466
 5536TIP3    H216573   4.458   6.523   0.363
 5537TIP3   OH216574   4.468   3.187   1.334
 5537TIP3    H116575   4.473   3.237   1.415
 5537TIP3    H216576   4.375   3.191   1.310
 5538TIP3   OH216577   2.840   5.410   2.918
 5538TIP3    H116578   2.791   5.379   2.994
 5538TIP3    H216579   2.772   5.432   2.854
 5539TIP3   OH216580   0.226   3.309   0.270
 5539TIP3    H116581   0.239   3.267   0.185
 5539TIP3    H216582   0.296   3.273   0.324
 5540TIP3   OH216583   6.038   4.810   3.675
 5540TIP3    H116584   6.046   4.765   3.591
 5540TIP3    H216585   6.128   4.824   3.704
 5541TIP3   OH216586   5.954   5.393   2.474
 5541TIP3    H116587   6.018   5.427   2.536
 5541TIP3    H216588   5.888   5.349   2.529
 5542TIP3   OH216589   5.624   4.090   2.936
 5542TIP3    H116590   5.537   4.065   2.905
 5542TIP3    H216591   5.685   4.035   2.886
 5543TIP3   OH216592   6.702   4.366   0.560
 5543TIP3    H116593   6.750   4.389   0.639
 5543TIP3    H216594   6.688   4.271   0.567
 5544TIP3   OH216595   0.817   1.618   1.454
 5544TIP3    H116596   0.844   1.638   1.543
 5544TIP3    H216597   0.840   1.525   1.442
 5545TIP3   OH216598   2.514   2.188   0.044
 5545TIP3    H116599   2.494   2.095   0.052
 5545TIP3    H216600   2.609   2.192   0.040
 5546TIP3   OH216601   1.583   6.024   3.438
 5546TIP3    H116602   1.615   6.011   3.527
 5546TIP3    H216603   1.517   6.093   3.446
 5547TIP3   OH216604   1.363   4.827   0.656
 5547TIP3    H116605   1.334   4.883   0.728
 5547TIP3    H216606   1.458   4.837   0.654
 5548TIP3   OH216607   5.024   5.365   0.062
 5548TIP3    H116608   5.063   5.397  -0.019
 5548TIP3    H216609   5.007   5.272   0.045
 5549TIP3   OH216610   2.733   3.489   0.233
 5549TIP3    H116611   2.675   3.465   0.305
 5549TIP3    H216612   2.817   3.449   0.256
 5550TIP3   OH216613   6.285   2.359   4.878
 5550TIP3    H116614   6.373   2.363   4.842
 5550TIP3    H216615   6.238   2.297   4.821
 5551TIP3   OH216616   1.401   4.345   4.559
 5551TIP3    H116617   1.312   4.372   4.534
 5551TIP3    H216618   1.457   4.386   4.494
 5552TIP3   OH216619   5.131   6.719   2.116
 5552TIP3    H116620   5.117   6.652   2.182
 5552TIP3    H216621   5.062   6.784   2.133
 5553TIP3   OH216622   7.009   0.203   2.534
 5553TIP3    H116623   7.023   0.266   2.463
 5553TIP3    H216624   6.914   0.199   2.544
 5554TIP3   OH216625   2.007   2.575   3.255
 5554TIP3    H116626   1.962   2.509   3.308
 5554TIP3    H216627   1.990   2.658   3.300
 5555TIP3   OH216628   7.089   1.059   4.469
 5555TIP3    H116629   7.107   0.968   4.491
 5555TIP3    H216630   7.026   1.087   4.536
 5556TIP3   OH216631   1.550   1.020   4.137
 5556TIP3    H116632   1.556   0.931   4.102
 5556TIP3    H216633   1.485   1.064   4.081
 5557TIP3   OH216634   0.473   3.948   2.638
 5557TIP3    H116635   0.491   3.864   2.597
 5557TIP3    H216636   0.518   3.943   2.723
 5558TIP3   OH216637   1.224   0.265   0.114
 5558TIP3    H116638   1.159   0.200   0.140
 5558TIP3    H216639   1.213   0.336   0.177
 5559TIP3   OH216640   0.104   1.416   5.640
 5559TIP3    H116641   0.140   1.340   5.687
 5559TIP3    H216642   0.020   1.433   5.683
 5560TIP3   OH216643   6.102   2.568   1.376
 5560TIP3    H116644   6.133   2.551   1.465
 5560TIP3    H216645   6.129   2.491   1.326
 5561TIP3   OH216646   5.838   4.036   4.594
 5561TIP3    H116647   5.933   4.039   4.597
 5561TIP3    H216648   5.810   4.068   4.680
 5562TIP3   OH216649   3.167   1.977   3.403
 5562TIP3    H116650   3.259   1.970   3.430
 5562TIP3    H216651   3.137   1.886   3.397
 5563TIP3   OH216652   7.003   2.451   3.201
 5563TIP3    H116653   6.925   2.400   3.225
 5563TIP3    H216654   7.077   2.394   3.222
 5564TIP3   OH216655   1.817   1.419   5.681
 5564TIP3    H116656   1.847   1.347   5.626
 5564TIP3    H216657   1.722   1.417   5.675
 5565TIP3   OH216658   0.594   4.248   2.405
 5565TIP3    H116659   0.632   4.255   2.493
 5565TIP3    H216660   0.643   4.178   2.363
 5566TIP3   OH216661   0.971   3.861   0.126
 5566TIP3    H116662   0.949   3.861   0.033
 5566TIP3    H216663   0.887   3.850   0.171
 5567TIP3   OH216664   6.289   1.792   3.317
 5567TIP3    H116665   6.376   1.830   3.309
 5567TIP3    H216666   6.266   1.765   3.229
 5568TIP3   OH216667   6.527   2.796   1.845
 5568TIP3    H116668   6.619   2.776   1.861
 5568TIP3    H216669   6.502   2.736   1.775
 5569TIP3   OH216670   2.905   1.385   2.429
 5569TIP3    H116671   2.943   1.447   2.491
 5569TIP3    H216672   2.969   1.314   2.425
 5570TIP3   OH216673   7.231   6.514   4.652
 5570TIP3    H116674   7.315   6.543   4.687
 5570TIP3    H216675   7.212   6.432   4.699
 5571TIP3   OH216676   7.213   6.341   3.526
 5571TIP3    H116677   7.263   6.420   3.546
 5571TIP3    H216678   7.196   6.300   3.611
 5572TIP3   OH216679   3.279   3.744   0.599
 5572TIP3    H116680   3.329   3.783   0.527
 5572TIP3    H216681   3.207   3.698   0.556
 5573TIP3   OH216682   3.679   3.871   0.449
 5573TIP3    H116683   3.683   3.924   0.370
 5573TIP3    H216684   3.759   3.818   0.446
 5574TIP3   OH216685   2.223   1.876   0.485
 5574TIP3    H116686   2.309   1.851   0.451
 5574TIP3    H216687   2.171   1.895   0.407
 5575TIP3   OH216688   3.924   0.150   4.893
 5575TIP3    H116689   3.916   0.244   4.875
 5575TIP3    H216690   3.841   0.113   4.864
 5576TIP3   OH216691   6.838   4.338  -0.031
 5576TIP3    H116692   6.778   4.409  -0.010
 5576TIP3    H216693   6.924   4.380  -0.034
 5577TIP3   OH216694   3.960   6.032   1.931
 5577TIP3    H116695   3.890   5.971   1.910
 5577TIP3    H216696   3.963   6.092   1.857
 5578TIP3   OH216697   2.481   2.138   0.739
 5578TIP3    H116698   2.521   2.157   0.654
 5578TIP3    H216699   2.555   2.120   0.797
 5579TIP3   OH216700   2.547   2.104   1.799
 5579TIP3    H116701   2.459   2.092   1.764
 5579TIP3    H216702   2.544   2.062   1.885
 5580TIP3   OH216703   3.100   1.297   0.534
 5580TIP3    H116704   3.064   1.209   0.520
 5580TIP3    H216705   3.041   1.337   0.598
 5581TIP3   OH216706   0.944   5.005   2.350
 5581TIP3    H116707   1.031   5.025   2.315
 5581TIP3    H216708   0.961   4.971   2.438
 5582TIP3   OH216709   2.789   5.235   5.238
 5582TIP3    H116710   2.759   5.159   5.188
 5582TIP3    H216711   2.768   5.213   5.329
 5583TIP3   OH216712   3.304   4.272   5.369
 5583TIP3    H116713   3.352   4.234   5.296
 5583TIP3    H216714   3.220   4.300   5.331
 5584TIP3   OH216715   1.483   1.743   3.155
 5584TIP3    H116716   1.483   1.648   3.156
 5584TIP3    H216717   1.480   1.768   3.247
 5585TIP3   OH216718   3.869   5.141   1.764
 5585TIP3    H116719   3.869   5.208   1.696
 5585TIP3    H216720   3.787   5.155   1.811
 5586TIP3   OH216721   0.120   1.793   3.101
 5586TIP3    H116722   0.113   1.887   3.113
 5586TIP3    H216723   0.176   1.763   3.173
 5587TIP3   OH216724   3.138   2.004   3.884
 5587TIP3    H116725   3.083   2.023   3.961
 5587TIP3    H216726   3.222   1.978   3.921
 5588TIP3   OH216727   4.580   1.824   2.164
 5588TIP3    H116728   4.564   1.864   2.249
 5588TIP3    H216729   4.493   1.797   2.133
 5589TIP3   OH216730   2.045   4.718   1.988
 5589TIP3    H116731   2.058   4.727   2.082
 5589TIP3    H216732   2.015   4.627   1.976
 5590TIP3   OH216733   2.589   3.245   5.329
 5590TIP3    H116734   2.603   3.209   5.241
 5590TIP3    H216735   2.510   3.200   5.360
 5591TIP3   OH216736   3.909   4.063   1.670
 5591TIP3    H116737   3.987   4.025   1.710
 5591TIP3    H216738   3.934   4.153   1.648
 5592TIP3   OH216739   0.716   2.368   4.075
 5592TIP3    H116740   0.792   2.416   4.109
 5592TIP3    H216741   0.702   2.404   3.988
 5593TIP3   OH216742   6.745   0.718   4.425
 5593TIP3    H116743   6.836   0.698   4.444
 5593TIP3    H216744   6.705   0.634   4.404
 5594TIP3   OH216745   0.064   5.705   2.972
 5594TIP3    H116746   0.151   5.690   2.936
 5594TIP3    H216747   0.004   5.685   2.900
 5595TIP3   OH216748   6.434   6.341   1.824
 5595TIP3    H116749   6.366   6.376   1.883
 5595TIP3    H216750   6.516   6.361   1.869
 5596TIP3   OH216751   6.678   5.158   5.238
 5596TIP3    H116752   6.638   5.121   5.159
 5596TIP3    H216753   6.669   5.253   5.227
 5597TIP3   OH216754   0.341   0.338   5.358
 5597TIP3    H116755   0.368   0.371   5.273
 5597TIP3    H216756   0.398   0.262   5.374
 5598TIP3   OH216757   6.616   6.219   0.100
 5598TIP3    H116758   6.552   6.152   0.120
 5598TIP3    H216759   6.582   6.262   0.021
 5599TIP3   OH216760   3.170   6.319   1.814
 5599TIP3    H116761   3.216   6.308   1.731
 5599TIP3    H216762   3.156   6.229   1.845
 5600TIP3   OH216763   7.161   5.158   1.358
 5600TIP3    H116764   7.224   5.086   1.362
 5600TIP3    H216765   7.196   5.215   1.289
 5601TIP3   OH216766   2.665   4.789   5.742
 5601TIP3    H116767   2.587   4.734   5.741
 5601TIP3    H216768   2.692   4.790   5.834
 5602TIP3   OH216769   1.534   3.310   0.337
 5602TIP3    H116770   1.509   3.398   0.308
 5602TIP3    H216771   1.463   3.254   0.307
 5603TIP3   OH216772   7.048   4.297   3.746
 5603TIP3    H116773   6.985   4.226   3.748
 5603TIP3    H216774   7.042   4.338   3.832
 5604TIP3   OH216775   3.423   5.108   3.003
 5604TIP3    H116776   3.342   5.061   2.984
 5604TIP3    H216777   3.465   5.056   3.072
 5605TIP3   OH216778   6.245   1.464   3.272
 5605TIP3    H116779   6.260   1.385   3.324
 5605TIP3    H216780   6.162   1.446   3.226
 5606TIP3   OH216781   1.412   1.664   5.189
 5606TIP3    H116782   1.364   1.585   5.167
 5606TIP3    H216783   1.491   1.634   5.234
 5607TIP3   OH216784   2.099   2.273   1.217
 5607TIP3    H116785   2.088   2.362   1.252
 5607TIP3    H216786   2.192   2.268   1.195
 5608TIP3   OH216787   1.910   2.483   1.699
 5608TIP3    H116788   1.994   2.524   1.721
 5608TIP3    H216789   1.905   2.407   1.757
 5609TIP3   OH216790   2.208   6.040   0.543
 5609TIP3    H116791   2.199   6.106   0.474
 5609TIP3    H216792   2.226   5.959   0.496
 5610TIP3   OH216793  -0.017   1.409   0.901
 5610TIP3    H116794   0.024   1.481   0.948
 5610TIP3    H216795   0.036   1.398   0.822
 5611TIP3   OH216796   6.680   2.795   4.507
 5611TIP3    H116797   6.735   2.779   4.584
 5611TIP3    H216798   6.674   2.890   4.500
 5612TIP3   OH216799   4.024   5.546   3.002
 5612TIP3    H116800   4.000   5.460   2.967
 5612TIP3    H216801   4.017   5.536   3.097
 5613TIP3   OH216802   3.449   3.134   4.921
 5613TIP3    H116803   3.402   3.065   4.967
 5613TIP3    H216804   3.464   3.202   4.987
 5614TIP3   OH216805   6.655   5.795   1.773
 5614TIP3    H116806   6.728   5.842   1.812
 5614TIP3    H216807   6.585   5.800   1.839
 5615TIP3   OH216808   4.370   6.129   2.103
 5615TIP3    H116809   4.298   6.065   2.105
 5615TIP3    H216810   4.418   6.113   2.185
 5616TIP3   OH216811   6.767   2.308   1.517
 5616TIP3    H116812   6.756   2.216   1.492
 5616TIP3    H216813   6.699   2.323   1.583
 5617TIP3   OH216814   6.045   2.967   0.538
 5617TIP3    H116815   6.039   2.879   0.499
 5617TIP3    H216816   6.136   2.975   0.564
 5618TIP3   OH216817   6.777   4.452   4.794
 5618TIP3    H116818   6.758   4.488   4.881
 5618TIP3    H216819   6.812   4.365   4.811
 5619TIP3   OH216820   0.652   0.734   1.526
 5619TIP3    H116821   0.681   0.757   1.614
 5619TIP3    H216822   0.582   0.670   1.540
 5620TIP3   OH216823   3.041   1.817   4.705
 5620TIP3    H116824   2.995   1.898   4.683
 5620TIP3    H216825   2.983   1.748   4.675
 5621TIP3   OH216826   1.691   4.306   2.868
 5621TIP3    H116827   1.738   4.371   2.921
 5621TIP3    H216828   1.698   4.339   2.778
 5622TIP3   OH216829   6.138   5.894   3.045
 5622TIP3    H116830   6.066   5.917   3.103
 5622TIP3    H216831   6.212   5.880   3.104
 5623TIP3   OH216832   5.149   1.591   4.907
 5623TIP3    H116833   5.131   1.553   4.993
 5623TIP3    H216834   5.167   1.683   4.925
 5624TIP3   OH216835   0.516   4.097   0.560
 5624TIP3    H116836   0.519   4.188   0.591
 5624TIP3    H216837   0.485   4.103   0.470
 5625TIP3   OH216838   5.778   1.541   5.840
 5625TIP3    H116839   5.694   1.550   5.796
 5625TIP3    H216840   5.795   1.447   5.842
 5626TIP3   OH216841   4.908   4.287   4.958
 5626TIP3    H116842   4.817   4.316   4.957
 5626TIP3    H216843   4.920   4.244   4.873
 5627TIP3   OH216844   4.819   1.267   0.064
 5627TIP3    H116845   4.900   1.315   0.080
 5627TIP3    H216846   4.847   1.181   0.032
 5628TIP3   OH216847   3.974   4.606   1.134
 5628TIP3    H116848   3.973   4.662   1.056
 5628TIP3    H216849   3.919   4.531   1.111
 5629TIP3   OH216850   2.908   2.867   4.597
 5629TIP3    H116851   2.879   2.947   4.642
 5629TIP3    H216852   2.964   2.899   4.526
 5630TIP3   OH216853   6.415   4.634   1.641
 5630TIP3    H116854   6.333   4.604   1.600
 5630TIP3    H216855   6.476   4.562   1.629
 5631TIP3   OH216856   5.020   4.607   3.300
 5631TIP3    H116857   5.083   4.592   3.371
 5631TIP3    H216858   4.944   4.554   3.324
 5632TIP3   OH216859   3.748   4.921   1.444
 5632TIP3    H116860   3.841   4.925   1.422
 5632TIP3    H216861   3.743   4.948   1.536
 5633TIP3   OH216862   4.152   2.616   2.050
 5633TIP3    H116863   4.212   2.628   1.976
 5633TIP3    H216864   4.209   2.619   2.127
 5634TIP3   OH216865   0.484   0.948   0.140
 5634TIP3    H116866   0.503   0.952   0.046
 5634TIP3    H216867   0.431   0.869   0.151
 5635TIP3   OH216868   3.164   1.678   1.670
 5635TIP3    H116869   3.136   1.632   1.748
 5635TIP3    H216870   3.118   1.634   1.598
 5636TIP3   OH216871   3.090   1.150   5.170
 5636TIP3    H116872   3.078   1.165   5.076
 5636TIP3    H216873   3.004   1.169   5.208
 5637TIP3   OH216874   4.500   1.457   5.686
 5637TIP3    H116875   4.531   1.491   5.770
 5637TIP3    H216876   4.414   1.496   5.673
 5638TIP3   OH216877   3.669   2.346   1.636
 5638TIP3    H116878   3.609   2.420   1.643
 5638TIP3    H216879   3.641   2.300   1.557
 5639TIP3   OH216880   0.940   0.629   0.178
 5639TIP3    H116881   0.898   0.664   0.257
 5639TIP3    H216882   1.014   0.688   0.163
 5640TIP3   OH216883   5.930   5.043   2.465
 5640TIP3    H116884   5.943   5.060   2.559
 5640TIP3    H216885   5.842   5.005   2.460
 5641TIP3   OH216886   2.379   5.278   2.285
 5641TIP3    H116887   2.429   5.198   2.267
 5641TIP3    H216888   2.360   5.313   2.198
 5642TIP3   OH216889   3.493   4.897   5.268
 5642TIP3    H116890   3.445   4.972   5.233
 5642TIP3    H216891   3.494   4.833   5.197
 5643TIP3   OH216892   0.380   5.711   2.238
 5643TIP3    H116893   0.466   5.717   2.280
 5643TIP3    H216894   0.397   5.671   2.153
 5644TIP3   OH216895   0.093   5.509   4.750
 5644TIP3    H116896   0.103   5.490   4.844
 5644TIP3    H216897   0.095   5.423   4.708
 5645TIP3   OH216898   2.079   5.700   4.110
 5645TIP3    H116899   2.018   5.768   4.082
 5645TIP3    H216900   2.065   5.629   4.049
 5646TIP3   OH216901   4.803   3.432   5.224
 5646TIP3    H116902   4.841   3.519   5.240
 5646TIP3    H216903   4.873   3.384   5.180
 5647TIP3   OH216904   1.547   0.559   2.730
 5647TIP3    H116905   1.493   0.496   2.683
 5647TIP3    H216906   1.504   0.568   2.815
 5648TIP3   OH216907   4.458   5.970   0.844
 5648TIP3    H116908   4.427   5.941   0.759
 5648TIP3    H216909   4.544   6.008   0.827
 5649TIP3   OH216910   1.565   4.882   0.998
 5649TIP3    H116911   1.530   4.935   0.926
 5649TIP3    H216912   1.497   4.817   1.016
 5650TIP3   OH216913   4.852   5.824   2.261
 5650TIP3    H116914   4.915   5.772   2.211
 5650TIP3    H216915   4.814   5.885   2.197
 5651TIP3   OH216916   2.895   0.502   2.407
 5651TIP3    H116917   2.954   0.575   2.394
 5651TIP3    H216918   2.827   0.514   2.341
 5652TIP3   OH216919   4.342   3.544   0.302
 5652TIP3    H116920   4.401   3.581   0.367
 5652TIP3    H216921   4.329   3.454   0.329
 5653TIP3   OH216922   5.632   0.937   2.757
 5653TIP3    H116923   5.686   0.996   2.809
 5653TIP3    H216924   5.683   0.922   2.677
 5654TIP3   OH216925   2.236   3.590   3.641
 5654TIP3    H116926   2.301   3.641   3.593
 5654TIP3    H216927   2.270   3.500   3.639
 5655TIP3   OH216928   2.269   6.160   3.334
 5655TIP3    H116929   2.306   6.089   3.386
 5655TIP3    H216930   2.305   6.147   3.247
 5656TIP3   OH216931   1.141   2.063   4.722
 5656TIP3    H116932   1.126   2.019   4.806
 5656TIP3    H216933   1.177   1.995   4.665
 5657TIP3   OH216934   6.992   2.113   5.453
 5657TIP3    H116935   6.916   2.144   5.403
 5657TIP3    H216936   7.029   2.192   5.493
 5658TIP3   OH216937   3.324   5.901   2.699
 5658TIP3    H116938   3.236   5.866   2.711
 5658TIP3    H216939   3.327   5.977   2.757
 5659TIP3   OH216940   0.385   0.438   1.348
 5659TIP3    H116941   0.404   0.491   1.426
 5659TIP3    H216942   0.412   0.494   1.274
 5660TIP3   OH216943   4.442   4.481   2.255
 5660TIP3    H116944   4.390   4.547   2.210
 5660TIP3    H216945   4.429   4.498   2.348
 5661TIP3   OH216946   3.477   0.226   1.813
 5661TIP3    H116947   3.546   0.254   1.874
 5661TIP3    H216948   3.421   0.169   1.866
 5662TIP3   OH216949   4.738   2.160   4.297
 5662TIP3    H116950   4.728   2.232   4.234
 5662TIP3    H216951   4.814   2.111   4.264
 5663TIP3   OH216952   1.874   5.506   1.500
 5663TIP3    H116953   1.848   5.536   1.588
 5663TIP3    H216954   1.817   5.555   1.441
 5664TIP3   OH216955   6.107   3.013   2.884
 5664TIP3    H116956   6.164   2.937   2.896
 5664TIP3    H216957   6.032   2.997   2.940
 5665TIP3   OH216958   6.800   0.791   5.155
 5665TIP3    H116959   6.725   0.849   5.172
 5665TIP3    H216960   6.875   0.836   5.194
 5666TIP3   OH216961   4.746   2.199   0.923
 5666TIP3    H116962   4.762   2.130   0.859
 5666TIP3    H216963   4.832   2.218   0.961
 5667TIP3   OH216964   1.802   5.651   4.404
 5667TIP3    H116965   1.800   5.604   4.487
 5667TIP3    H216966   1.724   5.622   4.357
 5668TIP3   OH216967   4.794   4.570   1.081
 5668TIP3    H116968   4.710   4.526   1.085
 5668TIP3    H216969   4.852   4.508   1.038
 5669TIP3   OH216970   5.373   2.413   1.254
 5669TIP3    H116971   5.396   2.505   1.241
 5669TIP3    H216972   5.323   2.389   1.176
 5670TIP3   OH216973   7.206   4.791   2.021
 5670TIP3    H116974   7.204   4.852   2.095
 5670TIP3    H216975   7.205   4.848   1.944
 5671TIP3   OH216976   3.693   2.262   2.299
 5671TIP3    H116977   3.613   2.257   2.353
 5671TIP3    H216978   3.764   2.262   2.362
 5672TIP3   OH216979   0.617   2.136   5.785
 5672TIP3    H116980   0.654   2.164   5.869
 5672TIP3    H216981   0.693   2.112   5.732
 5673TIP3   OH216982   4.127   5.728   2.744
 5673TIP3    H116983   4.071   5.680   2.805
 5673TIP3    H216984   4.068   5.757   2.675
 5674TIP3   OH216985   1.106   5.776   0.607
 5674TIP3    H116986   1.035   5.787   0.544
 5674TIP3    H216987   1.166   5.849   0.590
 5675TIP3   OH216988   2.426   6.313   5.375
 5675TIP3    H116989   2.410   6.348   5.287
 5675TIP3    H216990   2.349   6.339   5.426
 5676TIP3   OH216991   1.636   6.198   2.697
 5676TIP3    H116992   1.613   6.152   2.616
 5676TIP3    H216993   1.731   6.209   2.691
 5677TIP3   OH216994   0.012   2.657   5.358
 5677TIP3    H116995   0.093   2.636   5.311
 5677TIP3    H216996  -0.029   2.725   5.305
 5678TIP3   OH216997   2.033   6.580   1.946
 5678TIP3    H116998   2.087   6.508   1.911
 5678TIP3    H216999   2.097   6.648   1.969
 5679TIP3   OH217000   2.136   6.764   4.571
 5679TIP3    H117001   2.085   6.839   4.540
 5679TIP3    H217002   2.097   6.689   4.527
 5680TIP3   OH217003   5.894   6.090   1.271
 5680TIP3    H117004   5.982   6.056   1.257
 5680TIP3    H217005   5.886   6.163   1.210
 5681TIP3   OH217006  -0.045   6.400   0.287
 5681TIP3    H117007  -0.026   6.490   0.261
 5681TIP3    H217008   0.011   6.386   0.364
 5682TIP3   OH217009   2.746   0.820   1.387
 5682TIP3    H117010   2.721   0.728   1.377
 5682TIP3    H217011   2.841   0.817   1.400
 5683TIP3   OH217012   0.254   6.181   1.116
 5683TIP3    H117013   0.347   6.167   1.130
 5683TIP3    H217014   0.216   6.093   1.118
 5684TIP3   OH217015   5.972   4.306   4.296
 5684TIP3    H117016   5.976   4.401   4.291
 5684TIP3    H217017   6.064   4.279   4.307
 5685TIP3   OH217018   3.651   2.055   4.904
 5685TIP3    H117019   3.594   2.106   4.847
 5685TIP3    H217020   3.687   1.987   4.847
 5686TIP3   OH217021   4.369   1.088   2.714
 5686TIP3    H117022   4.362   1.087   2.809
 5686TIP3    H217023   4.459   1.115   2.696
 5687TIP3   OH217024   3.514   2.703   5.289
 5687TIP3    H117025   3.567   2.774   5.326
 5687TIP3    H217026   3.574   2.629   5.282
 5688TIP3   OH217027   3.691   3.138   3.941
 5688TIP3    H117028   3.783   3.112   3.930
 5688TIP3    H217029   3.665   3.098   4.024
 5689TIP3   OH217030   2.717   2.193   1.570
 5689TIP3    H117031   2.729   2.286   1.591
 5689TIP3    H217032   2.676   2.156   1.648
 5690TIP3   OH217033   6.766   6.349   0.766
 5690TIP3    H117034   6.745   6.263   0.730
 5690TIP3    H217035   6.805   6.330   0.852
 5691TIP3   OH217036   6.405   3.348   4.341
 5691TIP3    H117037   6.425   3.256   4.322
 5691TIP3    H217038   6.364   3.380   4.261
 5692TIP3   OH217039   0.158   2.145   3.382
 5692TIP3    H117040   0.233   2.085   3.380
 5692TIP3    H217041   0.197   2.232   3.371
 5693TIP3   OH217042   1.015   0.379   5.072
 5693TIP3    H117043   1.056   0.293   5.058
 5693TIP3    H217044   1.062   0.438   5.014
 5694TIP3   OH217045   4.040   5.187   4.023
 5694TIP3    H117046   3.959   5.143   3.995
 5694TIP3    H217047   4.035   5.188   4.119
 5695TIP3   OH217048   4.861   6.824   1.477
 5695TIP3    H117049   4.933   6.854   1.421
 5695TIP3    H217050   4.788   6.811   1.416
 5696TIP3   OH217051   4.658   2.214   0.029
 5696TIP3    H117052   4.578   2.239  -0.016
 5696TIP3    H217053   4.718   2.288   0.014
 5697TIP3   OH217054   0.492   0.384   5.780
 5697TIP3    H117055   0.515   0.341   5.698
 5697TIP3    H217056   0.427   0.326   5.819
 5698TIP3   OH217057   7.091   3.286   2.544
 5698TIP3    H117058   7.093   3.280   2.640
 5698TIP3    H217059   7.180   3.264   2.517
 5699TIP3   OH217060   0.548   3.562   0.403
 5699TIP3    H117061   0.635   3.530   0.424
 5699TIP3    H217062   0.534   3.535   0.312
 5700TIP3   OH217063   6.075   6.354   4.671
 5700TIP3    H117064   6.128   6.391   4.741
 5700TIP3    H217065   6.090   6.260   4.676
 5701TIP3   OH217066   4.122   1.963   0.932
 5701TIP3    H117067   4.120   1.993   0.841
 5701TIP3    H217068   4.039   1.994   0.968
 5702TIP3   OH217069   2.517   5.633   2.151
 5702TIP3    H117070   2.564   5.552   2.128
 5702TIP3    H217071   2.427   5.605   2.166
 5703TIP3   OH217072   2.605   3.379   3.781
 5703TIP3    H117073   2.667   3.435   3.735
 5703TIP3    H217074   2.639   3.291   3.768
 5704TIP3   OH217075   2.864   6.560   2.178
 5704TIP3    H117076   2.787   6.578   2.232
 5704TIP3    H217077   2.937   6.595   2.227
 5705TIP3   OH217078   0.559   3.661   1.450
 5705TIP3    H117079   0.516   3.672   1.535
 5705TIP3    H217080   0.606   3.743   1.436
 5706TIP3   OH217081   1.116   6.370   5.021
 5706TIP3    H117082   1.118   6.442   5.083
 5706TIP3    H217083   1.039   6.387   4.967
 5707TIP3   OH217084   3.245   4.921   5.594
 5707TIP3    H117085   3.324   4.882   5.631
 5707TIP3    H217086   3.195   4.847   5.560
 5708TIP3   OH217087   4.010   5.487   5.813
 5708TIP3    H117088   3.974   5.455   5.731
 5708TIP3    H217089   4.023   5.408   5.866
 5709TIP3   OH217090   1.928   0.704   0.461
 5709TIP3    H117091   2.005   0.669   0.418
 5709TIP3    H217092   1.958   0.786   0.500
 5710TIP3   OH217093   2.046   1.225   1.089
 5710TIP3    H117094   2.057   1.130   1.082
 5710TIP3    H217095   1.951   1.238   1.079
 5711TIP3   OH217096   0.021   0.444   0.942
 5711TIP3    H117097   0.086   0.513   0.931
 5711TIP3    H217098   0.021   0.424   1.035
 5712TIP3   OH217099   4.151   5.571   3.362
 5712TIP3    H117100   4.241   5.581   3.333
 5712TIP3    H217101   4.140   5.476   3.374
 5713TIP3   OH217102   2.654   1.132   3.220
 5713TIP3    H117103   2.596   1.192   3.174
 5713TIP3    H217104   2.736   1.135   3.171
 5714TIP3   OH217105   4.259   2.833   0.132
 5714TIP3    H117106   4.191   2.889   0.169
 5714TIP3    H217107   4.247   2.841   0.037
 5715TIP3   OH217108   4.124   6.175   5.704
 5715TIP3    H117109   4.199   6.209   5.752
 5715TIP3    H217110   4.069   6.134   5.772
 5716TIP3   OH217111   4.210   0.476   4.289
 5716TIP3    H117112   4.279   0.433   4.339
 5716TIP3    H217113   4.206   0.426   4.207
 5717TIP3   OH217114   6.831   6.334   5.712
 5717TIP3    H117115   6.815   6.426   5.732
 5717TIP3    H217116   6.744   6.296   5.700
 5718TIP3   OH217117   6.075   3.353   1.258
 5718TIP3    H117118   6.132   3.281   1.283
 5718TIP3    H217119   5.987   3.316   1.260
 5719TIP3   OH217120   0.272   3.405   2.611
 5719TIP3    H117121   0.265   3.368   2.699
 5719TIP3    H217122   0.215   3.481   2.612
 5720TIP3   OH217123   0.994   6.121   2.866
 5720TIP3    H117124   0.910   6.119   2.820
 5720TIP3    H217125   0.991   6.200   2.920
 5721TIP3   OH217126   2.063   0.304   5.049
 5721TIP3    H117127   2.142   0.358   5.059
 5721TIP3    H217128   1.995   0.367   5.026
 5722TIP3   OH217129   5.321   3.764   5.888
 5722TIP3    H117130   5.237   3.810   5.889
 5722TIP3    H217131   5.324   3.721   5.803
 5723TIP3   OH217132   1.860   4.928   3.713
 5723TIP3    H117133   1.931   4.894   3.659
 5723TIP3    H217134   1.836   4.855   3.770
 5724TIP3   OH217135   5.286   4.760   4.801
 5724TIP3    H117136   5.191   4.772   4.806
 5724TIP3    H217137   5.321   4.805   4.877
 5725TIP3   OH217138   1.811   0.676   2.214
 5725TIP3    H117139   1.888   0.688   2.157
 5725TIP3    H217140   1.767   0.599   2.178
 5726TIP3   OH217141   2.516   5.764   5.465
 5726TIP3    H117142   2.570   5.787   5.389
 5726TIP3    H217143   2.493   5.849   5.503
 5727TIP3   OH217144   7.145   6.289   3.781
 5727TIP3    H117145   7.157   6.373   3.825
 5727TIP3    H217146   7.078   6.245   3.832
 5728TIP3   OH217147   5.939   1.014   4.184
 5728TIP3    H117148   5.887   1.002   4.105
 5728TIP3    H217149   6.008   1.075   4.159
 5729TIP3   OH217150   2.684   1.465   3.846
 5729TIP3    H117151   2.673   1.379   3.806
 5729TIP3    H217152   2.599   1.484   3.887
 5730TIP3   OH217153   7.111   0.517   2.505
 5730TIP3    H117154   7.115   0.604   2.544
 5730TIP3    H217155   7.152   0.460   2.570
 5731TIP3   OH217156   1.222   5.467   3.659
 5731TIP3    H117157   1.241   5.374   3.649
 5731TIP3    H217158   1.227   5.501   3.569
 5732TIP3   OH217159   6.433   4.996   1.924
 5732TIP3    H117160   6.448   5.049   2.003
 5732TIP3    H217161   6.497   5.030   1.861
 5733TIP3   OH217162   6.761   3.166   0.516
 5733TIP3    H117163   6.823   3.184   0.445
 5733TIP3    H217164   6.816   3.156   0.593
 5734TIP3   OH217165   7.010   2.829   1.658
 5734TIP3    H117166   7.038   2.909   1.702
 5734TIP3    H217167   7.082   2.767   1.669
 5735TIP3   OH217168   5.406   5.427   0.345
 5735TIP3    H117169   5.494   5.422   0.309
 5735TIP3    H217170   5.399   5.516   0.379
 5736TIP3   OH217171   5.871   1.660   5.157
 5736TIP3    H117172   5.821   1.645   5.077
 5736TIP3    H217173   5.840   1.593   5.218
 5737TIP3   OH217174   7.159   3.154   4.491
 5737TIP3    H117175   7.154   3.248   4.470
 5737TIP3    H217176   7.220   3.118   4.427
 5738TIP3   OH217177   6.349   2.735   3.474
 5738TIP3    H117178   6.316   2.657   3.429
 5738TIP3    H217179   6.355   2.709   3.566
 5739TIP3   OH217180   4.445   5.197   3.248
 5739TIP3    H117181   4.411   5.137   3.182
 5739TIP3    H217182   4.372   5.256   3.268
 5740TIP3   OH217183   0.777   0.770   3.206
 5740TIP3    H117184   0.681   0.768   3.207
 5740TIP3    H217185   0.801   0.709   3.136
 5741TIP3   OH217186   2.372   3.342   0.954
 5741TIP3    H117187   2.353   3.252   0.981
 5741TIP3    H217188   2.467   3.349   0.962
 5742TIP3   OH217189   4.309   3.657   2.740
 5742TIP3    H117190   4.256   3.620   2.669
 5742TIP3    H217191   4.380   3.703   2.694
 5743TIP3   OH217192   5.082   4.945   2.753
 5743TIP3    H117193   5.121   4.929   2.667
 5743TIP3    H217194   5.128   5.023   2.786
 5744TIP3   OH217195   5.236   6.435   1.146
 5744TIP3    H117196   5.220   6.481   1.228
 5744TIP3    H217197   5.253   6.506   1.083
 5745TIP3   OH217198   6.878   5.915   3.907
 5745TIP3    H117199   6.915   5.830   3.883
 5745TIP3    H217200   6.783   5.899   3.911
 5746TIP3   OH217201   1.751   6.555   1.934
 5746TIP3    H117202   1.725   6.626   1.994
 5746TIP3    H217203   1.847   6.555   1.939
 5747TIP3   OH217204   6.055   2.199   5.479
 5747TIP3    H117205   6.131   2.152   5.445
 5747TIP3    H217206   6.046   2.275   5.421
 5748TIP3   OH217207   1.983   6.155   1.679
 5748TIP3    H117208   1.973   6.211   1.602
 5748TIP3    H217209   1.926   6.194   1.745
 5749TIP3   OH217210   5.739   5.911   0.034
 5749TIP3    H117211   5.668   5.865   0.078
 5749TIP3    H217212   5.790   5.842  -0.009
 5750TIP3   OH217213   4.588   5.427   2.632
 5750TIP3    H117214   4.601   5.473   2.549
 5750TIP3    H217215   4.506   5.462   2.667
 5751TIP3   OH217216   6.590   5.614   0.310
 5751TIP3    H117217   6.632   5.696   0.285
 5751TIP3    H217218   6.616   5.600   0.401
 5752TIP3   OH217219   3.906   4.226   5.237
 5752TIP3    H117220   3.899   4.159   5.305
 5752TIP3    H217221   3.888   4.179   5.156
 5753TIP3   OH217222   1.691   4.314   5.180
 5753TIP3    H117223   1.752   4.247   5.152
 5753TIP3    H217224   1.672   4.365   5.102
 5754TIP3   OH217225   3.755   6.118   4.738
 5754TIP3    H117226   3.742   6.207   4.705
 5754TIP3    H217227   3.705   6.116   4.819
 5755TIP3   OH217228   6.045   4.538   0.567
 5755TIP3    H117229   5.999   4.604   0.619
 5755TIP3    H217230   6.136   4.568   0.565
 5756TIP3   OH217231   4.307   0.950   0.083
 5756TIP3    H117232   4.384   0.933   0.138
 5756TIP3    H217233   4.263   1.024   0.125
 5757TIP3   OH217234   4.844   5.711   4.966
 5757TIP3    H117235   4.761   5.739   4.929
 5757TIP3    H217236   4.853   5.762   5.047
 5758TIP3   OH217237   4.767   5.301   0.666
 5758TIP3    H117238   4.746   5.395   0.671
 5758TIP3    H217239   4.713   5.261   0.734
 5759TIP3   OH217240   2.647   2.592   1.189
 5759TIP3    H117241   2.604   2.542   1.120
 5759TIP3    H217242   2.693   2.662   1.143
 5760TIP3   OH217243   3.358   4.350   5.626
 5760TIP3    H117244   3.302   4.427   5.638
 5760TIP3    H217245   3.324   4.308   5.548
 5761TIP3   OH217246   4.436   3.182   0.517
 5761TIP3    H117247   4.343   3.160   0.513
 5761TIP3    H217248   4.469   3.128   0.588
 5762TIP3   OH217249   0.756   2.006   0.048
 5762TIP3    H117250   0.707   1.925   0.061
 5762TIP3    H217251   0.793   1.997  -0.040
 5763TIP3   OH217252   5.537   0.722   1.204
 5763TIP3    H117253   5.556   0.816   1.202
 5763TIP3    H217254   5.597   0.684   1.138
 5764TIP3   OH217255   5.621   5.303   0.569
 5764TIP3    H117256   5.646   5.331   0.481
 5764TIP3    H217257   5.601   5.210   0.560
 5765TIP3   OH217258   2.095   6.413   4.202
 5765TIP3    H117259   2.020   6.354   4.212
 5765TIP3    H217260   2.151   6.369   4.137
 5766TIP3   OH217261   5.235   4.092   1.822
 5766TIP3    H117262   5.242   4.183   1.792
 5766TIP3    H217263   5.293   4.043   1.764
 5767TIP3   OH217264   1.818   0.934   3.104
 5767TIP3    H117265   1.775   0.906   3.023
 5767TIP3    H217266   1.837   0.852   3.151
 5768TIP3   OH217267   1.985   3.028   1.411
 5768TIP3    H117268   2.021   3.073   1.488
 5768TIP3    H217269   1.905   3.077   1.390
 5769TIP3   OH217270   1.431   5.233   4.310
 5769TIP3    H117271   1.496   5.173   4.275
 5769TIP3    H217272   1.391   5.273   4.233
 5770TIP3   OH217273   2.655   1.437   2.799
 5770TIP3    H117274   2.744   1.471   2.788
 5770TIP3    H217275   2.614   1.498   2.860
 5771TIP3   OH217276   6.327   3.008   0.626
 5771TIP3    H117277   6.346   3.082   0.684
 5771TIP3    H217278   6.403   3.004   0.568
 5772TIP3   OH217279   3.950   3.338   5.331
 5772TIP3    H117280   3.999   3.384   5.262
 5772TIP3    H217281   3.900   3.407   5.375
 5773TIP3   OH217282   6.022   4.615   5.421
 5773TIP3    H117283   5.971   4.695   5.434
 5773TIP3    H217284   6.048   4.589   5.510
 5774TIP3   OH217285   3.596   3.102   2.053
 5774TIP3    H117286   3.617   3.110   2.146
 5774TIP3    H217287   3.681   3.091   2.011
 5775TIP3   OH217288   5.101   5.452   2.873
 5775TIP3    H117289   5.182   5.444   2.822
 5775TIP3    H217290   5.032   5.426   2.812
 5776TIP3   OH217291   6.750   3.336   3.949
 5776TIP3    H117292   6.672   3.291   3.916
 5776TIP3    H217293   6.759   3.306   4.039
 5777TIP3   OH217294   1.308  -0.006   2.134
 5777TIP3    H117295   1.383   0.011   2.192
 5777TIP3    H217296   1.236   0.043   2.174
 5778TIP3   OH217297   3.918   4.493   3.654
 5778TIP3    H117298   3.850   4.437   3.618
 5778TIP3    H217299   3.871   4.563   3.699
 5779TIP3   OH217300   3.925   1.913   1.885
 5779TIP3    H117301   3.970   1.983   1.932
 5779TIP3    H217302   3.832   1.933   1.893
 5780TIP3   OH217303   1.158   0.692   2.524
 5780TIP3    H117304   1.109   0.659   2.600
 5780TIP3    H217305   1.224   0.625   2.506
 5781TIP3   OH217306   4.055   4.226   1.065
 5781TIP3    H117307   4.113   4.152   1.048
 5781TIP3    H217308   4.033   4.259   0.978
 5782TIP3   OH217309   1.218   2.480   3.201
 5782TIP3    H117310   1.194   2.507   3.112
 5782TIP3    H217311   1.172   2.542   3.258
 5783TIP3   OH217312   4.678   6.356   0.853
 5783TIP3    H117313   4.765   6.367   0.892
 5783TIP3    H217314   4.672   6.263   0.834
 5784TIP3   OH217315   3.459   6.383   1.230
 5784TIP3    H117316   3.367   6.402   1.211
 5784TIP3    H217317   3.480   6.440   1.304
 5785TIP3   OH217318   0.525   2.801   1.545
 5785TIP3    H117319   0.607   2.845   1.519
 5785TIP3    H217320   0.550   2.710   1.559
 5786TIP3   OH217321   1.839   6.149   3.433
 5786TIP3    H117322   1.747   6.126   3.447
 5786TIP3    H217323   1.875   6.077   3.381
 5787TIP3   OH217324   6.577   6.036   4.259
 5787TIP3    H117325   6.537   5.973   4.200
 5787TIP3    H217326   6.669   6.039   4.233
 5788TIP3   OH217327   2.099   3.200   4.659
 5788TIP3    H117328   2.021   3.180   4.711
 5788TIP3    H217329   2.068   3.261   4.592
 5789TIP3   OH217330   1.544   4.139   1.525
 5789TIP3    H117331   1.461   4.137   1.478
 5789TIP3    H217332   1.522   4.176   1.611
 5790TIP3   OH217333   0.751   2.601   1.516
 5790TIP3    H117334   0.811   2.672   1.538
 5790TIP3    H217335   0.794   2.522   1.548
 5791TIP3   OH217336   5.914   3.088   3.925
 5791TIP3    H117337   5.828   3.071   3.962
 5791TIP3    H217338   5.975   3.059   3.993
 5792TIP3   OH217339   6.506   5.371   4.887
 5792TIP3    H117340   6.434   5.339   4.832
 5792TIP3    H217341   6.535   5.451   4.843
 5793TIP3   OH217342   5.696   2.163   0.295
 5793TIP3    H117343   5.646   2.174   0.376
 5793TIP3    H217344   5.787   2.173   0.321
 5794TIP3   OH217345   4.071   6.430   0.029
 5794TIP3    H117346   4.054   6.336   0.038
 5794TIP3    H217347   4.025   6.470   0.104
 5795TIP3   OH217348   0.194   6.533   3.328
 5795TIP3    H117349   0.159   6.561   3.413
 5795TIP3    H217350   0.276   6.580   3.319
 5796TIP3   OH217351   0.884  -0.020   3.893
 5796TIP3    H117352   0.941   0.031   3.950
 5796TIP3    H217353   0.798  -0.018   3.935
 5797TIP3   OH217354   5.064   1.360   0.211
 5797TIP3    H117355   5.159   1.355   0.218
 5797TIP3    H217356   5.041   1.446   0.244
 5798TIP3   OH217357   5.800   0.393   4.917
 5798TIP3    H117358   5.879   0.339   4.923
 5798TIP3    H217359   5.781   0.419   5.007
 5799TIP3   OH217360   2.135   1.036   1.504
 5799TIP3    H117361   2.077   1.091   1.557
 5799TIP3    H217362   2.077   0.984   1.450
 5800TIP3   OH217363   7.151   1.316   2.999
 5800TIP3    H117364   7.059   1.297   3.014
 5800TIP3    H217365   7.184   1.239   2.953
 5801TIP3   OH217366   3.447   2.215   4.791
 5801TIP3    H117367   3.392   2.136   4.791
 5801TIP3    H217368   3.429   2.256   4.707
 5802TIP3   OH217369   5.909   4.762   2.557
 5802TIP3    H117370   5.817   4.777   2.535
 5802TIP3    H217371   5.945   4.715   2.482
 5803TIP3   OH217372   2.357   5.786   4.100
 5803TIP3    H117373   2.396   5.731   4.168
 5803TIP3    H217374   2.268   5.752   4.090
 5804TIP3   OH217375   2.138   3.836   1.142
 5804TIP3    H117376   2.213   3.783   1.167
 5804TIP3    H217377   2.091   3.852   1.224
 5805TIP3   OH217378   3.550   6.198   2.910
 5805TIP3    H117379   3.584   6.287   2.920
 5805TIP3    H217380   3.627   6.142   2.907
 5806TIP3   OH217381   4.237   6.157   2.689
 5806TIP3    H117382   4.275   6.092   2.630
 5806TIP3    H217383   4.163   6.112   2.729
 5807TIP3   OH217384   1.306   2.792   1.663
 5807TIP3    H117385   1.275   2.879   1.639
 5807TIP3    H217386   1.293   2.787   1.758
 5808TIP3   OH217387   4.451   2.354   4.028
 5808TIP3    H117388   4.436   2.433   3.976
 5808TIP3    H217389   4.410   2.284   3.977
 5809TIP3   OH217390   6.057   3.447   1.533
 5809TIP3    H117391   6.085   3.461   1.442
 5809TIP3    H217392   6.054   3.352   1.542
 5810TIP3   OH217393   4.445   3.835   0.326
 5810TIP3    H117394   4.378   3.891   0.365
 5810TIP3    H217395   4.423   3.832   0.233
 5811TIP3   OH217396   6.154   2.328   1.267
 5811TIP3    H117397   6.082   2.283   1.312
 5811TIP3    H217398   6.140   2.310   1.175
 5812TIP3   OH217399   7.152   1.917   5.308
 5812TIP3    H117400   7.086   1.954   5.368
 5812TIP3    H217401   7.188   1.842   5.357
 5813TIP3   OH217402   0.931   1.784   4.256
 5813TIP3    H117403   0.966   1.711   4.307
 5813TIP3    H217404   0.988   1.789   4.179
 5814TIP3   OH217405   5.418   5.406   1.617
 5814TIP3    H117406   5.357   5.347   1.661
 5814TIP3    H217407   5.502   5.390   1.659
 5815TIP3   OH217408   4.721   0.122   3.002
 5815TIP3    H117409   4.668   0.201   2.990
 5815TIP3    H217410   4.807   0.156   3.029
 5816TIP3   OH217411   0.063   2.104   4.462
 5816TIP3    H117412   0.104   2.017   4.463
 5816TIP3    H217413   0.003   2.102   4.537
 5817TIP3   OH217414   5.196   2.139   2.901
 5817TIP3    H117415   5.234   2.184   2.977
 5817TIP3    H217416   5.172   2.210   2.841
 5818TIP3   OH217417   2.221   2.826   1.914
 5818TIP3    H117418   2.126   2.826   1.912
 5818TIP3    H217419   2.247   2.789   1.830
 5819TIP3   OH217420   2.573   6.144   2.163
 5819TIP3    H117421   2.592   6.052   2.148
 5819TIP3    H217422   2.628   6.191   2.101
 5820TIP3   OH217423   2.912   1.179   3.167
 5820TIP3    H117424   2.970   1.109   3.137
 5820TIP3    H217425   2.966   1.231   3.226
 5821TIP3   OH217426   7.156   2.841   5.165
 5821TIP3    H117427   7.249   2.861   5.154
 5821TIP3    H217428   7.113   2.926   5.174
 5822TIP3   OH217429   1.898   2.076   0.111
 5822TIP3    H117430   1.896   2.163   0.072
 5822TIP3    H217431   1.902   2.016   0.036
 5823TIP3   OH217432   0.183   1.516   3.241
 5823TIP3    H117433   0.204   1.550   3.154
 5823TIP3    H217434   0.170   1.595   3.295
 5824TIP3   OH217435   2.316   5.972   1.536
 5824TIP3    H117436   2.409   5.996   1.537
 5824TIP3    H217437   2.293   5.968   1.443
 5825TIP3   OH217438   1.543   2.523   2.824
 5825TIP3    H117439   1.583   2.601   2.862
 5825TIP3    H217440   1.610   2.487   2.767
 5826TIP3   OH217441   5.357   2.084   4.752
 5826TIP3    H117442   5.304   2.071   4.831
 5826TIP3    H217443   5.444   2.103   4.786
 5827TIP3   OH217444   2.049   6.323   3.402
 5827TIP3    H117445   1.981   6.256   3.399
 5827TIP3    H217446   2.125   6.283   3.359
 5828TIP3   OH217447   3.975   5.016   0.138
 5828TIP3    H117448   4.040   5.085   0.131
 5828TIP3    H217449   3.918   5.043   0.210
 5829TIP3   OH217450   0.606   2.573   2.743
 5829TIP3    H117451   0.570   2.597   2.658
 5829TIP3    H217452   0.658   2.494   2.726
 5830TIP3   OH217453   5.474   0.516   1.688
 5830TIP3    H117454   5.556   0.467   1.698
 5830TIP3    H217455   5.497   0.590   1.632
 5831TIP3   OH217456   6.040   4.344   0.860
 5831TIP3    H117457   6.090   4.304   0.788
 5831TIP3    H217458   6.083   4.313   0.939
 5832TIP3   OH217459   7.042   2.759   5.755
 5832TIP3    H117460   7.028   2.698   5.827
 5832TIP3    H217461   7.063   2.703   5.680
 5833TIP3   OH217462   3.641   4.207   1.755
 5833TIP3    H117463   3.693   4.126   1.748
 5833TIP3    H217464   3.691   4.272   1.706
 5834TIP3   OH217465   1.214   4.751   2.405
 5834TIP3    H117466   1.183   4.767   2.316
 5834TIP3    H217467   1.266   4.828   2.427
 5835TIP3   OH217468   0.943   0.893   2.917
 5835TIP3    H117469   1.005   0.896   2.843
 5835TIP3    H217470   0.922   0.800   2.927
 5836TIP3   OH217471   0.971   2.877   3.179
 5836TIP3    H117472   0.970   2.919   3.266
 5836TIP3    H217473   0.908   2.806   3.186
 5837TIP3   OH217474   3.703   5.780   3.380
 5837TIP3    H117475   3.615   5.793   3.344
 5837TIP3    H217476   3.696   5.808   3.471
 5838TIP3   OH217477   6.268   5.772   1.010
 5838TIP3    H117478   6.259   5.713   1.085
 5838TIP3    H217479   6.224   5.727   0.938
 5839TIP3   OH217480   5.047   4.565   5.446
 5839TIP3    H117481   5.115   4.550   5.381
 5839TIP3    H217482   5.054   4.492   5.507
 5840TIP3   OH217483   2.754   3.686   4.964
 5840TIP3    H117484   2.774   3.596   4.988
 5840TIP3    H217485   2.693   3.678   4.891
 5841TIP3   OH217486   4.652   1.327   3.864
 5841TIP3    H117487   4.620   1.280   3.787
 5841TIP3    H217488   4.581   1.318   3.928
 5842TIP3   OH217489   3.316   2.573   5.202
 5842TIP3    H117490   3.395   2.606   5.243
 5842TIP3    H217491   3.345   2.498   5.150
 5843TIP3   OH217492   4.785   4.901   2.000
 5843TIP3    H117493   4.722   4.835   1.972
 5843TIP3    H217494   4.734   4.982   2.009
 5844TIP3   OH217495   4.983   5.988   4.232
 5844TIP3    H117496   4.953   6.013   4.320
 5844TIP3    H217497   4.951   5.898   4.221
 5845TIP3   OH217498   3.146   4.472   2.446
 5845TIP3    H117499   3.233   4.438   2.463
 5845TIP3    H217500   3.107   4.481   2.533
 5846TIP3   OH217501   5.660   3.154   4.884
 5846TIP3    H117502   5.751   3.130   4.902
 5846TIP3    H217503   5.626   3.080   4.833
 5847TIP3   OH217504   4.047   5.667   0.116
 5847TIP3    H117505   4.021   5.665   0.208
 5847TIP3    H217506   4.103   5.591   0.105
 5848TIP3   OH217507   6.119   0.365   0.141
 5848TIP3    H117508   6.109   0.362   0.046
 5848TIP3    H217509   6.192   0.425   0.155
 5849TIP3   OH217510   5.771   6.031   4.091
 5849TIP3    H117511   5.695   6.054   4.144
 5849TIP3    H217512   5.816   6.115   4.077
 5850TIP3   OH217513   1.591   2.293   5.409
 5850TIP3    H117514   1.561   2.330   5.492
 5850TIP3    H217515   1.598   2.199   5.426
 5851TIP3   OH217516   6.376   3.268   5.337
 5851TIP3    H117517   6.389   3.234   5.249
 5851TIP3    H217518   6.405   3.359   5.333
 5852TIP3   OH217519   5.669   5.700   2.398
 5852TIP3    H117520   5.583   5.669   2.369
 5852TIP3    H217521   5.729   5.630   2.373
 5853TIP3   OH217522   1.689   4.581   1.152
 5853TIP3    H117523   1.745   4.612   1.223
 5853TIP3    H217524   1.619   4.532   1.196
 5854TIP3   OH217525   4.874   0.774   3.486
 5854TIP3    H117526   4.864   0.850   3.428
 5854TIP3    H217527   4.822   0.797   3.563
 5855TIP3   OH217528   1.893   4.784   0.836
 5855TIP3    H117529   1.950   4.772   0.760
 5855TIP3    H217530   1.933   4.857   0.884
 5856TIP3   OH217531   4.820   5.040   4.940
 5856TIP3    H117532   4.807   5.121   4.892
 5856TIP3    H217533   4.778   5.055   5.025
 5857TIP3   OH217534   4.564   2.225   2.553
 5857TIP3    H117535   4.604   2.292   2.498
 5857TIP3    H217536   4.638   2.187   2.601
 5858TIP3   OH217537   6.900   3.141   0.765
 5858TIP3    H117538   6.877   3.234   0.757
 5858TIP3    H217539   6.829   3.103   0.817
 5859TIP3   OH217540   1.812   2.910   3.219
 5859TIP3    H117541   1.796   3.001   3.195
 5859TIP3    H217542   1.737   2.886   3.273
 5860TIP3   OH217543   2.382   2.623   1.366
 5860TIP3    H117544   2.468   2.662   1.350
 5860TIP3    H217545   2.326   2.698   1.388
 5861TIP3   OH217546   6.147   0.136   1.150
 5861TIP3    H117547   6.207   0.210   1.159
 5861TIP3    H217548   6.178   0.072   1.214
 5862TIP3   OH217549   0.504   1.248   2.841
 5862TIP3    H117550   0.523   1.176   2.780
 5862TIP3    H217551   0.585   1.260   2.890
 5863TIP3   OH217552   4.129   4.311   3.727
 5863TIP3    H117553   4.219   4.343   3.727
 5863TIP3    H217554   4.076   4.388   3.706
 5864TIP3   OH217555   3.972   0.086   1.425
 5864TIP3    H117556   3.984   0.111   1.517
 5864TIP3    H217557   3.922   0.158   1.386
 5865TIP3   OH217558   2.737   1.989   2.544
 5865TIP3    H117559   2.817   1.962   2.590
 5865TIP3    H217560   2.744   1.948   2.458
 5866TIP3   OH217561   3.643   2.948   5.341
 5866TIP3    H117562   3.668   2.957   5.433
 5866TIP3    H217563   3.683   3.023   5.298
 5867TIP3   OH217564   6.941   1.923   3.228
 5867TIP3    H117565   6.900   1.839   3.249
 5867TIP3    H217566   7.011   1.901   3.166
 5868TIP3   OH217567   0.690   6.149   0.830
 5868TIP3    H117568   0.706   6.196   0.748
 5868TIP3    H217569   0.603   6.109   0.818
 5869TIP3   OH217570   1.429   5.960   4.655
 5869TIP3    H117571   1.379   6.012   4.592
 5869TIP3    H217572   1.481   5.900   4.601
 5870TIP3   OH217573   4.273   2.175   2.728
 5870TIP3    H117574   4.294   2.260   2.767
 5870TIP3    H217575   4.306   2.182   2.638
 5871TIP3   OH217576   0.458   0.938   3.646
 5871TIP3    H117577   0.376   0.968   3.685
 5871TIP3    H217578   0.498   1.017   3.610
 5872TIP3   OH217579   1.000   2.083   3.735
 5872TIP3    H117580   0.975   2.154   3.676
 5872TIP3    H217581   1.095   2.084   3.736
 5873TIP3   OH217582   0.944   4.737   4.695
 5873TIP3    H117583   1.009   4.675   4.726
 5873TIP3    H217584   0.880   4.684   4.647
 5874TIP3   OH217585   0.450   0.008   4.454
 5874TIP3    H117586   0.363   0.024   4.417
 5874TIP3    H217587   0.441   0.028   4.547
 5875TIP3   OH217588   1.509   4.429   1.293
 5875TIP3    H117589   1.535   4.347   1.251
 5875TIP3    H217590   1.545   4.422   1.382
 5876TIP3   OH217591   4.826   0.958   0.287
 5876TIP3    H117592   4.861   0.874   0.259
 5876TIP3    H217593   4.883   1.023   0.246
 5877TIP3   OH217594   2.919   4.354   5.411
 5877TIP3    H117595   2.933   4.309   5.494
 5877TIP3    H217596   3.007   4.372   5.378
 5878TIP3   OH217597   3.124   4.087   2.276
 5878TIP3    H117598   3.086   4.071   2.190
 5878TIP3    H217599   3.219   4.091   2.259
 5879TIP3   OH217600   7.106   4.352   2.514
 5879TIP3    H117601   7.146   4.300   2.445
 5879TIP3    H217602   7.178   4.375   2.572
 5880TIP3   OH217603   5.315   4.188   4.497
 5880TIP3    H117604   5.244   4.149   4.547
 5880TIP3    H217605   5.325   4.131   4.421
 5881TIP3   OH217606   2.329   6.490   5.141
 5881TIP3    H117607   2.342   6.562   5.079
 5881TIP3    H217608   2.276   6.426   5.094
 5882TIP3   OH217609   5.754   0.814   0.863
 5882TIP3    H117610   5.792   0.751   0.925
 5882TIP3    H217611   5.779   0.899   0.897
 5883TIP3   OH217612   2.293   5.925   2.939
 5883TIP3    H117613   2.296   6.011   2.897
 5883TIP3    H217614   2.300   5.943   3.032
 5884TIP3   OH217615   2.976   4.549   0.952
 5884TIP3    H117616   2.986   4.493   1.028
 5884TIP3    H217617   2.920   4.621   0.982
 5885TIP3   OH217618   4.027   3.340   2.736
 5885TIP3    H117619   3.986   3.262   2.773
 5885TIP3    H217620   4.110   3.348   2.784
 5886TIP3   OH217621   1.383   1.147   4.877
 5886TIP3    H117622   1.417   1.077   4.933
 5886TIP3    H217623   1.461   1.189   4.842
 5887TIP3   OH217624   3.220   2.230   5.238
 5887TIP3    H117625   3.258   2.156   5.191
 5887TIP3    H217626   3.209   2.298   5.171
 5888TIP3   OH217627   7.069   4.642   5.579
 5888TIP3    H117628   7.013   4.625   5.655
 5888TIP3    H217629   7.035   4.723   5.542
 5889TIP3   OH217630   2.747   1.858   4.632
 5889TIP3    H117631   2.760   1.897   4.545
 5889TIP3    H217632   2.665   1.809   4.624
 5890TIP3   OH217633   7.049   1.170   2.598
 5890TIP3    H117634   6.991   1.243   2.580
 5890TIP3    H217635   7.137   1.206   2.590
 5891TIP3   OH217636   4.137   2.966   3.762
 5891TIP3    H117637   4.045   2.961   3.734
 5891TIP3    H217638   4.181   3.010   3.689
 5892TIP3   OH217639   5.592   2.285   3.670
 5892TIP3    H117640   5.546   2.221   3.616
 5892TIP3    H217641   5.672   2.305   3.622
 5893TIP3   OH217642   1.301   4.939   4.638
 5893TIP3    H117643   1.377   4.988   4.605
 5893TIP3    H217644   1.315   4.933   4.732
 5894TIP3   OH217645   1.733   0.740   3.317
 5894TIP3    H117646   1.721   0.690   3.398
 5894TIP3    H217647   1.827   0.759   3.314
 5895TIP3   OH217648   0.309   5.923   2.068
 5895TIP3    H117649   0.394   5.954   2.034
 5895TIP3    H217650   0.332   5.868   2.143
 5896TIP3   OH217651   3.117   5.396   2.966
 5896TIP3    H117652   3.022   5.402   2.957
 5896TIP3    H217653   3.131   5.354   3.051
 5897TIP3   OH217654   2.876   6.295   4.362
 5897TIP3    H117655   2.781   6.300   4.369
 5897TIP3    H217656   2.892   6.284   4.268
 5898TIP3   OH217657   0.462   5.505   4.092
 5898TIP3    H117658   0.389   5.444   4.084
 5898TIP3    H217659   0.525   5.461   4.149
 5899TIP3   OH217660   4.508   6.144   5.383
 5899TIP3    H117661   4.424   6.188   5.369
 5899TIP3    H217662   4.514   6.081   5.312
 5900TIP3   OH217663   1.422   0.345   1.557
 5900TIP3    H117664   1.342   0.373   1.601
 5900TIP3    H217665   1.467   0.427   1.535
 5901TIP3   OH217666  -0.067   3.846   1.223
 5901TIP3    H117667   0.009   3.816   1.273
 5901TIP3    H217668  -0.045   3.826   1.132
 5902TIP3   OH217669   6.805   5.929   3.606
 5902TIP3    H117670   6.739   5.874   3.648
 5902TIP3    H217671   6.883   5.919   3.661
 5903TIP3   OH217672   4.220   0.707   0.075
 5903TIP3    H117673   4.293   0.657   0.038
 5903TIP3    H217674   4.252   0.797   0.080
 5904TIP3   OH217675   4.107   3.269   0.023
 5904TIP3    H117676   4.060   3.307   0.097
 5904TIP3    H217677   4.072   3.180   0.015
 5905TIP3   OH217678   0.221   3.426   1.432
 5905TIP3    H117679   0.185   3.365   1.367
 5905TIP3    H217680   0.148   3.446   1.490
 5906TIP3   OH217681   3.636   1.142   4.608
 5906TIP3    H117682   3.649   1.183   4.523
 5906TIP3    H217683   3.665   1.207   4.671
 5907TIP3   OH217684   5.834   1.165   0.787
 5907TIP3    H117685   5.924   1.149   0.758
 5907TIP3    H217686   5.831   1.130   0.876
 5908TIP3   OH217687   5.291   0.508   3.275
 5908TIP3    H117688   5.316   0.576   3.337
 5908TIP3    H217689   5.199   0.489   3.296
 5909TIP3   OH217690   2.143   0.990   4.321
 5909TIP3    H117691   2.176   0.903   4.346
 5909TIP3    H217692   2.117   0.980   4.230
 5910TIP3   OH217693   6.158   1.465   4.085
 5910TIP3    H117694   6.126   1.384   4.123
 5910TIP3    H217695   6.122   1.466   3.996
 5911TIP3   OH217696   6.403   5.978   0.174
 5911TIP3    H117697   6.334   5.915   0.192
 5911TIP3    H217698   6.357   6.054   0.138
 5912TIP3   OH217699   6.977   0.120   1.956
 5912TIP3    H117700   7.047   0.184   1.967
 5912TIP3    H217701   6.960   0.087   2.044
 5913TIP3   OH217702   5.877   2.419   5.661
 5913TIP3    H117703   5.926   2.359   5.716
 5913TIP3    H217704   5.865   2.497   5.715
 5914TIP3   OH217705   6.148   1.147   2.612
 5914TIP3    H117706   6.141   1.119   2.703
 5914TIP3    H217707   6.098   1.228   2.607
 5915TIP3   OH217708   4.037   4.941   1.496
 5915TIP3    H117709   4.026   4.976   1.585
 5915TIP3    H217710   4.034   4.846   1.507
 5916TIP3   OH217711   1.624   3.601   5.675
 5916TIP3    H117712   1.617   3.658   5.752
 5916TIP3    H217713   1.602   3.658   5.601
 5917TIP3   OH217714   4.487   1.895   0.121
 5917TIP3    H117715   4.520   1.962   0.061
 5917TIP3    H217716   4.441   1.945   0.188
 5918TIP3   OH217717   3.355   0.159   5.773
 5918TIP3    H117718   3.409   0.166   5.695
 5918TIP3    H217719   3.274   0.205   5.750
 5919TIP3   OH217720   3.173   1.385   4.654
 5919TIP3    H117721   3.160   1.341   4.738
 5919TIP3    H217722   3.129   1.328   4.590
 5920TIP3   OH217723   3.701   1.468   3.993
 5920TIP3    H117724   3.652   1.385   3.991
 5920TIP3    H217725   3.646   1.527   4.044
 5921TIP3   OH217726   3.045   5.788   4.295
 5921TIP3    H117727   2.963   5.771   4.342
 5921TIP3    H217728   3.113   5.747   4.348
 5922TIP3   OH217729   5.281   4.634   1.446
 5922TIP3    H117730   5.260   4.711   1.392
 5922TIP3    H217731   5.355   4.663   1.499
 5923TIP3   OH217732   3.708   4.093   4.730
 5923TIP3    H117733   3.758   4.013   4.712
 5923TIP3    H217734   3.631   4.063   4.778
 5924TIP3   OH217735   1.572   6.466   3.716
 5924TIP3    H117736   1.621   6.387   3.738
 5924TIP3    H217737   1.600   6.531   3.781
 5925TIP3   OH217738   3.554   0.216   4.293
 5925TIP3    H117739   3.584   0.303   4.320
 5925TIP3    H217740   3.461   0.226   4.277
 5926TIP3   OH217741   5.760   3.521   4.335
 5926TIP3    H117742   5.816   3.534   4.411
 5926TIP3    H217743   5.816   3.476   4.272
 5927TIP3   OH217744   7.103   4.045   5.392
 5927TIP3    H117745   7.186   4.040   5.345
 5927TIP3    H217746   7.105   4.130   5.435
 5928TIP3   OH217747   2.653   1.996   2.082
 5928TIP3    H117748   2.582   1.935   2.063
 5928TIP3    H217749   2.702   1.956   2.154
 5929TIP3   OH217750   7.157   3.880   0.677
 5929TIP3    H117751   7.161   3.907   0.585
 5929TIP3    H217752   7.159   3.963   0.725
 5930TIP3   OH217753   4.807   4.526   3.429
 5930TIP3    H117754   4.794   4.510   3.522
 5930TIP3    H217755   4.760   4.608   3.412
 5931TIP3   OH217756   4.898   3.037   3.309
 5931TIP3    H117757   4.890   3.080   3.394
 5931TIP3    H217758   4.858   3.098   3.247
 5932TIP3   OH217759   5.995   1.386   0.631
 5932TIP3    H117760   5.987   1.314   0.568
 5932TIP3    H217761   5.956   1.461   0.586
 5933TIP3   OH217762   1.951   6.147   0.952
 5933TIP3    H117763   2.011   6.143   1.027
 5933TIP3    H217764   1.966   6.234   0.914
 5934TIP3   OH217765   3.741   5.887   1.857
 5934TIP3    H117766   3.706   5.893   1.768
 5934TIP3    H217767   3.667   5.857   1.910
 5935TIP3   OH217768   0.095   3.729   3.442
 5935TIP3    H117769   0.025   3.726   3.377
 5935TIP3    H217770   0.165   3.779   3.400
 5936TIP3   OH217771   1.814   1.194   2.745
 5936TIP3    H117772   1.785   1.283   2.767
 5936TIP3    H217773   1.864   1.166   2.822
 5937TIP3   OH217774   4.021   0.163   5.164
 5937TIP3    H117775   4.008   0.135   5.073
 5937TIP3    H217776   3.952   0.228   5.178
 5938TIP3   OH217777   7.189   5.826   5.815
 5938TIP3    H117778   7.213   5.910   5.854
 5938TIP3    H217779   7.271   5.788   5.786
 5939TIP3   OH217780   1.492   1.297   0.938
 5939TIP3    H117781   1.481   1.382   0.980
 5939TIP3    H217782   1.546   1.315   0.861
 5940TIP3   OH217783   2.582   6.250   4.173
 5940TIP3    H117784   2.548   6.305   4.103
 5940TIP3    H217785   2.578   6.161   4.138
 5941TIP3   OH217786   3.285   2.508   3.372
 5941TIP3    H117787   3.373   2.488   3.404
 5941TIP3    H217788   3.235   2.533   3.450
 5942TIP3   OH217789   1.624   0.535   2.057
 5942TIP3    H117790   1.590   0.509   2.143
 5942TIP3    H217791   1.574   0.482   1.995
 5943TIP3   OH217792   5.701   5.380   0.320
 5943TIP3    H117793   5.729   5.456   0.268
 5943TIP3    H217794   5.682   5.312   0.256
 5944TIP3   OH217795   1.514   5.150   3.900
 5944TIP3    H117796   1.521   5.104   3.984
 5944TIP3    H217797   1.476   5.085   3.840
 5945TIP3   OH217798   6.282   1.670   0.921
 5945TIP3    H117799   6.331   1.703   0.845
 5945TIP3    H217800   6.204   1.630   0.883
 5946TIP3   OH217801   0.367   0.276   0.535
 5946TIP3    H117802   0.310   0.239   0.603
 5946TIP3    H217803   0.307   0.325   0.478
 5947TIP3   OH217804   6.090   6.200   0.818
 5947TIP3    H117805   6.111   6.289   0.845
 5947TIP3    H217806   6.127   6.144   0.886
 5948TIP3   OH217807   4.533   3.376   3.137
 5948TIP3    H117808   4.536   3.420   3.053
 5948TIP3    H217809   4.488   3.438   3.195
 5949TIP3   OH217810   1.923   6.573   2.438
 5949TIP3    H117811   1.977   6.652   2.439
 5949TIP3    H217812   1.841   6.600   2.480
 5950TIP3   OH217813   3.581   2.891   5.899
 5950TIP3    H117814   3.492   2.924   5.884
 5950TIP3    H217815   3.629   2.966   5.934
 5951TIP3   OH217816   1.798   0.958   1.245
 5951TIP3    H117817   1.891   0.935   1.235
 5951TIP3    H217818   1.773   0.993   1.160
 5952TIP3   OH217819   4.652   0.642   4.195
 5952TIP3    H117820   4.673   0.573   4.258
 5952TIP3    H217821   4.611   0.596   4.122
 5953TIP3   OH217822   4.834   5.437   1.887
 5953TIP3    H117823   4.916   5.395   1.859
 5953TIP3    H217824   4.771   5.414   1.819
 5954TIP3   OH217825   7.055   1.362   4.575
 5954TIP3    H117826   7.079   1.351   4.667
 5954TIP3    H217827   6.980   1.304   4.563
 5955TIP3   OH217828   7.031   1.984   3.506
 5955TIP3    H117829   7.027   2.024   3.419
 5955TIP3    H217830   6.946   1.942   3.517
 5956TIP3   OH217831   1.987   3.130   3.827
 5956TIP3    H117832   1.922   3.093   3.887
 5956TIP3    H217833   1.975   3.225   3.835
 5957TIP3   OH217834   3.816   3.078   5.522
 5957TIP3    H117835   3.852   3.154   5.476
 5957TIP3    H217836   3.825   3.101   5.615
 5958TIP3   OH217837   3.044   4.038   4.266
 5958TIP3    H117838   3.016   3.977   4.198
 5958TIP3    H217839   3.090   4.107   4.219
 5959TIP3   OH217840   0.630   3.735   2.548
 5959TIP3    H117841   0.688   3.809   2.564
 5959TIP3    H217842   0.686   3.658   2.561
 5960TIP3   OH217843   4.469   3.131   3.897
 5960TIP3    H117844   4.425   3.046   3.895
 5960TIP3    H217845   4.548   3.118   3.843
 5961TIP3   OH217846   5.113   0.615   2.027
 5961TIP3    H117847   5.111   0.520   2.035
 5961TIP3    H217848   5.106   0.632   1.933
 5962TIP3   OH217849   3.221   0.113   4.487
 5962TIP3    H117850   3.272   0.186   4.523
 5962TIP3    H217851   3.168   0.153   4.418
 5963TIP3   OH217852   0.542   3.174   2.115
 5963TIP3    H117853   0.560   3.223   2.035
 5963TIP3    H217854   0.564   3.083   2.093
 5964TIP3   OH217855   2.830   5.391   5.557
 5964TIP3    H117856   2.870   5.427   5.636
 5964TIP3    H217857   2.892   5.326   5.525
 5965TIP3   OH217858   4.384   6.465   1.955
 5965TIP3    H117859   4.414   6.526   1.887
 5965TIP3    H217860   4.461   6.449   2.009
 5966TIP3   OH217861   5.331   3.290   0.271
 5966TIP3    H117862   5.332   3.370   0.324
 5966TIP3    H217863   5.424   3.272   0.253
 5967TIP3   OH217864   6.267   1.724   3.950
 5967TIP3    H117865   6.245   1.633   3.971
 5967TIP3    H217866   6.363   1.725   3.949
 5968TIP3   OH217867   1.207   4.303   1.840
 5968TIP3    H117868   1.133   4.351   1.804
 5968TIP3    H217869   1.169   4.223   1.877
 5969TIP3   OH217870   1.180   2.403   4.685
 5969TIP3    H117871   1.126   2.475   4.718
 5969TIP3    H217872   1.156   2.328   4.740
 5970TIP3   OH217873   0.916   1.547   5.278
 5970TIP3    H117874   0.964   1.466   5.290
 5970TIP3    H217875   0.966   1.612   5.327
 5971TIP3   OH217876   5.102   1.450   3.740
 5971TIP3    H117877   5.037   1.459   3.810
 5971TIP3    H217878   5.186   1.464   3.784
 5972TIP3   OH217879   6.644   6.181   2.717
 5972TIP3    H117880   6.732   6.148   2.702
 5972TIP3    H217881   6.596   6.107   2.754
 5973TIP3   OH217882   0.754   3.950   4.643
 5973TIP3    H117883   0.809   4.016   4.598
 5973TIP3    H217884   0.778   3.867   4.601
 5974TIP3   OH217885   6.800   6.679   5.933
 5974TIP3    H117886   6.704   6.681   5.940
 5974TIP3    H217887   6.817   6.647   5.844
 5975TIP3   OH217888   0.454   1.534   5.676
 5975TIP3    H117889   0.393   1.552   5.748
 5975TIP3    H217890   0.522   1.601   5.686
 5976TIP3   OH217891   6.319   6.559   1.263
 5976TIP3    H117892   6.248   6.587   1.321
 5976TIP3    H217893   6.304   6.465   1.250
 5977TIP3   OH217894   2.740   4.103   0.968
 5977TIP3    H117895   2.820   4.097   0.916
 5977TIP3    H217896   2.669   4.099   0.903
 5978TIP3   OH217897   5.238   5.845   5.163
 5978TIP3    H117898   5.306   5.799   5.114
 5978TIP3    H217899   5.263   5.937   5.158
 5979TIP3   OH217900   0.277   0.441   4.675
 5979TIP3    H117901   0.307   0.386   4.746
 5979TIP3    H217902   0.182   0.445   4.686
 5980TIP3   OH217903   1.818   2.243   0.543
 5980TIP3    H117904   1.783   2.194   0.469
 5980TIP3    H217905   1.741   2.273   0.591
 5981TIP3   OH217906   5.079   6.374   3.222
 5981TIP3    H117907   5.095   6.423   3.141
 5981TIP3    H217908   5.162   6.330   3.240
 5982TIP3   OH217909   6.313   6.259   3.015
 5982TIP3    H117910   6.326   6.252   3.110
 5982TIP3    H217911   6.368   6.333   2.989
 5983TIP3   OH217912   4.957   0.511   3.136
 5983TIP3    H117913   5.013   0.563   3.078
 5983TIP3    H217914   4.872   0.556   3.134
 5984TIP3   OH217915   4.960   2.148   3.106
 5984TIP3    H117916   4.870   2.125   3.085
 5984TIP3    H217917   5.005   2.064   3.114
 5985TIP3   OH217918   2.738   5.077   0.658
 5985TIP3    H117919   2.773   5.028   0.731
 5985TIP3    H217920   2.717   5.011   0.592
 5986TIP3   OH217921   4.148   2.651   0.495
 5986TIP3    H117922   4.053   2.653   0.498
 5986TIP3    H217923   4.173   2.586   0.561
 5987TIP3   OH217924   4.013   0.511   5.037
 5987TIP3    H117925   4.094   0.538   4.995
 5987TIP3    H217926   3.960   0.474   4.967
 5988TIP3   OH217927   2.943   4.192   5.636
 5988TIP3    H117928   3.001   4.142   5.694
 5988TIP3    H217929   2.922   4.271   5.686
 5989TIP3   OH217930   3.423   4.954   4.496
 5989TIP3    H117931   3.370   5.022   4.537
 5989TIP3    H217932   3.411   4.878   4.553
 5990TIP3   OH217933   1.744   2.746   3.871
 5990TIP3    H117934   1.661   2.725   3.913
 5990TIP3    H217935   1.736   2.711   3.783
 5991TIP3   OH217936   1.361   0.126   1.893
 5991TIP3    H117937   1.321   0.059   1.838
 5991TIP3    H217938   1.341   0.099   1.983
 5992TIP3   OH217939   2.375   3.071   2.639
 5992TIP3    H117940   2.342   2.996   2.589
 5992TIP3    H217941   2.383   3.038   2.729
 5993TIP3   OH217942   6.337   2.563   1.876
 5993TIP3    H117943   6.411   2.509   1.904
 5993TIP3    H217944   6.367   2.653   1.889
 5994TIP3   OH217945   6.481   1.805   0.659
 5994TIP3    H117946   6.456   1.854   0.738
 5994TIP3    H217947   6.547   1.743   0.690
 5995TIP3   OH217948   6.598   2.801   5.614
 5995TIP3    H117949   6.589   2.847   5.697
 5995TIP3    H217950   6.581   2.867   5.547
 5996TIP3   OH217951   5.536   6.006   0.781
 5996TIP3    H117952   5.533   5.933   0.842
 5996TIP3    H217953   5.465   5.988   0.718
 5997TIP3   OH217954   3.340   0.283   3.578
 5997TIP3    H117955   3.395   0.342   3.527
 5997TIP3    H217956   3.380   0.196   3.565
 5998TIP3   OH217957   6.465   0.485   2.232
 5998TIP3    H117958   6.371   0.491   2.249
 5998TIP3    H217959   6.481   0.392   2.218
 5999TIP3   OH217960   5.690   6.759   1.249
 5999TIP3    H117961   5.665   6.697   1.181
 5999TIP3    H217962   5.761   6.810   1.211
 6000TIP3   OH217963   7.104   3.639   0.028
 6000TIP3    H117964   7.127   3.553   0.063
 6000TIP3    H217965   7.077   3.622  -0.062
 6001TIP3   OH217966   0.892   5.179   4.009
 6001TIP3    H117967   0.943   5.111   3.964
 6001TIP3    H217968   0.940   5.194   4.090
 6002TIP3   OH217969   1.677   4.197   0.452
 6002TIP3    H117970   1.707   4.161   0.536
 6002TIP3    H217971   1.581   4.193   0.457
 6003TIP3   OH217972   1.620   0.614   3.541
 6003TIP3    H117973   1.530   0.588   3.520
 6003TIP3    H217974   1.634   0.584   3.631
 6004TIP3   OH217975   0.093   3.893   2.456
 6004TIP3    H117976   0.098   3.967   2.517
 6004TIP3    H217977   0.169   3.903   2.399
 6005TIP3   OH217978   5.981   3.430   4.176
 6005TIP3    H117979   5.961   3.515   4.137
 6005TIP3    H217980   6.017   3.378   4.104
 6006TIP3   OH217981   6.256   3.166   3.766
 6006TIP3    H117982   6.246   3.073   3.747
 6006TIP3    H217983   6.333   3.171   3.822
 6007TIP3   OH217984   4.925   1.640   4.390
 6007TIP3    H117985   4.898   1.731   4.375
 6007TIP3    H217986   4.945   1.637   4.484
 6008TIP3   OH217987   4.221   0.625   1.862
 6008TIP3    H117988   4.199   0.591   1.775
 6008TIP3    H217989   4.221   0.548   1.919
 6009TIP3   OH217990   5.645   1.293   5.641
 6009TIP3    H117991   5.586   1.235   5.592
 6009TIP3    H217992   5.588   1.342   5.699
 6010TIP3   OH217993   4.299   5.285   5.809
 6010TIP3    H117994   4.292   5.209   5.866
 6010TIP3    H217995   4.251   5.259   5.730
 6011TIP3   OH217996   2.324   6.724   5.308
 6011TIP3    H117997   2.414   6.753   5.296
 6011TIP3    H217998   2.326   6.630   5.290
 6012TIP3   OH217999   6.439   3.530   3.069
 6012TIP3    H118000   6.368   3.470   3.092
 6012TIP3    H218001   6.397   3.615   3.057
 6013TIP3   OH218002   5.270   0.612   0.335
 6013TIP3    H118003   5.205   0.679   0.312
 6013TIP3    H218004   5.352   0.662   0.346
 6014TIP3   OH218005   0.756   4.161   4.246
 6014TIP3    H118006   0.811   4.107   4.302
 6014TIP3    H218007   0.680   4.107   4.227
 6015TIP3   OH218008   3.835   4.407   5.430
 6015TIP3    H118009   3.850   4.338   5.365
 6015TIP3    H218010   3.739   4.415   5.434
 6016TIP3   OH218011   4.325   4.735   5.336
 6016TIP3    H118012   4.329   4.831   5.341
 6016TIP3    H218013   4.245   4.718   5.285
 6017TIP3   OH218014   5.732   5.474   3.293
 6017TIP3    H118015   5.641   5.451   3.310
 6017TIP3    H218016   5.779   5.391   3.295
 6018TIP3   OH218017   5.307   3.613   0.762
 6018TIP3    H118018   5.257   3.531   0.765
 6018TIP3    H218019   5.398   3.585   0.750
 6019TIP3   OH218020   6.955   1.584   1.094
 6019TIP3    H118021   7.012   1.660   1.102
 6019TIP3    H218022   6.916   1.592   1.007
 6020TIP3   OH218023   4.530   1.242   0.038
 6020TIP3    H118024   4.623   1.264   0.043
 6020TIP3    H218025   4.493   1.275   0.119
 6021TIP3   OH218026   3.956   0.419   4.804
 6021TIP3    H118027   3.894   0.469   4.750
 6021TIP3    H218028   4.037   0.418   4.752
 6022TIP3   OH218029   5.417   4.291   0.585
 6022TIP3    H118030   5.425   4.218   0.647
 6022TIP3    H218031   5.337   4.336   0.612
 6023TIP3   OH218032   3.870   1.267   1.473
 6023TIP3    H118033   3.902   1.230   1.391
 6023TIP3    H218034   3.821   1.345   1.446
 6024TIP3   OH218035   2.548   2.405   3.368
 6024TIP3    H118036   2.531   2.498   3.350
 6024TIP3    H218037   2.461   2.367   3.380
 6025TIP3   OH218038   2.232   5.681   5.833
 6025TIP3    H118039   2.157   5.641   5.876
 6025TIP3    H218040   2.260   5.749   5.893
 6026TIP3   OH218041   4.035   5.739   5.514
 6026TIP3    H118042   4.098   5.711   5.580
 6026TIP3    H218043   3.993   5.659   5.484
 6027TIP3   OH218044   0.425   2.967   2.892
 6027TIP3    H118045   0.428   2.951   2.797
 6027TIP3    H218046   0.506   3.014   2.910
 6028TIP3   OH218047   1.635   5.792   5.023
 6028TIP3    H118048   1.558   5.783   5.080
 6028TIP3    H218049   1.605   5.848   4.952
 6029TIP3   OH218050   0.635   1.445   3.164
 6029TIP3    H118051   0.563   1.399   3.206
 6029TIP3    H218052   0.683   1.377   3.116
 6030TIP3   OH218053   7.101   2.792   0.865
 6030TIP3    H118054   7.162   2.857   0.830
 6030TIP3    H218055   7.097   2.810   0.959
 6031TIP3   OH218056   3.321   1.434   5.798
 6031TIP3    H118057   3.252   1.385   5.754
 6031TIP3    H218058   3.395   1.374   5.801
 6032TIP3   OH218059   4.718   3.862   0.646
 6032TIP3    H118060   4.810   3.882   0.658
 6032TIP3    H218061   4.686   3.842   0.734
 6033TIP3   OH218062   3.864   5.568   2.749
 6033TIP3    H118063   3.824   5.523   2.823
 6033TIP3    H218064   3.805   5.551   2.675
 6034TIP3   OH218065   3.656   0.041   3.160
 6034TIP3    H118066   3.689   0.121   3.201
 6034TIP3    H218067   3.734  -0.013   3.146
 6035TIP3   OH218068   3.521   0.577   4.955
 6035TIP3    H118069   3.518   0.651   4.895
 6035TIP3    H218070   3.524   0.500   4.898
 6036TIP3   OH218071   2.056   3.642   1.900
 6036TIP3    H118072   1.961   3.638   1.905
 6036TIP3    H218073   2.086   3.631   1.991
 6037TIP3   OH218074   5.977  -0.034   3.963
 6037TIP3    H118075   5.907   0.027   3.986
 6037TIP3    H218076   6.057   0.018   3.971
 6038TIP3   OH218077   4.288   4.278   1.912
 6038TIP3    H118078   4.361   4.331   1.944
 6038TIP3    H218079   4.210   4.332   1.929
 6039TIP3   OH218080   0.261   0.636   3.113
 6039TIP3    H118081   0.262   0.704   3.046
 6039TIP3    H218082   0.208   0.673   3.184
 6040TIP3   OH218083   0.280   5.519   1.641
 6040TIP3    H118084   0.326   5.603   1.635
 6040TIP3    H218085   0.204   5.529   1.583
 6041TIP3   OH218086   7.179   3.502   1.198
 6041TIP3    H118087   7.244   3.564   1.232
 6041TIP3    H218088   7.226   3.418   1.195
 6042TIP3   OH218089   3.850   3.440   5.553
 6042TIP3    H118090   3.796   3.412   5.627
 6042TIP3    H218091   3.812   3.523   5.525
 6043TIP3   OH218092   1.629   0.347   5.777
 6043TIP3    H118093   1.669   0.395   5.705
 6043TIP3    H218094   1.681   0.268   5.786
 6044TIP3   OH218095   5.612   6.051   4.896
 6044TIP3    H118096   5.575   6.116   4.956
 6044TIP3    H218097   5.704   6.075   4.888
 6045TIP3   OH218098   5.306   4.832   3.594
 6045TIP3    H118099   5.292   4.756   3.538
 6045TIP3    H218100   5.267   4.905   3.546
 6046TIP3   OH218101   5.780   3.845   1.272
 6046TIP3    H118102   5.850   3.896   1.312
 6046TIP3    H218103   5.793   3.756   1.306
 6047TIP3   OH218104   6.439   3.111   4.172
 6047TIP3    H118105   6.517   3.071   4.134
 6047TIP3    H218106   6.402   3.165   4.102
 6048TIP3   OH218107   0.262   2.741   1.707
 6048TIP3    H118108   0.324   2.669   1.707
 6048TIP3    H218109   0.315   2.819   1.725
 6049TIP3   OH218110   3.637   5.291   0.493
 6049TIP3    H118111   3.560   5.346   0.506
 6049TIP3    H218112   3.606   5.202   0.514
 6050TIP3   OH218113   2.540   6.273   0.242
 6050TIP3    H118114   2.588   6.263   0.160
 6050TIP3    H218115   2.525   6.183   0.272
 6051TIP3   OH218116   0.429   6.512   2.750
 6051TIP3    H118117   0.516   6.474   2.757
 6051TIP3    H218118   0.441   6.604   2.773
 6052TIP3   OH218119   0.313   0.788   0.413
 6052TIP3    H118120   0.389   0.745   0.454
 6052TIP3    H218121   0.336   0.881   0.414
 6053TIP3   OH218122   5.292   6.208   2.614
 6053TIP3    H118123   5.220   6.152   2.586
 6053TIP3    H218124   5.367   6.179   2.563
 6054TIP3   OH218125   5.124   0.754   1.447
 6054TIP3    H118126   5.072   0.712   1.516
 6054TIP3    H218127   5.206   0.778   1.491
 6055TIP3   OH218128   3.153   2.176   0.294
 6055TIP3    H118129   3.105   2.256   0.316
 6055TIP3    H218130   3.191   2.147   0.377
 6056TIP3   OH218131   1.263   4.362   2.695
 6056TIP3    H118132   1.239   4.453   2.681
 6056TIP3    H218133   1.297   4.332   2.611
 6057TIP3   OH218134   2.278   2.231   2.689
 6057TIP3    H118135   2.295   2.315   2.731
 6057TIP3    H218136   2.363   2.187   2.689
 6058TIP3   OH218137   0.299   6.622   0.379
 6058TIP3    H118138   0.328   6.638   0.289
 6058TIP3    H218139   0.254   6.538   0.374
 6059TIP3   OH218140   1.994   1.599   3.472
 6059TIP3    H118141   2.070   1.624   3.420
 6059TIP3    H218142   1.995   1.503   3.472
 6060TIP3   OH218143   4.862   3.224   1.889
 6060TIP3    H118144   4.915   3.185   1.819
 6060TIP3    H218145   4.894   3.182   1.969
 6061TIP3   OH218146   3.880   1.949   2.404
 6061TIP3    H118147   3.842   1.897   2.333
 6061TIP3    H218148   3.853   2.039   2.386
 6062TIP3   OH218149   3.498   1.053   0.011
 6062TIP3    H118150   3.407   1.080   0.018
 6062TIP3    H218151   3.501   0.968   0.055
 6063TIP3   OH218152   4.499   2.196   5.021
 6063TIP3    H118153   4.484   2.223   4.931
 6063TIP3    H218154   4.423   2.228   5.069
 6064TIP3   OH218155   2.660   2.627   1.814
 6064TIP3    H118156   2.579   2.633   1.865
 6064TIP3    H218157   2.728   2.657   1.874
 6065TIP3   OH218158   4.381   5.275   0.039
 6065TIP3    H118159   4.447   5.274  -0.031
 6065TIP3    H218160   4.375   5.367   0.065
 6066TIP3   OH218161   4.051   3.131   2.133
 6066TIP3    H118162   4.143   3.109   2.146
 6066TIP3    H218163   4.003   3.059   2.174
 6067TIP3   OH218164   1.579   0.920   3.567
 6067TIP3    H118165   1.510   0.854   3.573
 6067TIP3    H218166   1.601   0.924   3.474
 6068TIP3   OH218167   1.079   6.375   0.845
 6068TIP3    H118168   1.139   6.369   0.919
 6068TIP3    H218169   0.995   6.345   0.881
 6069TIP3   OH218170   7.204   4.994   0.479
 6069TIP3    H118171   7.210   5.065   0.415
 6069TIP3    H218172   7.159   5.034   0.554
 6070TIP3   OH218173   0.549   5.148   0.284
 6070TIP3    H118174   0.509   5.203   0.216
 6070TIP3    H218175   0.533   5.195   0.365
 6071TIP3   OH218176   1.426   6.727   0.781
 6071TIP3    H118177   1.458   6.699   0.866
 6071TIP3    H218178   1.424   6.823   0.787
 6072TIP3   OH218179   3.871   1.490   1.810
 6072TIP3    H118180   3.952   1.488   1.759
 6072TIP3    H218181   3.840   1.399   1.809
 6073TIP3   OH218182   6.317   6.386   2.333
 6073TIP3    H118183   6.244   6.324   2.327
 6073TIP3    H218184   6.367   6.357   2.409
 6074TIP3   OH218185   4.263   0.777   1.304
 6074TIP3    H118186   4.174   0.755   1.276
 6074TIP3    H218187   4.308   0.692   1.311
 6075TIP3   OH218188   2.641   1.021   0.377
 6075TIP3    H118189   2.679   1.099   0.419
 6075TIP3    H218190   2.696   1.006   0.301
 6076TIP3   OH218191   3.195   2.683   0.386
 6076TIP3    H118192   3.256   2.746   0.348
 6076TIP3    H218193   3.165   2.724   0.467
 6077TIP3   OH218194   2.787   5.047   3.337
 6077TIP3    H118195   2.734   4.967   3.333
 6077TIP3    H218196   2.877   5.017   3.321
 6078TIP3   OH218197   3.865   1.140   4.168
 6078TIP3    H118198   3.860   1.169   4.077
 6078TIP3    H218199   3.956   1.116   4.181
 6079TIP3   OH218200   2.530   4.081   0.778
 6079TIP3    H118201   2.515   3.994   0.742
 6079TIP3    H218202   2.449   4.101   0.826
 6080TIP3   OH218203   0.614   2.453   1.311
 6080TIP3    H118204   0.686   2.390   1.302
 6080TIP3    H218205   0.600   2.458   1.406
 6081TIP3   OH218206   1.687   0.635   4.819
 6081TIP3    H118207   1.677   0.677   4.733
 6081TIP3    H218208   1.599   0.639   4.858
 6082TIP3   OH218209   2.617   2.568   5.614
 6082TIP3    H118210   2.619   2.648   5.668
 6082TIP3    H218211   2.565   2.506   5.665
 6083TIP3   OH218212   1.636   3.842   5.820
 6083TIP3    H118213   1.647   3.902   5.746
 6083TIP3    H218214   1.710   3.859   5.877
 6084TIP3   OH218215   0.861   6.773   0.184
 6084TIP3    H118216   0.769   6.755   0.204
 6084TIP3    H218217   0.891   6.694   0.140
 6085TIP3   OH218218   3.489   1.587   4.685
 6085TIP3    H118219   3.465   1.509   4.736
 6085TIP3    H218220   3.406   1.632   4.670
 6086TIP3   OH218221   1.096   6.345   1.897
 6086TIP3    H118222   1.039   6.291   1.951
 6086TIP3    H218223   1.183   6.306   1.907
 6087TIP3   OH218224   5.341   6.003   1.105
 6087TIP3    H118225   5.322   5.954   1.186
 6087TIP3    H218226   5.405   5.949   1.059
 6088TIP3   OH218227   4.258   4.995   1.744
 6088TIP3    H118228   4.321   4.997   1.673
 6088TIP3    H218229   4.244   4.901   1.761
 6089TIP3   OH218230   0.306   3.297   4.880
 6089TIP3    H118231   0.233   3.235   4.883
 6089TIP3    H218232   0.383   3.246   4.905
 6090TIP3   OH218233   0.927   4.698   4.246
 6090TIP3    H118234   0.954   4.740   4.164
 6090TIP3    H218235   0.977   4.617   4.249
 6091TIP3   OH218236   6.827   2.114   4.718
 6091TIP3    H118237   6.805   2.033   4.672
 6091TIP3    H218238   6.923   2.117   4.718
 6092TIP3   OH218239   5.248   2.017   2.631
 6092TIP3    H118240   5.248   2.044   2.723
 6092TIP3    H218241   5.315   1.949   2.626
 6093TIP3   OH218242   3.679   5.012   0.015
 6093TIP3    H118243   3.707   5.084  -0.042
 6093TIP3    H218244   3.705   5.040   0.103
 6094TIP3   OH218245   4.166   3.698   2.958
 6094TIP3    H118246   4.223   3.668   2.887
 6094TIP3    H218247   4.086   3.648   2.947
 6095TIP3   OH218248   2.073   5.551   5.592
 6095TIP3    H118249   2.106   5.490   5.526
 6095TIP3    H218250   1.985   5.520   5.611
 6096TIP3   OH218251   2.980   4.408   3.507
 6096TIP3    H118252   3.036   4.422   3.583
 6096TIP3    H218253   3.037   4.422   3.432
 6097TIP3   OH218254   5.148   3.723   0.589
 6097TIP3    H118255   5.216   3.687   0.646
 6097TIP3    H218256   5.124   3.650   0.531
 6098TIP3   OH218257   5.842   5.307   3.900
 6098TIP3    H118258   5.822   5.396   3.929
 6098TIP3    H218259   5.878   5.318   3.812
 6099TIP3   OH218260   1.670   3.627   2.627
 6099TIP3    H118261   1.733   3.624   2.700
 6099TIP3    H218262   1.587   3.600   2.666
 6100TIP3   OH218263   1.264   3.050   1.586
 6100TIP3    H118264   1.230   3.010   1.506
 6100TIP3    H218265   1.249   3.144   1.575
 6101TIP3   OH218266   1.216   5.294   1.816
 6101TIP3    H118267   1.147   5.358   1.833
 6101TIP3    H218268   1.226   5.246   1.898
 6102TIP3   OH218269   5.076   0.080   3.454
 6102TIP3    H118270   4.992   0.048   3.420
 6102TIP3    H218271   5.133   0.003   3.453
 6103TIP3   OH218272   3.177   2.938   4.117
 6103TIP3    H118273   3.174   2.862   4.059
 6103TIP3    H218274   3.137   3.008   4.067
 6104TIP3   OH218275   6.569   1.577   1.486
 6104TIP3    H118276   6.530   1.496   1.454
 6104TIP3    H218277   6.563   1.572   1.581
 6105TIP3   OH218278   2.127   2.200   3.186
 6105TIP3    H118279   2.115   2.176   3.094
 6105TIP3    H218280   2.043   2.179   3.227
 6106TIP3   OH218281   0.707   5.453   2.345
 6106TIP3    H118282   0.776   5.391   2.322
 6106TIP3    H218283   0.680   5.427   2.433
 6107TIP3   OH218284   4.324   5.544   2.692
 6107TIP3    H118285   4.273   5.623   2.707
 6107TIP3    H218286   4.344   5.545   2.598
 6108TIP3   OH218287   0.832   0.396   0.413
 6108TIP3    H118288   0.789   0.459   0.355
 6108TIP3    H218289   0.765   0.375   0.478
 6109TIP3   OH218290   5.727   4.898   3.937
 6109TIP3    H118291   5.711   4.827   3.876
 6109TIP3    H218292   5.649   4.954   3.930
 6110TIP3   OH218293   1.419   6.354   1.579
 6110TIP3    H118294   1.441   6.435   1.625
 6110TIP3    H218295   1.477   6.352   1.503
 6111TIP3   OH218296   2.099   5.021   1.279
 6111TIP3    H118297   2.059   4.937   1.300
 6111TIP3    H218298   2.069   5.080   1.349
 6112TIP3   OH218299   2.179   3.384   4.117
 6112TIP3    H118300   2.223   3.348   4.040
 6112TIP3    H218301   2.237   3.455   4.146
 6113TIP3   OH218302   2.228   5.789   0.392
 6113TIP3    H118303   2.281   5.750   0.322
 6113TIP3    H218304   2.242   5.731   0.467
 6114TIP3   OH218305   2.266   4.860   5.425
 6114TIP3    H118306   2.353   4.835   5.456
 6114TIP3    H218307   2.252   4.947   5.463
 6115TIP3   OH218308   1.806   3.565   1.918
 6115TIP3    H118309   1.717   3.531   1.917
 6115TIP3    H218310   1.797   3.658   1.897
 6116TIP3   OH218311   5.198   5.137   0.412
 6116TIP3    H118312   5.241   5.189   0.481
 6116TIP3    H218313   5.111   5.119   0.447
 6117TIP3   OH218314   6.315   2.753   4.256
 6117TIP3    H118315   6.384   2.708   4.305
 6117TIP3    H218316   6.261   2.795   4.323
 6118TIP3   OH218317   1.548   2.197   4.817
 6118TIP3    H118318   1.521   2.288   4.804
 6118TIP3    H218319   1.633   2.191   4.775
 6119TIP3   OH218320  -0.045   3.798   0.945
 6119TIP3    H118321  -0.134   3.810   0.911
 6119TIP3    H218322   0.012   3.813   0.870
 6120TIP3   OH218323   2.457   1.585   1.451
 6120TIP3    H118324   2.414   1.661   1.413
 6120TIP3    H218325   2.403   1.562   1.526
 6121TIP3   OH218326   0.926   2.018   1.246
 6121TIP3    H118327   0.995   1.996   1.184
 6121TIP3    H218328   0.860   1.950   1.233
 6122TIP3   OH218329   1.945   1.323   4.660
 6122TIP3    H118330   1.968   1.396   4.602
 6122TIP3    H218331   1.860   1.294   4.629
 6123TIP3   OH218332   7.012   6.755   0.573
 6123TIP3    H118333   6.938   6.746   0.633
 6123TIP3    H218334   6.981   6.717   0.491
 6124TIP3   OH218335   1.177   5.478   5.192
 6124TIP3    H118336   1.165   5.514   5.103
 6124TIP3    H218337   1.255   5.524   5.225
 6125TIP3   OH218338   3.084   5.679   5.116
 6125TIP3    H118339   3.044   5.718   5.038
 6125TIP3    H218340   3.050   5.589   5.118
 6126TIP3   OH218341   5.166   3.191   0.037
 6126TIP3    H118342   5.076   3.160   0.030
 6126TIP3    H218343   5.181   3.243  -0.042
 6127TIP3   OH218344   5.592   3.288   0.228
 6127TIP3    H118345   5.633   3.224   0.170
 6127TIP3    H218346   5.619   3.373   0.193
 6128TIP3   OH218347   4.404   3.552   4.315
 6128TIP3    H118348   4.448   3.471   4.339
 6128TIP3    H218349   4.424   3.613   4.386
 6129TIP3   OH218350   4.365   0.310   2.016
 6129TIP3    H118351   4.391   0.275   2.101
 6129TIP3    H218352   4.418   0.389   2.006
 6130TIP3   OH218353   3.448   1.430   4.425
 6130TIP3    H118354   3.526   1.375   4.415
 6130TIP3    H218355   3.446   1.453   4.518
 6131TIP3   OH218356   3.837   3.330   2.490
 6131TIP3    H118357   3.816   3.241   2.520
 6131TIP3    H218358   3.843   3.381   2.571
 6132TIP3   OH218359   5.123   6.521   3.828
 6132TIP3    H118360   5.078   6.437   3.839
 6132TIP3    H218361   5.196   6.501   3.769
 6133TIP3   OH218362   0.887   5.862   0.425
 6133TIP3    H118363   0.879   5.895   0.336
 6133TIP3    H218364   0.799   5.869   0.461
 6134TIP3   OH218365   3.349   0.263   1.557
 6134TIP3    H118366   3.377   0.248   1.647
 6134TIP3    H218367   3.272   0.320   1.565
 6135TIP3   OH218368   6.037   1.721   1.071
 6135TIP3    H118369   6.011   1.663   0.999
 6135TIP3    H218370   6.122   1.756   1.044
 6136TIP3   OH218371   5.386   5.348   5.149
 6136TIP3    H118372   5.469   5.301   5.153
 6136TIP3    H218373   5.368   5.357   5.056
 6137TIP3   OH218374   6.716   5.409   2.424
 6137TIP3    H118375   6.629   5.396   2.386
 6137TIP3    H218376   6.777   5.388   2.354
 6138TIP3   OH218377   1.377   3.244   2.504
 6138TIP3    H118378   1.411   3.328   2.474
 6138TIP3    H218379   1.353   3.198   2.423
 6139TIP3   OH218380   5.193   3.815   3.754
 6139TIP3    H118381   5.164   3.738   3.804
 6139TIP3    H218382   5.273   3.786   3.710
 6140TIP3   OH218383   3.735   6.258   1.239
 6140TIP3    H118384   3.669   6.211   1.290
 6140TIP3    H218385   3.755   6.336   1.290
 6141TIP3   OH218386   2.309   4.912   4.777
 6141TIP3    H118387   2.399   4.889   4.797
 6141TIP3    H218388   2.313   5.003   4.750
 6142TIP3   OH218389   2.054   5.443   3.187
 6142TIP3    H118390   2.090   5.505   3.124
 6142TIP3    H218391   2.088   5.358   3.160
 6143TIP3   OH218392   2.513   3.472   5.463
 6143TIP3    H118393   2.424   3.487   5.433
 6143TIP3    H218394   2.545   3.399   5.409
 6144TIP3   OH218395   1.274   5.217   0.696
 6144TIP3    H118396   1.344   5.281   0.700
 6144TIP3    H218397   1.203   5.262   0.650
 6145TIP3   OH218398   6.829   2.892   1.291
 6145TIP3    H118399   6.823   2.837   1.369
 6145TIP3    H218400   6.791   2.976   1.317
 6146TIP3   OH218401   6.231   3.632   4.906
 6146TIP3    H118402   6.232   3.697   4.976
 6146TIP3    H218403   6.142   3.597   4.907
 6147TIP3   OH218404   6.272   1.661   5.686
 6147TIP3    H118405   6.304   1.726   5.623
 6147TIP3    H218406   6.252   1.712   5.765
 6148TIP3   OH218407   4.511   4.704   1.064
 6148TIP3    H118408   4.515   4.610   1.049
 6148TIP3    H218409   4.419   4.721   1.087
 6149TIP3   OH218410   0.261   2.416   2.744
 6149TIP3    H118411   0.291   2.489   2.689
 6149TIP3    H218412   0.197   2.455   2.803
 6150TIP3   OH218413   4.212   6.279   3.179
 6150TIP3    H118414   4.247   6.229   3.253
 6150TIP3    H218415   4.127   6.309   3.209
 6151TIP3   OH218416   5.482   2.549   0.798
 6151TIP3    H118417   5.428   2.550   0.877
 6151TIP3    H218418   5.545   2.620   0.811
 6152TIP3   OH218419   0.446   1.983   3.522
 6152TIP3    H118420   0.519   1.923   3.538
 6152TIP3    H218421   0.392   1.976   3.601
 6153TIP3   OH218422   0.761   4.281   1.637
 6153TIP3    H118423   0.737   4.284   1.544
 6153TIP3    H218424   0.801   4.195   1.650
 6154TIP3   OH218425   1.693   2.923   1.705
 6154TIP3    H118426   1.650   2.958   1.783
 6154TIP3    H218427   1.622   2.891   1.650
 6155TIP3   OH218428   3.683   0.101   3.439
 6155TIP3    H118429   3.633   0.019   3.441
 6155TIP3    H218430   3.772   0.074   3.462
 6156TIP3   OH218431   6.306   3.999   3.119
 6156TIP3    H118432   6.316   4.078   3.067
 6156TIP3    H218433   6.240   4.022   3.185
 6157TIP3   OH218434   3.355   5.024   2.309
 6157TIP3    H118435   3.418   5.072   2.256
 6157TIP3    H218436   3.273   5.027   2.259
 6158TIP3   OH218437   5.444   0.314   5.908
 6158TIP3    H118438   5.402   0.363   5.837
 6158TIP3    H218439   5.514   0.266   5.865
 6159TIP3   OH218440   0.810   0.926   0.003
 6159TIP3    H118441   0.838   0.936  -0.088
 6159TIP3    H218442   0.856   0.995   0.051
 6160TIP3   OH218443   4.809   3.566   2.161
 6160TIP3    H118444   4.882   3.506   2.151
 6160TIP3    H218445   4.811   3.592   2.253
 6161TIP3   OH218446   3.235   0.987   4.186
 6161TIP3    H118447   3.277   1.073   4.181
 6161TIP3    H218448   3.143   1.004   4.166
 6162TIP3   OH218449   5.846   0.261   5.481
 6162TIP3    H118450   5.927   0.296   5.445
 6162TIP3    H218451   5.864   0.168   5.494
 6163TIP3   OH218452   1.848   1.452   1.281
 6163TIP3    H118453   1.848   1.541   1.246
 6163TIP3    H218454   1.780   1.453   1.348
 6164TIP3   OH218455   6.449   1.332   1.440
 6164TIP3    H118456   6.467   1.238   1.439
 6164TIP3    H218457   6.399   1.348   1.361
 6165TIP3   OH218458   2.309   3.004   5.734
 6165TIP3    H118459   2.403   2.998   5.750
 6165TIP3    H218460   2.270   2.943   5.796
 6166TIP3   OH218461   6.322   1.156   3.867
 6166TIP3    H118462   6.395   1.214   3.845
 6166TIP3    H218463   6.283   1.134   3.783
 6167TIP3   OH218464   3.529   3.843   2.802
 6167TIP3    H118465   3.616   3.848   2.842
 6167TIP3    H218466   3.519   3.926   2.756
 6168TIP3   OH218467   0.423   2.218   0.132
 6168TIP3    H118468   0.369   2.287   0.094
 6168TIP3    H218469   0.410   2.226   0.227
 6169TIP3   OH218470   0.491   2.653   4.462
 6169TIP3    H118471   0.557   2.676   4.528
 6169TIP3    H218472   0.454   2.570   4.493
 6170TIP3   OH218473   6.318   4.815   3.722
 6170TIP3    H118474   6.384   4.789   3.785
 6170TIP3    H218475   6.354   4.790   3.637
 6171TIP3   OH218476   5.364   5.425   0.950
 6171TIP3    H118477   5.452   5.439   0.984
 6171TIP3    H218478   5.371   5.440   0.856
 6172TIP3   OH218479   2.992   6.511   1.905
 6172TIP3    H118480   3.043   6.434   1.878
 6172TIP3    H218481   3.025   6.531   1.993
 6173TIP3   OH218482   3.407   5.465   2.603
 6173TIP3    H118483   3.322   5.496   2.633
 6173TIP3    H218484   3.389   5.379   2.564
 6174TIP3   OH218485   6.051   1.884   4.245
 6174TIP3    H118486   5.998   1.879   4.324
 6174TIP3    H218487   6.116   1.815   4.255
 6175TIP3   OH218488   3.371   1.727   2.693
 6175TIP3    H118489   3.416   1.797   2.741
 6175TIP3    H218490   3.439   1.691   2.635
 6176TIP3   OH218491   3.242   3.650   3.975
 6176TIP3    H118492   3.213   3.616   4.060
 6176TIP3    H218493   3.231   3.745   3.983
 6177TIP3   OH218494   5.733   3.753   1.955
 6177TIP3    H118495   5.710   3.761   1.862
 6177TIP3    H218496   5.821   3.788   1.961
 6178TIP3   OH218497   6.689   2.365   1.257
 6178TIP3    H118498   6.754   2.366   1.328
 6178TIP3    H218499   6.621   2.426   1.286
 6179TIP3   OH218500   5.914   1.172   4.483
 6179TIP3    H118501   5.977   1.182   4.412
 6179TIP3    H218502   5.832   1.150   4.440
 6180TIP3   OH218503   4.743   6.054   4.973
 6180TIP3    H118504   4.808   6.004   5.022
 6180TIP3    H218505   4.670   5.992   4.960
 6181TIP3   OH218506   3.880   5.934   3.225
 6181TIP3    H118507   3.819   5.883   3.279
 6181TIP3    H218508   3.930   5.986   3.288
 6182TIP3   OH218509   4.482   5.673   0.594
 6182TIP3    H118510   4.478   5.752   0.541
 6182TIP3    H218511   4.574   5.648   0.592
 6183TIP3   OH218512   6.582   4.928   0.648
 6183TIP3    H118513   6.596   4.849   0.701
 6183TIP3    H218514   6.626   4.909   0.565
 6184TIP3   OH218515   2.447   4.083   5.500
 6184TIP3    H118516   2.386   4.136   5.448
 6184TIP3    H218517   2.533   4.119   5.479
 6185TIP3   OH218518   3.343   1.363   3.441
 6185TIP3    H118519   3.328   1.342   3.533
 6185TIP3    H218520   3.386   1.448   3.442
 6186TIP3   OH218521   3.161   2.970   4.725
 6186TIP3    H118522   3.122   2.974   4.812
 6186TIP3    H218523   3.227   3.039   4.725
 6187TIP3   OH218524   3.315   2.325   2.254
 6187TIP3    H118525   3.277   2.276   2.181
 6187TIP3    H218526   3.358   2.400   2.212
 6188TIP3   OH218527   2.157   1.615   0.796
 6188TIP3    H118528   2.146   1.523   0.769
 6188TIP3    H218529   2.072   1.655   0.779
 6189TIP3   OH218530   3.031   5.812   4.007
 6189TIP3    H118531   3.055   5.803   4.099
 6189TIP3    H218532   2.950   5.761   3.999
 6190TIP3   OH218533   3.309   6.367   1.564
 6190TIP3    H118534   3.280   6.441   1.510
 6190TIP3    H218535   3.388   6.400   1.607
 6191TIP3   OH218536   2.177   2.513   1.985
 6191TIP3    H118537   2.083   2.534   1.988
 6191TIP3    H218538   2.204   2.536   1.896
 6192TIP3   OH218539   5.510   4.711   1.134
 6192TIP3    H118540   5.490   4.626   1.095
 6192TIP3    H218541   5.598   4.732   1.103
 6193TIP3   OH218542   0.844   3.379   2.462
 6193TIP3    H118543   0.806   3.292   2.449
 6193TIP3    H218544   0.868   3.381   2.555
 6194TIP3   OH218545   5.538   3.835   5.577
 6194TIP3    H118546   5.563   3.808   5.489
 6194TIP3    H218547   5.460   3.889   5.565
 6195TIP3   OH218548   2.438   3.986   2.997
 6195TIP3    H118549   2.395   4.071   2.983
 6195TIP3    H218550   2.383   3.923   2.951
 6196TIP3   OH218551   3.676   6.338   0.446
 6196TIP3    H118552   3.735   6.408   0.476
 6196TIP3    H218553   3.596   6.384   0.421
 6197TIP3   OH218554   1.553   2.793   4.239
 6197TIP3    H118555   1.595   2.863   4.289
 6197TIP3    H218556   1.617   2.722   4.239
 6198TIP3   OH218557   0.741   5.897   3.526
 6198TIP3    H118558   0.805   5.825   3.526
 6198TIP3    H218559   0.656   5.853   3.526
 6199TIP3   OH218560   7.058   4.661   0.849
 6199TIP3    H118561   7.039   4.652   0.942
 6199TIP3    H218562   7.079   4.572   0.820
 6200TIP3   OH218563   6.602   5.929   2.247
 6200TIP3    H118564   6.559   5.848   2.218
 6200TIP3    H218565   6.599   5.986   2.170
 6201TIP3   OH218566   6.545   2.433   1.961
 6201TIP3    H118567   6.638   2.428   1.982
 6201TIP3    H218568   6.503   2.375   2.025
 6202TIP3   OH218569   6.793   5.689   2.824
 6202TIP3    H118570   6.864   5.634   2.790
 6202TIP3    H218571   6.714   5.656   2.779
 6203TIP3   OH218572   4.642   6.489   2.617
 6203TIP3    H118573   4.593   6.515   2.695
 6203TIP3    H218574   4.629   6.394   2.612
 6204TIP3   OH218575   6.120   6.216   0.538
 6204TIP3    H118576   6.111   6.309   0.517
 6204TIP3    H218577   6.126   6.214   0.633
 6205TIP3   OH218578   3.270   5.639   4.372
 6205TIP3    H118579   3.318   5.621   4.453
 6205TIP3    H218580   3.338   5.664   4.310
 6206TIP3   OH218581   6.140   4.450   2.912
 6206TIP3    H118582   6.117   4.428   3.002
 6206TIP3    H218583   6.127   4.544   2.906
 6207TIP3   OH218584   5.156   5.511   3.464
 6207TIP3    H118585   5.070   5.479   3.491
 6207TIP3    H218586   5.202   5.530   3.546
 6208TIP3   OH218587   4.821   1.302   0.927
 6208TIP3    H118588   4.817   1.258   1.012
 6208TIP3    H218589   4.913   1.328   0.919
 6209TIP3   OH218590   1.439   3.862   1.774
 6209TIP3    H118591   1.477   3.933   1.826
 6209TIP3    H218592   1.345   3.880   1.773
 6210TIP3   OH218593   2.362   4.501   2.077
 6210TIP3    H118594   2.335   4.556   2.004
 6210TIP3    H218595   2.430   4.444   2.042
 6211TIP3   OH218596   6.110   0.737   1.424
 6211TIP3    H118597   6.096   0.642   1.419
 6211TIP3    H218598   6.119   0.754   1.518
 6212TIP3   OH218599   5.954   2.490   4.925
 6212TIP3    H118600   5.991   2.404   4.943
 6212TIP3    H218601   6.021   2.551   4.954
 6213TIP3   OH218602   4.947   2.246   5.015
 6213TIP3    H118603   4.873   2.196   5.049
 6213TIP3    H218604   4.941   2.236   4.920
 6214TIP3   OH218605   0.229   4.920   3.439
 6214TIP3    H118606   0.189   4.839   3.407
 6214TIP3    H218607   0.181   4.989   3.393
 6215TIP3   OH218608   7.153   3.309   2.810
 6215TIP3    H118609   7.154   3.232   2.867
 6215TIP3    H218610   7.173   3.382   2.868
 6216TIP3   OH218611   4.449   4.584   5.082
 6216TIP3    H118612   4.508   4.651   5.047
 6216TIP3    H218613   4.419   4.620   5.165
 6217TIP3   OH218614   1.704   4.924   2.437
 6217TIP3    H118615   1.781   4.939   2.492
 6217TIP3    H218616   1.671   4.839   2.466
 6218TIP3   OH218617   2.600   2.367   1.376
 6218TIP3    H118618   2.656   2.439   1.347
 6218TIP3    H218619   2.659   2.306   1.420
 6219TIP3   OH218620   5.769   1.047   1.780
 6219TIP3    H118621   5.759   0.962   1.823
 6219TIP3    H218622   5.820   1.100   1.841
 6220TIP3   OH218623   1.116   4.951   1.406
 6220TIP3    H118624   1.204   4.978   1.382
 6220TIP3    H218625   1.118   4.855   1.401
 6221TIP3   OH218626   2.062   4.490   0.468
 6221TIP3    H118627   2.009   4.438   0.409
 6221TIP3    H218628   2.125   4.428   0.506
 6222TIP3   OH218629   4.664   3.025   4.830
 6222TIP3    H118630   4.619   3.055   4.751
 6222TIP3    H218631   4.621   2.943   4.852
 6223TIP3   OH218632   2.723   5.797   0.121
 6223TIP3    H118633   2.669   5.853   0.065
 6223TIP3    H218634   2.811   5.833   0.114
 6224TIP3   OH218635   2.506   0.626   5.661
 6224TIP3    H118636   2.585   0.613   5.609
 6224TIP3    H218637   2.532   0.609   5.751
 6225TIP3   OH218638   0.837   6.516   4.279
 6225TIP3    H118639   0.781   6.446   4.245
 6225TIP3    H218640   0.845   6.498   4.372
 6226TIP3   OH218641   2.318   0.113   1.992
 6226TIP3    H118642   2.245   0.119   1.931
 6226TIP3    H218643   2.324   0.020   2.014
 6227TIP3   OH218644   1.406   1.121   3.935
 6227TIP3    H118645   1.388   1.046   3.878
 6227TIP3    H218646   1.479   1.167   3.894
 6228TIP3   OH218647   4.173   6.549   5.482
 6228TIP3    H118648   4.179   6.454   5.472
 6228TIP3    H218649   4.128   6.562   5.565
 6229TIP3   OH218650   0.171   0.638   0.594
 6229TIP3    H118651   0.230   0.703   0.557
 6229TIP3    H218652   0.224   0.591   0.658
 6230TIP3   OH218653   4.977   1.549   4.644
 6230TIP3    H118654   5.037   1.477   4.662
 6230TIP3    H218655   5.026   1.628   4.666
 6231TIP3   OH218656   7.055   3.593   4.610
 6231TIP3    H118657   7.116   3.576   4.538
 6231TIP3    H218658   7.034   3.686   4.602
 6232TIP3   OH218659   1.000   2.802   0.866
 6232TIP3    H118660   0.929   2.758   0.912
 6232TIP3    H218661   1.031   2.738   0.802
 6233TIP3   OH218662   1.780   3.762   3.809
 6233TIP3    H118663   1.835   3.817   3.753
 6233TIP3    H218664   1.734   3.823   3.866
 6234TIP3   OH218665   6.197   3.502   2.544
 6234TIP3    H118666   6.227   3.426   2.594
 6234TIP3    H218667   6.187   3.572   2.609
 6235TIP3   OH218668   4.480   5.943   2.286
 6235TIP3    H118669   4.566   5.986   2.279
 6235TIP3    H218670   4.499   5.850   2.275
 6236TIP3   OH218671   4.479   4.754   0.398
 6236TIP3    H118672   4.422   4.814   0.350
 6236TIP3    H218673   4.555   4.807   0.422
 6237TIP3   OH218674   4.394   2.429   2.615
 6237TIP3    H118675   4.472   2.386   2.581
 6237TIP3    H218676   4.408   2.431   2.710
 6238TIP3   OH218677   3.046   4.148   1.284
 6238TIP3    H118678   3.089   4.093   1.219
 6238TIP3    H218679   2.970   4.098   1.313
 6239TIP3   OH218680   6.706   1.848   1.022
 6239TIP3    H118681   6.682   1.764   1.061
 6239TIP3    H218682   6.638   1.866   0.958
 6240TIP3   OH218683   7.038   0.979   0.609
 6240TIP3    H118684   7.072   0.890   0.620
 6240TIP3    H218685   7.064   1.004   0.520
 6241TIP3   OH218686   3.390   5.993   2.977
 6241TIP3    H118687   3.440   5.923   3.018
 6241TIP3    H218688   3.456   6.053   2.942
 6242TIP3   OH218689   4.749   1.016   2.632
 6242TIP3    H118690   4.757   1.000   2.726
 6242TIP3    H218691   4.758   1.111   2.624
 6243TIP3   OH218692   6.854   4.393   0.782
 6243TIP3    H118693   6.939   4.376   0.741
 6243TIP3    H218694   6.866   4.368   0.873
 6244TIP3   OH218695   5.472   5.753   0.095
 6244TIP3    H118696   5.428   5.675   0.129
 6244TIP3    H218697   5.487   5.733   0.003
 6245TIP3   OH218698   5.321   6.492   2.620
 6245TIP3    H118699   5.249   6.523   2.675
 6245TIP3    H218700   5.295   6.403   2.595
 6246TIP3   OH218701   5.773   4.272   3.632
 6246TIP3    H118702   5.680   4.267   3.613
 6246TIP3    H218703   5.788   4.364   3.654
 6247TIP3   OH218704   3.418   0.033   3.578
 6247TIP3    H118705   3.402   0.052   3.670
 6247TIP3    H218706   3.437  -0.061   3.576
 6248TIP3   OH218707   0.088   1.305   4.176
 6248TIP3    H118708   0.051   1.386   4.142
 6248TIP3    H218709   0.178   1.328   4.199
 6249TIP3   OH218710   1.592   0.780   2.388
 6249TIP3    H118711   1.540   0.710   2.349
 6249TIP3    H218712   1.671   0.784   2.334
 6250TIP3   OH218713   5.798   5.101   1.853
 6250TIP3    H118714   5.828   5.034   1.792
 6250TIP3    H218715   5.842   5.081   1.935
 6251TIP3   OH218716   3.947   6.154   4.395
 6251TIP3    H118717   3.852   6.146   4.404
 6251TIP3    H218718   3.972   6.078   4.342
 6252TIP3   OH218719   6.683   3.355   1.319
 6252TIP3    H118720   6.739   3.403   1.258
 6252TIP3    H218721   6.632   3.296   1.264
 6253TIP3   OH218722   3.883   6.439   1.454
 6253TIP3    H118723   3.892   6.458   1.547
 6253TIP3    H218724   3.871   6.524   1.412
 6254TIP3   OH218725   2.880   1.894   1.366
 6254TIP3    H118726   2.826   1.815   1.360
 6254TIP3    H218727   2.924   1.887   1.450
 6255TIP3   OH218728  -0.035   3.602   2.725
 6255TIP3    H118729   0.042   3.628   2.675
 6255TIP3    H218730  -0.080   3.684   2.746
 6256TIP3   OH218731   4.768   3.064   5.230
 6256TIP3    H118732   4.680   3.048   5.196
 6256TIP3    H218733   4.817   2.985   5.206
 6257TIP3   OH218734   2.147   5.382   2.873
 6257TIP3    H118735   2.155   5.314   2.806
 6257TIP3    H218736   2.157   5.464   2.825
 6258TIP3   OH218737   3.502   2.076   2.246
 6258TIP3    H118738   3.576   2.136   2.248
 6258TIP3    H218739   3.436   2.121   2.194
 6259TIP3   OH218740   5.983   0.707   4.086
 6259TIP3    H118741   6.002   0.799   4.102
 6259TIP3    H218742   6.068   0.669   4.062
 6260TIP3   OH218743   0.480   1.955   4.502
 6260TIP3    H118744   0.476   2.024   4.437
 6260TIP3    H218745   0.547   1.895   4.470
 6261TIP3   OH218746   1.649   3.922   2.826
 6261TIP3    H118747   1.582   3.933   2.759
 6261TIP3    H218748   1.729   3.904   2.776
 6262TIP3   OH218749   6.857   3.423   0.793
 6262TIP3    H118750   6.780   3.421   0.851
 6262TIP3    H218751   6.931   3.432   0.853
 6263TIP3   OH218752   4.007   5.715   4.018
 6263TIP3    H118753   4.032   5.801   4.050
 6263TIP3    H218754   3.914   5.725   3.996
 6264TIP3   OH218755   3.882   5.251   2.156
 6264TIP3    H118756   3.933   5.270   2.235
 6264TIP3    H218757   3.853   5.160   2.168
 6265TIP3   OH218758   3.504   5.621   1.406
 6265TIP3    H118759   3.504   5.674   1.486
 6265TIP3    H218760   3.465   5.538   1.433
 6266TIP3   OH218761   1.316   5.722   4.265
 6266TIP3    H118762   1.360   5.736   4.181
 6266TIP3    H218763   1.358   5.644   4.301
 6267TIP3   OH218764   6.117   0.710   1.020
 6267TIP3    H118765   6.030   0.688   1.051
 6267TIP3    H218766   6.142   0.788   1.070
 6268TIP3   OH218767   2.532   0.043   3.848
 6268TIP3    H118768   2.570   0.026   3.762
 6268TIP3    H218769   2.463   0.108   3.831
 6269TIP3   OH218770   6.926   0.140   5.466
 6269TIP3    H118771   6.897   0.197   5.394
 6269TIP3    H218772   6.888   0.054   5.445
 6270TIP3   OH218773   3.981   4.547   5.844
 6270TIP3    H118774   3.996   4.633   5.884
 6270TIP3    H218775   3.931   4.499   5.910
 6271TIP3   OH218776   6.464   0.864   4.915
 6271TIP3    H118777   6.408   0.849   4.839
 6271TIP3    H218778   6.425   0.810   4.984
 6272TIP3   OH218779   2.134   6.138   1.137
 6272TIP3    H118780   2.132   6.088   1.219
 6272TIP3    H218781   2.205   6.099   1.087
 6273TIP3   OH218782   4.702   0.013   0.076
 6273TIP3    H118783   4.789   0.033   0.043
 6273TIP3    H218784   4.675  -0.065   0.028
 6274TIP3   OH218785   1.925   3.678   4.587
 6274TIP3    H118786   1.936   3.715   4.499
 6274TIP3    H218787   2.014   3.660   4.617
 6275TIP3   OH218788   2.749   0.872   5.782
 6275TIP3    H118789   2.676   0.911   5.733
 6275TIP3    H218790   2.708   0.836   5.860
 6276TIP3   OH218791   1.928   1.729   2.492
 6276TIP3    H118792   1.999   1.668   2.509
 6276TIP3    H218793   1.848   1.678   2.505
 6277TIP3   OH218794   1.303   2.842   0.877
 6277TIP3    H118795   1.351   2.924   0.876
 6277TIP3    H218796   1.210   2.868   0.873
 6278TIP3   OH218797   2.896   3.221   5.102
 6278TIP3    H118798   2.923   3.259   5.186
 6278TIP3    H218799   2.971   3.168   5.075
 6279TIP3   OH218800   4.379   5.319   2.206
 6279TIP3    H118801   4.379   5.242   2.149
 6279TIP3    H218802   4.447   5.301   2.271
 6280TIP3   OH218803   2.811   0.994   4.972
 6280TIP3    H118804   2.837   0.926   4.910
 6280TIP3    H218805   2.811   1.074   4.920
 6281TIP3   OH218806   3.261   4.003   1.187
 6281TIP3    H118807   3.343   3.991   1.140
 6281TIP3    H218808   3.258   3.932   1.251
 6282TIP3   OH218809   2.939   2.903   3.494
 6282TIP3    H118810   2.948   2.891   3.588
 6282TIP3    H218811   2.846   2.919   3.480
 6283TIP3   OH218812   2.088   5.610   2.744
 6283TIP3    H118813   2.130   5.646   2.666
 6283TIP3    H218814   1.996   5.632   2.733
 6284TIP3   OH218815   2.559   5.508   0.105
 6284TIP3    H118816   2.559   5.456   0.025
 6284TIP3    H218817   2.509   5.587   0.082
 6285TIP3   OH218818   3.446   0.140   1.044
 6285TIP3    H118819   3.507   0.069   1.065
 6285TIP3    H218820   3.436   0.188   1.127
 6286TIP3   OH218821   6.587   0.912   1.625
 6286TIP3    H118822   6.579   0.990   1.680
 6286TIP3    H218823   6.584   0.945   1.535
 6287TIP3   OH218824   0.579   5.855   5.680
 6287TIP3    H118825   0.598   5.888   5.592
 6287TIP3    H218826   0.510   5.791   5.667
 6288TIP3   OH218827   0.610   1.134   1.505
 6288TIP3    H118828   0.538   1.096   1.554
 6288TIP3    H218829   0.686   1.128   1.564
 6289TIP3   OH218830   0.445   6.426   1.291
 6289TIP3    H118831   0.435   6.408   1.385
 6289TIP3    H218832   0.525   6.478   1.285
 6290TIP3   OH218833   6.737   3.044   0.062
 6290TIP3    H118834   6.666   3.053  -0.001
 6290TIP3    H218835   6.778   3.130   0.065
 6291TIP3   OH218836   4.517   6.011   1.127
 6291TIP3    H118837   4.467   6.012   1.209
 6291TIP3    H218838   4.451   6.005   1.059
 6292TIP3   OH218839   6.529   5.971   5.724
 6292TIP3    H118840   6.525   5.907   5.794
 6292TIP3    H218841   6.446   5.961   5.677
 6293TIP3   OH218842   3.856   4.566   4.008
 6293TIP3    H118843   3.864   4.472   4.025
 6293TIP3    H218844   3.821   4.602   4.089
 6294TIP3   OH218845   1.990   0.373   1.690
 6294TIP3    H118846   1.960   0.337   1.607
 6294TIP3    H218847   2.083   0.393   1.676
 6295TIP3   OH218848   4.492   2.789   1.055
 6295TIP3    H118849   4.442   2.857   1.101
 6295TIP3    H218850   4.506   2.722   1.122
 6296TIP3   OH218851   1.657   5.805   0.060
 6296TIP3    H118852   1.717   5.733   0.080
 6296TIP3    H218853   1.705   5.859  -0.002
 6297TIP3   OH218854   4.095   0.639   3.489
 6297TIP3    H118855   4.119   0.598   3.405
 6297TIP3    H218856   4.027   0.703   3.466
 6298TIP3   OH218857   0.070   3.789   4.212
 6298TIP3    H118858  -0.003   3.771   4.154
 6298TIP3    H218859   0.137   3.828   4.155
 6299TIP3   OH218860   2.338   2.979   1.442
 6299TIP3    H118861   2.308   2.973   1.351
 6299TIP3    H218862   2.433   2.970   1.437
 6300TIP3   OH218863   5.909   3.141   5.242
 6300TIP3    H118864   5.849   3.108   5.309
 6300TIP3    H218865   5.995   3.140   5.284
 6301TIP3   OH218866   0.623   4.144   0.885
 6301TIP3    H118867   0.665   4.084   0.823
 6301TIP3    H218868   0.623   4.097   0.968
 6302TIP3   OH218869   2.010   5.717   1.180
 6302TIP3    H118870   2.012   5.677   1.093
 6302TIP3    H218871   1.952   5.792   1.170
 6303TIP3   OH218872   3.631   1.544   2.921
 6303TIP3    H118873   3.553   1.527   2.974
 6303TIP3    H218874   3.599   1.539   2.830
 6304TIP3   OH218875   1.981   3.622   1.062
 6304TIP3    H118876   2.051   3.685   1.075
 6304TIP3    H218877   2.015   3.560   0.998
 6305TIP3   OH218878   6.317   3.952   0.830
 6305TIP3    H118879   6.272   3.891   0.889
 6305TIP3    H218880   6.247   3.993   0.780
 6306TIP3   OH218881   3.795   0.164   0.933
 6306TIP3    H118882   3.799   0.177   1.027
 6306TIP3    H218883   3.839   0.241   0.896
 6307TIP3   OH218884   1.767   6.329   5.185
 6307TIP3    H118885   1.776   6.311   5.279
 6307TIP3    H218886   1.846   6.292   5.146
 6308TIP3   OH218887   3.208   3.566   2.787
 6308TIP3    H118888   3.278   3.588   2.849
 6308TIP3    H218889   3.191   3.473   2.804
 6309TIP3   OH218890   6.902   5.344   2.225
 6309TIP3    H118891   6.844   5.319   2.153
 6309TIP3    H218892   6.938   5.428   2.198
 6310TIP3   OH218893   5.205   6.582   0.527
 6310TIP3    H118894   5.201   6.515   0.459
 6310TIP3    H218895   5.227   6.662   0.480
 6311TIP3   OH218896   5.307   5.126   2.792
 6311TIP3    H118897   5.277   5.216   2.780
 6311TIP3    H218898   5.308   5.113   2.886
 6312TIP3   OH218899   5.433   3.774   3.592
 6312TIP3    H118900   5.466   3.864   3.590
 6312TIP3    H218901   5.456   3.738   3.506
 6313TIP3   OH218902   1.884   3.284   0.038
 6313TIP3    H118903   1.963   3.294  -0.015
 6313TIP3    H218904   1.901   3.208   0.093
 6314TIP3   OH218905   3.234   5.931   5.741
 6314TIP3    H118906   3.205   6.019   5.716
 6314TIP3    H218907   3.329   5.933   5.732
 6315TIP3   OH218908   0.133   4.434   0.345
 6315TIP3    H118909   0.159   4.511   0.293
 6315TIP3    H218910   0.155   4.360   0.289
 6316TIP3   OH218911   6.236   4.692   4.818
 6316TIP3    H118912   6.167   4.660   4.876
 6316TIP3    H218913   6.313   4.702   4.874
 6317TIP3   OH218914   2.158   3.566   2.139
 6317TIP3    H118915   2.222   3.513   2.092
 6317TIP3    H218916   2.208   3.608   2.209
 6318TIP3   OH218917   3.724   5.528   2.966
 6318TIP3    H118918   3.649   5.469   2.976
 6318TIP3    H218919   3.769   5.524   3.050
 6319TIP3   OH218920   0.572   6.047   4.313
 6319TIP3    H118921   0.514   6.046   4.236
 6319TIP3    H218922   0.588   5.954   4.330
 6320TIP3   OH218923   4.288   4.498   0.988
 6320TIP3    H118924   4.245   4.452   0.915
 6320TIP3    H218925   4.245   4.584   0.990
 6321TIP3   OH218926   4.493   5.162   1.273
 6321TIP3    H118927   4.552   5.087   1.267
 6321TIP3    H218928   4.410   5.129   1.239
 6322TIP3   OH218929   1.749   1.111   3.317
 6322TIP3    H118930   1.798   1.068   3.247
 6322TIP3    H218931   1.661   1.073   3.313
 6323TIP3   OH218932   0.050   0.420   0.502
 6323TIP3    H118933   0.113   0.391   0.436
 6323TIP3    H218934   0.078   0.509   0.525
 6324TIP3   OH218935   4.043   3.646   3.565
 6324TIP3    H118936   4.048   3.659   3.471
 6324TIP3    H218937   4.062   3.552   3.577
 6325TIP3   OH218938   4.844   2.979   0.292
 6325TIP3    H118939   4.764   3.023   0.321
 6325TIP3    H218940   4.843   2.895   0.338
 6326TIP3   OH218941   0.510   2.770   4.938
 6326TIP3    H118942   0.474   2.716   5.007
 6326TIP3    H218943   0.510   2.859   4.974
 6327TIP3   OH218944   7.028   3.285   1.989
 6327TIP3    H118945   7.053   3.374   1.965
 6327TIP3    H218946   6.951   3.295   2.045
 6328TIP3   OH218947   0.174   3.516   0.443
 6328TIP3    H118948   0.143   3.604   0.423
 6328TIP3    H218949   0.210   3.484   0.361
 6329TIP3   OH218950   4.314   5.060   0.543
 6329TIP3    H118951   4.303   5.030   0.453
 6329TIP3    H218952   4.389   5.119   0.541
 6330TIP3   OH218953   2.774   2.581   2.358
 6330TIP3    H118954   2.759   2.572   2.264
 6330TIP3    H218955   2.836   2.512   2.379
 6331TIP3   OH218956   2.564   1.722   1.728
 6331TIP3    H118957   2.640   1.749   1.780
 6331TIP3    H218958   2.592   1.644   1.681
 6332TIP3   OH218959   5.053   3.853   5.652
 6332TIP3    H118960   5.120   3.878   5.589
 6332TIP3    H218961   5.070   3.909   5.728
 6333TIP3   OH218962   0.923   5.682   1.785
 6333TIP3    H118963   0.851   5.722   1.737
 6333TIP3    H218964   1.002   5.717   1.743
 6334TIP3   OH218965   1.130   3.797   1.138
 6334TIP3    H118966   1.200   3.743   1.102
 6334TIP3    H218967   1.050   3.751   1.116
 6335TIP3   OH218968   0.315   0.282   1.123
 6335TIP3    H118969   0.390   0.338   1.102
 6335TIP3    H218970   0.252   0.341   1.165
 6336TIP3   OH218971   3.811   2.969   4.942
 6336TIP3    H118972   3.804   3.019   5.024
 6336TIP3    H218973   3.743   2.903   4.948
 6337TIP3   OH218974   5.501   0.767   0.371
 6337TIP3    H118975   5.577   0.707   0.371
 6337TIP3    H218976   5.526   0.836   0.310
 6338TIP3   OH218977   4.122   5.033   0.912
 6338TIP3    H118978   4.086   5.083   0.839
 6338TIP3    H218979   4.196   4.985   0.874
 6339TIP3   OH218980   5.856   2.753   1.802
 6339TIP3    H118981   5.873   2.686   1.868
 6339TIP3    H218982   5.782   2.719   1.752
 6340TIP3   OH218983   0.043   4.353   4.547
 6340TIP3    H118984   0.013   4.373   4.458
 6340TIP3    H218985   0.023   4.261   4.559
 6341TIP3   OH218986   5.649   5.641   0.761
 6341TIP3    H118987   5.677   5.732   0.754
 6341TIP3    H218988   5.562   5.639   0.722
 6342TIP3   OH218989   4.507   4.573   2.730
 6342TIP3    H118990   4.483   4.606   2.816
 6342TIP3    H218991   4.554   4.491   2.748
 6343TIP3   OH218992   3.170   1.348   0.995
 6343TIP3    H118993   3.074   1.349   0.993
 6343TIP3    H218994   3.192   1.334   1.087
 6344TIP3   OH218995   3.931   1.077   3.437
 6344TIP3    H118996   3.903   1.146   3.497
 6344TIP3    H218997   4.022   1.100   3.416
 6345TIP3   OH218998   1.626   5.609   1.549
 6345TIP3    H118999   1.531   5.614   1.559
 6345TIP3    H219000   1.661   5.619   1.637
 6346TIP3   OH219001   1.234   1.674   3.375
 6346TIP3    H119002   1.193   1.704   3.456
 6346TIP3    H219003   1.288   1.599   3.403
 6347TIP3   OH219004   1.667   3.031   4.993
 6347TIP3    H119005   1.678   2.985   4.910
 6347TIP3    H219006   1.591   2.990   5.033
 6348TIP3   OH219007   2.668   3.698   5.304
 6348TIP3    H119008   2.592   3.755   5.314
 6348TIP3    H219009   2.677   3.654   5.389
 6349TIP3   OH219010   1.152   1.324   1.319
 6349TIP3    H119011   1.172   1.335   1.412
 6349TIP3    H219012   1.217   1.380   1.275
 6350TIP3   OH219013   5.170   3.083   3.867
 6350TIP3    H119014   5.225   3.107   3.941
 6350TIP3    H219015   5.080   3.098   3.898
 6351TIP3   OH219016   0.630   3.965   2.894
 6351TIP3    H119017   0.703   3.907   2.917
 6351TIP3    H219018   0.660   4.052   2.921
 6352TIP3   OH219019   1.965   3.736   3.282
 6352TIP3    H119020   1.920   3.757   3.200
 6352TIP3    H219021   1.914   3.663   3.319
 6353TIP3   OH219022   2.551   5.964   0.292
 6353TIP3    H119023   2.522   5.876   0.317
 6353TIP3    H219024   2.534   5.969   0.198
 6354TIP3   OH219025   6.176   5.128   0.714
 6354TIP3    H119026   6.202   5.036   0.722
 6354TIP3    H219027   6.143   5.136   0.624
 6355TIP3   OH219028   3.669   5.275   1.544
 6355TIP3    H119029   3.596   5.263   1.485
 6355TIP3    H219030   3.747   5.258   1.491
 6356TIP3   OH219031   4.398   1.013   2.245
 6356TIP3    H119032   4.360   0.930   2.217
 6356TIP3    H219033   4.359   1.029   2.331
 6357TIP3   OH219034   3.607   2.027   5.326
 6357TIP3    H119035   3.630   1.949   5.274
 6357TIP3    H219036   3.550   1.994   5.394
 6358TIP3   OH219037   3.852   5.855   0.122
 6358TIP3    H119038   3.884   5.900   0.200
 6358TIP3    H219039   3.917   5.787   0.106
 6359TIP3   OH219040   4.119   4.716   2.540
 6359TIP3    H119041   4.061   4.700   2.615
 6359TIP3    H219042   4.103   4.807   2.518
 6360TIP3   OH219043   5.285   2.315   3.080
 6360TIP3    H119044   5.245   2.400   3.065
 6360TIP3    H219045   5.274   2.300   3.174
 6361TIP3   OH219046   5.732   1.856   5.617
 6361TIP3    H119047   5.718   1.869   5.523
 6361TIP3    H219048   5.814   1.807   5.623
 6362TIP3   OH219049   0.411   1.941   3.011
 6362TIP3    H119050   0.485   1.959   3.069
 6362TIP3    H219051   0.387   1.850   3.030
 6363TIP3   OH219052   3.320   2.960   5.307
 6363TIP3    H119053   3.381   2.887   5.307
 6363TIP3    H219054   3.255   2.937   5.374
 6364TIP3   OH219055   6.730   0.580   2.868
 6364TIP3    H119056   6.672   0.611   2.799
 6364TIP3    H219057   6.678   0.584   2.948
 6365TIP3   OH219058   2.020   2.336   5.800
 6365TIP3    H119059   2.067   2.256   5.819
 6365TIP3    H219060   2.026   2.387   5.881
 6366TIP3   OH219061   5.653   6.097   2.724
 6366TIP3    H119062   5.714   6.056   2.662
 6366TIP3    H219063   5.631   6.181   2.683
 6367TIP3   OH219064   4.233   5.520   1.627
 6367TIP3    H119065   4.261   5.530   1.536
 6367TIP3    H219066   4.233   5.426   1.642
 6368TIP3   OH219067   2.120   4.283   2.642
 6368TIP3    H119068   2.072   4.228   2.704
 6368TIP3    H219069   2.076   4.269   2.558
 6369TIP3   OH219070   3.201   0.935   4.794
 6369TIP3    H119071   3.175   0.885   4.872
 6369TIP3    H219072   3.244   0.870   4.738
 6370TIP3   OH219073   2.847   6.630   3.743
 6370TIP3    H119074   2.847   6.587   3.658
 6370TIP3    H219075   2.765   6.603   3.784
 6371TIP3   OH219076   3.325   6.022   5.328
 6371TIP3    H119077   3.316   5.941   5.278
 6371TIP3    H219078   3.383   5.999   5.401
 6372TIP3   OH219079   0.624   3.804   5.670
 6372TIP3    H119080   0.586   3.871   5.728
 6372TIP3    H219081   0.656   3.854   5.595
 6373TIP3   OH219082   6.357   6.298   3.832
 6373TIP3    H119083   6.364   6.392   3.850
 6373TIP3    H219084   6.323   6.260   3.913
 6374TIP3   OH219085   4.052   0.269   4.582
 6374TIP3    H119086   3.967   0.232   4.557
 6374TIP3    H219087   4.105   0.193   4.605
 6375TIP3   OH219088   7.141   5.266   2.323
 6375TIP3    H119089   7.053   5.287   2.292
 6375TIP3    H219090   7.199   5.303   2.258
 6376TIP3   OH219091   3.665   2.132   4.002
 6376TIP3    H119092   3.622   2.063   4.053
 6376TIP3    H219093   3.750   2.143   4.046
 6377TIP3   OH219094   3.591   3.145   3.223
 6377TIP3    H119095   3.528   3.080   3.194
 6377TIP3    H219096   3.660   3.095   3.266
 6378TIP3   OH219097   5.373   1.136   2.915
 6378TIP3    H119098   5.467   1.123   2.908
 6378TIP3    H219099   5.356   1.139   3.009
 6379TIP3   OH219100   4.013   3.564   4.465
 6379TIP3    H119101   4.023   3.659   4.470
 6379TIP3    H219102   4.092   3.534   4.419
 6380TIP3   OH219103   4.965   6.449   1.729
 6380TIP3    H119104   5.024   6.375   1.742
 6380TIP3    H219105   5.011   6.524   1.766
 6381TIP3   OH219106   1.529   2.182   2.009
 6381TIP3    H119107   1.454   2.240   2.027
 6381TIP3    H219108   1.574   2.224   1.935
 6382TIP3   OH219109   4.044   6.807   5.894
 6382TIP3    H119110   4.136   6.788   5.914
 6382TIP3    H219111   4.004   6.721   5.881
 6383TIP3   OH219112   2.212   4.051   1.550
 6383TIP3    H119113   2.144   4.035   1.484
 6383TIP3    H219114   2.293   4.025   1.507
 6384TIP3   OH219115   0.816   3.011   5.828
 6384TIP3    H119116   0.790   3.096   5.791
 6384TIP3    H219117   0.782   3.012   5.917
 6385TIP3   OH219118   2.208   2.264   3.927
 6385TIP3    H119119   2.125   2.252   3.973
 6385TIP3    H219120   2.233   2.177   3.898
 6386TIP3   OH219121   5.587   2.683   5.390
 6386TIP3    H119122   5.605   2.697   5.297
 6386TIP3    H219123   5.656   2.622   5.418
 6387TIP3   OH219124   1.798   6.313   1.202
 6387TIP3    H119125   1.884   6.271   1.194
 6387TIP3    H219126   1.818   6.407   1.207
 6388TIP3   OH219127   2.847   2.452   5.106
 6388TIP3    H119128   2.816   2.409   5.026
 6388TIP3    H219129   2.857   2.381   5.169
 6389TIP3   OH219130   3.127   6.417   0.194
 6389TIP3    H119131   3.189   6.475   0.238
 6389TIP3    H219132   3.043   6.436   0.238
 6390TIP3   OH219133   1.359   6.374   5.846
 6390TIP3    H119134   1.267   6.397   5.836
 6390TIP3    H219135   1.396   6.445   5.899
 6391TIP3   OH219136   0.546   3.219   4.997
 6391TIP3    H119137   0.588   3.140   5.032
 6391TIP3    H219138   0.606   3.251   4.930
 6392TIP3   OH219139   2.149   2.878   3.618
 6392TIP3    H119140   2.107   2.831   3.690
 6392TIP3    H219141   2.232   2.908   3.655
 6393TIP3   OH219142   1.639   0.071   2.102
 6393TIP3    H119143   1.703   0.139   2.083
 6393TIP3    H219144   1.645   0.011   2.028
 6394TIP3   OH219145   5.859   3.349   0.036
 6394TIP3    H119146   5.819   3.387  -0.042
 6394TIP3    H219147   5.878   3.425   0.092
 6395TIP3   OH219148   5.469   6.405   5.452
 6395TIP3    H119149   5.537   6.338   5.452
 6395TIP3    H219150   5.407   6.377   5.385
 6396TIP3   OH219151   1.373   2.234   5.054
 6396TIP3    H119152   1.372   2.234   4.958
 6396TIP3    H219153   1.363   2.142   5.078
 6397TIP3   OH219154   1.288   2.159   3.664
 6397TIP3    H119155   1.266   2.201   3.581
 6397TIP3    H219156   1.354   2.217   3.704
 6398TIP3   OH219157   5.096   4.409   0.484
 6398TIP3    H119158   5.119   4.495   0.520
 6398TIP3    H219159   5.082   4.426   0.391
 6399TIP3   OH219160   6.613   5.160   0.354
 6399TIP3    H119161   6.617   5.082   0.409
 6399TIP3    H219162   6.700   5.165   0.314
 6400TIP3   OH219163   0.488   2.194   2.464
 6400TIP3    H119164   0.409   2.143   2.478
 6400TIP3    H219165   0.520   2.214   2.552
 6401TIP3   OH219166   3.767   5.041   3.816
 6401TIP3    H119167   3.739   5.011   3.902
 6401TIP3    H219168   3.690   5.083   3.778
 6402TIP3   OH219169   2.373   0.207   1.143
 6402TIP3    H119170   2.439   0.245   1.084
 6402TIP3    H219171   2.315   0.158   1.084
 6403TIP3   OH219172   0.150   5.769   3.326
 6403TIP3    H119173   0.161   5.697   3.264
 6403TIP3    H219174   0.092   5.830   3.282
 6404TIP3   OH219175   3.373   5.225   5.740
 6404TIP3    H119176   3.331   5.239   5.655
 6404TIP3    H219177   3.437   5.155   5.723
 6405TIP3   OH219178   0.758   3.090   0.432
 6405TIP3    H119179   0.731   2.998   0.420
 6405TIP3    H219180   0.762   3.125   0.343
 6406TIP3   OH219181   1.029   2.518   1.800
 6406TIP3    H119182   1.095   2.532   1.732
 6406TIP3    H219183   0.964   2.586   1.785
 6407TIP3   OH219184   1.146   3.555   2.576
 6407TIP3    H119185   1.113   3.634   2.619
 6407TIP3    H219186   1.084   3.487   2.600
 6408TIP3   OH219187   6.630   3.768   0.975
 6408TIP3    H119188   6.610   3.846   1.026
 6408TIP3    H219189   6.558   3.707   0.995
 6409TIP3   OH219190   0.335   6.360   0.261
 6409TIP3    H119191   0.404   6.393   0.319
 6409TIP3    H219192   0.350   6.266   0.257
 6410TIP3   OH219193   6.920   3.524   2.821
 6410TIP3    H119194   6.921   3.533   2.726
 6410TIP3    H219195   6.972   3.445   2.838
 6411TIP3   OH219196   6.937   0.199   4.991
 6411TIP3    H119197   6.891   0.124   5.028
 6411TIP3    H219198   6.938   0.264   5.062
 6412TIP3   OH219199   4.036   3.965   0.303
 6412TIP3    H119200   4.036   4.010   0.387
 6412TIP3    H219201   4.090   3.887   0.317
 6413TIP3   OH219202   0.088   0.884   3.410
 6413TIP3    H119203   0.166   0.832   3.428
 6413TIP3    H219204   0.041   0.835   3.343
 6414TIP3   OH219205   6.158   6.476   0.400
 6414TIP3    H119206   6.149   6.571   0.401
 6414TIP3    H219207   6.083   6.445   0.349
 6415TIP3   OH219208   5.979   1.467   3.166
 6415TIP3    H119209   5.911   1.473   3.099
 6415TIP3    H219210   5.963   1.543   3.223
 6416TIP3   OH219211   6.214   2.510   1.625
 6416TIP3    H119212   6.266   2.443   1.580
 6416TIP3    H219213   6.247   2.511   1.714
 6417TIP3   OH219214   3.054   6.383   3.738
 6417TIP3    H119215   3.058   6.352   3.828
 6417TIP3    H219216   3.048   6.478   3.745
 6418TIP3   OH219217   5.071   1.525   2.662
 6418TIP3    H119218   5.134   1.590   2.693
 6418TIP3    H219219   5.023   1.499   2.740
 6419TIP3   OH219220   0.173   2.323   2.188
 6419TIP3    H119221   0.108   2.311   2.119
 6419TIP3    H219222   0.132   2.286   2.267
 6420TIP3   OH219223   5.168   6.046   4.019
 6420TIP3    H119224   5.099   6.053   4.085
 6420TIP3    H219225   5.198   6.136   4.006
 6421TIP3   OH219226   0.608   6.673   0.463
 6421TIP3    H119227   0.638   6.757   0.499
 6421TIP3    H219228   0.592   6.691   0.370
 6422TIP3   OH219229   6.295   2.591   4.000
 6422TIP3    H119230   6.271   2.653   4.069
 6422TIP3    H219231   6.344   2.522   4.046
 6423TIP3   OH219232   1.061   4.235   5.772
 6423TIP3    H119233   1.116   4.183   5.712
 6423TIP3    H219234   1.056   4.182   5.851
 6424TIP3   OH219235   5.659   3.292   2.182
 6424TIP3    H119236   5.616   3.371   2.148
 6424TIP3    H219237   5.744   3.323   2.213
 6425TIP3   OH219238   5.591   0.971   3.664
 6425TIP3    H119239   5.579   1.062   3.637
 6425TIP3    H219240   5.506   0.944   3.699
 6426TIP3   OH219241   4.141   1.252   5.213
 6426TIP3    H119242   4.191   1.290   5.285
 6426TIP3    H219243   4.168   1.160   5.212
 6427TIP3   OH219244   4.459   3.640   3.303
 6427TIP3    H119245   4.457   3.730   3.273
 6427TIP3    H219246   4.377   3.602   3.272
 6428TIP3   OH219247   3.488   5.186   2.133
 6428TIP3    H119248   3.542   5.263   2.148
 6428TIP3    H219249   3.416   5.216   2.078
 6429TIP3   OH219250   6.529   6.120   1.250
 6429TIP3    H119251   6.495   6.032   1.234
 6429TIP3    H219252   6.606   6.126   1.194
 6430TIP3   OH219253   1.180   6.753   2.450
 6430TIP3    H119254   1.100   6.806   2.447
 6430TIP3    H219255   1.185   6.713   2.363
 6431TIP3   OH219256   3.724   0.418   0.538
 6431TIP3    H119257   3.770   0.383   0.614
 6431TIP3    H219258   3.641   0.370   0.535
 6432TIP3   OH219259   4.919   0.395   1.783
 6432TIP3    H119260   5.008   0.429   1.777
 6432TIP3    H219261   4.887   0.425   1.868
 6433TIP3   OH219262   2.171   2.241   0.156
 6433TIP3    H119263   2.203   2.190   0.081
 6433TIP3    H219264   2.247   2.249   0.214
 6434TIP3   OH219265   6.694   5.686   1.524
 6434TIP3    H119266   6.678   5.592   1.533
 6434TIP3    H219267   6.699   5.718   1.614
 6435TIP3   OH219268   6.565   2.873   5.882
 6435TIP3    H119269   6.531   2.962   5.879
 6435TIP3    H219270   6.640   2.877   5.942
 6436TIP3   OH219271   0.130   4.253   3.722
 6436TIP3    H119272   0.040   4.281   3.735
 6436TIP3    H219273   0.174   4.274   3.804
 6437TIP3   OH219274   5.416   1.796   2.657
 6437TIP3    H119275   5.504   1.830   2.646
 6437TIP3    H219276   5.408   1.727   2.590
 6438TIP3   OH219277   1.368   2.555   0.210
 6438TIP3    H119278   1.382   2.584   0.301
 6438TIP3    H219279   1.307   2.481   0.218
 6439TIP3   OH219280   6.724   1.847   1.654
 6439TIP3    H119281   6.697   1.841   1.745
 6439TIP3    H219282   6.777   1.769   1.640
 6440TIP3   OH219283   7.072   5.354   3.601
 6440TIP3    H119284   7.111   5.434   3.636
 6440TIP3    H219285   7.091   5.358   3.507
 6441TIP3   OH219286   6.639   3.626   5.067
 6441TIP3    H119287   6.637   3.536   5.101
 6441TIP3    H219288   6.626   3.616   4.973
 6442TIP3   OH219289   4.549   2.911   2.871
 6442TIP3    H119290   4.612   2.920   2.800
 6442TIP3    H219291   4.597   2.867   2.941
 6443TIP3   OH219292   5.943   5.074   2.154
 6443TIP3    H119293   5.940   5.043   2.245
 6443TIP3    H219294   5.993   5.007   2.108
 6444TIP3   OH219295   0.429   4.007   4.256
 6444TIP3    H119296   0.494   3.985   4.323
 6444TIP3    H219297   0.348   4.021   4.305
 6445TIP3   OH219298   3.698   6.253   3.641
 6445TIP3    H119299   3.669   6.337   3.677
 6445TIP3    H219300   3.787   6.242   3.675
 6446TIP3   OH219301   4.559   3.727   5.335
 6446TIP3    H119302   4.630   3.726   5.271
 6446TIP3    H219303   4.596   3.688   5.414
 6447TIP3   OH219304   3.267   3.728   2.015
 6447TIP3    H119305   3.291   3.800   1.958
 6447TIP3    H219306   3.349   3.702   2.058
 6448TIP3   OH219307   5.441   5.537   2.018
 6448TIP3    H119308   5.345   5.538   2.025
 6448TIP3    H219309   5.460   5.454   1.974
 6449TIP3   OH219310   6.305   0.259   4.509
 6449TIP3    H119311   6.251   0.305   4.445
 6449TIP3    H219312   6.268   0.171   4.512
 6450TIP3   OH219313   3.170   0.613   5.790
 6450TIP3    H119314   3.099   0.667   5.755
 6450TIP3    H219315   3.125   0.546   5.841
 6451TIP3   OH219316   5.823   6.227   0.781
 6451TIP3    H119317   5.903   6.174   0.786
 6451TIP3    H219318   5.855   6.318   0.785
 6452TIP3   OH219319   2.227   3.026   0.702
 6452TIP3    H119320   2.278   3.107   0.716
 6452TIP3    H219321   2.267   2.987   0.624
 6453TIP3   OH219322   0.283   5.985   2.656
 6453TIP3    H119323   0.355   5.938   2.614
 6453TIP3    H219324   0.204   5.944   2.621
 6454TIP3   OH219325   3.924   6.574   5.820
 6454TIP3    H119326   3.975   6.510   5.771
 6454TIP3    H219327   3.893   6.526   5.897
 6455TIP3   OH219328   6.503   1.947   4.634
 6455TIP3    H119329   6.514   1.947   4.539
 6455TIP3    H219330   6.564   1.881   4.665
 6456TIP3   OH219331   1.882   1.872   1.780
 6456TIP3    H119332   1.929   1.823   1.712
 6456TIP3    H219333   1.948   1.887   1.848
 6457TIP3   OH219334   5.993   6.151   1.668
 6457TIP3    H119335   5.935   6.083   1.635
 6457TIP3    H219336   5.969   6.229   1.619
 6458TIP3   OH219337   4.131   1.884   1.296
 6458TIP3    H119338   4.045   1.854   1.268
 6458TIP3    H219339   4.118   1.916   1.385
 6459TIP3   OH219340   1.849   0.358   3.487
 6459TIP3    H119341   1.871   0.333   3.397
 6459TIP3    H219342   1.755   0.378   3.483
 6460TIP3   OH219343   3.586   0.941   0.948
 6460TIP3    H119344   3.609   1.030   0.923
 6460TIP3    H219345   3.500   0.927   0.910
 6461TIP3   OH219346   6.668   2.233   0.293
 6461TIP3    H119347   6.608   2.279   0.352
 6461TIP3    H219348   6.754   2.241   0.336
 6462TIP3   OH219349   0.872   3.763   3.699
 6462TIP3    H119350   0.780   3.792   3.700
 6462TIP3    H219351   0.867   3.669   3.683
 6463TIP3   OH219352   0.861   3.054   1.853
 6463TIP3    H119353   0.773   3.068   1.888
 6463TIP3    H219354   0.871   3.121   1.785
 6464TIP3   OH219355   1.729   5.586   5.715
 6464TIP3    H119356   1.791   5.517   5.695
 6464TIP3    H219357   1.726   5.590   5.811
 6465TIP3   OH219358   2.378   3.239   2.962
 6465TIP3    H119359   2.391   3.272   2.873
 6465TIP3    H219360   2.404   3.147   2.957
 6466TIP3   OH219361   3.005   2.951   1.692
 6466TIP3    H119362   3.018   3.039   1.728
 6466TIP3    H219363   3.093   2.919   1.676
 6467TIP3   OH219364   0.112   1.149   5.753
 6467TIP3    H119365   0.175   1.139   5.825
 6467TIP3    H219366   0.156   1.108   5.678
 6468TIP3   OH219367  -0.014   2.301   4.257
 6468TIP3    H119368   0.023   2.235   4.198
 6468TIP3    H219369   0.000   2.266   4.345
 6469TIP3   OH219370   3.148   5.949   1.759
 6469TIP3    H119371   3.108   5.925   1.843
 6469TIP3    H219372   3.228   5.898   1.755
 6470TIP3   OH219373   0.847   2.499   2.229
 6470TIP3    H119374   0.837   2.581   2.276
 6470TIP3    H219375   0.829   2.431   2.295
 6471TIP3   OH219376   1.881   0.686   5.620
 6471TIP3    H119377   1.833   0.698   5.702
 6471TIP3    H219378   1.973   0.697   5.646
 6472TIP3   OH219379   6.758   5.028   0.952
 6472TIP3    H119380   6.680   5.038   0.897
 6472TIP3    H219381   6.822   4.985   0.895
 6473TIP3   OH219382   6.113   4.151   0.657
 6473TIP3    H119383   6.086   4.169   0.567
 6473TIP3    H219384   6.053   4.083   0.687
 6474TIP3   OH219385   6.249   3.953   1.683
 6474TIP3    H119386   6.230   3.861   1.700
 6474TIP3    H219387   6.164   3.997   1.688
 6475TIP3   OH219388   4.579   3.848   3.027
 6475TIP3    H119389   4.587   3.938   2.997
 6475TIP3    H219390   4.504   3.850   3.088
 6476TIP3   OH219391   5.398   5.903   5.839
 6476TIP3    H119392   5.421   5.832   5.779
 6476TIP3    H219393   5.352   5.860   5.911
 6477TIP3   OH219394   6.431   3.089   0.086
 6477TIP3    H119395   6.400   3.147   0.016
 6477TIP3    H219396   6.490   3.143   0.138
 6478TIP3   OH219397   5.811   0.856   4.461
 6478TIP3    H119398   5.844   0.887   4.545
 6478TIP3    H219399   5.836   0.764   4.458
 6479TIP3   OH219400   6.338   3.788   3.968
 6479TIP3    H119401   6.340   3.720   3.901
 6479TIP3    H219402   6.397   3.757   4.036
 6480TIP3   OH219403   1.865   3.192   5.844
 6480TIP3    H119404   1.828   3.266   5.797
 6480TIP3    H219405   1.792   3.131   5.853
 6481TIP3   OH219406   1.193   2.760   3.719
 6481TIP3    H119407   1.237   2.692   3.669
 6481TIP3    H219408   1.100   2.745   3.703
 6482TIP3   OH219409   0.773   3.367   0.202
 6482TIP3    H119410   0.855   3.416   0.200
 6482TIP3    H219411   0.709   3.425   0.162
 6483TIP3   OH219412   6.528   1.631   3.982
 6483TIP3    H119413   6.511   1.595   4.069
 6483TIP3    H219414   6.621   1.652   3.981
 6484TIP3   OH219415   3.248   5.123   5.366
 6484TIP3    H119416   3.189   5.087   5.300
 6484TIP3    H219417   3.244   5.060   5.438
 6485TIP3   OH219418   4.500   3.984   1.335
 6485TIP3    H119419   4.495   3.932   1.255
 6485TIP3    H219420   4.579   3.952   1.379
 6486TIP3   OH219421   0.473   5.115   3.252
 6486TIP3    H119422   0.537   5.051   3.283
 6486TIP3    H219423   0.457   5.171   3.328
 6487TIP3   OH219424   2.620   4.659   0.756
 6487TIP3    H119425   2.661   4.690   0.675
 6487TIP3    H219426   2.625   4.734   0.815
 6488TIP3   OH219427   2.901   3.307   5.655
 6488TIP3    H119428   2.935   3.279   5.740
 6488TIP3    H219429   2.898   3.402   5.661
 6489TIP3   OH219430   5.796   2.104   5.395
 6489TIP3    H119431   5.889   2.114   5.419
 6489TIP3    H219432   5.796   2.043   5.321
 6490TIP3   OH219433   0.356   4.289   1.344
 6490TIP3    H119434   0.302   4.219   1.381
 6490TIP3    H219435   0.349   4.276   1.249
 6491TIP3   OH219436   2.207   1.630   3.071
 6491TIP3    H119437   2.217   1.662   3.161
 6491TIP3    H219438   2.217   1.708   3.017
 6492TIP3   OH219439   4.578   2.762   4.903
 6492TIP3    H119440   4.668   2.731   4.895
 6492TIP3    H219441   4.538   2.703   4.967
 6493TIP3   OH219442   0.823   3.193   1.575
 6493TIP3    H119443   0.782   3.220   1.493
 6493TIP3    H219444   0.903   3.246   1.581
 6494TIP3   OH219445   6.465   4.957   3.347
 6494TIP3    H119446   6.403   4.962   3.274
 6494TIP3    H219447   6.543   4.915   3.310
 6495TIP3   OH219448   5.944   2.732   5.349
 6495TIP3    H119449   5.897   2.657   5.386
 6495TIP3    H219450   5.920   2.805   5.406
 6496TIP3   OH219451   0.560   4.849   4.162
 6496TIP3    H119452   0.496   4.777   4.163
 6496TIP3    H219453   0.584   4.861   4.254
 6497TIP3   OH219454   3.483   6.739   5.189
 6497TIP3    H119455   3.553   6.704   5.245
 6497TIP3    H219456   3.466   6.670   5.125
 6498TIP3   OH219457   2.068   4.676   3.118
 6498TIP3    H119458   2.148   4.669   3.171
 6498TIP3    H219459   1.998   4.648   3.177
 6499TIP3   OH219460   2.504   4.287   5.056
 6499TIP3    H119461   2.468   4.332   5.132
 6499TIP3    H219462   2.520   4.198   5.086
 6500TIP3   OH219463   1.267   4.226   5.369
 6500TIP3    H119464   1.274   4.197   5.278
 6500TIP3    H219465   1.178   4.260   5.377
 6501TIP3   OH219466   2.502   3.835   2.733
 6501TIP3    H119467   2.438   3.765   2.749
 6501TIP3    H219468   2.449   3.914   2.722
 6502TIP3   OH219469   7.186   6.432   5.657
 6502TIP3    H119470   7.104   6.473   5.683
 6502TIP3    H219471   7.242   6.505   5.632
 6503TIP3   OH219472   6.667   2.683   0.357
 6503TIP3    H119473   6.648   2.751   0.422
 6503TIP3    H219474   6.675   2.731   0.274
 6504TIP3   OH219475   3.097   2.338   0.573
 6504TIP3    H119476   3.168   2.277   0.592
 6504TIP3    H219477   3.092   2.394   0.651
 6505TIP3   OH219478   2.825   0.063   4.704
 6505TIP3    H119479   2.839   0.006   4.628
 6505TIP3    H219480   2.852   0.150   4.674
 6506TIP3   OH219481   2.527   1.576   2.996
 6506TIP3    H119482   2.612   1.586   3.040
 6506TIP3    H219483   2.486   1.662   3.002
 6507TIP3   OH219484   4.824   5.461   1.384
 6507TIP3    H119485   4.839   5.511   1.464
 6507TIP3    H219486   4.742   5.414   1.400
 6508TIP3   OH219487   4.310   1.326   2.505
 6508TIP3    H119488   4.307   1.261   2.576
 6508TIP3    H219489   4.402   1.351   2.498
 6509TIP3   OH219490   4.467   4.025   1.633
 6509TIP3    H119491   4.494   4.003   1.544
 6509TIP3    H219492   4.464   3.940   1.679
 6510TIP3   OH219493   0.905   0.907   3.835
 6510TIP3    H119494   0.850   0.880   3.762
 6510TIP3    H219495   0.856   0.881   3.913
 6511TIP3   OH219496   2.063   0.891   0.246
 6511TIP3    H119497   2.098   0.980   0.256
 6511TIP3    H219498   1.978   0.895   0.290
 6512TIP3   OH219499   1.714   2.289   1.843
 6512TIP3    H119500   1.750   2.293   1.932
 6512TIP3    H219501   1.768   2.224   1.799
 6513TIP3   OH219502   3.706   2.696   4.150
 6513TIP3    H119503   3.644   2.745   4.096
 6513TIP3    H219504   3.673   2.705   4.239
 6514TIP3   OH219505   6.193   6.723   2.990
 6514TIP3    H119506   6.273   6.680   3.020
 6514TIP3    H219507   6.165   6.671   2.914
 6515TIP3   OH219508   7.145   5.711   1.350
 6515TIP3    H119509   7.052   5.689   1.351
 6515TIP3    H219510   7.147   5.805   1.368
 6516TIP3   OH219511   6.815   5.063   4.072
 6516TIP3    H119512   6.802   5.123   4.145
 6516TIP3    H219513   6.759   5.097   4.003
 6517TIP3   OH219514   1.438   0.257   3.006
 6517TIP3    H119515   1.450   0.266   3.100
 6517TIP3    H219516   1.525   0.272   2.969
 6518TIP3   OH219517   3.044   5.423   0.868
 6518TIP3    H119518   3.086   5.442   0.785
 6518TIP3    H219519   3.114   5.430   0.933
 6519TIP3   OH219520   6.830   2.512   1.900
 6519TIP3    H119521   6.853   2.518   1.993
 6519TIP3    H219522   6.816   2.603   1.872
 6520TIP3   OH219523   1.897   1.712   4.758
 6520TIP3    H119524   1.853   1.722   4.674
 6520TIP3    H219525   1.900   1.801   4.794
 6521TIP3   OH219526   4.617   4.802   5.082
 6521TIP3    H119527   4.592   4.884   5.126
 6521TIP3    H219528   4.639   4.828   4.993
 6522TIP3   OH219529   5.682   2.925   0.120
 6522TIP3    H119530   5.660   2.956   0.033
 6522TIP3    H219531   5.745   2.989   0.153
 6523TIP3   OH219532   2.961   4.459   1.936
 6523TIP3    H119533   2.963   4.461   2.031
 6523TIP3    H219534   2.919   4.375   1.914
 6524TIP3   OH219535   3.329   1.131   5.749
 6524TIP3    H119536   3.246   1.172   5.773
 6524TIP3    H219537   3.305   1.042   5.722
 6525TIP3   OH219538   7.185   5.279   1.099
 6525TIP3    H119539   7.097   5.267   1.062
 6525TIP3    H219540   7.207   5.370   1.078
 6526TIP3   OH219541   1.094   5.900   0.166
 6526TIP3    H119542   1.172   5.945   0.134
 6526TIP3    H219543   1.124   5.810   0.181
 6527TIP3   OH219544   3.319   1.841   0.146
 6527TIP3    H119545   3.263   1.876   0.215
 6527TIP3    H219546   3.276   1.761   0.118
 6528TIP3   OH219547   0.667   6.576   1.342
 6528TIP3    H119548   0.716   6.652   1.311
 6528TIP3    H219549   0.611   6.609   1.412
 6529TIP3   OH219550   2.659   1.945   5.470
 6529TIP3    H119551   2.749   1.956   5.498
 6529TIP3    H219552   2.665   1.893   5.390
 6530TIP3   OH219553   2.082   1.799   5.127
 6530TIP3    H119554   2.045   1.861   5.189
 6530TIP3    H219555   2.131   1.736   5.180
 6531TIP3   OH219556   0.030   5.347  -0.018
 6531TIP3    H119557  -0.050   5.371   0.030
 6531TIP3    H219558   0.034   5.251  -0.010
 6532TIP3   OH219559   6.121   2.112   2.809
 6532TIP3    H119560   6.196   2.052   2.811
 6532TIP3    H219561   6.146   2.179   2.745
 6533TIP3   OH219562   1.389   6.682   5.473
 6533TIP3    H119563   1.317   6.679   5.536
 6533TIP3    H219564   1.433   6.597   5.483
 6534TIP3   OH219565   6.466   5.420   0.159
 6534TIP3    H119566   6.523   5.450   0.231
 6534TIP3    H219567   6.466   5.493   0.097
 6535TIP3   OH219568   5.146   2.893   4.071
 6535TIP3    H119569   5.141   2.816   4.127
 6535TIP3    H219570   5.055   2.915   4.052
 6536TIP3   OH219571   2.037   1.979   1.148
 6536TIP3    H119572   2.015   2.069   1.169
 6536TIP3    H219573   2.121   1.985   1.101
 6537TIP3   OH219574   1.856   2.564   5.536
 6537TIP3    H119575   1.906   2.632   5.581
 6537TIP3    H219576   1.817   2.608   5.461
 6538TIP3   OH219577   5.278   0.532   4.812
 6538TIP3    H119578   5.326   0.505   4.733
 6538TIP3    H219579   5.192   0.558   4.780
 6539TIP3   OH219580   4.348   6.033   0.292
 6539TIP3    H119581   4.298   6.105   0.333
 6539TIP3    H219582   4.311   5.954   0.331
 6540TIP3   OH219583   4.858   4.564   0.656
 6540TIP3    H119584   4.831   4.650   0.625
 6540TIP3    H219585   4.954   4.566   0.651
 6541TIP3   OH219586   1.282   2.911   5.600
 6541TIP3    H119587   1.187   2.921   5.606
 6541TIP3    H219588   1.307   2.868   5.682
 6542TIP3   OH219589   4.470   2.794   5.910
 6542TIP3    H119590   4.482   2.700   5.896
 6542TIP3    H219591   4.385   2.802   5.954
 6543TIP3   OH219592   0.521   0.297   2.458
 6543TIP3    H119593   0.584   0.368   2.469
 6543TIP3    H219594   0.475   0.318   2.377
 6544TIP3   OH219595   3.801   3.927   3.273
 6544TIP3    H119596   3.775   3.995   3.336
 6544TIP3    H219597   3.723   3.913   3.219
 6545TIP3   OH219598   2.860   0.229   5.446
 6545TIP3    H119599   2.857   0.287   5.522
 6545TIP3    H219600   2.841   0.285   5.371
 6546TIP3   OH219601   3.345   0.416   3.819
 6546TIP3    H119602   3.419   0.467   3.784
 6546TIP3    H219603   3.349   0.333   3.773
 6547TIP3   OH219604   6.354   3.140   2.869
 6547TIP3    H119605   6.386   3.157   2.958
 6547TIP3    H219606   6.259   3.129   2.879
 6548TIP3   OH219607   5.909   4.052   1.082
 6548TIP3    H119608   5.948   4.127   1.128
 6548TIP3    H219609   5.952   3.975   1.121
 6549TIP3   OH219610   4.764   5.676   3.954
 6549TIP3    H119611   4.711   5.597   3.956
 6549TIP3    H219612   4.850   5.647   3.924
 6550TIP3   OH219613   4.366   6.307   5.131
 6550TIP3    H119614   4.322   6.324   5.215
 6550TIP3    H219615   4.297   6.272   5.075
 6551TIP3   OH219616   1.380   4.101   0.238
 6551TIP3    H119617   1.289   4.073   0.233
 6551TIP3    H219618   1.429   4.033   0.192
 6552TIP3   OH219619   3.594   5.878   2.659
 6552TIP3    H119620   3.499   5.883   2.673
 6552TIP3    H219621   3.612   5.946   2.594
 6553TIP3   OH219622   1.338   0.798   4.092
 6553TIP3    H119623   1.257   0.849   4.090
 6553TIP3    H219624   1.375   0.808   4.004
 6554TIP3   OH219625   5.636   2.996   1.499
 6554TIP3    H119626   5.562   3.007   1.558
 6554TIP3    H219627   5.712   3.019   1.553
 6555TIP3   OH219628   0.629   3.248   1.830
 6555TIP3    H119629   0.647   3.335   1.795
 6555TIP3    H219630   0.603   3.197   1.753
 6556TIP3   OH219631   0.745   4.675   3.646
 6556TIP3    H119632   0.809   4.610   3.677
 6556TIP3    H219633   0.794   4.728   3.583
 6557TIP3   OH219634   0.234   0.034   1.043
 6557TIP3    H119635   0.301   0.102   1.052
 6557TIP3    H219636   0.153   0.075   1.075
 6558TIP3   OH219637   6.899   5.390   5.159
 6558TIP3    H119638   6.813   5.385   5.201
 6558TIP3    H219639   6.961   5.387   5.232
 6559TIP3   OH219640   5.668   3.538   5.823
 6559TIP3    H119641   5.585   3.493   5.803
 6559TIP3    H219642   5.720   3.472   5.868
 6560TIP3   OH219643   6.716   0.845   0.452
 6560TIP3    H119644   6.720   0.815   0.543
 6560TIP3    H219645   6.787   0.798   0.408
 6561TIP3   OH219646   7.064   4.584   3.287
 6561TIP3    H119647   7.053   4.660   3.343
 6561TIP3    H219648   7.127   4.528   3.333
 6562TIP3   OH219649   5.290   3.881   4.617
 6562TIP3    H119650   5.279   3.814   4.685
 6562TIP3    H219651   5.366   3.932   4.645
 6563TIP3   OH219652   3.529   5.781   2.005
 6563TIP3    H119653   3.538   5.701   2.057
 6563TIP3    H219654   3.445   5.818   2.031
 6564TIP3   OH219655   3.135   0.340   0.388
 6564TIP3    H119656   3.142   0.335   0.292
 6564TIP3    H219657   3.095   0.426   0.404
 6565TIP3   OH219658   3.928   3.081   0.819
 6565TIP3    H119659   3.987   3.009   0.839
 6565TIP3    H219660   3.858   3.041   0.768
 6566TIP3   OH219661   3.577   4.899   4.283
 6566TIP3    H119662   3.503   4.879   4.226
 6566TIP3    H219663   3.538   4.910   4.370
 6567TIP3   OH219664   0.657   5.426   4.653
 6567TIP3    H119665   0.734   5.473   4.621
 6567TIP3    H219666   0.589   5.444   4.588
 6568TIP3   OH219667   1.958   6.224   2.260
 6568TIP3    H119668   1.905   6.293   2.219
 6568TIP3    H219669   2.034   6.216   2.203
 6569TIP3   OH219670   5.131   5.408   1.838
 6569TIP3    H119671   5.201   5.343   1.838
 6569TIP3    H219672   5.122   5.434   1.930
 6570TIP3   OH219673   5.314   5.479   5.372
 6570TIP3    H119674   5.350   5.459   5.285
 6570TIP3    H219675   5.321   5.397   5.420
 6571TIP3   OH219676   2.295   3.635   4.203
 6571TIP3    H119677   2.305   3.636   4.298
 6571TIP3    H219678   2.239   3.711   4.184
 6572TIP3   OH219679   3.794   3.823   4.300
 6572TIP3    H119680   3.749   3.839   4.217
 6572TIP3    H219681   3.725   3.834   4.366
 6573TIP3   OH219682   4.760   2.749   0.968
 6573TIP3    H119683   4.673   2.738   1.006
 6573TIP3    H219684   4.811   2.792   1.037
 6574TIP3   OH219685   6.045   4.170   0.383
 6574TIP3    H119686   6.043   4.094   0.325
 6574TIP3    H219687   6.138   4.188   0.396
 6575TIP3   OH219688   0.664   4.361   5.723
 6575TIP3    H119689   0.629   4.299   5.659
 6575TIP3    H219690   0.712   4.425   5.671
 6576TIP3   OH219691   4.873   1.033   5.359
 6576TIP3    H119692   4.867   0.958   5.418
 6576TIP3    H219693   4.854   1.109   5.415
 6577TIP3   OH219694   2.999   3.139   1.063
 6577TIP3    H119695   3.057   3.175   1.130
 6577TIP3    H219696   3.055   3.082   1.011
 6578TIP3   OH219697   5.080   0.948   2.513
 6578TIP3    H119698   5.096   0.977   2.603
 6578TIP3    H219699   4.989   0.974   2.496
 6579TIP3   OH219700   5.123   6.735   0.800
 6579TIP3    H119701   5.112   6.826   0.771
 6579TIP3    H219702   5.084   6.732   0.887
 6580TIP3   OH219703   2.646   1.043   1.526
 6580TIP3    H119704   2.602   1.088   1.454
 6580TIP3    H219705   2.666   0.956   1.491
 6581TIP3   OH219706   5.184   6.566   1.843
 6581TIP3    H119707   5.232   6.496   1.888
 6581TIP3    H219708   5.181   6.638   1.906
 6582TIP3   OH219709   1.778   6.433   2.855
 6582TIP3    H119710   1.827   6.370   2.802
 6582TIP3    H219711   1.789   6.402   2.945
 6583TIP3   OH219712   2.694   4.226   3.586
 6583TIP3    H119713   2.715   4.235   3.493
 6583TIP3    H219714   2.664   4.135   3.595
 6584TIP3   OH219715   2.123   3.521  -0.038
 6584TIP3    H119716   2.154   3.442  -0.082
 6584TIP3    H219717   2.077   3.570  -0.106
 6585TIP3   OH219718   4.548   5.965   3.633
 6585TIP3    H119719   4.528   6.025   3.705
 6585TIP3    H219720   4.629   5.999   3.595
 6586TIP3   OH219721   6.678   1.232   2.532
 6586TIP3    H119722   6.659   1.246   2.440
 6586TIP3    H219723   6.644   1.144   2.551
 6587TIP3   OH219724   1.610   4.241   2.172
 6587TIP3    H119725   1.541   4.184   2.137
 6587TIP3    H219726   1.567   4.326   2.185
 6588TIP3   OH219727   2.435   5.503   1.736
 6588TIP3    H119728   2.454   5.587   1.777
 6588TIP3    H219729   2.520   5.470   1.708
 6589TIP3   OH219730   0.165   3.245   3.876
 6589TIP3    H119731   0.092   3.250   3.815
 6589TIP3    H219732   0.224   3.181   3.836
 6590TIP3   OH219733   5.967   1.600   4.201
 6590TIP3    H119734   5.898   1.653   4.160
 6590TIP3    H219735   6.016   1.563   4.128
 6591TIP3   OH219736   6.888   6.841   4.388
 6591TIP3    H119737   6.954   6.879   4.331
 6591TIP3    H219738   6.916   6.750   4.401
 6592TIP3   OH219739   4.145   0.473   3.268
 6592TIP3    H119740   4.092   0.459   3.190
 6592TIP3    H219741   4.236   0.464   3.238
 6593TIP3   OH219742   5.898   6.507   0.678
 6593TIP3    H119743   5.986   6.501   0.716
 6593TIP3    H219744   5.907   6.571   0.607
 6594TIP3   OH219745   6.402   0.793   2.768
 6594TIP3    H119746   6.459   0.804   2.692
 6594TIP3    H219747   6.313   0.794   2.731
 6595TIP3   OH219748   4.054   5.185   0.696
 6595TIP3    H119749   3.971   5.230   0.713
 6595TIP3    H219750   4.120   5.254   0.701
 6596TIP3   OH219751   1.367   3.348   0.979
 6596TIP3    H119752   1.452   3.391   0.965
 6596TIP3    H219753   1.373   3.313   1.068
 6597TIP3   OH219754   4.600   6.210   2.627
 6597TIP3    H119755   4.587   6.116   2.639
 6597TIP3    H219756   4.690   6.226   2.655
 6598TIP3   OH219757   6.011   1.977   2.149
 6598TIP3    H119758   5.916   1.969   2.134
 6598TIP3    H219759   6.042   1.887   2.157
 6599TIP3   OH219760   0.025   6.611   0.609
 6599TIP3    H119761   0.095   6.676   0.606
 6599TIP3    H219762  -0.055   6.664   0.604
 6600TIP3   OH219763   6.337   3.973   1.171
 6600TIP3    H119764   6.362   3.992   1.262
 6600TIP3    H219765   6.375   3.887   1.153
 6601TIP3   OH219766   6.306   0.662   1.866
 6601TIP3    H119767   6.390   0.701   1.889
 6601TIP3    H219768   6.288   0.695   1.778
 6602TIP3   OH219769   6.807   6.697   3.305
 6602TIP3    H119770   6.880   6.646   3.338
 6602TIP3    H219771   6.789   6.760   3.374
 6603TIP3   OH219772   3.936   3.872   5.819
 6603TIP3    H119773   3.894   3.788   5.836
 6603TIP3    H219774   4.025   3.850   5.792
 6604TIP3   OH219775   2.943   3.574   5.683
 6604TIP3    H119776   3.029   3.558   5.722
 6604TIP3    H219777   2.922   3.664   5.708
 6605TIP3   OH219778   3.214   2.001   0.841
 6605TIP3    H119779   3.309   2.000   0.838
 6605TIP3    H219780   3.192   1.975   0.931
 6606TIP3   OH219781   4.893   2.817   5.169
 6606TIP3    H119782   4.943   2.857   5.241
 6606TIP3    H219783   4.887   2.725   5.193
 6607TIP3   OH219784   0.861   6.762   3.059
 6607TIP3    H119785   0.900   6.755   3.146
 6607TIP3    H219786   0.935   6.776   3.000
 6608TIP3   OH219787   2.377   2.946   2.102
 6608TIP3    H119788   2.341   2.886   2.036
 6608TIP3    H219789   2.310   3.014   2.112
 6609TIP3   OH219790   1.361   0.731   1.656
 6609TIP3    H119791   1.423   0.717   1.727
 6609TIP3    H219792   1.408   0.701   1.578
 6610TIP3   OH219793   4.454   4.589   3.036
 6610TIP3    H119794   4.394   4.652   2.998
 6610TIP3    H219795   4.533   4.640   3.056
 6611TIP3   OH219796   4.760   3.888   4.865
 6611TIP3    H119797   4.793   3.856   4.782
 6611TIP3    H219798   4.684   3.833   4.883
 6612TIP3   OH219799   3.922   1.508   3.357
 6612TIP3    H119800   3.933   1.493   3.451
 6612TIP3    H219801   4.011   1.502   3.322
 6613TIP3   OH219802   0.982   5.711   5.404
 6613TIP3    H119803   1.061   5.764   5.414
 6613TIP3    H219804   0.942   5.743   5.323
 6614TIP3   OH219805   0.958   0.224   1.375
 6614TIP3    H119806   0.953   0.139   1.419
 6614TIP3    H219807   1.028   0.213   1.310
 6615TIP3   OH219808   1.386   0.851   0.245
 6615TIP3    H119809   1.441   0.775   0.226
 6615TIP3    H219810   1.318   0.817   0.304
 6616TIP3   OH219811   6.293   5.409   4.093
 6616TIP3    H119812   6.361   5.411   4.026
 6616TIP3    H219813   6.340   5.401   4.175
 6617TIP3   OH219814   0.304   3.397   1.755
 6617TIP3    H119815   0.248   3.320   1.761
 6617TIP3    H219816   0.246   3.470   1.778
 6618TIP3   OH219817   5.280   3.305   4.788
 6618TIP3    H119818   5.333   3.286   4.710
 6618TIP3    H219819   5.243   3.221   4.814
 6619TIP3   OH219820   7.033   1.142   1.389
 6619TIP3    H119821   7.069   1.059   1.358
 6619TIP3    H219822   7.061   1.207   1.325
 6620TIP3   OH219823   4.356   2.268   3.232
 6620TIP3    H119824   4.404   2.298   3.155
 6620TIP3    H219825   4.335   2.177   3.213
 6621TIP3   OH219826   4.170   3.296   3.251
 6621TIP3    H119827   4.074   3.292   3.245
 6621TIP3    H219828   4.191   3.387   3.228
 6622TIP3   OH219829   3.632   6.192   4.977
 6622TIP3    H119830   3.644   6.281   5.011
 6622TIP3    H219831   3.595   6.144   5.051
 6623TIP3   OH219832   1.368   2.563   0.949
 6623TIP3    H119833   1.345   2.649   0.983
 6623TIP3    H219834   1.403   2.580   0.861
 6624TIP3   OH219835   6.569   2.816   0.058
 6624TIP3    H119836   6.660   2.844   0.062
 6624TIP3    H219837   6.519   2.894   0.083
 6625TIP3   OH219838   1.155   1.159   1.907
 6625TIP3    H119839   1.070   1.203   1.898
 6625TIP3    H219840   1.209   1.198   1.839
 6626TIP3   OH219841   4.156   3.202   5.480
 6626TIP3    H119842   4.086   3.228   5.419
 6626TIP3    H219843   4.224   3.164   5.424
 6627TIP3   OH219844   4.102   2.056   0.218
 6627TIP3    H119845   4.165   2.103   0.164
 6627TIP3    H219846   4.017   2.077   0.180
 6628TIP3   OH219847   2.775   3.546   1.652
 6628TIP3    H119848   2.760   3.622   1.597
 6628TIP3    H219849   2.689   3.504   1.660
 6629TIP3   OH219850   0.892   2.433   0.197
 6629TIP3    H119851   0.847   2.351   0.213
 6629TIP3    H219852   0.833   2.482   0.140
 6630TIP3   OH219853   5.202   2.318   4.884
 6630TIP3    H119854   5.154   2.320   4.967
 6630TIP3    H219855   5.145   2.271   4.824
 6631TIP3   OH219856   4.270   6.374   4.710
 6631TIP3    H119857   4.218   6.302   4.675
 6631TIP3    H219858   4.213   6.450   4.703
 6632TIP3   OH219859   2.137   5.557   1.762
 6632TIP3    H119860   2.148   5.621   1.691
 6632TIP3    H219861   2.081   5.602   1.826
 6633TIP3   OH219862   1.138   2.666   0.635
 6633TIP3    H119863   1.179   2.751   0.623
 6633TIP3    H219864   1.098   2.646   0.550
 6634TIP3   OH219865   1.506   3.951   1.296
 6634TIP3    H119866   1.519   3.869   1.344
 6634TIP3    H219867   1.432   3.993   1.340
 6635TIP3   OH219868   4.160   4.509   1.993
 6635TIP3    H119869   4.110   4.459   2.057
 6635TIP3    H219870   4.158   4.599   2.026
 6636TIP3   OH219871   4.272   5.441   0.481
 6636TIP3    H119872   4.289   5.517   0.537
 6636TIP3    H219873   4.336   5.375   0.510
 6637TIP3   OH219874   1.642   6.601   2.535
 6637TIP3    H119875   1.571   6.663   2.555
 6637TIP3    H219876   1.629   6.579   2.443
 6638TIP3   OH219877   0.552   4.625   3.904
 6638TIP3    H119878   0.625   4.602   3.847
 6638TIP3    H219879   0.560   4.566   3.979
 6639TIP3   OH219880   6.596   3.838   2.926
 6639TIP3    H119881   6.686   3.870   2.926
 6639TIP3    H219882   6.603   3.748   2.893
 6640TIP3   OH219883   4.807   3.370   3.621
 6640TIP3    H119884   4.712   3.360   3.617
 6640TIP3    H219885   4.834   3.382   3.530
 6641TIP3   OH219886   5.915   2.691   5.771
 6641TIP3    H119887   5.945   2.763   5.826
 6641TIP3    H219888   5.839   2.726   5.724
 6642TIP3   OH219889   0.037   3.201   4.949
 6642TIP3    H119890  -0.007   3.140   4.890
 6642TIP3    H219891  -0.009   3.284   4.937
 6643TIP3   OH219892   0.763   4.573   1.830
 6643TIP3    H119893   0.712   4.651   1.806
 6643TIP3    H219894   0.697   4.504   1.841
 6644TIP3   OH219895   1.807   3.792   1.404
 6644TIP3    H119896   1.779   3.877   1.439
 6644TIP3    H219897   1.796   3.801   1.309
 6645TIP3   OH219898   0.790   3.278   5.676
 6645TIP3    H119899   0.874   3.311   5.708
 6645TIP3    H219900   0.738   3.357   5.660
 6646TIP3   OH219901   1.618   0.247   4.772
 6646TIP3    H119902   1.648   0.174   4.718
 6646TIP3    H219903   1.590   0.313   4.710
 6647TIP3   OH219904   3.643   3.880   0.166
 6647TIP3    H119905   3.572   3.827   0.130
 6647TIP3    H219906   3.723   3.837   0.135
 6648TIP3   OH219907   4.642   0.567   0.203
 6648TIP3    H119908   4.669   0.483   0.165
 6648TIP3    H219909   4.575   0.599   0.143
 6649TIP3   OH219910   3.149   5.637   2.188
 6649TIP3    H119911   3.061   5.615   2.218
 6649TIP3    H219912   3.206   5.574   2.233
 6650TIP3   OH219913   4.566   5.221   2.380
 6650TIP3    H119914   4.587   5.214   2.473
 6650TIP3    H219915   4.650   5.235   2.338
 6651TIP3   OH219916   0.592   2.713   2.489
 6651TIP3    H119917   0.673   2.690   2.533
 6651TIP3    H219918   0.591   2.809   2.489
 6652TIP3   OH219919   5.107   1.729   2.305
 6652TIP3    H119920   5.089   1.749   2.397
 6652TIP3    H219921   5.021   1.737   2.263
 6653TIP3   OH219922   0.382   1.319   3.199
 6653TIP3    H119923   0.313   1.380   3.223
 6653TIP3    H219924   0.359   1.290   3.110
 6654TIP3   OH219925   3.069   1.708   3.760
 6654TIP3    H119926   3.157   1.739   3.738
 6654TIP3    H219927   3.026   1.784   3.799
 6655TIP3   OH219928   3.104   1.197   4.869
 6655TIP3    H119929   3.135   1.125   4.813
 6655TIP3    H219930   3.010   1.202   4.852
 6656TIP3   OH219931   2.341   1.930   4.158
 6656TIP3    H119932   2.356   1.863   4.091
 6656TIP3    H219933   2.403   2.000   4.137
 6657TIP3   OH219934   2.098   4.131   4.675
 6657TIP3    H119935   2.086   4.060   4.738
 6657TIP3    H219936   2.192   4.148   4.676
 6658TIP3   OH219937   3.192   5.121   1.155
 6658TIP3    H119938   3.211   5.214   1.142
 6658TIP3    H219939   3.264   5.075   1.110
 6659TIP3   OH219940   3.591   0.434   0.874
 6659TIP3    H119941   3.499   0.461   0.878
 6659TIP3    H219942   3.632   0.500   0.818
 6660TIP3   OH219943   4.061   6.158   0.293
 6660TIP3    H119944   3.972   6.124   0.308
 6660TIP3    H219945   4.069   6.162   0.198
 6661TIP3   OH219946   0.521   2.231   3.310
 6661TIP3    H119947   0.540   2.209   3.401
 6661TIP3    H219948   0.530   2.148   3.263
 6662TIP3   OH219949   5.712   6.688   4.370
 6662TIP3    H119950   5.744   6.669   4.282
 6662TIP3    H219951   5.702   6.602   4.411
 6663TIP3   OH219952   5.423   3.986   2.703
 6663TIP3    H119953   5.403   3.990   2.797
 6663TIP3    H219954   5.438   4.077   2.679
 6664TIP3   OH219955   6.539   0.545   0.770
 6664TIP3    H119956   6.483   0.569   0.844
 6664TIP3    H219957   6.514   0.455   0.749
 6665TIP3   OH219958   0.443   5.782   1.452
 6665TIP3    H119959   0.459   5.790   1.546
 6665TIP3    H219960   0.424   5.871   1.423
 6666TIP3   OH219961   2.293   2.316   3.418
 6666TIP3    H119962   2.229   2.289   3.352
 6666TIP3    H219963   2.296   2.411   3.411
 6667TIP3   OH219964   0.934   0.155   4.502
 6667TIP3    H119965   0.854   0.129   4.456
 6667TIP3    H219966   1.005   0.110   4.455
 6668TIP3   OH219967   0.485   4.735   3.243
 6668TIP3    H119968   0.559   4.796   3.248
 6668TIP3    H219969   0.483   4.693   3.329
 6669TIP3   OH219970   2.531   4.418   1.181
 6669TIP3    H119971   2.597   4.382   1.241
 6669TIP3    H219972   2.576   4.421   1.096
 6670TIP3   OH219973   7.056   4.804   1.732
 6670TIP3    H119974   7.125   4.746   1.701
 6670TIP3    H219975   6.982   4.746   1.751
 6671TIP3   OH219976   7.169   3.456   1.556
 6671TIP3    H119977   7.114   3.506   1.616
 6671TIP3    H219978   7.173   3.368   1.594
 6672TIP3   OH219979   7.232   2.067   3.694
 6672TIP3    H119980   7.186   2.083   3.611
 6672TIP3    H219981   7.174   2.007   3.742
 6673TIP3   OH219982   1.892   4.265   1.137
 6673TIP3    H119983   1.904   4.341   1.193
 6673TIP3    H219984   1.831   4.209   1.185
 6674TIP3   OH219985   5.392   2.626   2.407
 6674TIP3    H119986   5.423   2.648   2.495
 6674TIP3    H219987   5.445   2.680   2.348
 6675TIP3   OH219988   1.188   1.757   3.977
 6675TIP3    H119989   1.095   1.780   3.975
 6675TIP3    H219990   1.226   1.802   3.901
 6676TIP3   OH219991   5.580   5.420   5.794
 6676TIP3    H119992   5.582   5.515   5.787
 6676TIP3    H219993   5.514   5.402   5.860
 6677TIP3   OH219994   3.024   6.215   5.015
 6677TIP3    H119995   3.031   6.121   5.031
 6677TIP3    H219996   3.115   6.243   5.000
 6678TIP3   OH219997   2.623   0.597   1.166
 6678TIP3    H119998   2.554   0.604   1.100
 6678TIP3    H219999   2.701   0.570   1.117
 6679TIP3   OH220000   0.414   2.746   2.193
 6679TIP3    H120001   0.411   2.812   2.262
 6679TIP3    H220002   0.507   2.723   2.186
 6680TIP3   OH220003   5.286   1.551   3.910
 6680TIP3    H120004   5.332   1.635   3.910
 6680TIP3    H220005   5.227   1.555   3.985
 6681TIP3   OH220006   0.533   5.055   2.674
 6681TIP3    H120007   0.624   5.070   2.700
 6681TIP3    H220008   0.538   5.022   2.585
 6682TIP3   OH220009   3.052   4.646   5.073
 6682TIP3    H120010   3.098   4.724   5.041
 6682TIP3    H220011   3.088   4.574   5.021
 6683TIP3   OH220012   6.162   5.018   4.766
 6683TIP3    H120013   6.242   4.965   4.766
 6683TIP3    H220014   6.106   4.978   4.699
 6684TIP3   OH220015   6.822   2.617   4.173
 6684TIP3    H120016   6.749   2.574   4.218
 6684TIP3    H220017   6.813   2.709   4.196
 6685TIP3   OH220018   3.085   3.611   2.529
 6685TIP3    H120019   3.166   3.632   2.574
 6685TIP3    H220020   3.084   3.669   2.452
 6686TIP3   OH220021   5.556   4.661   1.400
 6686TIP3    H120022   5.533   4.732   1.341
 6686TIP3    H220023   5.524   4.582   1.356
 6687TIP3   OH220024   6.901   0.775   2.513
 6687TIP3    H120025   6.940   0.854   2.475
 6687TIP3    H220026   6.832   0.807   2.570
 6688TIP3   OH220027   0.589   4.189   2.017
 6688TIP3    H120028   0.612   4.100   1.992
 6688TIP3    H220029   0.516   4.180   2.077
 6689TIP3   OH220030   6.378   2.252   0.959
 6689TIP3    H120031   6.284   2.243   0.946
 6689TIP3    H220032   6.409   2.297   0.880
 6690TIP3   OH220033   4.648   4.261   5.319
 6690TIP3    H120034   4.574   4.274   5.379
 6690TIP3    H220035   4.626   4.179   5.273
 6691TIP3   OH220036   1.283   1.878   3.758
 6691TIP3    H120037   1.301   1.972   3.768
 6691TIP3    H220038   1.333   1.853   3.680
 6692TIP3   OH220039   6.208   5.622   0.785
 6692TIP3    H120040   6.154   5.548   0.813
 6692TIP3    H220041   6.174   5.645   0.699
 6693TIP3   OH220042   6.546   1.010   2.851
 6693TIP3    H120043   6.482   0.939   2.847
 6693TIP3    H220044   6.592   0.995   2.933
 6694TIP3   OH220045   2.378   2.458   3.801
 6694TIP3    H120046   2.328   2.389   3.845
 6694TIP3    H220047   2.451   2.412   3.759
 6695TIP3   OH220048   3.408   2.765   2.361
 6695TIP3    H120049   3.475   2.705   2.393
 6695TIP3    H220050   3.360   2.792   2.440
 6696TIP3   OH220051   0.491   6.484   4.308
 6696TIP3    H120052   0.422   6.417   4.311
 6696TIP3    H220053   0.555   6.455   4.373
 6697TIP3   OH220054   4.822   1.160   0.539
 6697TIP3    H120055   4.804   1.208   0.459
 6697TIP3    H220056   4.774   1.206   0.607
 6698TIP3   OH220057   0.960   1.412   2.147
 6698TIP3    H120058   0.886   1.473   2.151
 6698TIP3    H220059   0.951   1.368   2.063
 6699TIP3   OH220060   4.837   0.385   0.896
 6699TIP3    H120061   4.855   0.292   0.884
 6699TIP3    H220062   4.775   0.407   0.827
 6700TIP3   OH220063   6.804   6.273   4.193
 6700TIP3    H120064   6.744   6.284   4.267
 6700TIP3    H220065   6.847   6.189   4.210
 6701TIP3   OH220066   5.061   2.700   1.933
 6701TIP3    H120067   5.119   2.648   1.988
 6701TIP3    H220068   4.978   2.704   1.981
 6702TIP3   OH220069   0.815   6.126   2.548
 6702TIP3    H120070   0.894   6.171   2.578
 6702TIP3    H220071   0.838   6.033   2.553
 6703TIP3   OH220072   4.964   4.857   3.308
 6703TIP3    H120073   4.983   4.766   3.329
 6703TIP3    H220074   4.873   4.856   3.278
 6704TIP3   OH220075   3.748   2.245   4.670
 6704TIP3    H120076   3.729   2.320   4.614
 6704TIP3    H220077   3.723   2.275   4.758
 6705TIP3   OH220078   5.441   5.849   3.373
 6705TIP3    H120079   5.404   5.896   3.298
 6705TIP3    H220080   5.395   5.765   3.374
 6706TIP3   OH220081   5.199   3.072   4.896
 6706TIP3    H120082   5.107   3.049   4.886
 6706TIP3    H220083   5.231   3.013   4.964
 6707TIP3   OH220084   5.220   5.657   2.547
 6707TIP3    H120085   5.160   5.628   2.616
 6707TIP3    H220086   5.302   5.612   2.566
 6708TIP3   OH220087   1.884   0.380   5.557
 6708TIP3    H120088   1.926   0.427   5.485
 6708TIP3    H220089   1.957   0.341   5.605
 6709TIP3   OH220090   0.609   4.332   3.676
 6709TIP3    H120091   0.659   4.251   3.692
 6709TIP3    H220092   0.639   4.393   3.743
 6710TIP3   OH220093   0.810   5.825   4.396
 6710TIP3    H120094   0.770   5.792   4.315
 6710TIP3    H220095   0.899   5.791   4.395
 6711TIP3   OH220096   3.773   3.741   3.661
 6711TIP3    H120097   3.846   3.701   3.614
 6711TIP3    H220098   3.796   3.834   3.667
 6712TIP3   OH220099   3.320   4.111   4.676
 6712TIP3    H120100   3.299   4.088   4.586
 6712TIP3    H220101   3.259   4.059   4.729
 6713TIP3   OH220102   6.516   6.669   0.798
 6713TIP3    H120103   6.467   6.689   0.877
 6713TIP3    H220104   6.516   6.573   0.794
 6714TIP3   OH220105   2.054   3.902   5.568
 6714TIP3    H120106   1.964   3.920   5.539
 6714TIP3    H220107   2.099   3.986   5.559
 6715TIP3   OH220108   1.042   5.932   5.003
 6715TIP3    H120109   1.131   5.964   4.988
 6715TIP3    H220110   1.032   5.859   4.943
 6716TIP3   OH220111   4.721   2.268   3.333
 6716TIP3    H120112   4.660   2.336   3.359
 6716TIP3    H220113   4.772   2.306   3.262
 6717TIP3   OH220114   0.349   1.257   1.843
 6717TIP3    H120115   0.309   1.303   1.770
 6717TIP3    H220116   0.438   1.290   1.848
 6718TIP3   OH220117   3.331   1.105   2.580
 6718TIP3    H120118   3.367   1.055   2.507
 6718TIP3    H220119   3.244   1.131   2.550
 6719TIP3   OH220120   2.673   3.159   1.715
 6719TIP3    H120121   2.743   3.152   1.780
 6719TIP3    H220122   2.651   3.068   1.694
 6720TIP3   OH220123   0.164   6.423   4.421
 6720TIP3    H120124   0.073   6.408   4.446
 6720TIP3    H220125   0.169   6.518   4.408
 6721TIP3   OH220126   4.874   0.118   0.922
 6721TIP3    H120127   4.892   0.054   0.991
 6721TIP3    H220128   4.926   0.087   0.847
 6722TIP3   OH220129   1.567   5.632   3.042
 6722TIP3    H120130   1.608   5.581   3.112
 6722TIP3    H220131   1.522   5.567   2.988
 6723TIP3   OH220132   4.972   2.162   0.573
 6723TIP3    H120133   4.940   2.232   0.516
 6723TIP3    H220134   4.894   2.125   0.613
 6724TIP3   OH220135   2.981   1.140   2.158
 6724TIP3    H120136   2.970   1.049   2.186
 6724TIP3    H220137   3.039   1.134   2.082
 6725TIP3   OH220138   2.647   3.089   5.094
 6725TIP3    H120139   2.674   3.011   5.142
 6725TIP3    H220140   2.722   3.149   5.102
 6726TIP3   OH220141   5.573   1.088   0.340
 6726TIP3    H120142   5.600   1.148   0.410
 6726TIP3    H220143   5.649   1.032   0.325
 6727TIP3   OH220144   1.662   5.002   0.697
 6727TIP3    H120145   1.693   4.911   0.688
 6727TIP3    H220146   1.743   5.053   0.706
 6728TIP3   OH220147   0.523   2.963   5.142
 6728TIP3    H120148   0.461   3.006   5.202
 6728TIP3    H220149   0.599   2.943   5.196
 6729TIP3   OH220150   2.998   2.985   2.609
 6729TIP3    H120151   3.018   3.066   2.657
 6729TIP3    H220152   2.929   3.010   2.548
 6730TIP3   OH220153   3.713   6.355   5.611
 6730TIP3    H120154   3.674   6.286   5.665
 6730TIP3    H220155   3.640   6.391   5.562
 6731TIP3   OH220156   2.729   0.892   3.448
 6731TIP3    H120157   2.734   0.969   3.505
 6731TIP3    H220158   2.696   0.925   3.365
 6732TIP3   OH220159   2.079   3.380   4.464
 6732TIP3    H120160   2.050   3.466   4.433
 6732TIP3    H220161   2.126   3.343   4.389
 6733TIP3   OH220162   1.283   5.936   4.879
 6733TIP3    H120163   1.283   5.841   4.891
 6733TIP3    H220164   1.361   5.953   4.826
 6734TIP3   OH220165   2.015   5.222   1.100
 6734TIP3    H120166   1.950   5.262   1.157
 6734TIP3    H220167   2.052   5.151   1.153
 6735TIP3   OH220168   5.070   3.881   2.876
 6735TIP3    H120169   5.122   3.873   2.796
 6735TIP3    H220170   5.010   3.953   2.859
 6736TIP3   OH220171   0.500   6.670   4.111
 6736TIP3    H120172   0.507   6.613   4.187
 6736TIP3    H220173   0.455   6.616   4.045
 6737TIP3   OH220174   6.354   2.711   4.776
 6737TIP3    H120175   6.315   2.656   4.708
 6737TIP3    H220176   6.448   2.690   4.773
 6738TIP3   OH220177   1.786   1.727   4.468
 6738TIP3    H120178   1.861   1.747   4.412
 6738TIP3    H220179   1.710   1.752   4.415
 6739TIP3   OH220180   6.879   1.523   3.439
 6739TIP3    H120181   6.922   1.446   3.401
 6739TIP3    H220182   6.948   1.566   3.490
 6740TIP3   OH220183   4.729   5.893   1.010
 6740TIP3    H120184   4.661   5.957   1.033
 6740TIP3    H220185   4.799   5.945   0.972
 6741TIP3   OH220186   0.934   3.521   1.507
 6741TIP3    H120187   1.015   3.537   1.458
 6741TIP3    H220188   0.899   3.608   1.525
 6742TIP3   OH220189   5.690   2.488   5.032
 6742TIP3    H120190   5.784   2.497   5.016
 6742TIP3    H220191   5.676   2.393   5.036
 6743TIP3   OH220192   6.186   2.327   2.594
 6743TIP3    H120193   6.262   2.272   2.574
 6743TIP3    H220194   6.207   2.411   2.553
 6744TIP3   OH220195   6.904   3.509   2.511
 6744TIP3    H120196   6.930   3.533   2.422
 6744TIP3    H220197   6.968   3.442   2.536
 6745TIP3   OH220198   6.622   3.482   3.293
 6745TIP3    H120199   6.709   3.522   3.289
 6745TIP3    H220200   6.583   3.500   3.208
 6746TIP3   OH220201   3.361   2.824   0.172
 6746TIP3    H120202   3.328   2.885   0.238
 6746TIP3    H220203   3.315   2.849   0.092
 6747TIP3   OH220204   5.059   3.111   0.860
 6747TIP3    H120205   4.990   3.104   0.794
 6747TIP3    H220206   5.034   3.048   0.928
 6748TIP3   OH220207   3.842   5.270   3.461
 6748TIP3    H120208   3.862   5.345   3.516
 6748TIP3    H220209   3.914   5.209   3.476
 6749TIP3   OH220210   0.299   2.860   5.875
 6749TIP3    H120211   0.316   2.805   5.798
 6749TIP3    H220212   0.252   2.936   5.840
 6750TIP3   OH220213   5.402   4.655   5.660
 6750TIP3    H120214   5.421   4.584   5.721
 6750TIP3    H220215   5.399   4.612   5.574
 6751TIP3   OH220216   4.586   4.787   2.190
 6751TIP3    H120217   4.555   4.787   2.100
 6751TIP3    H220218   4.639   4.707   2.198
 6752TIP3   OH220219   6.986   5.473   1.960
 6752TIP3    H120220   7.079   5.455   1.952
 6752TIP3    H220221   6.946   5.428   1.886
 6753TIP3   OH220222   3.144   5.627   2.559
 6753TIP3    H120223   3.145   5.654   2.651
 6753TIP3    H220224   3.075   5.680   2.520
 6754TIP3   OH220225   3.717   1.994   4.539
 6754TIP3    H120226   3.689   2.073   4.585
 6754TIP3    H220227   3.777   2.026   4.471
 6755TIP3   OH220228   6.587   0.375   1.620
 6755TIP3    H120229   6.579   0.439   1.548
 6755TIP3    H220230   6.518   0.311   1.603
 6756TIP3   OH220231   5.465   3.689   4.465
 6756TIP3    H120232   5.381   3.733   4.459
 6756TIP3    H220233   5.509   3.731   4.539
 6757TIP3   OH220234   1.397   4.034   2.963
 6757TIP3    H120235   1.484   4.006   2.935
 6757TIP3    H220236   1.380   4.113   2.912
 6758TIP3   OH220237   1.276   2.248   0.741
 6758TIP3    H120238   1.314   2.332   0.769
 6758TIP3    H220239   1.324   2.182   0.791
 6759TIP3   OH220240   0.907   4.097   3.373
 6759TIP3    H120241   0.957   4.121   3.295
 6759TIP3    H220242   0.847   4.171   3.387
 6760TIP3   OH220243   7.102   2.553   4.163
 6760TIP3    H120244   7.008   2.564   4.173
 6760TIP3    H220245   7.119   2.462   4.188
 6761TIP3   OH220246   3.982   3.701   2.400
 6761TIP3    H120247   3.931   3.707   2.320
 6761TIP3    H220248   4.043   3.775   2.396
 6762TIP3   OH220249   0.794   6.736   4.117
 6762TIP3    H120250   0.819   6.673   4.184
 6762TIP3    H220251   0.700   6.722   4.104
 6763TIP3   OH220252   1.908   3.394   3.891
 6763TIP3    H120253   1.984   3.434   3.932
 6763TIP3    H220254   1.914   3.419   3.799
 6764TIP3   OH220255   3.687   2.386   4.204
 6764TIP3    H120256   3.753   2.352   4.143
 6764TIP3    H220257   3.604   2.350   4.173
 6765TIP3   OH220258   4.188   1.335   2.854
 6765TIP3    H120259   4.243   1.411   2.840
 6765TIP3    H220260   4.109   1.353   2.803
 6766TIP3   OH220261   1.031   2.313   3.587
 6766TIP3    H120262   1.022   2.388   3.647
 6766TIP3    H220263   0.955   2.321   3.529
 6767TIP3   OH220264   2.943   2.361   1.938
 6767TIP3    H120265   2.854   2.390   1.918
 6767TIP3    H220266   2.972   2.420   2.007
 6768TIP3   OH220267   0.169   5.133   0.989
 6768TIP3    H120268   0.090   5.163   1.035
 6768TIP3    H220269   0.155   5.039   0.978
 6769TIP3   OH220270   6.991   1.290   4.314
 6769TIP3    H120271   7.054   1.223   4.288
 6769TIP3    H220272   7.012   1.309   4.405
 6770TIP3   OH220273   1.715   2.873   0.643
 6770TIP3    H120274   1.802   2.902   0.671
 6770TIP3    H220275   1.730   2.786   0.604
 6771TIP3   OH220276   4.317   6.475   2.408
 6771TIP3    H120277   4.383   6.407   2.393
 6771TIP3    H220278   4.366   6.550   2.442
 6772TIP3   OH220279   3.613   3.454   4.818
 6772TIP3    H120280   3.624   3.398   4.895
 6772TIP3    H220281   3.521   3.481   4.820
 6773TIP3   OH220282   4.411   0.134   3.405
 6773TIP3    H120283   4.473   0.148   3.334
 6773TIP3    H220284   4.450   0.064   3.458
 6774TIP3   OH220285   6.409   5.385   4.342
 6774TIP3    H120286   6.338   5.372   4.405
 6774TIP3    H220287   6.480   5.330   4.374
 6775TIP3   OH220288   5.798   2.422   4.048
 6775TIP3    H120289   5.775   2.513   4.065
 6775TIP3    H220290   5.875   2.426   3.991
 6776TIP3   OH220291   1.493   4.432   0.576
 6776TIP3    H120292   1.420   4.385   0.534
 6776TIP3    H220293   1.495   4.516   0.532
 6777TIP3   OH220294   6.108   2.296   5.079
 6777TIP3    H120295   6.193   2.315   5.039
 6777TIP3    H220296   6.107   2.348   5.159
 6778TIP3   OH220297   1.501   0.305   3.762
 6778TIP3    H120298   1.468   0.372   3.702
 6778TIP3    H220299   1.422   0.263   3.796
 6779TIP3   OH220300   6.751   5.792   4.295
 6779TIP3    H120301   6.805   5.870   4.281
 6779TIP3    H220302   6.794   5.724   4.244
 6780TIP3   OH220303   2.631   2.800   2.453
 6780TIP3    H120304   2.681   2.721   2.435
 6780TIP3    H220305   2.684   2.871   2.414
 6781TIP3   OH220306   2.876   5.889   0.952
 6781TIP3    H120307   2.829   5.838   0.886
 6781TIP3    H220308   2.967   5.864   0.941
 6782TIP3   OH220309   4.325   2.243   0.632
 6782TIP3    H120310   4.362   2.330   0.648
 6782TIP3    H220311   4.234   2.250   0.662
 6783TIP3   OH220312   0.411   5.094   1.143
 6783TIP3    H120313   0.334   5.128   1.097
 6783TIP3    H220314   0.466   5.171   1.157
 6784TIP3   OH220315   6.154   1.135   1.285
 6784TIP3    H120316   6.114   1.212   1.325
 6784TIP3    H220317   6.228   1.115   1.343
 6785TIP3   OH220318   3.462   6.530   2.983
 6785TIP3    H120319   3.461   6.490   3.069
 6785TIP3    H220320   3.379   6.576   2.976
 6786TIP3   OH220321   5.123   6.494   2.327
 6786TIP3    H120322   5.196   6.554   2.341
 6786TIP3    H220323   5.060   6.517   2.395
 6787TIP3   OH220324   4.383   6.665   3.131
 6787TIP3    H120325   4.293   6.697   3.137
 6787TIP3    H220326   4.425   6.724   3.069
 6788TIP3   OH220327   0.584   0.021   2.728
 6788TIP3    H120328   0.652   0.028   2.661
 6788TIP3    H220329   0.536  -0.058   2.705
 6789TIP3   OH220330   3.744   5.996   3.004
 6789TIP3    H120331   3.769   5.913   2.965
 6789TIP3    H220332   3.783   5.994   3.092
 6790TIP3   OH220333   3.742   2.635   0.002
 6790TIP3    H120334   3.655   2.615   0.035
 6790TIP3    H220335   3.799   2.628   0.079
 6791TIP3   OH220336   2.282   1.713   2.142
 6791TIP3    H120337   2.257   1.624   2.119
 6791TIP3    H220338   2.211   1.745   2.196
 6792TIP3   OH220339   3.067   5.269   3.225
 6792TIP3    H120340   3.103   5.266   3.314
 6792TIP3    H220341   2.985   5.318   3.235
 6793TIP3   OH220342   4.176   5.404   2.361
 6793TIP3    H120343   4.234   5.359   2.300
 6793TIP3    H220344   4.134   5.472   2.308
 6794TIP3   OH220345   6.370   4.348   5.033
 6794TIP3    H120346   6.363   4.410   4.960
 6794TIP3    H220347   6.291   4.364   5.085
 6795TIP3   OH220348   4.093   6.524   4.060
 6795TIP3    H120349   4.019   6.466   4.041
 6795TIP3    H220350   4.099   6.581   3.983
 6796TIP3   OH220351   5.743   0.659   3.265
 6796TIP3    H120352   5.832   0.645   3.297
 6796TIP3    H220353   5.697   0.577   3.284
 6797TIP3   OH220354   6.894   0.496   4.178
 6797TIP3    H120355   6.913   0.407   4.208
 6797TIP3    H220356   6.937   0.502   4.093
 6798TIP3   OH220357   6.943   6.620   3.686
 6798TIP3    H120358   6.958   6.555   3.754
 6798TIP3    H220359   6.849   6.637   3.689
 6799TIP3   OH220360   3.910   6.078   3.989
 6799TIP3    H120361   3.876   5.988   3.984
 6799TIP3    H220362   4.002   6.067   4.014
 6800TIP3   OH220363   4.511   1.189   5.614
 6800TIP3    H120364   4.531   1.279   5.641
 6800TIP3    H220365   4.416   1.181   5.624
 6801TIP3   OH220366   3.002   2.496   1.346
 6801TIP3    H120367   2.959   2.414   1.322
 6801TIP3    H220368   2.939   2.539   1.404
 6802TIP3   OH220369   3.517   2.877   5.585
 6802TIP3    H120370   3.507   2.972   5.587
 6802TIP3    H220371   3.534   2.852   5.676
 6803TIP3   OH220372   1.518   3.556   1.925
 6803TIP3    H120373   1.468   3.475   1.940
 6803TIP3    H220374   1.556   3.577   2.010
 6804TIP3   OH220375   6.125   3.412   3.909
 6804TIP3    H120376   6.122   3.329   3.860
 6804TIP3    H220377   6.181   3.468   3.855
 6805TIP3   OH220378   3.628   5.384   4.315
 6805TIP3    H120379   3.534   5.374   4.331
 6805TIP3    H220380   3.669   5.317   4.371
 6806TIP3   OH220381   0.235   0.572   3.816
 6806TIP3    H120382   0.282   0.518   3.879
 6806TIP3    H220383   0.257   0.662   3.840
 6807TIP3   OH220384   3.195   2.663   3.570
 6807TIP3    H120385   3.266   2.630   3.623
 6807TIP3    H220386   3.137   2.707   3.632
 6808TIP3   OH220387   0.485   4.532   5.291
 6808TIP3    H120388   0.511   4.609   5.240
 6808TIP3    H220389   0.398   4.511   5.259
 6809TIP3   OH220390   5.026   4.145   0.870
 6809TIP3    H120391   4.986   4.112   0.951
 6809TIP3    H220392   4.980   4.228   0.853
 6810TIP3   OH220393   1.374   2.513   0.670
 6810TIP3    H120394   1.430   2.576   0.624
 6810TIP3    H220395   1.285   2.541   0.649
 6811TIP3   OH220396   4.300   2.441   1.555
 6811TIP3    H120397   4.273   2.530   1.577
 6811TIP3    H220398   4.239   2.385   1.604
 6812TIP3   OH220399   3.699   6.421   0.088
 6812TIP3    H120400   3.710   6.330   0.057
 6812TIP3    H220401   3.619   6.450   0.045
 6813TIP3   OH220402   5.426   6.404   2.205
 6813TIP3    H120403   5.501   6.353   2.173
 6813TIP3    H220404   5.457   6.444   2.286
 6814TIP3   OH220405   1.644   1.826   0.325
 6814TIP3    H120406   1.722   1.785   0.362
 6814TIP3    H220407   1.578   1.819   0.394
 6815TIP3   OH220408   3.821   0.869   4.829
 6815TIP3    H120409   3.734   0.836   4.807
 6815TIP3    H220410   3.815   0.896   4.920
 6816TIP3   OH220411   4.444   6.714   2.507
 6816TIP3    H120412   4.469   6.703   2.599
 6816TIP3    H220413   4.383   6.787   2.508
 6817TIP3   OH220414   5.718   1.398   2.623
 6817TIP3    H120415   5.649   1.340   2.591
 6817TIP3    H220416   5.686   1.429   2.708
 6818TIP3   OH220417   2.736   0.327   3.813
 6818TIP3    H120418   2.787   0.309   3.892
 6818TIP3    H220419   2.768   0.263   3.750
 6819TIP3   OH220420   0.355   4.603   4.172
 6819TIP3    H120421   0.424   4.542   4.150
 6819TIP3    H220422   0.361   4.613   4.267
 6820TIP3   OH220423   0.245   2.188   1.822
 6820TIP3    H120424   0.261   2.251   1.752
 6820TIP3    H220425   0.161   2.214   1.859
 6821TIP3   OH220426   4.013   0.428   3.629
 6821TIP3    H120427   4.055   0.362   3.573
 6821TIP3    H220428   4.042   0.511   3.594
 6822TIP3   OH220429   1.092   1.725   3.612
 6822TIP3    H120430   1.110   1.789   3.681
 6822TIP3    H220431   1.015   1.677   3.644
 6823TIP3   OH220432   6.073   2.440   3.891
 6823TIP3    H120433   6.082   2.439   3.796
 6823TIP3    H220434   6.156   2.474   3.923
 6824TIP3   OH220435   6.587   0.575   1.453
 6824TIP3    H120436   6.659   0.631   1.428
 6824TIP3    H220437   6.525   0.633   1.498
 6825TIP3   OH220438   0.688   0.314   0.146
 6825TIP3    H120439   0.650   0.382   0.202
 6825TIP3    H220440   0.614   0.273   0.103
 6826TIP3   OH220441   2.653   1.366   1.754
 6826TIP3    H120442   2.628   1.286   1.800
 6826TIP3    H220443   2.600   1.435   1.795
 6827TIP3   OH220444   5.663   2.309   0.740
 6827TIP3    H120445   5.624   2.388   0.776
 6827TIP3    H220446   5.689   2.257   0.816
 6828TIP3   OH220447   2.970   2.608   5.841
 6828TIP3    H120448   3.001   2.544   5.905
 6828TIP3    H220449   3.016   2.586   5.761
 6829TIP3   OH220450   3.951   4.967   1.124
 6829TIP3    H120451   3.979   4.876   1.133
 6829TIP3    H220452   4.000   5.000   1.048
 6830TIP3   OH220453   1.077   1.793   1.759
 6830TIP3    H120454   0.988   1.793   1.724
 6830TIP3    H220455   1.104   1.701   1.754
 6831TIP3   OH220456   5.921   5.884   3.194
 6831TIP3    H120457   5.914   5.789   3.203
 6831TIP3    H220458   5.852   5.918   3.251
 6832TIP3   OH220459   2.467   5.437   5.334
 6832TIP3    H120460   2.403   5.367   5.344
 6832TIP3    H220461   2.548   5.401   5.370
 6833TIP3   OH220462   3.057   4.451   3.954
 6833TIP3    H120463   3.113   4.528   3.943
 6833TIP3    H220464   2.968   4.486   3.945
 6834TIP3   OH220465   6.042   4.169   3.872
 6834TIP3    H120466   6.096   4.110   3.925
 6834TIP3    H220467   6.076   4.159   3.783
 6835TIP3   OH220468   3.253   5.419   1.058
 6835TIP3    H120469   3.341   5.456   1.045
 6835TIP3    H220470   3.210   5.481   1.117
 6836TIP3   OH220471   4.502   4.458   0.689
 6836TIP3    H120472   4.438   4.474   0.758
 6836TIP3    H220473   4.535   4.370   0.707
 6837TIP3   OH220474   4.974   2.466   5.759
 6837TIP3    H120475   5.004   2.379   5.782
 6837TIP3    H220476   4.945   2.458   5.668
 6838TIP3   OH220477   4.166   5.611   1.164
 6838TIP3    H120478   4.191   5.658   1.243
 6838TIP3    H220479   4.207   5.659   1.092
 6839TIP3   OH220480   1.240   5.274   0.266
 6839TIP3    H120481   1.171   5.250   0.204
 6839TIP3    H220482   1.197   5.272   0.351
 6840TIP3   OH220483   3.689   1.287   0.023
 6840TIP3    H120484   3.683   1.336   0.105
 6840TIP3    H220485   3.631   1.212   0.035
 6841TIP3   OH220486   2.947   3.221   1.337
 6841TIP3    H120487   2.944   3.186   1.426
 6841TIP3    H220488   3.019   3.284   1.338
 6842TIP3   OH220489   5.653   0.002   1.609
 6842TIP3    H120490   5.730  -0.002   1.552
 6842TIP3    H220491   5.687  -0.022   1.695
 6843TIP3   OH220492   3.045   0.796   1.395
 6843TIP3    H120493   3.094   0.791   1.477
 6843TIP3    H220494   3.101   0.847   1.337
 6844TIP3   OH220495   5.963   3.959   2.280
 6844TIP3    H120496   6.007   4.023   2.222
 6844TIP3    H220497   6.022   3.951   2.355
 6845TIP3   OH220498   6.026   4.255   1.229
 6845TIP3    H120499   6.109   4.221   1.196
 6845TIP3    H220500   6.035   4.350   1.222
 6846TIP3   OH220501   2.498   4.211   5.844
 6846TIP3    H120502   2.481   4.268   5.770
 6846TIP3    H220503   2.507   4.271   5.919
 6847TIP3   OH220504   0.136   3.594   1.860
 6847TIP3    H120505   0.117   3.680   1.823
 6847TIP3    H220506   0.054   3.568   1.903
 6848TIP3   OH220507   2.604   6.458   3.645
 6848TIP3    H120508   2.515   6.432   3.621
 6848TIP3    H220509   2.658   6.384   3.618
 6849TIP3   OH220510   3.582   5.175   3.676
 6849TIP3    H120511   3.538   5.116   3.615
 6849TIP3    H220512   3.513   5.204   3.736
 6850TIP3   OH220513   5.311   3.099   4.148
 6850TIP3    H120514   5.251   3.033   4.113
 6850TIP3    H220515   5.379   3.049   4.193
 6851TIP3   OH220516   6.627   1.388   4.521
 6851TIP3    H120517   6.532   1.402   4.518
 6851TIP3    H220518   6.658   1.417   4.435
 6852TIP3   OH220519   2.894   1.893   5.231
 6852TIP3    H120520   2.808   1.858   5.208
 6852TIP3    H220521   2.937   1.907   5.147
 6853TIP3   OH220522   4.859   6.087   5.840
 6853TIP3    H120523   4.804   6.016   5.873
 6853TIP3    H220524   4.921   6.044   5.782
 6854TIP3   OH220525   0.993   1.342   4.538
 6854TIP3    H120526   1.085   1.340   4.564
 6854TIP3    H220527   0.985   1.274   4.472
 6855TIP3   OH220528   6.935   0.380   4.770
 6855TIP3    H120529   6.853   0.427   4.755
 6855TIP3    H220530   6.919   0.328   4.848
 6856TIP3   OH220531   1.355   5.254   4.579
 6856TIP3    H120532   1.272   5.213   4.603
 6856TIP3    H220533   1.359   5.245   4.484
 6857TIP3   OH220534   2.243   2.246   0.596
 6857TIP3    H120535   2.326   2.244   0.643
 6857TIP3    H220536   2.195   2.169   0.628
 6858TIP3   OH220537   5.984   0.964   2.091
 6858TIP3    H120538   6.039   1.005   2.158
 6858TIP3    H220539   5.959   1.035   2.032
 6859TIP3   OH220540   6.675   6.040   4.518
 6859TIP3    H120541   6.598   5.988   4.540
 6859TIP3    H220542   6.674   6.047   4.423
 6860TIP3   OH220543   2.435   1.166   5.379
 6860TIP3    H120544   2.494   1.194   5.449
 6860TIP3    H220545   2.400   1.248   5.343
 6861TIP3   OH220546   2.148   4.010   0.366
 6861TIP3    H120547   2.180   4.025   0.277
 6861TIP3    H220548   2.052   4.013   0.358
 6862TIP3   OH220549   3.577   2.340   3.790
 6862TIP3    H120550   3.665   2.351   3.826
 6862TIP3    H220551   3.532   2.283   3.852
 6863TIP3   OH220552   4.493   5.169   4.012
 6863TIP3    H120553   4.431   5.106   4.047
 6863TIP3    H220554   4.438   5.234   3.968
 6864TIP3   OH220555   0.553   1.516   0.011
 6864TIP3    H120556   0.608   1.583   0.052
 6864TIP3    H220557   0.478   1.508   0.070
 6865TIP3   OH220558   1.625   4.286   5.675
 6865TIP3    H120559   1.603   4.300   5.583
 6865TIP3    H220560   1.568   4.214   5.703
 6866TIP3   OH220561   3.338   1.984   5.176
 6866TIP3    H120562   3.352   1.981   5.270
 6866TIP3    H220563   3.374   1.901   5.144
 6867TIP3   OH220564   1.649   5.158   1.048
 6867TIP3    H120565   1.632   5.214   0.972
 6867TIP3    H220566   1.681   5.076   1.010
 6868TIP3   OH220567   0.320   0.412   1.737
 6868TIP3    H120568   0.231   0.439   1.761
 6868TIP3    H220569   0.368   0.411   1.820
 6869TIP3   OH220570   6.564   3.315   0.624
 6869TIP3    H120571   6.637   3.270   0.582
 6869TIP3    H220572   6.553   3.271   0.708
 6870TIP3   OH220573   1.745   6.235   0.704
 6870TIP3    H120574   1.716   6.320   0.671
 6870TIP3    H220575   1.791   6.195   0.630
 6871TIP3   OH220576   5.804   1.897   0.639
 6871TIP3    H120577   5.718   1.856   0.647
 6871TIP3    H220578   5.787   1.978   0.591
 6872TIP3   OH220579   2.296   5.694   0.085
 6872TIP3    H120580   2.235   5.665   0.017
 6872TIP3    H220581   2.270   5.646   0.163
 6873TIP3   OH220582   6.881   5.711   5.222
 6873TIP3    H120583   6.841   5.643   5.277
 6873TIP3    H220584   6.843   5.696   5.135
 6874TIP3   OH220585   6.294   5.658   3.707
 6874TIP3    H120586   6.342   5.579   3.682
 6874TIP3    H220587   6.305   5.718   3.633
 6875TIP3   OH220588   6.598   2.148   2.792
 6875TIP3    H120589   6.555   2.135   2.877
 6875TIP3    H220590   6.675   2.201   2.813
 6876TIP3   OH220591   4.401   2.839   4.496
 6876TIP3    H120592   4.339   2.841   4.569
 6876TIP3    H220593   4.471   2.899   4.524
 6877TIP3   OH220594   3.295   0.565   1.331
 6877TIP3    H120595   3.278   0.594   1.421
 6877TIP3    H220596   3.212   0.577   1.286
 6878TIP3   OH220597   2.518   0.009   1.666
 6878TIP3    H120598   2.507   0.085   1.723
 6878TIP3    H220599   2.565   0.043   1.590
 6879TIP3   OH220600   0.525   4.065   5.069
 6879TIP3    H120601   0.497   3.992   5.124
 6879TIP3    H220602   0.536   4.026   4.982
 6880TIP3   OH220603   2.001   5.970   3.057
 6880TIP3    H120604   1.954   5.953   2.976
 6880TIP3    H220605   2.049   6.051   3.040
 6881TIP3   OH220606   5.217   5.785   3.913
 6881TIP3    H120607   5.295   5.756   3.960
 6881TIP3    H220608   5.178   5.851   3.970
 6882TIP3   OH220609   3.064   3.472   2.205
 6882TIP3    H120610   3.091   3.538   2.269
 6882TIP3    H220611   3.073   3.389   2.251
 6883TIP3   OH220612   1.780   2.199   5.674
 6883TIP3    H120613   1.862   2.237   5.706
 6883TIP3    H220614   1.758   2.251   5.597
 6884TIP3   OH220615   5.793   3.278   5.606
 6884TIP3    H120616   5.833   3.212   5.664
 6884TIP3    H220617   5.699   3.264   5.615
 6885TIP3   OH220618   0.270   3.128   3.357
 6885TIP3    H120619   0.186   3.105   3.396
 6885TIP3    H220620   0.281   3.067   3.284
 6886TIP3   OH220621   4.913   0.741   5.523
 6886TIP3    H120622   4.924   0.673   5.457
 6886TIP3    H220623   4.818   0.753   5.529
 6887TIP3   OH220624   1.249   4.077   5.596
 6887TIP3    H120625   1.314   4.058   5.664
 6887TIP3    H220626   1.279   4.158   5.556
 6888TIP3   OH220627   2.262   0.915   2.953
 6888TIP3    H120628   2.248   1.001   2.915
 6888TIP3    H220629   2.307   0.866   2.884
 6889TIP3   OH220630   1.678   5.278   2.887
 6889TIP3    H120631   1.692   5.218   2.813
 6889TIP3    H220632   1.735   5.353   2.867
 6890TIP3   OH220633   4.041   0.246   1.962
 6890TIP3    H120634   4.041   0.338   1.989
 6890TIP3    H220635   3.970   0.206   2.011
 6891TIP3   OH220636   6.229   0.262   5.876
 6891TIP3    H120637   6.158   0.198   5.883
 6891TIP3    H220638   6.298   0.216   5.828
 6892TIP3   OH220639   4.181   1.240   3.416
 6892TIP3    H120640   4.234   1.227   3.338
 6892TIP3    H220641   4.244   1.260   3.486
 6893TIP3   OH220642   6.586   5.201   0.753
 6893TIP3    H120643   6.567   5.121   0.704
 6893TIP3    H220644   6.501   5.243   0.762
 6894TIP3   OH220645   0.352   1.709   1.110
 6894TIP3    H120646   0.407   1.763   1.166
 6894TIP3    H220647   0.266   1.709   1.153
 6895TIP3   OH220648   3.518   0.878   5.135
 6895TIP3    H120649   3.543   0.795   5.175
 6895TIP3    H220650   3.450   0.913   5.193
 6896TIP3   OH220651   4.507   0.534   5.635
 6896TIP3    H120652   4.589   0.560   5.677
 6896TIP3    H220653   4.500   0.440   5.653
 6897TIP3   OH220654   0.452   2.844   3.437
 6897TIP3    H120655   0.426   2.856   3.346
 6897TIP3    H220656   0.380   2.880   3.489
 6898TIP3   OH220657   2.783   0.279   2.983
 6898TIP3    H120658   2.714   0.240   3.037
 6898TIP3    H220659   2.851   0.212   2.977
 6899TIP3   OH220660   1.706   0.489   3.777
 6899TIP3    H120661   1.717   0.513   3.869
 6899TIP3    H220662   1.642   0.417   3.779
 6900TIP3   OH220663   4.161   6.470   1.081
 6900TIP3    H120664   4.213   6.496   1.157
 6900TIP3    H220665   4.151   6.375   1.091
 6901TIP3   OH220666   5.440   0.563   1.401
 6901TIP3    H120667   5.473   0.621   1.332
 6901TIP3    H220668   5.368   0.516   1.360
 6902TIP3   OH220669   2.880   4.116   4.465
 6902TIP3    H120670   2.934   4.077   4.396
 6902TIP3    H220671   2.811   4.161   4.417
 6903TIP3   OH220672   4.213   2.778   4.663
 6903TIP3    H120673   4.126   2.796   4.629
 6903TIP3    H220674   4.220   2.683   4.663
 6904TIP3   OH220675   4.653   1.697   5.086
 6904TIP3    H120676   4.703   1.671   5.164
 6904TIP3    H220677   4.709   1.761   5.042
 6905TIP3   OH220678   0.291   1.638   0.182
 6905TIP3    H120679   0.353   1.696   0.227
 6905TIP3    H220680   0.222   1.697   0.151
 6906TIP3   OH220681   1.557   1.376   2.084
 6906TIP3    H120682   1.594   1.399   1.998
 6906TIP3    H220683   1.462   1.377   2.070
 6907TIP3   OH220684   5.853   3.085   5.791
 6907TIP3    H120685   5.901   3.030   5.852
 6907TIP3    H220686   5.769   3.102   5.834
 6908TIP3   OH220687   2.924   0.542   2.919
 6908TIP3    H120688   2.947   0.465   2.972
 6908TIP3    H220689   2.843   0.574   2.958
 6909TIP3   OH220690   6.713   4.789   4.407
 6909TIP3    H120691   6.736   4.882   4.403
 6909TIP3    H220692   6.733   4.764   4.498
 6910TIP3   OH220693   5.641   4.828   1.913
 6910TIP3    H120694   5.584   4.841   1.837
 6910TIP3    H220695   5.612   4.895   1.975
 6911TIP3   OH220696   2.184   4.060   0.083
 6911TIP3    H120697   2.166   4.028  -0.006
 6911TIP3    H220698   2.236   4.138   0.070
 6912TIP3   OH220699   0.969   5.447   5.360
 6912TIP3    H120700   0.969   5.533   5.401
 6912TIP3    H220701   1.032   5.453   5.289
 6913TIP3   OH220702   6.094   4.281   3.143
 6913TIP3    H120703   6.033   4.210   3.160
 6913TIP3    H220704   6.073   4.347   3.210
 6914TIP3   OH220705   5.963   2.699   2.916
 6914TIP3    H120706   6.058   2.691   2.921
 6914TIP3    H220707   5.932   2.668   3.001
 6915TIP3   OH220708   0.206   1.746   2.708
 6915TIP3    H120709   0.300   1.737   2.690
 6915TIP3    H220710   0.180   1.661   2.742
 6916TIP3   OH220711   2.394   5.233   0.167
 6916TIP3    H120712   2.476   5.216   0.120
 6916TIP3    H220713   2.404   5.321   0.203
 6917TIP3   OH220714   6.685   4.712   1.244
 6917TIP3    H120715   6.712   4.804   1.247
 6917TIP3    H220716   6.738   4.674   1.174
 6918TIP3   OH220717   2.154   0.696   0.937
 6918TIP3    H120718   2.131   0.607   0.909
 6918TIP3    H220719   2.100   0.711   1.015
 6919TIP3   OH220720   6.180   2.837   4.487
 6919TIP3    H120721   6.146   2.873   4.568
 6919TIP3    H220722   6.229   2.759   4.514
 6920TIP3   OH220723   4.797   2.283   2.154
 6920TIP3    H120724   4.855   2.210   2.131
 6920TIP3    H220725   4.721   2.241   2.194
 6921TIP3   OH220726   6.398   5.165   1.501
 6921TIP3    H120727   6.414   5.072   1.517
 6921TIP3    H220728   6.460   5.189   1.433
 6922TIP3   OH220729   6.405   3.837   2.171
 6922TIP3    H120730   6.391   3.773   2.241
 6922TIP3    H220731   6.438   3.915   2.215
 6923TIP3   OH220732   1.918   2.428   3.456
 6923TIP3    H120733   2.000   2.431   3.505
 6923TIP3    H220734   1.904   2.335   3.437
 6924TIP3   OH220735   6.461   2.210   3.845
 6924TIP3    H120736   6.495   2.257   3.922
 6924TIP3    H220737   6.463   2.118   3.870
 6925TIP3   OH220738   3.013   1.981   4.482
 6925TIP3    H120739   2.991   2.030   4.403
 6925TIP3    H220740   3.042   1.896   4.451
 6926TIP3   OH220741   2.310   5.789   5.242
 6926TIP3    H120742   2.358   5.857   5.194
 6926TIP3    H220743   2.359   5.778   5.323
 6927TIP3   OH220744   0.528   5.584   3.135
 6927TIP3    H120745   0.592   5.518   3.162
 6927TIP3    H220746   0.448   5.561   3.181
 6928TIP3   OH220747   1.847   1.348   3.271
 6928TIP3    H120748   1.941   1.340   3.291
 6928TIP3    H220749   1.811   1.262   3.291
 6929TIP3   OH220750   5.180   0.536   0.590
 6929TIP3    H120751   5.094   0.509   0.558
 6929TIP3    H220752   5.227   0.565   0.512
 6930TIP3   OH220753   1.043   6.745   4.803
 6930TIP3    H120754   1.022   6.814   4.866
 6930TIP3    H220755   0.969   6.685   4.808
 6931TIP3   OH220756   2.928   5.165   2.235
 6931TIP3    H120757   2.903   5.150   2.326
 6931TIP3    H220758   2.889   5.092   2.187
 6932TIP3   OH220759   4.103   3.448   0.609
 6932TIP3    H120760   4.071   3.385   0.674
 6932TIP3    H220761   4.096   3.401   0.526
 6933TIP3   OH220762   6.226   4.213   1.909
 6933TIP3    H120763   6.217   4.257   1.994
 6933TIP3    H220764   6.199   4.122   1.926
 6934TIP3   OH220765   1.763   1.898   1.278
 6934TIP3    H120766   1.842   1.905   1.225
 6934TIP3    H220767   1.747   1.987   1.310
 6935TIP3   OH220768   4.040   2.439   2.891
 6935TIP3    H120769   3.974   2.370   2.885
 6935TIP3    H220770   4.032   2.473   2.980
 6936TIP3   OH220771   1.132   1.003   5.597
 6936TIP3    H120772   1.205   0.998   5.658
 6936TIP3    H220773   1.054   0.993   5.651
 6937TIP3   OH220774   6.548   1.988   2.316
 6937TIP3    H120775   6.497   2.063   2.285
 6937TIP3    H220776   6.577   2.014   2.403
 6938TIP3   OH220777   6.175   3.306   4.543
 6938TIP3    H120778   6.248   3.245   4.528
 6938TIP3    H220779   6.157   3.298   4.637
 6939TIP3   OH220780   2.049   4.733   0.622
 6939TIP3    H120781   2.035   4.643   0.594
 6939TIP3    H220782   2.137   4.732   0.662
 6940TIP3   OH220783   2.577   2.670   5.082
 6940TIP3    H120784   2.621   2.744   5.125
 6940TIP3    H220785   2.560   2.607   5.152
 6941TIP3   OH220786   2.433   6.853   3.629
 6941TIP3    H120787   2.457   6.814   3.545
 6941TIP3    H220788   2.512   6.898   3.659
 6942TIP3   OH220789   2.869   6.403   1.249
 6942TIP3    H120790   2.895   6.362   1.166
 6942TIP3    H220791   2.869   6.497   1.229
 6943TIP3   OH220792   6.194   6.092   5.428
 6943TIP3    H120793   6.100   6.083   5.420
 6943TIP3    H220794   6.216   6.047   5.510
 6944TIP3   OH220795   6.019   4.522   2.630
 6944TIP3    H120796   6.109   4.544   2.608
 6944TIP3    H220797   5.972   4.605   2.625
 6945TIP3   OH220798   3.382   2.203   1.078
 6945TIP3    H120799   3.298   2.205   1.124
 6945TIP3    H220800   3.429   2.130   1.117
 6946TIP3   OH220801   1.767   2.297   1.321
 6946TIP3    H120802   1.841   2.346   1.358
 6946TIP3    H220803   1.797   2.271   1.234
 6947TIP3   OH220804   1.776   2.594   4.242
 6947TIP3    H120805   1.823   2.576   4.161
 6947TIP3    H220806   1.838   2.646   4.294
 6948TIP3   OH220807   2.431   4.654   3.839
 6948TIP3    H120808   2.382   4.643   3.921
 6948TIP3    H220809   2.510   4.602   3.851
 6949TIP3   OH220810   1.047   3.477   0.240
 6949TIP3    H120811   1.084   3.558   0.204
 6949TIP3    H220812   1.062   3.412   0.171
 6950TIP3   OH220813   5.126   1.471   2.075
 6950TIP3    H120814   5.115   1.449   2.168
 6950TIP3    H220815   5.078   1.403   2.028
 6951TIP3   OH220816   6.013   3.214   4.343
 6951TIP3    H120817   6.092   3.228   4.394
 6951TIP3    H220818   6.001   3.294   4.292
 6952TIP3   OH220819   7.118   0.300   5.607
 6952TIP3    H120820   7.204   0.334   5.583
 6952TIP3    H220821   7.103   0.227   5.547
 6953TIP3   OH220822   5.180  -0.040   2.018
 6953TIP3    H120823   5.201  -0.132   2.036
 6953TIP3    H220824   5.159  -0.003   2.104
 6954TIP3   OH220825   2.979   0.763   5.617
 6954TIP3    H120826   2.898   0.809   5.640
 6954TIP3    H220827   2.965   0.734   5.527
 6955TIP3   OH220828   1.846   0.068   4.532
 6955TIP3    H120829   1.922   0.058   4.476
 6955TIP3    H220830   1.878   0.117   4.608
 6956TIP3   OH220831   1.885   1.904   2.706
 6956TIP3    H120832   1.861   1.841   2.773
 6956TIP3    H220833   1.877   1.855   2.623
 6957TIP3   OH220834   6.652   4.189   4.996
 6957TIP3    H120835   6.737   4.233   4.991
 6957TIP3    H220836   6.660   4.114   4.938
 6958TIP3   OH220837   6.972   0.639   2.972
 6958TIP3    H120838   6.889   0.629   2.926
 6958TIP3    H220839   7.011   0.552   2.971
 6959TIP3   OH220840   5.758   5.817   2.175
 6959TIP3    H120841   5.704   5.812   2.254
 6959TIP3    H220842   5.696   5.834   2.104
 6960TIP3   OH220843   1.767   2.126   4.646
 6960TIP3    H120844   1.840   2.119   4.584
 6960TIP3    H220845   1.689   2.103   4.595
 6961TIP3   OH220846   3.455   0.706   0.638
 6961TIP3    H120847   3.453   0.741   0.727
 6961TIP3    H220848   3.547   0.682   0.624
 6962TIP3   OH220849   4.642   0.074   3.259
 6962TIP3    H120850   4.648   0.090   3.164
 6962TIP3    H220851   4.726   0.103   3.293
 6963TIP3   OH220852   6.396   1.783   1.155
 6963TIP3    H120853   6.367   1.848   1.090
 6963TIP3    H220854   6.344   1.705   1.136
 6964TIP3   OH220855   6.502   4.806   2.201
 6964TIP3    H120856   6.596   4.794   2.214
 6964TIP3    H220857   6.485   4.772   2.113
 6965TIP3   OH220858   0.788   5.182   4.810
 6965TIP3    H120859   0.861   5.141   4.765
 6965TIP3    H220860   0.748   5.239   4.744
 6966TIP3   OH220861   7.159   2.406   5.185
 6966TIP3    H120862   7.088   2.467   5.204
 6966TIP3    H220863   7.127   2.355   5.111
 6967TIP3   OH220864   2.366   4.906   2.613
 6967TIP3    H120865   2.413   4.852   2.549
 6967TIP3    H220866   2.296   4.947   2.563
 6968TIP3   OH220867   4.558   0.969   0.191
 6968TIP3    H120868   4.643   0.956   0.233
 6968TIP3    H220869   4.539   1.062   0.203
 6969TIP3   OH220870   4.314   2.103   3.907
 6969TIP3    H120871   4.361   2.088   3.824
 6969TIP3    H220872   4.367   2.058   3.973
 6970TIP3   OH220873   3.425   1.702   1.551
 6970TIP3    H120874   3.490   1.696   1.621
 6970TIP3    H220875   3.341   1.691   1.596
 6971TIP3   OH220876   2.507   1.227   4.119
 6971TIP3    H120877   2.414   1.246   4.107
 6971TIP3    H220878   2.541   1.220   4.030
 6972TIP3   OH220879   4.788   2.215   4.564
 6972TIP3    H120880   4.741   2.131   4.558
 6972TIP3    H220881   4.825   2.227   4.477
 6973TIP3   OH220882   1.069   3.834   2.062
 6973TIP3    H120883   1.098   3.744   2.073
 6973TIP3    H220884   1.029   3.858   2.145
 6974TIP3   OH220885   2.722   4.141   5.478
 6974TIP3    H120886   2.745   4.084   5.404
 6974TIP3    H220887   2.806   4.158   5.521
 6975TIP3   OH220888   0.342   6.179   4.746
 6975TIP3    H120889   0.415   6.122   4.722
 6975TIP3    H220890   0.294   6.131   4.814
 6976TIP3   OH220891   1.762   3.258   2.821
 6976TIP3    H120892   1.704   3.240   2.748
 6976TIP3    H220893   1.847   3.277   2.780
 6977TIP3   OH220894   4.150   3.424   4.179
 6977TIP3    H120895   4.111   3.395   4.097
 6977TIP3    H220896   4.243   3.435   4.158
 6978TIP3   OH220897   0.640   1.934   1.494
 6978TIP3    H120898   0.718   1.919   1.548
 6978TIP3    H220899   0.578   1.976   1.554
 6979TIP3   OH220900   4.577   5.268   5.621
 6979TIP3    H120901   4.571   5.355   5.584
 6979TIP3    H220902   4.641   5.222   5.566
 6980TIP3   OH220903   3.904   2.361   1.784
 6980TIP3    H120904   3.824   2.368   1.732
 6980TIP3    H220905   3.945   2.280   1.752
 6981TIP3   OH220906   2.038   3.468   3.123
 6981TIP3    H120907   2.084   3.449   3.205
 6981TIP3    H220908   2.055   3.561   3.107
 6982TIP3   OH220909   0.293   3.583   2.310
 6982TIP3    H120910   0.254   3.638   2.379
 6982TIP3    H220911   0.372   3.629   2.285
 6983TIP3   OH220912   6.730   1.484   4.801
 6983TIP3    H120913   6.787   1.418   4.842
 6983TIP3    H220914   6.709   1.447   4.715
 6984TIP3   OH220915   4.724   0.322   2.283
 6984TIP3    H120916   4.755   0.250   2.338
 6984TIP3    H220917   4.705   0.393   2.344
 6985TIP3   OH220918   4.374   4.839   4.768
 6985TIP3    H120919   4.376   4.846   4.672
 6985TIP3    H220920   4.463   4.864   4.795
 6986TIP3   OH220921   0.420   4.073   3.200
 6986TIP3    H120922   0.492   4.032   3.249
 6986TIP3    H220923   0.355   4.096   3.267
 6987TIP3   OH220924   2.745   0.499   3.167
 6987TIP3    H120925   2.686   0.568   3.136
 6987TIP3    H220926   2.755   0.441   3.091
 6988TIP3   OH220927   7.054   6.249   0.923
 6988TIP3    H120928   6.964   6.242   0.956
 6988TIP3    H220929   7.108   6.260   1.001
 6989TIP3   OH220930   4.750   0.893   4.601
 6989TIP3    H120931   4.738   0.921   4.510
 6989TIP3    H220932   4.716   0.804   4.603
 6990TIP3   OH220933   2.479   4.085   2.495
 6990TIP3    H120934   2.528   4.034   2.430
 6990TIP3    H220935   2.425   4.144   2.442
 6991TIP3   OH220936   1.281   6.583   4.053
 6991TIP3    H120937   1.190   6.611   4.042
 6991TIP3    H220938   1.274   6.491   4.077
 6992TIP3   OH220939   7.083   3.369   3.143
 6992TIP3    H120940   7.105   3.283   3.108
 6992TIP3    H220941   7.135   3.430   3.090
 6993TIP3   OH220942   4.752   4.388   3.683
 6993TIP3    H120943   4.748   4.296   3.708
 6993TIP3    H220944   4.670   4.426   3.713
 6994TIP3   OH220945   3.070   2.270   5.727
 6994TIP3    H120946   3.032   2.182   5.724
 6994TIP3    H220947   3.101   2.285   5.637
 6995TIP3   OH220948   1.158   0.136   5.811
 6995TIP3    H120949   1.083   0.086   5.780
 6995TIP3    H220950   1.228   0.071   5.820
 6996TIP3   OH220951   5.522   6.332   0.879
 6996TIP3    H120952   5.472   6.402   0.838
 6996TIP3    H220953   5.525   6.356   0.972
 6997TIP3   OH220954   0.902   0.490   5.316
 6997TIP3    H120955   0.890   0.584   5.302
 6997TIP3    H220956   0.942   0.459   5.235
 6998TIP3   OH220957   0.451   3.115   0.391
 6998TIP3    H120958   0.506   3.038   0.405
 6998TIP3    H220959   0.460   3.134   0.298
 6999TIP3   OH220960   5.561   0.520   4.372
 6999TIP3    H120961   5.492   0.552   4.313
 6999TIP3    H220962   5.619   0.595   4.384
 7000TIP3   OH220963   5.707   0.358   3.415
 7000TIP3    H120964   5.629   0.307   3.394
 7000TIP3    H220965   5.698   0.379   3.508
 7001TIP3   OH220966   5.539   5.806   0.994
 7001TIP3    H120967   5.624   5.818   1.035
 7001TIP3    H220968   5.490   5.750   1.054
 7002TIP3   OH220969   0.337   5.138   1.543
 7002TIP3    H120970   0.404   5.069   1.547
 7002TIP3    H220971   0.309   5.138   1.451
 7003TIP3   OH220972   3.533   0.792   4.725
 7003TIP3    H120973   3.569   0.807   4.638
 7003TIP3    H220974   3.441   0.768   4.709
 7004TIP3   OH220975   0.945   4.890   1.960
 7004TIP3    H120976   0.900   4.806   1.954
 7004TIP3    H220977   0.879   4.950   1.994
 7005TIP3   OH220978   4.290   0.091   1.513
 7005TIP3    H120979   4.205   0.135   1.508
 7005TIP3    H220980   4.346   0.140   1.452
 7006TIP3   OH220981   5.011   0.909   4.919
 7006TIP3    H120982   5.063   0.898   4.840
 7006TIP3    H220983   5.013   0.824   4.962
 7007TIP3   OH220984   2.847   5.434   3.302
 7007TIP3    H120985   2.782   5.499   3.275
 7007TIP3    H220986   2.921   5.486   3.332
 7008TIP3   OH220987   4.161   1.717   4.462
 7008TIP3    H120988   4.093   1.649   4.464
 7008TIP3    H220989   4.175   1.734   4.369
 7009TIP3   OH220990   4.716   6.581   1.724
 7009TIP3    H120991   4.763   6.660   1.751
 7009TIP3    H220992   4.784   6.516   1.711
 7010TIP3   OH220993   6.457  -0.012   0.174
 7010TIP3    H120994   6.428  -0.104   0.178
 7010TIP3    H220995   6.491  -0.002   0.085
 7011TIP3   OH220996   5.533   4.463   5.165
 7011TIP3    H120997   5.521   4.473   5.070
 7011TIP3    H220998   5.579   4.542   5.192
 7012TIP3   OH220999   3.126   0.414   4.388
 7012TIP3    H121000   3.148   0.426   4.295
 7012TIP3    H221001   3.203   0.447   4.435
 7013TIP3   OH221002   2.491   5.394   0.442
 7013TIP3    H121003   2.563   5.400   0.505
 7013TIP3    H221004   2.443   5.316   0.468
 7014TIP3   OH221005   3.970   2.954   4.484
 7014TIP3    H121006   4.000   3.028   4.431
 7014TIP3    H221007   3.876   2.969   4.495
 7015TIP3   OH221008   5.462   2.402   5.792
 7015TIP3    H121009   5.529   2.466   5.818
 7015TIP3    H221010   5.379   2.443   5.817
 7016TIP3   OH221011   4.919   5.977   0.813
 7016TIP3    H121012   5.003   5.950   0.849
 7016TIP3    H221013   4.905   5.918   0.739
 7017TIP3   OH221014   2.286   5.784   1.031
 7017TIP3    H121015   2.268   5.835   0.953
 7017TIP3    H221016   2.199   5.757   1.063
 7018TIP3   OH221017   6.271   2.045   3.115
 7018TIP3    H121018   6.353   1.999   3.132
 7018TIP3    H221019   6.209   1.977   3.091
 7019TIP3   OH221020   5.843   0.682   1.088
 7019TIP3    H121021   5.824   0.628   1.164
 7019TIP3    H221022   5.879   0.763   1.124
 7020TIP3   OH221023   0.102   5.979   3.711
 7020TIP3    H121024   0.145   5.901   3.677
 7020TIP3    H221025   0.028   5.993   3.651
 7021TIP3   OH221026   4.601   2.413   1.598
 7021TIP3    H121027   4.695   2.412   1.580
 7021TIP3    H221028   4.593   2.449   1.686
 7022TIP3   OH221029   3.592   6.398   1.682
 7022TIP3    H121030   3.664   6.337   1.668
 7022TIP3    H221031   3.579   6.400   1.777
 7023TIP3   OH221032   6.157   2.680   4.995
 7023TIP3    H121033   6.208   2.629   5.059
 7023TIP3    H221034   6.215   2.687   4.919
 7024TIP3   OH221035   5.381   1.537   0.721
 7024TIP3    H121036   5.467   1.535   0.678
 7024TIP3    H221037   5.402   1.545   0.814
 7025TIP3   OH221038   3.852   0.225   2.432
 7025TIP3    H121039   3.929   0.259   2.477
 7025TIP3    H221040   3.778   0.269   2.474
 7026TIP3   OH221041   0.247   0.672   5.104
 7026TIP3    H121042   0.193   0.660   5.026
 7026TIP3    H221043   0.193   0.722   5.164
 7027TIP3   OH221044   5.766   1.307   4.123
 7027TIP3    H121045   5.719   1.388   4.142
 7027TIP3    H221046   5.746   1.250   4.197
 7028TIP3   OH221047   2.852   2.573   4.336
 7028TIP3    H121048   2.902   2.545   4.259
 7028TIP3    H221049   2.775   2.617   4.300
 7029TIP3   OH221050   3.507   3.896   0.994
 7029TIP3    H121051   3.558   3.821   1.024
 7029TIP3    H221052   3.571   3.953   0.952
 7030TIP3   OH221053   0.128   3.056   1.528
 7030TIP3    H121054   0.040   3.082   1.500
 7030TIP3    H221055   0.128   3.071   1.622
 7031TIP3   OH221056   3.060   0.571   1.148
 7031TIP3    H121057   3.062   0.633   1.075
 7031TIP3    H221058   2.974   0.529   1.142
 7032TIP3   OH221059   6.185   1.905   2.515
 7032TIP3    H121060   6.166   1.972   2.449
 7032TIP3    H221061   6.274   1.926   2.545
 7033TIP3   OH221062   1.790   3.900   1.075
 7033TIP3    H121063   1.748   3.931   0.995
 7033TIP3    H221064   1.766   3.807   1.080
 7034TIP3   OH221065   5.301   0.708   2.244
 7034TIP3    H121066   5.245   0.682   2.172
 7034TIP3    H221067   5.366   0.766   2.205
 7035TIP3   OH221068   3.487   3.239   0.002
 7035TIP3    H121069   3.550   3.183  -0.045
 7035TIP3    H221070   3.498   3.214   0.094
 7036TIP3   OH221071   4.619   0.156   4.294
 7036TIP3    H121072   4.610   0.195   4.207
 7036TIP3    H221073   4.542   0.100   4.303
 7037TIP3   OH221074   5.522   1.368   5.338
 7037TIP3    H121075   5.503   1.296   5.277
 7037TIP3    H221076   5.437   1.393   5.373
 7038TIP3   OH221077   6.412   4.057   0.042
 7038TIP3    H121078   6.325   4.094   0.057
 7038TIP3    H221079   6.447   4.041   0.129
 7039TIP3   OH221080   4.719   0.089   1.386
 7039TIP3    H121081   4.734   0.109   1.294
 7039TIP3    H221082   4.716  -0.006   1.391
 7040TIP3   OH221083   5.636   5.743   3.231
 7040TIP3    H121084   5.679   5.677   3.286
 7040TIP3    H221085   5.560   5.772   3.283
 7041TIP3   OH221086   6.847   0.036   3.758
 7041TIP3    H121087   6.792   0.028   3.681
 7041TIP3    H221088   6.899   0.115   3.743
 7042TIP3   OH221089   0.179   0.381   3.239
 7042TIP3    H121090   0.217   0.307   3.191
 7042TIP3    H221091   0.195   0.457   3.183
 7043TIP3   OH221092   4.023   6.633   5.179
 7043TIP3    H121093   3.935   6.648   5.143
 7043TIP3    H221094   4.016   6.551   5.226
 7044TIP3   OH221095   5.898   4.822   4.189
 7044TIP3    H121096   5.919   4.906   4.229
 7044TIP3    H221097   5.894   4.841   4.095
 7045TIP3   OH221098   5.233   2.545   2.112
 7045TIP3    H121099   5.166   2.479   2.129
 7045TIP3    H221100   5.291   2.541   2.187
 7046TIP3   OH221101   5.089   1.891   3.902
 7046TIP3    H121102   5.095   1.986   3.896
 7046TIP3    H221103   5.174   1.860   3.869
 7047TIP3   OH221104   5.558   3.629   4.768
 7047TIP3    H121105   5.621   3.668   4.708
 7047TIP3    H221106   5.608   3.564   4.818
 7048TIP3   OH221107   0.764   2.045   2.010
 7048TIP3    H121108   0.712   2.065   2.088
 7048TIP3    H221109   0.854   2.069   2.034
 7049TIP3   OH221110   7.157   5.110   3.697
 7049TIP3    H121111   7.213   5.146   3.766
 7049TIP3    H221112   7.123   5.187   3.651
 7050TIP3   OH221113   6.570   2.769   5.271
 7050TIP3    H121114   6.573   2.674   5.258
 7050TIP3    H221115   6.655   2.791   5.310
 7051TIP3   OH221116   1.568   4.992   4.755
 7051TIP3    H121117   1.651   4.994   4.803
 7051TIP3    H221118   1.592   4.965   4.666
 7052TIP3   OH221119   2.787   1.859   3.140
 7052TIP3    H121120   2.830   1.932   3.095
 7052TIP3    H221121   2.778   1.791   3.073
 7053TIP3   OH221122   0.322   1.090   2.348
 7053TIP3    H121123   0.386   1.036   2.301
 7053TIP3    H221124   0.365   1.175   2.358
 7054TIP3   OH221125   0.140   2.822   0.542
 7054TIP3    H121126   0.114   2.868   0.621
 7054TIP3    H221127   0.221   2.776   0.567
 7055TIP3   OH221128   2.543   0.383   0.183
 7055TIP3    H121129   2.572   0.347   0.267
 7055TIP3    H221130   2.472   0.325   0.155
 7056TIP3   OH221131   3.206   6.430   4.212
 7056TIP3    H121132   3.277   6.376   4.246
 7056TIP3    H221133   3.160   6.461   4.290
 7057TIP3   OH221134   6.015   1.340   1.400
 7057TIP3    H121135   5.995   1.326   1.492
 7057TIP3    H221136   6.010   1.435   1.389
 7058TIP3   OH221137   3.851   6.531   0.489
 7058TIP3    H121138   3.868   6.597   0.557
 7058TIP3    H221139   3.934   6.483   0.483
 7059TIP3   OH221140   6.664   0.989   4.509
 7059TIP3    H121141   6.614   1.036   4.442
 7059TIP3    H221142   6.719   0.928   4.459
 7060TIP3   OH221143   3.514   5.640   0.885
 7060TIP3    H121144   3.578   5.641   0.814
 7060TIP3    H221145   3.431   5.664   0.844
 7061TIP3   OH221146   2.176   3.485   0.849
 7061TIP3    H121147   2.160   3.437   0.767
 7061TIP3    H221148   2.263   3.456   0.876
 7062TIP3   OH221149   6.079   1.090   2.299
 7062TIP3    H121150   6.157   1.116   2.348
 7062TIP3    H221151   6.023   1.167   2.300
 7063TIP3   OH221152   6.958   2.020   2.002
 7063TIP3    H121153   6.868   2.011   2.034
 7063TIP3    H221154   6.991   2.099   2.046
 7064TIP3   OH221155   3.829   6.053   1.499
 7064TIP3    H121156   3.844   5.959   1.485
 7064TIP3    H221157   3.748   6.071   1.451
 7065TIP3   OH221158   4.426   4.550   0.010
 7065TIP3    H121159   4.469   4.516  -0.069
 7065TIP3    H221160   4.446   4.485   0.077
 7066TIP3   OH221161   4.022   2.088   0.508
 7066TIP3    H121162   4.004   2.007   0.556
 7066TIP3    H221163   4.052   2.059   0.422
 7067TIP3   OH221164   3.879   3.037   3.641
 7067TIP3    H121165   3.950   3.083   3.596
 7067TIP3    H221166   3.800   3.085   3.615
 7068TIP3   OH221167   5.784   3.895   4.338
 7068TIP3    H121168   5.814   3.936   4.419
 7068TIP3    H221169   5.749   3.810   4.365
 7069TIP3   OH221170   3.761   5.230   4.528
 7069TIP3    H121171   3.792   5.139   4.526
 7069TIP3    H221172   3.699   5.233   4.601
 7070TIP3   OH221173   4.375   1.575   2.743
 7070TIP3    H121174   4.308   1.637   2.712
 7070TIP3    H221175   4.455   1.627   2.749
 7071TIP3   OH221176   6.510   1.568   3.083
 7071TIP3    H121177   6.551   1.487   3.114
 7071TIP3    H221178   6.416   1.549   3.086
 7072TIP3   OH221179   2.053   2.425   0.489
 7072TIP3    H121180   1.970   2.379   0.499
 7072TIP3    H221181   2.118   2.368   0.531
 7073TIP3   OH221182   2.799   6.324   2.041
 7073TIP3    H121183   2.794   6.413   2.075
 7073TIP3    H221184   2.803   6.335   1.946
 7074TIP3   OH221185   3.141   4.874   0.449
 7074TIP3    H121186   3.068   4.934   0.432
 7074TIP3    H221187   3.153   4.877   0.544
 7075TIP3   OH221188   0.629   2.978   2.496
 7075TIP3    H121189   0.718   2.994   2.529
 7075TIP3    H221190   0.596   3.064   2.472
 7076TIP3   OH221191   2.877   1.828   3.996
 7076TIP3    H121192   2.893   1.767   4.067
 7076TIP3    H221193   2.876   1.914   4.038
 7077TIP3   OH221194   2.994   3.835   5.484
 7077TIP3    H121195   2.925   3.885   5.439
 7077TIP3    H221196   3.011   3.760   5.427
 7078TIP3   OH221197   6.521   5.718   0.883
 7078TIP3    H121198   6.439   5.687   0.920
 7078TIP3    H221199   6.519   5.690   0.792
 7079TIP3   OH221200   5.491   4.310   4.243
 7079TIP3    H121201   5.547   4.250   4.291
 7079TIP3    H221202   5.490   4.277   4.153
 7080TIP3   OH221203   3.394   2.860   3.477
 7080TIP3    H121204   3.301   2.844   3.495
 7080TIP3    H221205   3.400   2.865   3.382
 7081TIP3   OH221206   1.695   4.562   5.668
 7081TIP3    H121207   1.692   4.602   5.754
 7081TIP3    H221208   1.701   4.468   5.685
 7082TIP3   OH221209   5.959  -0.013   1.033
 7082TIP3    H121210   5.884   0.043   1.013
 7082TIP3    H221211   6.025   0.048   1.067
 7083TIP3   OH221212   5.459   3.426   5.100
 7083TIP3    H121213   5.516   3.356   5.069
 7083TIP3    H221214   5.372   3.402   5.067
 7084TIP3   OH221215   0.790   5.818   5.184
 7084TIP3    H121216   0.822   5.859   5.103
 7084TIP3    H221217   0.721   5.759   5.155
 7085TIP3   OH221218   5.749   3.519   2.991
 7085TIP3    H121219   5.695   3.522   2.912
 7085TIP3    H221220   5.706   3.454   3.046
 7086TIP3   OH221221   1.288   0.298   4.776
 7086TIP3    H121222   1.248   0.350   4.845
 7086TIP3    H221223   1.324   0.222   4.821
 7087TIP3   OH221224   0.291   4.978   4.389
 7087TIP3    H121225   0.196   4.981   4.383
 7087TIP3    H221226   0.321   5.024   4.310
 7088TIP3   OH221227   1.916   1.600   3.153
 7088TIP3    H121228   1.907   1.539   3.227
 7088TIP3    H221229   2.010   1.604   3.137
 7089TIP3   OH221230   6.261   5.438   5.620
 7089TIP3    H121231   6.354   5.413   5.624
 7089TIP3    H221232   6.221   5.372   5.564
 7090TIP3   OH221233   2.230   5.223   3.109
 7090TIP3    H121234   2.250   5.296   3.052
 7090TIP3    H221235   2.189   5.158   3.052
 7091TIP3   OH221236   6.173   3.697   0.322
 7091TIP3    H121237   6.252   3.723   0.371
 7091TIP3    H221238   6.206   3.643   0.251
 7092TIP3   OH221239   2.323   1.430   1.964
 7092TIP3    H121240   2.244   1.419   2.016
 7092TIP3    H221241   2.365   1.344   1.965
 7093TIP3   OH221242   2.020   2.564   1.261
 7093TIP3    H121243   2.011   2.626   1.189
 7093TIP3    H221244   2.006   2.616   1.340
 7094TIP3   OH221245   4.826   1.962   0.796
 7094TIP3    H121246   4.859   1.910   0.869
 7094TIP3    H221247   4.872   1.928   0.719
 7095TIP3   OH221248   3.545   6.388   3.402
 7095TIP3    H121249   3.595   6.420   3.477
 7095TIP3    H221250   3.504   6.308   3.433
 7096TIP3   OH221251   4.761   3.103   3.538
 7096TIP3    H121252   4.742   3.191   3.507
 7096TIP3    H221253   4.734   3.103   3.629
 7097TIP3   OH221254   4.673   2.234   1.836
 7097TIP3    H121255   4.762   2.270   1.829
 7097TIP3    H221256   4.676   2.180   1.915
 7098TIP3   OH221257   0.193   5.142   3.289
 7098TIP3    H121258   0.284   5.150   3.258
 7098TIP3    H221259   0.152   5.082   3.227
 7099TIP3   OH221260   2.370   1.266   4.650
 7099TIP3    H121261   2.299   1.326   4.675
 7099TIP3    H221262   2.359   1.254   4.556
 7100TIP3   OH221263   7.188   2.018   5.701
 7100TIP3    H121264   7.097   2.004   5.726
 7100TIP3    H221265   7.235   1.945   5.742
 7101TIP3   OH221266   7.103   3.459   0.930
 7101TIP3    H121267   7.180   3.437   0.877
 7101TIP3    H221268   7.139   3.495   1.011
 7102TIP3   OH221269   4.925   0.736   0.916
 7102TIP3    H121270   5.015   0.710   0.933
 7102TIP3    H221271   4.914   0.726   0.821
 7103TIP3   OH221272   1.090   5.510   1.944
 7103TIP3    H121273   1.104   5.536   2.035
 7103TIP3    H221274   1.045   5.585   1.905
 7104TIP3   OH221275   6.581   3.330   2.458
 7104TIP3    H121276   6.559   3.250   2.410
 7104TIP3    H221277   6.513   3.392   2.432
 7105TIP3   OH221278   3.489   2.679   1.429
 7105TIP3    H121279   3.407   2.636   1.452
 7105TIP3    H221280   3.552   2.608   1.415
 7106TIP3   OH221281   6.321   2.843   1.991
 7106TIP3    H121282   6.361   2.811   2.071
 7106TIP3    H221283   6.392   2.845   1.927
 7107TIP3   OH221284   0.526   3.704   3.519
 7107TIP3    H121285   0.609   3.729   3.479
 7107TIP3    H221286   0.540   3.614   3.548
 7108TIP3   OH221287   0.952   1.613   4.500
 7108TIP3    H121288   0.971   1.520   4.492
 7108TIP3    H221289   0.882   1.617   4.565
 7109TIP3   OH221290   1.398   5.576   5.337
 7109TIP3    H121291   1.436   5.573   5.425
 7109TIP3    H221292   1.426   5.661   5.301
 7110TIP3   OH221293   3.750   4.731   3.020
 7110TIP3    H121294   3.776   4.688   3.102
 7110TIP3    H221295   3.716   4.816   3.048
 7111TIP3   OH221296   2.236   5.682   2.166
 7111TIP3    H121297   2.174   5.625   2.120
 7111TIP3    H221298   2.216   5.770   2.135
 7112TIP3   OH221299   4.528   5.651   2.186
 7112TIP3    H121300   4.566   5.617   2.105
 7112TIP3    H221301   4.434   5.635   2.177
 7113TIP3   OH221302   1.245   1.883   1.561
 7113TIP3    H121303   1.244   1.974   1.533
 7113TIP3    H221304   1.178   1.878   1.629
 7114TIP3   OH221305   0.472   5.281   2.329
 7114TIP3    H121306   0.492   5.203   2.380
 7114TIP3    H221307   0.482   5.354   2.390
 7115TIP3   OH221308   5.358   6.527   0.743
 7115TIP3    H121309   5.425   6.507   0.677
 7115TIP3    H221310   5.288   6.570   0.694
 7116TIP3   OH221311   5.494   4.789   0.462
 7116TIP3    H121312   5.553   4.814   0.391
 7116TIP3    H221313   5.504   4.694   0.470
 7117TIP3   OH221314   6.278   3.131   3.308
 7117TIP3    H121315   6.200   3.075   3.309
 7117TIP3    H221316   6.255   3.203   3.249
 7118TIP3   OH221317   4.571   1.966   2.873
 7118TIP3    H121318   4.563   1.871   2.860
 7118TIP3    H221319   4.487   2.001   2.845
 7119TIP3   OH221320   1.329   1.976   3.136
 7119TIP3    H121321   1.392   2.041   3.166
 7119TIP3    H221322   1.381   1.898   3.118
 7120TIP3   OH221323   4.784   2.535   2.050
 7120TIP3    H121324   4.779   2.451   2.095
 7120TIP3    H221325   4.811   2.597   2.118
 7121TIP3   OH221326   0.430   3.624   0.794
 7121TIP3    H121327   0.387   3.569   0.728
 7121TIP3    H221328   0.480   3.688   0.742
 7122TIP3   OH221329   4.999   5.402   2.506
 7122TIP3    H121330   4.919   5.352   2.521
 7122TIP3    H221331   4.971   5.483   2.465
 7123TIP3   OH221332   2.485   4.605   3.437
 7123TIP3    H121333   2.417   4.588   3.502
 7123TIP3    H221334   2.490   4.523   3.387
 7124TIP3   OH221335   3.761   0.253   5.247
 7124TIP3    H121336   3.776   0.348   5.251
 7124TIP3    H221337   3.667   0.244   5.231
 7125TIP3   OH221338   6.171   0.447   4.339
 7125TIP3    H121339   6.253   0.493   4.318
 7125TIP3    H221340   6.133   0.426   4.254
 7126TIP3   OH221341   0.105   4.495   4.131
 7126TIP3    H121342   0.159   4.416   4.131
 7126TIP3    H221343   0.166   4.566   4.153
 7127TIP3   OH221344   0.984   4.799   0.601
 7127TIP3    H121345   1.044   4.861   0.557
 7127TIP3    H221346   1.039   4.723   0.621
 7128TIP3   OH221347   2.735   6.056   4.638
 7128TIP3    H121348   2.689   5.988   4.687
 7128TIP3    H221349   2.691   6.058   4.553
 7129TIP3   OH221350   4.537   1.230   1.379
 7129TIP3    H121351   4.539   1.300   1.315
 7129TIP3    H221352   4.465   1.173   1.351
 7130TIP3   OH221353   0.206   1.941   4.236
 7130TIP3    H121354   0.250   2.019   4.270
 7130TIP3    H221355   0.268   1.905   4.172
 7131TIP3   OH221356   5.786   3.528   3.620
 7131TIP3    H121357   5.830   3.588   3.680
 7131TIP3    H221358   5.768   3.450   3.674
 7132TIP3   OH221359   6.818   5.557   0.887
 7132TIP3    H121360   6.864   5.615   0.827
 7132TIP3    H221361   6.789   5.484   0.832
 7133TIP3   OH221362   6.910   1.461   5.351
 7133TIP3    H121363   6.960   1.406   5.411
 7133TIP3    H221364   6.935   1.550   5.373
 7134TIP3   OH221365   0.196   4.736   1.153
 7134TIP3    H121366   0.287   4.751   1.127
 7134TIP3    H221367   0.145   4.773   1.081
 7135TIP3   OH221368   4.349   3.862   3.175
 7135TIP3    H121369   4.303   3.897   3.251
 7135TIP3    H221370   4.316   3.913   3.101
 7136TIP3   OH221371   1.259   1.307   4.598
 7136TIP3    H121372   1.305   1.235   4.640
 7136TIP3    H221373   1.299   1.314   4.511
 7137TIP3   OH221374   2.885   4.794   4.224
 7137TIP3    H121375   2.979   4.774   4.215
 7137TIP3    H221376   2.841   4.719   4.184
 7138TIP3   OH221377   1.513   2.874   1.500
 7138TIP3    H121378   1.520   2.970   1.502
 7138TIP3    H221379   1.438   2.854   1.555
 7139TIP3   OH221380   2.955   6.625   5.169
 7139TIP3    H121381   3.028   6.564   5.182
 7139TIP3    H221382   2.963   6.653   5.078
 7140TIP3   OH221383   1.229   6.814   1.642
 7140TIP3    H121384   1.228   6.719   1.630
 7140TIP3    H221385   1.212   6.827   1.735
 7141TIP3   OH221386   1.456   5.565   3.782
 7141TIP3    H121387   1.364   5.551   3.759
 7141TIP3    H221388   1.497   5.480   3.770
 7142TIP3   OH221389   1.753   5.294   5.084
 7142TIP3    H121390   1.716   5.304   5.171
 7142TIP3    H221391   1.796   5.378   5.067
 7143TIP3   OH221392   6.385   6.131   0.878
 7143TIP3    H121393   6.462   6.090   0.917
 7143TIP3    H221394   6.311   6.087   0.919
 7144TIP3   OH221395   2.367   0.690   3.260
 7144TIP3    H121396   2.371   0.596   3.243
 7144TIP3    H221397   2.421   0.730   3.192
 7145TIP3   OH221398   2.306   6.659   2.107
 7145TIP3    H121399   2.337   6.584   2.058
 7145TIP3    H221400   2.363   6.731   2.081
 7146TIP3   OH221401   5.769   2.135   4.654
 7146TIP3    H121402   5.787   2.060   4.711
 7146TIP3    H221403   5.761   2.097   4.567
 7147TIP3   OH221404   5.980   3.213   3.408
 7147TIP3    H121405   5.965   3.218   3.502
 7147TIP3    H221406   5.946   3.127   3.383
 7148TIP3   OH221407   6.135   2.621   0.714
 7148TIP3    H121408   6.056   2.672   0.692
 7148TIP3    H221409   6.163   2.656   0.798
 7149TIP3   OH221410   4.692   0.998   1.398
 7149TIP3    H121411   4.671   0.950   1.478
 7149TIP3    H221412   4.638   1.077   1.402
 7150TIP3   OH221413   2.597   5.385   2.010
 7150TIP3    H121414   2.504   5.375   1.990
 7150TIP3    H221415   2.641   5.369   1.927
 7151TIP3   OH221416   5.076   0.374   1.481
 7151TIP3    H121417   5.121   0.410   1.558
 7151TIP3    H221418   5.014   0.311   1.517
 7152TIP3   OH221419   1.001   4.065   1.346
 7152TIP3    H121420   0.957   4.061   1.430
 7152TIP3    H221421   1.007   3.974   1.317
 7153TIP3   OH221422   5.577   2.145   2.738
 7153TIP3    H121423   5.582   2.065   2.686
 7153TIP3    H221424   5.668   2.174   2.747
 7154TIP3   OH221425   4.479   2.326   2.058
 7154TIP3    H121426   4.486   2.410   2.104
 7154TIP3    H221427   4.516   2.262   2.118
 7155TIP3   OH221428   2.061   3.332   5.346
 7155TIP3    H121429   2.088   3.380   5.267
 7155TIP3    H221430   1.996   3.270   5.314
 7156TIP3   OH221431   2.974   5.304   0.156
 7156TIP3    H121432   2.949   5.237   0.220
 7156TIP3    H221433   2.917   5.378   0.175
 7157TIP3   OH221434   1.731   3.211   1.261
 7157TIP3    H121435   1.718   3.149   1.189
 7157TIP3    H221436   1.795   3.274   1.227
 7158TIP3   OH221437   5.090   5.279   0.868
 7158TIP3    H121438   5.183   5.257   0.866
 7158TIP3    H221439   5.049   5.206   0.913
 7159TIP3   OH221440   3.209   1.089   2.013
 7159TIP3    H121441   3.289   1.129   2.046
 7159TIP3    H221442   3.222   1.085   1.918
 7160TIP3   OH221443   6.906   1.178   2.163
 7160TIP3    H121444   6.910   1.097   2.112
 7160TIP3    H221445   6.991   1.183   2.207
 7161TIP3   OH221446   3.488   6.326   5.454
 7161TIP3    H121447   3.460   6.302   5.543
 7161TIP3    H221448   3.414   6.304   5.399
 7162TIP3   OH221449   1.560   1.040   5.819
 7162TIP3    H121450   1.578   1.092   5.897
 7162TIP3    H221451   1.480   0.992   5.841
 7163TIP3   OH221452   1.584   1.424   4.337
 7163TIP3    H121453   1.592   1.478   4.259
 7163TIP3    H221454   1.492   1.397   4.338
 7164TIP3   OH221455   2.065   6.737   4.216
 7164TIP3    H121456   1.981   6.781   4.213
 7164TIP3    H221457   2.053   6.666   4.280
 7165TIP3   OH221458   4.745   5.865   5.526
 7165TIP3    H121459   4.679   5.823   5.581
 7165TIP3    H221460   4.726   5.959   5.534
 7166TIP3   OH221461   2.496   6.299   1.611
 7166TIP3    H121462   2.402   6.286   1.601
 7166TIP3    H221463   2.535   6.215   1.587
 7167TIP3   OH221464   4.612   4.914   1.497
 7167TIP3    H121465   4.642   5.005   1.503
 7167TIP3    H221466   4.518   4.918   1.517
 7168TIP3   OH221467   5.908   0.231   5.779
 7168TIP3    H121468   5.911   0.270   5.691
 7168TIP3    H221469   5.966   0.155   5.773
 7169TIP3   OH221470   5.779   2.717   4.032
 7169TIP3    H121471   5.774   2.777   4.107
 7169TIP3    H221472   5.724   2.758   3.965
 7170TIP3   OH221473   7.236   3.097   3.524
 7170TIP3    H121474   7.162   3.046   3.556
 7170TIP3    H221475   7.201   3.184   3.508
 7171TIP3   OH221476   0.167   1.542   2.275
 7171TIP3    H121477   0.072   1.539   2.287
 7171TIP3    H221478   0.184   1.481   2.203
 7172TIP3   OH221479   5.976   3.659   4.016
 7172TIP3    H121480   5.940   3.715   3.947
 7172TIP3    H221481   6.032   3.597   3.970
 7173TIP3   OH221482   0.156   0.430   5.567
 7173TIP3    H121483   0.146   0.467   5.655
 7173TIP3    H221484   0.222   0.485   5.525
 7174TIP3   OH221485   3.547   5.967   3.871
 7174TIP3    H121486   3.475   5.904   3.868
 7174TIP3    H221487   3.595   5.953   3.789
 7175TIP3   OH221488   4.075   2.042   3.003
 7175TIP3    H121489   4.050   2.053   2.911
 7175TIP3    H221490   4.025   2.109   3.050
 7176TIP3   OH221491   1.189   3.990   4.317
 7176TIP3    H121492   1.259   3.941   4.274
 7176TIP3    H221493   1.226   4.076   4.333
 7177TIP3   OH221494   3.135   3.077   0.108
 7177TIP3    H121495   3.091   2.992   0.096
 7177TIP3    H221496   3.171   3.097   0.022
 7178TIP3   OH221497   2.184   6.197   2.993
 7178TIP3    H121498   2.203   6.250   2.915
 7178TIP3    H221499   2.131   6.255   3.049
 7179TIP3   OH221500   5.478   5.855   2.640
 7179TIP3    H121501   5.475   5.761   2.622
 7179TIP3    H221502   5.470   5.897   2.555
 7180TIP3   OH221503   1.851   4.412   3.357
 7180TIP3    H121504   1.776   4.392   3.411
 7180TIP3    H221505   1.857   4.508   3.359
 7181TIP3   OH221506   2.790   0.450   2.655
 7181TIP3    H121507   2.828   0.451   2.742
 7181TIP3    H221508   2.863   0.467   2.596
 7182TIP3   OH221509   3.343   6.469   3.247
 7182TIP3    H121510   3.422   6.450   3.298
 7182TIP3    H221511   3.328   6.563   3.260
 7183TIP3   OH221512   2.345   4.195   1.890
 7183TIP3    H121513   2.408   4.263   1.868
 7183TIP3    H221514   2.380   4.154   1.968
 7184TIP3   OH221515   0.993   0.414   2.144
 7184TIP3    H121516   0.983   0.416   2.048
 7184TIP3    H221517   0.914   0.456   2.177
 7185TIP3   OH221518   5.593   5.457   2.234
 7185TIP3    H121519   5.556   5.502   2.158
 7185TIP3    H221520   5.667   5.407   2.199
 7186TIP3   OH221521   3.323   2.028   4.095
 7186TIP3    H121522   3.334   2.123   4.083
 7186TIP3    H221523   3.400   2.001   4.145
 7187TIP3   OH221524   1.428   4.330   2.915
 7187TIP3    H121525   1.389   4.353   2.830
 7187TIP3    H221526   1.518   4.304   2.893
 7188TIP3   OH221527   1.716   2.584   3.590
 7188TIP3    H121528   1.775   2.510   3.578
 7188TIP3    H221529   1.664   2.586   3.509
 7189TIP3   OH221530   6.217   3.858   1.979
 7189TIP3    H121531   6.232   3.774   1.936
 7189TIP3    H221532   6.287   3.865   2.044
 7190TIP3   OH221533   2.440   0.899   5.791
 7190TIP3    H121534   2.397   0.908   5.876
 7190TIP3    H221535   2.416   0.811   5.761
 7191TIP3   OH221536   2.739   3.243   3.164
 7191TIP3    H121537   2.775   3.278   3.245
 7191TIP3    H221538   2.671   3.182   3.193
 7192TIP3   OH221539   2.606   2.093   1.340
 7192TIP3    H121540   2.661   2.099   1.419
 7192TIP3    H221541   2.623   2.174   1.293
 7193TIP3   OH221542   0.446   0.789   5.495
 7193TIP3    H121543   0.440   0.865   5.437
 7193TIP3    H221544   0.523   0.741   5.463
 7194TIP3   OH221545   0.565   3.429   3.544
 7194TIP3    H121546   0.481   3.392   3.571
 7194TIP3    H221547   0.601   3.363   3.484
 7195TIP3   OH221548   2.777   4.578   3.499
 7195TIP3    H121549   2.697   4.538   3.464
 7195TIP3    H221550   2.843   4.509   3.492
 7196TIP3   OH221551   4.761   6.691   5.790
 7196TIP3    H121552   4.852   6.717   5.809
 7196TIP3    H221553   4.769   6.609   5.741
 7197TIP3   OH221554   6.433   6.866   0.241
 7197TIP3    H121555   6.425   6.794   0.178
 7197TIP3    H221556   6.444   6.823   0.326
 7198TIP3   OH221557   3.393   2.507   4.700
 7198TIP3    H121558   3.315   2.563   4.699
 7198TIP3    H221559   3.440   2.529   4.619
 7199TIP3   OH221560   4.170   2.863   4.182
 7199TIP3    H121561   4.081   2.859   4.147
 7199TIP3    H221562   4.164   2.815   4.265
 7200TIP3   OH221563   6.698   4.557   0.066
 7200TIP3    H121564   6.606   4.585   0.062
 7200TIP3    H221565   6.707   4.517   0.152
 7201TIP3   OH221566   2.493   2.707   3.520
 7201TIP3    H121567   2.437   2.631   3.529
 7201TIP3    H221568   2.488   2.730   3.427
 7202TIP3   OH221569   6.406   6.248   1.484
 7202TIP3    H121570   6.405   6.192   1.562
 7202TIP3    H221571   6.455   6.197   1.419
 7203TIP3   OH221572   1.397   2.910   1.161
 7203TIP3    H121573   1.384   2.937   1.071
 7203TIP3    H221574   1.492   2.918   1.175
 7204TIP3   OH221575   3.427   0.500   2.498
 7204TIP3    H121576   3.418   0.411   2.533
 7204TIP3    H221577   3.403   0.557   2.570
 7205TIP3   OH221578   2.497   0.429   3.017
 7205TIP3    H121579   2.435   0.402   3.085
 7205TIP3    H221580   2.499   0.524   3.022
 7206TIP3   OH221581   0.885   4.753   5.723
 7206TIP3    H121582   0.901   4.848   5.727
 7206TIP3    H221583   0.803   4.741   5.770
 7207TIP3   OH221584   4.062   4.007   0.579
 7207TIP3    H121585   4.032   3.921   0.609
 7207TIP3    H221586   4.012   4.069   0.632
 7208TIP3   OH221587   0.959   4.064   5.469
 7208TIP3    H121588   1.044   4.032   5.501
 7208TIP3    H221589   0.971   4.158   5.457
 7209TIP3   OH221590   6.674   6.439   1.863
 7209TIP3    H121591   6.694   6.486   1.782
 7209TIP3    H221592   6.732   6.477   1.929
 7210TIP3   OH221593   1.483   1.893   1.991
 7210TIP3    H121594   1.400   1.911   2.036
 7210TIP3    H221595   1.516   1.979   1.965
 7211TIP3   OH221596   2.836   3.121   1.944
 7211TIP3    H121597   2.807   3.050   2.002
 7211TIP3    H221598   2.930   3.106   1.933
 7212TIP3   OH221599   1.271   5.662   4.909
 7212TIP3    H121600   1.297   5.572   4.889
 7212TIP3    H221601   1.186   5.672   4.866
 7213TIP3   OH221602   6.499   0.725   4.555
 7213TIP3    H121603   6.584   0.769   4.549
 7213TIP3    H221604   6.467   0.722   4.465
 7214TIP3   OH221605   1.076   2.607   1.225
 7214TIP3    H121606   1.164   2.631   1.253
 7214TIP3    H221607   1.019   2.670   1.270
 7215TIP3   OH221608   7.062   5.587   3.105
 7215TIP3    H121609   7.068   5.529   3.030
 7215TIP3    H221610   7.147   5.631   3.108
 7216TIP3   OH221611   2.736   3.226   1.068
 7216TIP3    H121612   2.821   3.184   1.055
 7216TIP3    H221613   2.757   3.317   1.090
 7217TIP3   OH221614   1.195   4.740   4.459
 7217TIP3    H121615   1.224   4.805   4.523
 7217TIP3    H221616   1.158   4.669   4.512
 7218TIP3   OH221617   1.905   4.977   1.992
 7218TIP3    H121618   1.909   4.881   1.989
 7218TIP3    H221619   1.933   4.999   2.081
 7219TIP3   OH221620   5.146   4.384   3.140
 7219TIP3    H121621   5.219   4.414   3.194
 7219TIP3    H221622   5.082   4.455   3.143
 7220TIP3   OH221623   2.355   3.100   4.536
 7220TIP3    H121624   2.280   3.126   4.591
 7220TIP3    H221625   2.319   3.095   4.448
 7221TIP3   OH221626   1.283   1.885   4.241
 7221TIP3    H121627   1.217   1.852   4.181
 7221TIP3    H221628   1.323   1.958   4.195
 7222TIP3   OH221629   5.350   0.691   3.482
 7222TIP3    H121630   5.396   0.705   3.565
 7222TIP3    H221631   5.410   0.725   3.416
 7223TIP3   OH221632   6.407   5.994   3.710
 7223TIP3    H121633   6.471   6.054   3.748
 7223TIP3    H221634   6.444   5.972   3.624
 7224TIP3   OH221635   2.541   2.309   2.384
 7224TIP3    H121636   2.571   2.302   2.293
 7224TIP3    H221637   2.451   2.340   2.376
 7225TIP3   OH221638   1.403   1.512   2.766
 7225TIP3    H121639   1.359   1.546   2.688
 7225TIP3    H221640   1.332   1.499   2.830
 7226TIP3   OH221641   4.072   5.138   5.190
 7226TIP3    H121642   3.987   5.160   5.228
 7226TIP3    H221643   4.075   5.043   5.189
 7227TIP3   OH221644   1.244   6.107   2.702
 7227TIP3    H121645   1.305   6.114   2.775
 7227TIP3    H221646   1.157   6.104   2.743
 7228TIP3   OH221647   0.259   3.668   3.840
 7228TIP3    H121648   0.270   3.713   3.924
 7228TIP3    H221649   0.257   3.738   3.775
 7229TIP3   OH221650   1.113   2.684   4.844
 7229TIP3    H121651   1.158   2.693   4.928
 7229TIP3    H221652   1.180   2.705   4.779
 7230TIP3   OH221653   5.030   3.413   1.233
 7230TIP3    H121654   5.122   3.386   1.240
 7230TIP3    H221655   5.024   3.455   1.147
 7231TIP3   OH221656   4.750   3.391   4.547
 7231TIP3    H121657   4.756   3.414   4.454
 7231TIP3    H221658   4.698   3.310   4.548
 7232TIP3   OH221659   6.571   5.570   5.859
 7232TIP3    H121660   6.531   5.654   5.879
 7232TIP3    H221661   6.652   5.591   5.814
 7233TIP3   OH221662   4.993   2.078   4.158
 7233TIP3    H121663   5.062   2.139   4.134
 7233TIP3    H221664   5.028   2.031   4.233
 7234TIP3   OH221665   1.864   5.941   0.251
 7234TIP3    H121666   1.769   5.943   0.258
 7234TIP3    H221667   1.888   5.850   0.264
 7235TIP3   OH221668   7.004   3.328   4.220
 7235TIP3    H121669   7.081   3.354   4.168
 7235TIP3    H221670   6.953   3.408   4.228
 7236TIP3   OH221671   3.647   3.473   2.027
 7236TIP3    H121672   3.728   3.524   2.017
 7236TIP3    H221673   3.672   3.398   2.080
 7237TIP3   OH221674   6.218   0.542   5.800
 7237TIP3    H121675   6.296   0.570   5.848
 7237TIP3    H221676   6.216   0.447   5.812
 7238TIP3   OH221677   0.802   5.333   5.122
 7238TIP3    H121678   0.807   5.237   5.129
 7238TIP3    H221679   0.831   5.365   5.207
 7239TIP3   OH221680   5.521   5.062   2.621
 7239TIP3    H121681   5.439   5.095   2.656
 7239TIP3    H221682   5.577   5.140   2.613
 7240TIP3   OH221683   2.775   1.280   0.740
 7240TIP3    H121684   2.732   1.284   0.655
 7240TIP3    H221685   2.769   1.369   0.775
 7241TIP3   OH221686   1.077   2.332   2.304
 7241TIP3    H121687   1.078   2.370   2.391
 7241TIP3    H221688   1.045   2.403   2.247
 7242TIP3   OH221689   4.720   2.606   3.016
 7242TIP3    H121690   4.674   2.618   3.100
 7242TIP3    H221691   4.657   2.558   2.962
 7243TIP3   OH221692   5.656   1.416   1.734
 7243TIP3    H121693   5.655   1.501   1.691
 7243TIP3    H221694   5.564   1.391   1.740
 7244TIP3   OH221695   0.412   0.607   1.560
 7244TIP3    H121696   0.343   0.674   1.558
 7244TIP3    H221697   0.385   0.548   1.631
 7245TIP3   OH221698   5.182   0.201   0.784
 7245TIP3    H121699   5.140   0.246   0.710
 7245TIP3    H221700   5.267   0.245   0.794
 7246TIP3   OH221701   3.575   3.857   5.713
 7246TIP3    H121702   3.493   3.902   5.731
 7246TIP3    H221703   3.619   3.851   5.798
 7247TIP3   OH221704   6.790   6.189   1.788
 7247TIP3    H121705   6.737   6.267   1.800
 7247TIP3    H221706   6.872   6.221   1.751
 7248TIP3   OH221707   1.368   3.546   1.660
 7248TIP3    H121708   1.304   3.613   1.683
 7248TIP3    H221709   1.415   3.528   1.741
 7249TIP3   OH221710   1.687   0.957   0.160
 7249TIP3    H121711   1.629   0.886   0.187
 7249TIP3    H221712   1.745   0.917   0.095
 7250TIP3   OH221713   4.070   5.186   5.609
 7250TIP3    H121714   3.999   5.146   5.661
 7250TIP3    H221715   4.029   5.260   5.566
 7251TIP3   OH221716   2.583   0.144   5.677
 7251TIP3    H121717   2.517   0.138   5.746
 7251TIP3    H221718   2.583   0.058   5.636
 7252TIP3   OH221719   1.434   6.696   5.807
 7252TIP3    H121720   1.506   6.691   5.745
 7252TIP3    H221721   1.357   6.718   5.753
 7253TIP3   OH221722   5.332   1.714   0.295
 7253TIP3    H121723   5.355   1.768   0.219
 7253TIP3    H221724   5.404   1.652   0.303
 7254TIP3   OH221725   0.461   3.743   2.041
 7254TIP3    H121726   0.492   3.729   2.131
 7254TIP3    H221727   0.421   3.660   2.016
 7255TIP3   OH221728   5.697   0.502   5.744
 7255TIP3    H121729   5.651   0.455   5.675
 7255TIP3    H221730   5.743   0.573   5.698
 7256TIP3   OH221731   1.271   3.840   5.461
 7256TIP3    H121732   1.283   3.928   5.497
 7256TIP3    H221733   1.198   3.850   5.400
 7257TIP3   OH221734   0.236   5.352   4.395
 7257TIP3    H121735   0.226   5.447   4.399
 7257TIP3    H221736   0.195   5.320   4.476
 7258TIP3   OH221737   6.231   4.654   5.254
 7258TIP3    H121738   6.199   4.741   5.231
 7258TIP3    H221739   6.158   4.613   5.300
 7259TIP3   OH221740   1.579   5.811   2.189
 7259TIP3    H121741   1.597   5.755   2.265
 7259TIP3    H221742   1.530   5.754   2.129
 7260TIP3   OH221743   3.383   1.959   2.896
 7260TIP3    H121744   3.453   1.993   2.951
 7260TIP3    H221745   3.359   2.032   2.840
 7261TIP3   OH221746   3.561   4.553   2.258
 7261TIP3    H121747   3.489   4.496   2.229
 7261TIP3    H221748   3.516   4.629   2.296
 7262TIP3   OH221749   1.687   5.357   2.510
 7262TIP3    H121750   1.606   5.361   2.561
 7262TIP3    H221751   1.756   5.342   2.576
 7263TIP3   OH221752   1.340   5.210   3.560
 7263TIP3    H121753   1.383   5.197   3.475
 7263TIP3    H221754   1.311   5.123   3.586
 7264TIP3   OH221755   2.352   5.365   4.227
 7264TIP3    H121756   2.366   5.360   4.132
 7264TIP3    H221757   2.364   5.457   4.248
 7265TIP3   OH221758   6.648   0.639   2.371
 7265TIP3    H121759   6.591   0.574   2.330
 7265TIP3    H221760   6.700   0.674   2.299
 7266TIP3   OH221761   0.174   4.792   2.647
 7266TIP3    H121762   0.209   4.704   2.653
 7266TIP3    H221763   0.102   4.785   2.584
 7267TIP3   OH221764   1.916   5.883   0.567
 7267TIP3    H121765   1.902   5.899   0.661
 7267TIP3    H221766   1.956   5.964   0.535
 7268TIP3   OH221767   4.652   1.982   4.809
 7268TIP3    H121768   4.599   2.032   4.871
 7268TIP3    H221769   4.609   1.995   4.725
 7269TIP3   OH221770   4.910   1.816   1.651
 7269TIP3    H121771   4.821   1.817   1.686
 7269TIP3    H221772   4.965   1.798   1.727
 7270TIP3   OH221773   3.694   3.304   2.240
 7270TIP3    H121774   3.755   3.316   2.313
 7270TIP3    H221775   3.612   3.276   2.281
 7271TIP3   OH221776   1.019   6.099   0.326
 7271TIP3    H121777   1.058   6.023   0.283
 7271TIP3    H221778   1.093   6.157   0.342
 7272TIP3   OH221779   4.329   2.795   3.185
 7272TIP3    H121780   4.309   2.887   3.197
 7272TIP3    H221781   4.421   2.786   3.207
 7273TIP3   OH221782   4.888   2.050   5.579
 7273TIP3    H121783   4.970   2.002   5.576
 7273TIP3    H221784   4.855   2.036   5.668
 7274TIP3   OH221785   2.857   5.677   5.413
 7274TIP3    H121786   2.860   5.587   5.445
 7274TIP3    H221787   2.948   5.698   5.392
 7275TIP3   OH221788   5.835   4.289   3.283
 7275TIP3    H121789   5.827   4.263   3.374
 7275TIP3    H221790   5.755   4.255   3.241
 7276TIP3   OH221791   5.274   5.496   4.830
 7276TIP3    H121792   5.199   5.453   4.871
 7276TIP3    H221793   5.271   5.466   4.739
 7277TIP3   OH221794   3.352   6.547   5.059
 7277TIP3    H121795   3.375   6.454   5.049
 7277TIP3    H221796   3.374   6.586   4.974
 7278TIP3   OH221797   6.624   1.611   0.372
 7278TIP3    H121798   6.688   1.645   0.434
 7278TIP3    H221799   6.546   1.666   0.385
 7279TIP3   OH221800   6.715   0.161   3.049
 7279TIP3    H121801   6.657   0.197   2.982
 7279TIP3    H221802   6.797   0.145   3.003
 7280TIP3   OH221803   6.987   2.008   0.327
 7280TIP3    H121804   7.046   2.015   0.402
 7280TIP3    H221805   7.044   2.017   0.250
 7281TIP3   OH221806   2.722   3.079   4.328
 7281TIP3    H121807   2.649   3.032   4.288
 7281TIP3    H221808   2.687   3.114   4.409
 7282TIP3   OH221809   5.240   0.616   2.713
 7282TIP3    H121810   5.213   0.623   2.622
 7282TIP3    H221811   5.297   0.691   2.728
 7283TIP3   OH221812   6.155   6.011   0.385
 7283TIP3    H121813   6.085   6.008   0.320
 7283TIP3    H221814   6.133   6.085   0.441
 7284TIP3   OH221815   2.710   1.529   1.522
 7284TIP3    H121816   2.632   1.537   1.468
 7284TIP3    H221817   2.685   1.467   1.591
 7285TIP3   OH221818   5.029   3.444   1.705
 7285TIP3    H121819   5.092   3.439   1.633
 7285TIP3    H221820   4.973   3.368   1.693
 7286TIP3   OH221821   7.076   0.020   0.914
 7286TIP3    H121822   7.044   0.097   0.868
 7286TIP3    H221823   7.128  -0.027   0.849
 7287TIP3   OH221824   5.054   4.839   1.955
 7287TIP3    H121825   5.093   4.854   1.869
 7287TIP3    H221826   4.960   4.848   1.940
 7288TIP3   OH221827   5.047   1.615   0.622
 7288TIP3    H121828   5.120   1.556   0.601
 7288TIP3    H221829   5.048   1.620   0.717
 7289TIP3   OH221830   4.694   0.374   0.409
 7289TIP3    H121831   4.618   0.431   0.418
 7289TIP3    H221832   4.681   0.330   0.325
 7290TIP3   OH221833   4.873   4.359   4.013
 7290TIP3    H121834   4.815   4.287   3.991
 7290TIP3    H221835   4.816   4.436   4.012
 7291TIP3   OH221836   2.116   5.586   4.768
 7291TIP3    H121837   2.116   5.608   4.861
 7291TIP3    H221838   2.027   5.604   4.739
 7292TIP3   OH221839   1.716   2.097   0.338
 7292TIP3    H121840   1.664   2.017   0.348
 7292TIP3    H221841   1.777   2.076   0.267
 7293TIP3   OH221842   2.144   0.887   5.375
 7293TIP3    H121843   2.192   0.834   5.438
 7293TIP3    H221844   2.132   0.971   5.418
 7294TIP3   OH221845   4.565   4.189   0.675
 7294TIP3    H121846   4.545   4.223   0.588
 7294TIP3    H221847   4.654   4.154   0.667
 7295TIP3   OH221848   5.512   3.881   2.042
 7295TIP3    H121849   5.583   3.822   2.018
 7295TIP3    H221850   5.542   3.967   2.016
 7296TIP3   OH221851   4.749   1.358   0.361
 7296TIP3    H121852   4.744   1.449   0.392
 7296TIP3    H221853   4.751   1.366   0.265
 7297TIP3   OH221854   0.289   3.063   2.259
 7297TIP3    H121855   0.349   3.101   2.196
 7297TIP3    H221856   0.214   3.034   2.206
 7298TIP3   OH221857   3.667   5.799   1.235
 7298TIP3    H121858   3.606   5.736   1.272
 7298TIP3    H221859   3.738   5.804   1.299
 7299TIP3   OH221860   3.551   5.806   5.018
 7299TIP3    H121861   3.584   5.885   5.059
 7299TIP3    H221862   3.583   5.810   4.927
 7300TIP3   OH221863   4.650   6.524   2.355
 7300TIP3    H121864   4.611   6.443   2.322
 7300TIP3    H221865   4.633   6.523   2.449
 7301TIP3   OH221866   5.518   1.573   2.459
 7301TIP3    H121867   5.514   1.514   2.534
 7301TIP3    H221868   5.533   1.515   2.384
 7302TIP3   OH221869   5.286   1.364   0.557
 7302TIP3    H121870   5.311   1.282   0.598
 7302TIP3    H221871   5.314   1.432   0.618
 7303TIP3   OH221872   2.957   6.236   5.856
 7303TIP3    H121873   2.886   6.223   5.793
 7303TIP3    H221874   2.914   6.236   5.941
 7304TIP3   OH221875   3.348   2.338   0.839
 7304TIP3    H121876   3.372   2.279   0.911
 7304TIP3    H221877   3.388   2.298   0.762
 7305TIP3   OH221878   4.868   4.551   2.876
 7305TIP3    H121879   4.905   4.507   2.799
 7305TIP3    H221880   4.942   4.596   2.916
 7306TIP3   OH221881   0.801   1.654   1.730
 7306TIP3    H121882   0.781   1.748   1.727
 7306TIP3    H221883   0.733   1.617   1.787
 7307TIP3   OH221884   5.745   0.963   3.971
 7307TIP3    H121885   5.659   1.004   3.983
 7307TIP3    H221886   5.742   0.928   3.882
 7308TIP3   OH221887   6.473   4.901   1.496
 7308TIP3    H121888   6.456   4.825   1.553
 7308TIP3    H221889   6.464   4.867   1.407
 7309TIP3   OH221890   3.862   5.810   5.262
 7309TIP3    H121891   3.911   5.792   5.342
 7309TIP3    H221892   3.928   5.840   5.200
 7310TIP3   OH221893   0.638   6.744   2.627
 7310TIP3    H121894   0.710   6.782   2.678
 7310TIP3    H221895   0.573   6.717   2.692
 7311TIP3   OH221896   2.891   2.864   0.307
 7311TIP3    H121897   2.949   2.914   0.250
 7311TIP3    H221898   2.820   2.924   0.328
 7312TIP3   OH221899   1.862   3.124   4.763
 7312TIP3    H121900   1.852   3.050   4.823
 7312TIP3    H221901   1.774   3.161   4.757
 7313TIP3   OH221902   6.428   1.099   4.202
 7313TIP3    H121903   6.455   1.019   4.156
 7313TIP3    H221904   6.398   1.069   4.287
 7314TIP3   OH221905   3.035   3.001   4.997
 7314TIP3    H121906   3.026   2.914   5.035
 7314TIP3    H221907   3.123   3.030   5.022
 7315TIP3   OH221908   1.827   4.750   0.406
 7315TIP3    H121909   1.898   4.812   0.387
 7315TIP3    H221910   1.856   4.668   0.365
 7316TIP3   OH221911   4.663   5.702   3.536
 7316TIP3    H121912   4.717   5.672   3.463
 7316TIP3    H221913   4.594   5.755   3.495
 7317TIP3   OH221914   5.067   4.704   3.044
 7317TIP3    H121915   5.019   4.784   3.023
 7317TIP3    H221916   5.085   4.710   3.138
 7318TIP3   OH221917   2.409   3.738   1.301
 7318TIP3    H121918   2.490   3.771   1.262
 7318TIP3    H221919   2.432   3.719   1.392
 7319TIP3   OH221920   2.474   1.601   4.172
 7319TIP3    H121921   2.484   1.690   4.137
 7319TIP3    H221922   2.554   1.588   4.223
 7320TIP3   OH221923   7.033   4.010   5.040
 7320TIP3    H121924   6.967   3.943   5.058
 7320TIP3    H221925   6.995   4.091   5.073
 7321TIP3   OH221926   2.769   4.200   2.922
 7321TIP3    H121927   2.768   4.105   2.934
 7321TIP3    H221928   2.817   4.214   2.841
 7322TIP3   OH221929   2.789   2.226   2.844
 7322TIP3    H121930   2.744   2.263   2.768
 7322TIP3    H221931   2.783   2.294   2.911
 7323TIP3   OH221932   6.114   1.603   3.571
 7323TIP3    H121933   6.088   1.651   3.492
 7323TIP3    H221934   6.111   1.669   3.640
 7324TIP3   OH221935   3.154   5.392   4.206
 7324TIP3    H121936   3.179   5.299   4.203
 7324TIP3    H221937   3.202   5.427   4.282
 7325TIP3   OH221938   3.064   3.255   2.840
 7325TIP3    H121939   3.069   3.300   2.925
 7325TIP3    H221940   3.011   3.314   2.786
 7326TIP3   OH221941   5.290   2.249   4.131
 7326TIP3    H121942   5.381   2.224   4.112
 7326TIP3    H221943   5.293   2.287   4.219
 7327TIP3   OH221944   1.474   5.762   1.862
 7327TIP3    H121945   1.440   5.699   1.799
 7327TIP3    H221946   1.401   5.778   1.922
 7328TIP3   OH221947   3.488   2.684   0.896
 7328TIP3    H121948   3.399   2.672   0.863
 7328TIP3    H221949   3.479   2.747   0.967
 7329TIP3   OH221950   2.071   1.695   1.107
 7329TIP3    H121951   1.997   1.673   1.050
 7329TIP3    H221952   2.053   1.785   1.136
 7330TIP3   OH221953   7.083   3.851   2.287
 7330TIP3    H121954   7.138   3.861   2.365
 7330TIP3    H221955   7.057   3.759   2.289
 7331TIP3   OH221956   2.076   4.299   3.551
 7331TIP3    H121957   2.049   4.354   3.625
 7331TIP3    H221958   2.015   4.323   3.481
 7332TIP3   OH221959   1.600   2.319   0.067
 7332TIP3    H121960   1.521   2.341   0.016
 7332TIP3    H221961   1.632   2.239   0.026
 7333TIP3   OH221962   2.222   6.191   4.805
 7333TIP3    H121963   2.279   6.261   4.771
 7333TIP3    H221964   2.242   6.115   4.750
 7334TIP3   OH221965   3.641   0.868   1.912
 7334TIP3    H121966   3.657   0.829   1.998
 7334TIP3    H221967   3.624   0.960   1.931
 7335TIP3   OH221968   0.699   0.945   0.294
 7335TIP3    H121969   0.623   0.908   0.250
 7335TIP3    H221970   0.768   0.944   0.229
 7336TIP3   OH221971   5.998   2.058   3.669
 7336TIP3    H121972   6.012   2.127   3.733
 7336TIP3    H221973   6.020   2.097   3.585
 7337TIP3   OH221974   3.884   5.776   2.915
 7337TIP3    H121975   3.856   5.743   2.830
 7337TIP3    H221976   3.908   5.698   2.964
 7338TIP3   OH221977   4.365   0.502   1.328
 7338TIP3    H121978   4.295   0.437   1.333
 7338TIP3    H221979   4.400   0.493   1.239
 7339TIP3   OH221980   2.378   0.939   5.213
 7339TIP3    H121981   2.405   1.021   5.255
 7339TIP3    H221982   2.304   0.908   5.265
 7340TIP3   OH221983   1.440   3.825   4.568
 7340TIP3    H121984   1.403   3.746   4.529
 7340TIP3    H221985   1.520   3.841   4.519
 7341TIP3   OH221986   3.467   2.264   2.491
 7341TIP3    H121987   3.388   2.272   2.438
 7341TIP3    H221988   3.438   2.283   2.581
 7342TIP3   OH221989   1.389   4.430   5.063
 7342TIP3    H121990   1.439   4.354   5.093
 7342TIP3    H221991   1.386   4.421   4.968
 7343TIP3   OH221992   5.717   5.944   3.765
 7343TIP3    H121993   5.693   5.852   3.758
 7343TIP3    H221994   5.794   5.945   3.822
 7344TIP3   OH221995   2.037   5.250   5.204
 7344TIP3    H121996   2.030   5.216   5.115
 7344TIP3    H221997   1.967   5.206   5.252
 7345TIP3   OH221998   6.388   2.087   1.905
 7345TIP3    H121999   6.389   2.153   1.974
 7345TIP3    H222000   6.366   2.005   1.951
 7346TIP3   OH222001   1.227   2.137   1.494
 7346TIP3    H122002   1.268   2.144   1.408
 7346TIP3    H222003   1.259   2.213   1.543
 7347TIP3   OH222004   6.535   1.309   3.522
 7347TIP3    H122005   6.601   1.316   3.590
 7347TIP3    H222006   6.528   1.397   3.486
 7348TIP3   OH222007   5.826   3.569   3.340
 7348TIP3    H122008   5.891   3.637   3.358
 7348TIP3    H222009   5.796   3.541   3.426
 7349TIP3   OH222010   4.611   0.422   3.044
 7349TIP3    H122011   4.641   0.512   3.057
 7349TIP3    H222012   4.631   0.404   2.952
 7350TIP3   OH222013   0.410   2.516   0.710
 7350TIP3    H122014   0.323   2.546   0.736
 7350TIP3    H222015   0.462   2.521   0.790
 7351TIP3   OH222016   0.476   4.073   3.976
 7351TIP3    H122017   0.560   4.045   3.939
 7351TIP3    H222018   0.483   4.051   4.069
 7352TIP3   OH222019   4.153   1.486   4.235
 7352TIP3    H122020   4.204   1.406   4.250
 7352TIP3    H222021   4.082   1.482   4.299
 7353TIP3   OH222022   0.915   0.236   4.761
 7353TIP3    H122023   0.928   0.324   4.726
 7353TIP3    H222024   0.919   0.179   4.685
 7354TIP3   OH222025   1.912   5.118   4.517
 7354TIP3    H122026   1.879   5.184   4.579
 7354TIP3    H222027   2.000   5.149   4.495
 7355TIP3   OH222028   2.977   6.259   5.458
 7355TIP3    H122029   2.883   6.255   5.474
 7355TIP3    H222030   2.992   6.193   5.390
 7356TIP3   OH222031   3.662   0.898   2.594
 7356TIP3    H122032   3.578   0.904   2.639
 7356TIP3    H222033   3.682   0.804   2.592
 7357TIP3   OH222034   5.614   3.207   3.402
 7357TIP3    H122035   5.523   3.232   3.387
 7357TIP3    H222036   5.640   3.256   3.480
 7358TIP3   OH222037   2.683   4.901   4.466
 7358TIP3    H122038   2.646   4.897   4.378
 7358TIP3    H222039   2.719   4.814   4.482
 7359TIP3   OH222040   3.048   5.002   4.810
 7359TIP3    H122041   3.050   5.034   4.719
 7359TIP3    H222042   3.140   4.983   4.830
 7360TIP3   OH222043   5.445   5.394   4.014
 7360TIP3    H122044   5.365   5.365   4.057
 7360TIP3    H222045   5.498   5.432   4.085
 7361TIP3   OH222046   7.079   4.282   5.536
 7361TIP3    H122047   7.039   4.313   5.617
 7361TIP3    H222048   7.088   4.360   5.481
 7362TIP3   OH222049   0.952   4.072   4.464
 7362TIP3    H122050   1.036   4.035   4.436
 7362TIP3    H222051   0.975   4.131   4.536
 7363TIP3   OH222052   6.333   4.521   5.866
 7363TIP3    H122053   6.269   4.574   5.913
 7363TIP3    H222054   6.287   4.439   5.846
 7364TIP3   OH222055   6.727   0.191   2.583
 7364TIP3    H122056   6.703   0.283   2.597
 7364TIP3    H222057   6.647   0.143   2.601
 7365TIP3   OH222058   0.113   1.381   0.644
 7365TIP3    H122059   0.080   1.339   0.565
 7365TIP3    H222060   0.137   1.469   0.616
 7366TIP3   OH222061   1.369   3.738   3.014
 7366TIP3    H122062   1.463   3.748   3.027
 7366TIP3    H222063   1.334   3.827   3.027
 7367TIP3   OH222064   0.052   1.274   3.600
 7367TIP3    H122065  -0.029   1.287   3.650
 7367TIP3    H222066   0.072   1.181   3.610
 7368TIP3   OH222067   0.283   6.220   3.702
 7368TIP3    H122068   0.217   6.154   3.727
 7368TIP3    H222069   0.366   6.172   3.701
 7369TIP3   OH222070   1.779   4.715   4.155
 7369TIP3    H122071   1.802   4.677   4.070
 7369TIP3    H222072   1.803   4.807   4.146
 7370TIP3   OH222073   1.319   4.761   1.932
 7370TIP3    H122074   1.403   4.788   1.969
 7370TIP3    H222075   1.307   4.816   1.855
 7371TIP3   OH222076   7.194   5.273   0.426
 7371TIP3    H122077   7.168   5.261   0.518
 7371TIP3    H222078   7.237   5.358   0.425
 7372TIP3   OH222079   1.767   6.270   5.445
 7372TIP3    H122080   1.717   6.191   5.465
 7372TIP3    H222081   1.848   6.261   5.495
 7373TIP3   OH222082   6.939   2.521   1.466
 7373TIP3    H122083   6.999   2.495   1.396
 7373TIP3    H222084   6.898   2.440   1.494
 7374TIP3   OH222085   2.555   6.211   5.092
 7374TIP3    H122086   2.510   6.241   5.013
 7374TIP3    H222087   2.636   6.262   5.094
 7375TIP3   OH222088   4.379   2.677   1.856
 7375TIP3    H122089   4.324   2.660   1.779
 7375TIP3    H222090   4.451   2.615   1.848
 7376TIP3   OH222091   3.852   6.672   4.319
 7376TIP3    H122092   3.877   6.590   4.360
 7376TIP3    H222093   3.830   6.648   4.229
 7377TIP3   OH222094   5.141   0.654   2.963
 7377TIP3    H122095   5.188   0.726   3.005
 7377TIP3    H222096   5.195   0.631   2.888
 7378TIP3   OH222097   3.840   2.724   0.764
 7378TIP3    H122098   3.792   2.797   0.724
 7378TIP3    H222099   3.917   2.765   0.803
 7379TIP3   OH222100   0.266   4.891   0.208
 7379TIP3    H122101   0.358   4.895   0.180
 7379TIP3    H222102   0.247   4.798   0.214
 7380TIP3   OH222103   1.379   0.563   5.748
 7380TIP3    H122104   1.325   0.484   5.745
 7380TIP3    H222105   1.463   0.537   5.709
 7381TIP3   OH222106   4.428   2.884   1.316
 7381TIP3    H122107   4.469   2.834   1.386
 7381TIP3    H222108   4.461   2.973   1.327
 7382TIP3   OH222109   1.955   5.655   0.359
 7382TIP3    H122110   1.995   5.721   0.415
 7382TIP3    H222111   2.029   5.609   0.318
 7383TIP3   OH222112   0.068   1.628   3.689
 7383TIP3    H122113   0.133   1.586   3.632
 7383TIP3    H222114  -0.016   1.596   3.657
 7384TIP3   OH222115   5.973   2.637   4.653
 7384TIP3    H122116   6.057   2.605   4.621
 7384TIP3    H222117   5.959   2.590   4.735
 7385TIP3   OH222118   6.461   4.208   4.197
 7385TIP3    H122119   6.447   4.303   4.192
 7385TIP3    H222120   6.374   4.173   4.217
 7386TIP3   OH222121   6.704   5.575   0.577
 7386TIP3    H122122   6.617   5.579   0.617
 7386TIP3    H222123   6.760   5.624   0.637
 7387TIP3   OH222124   6.646   4.216   0.330
 7387TIP3    H122125   6.664   4.122   0.327
 7387TIP3    H222126   6.686   4.245   0.412
 7388TIP3   OH222127   4.845   6.213   4.175
 7388TIP3    H122128   4.760   6.184   4.144
 7388TIP3    H222129   4.898   6.134   4.179
 7389TIP3   OH222130   6.389   4.669   0.901
 7389TIP3    H122131   6.396   4.575   0.884
 7389TIP3    H222132   6.340   4.675   0.982
 7390TIP3   OH222133   4.432   1.825   1.556
 7390TIP3    H122134   4.468   1.880   1.486
 7390TIP3    H222135   4.476   1.855   1.635
 7391TIP3   OH222136   4.327   4.587   0.533
 7391TIP3    H122137   4.364   4.627   0.455
 7391TIP3    H222138   4.403   4.555   0.582
 7392TIP3   OH222139   0.296   2.113   0.374
 7392TIP3    H122140   0.387   2.096   0.398
 7392TIP3    H222141   0.269   2.185   0.431
 7393TIP3   OH222142   1.360   0.110   0.486
 7393TIP3    H122143   1.342   0.203   0.502
 7393TIP3    H222144   1.428   0.088   0.550
 7394TIP3   OH222145   1.387   0.878   1.162
 7394TIP3    H122146   1.431   0.806   1.116
 7394TIP3    H222147   1.452   0.949   1.164
 7395TIP3   OH222148   3.666   6.301   5.263
 7395TIP3    H122149   3.588   6.292   5.319
 7395TIP3    H222150   3.736   6.260   5.314
 7396TIP3   OH222151   3.774   6.639   5.571
 7396TIP3    H122152   3.822   6.588   5.636
 7396TIP3    H222153   3.743   6.716   5.619
 7397TIP3   OH222154   3.443   1.881   0.496
 7397TIP3    H122155   3.519   1.916   0.450
 7397TIP3    H222156   3.479   1.821   0.561
 7398TIP3   OH222157   5.488   4.844   0.736
 7398TIP3    H122158   5.469   4.846   0.643
 7398TIP3    H222159   5.454   4.927   0.769
 7399TIP3   OH222160   5.539   4.553   4.415
 7399TIP3    H122161   5.529   4.471   4.366
 7399TIP3    H222162   5.561   4.618   4.349
 7400TIP3   OH222163   4.820   5.663   5.368
 7400TIP3    H122164   4.914   5.653   5.356
 7400TIP3    H222165   4.811   5.744   5.418
 7401TIP3   OH222166   0.193   0.686   4.551
 7401TIP3    H122167   0.240   0.611   4.589
 7401TIP3    H222168   0.261   0.738   4.509
 7402TIP3   OH222169   2.048   3.200   2.771
 7402TIP3    H122170   2.024   3.121   2.721
 7402TIP3    H222171   2.043   3.172   2.862
 7403TIP3   OH222172   6.409   0.413   2.720
 7403TIP3    H122173   6.327   0.452   2.690
 7403TIP3    H222174   6.474   0.441   2.656
 7404TIP3   OH222175   2.499   6.459  -0.052
 7404TIP3    H122176   2.425   6.413  -0.012
 7404TIP3    H222177   2.461   6.535  -0.095
 7405TIP3   OH222178   5.573   3.992   4.080
 7405TIP3    H122179   5.530   3.907   4.068
 7405TIP3    H222180   5.523   4.052   4.025
 7406TIP3   OH222181   2.924   1.402   2.144
 7406TIP3    H122182   2.905   1.397   2.051
 7406TIP3    H222183   2.929   1.311   2.173
 7407TIP3   OH222184   6.477   4.376   0.140
 7407TIP3    H122185   6.510   4.304   0.194
 7407TIP3    H222186   6.401   4.409   0.189
 7408TIP3   OH222187   2.857   0.325   1.905
 7408TIP3    H122188   2.916   0.307   1.978
 7408TIP3    H222189   2.825   0.239   1.879
 7409TIP3   OH222190   3.571   4.121   5.325
 7409TIP3    H122191   3.661   4.114   5.358
 7409TIP3    H222192   3.519   4.134   5.404
 7410TIP3   OH222193   4.905   0.765   4.093
 7410TIP3    H122194   4.963   0.691   4.110
 7410TIP3    H222195   4.817   0.731   4.108
 7411TIP3   OH222196   2.708   1.324   3.500
 7411TIP3    H122197   2.764   1.398   3.522
 7411TIP3    H222198   2.735   1.299   3.412
 7412TIP3   OH222199   1.499   3.449   3.864
 7412TIP3    H122200   1.519   3.502   3.787
 7412TIP3    H222201   1.580   3.448   3.915
 7413TIP3   OH222202   3.965   2.644   1.787
 7413TIP3    H122203   3.990   2.643   1.879
 7413TIP3    H222204   3.920   2.560   1.774
 7414TIP3   OH222205   7.106   1.500   2.313
 7414TIP3    H122206   7.090   1.586   2.273
 7414TIP3    H222207   7.049   1.499   2.391
 7415TIP3   OH222208   4.993   3.377   2.162
 7415TIP3    H122209   5.057   3.432   2.117
 7415TIP3    H222210   5.028   3.288   2.156
 7416TIP3   OH222211   7.187   5.503   3.819
 7416TIP3    H122212   7.272   5.513   3.863
 7416TIP3    H222213   7.123   5.510   3.890
 7417TIP3   OH222214   5.334   1.337   0.271
 7417TIP3    H122215   5.317   1.301   0.358
 7417TIP3    H222216   5.401   1.404   0.286
 7418TIP3   OH222217   4.566   1.406   2.601
 7418TIP3    H122218   4.496   1.449   2.651
 7418TIP3    H222219   4.624   1.478   2.577
 7419TIP3   OH222220   0.622   5.507   5.786
 7419TIP3    H122221   0.695   5.473   5.838
 7419TIP3    H222222   0.640   5.477   5.697
 7420TIP3   OH222223   5.561   4.466   0.420
 7420TIP3    H122224   5.638   4.450   0.475
 7420TIP3    H222225   5.501   4.395   0.442
 7421TIP3   OH222226   0.803   1.395   0.671
 7421TIP3    H122227   0.886   1.407   0.624
 7421TIP3    H222228   0.820   1.322   0.731
 7422TIP3   OH222229   2.945   2.714   2.627
 7422TIP3    H122230   2.968   2.807   2.632
 7422TIP3    H222231   3.017   2.669   2.672
 7423TIP3   OH222232   6.053   2.448   0.203
 7423TIP3    H122233   6.125   2.462   0.265
 7423TIP3    H222234   6.085   2.485   0.121
 7424TIP3   OH222235   5.293   5.918   1.547
 7424TIP3    H122236   5.323   5.988   1.604
 7424TIP3    H222237   5.342   5.841   1.574
 7425TIP3   OH222238   0.070   4.930   4.842
 7425TIP3    H122239   0.147   4.942   4.787
 7425TIP3    H222240   0.050   5.018   4.874
 7426TIP3   OH222241   4.077   4.801   0.256
 7426TIP3    H122242   4.018   4.726   0.270
 7426TIP3    H222243   4.032   4.856   0.192
 7427TIP3   OH222244   5.239   6.032   0.254
 7427TIP3    H122245   5.256   6.053   0.162
 7427TIP3    H222246   5.325   6.015   0.292
 7428TIP3   OH222247   6.113   4.865   5.130
 7428TIP3    H122248   6.078   4.953   5.135
 7428TIP3    H222249   6.095   4.837   5.041
 7429TIP3   OH222250   3.064   5.139   5.639
 7429TIP3    H122251   2.992   5.091   5.599
 7429TIP3    H222252   3.137   5.077   5.640
 7430TIP3   OH222253   5.504   2.017   2.965
 7430TIP3    H122254   5.519   2.066   2.884
 7430TIP3    H222255   5.535   2.075   3.035
 7431TIP3   OH222256   6.681   2.966   4.048
 7431TIP3    H122257   6.699   3.004   3.962
 7431TIP3    H222258   6.759   2.987   4.100
 7432TIP3   OH222259   2.514   1.242   3.842
 7432TIP3    H122260   2.457   1.311   3.875
 7432TIP3    H222261   2.455   1.182   3.796
 7433TIP3   OH222262   3.557   2.585   0.611
 7433TIP3    H122263   3.516   2.597   0.697
 7433TIP3    H222264   3.513   2.650   0.555
 7434TIP3   OH222265   0.826   0.638   5.672
 7434TIP3    H122266   0.896   0.699   5.695
 7434TIP3    H222267   0.864   0.552   5.684
 7435TIP3   OH222268   1.369   4.497   0.180
 7435TIP3    H122269   1.384   4.584   0.216
 7435TIP3    H222270   1.416   4.438   0.240
 7436TIP3   OH222271   7.105   4.321   4.046
 7436TIP3    H122272   7.065   4.261   4.110
 7436TIP3    H222273   7.159   4.379   4.099
 7437TIP3   OH222274   0.986   1.113   4.366
 7437TIP3    H122275   0.965   1.159   4.285
 7437TIP3    H222276   1.015   1.026   4.337
 7438TIP3   OH222277   2.941   5.130   0.952
 7438TIP3    H122278   2.887   5.208   0.963
 7438TIP3    H222279   3.005   5.135   1.023
 7439TIP3   OH222280   1.409   4.057   2.070
 7439TIP3    H122281   1.330   4.075   2.120
 7439TIP3    H222282   1.433   3.967   2.095
 7440TIP3   OH222283   4.418   3.404   1.946
 7440TIP3    H122284   4.369   3.442   2.018
 7440TIP3    H222285   4.355   3.349   1.900
 7441TIP3   OH222286   1.408   6.442   0.642
 7441TIP3    H122287   1.502   6.460   0.644
 7441TIP3    H222288   1.368   6.520   0.680
 7442TIP3   OH222289   5.786   0.148   4.034
 7442TIP3    H122290   5.781   0.235   4.073
 7442TIP3    H222291   5.737   0.157   3.952
 7443TIP3   OH222292   5.606   3.556   0.161
 7443TIP3    H122293   5.688   3.605   0.167
 7443TIP3    H222294   5.585   3.558   0.068
 7444TIP3   OH222295   2.931   6.238   2.770
 7444TIP3    H122296   2.836   6.230   2.760
 7444TIP3    H222297   2.963   6.254   2.681
 7445TIP3   OH222298   4.588   0.014   0.991
 7445TIP3    H122299   4.611   0.101   1.024
 7445TIP3    H222300   4.626   0.010   0.904
 7446TIP3   OH222301   6.047   2.407   5.320
 7446TIP3    H122302   6.090   2.482   5.360
 7446TIP3    H222303   5.954   2.420   5.337
 7447TIP3   OH222304   3.938   1.176   5.011
 7447TIP3    H122305   3.887   1.112   5.062
 7447TIP3    H222306   3.991   1.221   5.077
 7448TIP3   OH222307   0.501   5.172   4.457
 7448TIP3    H122308   0.405   5.173   4.450
 7448TIP3    H222309   0.519   5.202   4.546
 7449TIP3   OH222310   2.611   2.792   2.948
 7449TIP3    H122311   2.593   2.750   3.032
 7449TIP3    H222312   2.696   2.834   2.960
 7450TIP3   OH222313   5.804   5.978   3.426
 7450TIP3    H122314   5.717   5.997   3.459
 7450TIP3    H222315   5.861   5.986   3.503
 7451TIP3   OH222316   4.827   4.230   0.328
 7451TIP3    H122317   4.775   4.154   0.357
 7451TIP3    H222318   4.780   4.305   0.364
 7452TIP3   OH222319   3.802   3.591   5.310
 7452TIP3    H122320   3.749   3.662   5.344
 7452TIP3    H222321   3.768   3.575   5.222
 7453TIP3   OH222322   6.449   1.958   0.064
 7453TIP3    H122323   6.432   2.052   0.063
 7453TIP3    H222324   6.522   1.948   0.125
 7454TIP3   OH222325   6.978   6.158   3.949
 7454TIP3    H122326   7.028   6.146   4.029
 7454TIP3    H222327   6.956   6.069   3.921
 7455TIP3   OH222328   1.804   0.564   0.229
 7455TIP3    H122329   1.839   0.605   0.308
 7455TIP3    H222330   1.866   0.494   0.209
 7456TIP3   OH222331   2.253   5.335   1.009
 7456TIP3    H122332   2.163   5.305   1.021
 7456TIP3    H222333   2.307   5.261   1.035
 7457TIP3   OH222334   4.180   5.889  -0.013
 7457TIP3    H122335   4.156   5.808   0.033
 7457TIP3    H222336   4.266   5.871  -0.049
 7458TIP3   OH222337   0.725   3.230   1.307
 7458TIP3    H122338   0.638   3.257   1.337
 7458TIP3    H222339   0.708   3.160   1.245
 7459TIP3   OH222340   6.244   3.063   2.176
 7459TIP3    H122341   6.150   3.071   2.190
 7459TIP3    H222342   6.253   2.999   2.105
 7460TIP3   OH222343   0.909   5.645   0.075
 7460TIP3    H122344   0.877   5.585   0.008
 7460TIP3    H222345   0.887   5.732   0.042
 7461TIP3   OH222346   3.128   1.872   2.653
 7461TIP3    H122347   3.196   1.810   2.681
 7461TIP3    H222348   3.174   1.955   2.642
 7462TIP3   OH222349   4.835   4.634   4.732
 7462TIP3    H122350   4.879   4.646   4.817
 7462TIP3    H222351   4.818   4.541   4.726
 7463TIP3   OH222352   1.925   0.215   1.044
 7463TIP3    H122353   1.952   0.133   1.086
 7463TIP3    H222354   1.839   0.196   1.006
 7464TIP3   OH222355   6.693   4.203   2.271
 7464TIP3    H122356   6.750   4.278   2.287
 7464TIP3    H222357   6.652   4.222   2.187
 7465TIP3   OH222358   1.449   0.705   4.581
 7465TIP3    H122359   1.405   0.747   4.507
 7465TIP3    H222360   1.408   0.745   4.658
 7466TIP3   OH222361   5.624   5.493   4.220
 7466TIP3    H122362   5.659   5.523   4.304
 7466TIP3    H222363   5.695   5.505   4.158
 7467TIP3   OH222364   1.089   2.543   2.077
 7467TIP3    H122365   1.077   2.544   1.982
 7467TIP3    H222366   1.002   2.558   2.113
 7468TIP3   OH222367   0.500   4.825   4.424
 7468TIP3    H122368   0.452   4.743   4.417
 7468TIP3    H222369   0.433   4.891   4.442
 7469TIP3   OH222370   6.309   2.539   5.163
 7469TIP3    H122371   6.287   2.579   5.247
 7469TIP3    H222372   6.392   2.494   5.179
 7470TIP3   OH222373   6.641   2.417   3.159
 7470TIP3    H122374   6.567   2.455   3.112
 7470TIP3    H222375   6.623   2.434   3.251
 7471TIP3   OH222376   6.892   4.860   0.780
 7471TIP3    H122377   6.808   4.816   0.796
 7471TIP3    H222378   6.957   4.791   0.792
 7472TIP3   OH222379   0.535   3.649   4.816
 7472TIP3    H122380   0.630   3.659   4.815
 7472TIP3    H222381   0.514   3.624   4.905
 7473TIP3   OH222382   5.630   1.306   3.352
 7473TIP3    H122383   5.717   1.272   3.373
 7473TIP3    H222384   5.631   1.397   3.384
 7474TIP3   OH222385   4.751   5.861   0.139
 7474TIP3    H122386   4.813   5.801   0.098
 7474TIP3    H222387   4.783   5.872   0.229
 7475TIP3   OH222388   2.872   4.642   4.698
 7475TIP3    H122389   2.839   4.570   4.644
 7475TIP3    H222390   2.920   4.697   4.636
 7476TIP3   OH222391   5.902   1.830   4.030
 7476TIP3    H122392   5.965   1.825   4.102
 7476TIP3    H222393   5.877   1.922   4.026
 7477TIP3   OH222394   1.229   3.994   1.632
 7477TIP3    H122395   1.139   3.971   1.606
 7477TIP3    H222396   1.218   4.062   1.698
 7478TIP3   OH222397   5.654   5.194   5.152
 7478TIP3    H122398   5.723   5.132   5.129
 7478TIP3    H222399   5.700   5.272   5.183
 7479TIP3   OH222400   2.760   3.817   3.690
 7479TIP3    H122401   2.708   3.844   3.766
 7479TIP3    H222402   2.704   3.835   3.615
 7480TIP3   OH222403   1.798   3.566   3.445
 7480TIP3    H122404   1.733   3.613   3.498
 7480TIP3    H222405   1.757   3.481   3.427
 7481TIP3   OH222406   5.983   4.425   3.979
 7481TIP3    H122407   6.045   4.441   4.050
 7481TIP3    H222408   5.989   4.331   3.962
 7482TIP3   OH222409   4.928   6.333   4.617
 7482TIP3    H122410   4.855   6.279   4.648
 7482TIP3    H222411   4.937   6.402   4.684
 7483TIP3   OH222412   2.433   6.013   5.535
 7483TIP3    H122413   2.344   6.006   5.502
 7483TIP3    H222414   2.469   6.090   5.491
 7484TIP3   OH222415   2.277   6.429   3.722
 7484TIP3    H122416   2.290   6.521   3.747
 7484TIP3    H222417   2.186   6.411   3.746
 7485TIP3   OH222418   0.961   4.865   3.508
 7485TIP3    H122419   0.974   4.906   3.422
 7485TIP3    H222420   0.896   4.920   3.552
 7486TIP3   OH222421   1.412   1.487   1.561
 7486TIP3    H122422   1.361   1.557   1.600
 7486TIP3    H222423   1.498   1.492   1.604
 7487TIP3   OH222424   6.685   1.319   2.283
 7487TIP3    H122425   6.768   1.288   2.244
 7487TIP3    H222426   6.691   1.414   2.278
 7488TIP3   OH222427   6.121   2.578   5.557
 7488TIP3    H122428   6.137   2.672   5.556
 7488TIP3    H222429   6.037   2.569   5.603
 7489TIP3   OH222430   4.882   0.674   2.810
 7489TIP3    H122431   4.963   0.660   2.859
 7489TIP3    H222432   4.843   0.753   2.848
 7490TIP3   OH222433   4.641   6.550   0.606
 7490TIP3    H122434   4.566   6.536   0.663
 7490TIP3    H222435   4.707   6.590   0.662
 7491TIP3   OH222436   2.838   2.758   0.560
 7491TIP3    H122437   2.858   2.761   0.467
 7491TIP3    H222438   2.743   2.746   0.564
 7492TIP3   OH222439   6.860   5.708   1.145
 7492TIP3    H122440   6.817   5.679   1.064
 7492TIP3    H222441   6.828   5.798   1.158
 7493TIP3   OH222442   0.326   2.980   4.721
 7493TIP3    H122443   0.258   2.926   4.680
 7493TIP3    H222444   0.399   2.977   4.659
 7494TIP3   OH222445   5.465   1.039   4.759
 7494TIP3    H122446   5.528   0.970   4.781
 7494TIP3    H222447   5.513   1.097   4.699
 7495TIP3   OH222448   1.400   1.164   5.567
 7495TIP3    H122449   1.307   1.169   5.587
 7495TIP3    H222450   1.406   1.179   5.473
 7496TIP3   OH222451   5.738   6.101   1.490
 7496TIP3    H122452   5.782   6.098   1.405
 7496TIP3    H222453   5.674   6.172   1.483
 7497TIP3   OH222454   4.844   3.543   0.486
 7497TIP3    H122455   4.819   3.615   0.427
 7497TIP3    H222456   4.938   3.531   0.470
 7498TIP3   OH222457   6.782   1.760   0.516
 7498TIP3    H122458   6.770   1.852   0.542
 7498TIP3    H222459   6.875   1.744   0.526
 7499TIP3   OH222460   0.101   4.491   0.613
 7499TIP3    H122461   0.106   4.455   0.525
 7499TIP3    H222462   0.097   4.585   0.601
 7500TIP3   OH222463   5.230   4.273   3.578
 7500TIP3    H122464   5.141   4.278   3.545
 7500TIP3    H222465   5.224   4.213   3.653
 7501TIP3   OH222466   3.818   2.254   5.449
 7501TIP3    H122467   3.771   2.280   5.528
 7501TIP3    H222468   3.750   2.246   5.382
 7502TIP3   OH222469   4.886   1.316   5.166
 7502TIP3    H122470   4.929   1.400   5.181
 7502TIP3    H222471   4.957   1.253   5.158
 7503TIP3   OH222472   4.378   6.015   4.160
 7503TIP3    H122473   4.372   6.109   4.142
 7503TIP3    H222474   4.455   5.986   4.111
 7504TIP3   OH222475   4.975   2.839   3.541
 7504TIP3    H122476   5.043   2.841   3.473
 7504TIP3    H222477   4.904   2.787   3.503
 7505TIP3   OH222478   2.707   0.259   1.037
 7505TIP3    H122479   2.752   0.297   1.113
 7505TIP3    H222480   2.700   0.166   1.059
 7506TIP3   OH222481   2.281   1.891   2.623
 7506TIP3    H122482   2.343   1.937   2.680
 7506TIP3    H222483   2.333   1.865   2.547
 7507TIP3   OH222484   5.411   1.641   3.338
 7507TIP3    H122485   5.391   1.571   3.276
 7507TIP3    H222486   5.507   1.644   3.340
 7508TIP3   OH222487   5.378   0.191   5.410
 7508TIP3    H122488   5.417   0.239   5.483
 7508TIP3    H222489   5.410   0.235   5.332
 7509TIP3   OH222490   0.650   6.541   1.834
 7509TIP3    H122491   0.611   6.538   1.921
 7509TIP3    H222492   0.579   6.569   1.776
 7510TIP3   OH222493   6.481   4.480   4.196
 7510TIP3    H122494   6.422   4.554   4.215
 7510TIP3    H222495   6.566   4.509   4.228
 7511TIP3   OH222496   1.485   2.148   2.853
 7511TIP3    H122497   1.555   2.109   2.905
 7511TIP3    H222498   1.444   2.073   2.808
 7512TIP3   OH222499   5.217   4.988   3.359
 7512TIP3    H122500   5.222   5.068   3.412
 7512TIP3    H222501   5.127   4.985   3.329
 7513TIP3   OH222502   4.279   2.102   2.013
 7513TIP3    H122503   4.323   2.172   2.061
 7513TIP3    H222504   4.248   2.143   1.933
 7514TIP3   OH222505   6.109   5.050   4.247
 7514TIP3    H122506   6.156   5.014   4.172
 7514TIP3    H222507   6.073   5.133   4.214
 7515TIP3   OH222508   6.605   1.481   2.759
 7515TIP3    H122509   6.544   1.458   2.689
 7515TIP3    H222510   6.683   1.428   2.742
 7516TIP3   OH222511   3.559   3.787   4.714
 7516TIP3    H122512   3.642   3.754   4.748
 7516TIP3    H222513   3.581   3.831   4.633
 7517TIP3   OH222514   2.605   3.906   2.318
 7517TIP3    H122515   2.547   3.831   2.309
 7517TIP3    H222516   2.688   3.878   2.279
 7518TIP3   OH222517   5.575   5.000   1.345
 7518TIP3    H122518   5.501   5.044   1.303
 7518TIP3    H222519   5.638   5.070   1.361
 7519TIP3   OH222520   0.333   5.386   5.194
 7519TIP3    H122521   0.367   5.460   5.245
 7519TIP3    H222522   0.383   5.311   5.225
 7520TIP3   OH222523   1.255   1.636   2.573
 7520TIP3    H122524   1.193   1.700   2.539
 7520TIP3    H222525   1.340   1.663   2.539
 7521TIP3   OH222526   1.988   5.712   2.459
 7521TIP3    H122527   1.961   5.800   2.432
 7521TIP3    H222528   1.949   5.701   2.546
 7522TIP3   OH222529   2.507   2.836   0.924
 7522TIP3    H122530   2.423   2.849   0.967
 7522TIP3    H222531   2.486   2.834   0.831
 7523TIP3   OH222532   0.219   0.866   5.889
 7523TIP3    H122533   0.278   0.941   5.886
 7523TIP3    H222534   0.277   0.790   5.878
 7524TIP3   OH222535   5.424   0.433   4.581
 7524TIP3    H122536   5.487   0.466   4.517
 7524TIP3    H222537   5.364   0.378   4.531
 7525TIP3   OH222538   5.947   4.875   0.787
 7525TIP3    H122539   5.863   4.836   0.762
 7525TIP3    H222540   6.007   4.849   0.717
 7526TIP3   OH222541   0.723   0.065   5.938
 7526TIP3    H122542   0.638   0.029   5.910
 7526TIP3    H222543   0.782   0.047   5.864
 7527TIP3   OH222544   4.906   3.701   1.737
 7527TIP3    H122545   4.833   3.646   1.767
 7527TIP3    H222546   4.979   3.641   1.726
 7528TIP3   OH222547   6.223   3.274   3.083
 7528TIP3    H122548   6.186   3.274   2.995
 7528TIP3    H222549   6.159   3.320   3.137
 7529TIP3   OH222550   4.323   5.759   0.980
 7529TIP3    H122551   4.365   5.844   0.968
 7529TIP3    H222552   4.394   5.695   0.971
 7530TIP3   OH222553   7.047   5.011   2.551
 7530TIP3    H122554   6.990   4.952   2.500
 7530TIP3    H222555   7.074   4.959   2.626
 7531TIP3   OH222556   4.590   5.209   4.527
 7531TIP3    H122557   4.494   5.210   4.533
 7531TIP3    H222558   4.608   5.162   4.446
 7532TIP3   OH222559   3.139   4.667   2.212
 7532TIP3    H122560   3.115   4.596   2.271
 7532TIP3    H222561   3.075   4.662   2.141
 7533TIP3   OH222562   5.713   0.142   4.460
 7533TIP3    H122563   5.803   0.130   4.430
 7533TIP3    H222564   5.661   0.150   4.380
 7534TIP3   OH222565   5.592   0.984   1.175
 7534TIP3    H122566   5.671   1.006   1.126
 7534TIP3    H222567   5.605   1.022   1.261
 7535TIP3   OH222568   2.142   4.512   2.818
 7535TIP3    H122569   2.098   4.492   2.901
 7535TIP3    H222570   2.126   4.436   2.763
 7536TIP3   OH222571   4.240   1.330   5.729
 7536TIP3    H122572   4.272   1.262   5.789
 7536TIP3    H222573   4.158   1.294   5.695
 7537TIP3   OH222574   3.041   6.729   2.324
 7537TIP3    H122575   3.108   6.720   2.392
 7537TIP3    H222576   2.969   6.776   2.366
 7538TIP3   OH222577   1.251   2.739   2.588
 7538TIP3    H122578   1.332   2.789   2.597
 7538TIP3    H222579   1.264   2.685   2.510
 7539TIP3   OH222580   2.498   5.954   5.150
 7539TIP3    H122581   2.577   5.925   5.195
 7539TIP3    H222582   2.513   6.047   5.131
 7540TIP3   OH222583   6.025   1.885   0.806
 7540TIP3    H122584   5.949   1.860   0.754
 7540TIP3    H222585   6.094   1.903   0.742
 7541TIP3   OH222586   0.776   0.819   0.675
 7541TIP3    H122587   0.864   0.852   0.696
 7541TIP3    H222588   0.718   0.891   0.698
 7542TIP3   OH222589   1.991   0.731   4.528
 7542TIP3    H122590   1.945   0.648   4.538
 7542TIP3    H222591   2.079   0.713   4.561
 7543TIP3   OH222592   4.450   4.466   1.454
 7543TIP3    H122593   4.527   4.427   1.414
 7543TIP3    H222594   4.407   4.394   1.500
 7544TIP3   OH222595   4.173   1.151   0.226
 7544TIP3    H122596   4.165   1.233   0.275
 7544TIP3    H222597   4.086   1.137   0.189
 7545TIP3   OH222598   3.240   2.160   2.039
 7545TIP3    H122599   3.279   2.175   1.953
 7545TIP3    H222600   3.146   2.157   2.022
 7546TIP3   OH222601   5.565   6.452   4.429
 7546TIP3    H122602   5.572   6.371   4.479
 7546TIP3    H222603   5.484   6.493   4.462
 7547TIP3   OH222604   5.134   2.237   5.528
 7547TIP3    H122605   5.137   2.203   5.439
 7547TIP3    H222606   5.226   2.244   5.554
 7548TIP3   OH222607   5.776   3.412   0.568
 7548TIP3    H122608   5.817   3.336   0.525
 7548TIP3    H222609   5.819   3.417   0.653
 7549TIP3   OH222610   5.443   1.854   0.942
 7549TIP3    H122611   5.506   1.782   0.949
 7549TIP3    H222612   5.371   1.818   0.890
 7550TIP3   OH222613   3.509   6.805   5.532
 7550TIP3    H122614   3.461   6.733   5.574
 7550TIP3    H222615   3.568   6.762   5.470
 7551TIP3   OH222616   5.069   3.345   0.541
 7551TIP3    H122617   5.151   3.315   0.580
 7551TIP3    H222618   5.016   3.375   0.615
 7552TIP3   OH222619   1.180   6.389   3.830
 7552TIP3    H122620   1.143   6.314   3.783
 7552TIP3    H222621   1.190   6.359   3.920
 7553TIP3   OH222622   0.102   0.639   1.427
 7553TIP3    H122623   0.084   0.720   1.475
 7553TIP3    H222624   0.118   0.668   1.337
 7554TIP3   OH222625   3.928   2.523   4.776
 7554TIP3    H122626   3.834   2.507   4.774
 7554TIP3    H222627   3.944   2.585   4.705
 7555TIP3   OH222628   0.625   0.635   5.191
 7555TIP3    H122629   0.658   0.725   5.193
 7555TIP3    H222630   0.618   0.610   5.284
 7556TIP3   OH222631   5.263   5.809   3.077
 7556TIP3    H122632   5.275   5.732   3.133
 7556TIP3    H222633   5.169   5.828   3.083
 7557TIP3   OH222634   2.906   3.196   4.113
 7557TIP3    H122635   2.838   3.140   4.151
 7557TIP3    H222636   2.928   3.257   4.183
 7558TIP3   OH222637   4.682   4.573   3.992
 7558TIP3    H122638   4.667   4.665   3.970
 7558TIP3    H222639   4.650   4.564   4.081
 7559TIP3   OH222640   3.768   3.411   0.411
 7559TIP3    H122641   3.688   3.454   0.380
 7559TIP3    H222642   3.741   3.365   0.491
 7560TIP3   OH222643   1.230   1.371   0.715
 7560TIP3    H122644   1.212   1.357   0.622
 7560TIP3    H222645   1.290   1.301   0.739
 7561TIP3   OH222646   3.504   2.420   3.511
 7561TIP3    H122647   3.593   2.389   3.524
 7561TIP3    H222648   3.482   2.468   3.591
 7562TIP3   OH222649   4.455   4.010   3.634
 7562TIP3    H122650   4.502   3.931   3.606
 7562TIP3    H222651   4.386   3.976   3.691
 7563TIP3   OH222652   2.979   2.957   4.332
 7563TIP3    H122653   2.901   3.013   4.324
 7563TIP3    H222654   2.995   2.926   4.243
 7564TIP3   OH222655   1.575   5.038   4.180
 7564TIP3    H122656   1.526   4.960   4.156
 7564TIP3    H222657   1.655   5.033   4.129
 7565TIP3   OH222658   5.297   4.030   2.095
 7565TIP3    H122659   5.336   3.950   2.062
 7565TIP3    H222660   5.245   4.064   2.022
 7566TIP3   OH222661   3.548   4.477   0.182
 7566TIP3    H122662   3.517   4.461   0.271
 7566TIP3    H222663   3.469   4.481   0.129
 7567TIP3   OH222664   0.763   5.010   3.630
 7567TIP3    H122665   0.775   4.999   3.724
 7567TIP3    H222666   0.672   4.986   3.614
 7568TIP3   OH222667   0.313   0.875   4.220
 7568TIP3    H122668   0.258   0.953   4.226
 7568TIP3    H222669   0.386   0.901   4.164
 7569TIP3   OH222670   5.358   4.696   2.554
 7569TIP3    H122671   5.313   4.619   2.590
 7569TIP3    H222672   5.288   4.759   2.538
 7570TIP3   OH222673   2.174   3.617   0.205
 7570TIP3    H122674   2.222   3.553   0.258
 7570TIP3    H222675   2.163   3.575   0.120
 7571TIP3   OH222676   2.136   0.949   0.829
 7571TIP3    H122677   2.185   0.992   0.899
 7571TIP3    H222678   2.126   0.858   0.860
 7572TIP3   OH222679   6.410   5.975   2.876
 7572TIP3    H122680   6.386   6.011   2.961
 7572TIP3    H222681   6.497   5.939   2.888
 7573TIP3   OH222682   0.740   4.305   3.441
 7573TIP3    H122683   0.671   4.327   3.503
 7573TIP3    H222684   0.709   4.338   3.357
 7574TIP3   OH222685   6.847   3.958   5.868
 7574TIP3    H122686   6.828   3.867   5.890
 7574TIP3    H222687   6.855   3.959   5.773
 7575TIP3   OH222688   3.071   6.744   3.943
 7575TIP3    H122689   2.979   6.719   3.952
 7575TIP3    H222690   3.074   6.803   3.868
 7576TIP3   OH222691   2.491   2.868   5.544
 7576TIP3    H122692   2.525   2.843   5.630
 7576TIP3    H222693   2.446   2.790   5.512
 7577TIP3   OH222694   1.716  -0.009   5.127
 7577TIP3    H122695   1.703   0.036   5.211
 7577TIP3    H222696   1.803  -0.047   5.134
 7578TIP3   OH222697   6.211   0.137   0.692
 7578TIP3    H122698   6.216   0.101   0.604
 7578TIP3    H222699   6.181   0.064   0.747
 7579TIP3   OH222700   4.117   0.283   1.126
 7579TIP3    H122701   4.169   0.299   1.047
 7579TIP3    H222702   4.101   0.188   1.125
 7580TIP3   OH222703   1.964   3.502   3.647
 7580TIP3    H122704   2.058   3.515   3.636
 7580TIP3    H222705   1.927   3.518   3.561
 7581TIP3   OH222706   3.394   1.689   5.141
 7581TIP3    H122707   3.442   1.680   5.223
 7581TIP3    H222708   3.310   1.645   5.158
 7582TIP3   OH222709   3.922   0.329   4.098
 7582TIP3    H122710   3.908   0.286   4.182
 7582TIP3    H222711   3.928   0.257   4.035
 7583TIP3   OH222712   5.960   2.998   4.202
 7583TIP3    H122713   5.973   3.087   4.234
 7583TIP3    H222714   5.878   2.970   4.242
 7584TIP3   OH222715   4.688   6.346   1.995
 7584TIP3    H122716   4.719   6.336   1.905
 7584TIP3    H222717   4.701   6.439   2.014
 7585TIP3   OH222718   0.493   5.984   3.973
 7585TIP3    H122719   0.464   5.990   3.882
 7585TIP3    H222720   0.468   5.896   4.001
 7586TIP3   OH222721   5.106   1.127   1.171
 7586TIP3    H122722   5.041   1.086   1.229
 7586TIP3    H222723   5.144   1.054   1.123
 7587TIP3   OH222724   3.904   5.260   3.729
 7587TIP3    H122725   3.971   5.195   3.753
 7587TIP3    H222726   3.823   5.210   3.722
 7588TIP3   OH222727   2.431   6.622   1.715
 7588TIP3    H122728   2.504   6.681   1.736
 7588TIP3    H222729   2.461   6.574   1.638
 7589TIP3   OH222730   1.389   6.244   0.875
 7589TIP3    H122731   1.468   6.281   0.914
 7589TIP3    H222732   1.385   6.282   0.787
 7590TIP3   OH222733   4.079   0.477   2.946
 7590TIP3    H122734   4.003   0.428   2.975
 7590TIP3    H222735   4.070   0.563   2.989
 7591TIP3   OH222736   2.116   2.682   2.903
 7591TIP3    H122737   2.041   2.623   2.903
 7591TIP3    H222738   2.079   2.769   2.918
 7592TIP3   OH222739   7.195   2.321   0.966
 7592TIP3    H122740   7.198   2.328   0.871
 7592TIP3    H222741   7.244   2.398   0.997
 7593TIP3   OH222742   2.834   0.933   2.333
 7593TIP3    H122743   2.768   0.991   2.294
 7593TIP3    H222744   2.806   0.923   2.424
 7594TIP3   OH222745   6.506   5.532   1.279
 7594TIP3    H122746   6.522   5.445   1.314
 7594TIP3    H222747   6.568   5.589   1.325
 7595TIP3   OH222748   5.553   4.407   2.271
 7595TIP3    H122749   5.538   4.314   2.291
 7595TIP3    H222750   5.642   4.410   2.236
 7596TIP3   OH222751   5.535   3.275   0.510
 7596TIP3    H122752   5.620   3.294   0.550
 7596TIP3    H222753   5.550   3.288   0.416
 7597TIP3   OH222754   3.324   5.849   0.041
 7597TIP3    H122755   3.291   5.760   0.048
 7597TIP3    H222756   3.386   5.857   0.114
 7598TIP3   OH222757   0.663   1.347   5.574
 7598TIP3    H122758   0.676   1.410   5.503
 7598TIP3    H222759   0.608   1.392   5.637
 7599TIP3   OH222760   0.718   2.206   1.676
 7599TIP3    H122761   0.671   2.262   1.737
 7599TIP3    H222762   0.749   2.265   1.608
 7600TIP3   OH222763   2.567   6.477   3.280
 7600TIP3    H122764   2.528   6.444   3.361
 7600TIP3    H222765   2.541   6.414   3.213
 7601TIP3   OH222766   2.646   6.238   2.710
 7601TIP3    H122767   2.611   6.298   2.776
 7601TIP3    H222768   2.613   6.272   2.627
 7602TIP3   OH222769   6.028   2.726   3.857
 7602TIP3    H122770   5.961   2.706   3.922
 7602TIP3    H222771   6.092   2.779   3.904
 7603TIP3   OH222772   1.256   5.347   1.057
 7603TIP3    H122773   1.262   5.253   1.069
 7603TIP3    H222774   1.165   5.369   1.081
 7604TIP3   OH222775   3.709   6.586   2.134
 7604TIP3    H122776   3.728   6.637   2.055
 7604TIP3    H222777   3.614   6.571   2.131
 7605TIP3   OH222778   5.052   4.677   1.669
 7605TIP3    H122779   5.135   4.661   1.715
 7605TIP3    H222780   5.063   4.633   1.585
 7606TIP3   OH222781   0.290   4.113   0.960
 7606TIP3    H122782   0.242   4.191   0.933
 7606TIP3    H222783   0.379   4.143   0.975
 7607TIP3   OH222784   6.851   4.472   3.454
 7607TIP3    H122785   6.896   4.542   3.405
 7607TIP3    H222786   6.841   4.401   3.391
 7608TIP3   OH222787   6.157   3.999   4.912
 7608TIP3    H122788   6.113   4.084   4.914
 7608TIP3    H222789   6.120   3.956   4.835
 7609TIP3   OH222790   2.901   2.576   4.033
 7609TIP3    H122791   2.814   2.540   4.015
 7609TIP3    H222792   2.908   2.652   3.975
 7610TIP3   OH222793   5.253   4.465   2.748
 7610TIP3    H122794   5.271   4.541   2.803
 7610TIP3    H222795   5.164   4.478   2.716
 7611TIP3   OH222796   1.551   1.304   3.522
 7611TIP3    H122797   1.551   1.249   3.443
 7611TIP3    H222798   1.466   1.348   3.520
 7612TIP3   OH222799   4.066   4.299   2.722
 7612TIP3    H122800   4.140   4.303   2.782
 7612TIP3    H222801   3.993   4.338   2.772
 7613TIP3   OH222802   3.128   1.883   0.353
 7613TIP3    H122803   3.096   1.916   0.437
 7613TIP3    H222804   3.062   1.819   0.325
 7614TIP3   OH222805   0.144   0.490   5.843
 7614TIP3    H122806   0.075   0.502   5.908
 7614TIP3    H222807   0.218   0.541   5.877
 7615TIP3   OH222808   0.152   0.043   4.390
 7615TIP3    H122809   0.148   0.138   4.396
 7615TIP3    H222810   0.116   0.012   4.473
 7616TIP3   OH222811   0.565   5.675   0.156
 7616TIP3    H122812   0.601   5.724   0.082
 7616TIP3    H222813   0.471   5.681   0.145
 7617TIP3   OH222814   5.623   4.239   4.978
 7617TIP3    H122815   5.582   4.300   4.916
 7617TIP3    H222816   5.557   4.227   5.047
 7618TIP3   OH222817   6.788   1.275  -0.003
 7618TIP3    H122818   6.744   1.308   0.075
 7618TIP3    H222819   6.860   1.222   0.030
 7619TIP3   OH222820   1.521   3.315   3.073
 7619TIP3    H122821   1.534   3.378   3.144
 7619TIP3    H222822   1.603   3.317   3.024
 7620TIP3   OH222823   1.551   0.091   0.691
 7620TIP3    H122824   1.554   0.155   0.762
 7620TIP3    H222825   1.636   0.048   0.695
 7621TIP3   OH222826   5.855   2.463   1.173
 7621TIP3    H122827   5.833   2.370   1.183
 7621TIP3    H222828   5.800   2.507   1.238
 7622TIP3   OH222829   4.199   3.481   2.158
 7622TIP3    H122830   4.197   3.420   2.232
 7622TIP3    H222831   4.125   3.454   2.103
 7623TIP3   OH222832   1.751   2.381   4.398
 7623TIP3    H122833   1.683   2.417   4.455
 7623TIP3    H222834   1.770   2.451   4.336
 7624TIP3   OH222835   3.708   3.842   2.245
 7624TIP3    H122836   3.798   3.844   2.212
 7624TIP3    H222837   3.691   3.931   2.274
 7625TIP3   OH222838   0.707   1.174   0.454
 7625TIP3    H122839   0.726   1.087   0.417
 7625TIP3    H222840   0.643   1.212   0.394
 7626TIP3   OH222841   5.640   5.114   3.030
 7626TIP3    H122842   5.570   5.072   2.980
 7626TIP3    H222843   5.601   5.127   3.117
 7627TIP3   OH222844   3.651   6.536   4.693
 7627TIP3    H122845   3.736   6.580   4.684
 7627TIP3    H222846   3.599   6.597   4.746
 7628TIP3   OH222847   3.734   1.248   3.623
 7628TIP3    H122848   3.662   1.311   3.627
 7628TIP3    H222849   3.692   1.163   3.636
 7629TIP3   OH222850   3.595   5.845   4.765
 7629TIP3    H122851   3.546   5.924   4.741
 7629TIP3    H222852   3.678   5.853   4.718
 7630TIP3   OH222853   3.419   2.598   3.734
 7630TIP3    H122854   3.514   2.592   3.733
 7630TIP3    H222855   3.399   2.647   3.814
 7631TIP3   OH222856   6.284   0.234   3.808
 7631TIP3    H122857   6.292   0.177   3.885
 7631TIP3    H222858   6.190   0.250   3.800
 7632TIP3   OH222859   2.684   1.975   2.875
 7632TIP3    H122860   2.767   1.955   2.832
 7632TIP3    H222861   2.698   2.058   2.919
 7633TIP3   OH222862   5.501   5.293   1.916
 7633TIP3    H122863   5.543   5.250   1.842
 7633TIP3    H222864   5.427   5.235   1.938
 7634TIP3   OH222865   2.766   3.820   1.055
 7634TIP3    H122866   2.780   3.901   1.103
 7634TIP3    H222867   2.746   3.847   0.966
 7635TIP3   OH222868   0.110   1.863   4.745
 7635TIP3    H122869   0.138   1.857   4.653
 7635TIP3    H222870   0.174   1.810   4.793
 7636TIP3   OH222871   0.637   2.725   5.784
 7636TIP3    H122872   0.643   2.728   5.689
 7636TIP3    H222873   0.654   2.815   5.812
 7637TIP3   OH222874   5.734   0.780   1.865
 7637TIP3    H122875   5.639   0.784   1.871
 7637TIP3    H222876   5.752   0.723   1.790
 7638TIP3   OH222877   7.090   2.995   0.048
 7638TIP3    H122878   7.157   3.042  -0.002
 7638TIP3    H222879   7.101   3.026   0.138
 7639TIP3   OH222880   3.726   2.506   0.927
 7639TIP3    H122881   3.811   2.545   0.903
 7639TIP3    H222882   3.663   2.577   0.916
 7640TIP3   OH222883   3.653   0.463   4.364
 7640TIP3    H122884   3.742   0.433   4.380
 7640TIP3    H222885   3.662   0.530   4.296
 7641TIP3   OH222886   0.966   1.992   1.510
 7641TIP3    H122887   1.062   1.987   1.512
 7641TIP3    H222888   0.946   2.026   1.423
 7642TIP3   OH222889   2.928   0.149   5.113
 7642TIP3    H122890   2.916   0.092   5.036
 7642TIP3    H222891   2.839   0.175   5.136
 7643TIP3   OH222892   7.043   3.851   1.525
 7643TIP3    H122893   6.953   3.819   1.531
 7643TIP3    H222894   7.064   3.845   1.432
 7644TIP3   OH222895   6.155   6.336   3.613
 7644TIP3    H122896   6.240   6.310   3.647
 7644TIP3    H222897   6.100   6.258   3.624
 7645TIP3   OH222898   1.006   4.216   4.714
 7645TIP3    H122899   1.035   4.287   4.771
 7645TIP3    H222900   1.087   4.172   4.687
 7646TIP3   OH222901   2.606   0.080   0.119
 7646TIP3    H122902   2.675   0.140   0.148
 7646TIP3    H222903   2.530   0.136   0.105
 7647TIP3   OH222904   2.180   3.722   4.723
 7647TIP3    H122905   2.221   3.695   4.805
 7647TIP3    H222906   2.248   3.770   4.676
 7648TIP3   OH222907   0.366   1.237   4.399
 7648TIP3    H122908   0.283   1.190   4.393
 7648TIP3    H222909   0.342   1.329   4.399
 7649TIP3   OH222910   6.326   4.950   4.099
 7649TIP3    H122911   6.419   4.934   4.114
 7649TIP3    H222912   6.324   5.007   4.022
 7650TIP3   OH222913   6.224   3.762   1.347
 7650TIP3    H122914   6.247   3.733   1.435
 7650TIP3    H222915   6.138   3.804   1.357
 7651TIP3   OH222916   5.211   0.043   1.018
 7651TIP3    H122917   5.183   0.081   0.935
 7651TIP3    H222918   5.251   0.116   1.065
 7652TIP3   OH222919   3.120   2.136   3.195
 7652TIP3    H122920   3.180   2.210   3.197
 7652TIP3    H222921   3.155   2.074   3.259
 7653TIP3   OH222922   4.753   4.557   4.314
 7653TIP3    H122923   4.842   4.527   4.330
 7653TIP3    H222924   4.697   4.488   4.349
 7654TIP3   OH222925   1.180   3.913   3.250
 7654TIP3    H122926   1.249   3.927   3.316
 7654TIP3    H222927   1.164   3.999   3.213
 7655TIP3   OH222928   0.197   0.920   1.546
 7655TIP3    H122929   0.130   0.929   1.613
 7655TIP3    H222930   0.186   0.997   1.490
 7656TIP3   OH222931   4.570   6.449   4.759
 7656TIP3    H122932   4.478   6.421   4.761
 7656TIP3    H222933   4.596   6.449   4.851
 7657TIP3   OH222934   0.820   6.633   0.896
 7657TIP3    H122935   0.834   6.541   0.916
 7657TIP3    H222936   0.726   6.641   0.883
 7658TIP3   OH222937   2.293   2.725   5.801
 7658TIP3    H122938   2.264   2.644   5.843
 7658TIP3    H222939   2.388   2.720   5.801
 7659TIP3   OH222940   5.157   1.761   3.241
 7659TIP3    H122941   5.236   1.712   3.264
 7659TIP3    H222942   5.174   1.794   3.153
 7660TIP3   OH222943   5.203   0.806   1.770
 7660TIP3    H122944   5.142   0.746   1.726
 7660TIP3    H222945   5.161   0.892   1.761
 7661TIP3   OH222946   6.978   0.187   1.266
 7661TIP3    H122947   6.910   0.151   1.322
 7661TIP3    H222948   6.977   0.281   1.283
 7662TIP3   OH222949   6.930   6.278   1.277
 7662TIP3    H122950   6.887   6.359   1.303
 7662TIP3    H222951   7.020   6.304   1.257
 7663TIP3   OH222952   1.793   6.735   3.593
 7663TIP3    H122953   1.765   6.745   3.684
 7663TIP3    H222954   1.888   6.722   3.598
 7664TIP3   OH222955   3.616   5.100   5.032
 7664TIP3    H122956   3.674   5.121   5.105
 7664TIP3    H222957   3.629   5.172   4.970
 7665TIP3   OH222958   5.915   1.291   0.075
 7665TIP3    H122959   5.834   1.241   0.058
 7665TIP3    H222960   5.956   1.299  -0.010
 7666TIP3   OH222961   1.302   5.659   2.818
 7666TIP3    H122962   1.283   5.576   2.862
 7666TIP3    H222963   1.248   5.723   2.865
 7667TIP3   OH222964   2.693   3.118   1.313
 7667TIP3    H122965   2.786   3.118   1.332
 7667TIP3    H222966   2.684   3.172   1.234
 7668TIP3   OH222967   4.127   4.248   3.463
 7668TIP3    H122968   4.204   4.206   3.424
 7668TIP3    H222969   4.140   4.240   3.557
 7669TIP3   OH222970   4.262   2.426   5.501
 7669TIP3    H122971   4.326   2.492   5.526
 7669TIP3    H222972   4.306   2.374   5.433
 7670TIP3   OH222973   3.456   2.535   5.610
 7670TIP3    H122974   3.463   2.470   5.680
 7670TIP3    H222975   3.536   2.587   5.618
 7671TIP3   OH222976   6.168   2.148   0.068
 7671TIP3    H122977   6.085   2.161   0.114
 7671TIP3    H222978   6.153   2.074   0.011
 7672TIP3   OH222979   5.234   1.636   5.782
 7672TIP3    H122980   5.149   1.642   5.739
 7672TIP3    H222981   5.230   1.704   5.850
 7673TIP3   OH222982   2.887   4.245   0.470
 7673TIP3    H122983   2.895   4.201   0.386
 7673TIP3    H222984   2.923   4.183   0.533
 7674TIP3   OH222985   1.127   6.698   2.178
 7674TIP3    H122986   1.131   6.671   2.086
 7674TIP3    H222987   1.034   6.693   2.201
 7675TIP3   OH222988  -0.007   2.734   2.361
 7675TIP3    H122989   0.079   2.726   2.319
 7675TIP3    H222990   0.012   2.774   2.446
 7676TIP3   OH222991   0.318   4.703   2.925
 7676TIP3    H122992   0.286   4.740   3.007
 7676TIP3    H222993   0.334   4.780   2.869
 7677TIP3   OH222994   5.078   1.702   5.336
 7677TIP3    H122995   5.140   1.700   5.409
 7677TIP3    H222996   5.092   1.787   5.295
 7678TIP3   OH222997   3.984   4.056   3.121
 7678TIP3    H122998   3.952   3.983   3.174
 7678TIP3    H222999   3.939   4.133   3.156
 7679TIP3   OH223000   0.304   1.272   0.958
 7679TIP3    H123001   0.371   1.339   0.945
 7679TIP3    H223002   0.235   1.316   1.008
 7680TIP3   OH223003   6.894   0.222   4.257
 7680TIP3    H123004   6.890   0.126   4.249
 7680TIP3    H223005   6.850   0.241   4.340
 7681TIP3   OH223006   0.671   3.213   2.358
 7681TIP3    H123007   0.651   3.177   2.272
 7681TIP3    H223008   0.601   3.277   2.374
 7682TIP3   OH223009   1.870   6.739   5.108
 7682TIP3    H123010   1.826   6.714   5.189
 7682TIP3    H223011   1.813   6.707   5.039
 7683TIP3   OH223012   1.599   5.242   5.723
 7683TIP3    H123013   1.645   5.159   5.735
 7683TIP3    H223014   1.619   5.292   5.802
 7684TIP3   OH223015   2.255   1.692   3.344
 7684TIP3    H123016   2.345   1.671   3.369
 7684TIP3    H223017   2.250   1.787   3.349
 7685TIP3   OH223018   0.360   4.236   2.912
 7685TIP3    H123019   0.383   4.144   2.904
 7685TIP3    H223020   0.367   4.254   3.006
 7686TIP3   OH223021   2.359   2.876   0.443
 7686TIP3    H123022   2.356   2.795   0.392
 7686TIP3    H223023   2.321   2.942   0.386
 7687TIP3   OH223024   5.650   4.463   1.612
 7687TIP3    H123025   5.615   4.439   1.526
 7687TIP3    H223026   5.669   4.556   1.605
 7688TIP3   OH223027   6.849   0.446   3.822
 7688TIP3    H123028   6.809   0.373   3.868
 7688TIP3    H223029   6.933   0.459   3.865
 7689TIP3   OH223030   1.828   4.238   0.833
 7689TIP3    H123031   1.734   4.227   0.823
 7689TIP3    H223032   1.866   4.173   0.773
 7690TIP3   OH223033   5.692   0.138   0.039
 7690TIP3    H123034   5.758   0.078   0.073
 7690TIP3    H223035   5.699   0.216   0.094
 7691TIP3   OH223036   3.012   1.708   5.606
 7691TIP3    H123037   3.048   1.734   5.521
 7691TIP3    H223038   2.966   1.626   5.589
 7692TIP3   OH223039   6.201  -0.041   2.844
 7692TIP3    H123040   6.114  -0.002   2.847
 7692TIP3    H223041   6.245   0.006   2.773
 7693TIP3   OH223042   1.720   2.764   2.589
 7693TIP3    H123043   1.759   2.676   2.587
 7693TIP3    H223044   1.722   2.789   2.681
 7694TIP3   OH223045   6.558   2.785   2.916
 7694TIP3    H123046   6.545   2.837   2.837
 7694TIP3    H223047   6.572   2.696   2.885
 7695TIP3   OH223048   0.959   1.432   2.904
 7695TIP3    H123049   1.024   1.392   2.846
 7695TIP3    H223050   0.941   1.517   2.864
 7696TIP3   OH223051   2.627   5.571   5.642
 7696TIP3    H123052   2.705   5.534   5.602
 7696TIP3    H223053   2.595   5.635   5.578
 7697TIP3   OH223054   4.772   3.864   2.658
 7697TIP3    H123055   4.860   3.883   2.623
 7697TIP3    H223056   4.770   3.911   2.742
 7698TIP3   OH223057   5.043   3.863   0.363
 7698TIP3    H123058   5.078   3.952   0.360
 7698TIP3    H223059   5.040   3.841   0.456
 7699TIP3   OH223060   4.739   3.486   1.893
 7699TIP3    H123061   4.717   3.502   1.985
 7699TIP3    H223062   4.801   3.413   1.895
 7700TIP3   OH223063  -0.005   5.802   4.441
 7700TIP3    H123064  -0.029   5.862   4.511
 7700TIP3    H223065  -0.051   5.835   4.364
 7701TIP3   OH223066   4.085   4.063   4.874
 7701TIP3    H123067   4.112   4.024   4.791
 7701TIP3    H223068   4.167   4.080   4.920
 7702TIP3   OH223069   4.132   1.706   0.380
 7702TIP3    H123070   4.195   1.776   0.363
 7702TIP3    H223071   4.173   1.628   0.343
 7703TIP3   OH223072   4.853   4.045   1.058
 7703TIP3    H123073   4.777   4.072   1.005
 7703TIP3    H223074   4.825   4.060   1.148
 7704TIP3   OH223075   0.376   4.479   2.743
 7704TIP3    H123076   0.329   4.528   2.811
 7704TIP3    H223077   0.423   4.411   2.791
 7705TIP3   OH223078   4.527   3.395   5.236
 7705TIP3    H123079   4.511   3.370   5.145
 7705TIP3    H223080   4.619   3.423   5.237
 7706TIP3   OH223081   4.741   1.163   4.409
 7706TIP3    H123082   4.739   1.230   4.341
 7706TIP3    H223083   4.648   1.148   4.430
 7707TIP3   OH223084   6.737   4.100   0.600
 7707TIP3    H123085   6.749   4.007   0.581
 7707TIP3    H223086   6.715   4.103   0.693
 7708TIP3   OH223087   3.475   2.655   2.685
 7708TIP3    H123088   3.553   2.624   2.638
 7708TIP3    H223089   3.495   2.746   2.707
 7709TIP3   OH223090   3.678   0.209   4.599
 7709TIP3    H123091   3.719   0.141   4.651
 7709TIP3    H223092   3.656   0.166   4.516
 7710TIP3   OH223093   5.491   5.343   1.376
 7710TIP3    H123094   5.447   5.366   1.458
 7710TIP3    H223095   5.419   5.317   1.317
 7711TIP3   OH223096   7.192   4.018   2.069
 7711TIP3    H123097   7.162   3.952   2.132
 7711TIP3    H223098   7.277   3.987   2.040
 7712TIP3   OH223099   3.916   5.155   2.432
 7712TIP3    H123100   3.934   5.201   2.514
 7712TIP3    H223101   3.831   5.115   2.445
 7713TIP3   OH223102   6.374   5.011   5.688
 7713TIP3    H123103   6.437   5.035   5.620
 7713TIP3    H223104   6.423   4.953   5.746
 7714TIP3   OH223105   5.297   1.092   4.481
 7714TIP3    H123106   5.317   1.039   4.403
 7714TIP3    H223107   5.370   1.075   4.541
 7715TIP3   OH223108   5.705   0.763   4.157
 7715TIP3    H123109   5.713   0.837   4.098
 7715TIP3    H223110   5.795   0.746   4.187
 7716TIP3   OH223111   3.200   2.550   0.787
 7716TIP3    H123112   3.265   2.485   0.814
 7716TIP3    H223113   3.124   2.532   0.842
 7717TIP3   OH223114   5.794   4.810   1.321
 7717TIP3    H123115   5.720   4.866   1.343
 7717TIP3    H223116   5.826   4.845   1.238
 7718TIP3   OH223117   3.505   2.472   1.150
 7718TIP3    H123118   3.527   2.561   1.124
 7718TIP3    H223119   3.427   2.450   1.099
 7719TIP3   OH223120   4.579   6.241   5.826
 7719TIP3    H123121   4.600   6.168   5.884
 7719TIP3    H223122   4.517   6.205   5.763
 7720TIP3   OH223123   4.832   4.154   0.644
 7720TIP3    H123124   4.890   4.125   0.715
 7720TIP3    H223125   4.890   4.161   0.567
 7721TIP3   OH223126   3.801   3.157   4.338
 7721TIP3    H123127   3.779   3.250   4.329
 7721TIP3    H223128   3.752   3.113   4.268
 7722TIP3   OH223129   3.907   3.130   2.875
 7722TIP3    H123130   3.893   3.160   2.965
 7722TIP3    H223131   3.935   3.039   2.885
 7723TIP3   OH223132   1.199   3.700   0.180
 7723TIP3    H123133   1.247   3.726   0.102
 7723TIP3    H223134   1.131   3.767   0.190
 7724TIP3   OH223135   1.421   3.781   5.079
 7724TIP3    H123136   1.474   3.816   5.008
 7724TIP3    H223137   1.435   3.842   5.151
 7725TIP3   OH223138   2.912   0.564   3.863
 7725TIP3    H123139   2.944   0.648   3.896
 7725TIP3    H223140   2.967   0.547   3.787
 7726TIP3   OH223141   3.551   2.300   1.389
 7726TIP3    H123142   3.552   2.353   1.309
 7726TIP3    H223143   3.602   2.222   1.367
 7727TIP3   OH223144   3.800   0.588   4.618
 7727TIP3    H123145   3.733   0.641   4.575
 7727TIP3    H223146   3.850   0.549   4.546
 7728TIP3   OH223147   0.879   6.196   1.523
 7728TIP3    H123148   0.837   6.279   1.541
 7728TIP3    H223149   0.924   6.209   1.439
 7729TIP3   OH223150   3.371   4.238   2.948
 7729TIP3    H123151   3.317   4.184   2.891
 7729TIP3    H223152   3.460   4.202   2.939
 7730TIP3   OH223153   0.621   1.340   2.127
 7730TIP3    H123154   0.642   1.272   2.063
 7730TIP3    H223155   0.627   1.296   2.211
 7731TIP3   OH223156   4.823   5.451   2.770
 7731TIP3    H123157   4.785   5.425   2.854
 7731TIP3    H223158   4.749   5.454   2.710
 7732TIP3   OH223159   1.402   3.237   5.248
 7732TIP3    H123160   1.433   3.208   5.334
 7732TIP3    H223161   1.393   3.332   5.257
 7733TIP3   OH223162   3.448   6.151   0.202
 7733TIP3    H123163   3.444   6.246   0.212
 7733TIP3    H223164   3.478   6.137   0.113
 7734TIP3   OH223165   2.599   6.562   1.476
 7734TIP3    H123166   2.691   6.559   1.502
 7734TIP3    H223167   2.584   6.479   1.430
 7735TIP3   OH223168   4.763   4.597   2.106
 7735TIP3    H123169   4.841   4.544   2.125
 7735TIP3    H223170   4.778   4.630   2.017
 7736TIP3   OH223171   2.299   3.474   4.614
 7736TIP3    H123172   2.229   3.422   4.574
 7736TIP3    H223173   2.299   3.556   4.563
 7737TIP3   OH223174   0.342   6.091   0.272
 7737TIP3    H123175   0.285   6.016   0.285
 7737TIP3    H223176   0.391   6.099   0.354
 7738TIP3   OH223177   5.941   2.459   1.829
 7738TIP3    H123178   5.875   2.435   1.763
 7738TIP3    H223179   6.023   2.427   1.792
 7739TIP3   OH223180   1.849   0.203   2.607
 7739TIP3    H123181   1.754   0.195   2.603
 7739TIP3    H223182   1.878   0.125   2.655
 7740TIP3   OH223183   6.129   4.026   2.788
 7740TIP3    H123184   6.225   4.028   2.790
 7740TIP3    H223185   6.105   3.969   2.860
 7741TIP3   OH223186   0.420   1.034   4.586
 7741TIP3    H123187   0.396   1.110   4.533
 7741TIP3    H223188   0.337   1.001   4.620
 7742TIP3   OH223189   1.868   2.596   4.897
 7742TIP3    H123190   1.831   2.616   4.810
 7742TIP3    H223191   1.860   2.678   4.945
 7743TIP3   OH223192   4.245   3.041   2.654
 7743TIP3    H123193   4.264   3.092   2.733
 7743TIP3    H223194   4.223   2.954   2.687
 7744TIP3   OH223195   0.589   3.612   1.161
 7744TIP3    H123196   0.593   3.599   1.255
 7744TIP3    H223197   0.497   3.631   1.143
 7745TIP3   OH223198   3.083   5.116   4.505
 7745TIP3    H123199   2.988   5.115   4.518
 7745TIP3    H223200   3.094   5.103   4.411
 7746TIP3   OH223201   1.970   4.677   5.149
 7746TIP3    H123202   2.052   4.658   5.194
 7746TIP3    H223203   1.969   4.615   5.076
 7747TIP3   OH223204   6.183   2.905   4.042
 7747TIP3    H123205   6.261   2.884   4.094
 7747TIP3    H223206   6.115   2.922   4.106
 7748TIP3   OH223207   7.029   2.468   2.124
 7748TIP3    H123208   7.109   2.481   2.073
 7748TIP3    H223209   7.020   2.373   2.132
 7749TIP3   OH223210   5.895   1.288   1.649
 7749TIP3    H123211   5.818   1.343   1.667
 7749TIP3    H223212   5.874   1.204   1.688
 7750TIP3   OH223213   4.628   4.951   0.607
 7750TIP3    H123214   4.612   4.879   0.668
 7750TIP3    H223215   4.642   5.027   0.663
 7751TIP3   OH223216   2.386   3.170   0.529
 7751TIP3    H123217   2.393   3.143   0.437
 7751TIP3    H223218   2.475   3.196   0.553
 7752TIP3   OH223219   1.885   5.270   4.738
 7752TIP3    H123220   1.795   5.300   4.755
 7752TIP3    H223221   1.900   5.202   4.803
 7753TIP3   OH223222   3.250   5.433   3.560
 7753TIP3    H123223   3.213   5.430   3.648
 7753TIP3    H223224   3.343   5.454   3.574
 7754TIP3   OH223225   4.718   3.105   2.640
 7754TIP3    H123226   4.750   3.088   2.551
 7754TIP3    H223227   4.750   3.193   2.660
 7755TIP3   OH223228   4.894   0.698   0.614
 7755TIP3    H123229   4.827   0.760   0.585
 7755TIP3    H223230   4.974   0.728   0.573
 7756TIP3   OH223231   2.259   5.281   1.636
 7756TIP3    H123232   2.190   5.258   1.574
 7756TIP3    H223233   2.337   5.238   1.602
 7757TIP3   OH223234   2.127   0.725   5.123
 7757TIP3    H123235   2.058   0.758   5.066
 7757TIP3    H223236   2.120   0.779   5.202
 7758TIP3   OH223237   4.511   5.320   3.476
 7758TIP3    H123238   4.421   5.313   3.510
 7758TIP3    H223239   4.509   5.273   3.393
 7759TIP3   OH223240   6.674   1.732   2.716
 7759TIP3    H123241   6.769   1.718   2.720
 7759TIP3    H223242   6.637   1.644   2.709
 7760TIP3   OH223243   4.851   0.480   2.038
 7760TIP3    H123244   4.873   0.554   2.094
 7760TIP3    H223245   4.827   0.410   2.099
 7761TIP3   OH223246   1.332   4.514   5.501
 7761TIP3    H123247   1.266   4.508   5.570
 7761TIP3    H223248   1.283   4.501   5.420
 7762TIP3   OH223249   5.460   0.203   3.430
 7762TIP3    H123250   5.420   0.227   3.513
 7762TIP3    H223251   5.391   0.217   3.365
 7763TIP3   OH223252   3.538   5.729   2.899
 7763TIP3    H123253   3.559   5.754   2.809
 7763TIP3    H223254   3.614   5.680   2.929
 7764TIP3   OH223255   4.613   1.679   2.812
 7764TIP3    H123256   4.654   1.652   2.895
 7764TIP3    H223257   4.686   1.711   2.759
 7765TIP3   OH223258   0.605   0.282   5.530
 7765TIP3    H123259   0.679   0.261   5.473
 7765TIP3    H223260   0.567   0.197   5.553
 7766TIP3   OH223261   4.278   1.651   5.138
 7766TIP3    H123262   4.295   1.724   5.197
 7766TIP3    H223263   4.282   1.689   5.050
 7767TIP3   OH223264   1.581   5.990   0.319
 7767TIP3    H123265   1.501   5.938   0.320
 7767TIP3    H223266   1.553   6.077   0.291
 7768TIP3   OH223267   3.481   5.661   1.745
 7768TIP3    H123268   3.387   5.669   1.728
 7768TIP3    H223269   3.493   5.697   1.832
 7769TIP3   OH223270   5.532   6.523   2.458
 7769TIP3    H123271   5.589   6.598   2.475
 7769TIP3    H223272   5.471   6.522   2.532
 7770TIP3   OH223273   7.197   4.442   4.900
 7770TIP3    H123274   7.141   4.469   4.827
 7770TIP3    H223275   7.164   4.491   4.975
 7771TIP3   OH223276   3.050   6.382   2.516
 7771TIP3    H123277   3.095   6.298   2.529
 7771TIP3    H223278   3.115   6.436   2.470
 7772TIP3   OH223279   3.076   5.966   5.112
 7772TIP3    H123280   3.033   5.918   5.041
 7772TIP3    H223281   3.168   5.967   5.088
 7773TIP3   OH223282   6.560   0.820   2.562
 7773TIP3    H123283   6.598   0.771   2.490
 7773TIP3    H223284   6.540   0.906   2.525
 7774TIP3   OH223285   6.659   6.460   5.253
 7774TIP3    H123286   6.716   6.535   5.238
 7774TIP3    H223287   6.586   6.473   5.193
 7775TIP3   OH223288   0.882   6.158   5.091
 7775TIP3    H123289   0.932   6.078   5.075
 7775TIP3    H223290   0.928   6.200   5.164
 7776TIP3   OH223291   1.340   5.358   4.083
 7776TIP3    H123292   1.265   5.414   4.102
 7776TIP3    H223293   1.330   5.335   3.991
 7777TIP3   OH223294   0.803   6.122   3.663
 7777TIP3    H123295   0.792   6.095   3.754
 7777TIP3    H223296   0.784   6.043   3.612
 7778TIP3   OH223297   0.947   3.674   0.618
 7778TIP3    H123298   0.889   3.642   0.687
 7778TIP3    H223299   1.035   3.658   0.652
 7779TIP3   OH223300   5.697   1.097   4.320
 7779TIP3    H123301   5.761   1.029   4.298
 7779TIP3    H223302   5.612   1.053   4.318
 7780TIP3   OH223303   7.217   1.497   1.526
 7780TIP3    H123304   7.193   1.582   1.562
 7780TIP3    H223305   7.160   1.435   1.572
 7781TIP3   OH223306   1.554   0.533   3.188
 7781TIP3    H123307   1.618   0.577   3.243
 7781TIP3    H223308   1.470   0.572   3.212
 7782TIP3   OH223309   7.035   6.539   3.453
 7782TIP3    H123310   7.015   6.579   3.537
 7782TIP3    H223311   7.087   6.461   3.475
 7783TIP3   OH223312   1.024   4.895   0.972
 7783TIP3    H123313   0.966   4.946   0.916
 7783TIP3    H223314   1.083   4.960   1.010
 7784TIP3   OH223315   6.364   5.223   4.653
 7784TIP3    H123316   6.367   5.133   4.622
 7784TIP3    H223317   6.304   5.267   4.592
 7785TIP3   OH223318   3.947   6.427   4.394
 7785TIP3    H123319   3.942   6.334   4.372
 7785TIP3    H223320   3.961   6.428   4.489
 7786TIP3   OH223321   0.475   0.981   5.300
 7786TIP3    H123322   0.517   0.959   5.217
 7786TIP3    H223323   0.433   1.066   5.285
 7787TIP3   OH223324   1.482   4.350   2.503
 7787TIP3    H123325   1.460   4.399   2.424
 7787TIP3    H223326   1.571   4.379   2.524
 7788TIP3   OH223327   6.617   6.672   4.042
 7788TIP3    H123328   6.626   6.641   4.132
 7788TIP3    H223329   6.542   6.731   4.045
 7789TIP3   OH223330   6.132   6.665   2.479
 7789TIP3    H123331   6.111   6.571   2.480
 7789TIP3    H223332   6.227   6.667   2.464
 7790TIP3   OH223333   4.221   0.719   4.905
 7790TIP3    H123334   4.276   0.645   4.932
 7790TIP3    H223335   4.281   0.776   4.857
 7791TIP3   OH223336   6.189   6.722   5.813
 7791TIP3    H123337   6.147   6.648   5.857
 7791TIP3    H223338   6.251   6.682   5.752
 7792TIP3   OH223339   2.969   0.629   4.792
 7792TIP3    H123340   2.949   0.654   4.702
 7792TIP3    H223341   2.896   0.663   4.843
 7793TIP3   OH223342   5.047  -0.009   1.785
 7793TIP3    H123343   5.075  -0.032   1.873
 7793TIP3    H223344   5.081   0.080   1.771
 7794TIP3   OH223345   6.853   3.555   3.149
 7794TIP3    H123346   6.901   3.631   3.116
 7794TIP3    H223347   6.919   3.485   3.155
 7795TIP3   OH223348   2.184   1.380   5.087
 7795TIP3    H123349   2.207   1.288   5.092
 7795TIP3    H223350   2.201   1.405   4.996
 7796TIP3   OH223351   1.076   0.591   2.768
 7796TIP3    H123352   1.157   0.583   2.819
 7796TIP3    H223353   1.006   0.571   2.831
 7797TIP3   OH223354   2.284   6.607   4.752
 7797TIP3    H123355   2.326   6.675   4.805
 7797TIP3    H223356   2.232   6.656   4.688
 7798TIP3   OH223357   0.058   4.409   1.130
 7798TIP3    H123358   0.006   4.408   1.049
 7798TIP3    H223359   0.147   4.432   1.101
 7799TIP3   OH223360   2.336   4.963   4.401
 7799TIP3    H123361   2.367   5.047   4.434
 7799TIP3    H223362   2.406   4.932   4.344
 7800TIP3   OH223363   1.456   0.541   0.804
 7800TIP3    H123364   1.415   0.624   0.829
 7800TIP3    H223365   1.481   0.553   0.712
 7801TIP3   OH223366   4.950   1.010   4.188
 7801TIP3    H123367   4.875   1.050   4.144
 7801TIP3    H223368   4.942   0.917   4.169
 7802TIP3   OH223369   2.464   4.905   3.121
 7802TIP3    H123370   2.425   4.928   3.206
 7802TIP3    H223371   2.389   4.894   3.063
 7803TIP3   OH223372   4.036   6.392   0.815
 7803TIP3    H123373   4.033   6.485   0.793
 7803TIP3    H223374   4.122   6.363   0.785
 7804TIP3   OH223375   3.714   1.302   4.372
 7804TIP3    H123376   3.757   1.266   4.294
 7804TIP3    H223377   3.777   1.363   4.408
 7805TIP3   OH223378   4.138   5.493   4.097
 7805TIP3    H123379   4.096   5.576   4.075
 7805TIP3    H223380   4.065   5.436   4.124
 7806TIP3   OH223381   5.792   0.775   3.696
 7806TIP3    H123382   5.875   0.814   3.669
 7806TIP3    H223383   5.725   0.836   3.666
 7807TIP3   OH223384   4.217   6.443   2.906
 7807TIP3    H123385   4.150   6.506   2.932
 7807TIP3    H223386   4.202   6.428   2.813
 7808TIP3   OH223387   4.867   1.883   4.986
 7808TIP3    H123388   4.794   1.907   4.928
 7808TIP3    H223389   4.850   1.931   5.067
 7809TIP3   OH223390   2.848   3.903   3.232
 7809TIP3    H123391   2.825   3.935   3.145
 7809TIP3    H223392   2.922   3.958   3.259
 7810TIP3   OH223393   0.559   3.917   4.835
 7810TIP3    H123394   0.612   3.919   4.755
 7810TIP3    H223395   0.525   3.828   4.839
 7811TIP3   OH223396   6.657   0.634   2.067
 7811TIP3    H123397   6.598   0.583   2.123
 7811TIP3    H223398   6.669   0.581   1.989
 7812TIP3   OH223399   0.888   4.355   0.034
 7812TIP3    H123400   0.978   4.321   0.039
 7812TIP3    H223401   0.886   4.428   0.096
 7813TIP3   OH223402   3.646   2.752   4.963
 7813TIP3    H123403   3.674   2.721   5.050
 7813TIP3    H223404   3.557   2.718   4.953
 7814TIP3   OH223405   1.874   5.458   2.891
 7814TIP3    H123406   1.961   5.417   2.894
 7814TIP3    H223407   1.891   5.549   2.868
 7815TIP3   OH223408   5.049   3.984   4.536
 7815TIP3    H123409   4.984   3.918   4.513
 7815TIP3    H223410   5.133   3.939   4.530
 7816TIP3   OH223411   6.910   3.218   5.872
 7816TIP3    H123412   6.955   3.138   5.901
 7816TIP3    H223413   6.836   3.227   5.931
 7817TIP3   OH223414   3.558   4.448   4.722
 7817TIP3    H123415   3.478   4.498   4.704
 7817TIP3    H223416   3.532   4.386   4.790
 7818TIP3   OH223417   1.012   5.676   2.225
 7818TIP3    H123418   1.030   5.593   2.269
 7818TIP3    H223419   0.955   5.723   2.285
 7819TIP3   OH223420   0.499   4.946   3.515
 7819TIP3    H123421   0.508   5.041   3.506
 7819TIP3    H223422   0.419   4.924   3.468
 7820TIP3   OH223423   4.658   5.723   2.615
 7820TIP3    H123424   4.612   5.677   2.686
 7820TIP3    H223425   4.661   5.660   2.543
 7821TIP3   OH223426   6.272   0.472   3.531
 7821TIP3    H123427   6.189   0.425   3.520
 7821TIP3    H223428   6.306   0.441   3.614
 7822TIP3   OH223429   0.563   2.163   3.744
 7822TIP3    H123430   0.590   2.071   3.744
 7822TIP3    H223431   0.467   2.160   3.750
 7823TIP3   OH223432   6.830   3.086   1.879
 7823TIP3    H123433   6.753   3.130   1.917
 7823TIP3    H223434   6.869   3.039   1.953
 7824TIP3   OH223435   3.880   2.579   0.266
 7824TIP3    H123436   3.859   2.580   0.359
 7824TIP3    H223437   3.869   2.488   0.239
 7825TIP3   OH223438   0.610   1.608   4.303
 7825TIP3    H123439   0.657   1.688   4.282
 7825TIP3    H223440   0.594   1.613   4.397
 7826TIP3   OH223441   0.365   6.434   4.650
 7826TIP3    H123442   0.360   6.347   4.690
 7826TIP3    H223443   0.325   6.424   4.564
 7827TIP3   OH223444   2.986   5.433   5.128
 7827TIP3    H123445   2.930   5.400   5.198
 7827TIP3    H223446   2.982   5.365   5.060
 7828TIP3   OH223447   0.061   4.513   3.865
 7828TIP3    H123448   0.154   4.532   3.861
 7828TIP3    H223449   0.040   4.514   3.959
 7829TIP3   OH223450   6.685   1.929   0.261
 7829TIP3    H123451   6.773   1.955   0.289
 7829TIP3    H223452   6.662   1.856   0.319
 7830TIP3   OH223453   1.647   3.931   0.697
 7830TIP3    H123454   1.736   3.950   0.668
 7830TIP3    H223455   1.595   3.933   0.617
 7831TIP3   OH223456   5.114   5.750   1.210
 7831TIP3    H123457   5.139   5.743   1.118
 7831TIP3    H223458   5.196   5.762   1.257
 7832TIP3   OH223459   5.462   4.898   5.541
 7832TIP3    H123460   5.424   4.832   5.598
 7832TIP3    H223461   5.548   4.916   5.579
 7833TIP3   OH223462   0.404   1.480   2.455
 7833TIP3    H123463   0.407   1.391   2.419
 7833TIP3    H223464   0.324   1.518   2.420
 7834TIP3   OH223465   1.838   0.251   4.063
 7834TIP3    H123466   1.768   0.213   4.115
 7834TIP3    H223467   1.823   0.345   4.067
 7835TIP3   OH223468   6.242   5.723   0.049
 7835TIP3    H123469   6.317   5.678   0.011
 7835TIP3    H223470   6.248   5.704   0.143
 7836TIP3   OH223471   1.373   0.096   3.226
 7836TIP3    H123472   1.465   0.096   3.249
 7836TIP3    H223473   1.371   0.088   3.130
 7837TIP3   OH223474   4.726   2.266   1.290
 7837TIP3    H123475   4.785   2.261   1.214
 7837TIP3    H223476   4.773   2.222   1.360
 7838TIP3   OH223477   0.470   0.960   2.750
 7838TIP3    H123478   0.460   0.964   2.845
 7838TIP3    H223479   0.546   0.903   2.736
 7839TIP3   OH223480   5.177   3.560   3.987
 7839TIP3    H123481   5.096   3.520   3.957
 7839TIP3    H223482   5.203   3.506   4.062
 7840TIP3   OH223483   6.940   2.740   0.443
 7840TIP3    H123484   6.878   2.670   0.423
 7840TIP3    H223485   6.916   2.769   0.531
 7841TIP3   OH223486   3.918   1.607   4.954
 7841TIP3    H123487   3.964   1.639   5.031
 7841TIP3    H223488   3.837   1.569   4.988
 7842TIP3   OH223489   0.814   3.732   4.477
 7842TIP3    H123490   0.881   3.769   4.420
 7842TIP3    H223491   0.814   3.638   4.457
 7843TIP3   OH223492   0.034   5.675   4.117
 7843TIP3    H123493   0.070   5.701   4.032
 7843TIP3    H223494  -0.023   5.600   4.096
 7844TIP3   OH223495   2.575   2.014   3.451
 7844TIP3    H123496   2.644   2.062   3.404
 7844TIP3    H223497   2.552   1.941   3.393
 7845TIP3   OH223498   3.341   4.375   2.119
 7845TIP3    H123499   3.377   4.287   2.131
 7845TIP3    H223500   3.264   4.378   2.175
 7846TIP3   OH223501   3.436   4.410   2.531
 7846TIP3    H123502   3.449   4.353   2.607
 7846TIP3    H223503   3.521   4.410   2.487
 7847TIP3   OH223504   3.317   0.637   5.138
 7847TIP3    H123505   3.364   0.599   5.064
 7847TIP3    H223506   3.280   0.718   5.103
 7848TIP3   OH223507   4.973   5.136   1.911
 7848TIP3    H123508   4.905   5.090   1.961
 7848TIP3    H223509   4.996   5.075   1.840
 7849TIP3   OH223510   4.302   5.010   1.138
 7849TIP3    H123511   4.236   5.035   1.073
 7849TIP3    H223512   4.280   4.920   1.161
 7850TIP3   OH223513   0.217   5.979   4.958
 7850TIP3    H123514   0.136   6.011   4.997
 7850TIP3    H223515   0.190   5.907   4.902
 7851TIP3   OH223516   1.341   2.944   5.084
 7851TIP3    H123517   1.341   2.910   5.174
 7851TIP3    H223518   1.299   3.030   5.092
 7852TIP3   OH223519   2.649   0.427   4.484
 7852TIP3    H123520   2.603   0.360   4.534
 7852TIP3    H223521   2.741   0.414   4.505
 7853TIP3   OH223522   3.331   2.229   5.481
 7853TIP3    H123523   3.301   2.251   5.393
 7853TIP3    H223524   3.337   2.133   5.482
 7854TIP3   OH223525   7.219   1.471   3.953
 7854TIP3    H123526   7.179   1.409   3.893
 7854TIP3    H223527   7.309   1.481   3.921
 7855TIP3   OH223528   5.622   5.827   1.416
 7855TIP3    H123529   5.561   5.792   1.480
 7855TIP3    H223530   5.643   5.915   1.448
 7856TIP3   OH223531   2.845   6.717   5.414
 7856TIP3    H123532   2.886   6.678   5.336
 7856TIP3    H223533   2.908   6.783   5.443
 7857TIP3   OH223534   6.854   2.806   0.176
 7857TIP3    H123535   6.911   2.790   0.251
 7857TIP3    H223536   6.838   2.900   0.177
 7858TIP3   OH223537   1.886   6.568   1.261
 7858TIP3    H123538   1.941   6.576   1.339
 7858TIP3    H223539   1.825   6.641   1.267
 7859TIP3   OH223540   4.235   5.489   5.434
 7859TIP3    H123541   4.255   5.396   5.449
 7859TIP3    H223542   4.154   5.488   5.383
 7860TIP3   OH223543   6.032   0.781   5.362
 7860TIP3    H123544   6.028   0.848   5.431
 7860TIP3    H223545   6.104   0.723   5.389
 7861TIP3   OH223546   0.069   1.269   3.268
 7861TIP3    H123547   0.091   1.362   3.274
 7861TIP3    H223548   0.034   1.258   3.180
 7862TIP3   OH223549   6.182   2.225   0.723
 7862TIP3    H123550   6.258   2.283   0.726
 7862TIP3    H223551   6.110   2.281   0.693
 7863TIP3   OH223552   1.274   6.300   0.316
 7863TIP3    H123553   1.361   6.263   0.298
 7863TIP3    H223554   1.260   6.285   0.410
 7864TIP3   OH223555   4.503   2.990   5.642
 7864TIP3    H123556   4.570   3.033   5.590
 7864TIP3    H223557   4.434   2.967   5.579
 7865TIP3   OH223558   5.850   4.294   5.148
 7865TIP3    H123559   5.799   4.288   5.068
 7865TIP3    H223560   5.855   4.388   5.167
 7866TIP3   OH223561   2.938   4.970   0.132
 7866TIP3    H123562   3.015   4.972   0.074
 7866TIP3    H223563   2.959   5.032   0.202
 7867TIP3   OH223564   3.564   0.815   3.492
 7867TIP3    H123565   3.554   0.909   3.482
 7867TIP3    H223566   3.507   0.777   3.425
 7868TIP3   OH223567   3.824   0.398   2.737
 7868TIP3    H123568   3.904   0.346   2.724
 7868TIP3    H223569   3.778   0.353   2.808
 7869TIP3   OH223570   6.903   6.139   4.613
 7869TIP3    H123571   6.820   6.107   4.579
 7869TIP3    H223572   6.886   6.230   4.637
 7870TIP3   OH223573   1.004   6.045   0.913
 7870TIP3    H123574   0.983   6.027   0.822
 7870TIP3    H223575   0.919   6.041   0.958
 7871TIP3   OH223576   0.430   0.913   3.008
 7871TIP3    H123577   0.371   0.972   3.054
 7871TIP3    H223578   0.474   0.863   3.077
 7872TIP3   OH223579   6.848   5.994   0.897
 7872TIP3    H123580   6.850   6.025   0.806
 7872TIP3    H223581   6.876   6.069   0.949
 7873TIP3   OH223582   5.967   2.194   0.288
 7873TIP3    H123583   6.046   2.187   0.340
 7873TIP3    H223584   5.968   2.284   0.255
 7874TIP3   OH223585   5.732   6.715   2.936
 7874TIP3    H123586   5.796   6.780   2.905
 7874TIP3    H223587   5.736   6.645   2.870
 7875TIP3   OH223588   2.887   4.436   3.046
 7875TIP3    H123589   2.978   4.415   3.028
 7875TIP3    H223590   2.837   4.372   2.995
 7876TIP3   OH223591   2.961   5.957   3.342
 7876TIP3    H123592   3.017   5.972   3.266
 7876TIP3    H223593   2.998   5.880   3.385
 7877TIP3   OH223594   1.701   0.287   0.558
 7877TIP3    H123595   1.627   0.280   0.618
 7877TIP3    H223596   1.759   0.214   0.582
 7878TIP3   OH223597   0.847   4.373   0.772
 7878TIP3    H123598   0.847   4.441   0.839
 7878TIP3    H223599   0.939   4.346   0.766
 7879TIP3   OH223600   5.247   0.184   3.241
 7879TIP3    H123601   5.208   0.152   3.160
 7879TIP3    H223602   5.172   0.211   3.295
 7880TIP3   OH223603   2.358   2.578   4.582
 7880TIP3    H123604   2.299   2.533   4.642
 7880TIP3    H223605   2.362   2.522   4.504
 7881TIP3   OH223606   6.238   5.791   2.809
 7881TIP3    H123607   6.319   5.839   2.826
 7881TIP3    H223608   6.173   5.834   2.865
 7882TIP3   OH223609   0.574   1.118   4.259
 7882TIP3    H123610   0.608   1.201   4.225
 7882TIP3    H223611   0.499   1.144   4.312
 7883TIP3   OH223612   2.489   0.838   3.863
 7883TIP3    H123613   2.410   0.791   3.836
 7883TIP3    H223614   2.491   0.827   3.959
 7884TIP3   OH223615   1.005   2.467   0.851
 7884TIP3    H123616   0.989   2.388   0.800
 7884TIP3    H223617   1.101   2.476   0.852
 7885TIP3   OH223618   3.610   6.517   1.044
 7885TIP3    H123619   3.618   6.604   1.082
 7885TIP3    H223620   3.613   6.458   1.119
 7886TIP3   OH223621   1.057   4.621   3.121
 7886TIP3    H123622   1.138   4.642   3.076
 7886TIP3    H223623   0.999   4.694   3.102
 7887TIP3   OH223624   5.742   1.406   0.792
 7887TIP3    H123625   5.811   1.344   0.767
 7887TIP3    H223626   5.688   1.357   0.855
 7888TIP3   OH223627   2.272   4.647   4.474
 7888TIP3    H123628   2.212   4.721   4.472
 7888TIP3    H223629   2.311   4.645   4.386
 7889TIP3   OH223630   6.610   2.588   5.787
 7889TIP3    H123631   6.620   2.653   5.856
 7889TIP3    H223632   6.560   2.633   5.719
 7890TIP3   OH223633   4.714   2.386   5.327
 7890TIP3    H123634   4.759   2.394   5.411
 7890TIP3    H223635   4.777   2.419   5.263
 7891TIP3   OH223636   4.737   6.260   5.443
 7891TIP3    H123637   4.766   6.294   5.359
 7891TIP3    H223638   4.658   6.209   5.422
 7892TIP3   OH223639   2.525   1.496   0.323
 7892TIP3    H123640   2.566   1.579   0.298
 7892TIP3    H223641   2.492   1.511   0.412
 7893TIP3   OH223642   2.631   4.726   0.349
 7893TIP3    H123643   2.706   4.673   0.324
 7893TIP3    H223644   2.577   4.668   0.403
 7894TIP3   OH223645   4.779   4.006   2.331
 7894TIP3    H123646   4.835   4.036   2.259
 7894TIP3    H223647   4.715   4.076   2.342
 7895TIP3   OH223648   4.523   3.838   1.124
 7895TIP3    H123649   4.559   3.753   1.150
 7895TIP3    H223650   4.488   3.823   1.036
 7896TIP3   OH223651   7.023   5.722   3.686
 7896TIP3    H123652   7.023   5.630   3.711
 7896TIP3    H223653   7.031   5.722   3.591
 7897TIP3   OH223654   7.190   4.092   2.848
 7897TIP3    H123655   7.136   4.148   2.793
 7897TIP3    H223656   7.210   4.146   2.925
 7898TIP3   OH223657   6.056   4.138   1.617
 7898TIP3    H123658   5.994   4.208   1.636
 7898TIP3    H223659   6.140   4.183   1.607
 7899TIP3   OH223660   4.269   1.751   4.865
 7899TIP3    H123661   4.201   1.809   4.901
 7899TIP3    H223662   4.222   1.694   4.805
 7900TIP3   OH223663   6.827   6.633   5.665
 7900TIP3    H123664   6.805   6.725   5.648
 7900TIP3    H223665   6.846   6.597   5.578
 7901TIP3   OH223666   0.343   2.103   2.830
 7901TIP3    H123667   0.354   2.052   2.910
 7901TIP3    H223668   0.267   2.065   2.787
 7902TIP3   OH223669   2.154   6.347   5.442
 7902TIP3    H123670   2.105   6.410   5.389
 7902TIP3    H223671   2.162   6.389   5.528
 7903TIP3   OH223672   2.001   4.915   1.625
 7903TIP3    H123673   1.969   4.948   1.709
 7903TIP3    H223674   1.936   4.947   1.562
 7904TIP3   OH223675   5.432   2.916   3.585
 7904TIP3    H123676   5.340   2.890   3.594
 7904TIP3    H223677   5.478   2.867   3.653
 7905TIP3   OH223678   5.820   5.316   2.232
 7905TIP3    H123679   5.858   5.346   2.314
 7905TIP3    H223680   5.875   5.242   2.206
 7906TIP3   OH223681   7.047   6.224   1.725
 7906TIP3    H123682   7.097   6.297   1.689
 7906TIP3    H223683   7.075   6.148   1.674
 7907TIP3   OH223684   6.984   4.189   3.461
 7907TIP3    H123685   7.002   4.269   3.511
 7907TIP3    H223686   6.942   4.220   3.381
 7908TIP3   OH223687   4.979   3.556   4.388
 7908TIP3    H123688   4.905   3.501   4.362
 7908TIP3    H223689   4.978   3.553   4.484
 7909TIP3   OH223690   3.181   6.109   2.513
 7909TIP3    H123691   3.243   6.132   2.583
 7909TIP3    H223692   3.145   6.025   2.540
 7910TIP3   OH223693   4.453   0.452   2.487
 7910TIP3    H123694   4.460   0.490   2.399
 7910TIP3    H223695   4.543   0.428   2.509
 7911TIP3   OH223696   0.558   6.122   1.160
 7911TIP3    H123697   0.578   6.215   1.161
 7911TIP3    H223698   0.638   6.080   1.191
 7912TIP3   OH223699   3.388   3.597   1.045
 7912TIP3    H123700   3.412   3.678   1.090
 7912TIP3    H223701   3.396   3.619   0.952
 7913TIP3   OH223702   6.678   4.899   0.370
 7913TIP3    H123703   6.616   4.826   0.371
 7913TIP3    H223704   6.744   4.875   0.304
 7914TIP3   OH223705   3.474   4.680   3.281
 7914TIP3    H123706   3.536   4.746   3.250
 7914TIP3    H223707   3.411   4.671   3.209
 7915TIP3   OH223708   6.174   5.375   4.480
 7915TIP3    H123709   6.148   5.467   4.471
 7915TIP3    H223710   6.092   5.328   4.496
 7916TIP3   OH223711   5.798   4.375   0.591
 7916TIP3    H123712   5.888   4.408   0.599
 7916TIP3    H223713   5.769   4.362   0.681
 7917TIP3   OH223714   6.084   4.734   1.831
 7917TIP3    H123715   6.062   4.688   1.750
 7917TIP3    H223716   6.102   4.824   1.804
 7918TIP3   OH223717   7.052   2.547   0.707
 7918TIP3    H123718   6.956   2.541   0.705
 7918TIP3    H223719   7.070   2.624   0.761
 7919TIP3   OH223720   3.963   3.359   1.788
 7919TIP3    H123721   3.963   3.455   1.796
 7919TIP3    H223722   3.888   3.340   1.732
 7920TIP3   OH223723   2.660   5.214   5.742
 7920TIP3    H123724   2.689   5.254   5.824
 7920TIP3    H223725   2.696   5.270   5.674
 7921TIP3   OH223726   6.022   5.761   1.221
 7921TIP3    H123727   6.040   5.834   1.281
 7921TIP3    H223728   6.084   5.693   1.248
 7922TIP3   OH223729   3.970   2.158   1.591
 7922TIP3    H123730   3.946   2.065   1.587
 7922TIP3    H223731   4.057   2.161   1.550
 7923TIP3   OH223732   4.262   6.702   2.796
 7923TIP3    H123733   4.174   6.664   2.797
 7923TIP3    H223734   4.247   6.795   2.777
 7924TIP3   OH223735   2.193   3.480   1.602
 7924TIP3    H123736   2.209   3.392   1.568
 7924TIP3    H223737   2.132   3.520   1.540
 7925TIP3   OH223738   2.698   0.251   2.254
 7925TIP3    H123739   2.775   0.225   2.306
 7925TIP3    H223740   2.682   0.342   2.279
 7926TIP3   OH223741   6.955   6.518   5.397
 7926TIP3    H123742   7.016   6.572   5.347
 7926TIP3    H223743   6.935   6.444   5.339
 7927TIP3   OH223744   7.012   2.312   4.584
 7927TIP3    H123745   7.017   2.390   4.529
 7927TIP3    H223746   6.983   2.345   4.669
 7928TIP3   OH223747   0.490   0.251   3.051
 7928TIP3    H123748   0.505   0.339   3.086
 7928TIP3    H223749   0.578   0.218   3.031
 7929TIP3   OH223750   1.038   3.500   5.524
 7929TIP3    H123751   0.967   3.556   5.556
 7929TIP3    H223752   1.030   3.503   5.429
 7930TIP3   OH223753   1.686   1.050   0.983
 7930TIP3    H123754   1.727   1.024   0.900
 7930TIP3    H223755   1.701   1.145   0.988
 7931TIP3   OH223756   1.334   2.549   2.394
 7931TIP3    H123757   1.352   2.488   2.466
 7931TIP3    H223758   1.332   2.493   2.316
 7932TIP3   OH223759   4.463   2.282   1.372
 7932TIP3    H123760   4.476   2.348   1.441
 7932TIP3    H223761   4.551   2.256   1.346
 7933TIP3   OH223762   0.016   3.799   1.707
 7933TIP3    H123763  -0.035   3.829   1.783
 7933TIP3    H223764  -0.041   3.814   1.632
 7934TIP3   OH223765   5.879   0.678   4.714
 7934TIP3    H123766   5.824   0.602   4.731
 7934TIP3    H223767   5.965   0.642   4.694
 7935TIP3   OH223768   0.095   2.435   4.643
 7935TIP3    H123769   0.030   2.426   4.573
 7935TIP3    H223770   0.178   2.408   4.603
 7936TIP3   OH223771   1.671   0.155   5.360
 7936TIP3    H123772   1.652   0.231   5.304
 7936TIP3    H223773   1.596   0.150   5.419
 7937TIP3   OH223774   0.225   1.018   3.754
 7937TIP3    H123775   0.243   1.110   3.772
 7937TIP3    H223776   0.138   1.017   3.715
 7938TIP3   OH223777   5.727   5.955   2.969
 7938TIP3    H123778   5.781   6.029   2.996
 7938TIP3    H223779   5.709   5.908   3.050
 7939TIP3   OH223780   3.504   5.089   1.729
 7939TIP3    H123781   3.541   5.045   1.806
 7939TIP3    H223782   3.580   5.130   1.687
 7940TIP3   OH223783   4.223   4.415   1.275
 7940TIP3    H123784   4.309   4.438   1.311
 7940TIP3    H223785   4.235   4.420   1.180
 7941TIP3   OH223786   4.231   3.289   1.022
 7941TIP3    H123787   4.237   3.301   1.117
 7941TIP3    H223788   4.198   3.200   1.011
 7942TIP3   OH223789   4.287   4.049   0.460
 7942TIP3    H123790   4.196   4.027   0.479
 7942TIP3    H223791   4.293   4.143   0.474
 7943TIP3   OH223792   0.791   4.687   2.079
 7943TIP3    H123793   0.783   4.629   2.003
 7943TIP3    H223794   0.759   4.635   2.153
 7944TIP3   OH223795   2.173   6.357   0.359
 7944TIP3    H123796   2.254   6.357   0.409
 7944TIP3    H223797   2.103   6.360   0.425
 7945TIP3   OH223798   1.449   3.078   0.905
 7945TIP3    H123799   1.413   3.155   0.861
 7945TIP3    H223800   1.543   3.097   0.912
 7946TIP3   OH223801   5.134   4.624   0.657
 7946TIP3    H123802   5.196   4.685   0.616
 7946TIP3    H223803   5.184   4.583   0.727
 7947TIP3   OH223804   3.789   5.954   2.208
 7947TIP3    H123805   3.754   6.016   2.144
 7947TIP3    H223806   3.867   5.998   2.244
 7948TIP3   OH223807   4.209   0.955   0.651
 7948TIP3    H123808   4.270   0.989   0.716
 7948TIP3    H223809   4.169   1.032   0.612
 7949TIP3   OH223810   2.229   1.005   3.213
 7949TIP3    H123811   2.197   1.091   3.187
 7949TIP3    H223812   2.237   0.957   3.131
 7950TIP3   OH223813   5.672   3.315   2.652
 7950TIP3    H123814   5.718   3.253   2.709
 7950TIP3    H223815   5.669   3.396   2.703
 7951TIP3   OH223816   1.225   4.463   1.254
 7951TIP3    H123817   1.320   4.454   1.262
 7951TIP3    H223818   1.199   4.392   1.195
 7952TIP3   OH223819   6.174   5.339   2.137
 7952TIP3    H123820   6.144   5.423   2.171
 7952TIP3    H223821   6.227   5.361   2.060
 7953TIP3   OH223822   5.109   5.974   2.312
 7953TIP3    H123823   5.102   5.979   2.407
 7953TIP3    H223824   5.084   6.061   2.281
 7954TIP3   OH223825   4.047   2.158   3.866
 7954TIP3    H123826   4.060   2.245   3.827
 7954TIP3    H223827   4.136   2.126   3.883
 7955TIP3   OH223828   4.656   0.055   0.712
 7955TIP3    H123829   4.636   0.147   0.724
 7955TIP3    H223830   4.748   0.053   0.685
 7956TIP3   OH223831   4.898   3.103   0.664
 7956TIP3    H123832   4.828   3.038   0.653
 7956TIP3    H223833   4.874   3.175   0.606
 7957TIP3   OH223834   3.168   6.379   0.608
 7957TIP3    H123835   3.208   6.302   0.568
 7957TIP3    H223836   3.076   6.376   0.580
 7958TIP3   OH223837   5.759   4.313   0.850
 7958TIP3    H123838   5.839   4.343   0.893
 7958TIP3    H223839   5.750   4.222   0.876
 7959TIP3   OH223840   1.653   5.990   3.709
 7959TIP3    H123841   1.641   5.903   3.747
 7959TIP3    H223842   1.655   6.049   3.785
 7960TIP3   OH223843   5.690   3.072   2.000
 7960TIP3    H123844   5.665   3.152   2.046
 7960TIP3    H223845   5.776   3.050   2.034
 7961TIP3   OH223846   0.568   6.442   3.109
 7961TIP3    H123847   0.588   6.349   3.122
 7961TIP3    H223848   0.607   6.485   3.185
 7962TIP3   OH223849   4.200   3.401   4.867
 7962TIP3    H123850   4.231   3.414   4.777
 7962TIP3    H223851   4.118   3.353   4.857
 7963TIP3   OH223852   0.894   1.911   5.041
 7963TIP3    H123853   0.903   1.888   4.949
 7963TIP3    H223854   0.906   2.006   5.043
 7964TIP3   OH223855   1.861   2.266   5.271
 7964TIP3    H123856   1.891   2.357   5.270
 7964TIP3    H223857   1.766   2.272   5.280
 7965TIP3   OH223858   4.883   6.545   0.116
 7965TIP3    H123859   4.912   6.568   0.028
 7965TIP3    H223860   4.795   6.510   0.105
 7966TIP3   OH223861   0.317   4.678   3.765
 7966TIP3    H123862   0.316   4.772   3.747
 7966TIP3    H223863   0.395   4.665   3.819
 7967TIP3   OH223864   2.021   4.826   4.826
 7967TIP3    H123865   2.112   4.847   4.806
 7967TIP3    H223866   1.979   4.911   4.842
 7968TIP3   OH223867   0.839   0.679   4.956
 7968TIP3    H123868   0.878   0.763   4.934
 7968TIP3    H223869   0.832   0.679   5.052
 7969TIP3   OH223870   0.644   2.750   5.516
 7969TIP3    H123871   0.664   2.836   5.481
 7969TIP3    H223872   0.642   2.692   5.439
 7970TIP3   OH223873   0.397   6.745   5.689
 7970TIP3    H123874   0.343   6.709   5.618
 7970TIP3    H223875   0.344   6.816   5.726
 7971TIP3   OH223876   2.760   4.707   3.063
 7971TIP3    H123877   2.724   4.781   3.113
 7971TIP3    H223878   2.766   4.636   3.127
 7972TIP3   OH223879   0.726   4.220   0.330
 7972TIP3    H123880   0.714   4.125   0.339
 7972TIP3    H223881   0.699   4.256   0.415
 7973TIP3   OH223882   4.877   1.729   2.782
 7973TIP3    H123883   4.923   1.689   2.857
 7973TIP3    H223884   4.941   1.789   2.744
 7974TIP3   OH223885   6.442   5.394   2.632
 7974TIP3    H123886   6.490   5.319   2.667
 7974TIP3    H223887   6.404   5.362   2.550
 7975TIP3   OH223888   5.582   6.186   4.232
 7975TIP3    H123889   5.583   6.192   4.327
 7975TIP3    H223890   5.506   6.132   4.211
 7976TIP3   OH223891   2.242   6.409   0.097
 7976TIP3    H123892   2.198   6.336   0.054
 7976TIP3    H223893   2.226   6.396   0.190
 7977TIP3   OH223894   5.259   5.042   1.948
 7977TIP3    H123895   5.164   5.037   1.956
 7977TIP3    H223896   5.292   4.979   2.012
 7978TIP3   OH223897   1.197   1.152   2.588
 7978TIP3    H123898   1.286   1.122   2.570
 7978TIP3    H223899   1.157   1.080   2.636
 7979TIP3   OH223900   1.110   0.143   4.951
 7979TIP3    H123901   1.072   0.131   4.863
 7979TIP3    H223902   1.134   0.055   4.979
 7980TIP3   OH223903   2.155   1.617   0.460
 7980TIP3    H123904   2.238   1.598   0.505
 7980TIP3    H223905   2.139   1.710   0.478
 7981TIP3   OH223906   7.004   5.248   4.653
 7981TIP3    H123907   7.044   5.255   4.739
 7981TIP3    H223908   6.910   5.253   4.669
 7982TIP3   OH223909   3.471   6.475   0.792
 7982TIP3    H123910   3.522   6.467   0.873
 7982TIP3    H223911   3.472   6.387   0.754
 7983TIP3   OH223912   5.518   5.101   3.642
 7983TIP3    H123913   5.520   5.045   3.720
 7983TIP3    H223914   5.598   5.081   3.595
 7984TIP3   OH223915   1.872   0.978   0.527
 7984TIP3    H123916   1.779   0.964   0.509
 7984TIP3    H223917   1.896   1.053   0.472
 7985TIP3   OH223918   6.770   3.947   4.264
 7985TIP3    H123919   6.713   3.923   4.338
 7985TIP3    H223920   6.823   3.869   4.248
 7986TIP3   OH223921   5.223   6.144   2.971
 7986TIP3    H123922   5.306   6.108   2.940
 7986TIP3    H223923   5.234   6.239   2.963
 7987TIP3   OH223924   0.384   5.263   0.080
 7987TIP3    H123925   0.429   5.329   0.027
 7987TIP3    H223926   0.291   5.279   0.065
 7988TIP3   OH223927   3.073   5.905   2.802
 7988TIP3    H123928   3.008   5.835   2.808
 7988TIP3    H223929   3.031   5.980   2.843
 7989TIP3   OH223930   4.718   5.161   5.404
 7989TIP3    H123931   4.787   5.156   5.338
 7989TIP3    H223932   4.666   5.237   5.379
 7990TIP3   OH223933   0.292   0.404   4.010
 7990TIP3    H123934   0.232   0.330   3.998
 7990TIP3    H223935   0.264   0.445   4.092
 7991TIP3   OH223936   4.369   5.046   2.740
 7991TIP3    H123937   4.332   5.128   2.708
 7991TIP3    H223938   4.452   5.037   2.693
 7992TIP3   OH223939   5.878   6.335   1.098
 7992TIP3    H123940   5.877   6.353   1.192
 7992TIP3    H223941   5.909   6.416   1.058
 7993TIP3   OH223942   1.043   0.732   5.488
 7993TIP3    H123943   1.131   0.693   5.491
 7993TIP3    H223944   1.035   0.780   5.570
 7994TIP3   OH223945   3.764   6.291   4.091
 7994TIP3    H123946   3.717   6.306   4.010
 7994TIP3    H223947   3.818   6.214   4.073
 7995TIP3   OH223948   5.552   3.946   3.325
 7995TIP3    H123949   5.469   3.973   3.285
 7995TIP3    H223950   5.550   3.987   3.412
 7996TIP3   OH223951   3.898   0.584   3.956
 7996TIP3    H123952   3.989   0.610   3.947
 7996TIP3    H223953   3.900   0.508   4.014
 7997TIP3   OH223954   1.984   3.656   3.982
 7997TIP3    H123955   1.911   3.672   3.922
 7997TIP3    H223956   2.016   3.743   4.005
 7998TIP3   OH223957   0.321   6.542   4.908
 7998TIP3    H123958   0.309   6.448   4.924
 7998TIP3    H223959   0.329   6.549   4.813
 7999TIP3   OH223960   4.000   5.549   2.187
 7999TIP3    H123961   3.946   5.614   2.231
 7999TIP3    H223962   3.938   5.498   2.134
 8000TIP3   OH223963   0.386   5.517   0.470
 8000TIP3    H123964   0.476   5.510   0.436
 8000TIP3    H223965   0.372   5.612   0.478
 8001TIP3   OH223966   1.141   6.050   3.405
 8001TIP3    H123967   1.169   6.012   3.321
 8001TIP3    H223968   1.118   6.140   3.384
 8002TIP3   OH223969   4.550   4.118   2.920
 8002TIP3    H123970   4.573   4.109   2.828
 8002TIP3    H223971   4.585   4.204   2.946
 8003TIP3   OH223972   2.356   1.479   5.632
 8003TIP3    H123973   2.328   1.404   5.685
 8003TIP3    H223974   2.430   1.516   5.681
 8004TIP3   OH223975   6.077   2.923   3.374
 8004TIP3    H123976   6.130   2.917   3.454
 8004TIP3    H223977   5.997   2.875   3.394
 8005TIP3   OH223978   0.122   5.437   5.027
 8005TIP3    H123979   0.187   5.405   5.090
 8005TIP3    H223980   0.092   5.519   5.064
 8006TIP3   OH223981   1.257   4.262   4.241
 8006TIP3    H123982   1.215   4.323   4.302
 8006TIP3    H223983   1.190   4.242   4.176
 8007TIP3   OH223984   5.426   5.990   2.889
 8007TIP3    H123985   5.364   5.932   2.933
 8007TIP3    H223986   5.456   5.939   2.813
 8008TIP3   OH223987   6.576   0.928   5.203
 8008TIP3    H123988   6.507   0.863   5.188
 8008TIP3    H223989   6.543   1.008   5.161
 8009TIP3   OH223990   3.424   1.058   3.437
 8009TIP3    H123991   3.390   1.145   3.456
 8009TIP3    H223992   3.468   1.069   3.352
 8010TIP3   OH223993   5.655   5.802   0.395
 8010TIP3    H123994   5.742   5.795   0.435
 8010TIP3    H223995   5.658   5.742   0.320
 8011TIP3   OH223996   2.540   3.511   0.405
 8011TIP3    H123997   2.463   3.472   0.363
 8011TIP3    H223998   2.515   3.521   0.497
 8012TIP3   OH223999   2.345   1.263   1.549
 8012TIP3    H124000   2.267   1.239   1.499
 8012TIP3    H224001   2.322   1.345   1.592
 8013TIP3   OH224002   2.322   2.094   5.341
 8013TIP3    H124003   2.237   2.138   5.343
 8013TIP3    H224004   2.376   2.149   5.284
 8014TIP3   OH224005   3.879   2.250   2.484
 8014TIP3    H124006   3.950   2.302   2.445
 8014TIP3    H224007   3.882   2.274   2.577
 8015TIP3   OH224008   0.888   2.175   5.341
 8015TIP3    H124009   0.921   2.148   5.255
 8015TIP3    H224010   0.822   2.241   5.321
 8016TIP3   OH224011   1.160   4.872   2.825
 8016TIP3    H124012   1.119   4.808   2.883
 8016TIP3    H224013   1.137   4.957   2.862
 8017TIP3   OH224014   0.070   3.233   1.261
 8017TIP3    H124015   0.006   3.179   1.309
 8017TIP3    H224016   0.150   3.181   1.262
 8018TIP3   OH224017   1.326   2.773   4.664
 8018TIP3    H124018   1.336   2.817   4.749
 8018TIP3    H224019   1.368   2.832   4.601
 8019TIP3   OH224020   5.847   3.359   1.827
 8019TIP3    H124021   5.899   3.430   1.788
 8019TIP3    H224022   5.912   3.293   1.851
 8020TIP3   OH224023   0.350   5.673   5.651
 8020TIP3    H124024   0.261   5.675   5.685
 8020TIP3    H224025   0.364   5.582   5.627
 8021TIP3   OH224026   5.517   2.570   0.326
 8021TIP3    H124027   5.550   2.487   0.292
 8021TIP3    H224028   5.461   2.604   0.256
 8022TIP3   OH224029   4.838   1.480   4.911
 8022TIP3    H124030   4.920   1.513   4.875
 8022TIP3    H224031   4.864   1.418   4.978
 8023TIP3   OH224032   2.510   5.406   0.878
 8023TIP3    H124033   2.420   5.388   0.851
 8023TIP3    H224034   2.502   5.452   0.961
 8024TIP3   OH224035   0.513   0.986   2.188
 8024TIP3    H124036   0.514   1.023   2.099
 8024TIP3    H224037   0.588   1.027   2.232
 8025TIP3   OH224038   6.670   5.412   1.558
 8025TIP3    H124039   6.600   5.358   1.520
 8025TIP3    H224040   6.750   5.379   1.518
 8026TIP3   OH224041   3.177   2.328   2.859
 8026TIP3    H124042   3.148   2.328   2.950
 8026TIP3    H224043   3.268   2.357   2.862
 8027TIP3   OH224044   6.479   1.923   4.129
 8027TIP3    H124045   6.384   1.924   4.145
 8027TIP3    H224046   6.514   1.985   4.193
 8028TIP3   OH224047   4.286   4.797   2.025
 8028TIP3    H124048   4.280   4.890   2.007
 8028TIP3    H224049   4.224   4.782   2.096
 8029TIP3   OH224050   5.063   1.103   0.398
 8029TIP3    H124051   5.088   1.194   0.381
 8029TIP3    H224052   5.004   1.108   0.473
 8030TIP3   OH224053   2.400   0.995   1.212
 8030TIP3    H124054   2.393   1.070   1.271
 8030TIP3    H224055   2.485   1.007   1.169
 8031TIP3   OH224056   5.492   2.924   3.289
 8031TIP3    H124057   5.442   2.998   3.324
 8031TIP3    H224058   5.487   2.858   3.358
 8032TIP3   OH224059   2.634   3.624   4.725
 8032TIP3    H124060   2.672   3.576   4.651
 8032TIP3    H224061   2.581   3.560   4.771
 8033TIP3   OH224062   0.253   1.067   2.619
 8033TIP3    H124063   0.273   1.044   2.528
 8033TIP3    H224064   0.317   1.018   2.670
 8034TIP3   OH224065   7.073   0.039   2.735
 8034TIP3    H124066   7.071  -0.052   2.706
 8034TIP3    H224067   7.052   0.089   2.657
 8035TIP3   OH224068   7.003   3.067   5.188
 8035TIP3    H124069   6.970   3.093   5.102
 8035TIP3    H224070   7.044   3.146   5.223
 8036TIP3   OH224071   0.936   5.850   3.138
 8036TIP3    H124072   0.842   5.840   3.122
 8036TIP3    H224073   0.956   5.782   3.203
 8037TIP3   OH224074   3.331   6.631   5.674
 8037TIP3    H124075   3.253   6.686   5.669
 8037TIP3    H224076   3.318   6.565   5.606
 8038TIP3   OH224077   6.817   2.864   0.672
 8038TIP3    H124078   6.874   2.930   0.710
 8038TIP3    H224079   6.765   2.832   0.745
 8039TIP3   OH224080   0.423   1.020   1.693
 8039TIP3    H124081   0.359   0.976   1.638
 8039TIP3    H224082   0.372   1.077   1.750
 8040TIP3   OH224083   5.996   5.446   5.123
 8040TIP3    H124084   5.942   5.407   5.055
 8040TIP3    H224085   6.086   5.438   5.091
 8041TIP3   OH224086   0.207   4.019   0.445
 8041TIP3    H124087   0.242   4.093   0.394
 8041TIP3    H224088   0.247   4.029   0.531
 8042TIP3   OH224089   3.795   4.356   2.220
 8042TIP3    H124090   3.889   4.358   2.202
 8042TIP3    H224091   3.765   4.445   2.199
 8043TIP3   OH224092   6.809   4.201   2.583
 8043TIP3    H124093   6.811   4.201   2.488
 8043TIP3    H224094   6.732   4.254   2.606
 8044TIP3   OH224095   6.603   5.935   3.954
 8044TIP3    H124096   6.508   5.928   3.966
 8044TIP3    H224097   6.622   5.878   3.880
 8045TIP3   OH224098   2.111   2.778   4.116
 8045TIP3    H124099   2.150   2.691   4.129
 8045TIP3    H224100   2.051   2.789   4.189
 8046TIP3   OH224101   1.141   0.802   0.119
 8046TIP3    H124102   1.159   0.847   0.036
 8046TIP3    H224103   1.226   0.797   0.162
 8047TIP3   OH224104   5.514   3.634   3.333
 8047TIP3    H124105   5.470   3.710   3.295
 8047TIP3    H224106   5.607   3.654   3.325
 8048TIP3   OH224107   0.048   2.265   4.851
 8048TIP3    H124108   0.133   2.221   4.852
 8048TIP3    H224109   0.058   2.333   4.784
 8049TIP3   OH224110   0.051   1.852   1.399
 8049TIP3    H124111   0.124   1.907   1.370
 8049TIP3    H224112   0.092   1.781   1.448
 8050TIP3   OH224113   5.587   0.202   1.326
 8050TIP3    H124114   5.597   0.274   1.264
 8050TIP3    H224115   5.592   0.123   1.273
 8051TIP3   OH224116   0.990   5.391   4.894
 8051TIP3    H124117   0.914   5.350   4.935
 8051TIP3    H224118   1.064   5.335   4.918
 8052TIP3   OH224119   4.936   3.687   5.334
 8052TIP3    H124120   5.031   3.702   5.332
 8052TIP3    H224121   4.900   3.757   5.280
 8053TIP3   OH224122   6.820   1.279   3.789
 8053TIP3    H124123   6.766   1.214   3.833
 8053TIP3    H224124   6.762   1.355   3.778
 8054TIP3   OH224125   0.883   5.640   3.588
 8054TIP3    H124126   0.887   5.550   3.619
 8054TIP3    H224127   0.963   5.681   3.621
 8055TIP3   OH224128   0.733   2.468   5.412
 8055TIP3    H124129   0.638   2.474   5.407
 8055TIP3    H224130   0.754   2.494   5.502
 8056TIP3   OH224131   1.393   4.580   3.484
 8056TIP3    H124132   1.310   4.625   3.468
 8056TIP3    H224133   1.460   4.648   3.475
 8057TIP3   OH224134   5.695   0.870   5.225
 8057TIP3    H124135   5.605   0.850   5.199
 8057TIP3    H224136   5.729   0.923   5.152
 8058TIP3   OH224137   2.616   2.796   4.459
 8058TIP3    H124138   2.577   2.785   4.546
 8058TIP3    H224139   2.709   2.781   4.472
 8059TIP3   OH224140   3.514   3.107   4.652
 8059TIP3    H124141   3.491   3.019   4.622
 8059TIP3    H224142   3.491   3.108   4.745
 8060TIP3   OH224143   1.523   2.480   1.722
 8060TIP3    H124144   1.603   2.427   1.730
 8060TIP3    H224145   1.543   2.561   1.769
 8061TIP3   OH224146   1.690   1.570   5.129
 8061TIP3    H124147   1.723   1.582   5.218
 8061TIP3    H224148   1.761   1.525   5.083
 8062TIP3   OH224149   3.979   0.337   5.898
 8062TIP3    H124150   4.067   0.333   5.933
 8062TIP3    H224151   3.964   0.430   5.880
 8063TIP3   OH224152   7.093   1.472   5.803
 8063TIP3    H124153   7.093   1.508   5.892
 8063TIP3    H224154   7.044   1.390   5.810
 8064TIP3   OH224155   2.473   3.512   2.489
 8064TIP3    H124156   2.554   3.538   2.444
 8064TIP3    H224157   2.423   3.465   2.423
 8065TIP3   OH224158   2.356   4.959   1.192
 8065TIP3    H124159   2.369   5.053   1.177
 8065TIP3    H224160   2.266   4.952   1.224
 8066TIP3   OH224161   3.319   5.136   4.673
 8066TIP3    H124162   3.236   5.146   4.628
 8066TIP3    H224163   3.347   5.226   4.692
 8067TIP3   OH224164   3.185   0.669   3.066
 8067TIP3    H124165   3.107   0.679   3.121
 8067TIP3    H224166   3.159   0.703   2.981
 8068TIP3   OH224167   0.017   3.530   5.678
 8068TIP3    H124168   0.087   3.509   5.740
 8068TIP3    H224169  -0.006   3.621   5.699
 8069TIP3   OH224170   1.392   0.101   0.962
 8069TIP3    H124171   1.310   0.107   1.011
 8069TIP3    H224172   1.383   0.165   0.892
 8070TIP3   OH224173   2.821   3.807   4.253
 8070TIP3    H124174   2.897   3.804   4.195
 8070TIP3    H224175   2.779   3.722   4.240
 8071TIP3   OH224176   1.306   3.180   0.275
 8071TIP3    H124177   1.248   3.146   0.343
 8071TIP3    H224178   1.299   3.115   0.204
 8072TIP3   OH224179   1.737   6.353   1.588
 8072TIP3    H124180   1.747   6.437   1.544
 8072TIP3    H224181   1.689   6.298   1.526
 8073TIP3   OH224182   3.313   6.557   0.441
 8073TIP3    H124183   3.310   6.541   0.535
 8073TIP3    H224184   3.360   6.640   0.432
 8074TIP3   OH224185   5.914   6.677   0.454
 8074TIP3    H124186   5.913   6.763   0.496
 8074TIP3    H224187   5.929   6.695   0.362
 8075TIP3   OH224188   4.512   3.094   3.150
 8075TIP3    H124189   4.519   3.189   3.138
 8075TIP3    H224190   4.591   3.059   3.108
 8076TIP3   OH224191   2.799   3.636   1.931
 8076TIP3    H124192   2.772   3.547   1.954
 8076TIP3    H224193   2.800   3.637   1.835
 8077TIP3   OH224194   1.970   2.750   1.088
 8077TIP3    H124195   2.008   2.768   1.002
 8077TIP3    H224196   1.876   2.767   1.077
 8078TIP3   OH224197   1.799   0.326   3.195
 8078TIP3    H124198   1.761   0.346   3.109
 8078TIP3    H224199   1.884   0.369   3.194
 8079TIP3   OH224200   3.621   3.943   4.483
 8079TIP3    H124201   3.572   4.016   4.446
 8079TIP3    H224202   3.707   3.979   4.503
 8080TIP3   OH224203   1.718   1.497   3.668
 8080TIP3    H124204   1.794   1.498   3.726
 8080TIP3    H224205   1.725   1.416   3.619
 8081TIP3   OH224206   0.389   1.675   3.106
 8081TIP3    H124207   0.436   1.666   3.189
 8081TIP3    H224208   0.441   1.626   3.043
 8082TIP3   OH224209   7.052   1.355   1.213
 8082TIP3    H124210   7.055   1.428   1.151
 8082TIP3    H224211   6.960   1.330   1.217
 8083TIP3   OH224212   0.306   2.807   1.097
 8083TIP3    H124213   0.302   2.820   1.191
 8083TIP3    H224214   0.217   2.825   1.066
 8084TIP3   OH224215   3.094   4.073   5.837
 8084TIP3    H124216   3.134   4.158   5.858
 8084TIP3    H224217   3.164   4.009   5.851
 8085TIP3   OH224218   6.059   2.414   0.542
 8085TIP3    H124219   6.044   2.481   0.609
 8085TIP3    H224220   5.971   2.382   0.521
 8086TIP3   OH224221   6.603   0.197   0.344
 8086TIP3    H124222   6.571   0.132   0.282
 8086TIP3    H224223   6.687   0.163   0.374
 8087TIP3   OH224224   6.190   3.241   0.301
 8087TIP3    H124225   6.236   3.318   0.333
 8087TIP3    H224226   6.239   3.216   0.222
 8088TIP3   OH224227   4.698   4.700   3.057
 8088TIP3    H124228   4.733   4.778   3.011
 8088TIP3    H224229   4.747   4.627   3.020
 8089TIP3   OH224230   6.807   4.571   2.957
 8089TIP3    H124231   6.785   4.572   3.050
 8089TIP3    H224232   6.892   4.527   2.954
 8090TIP3   OH224233   1.304   0.911   2.421
 8090TIP3    H124234   1.286   0.822   2.452
 8090TIP3    H224235   1.220   0.943   2.390
 8091TIP3   OH224236   0.725   4.777   0.458
 8091TIP3    H124237   0.767   4.828   0.389
 8091TIP3    H224238   0.796   4.756   0.519
 8092TIP3   OH224239   1.999  -0.011   3.013
 8092TIP3    H124240   2.011  -0.039   3.104
 8092TIP3    H224241   2.072   0.049   2.997
 8093TIP3   OH224242   4.511   5.889   5.228
 8093TIP3    H124243   4.509   5.896   5.133
 8093TIP3    H224244   4.565   5.812   5.246
 8094TIP3   OH224245   5.149   2.736   0.953
 8094TIP3    H124246   5.108   2.798   1.012
 8094TIP3    H224247   5.087   2.729   0.879
 8095TIP3   OH224248   1.469   6.730   0.083
 8095TIP3    H124249   1.380   6.710   0.113
 8095TIP3    H224250   1.489   6.814   0.123
 8096TIP3   OH224251   5.288   4.370   1.741
 8096TIP3    H124252   5.373   4.374   1.698
 8096TIP3    H224253   5.289   4.444   1.802
 8097TIP3   OH224254   0.890   4.837   2.966
 8097TIP3    H124255   0.854   4.922   2.944
 8097TIP3    H224256   0.823   4.774   2.940
 8098TIP3   OH224257   4.124   4.010   5.465
 8098TIP3    H124258   4.120   4.092   5.514
 8098TIP3    H224259   4.218   3.990   5.459
 8099TIP3   OH224260   0.331   0.759   3.451
 8099TIP3    H124261   0.353   0.669   3.475
 8099TIP3    H224262   0.379   0.813   3.514
 8100TIP3   OH224263   4.949   1.783   0.969
 8100TIP3    H124264   4.980   1.697   0.942
 8100TIP3    H224265   4.959   1.784   1.064
 8101TIP3   OH224266   4.836   1.264   2.446
 8101TIP3    H124267   4.819   1.356   2.463
 8101TIP3    H224268   4.929   1.252   2.464
 8102TIP3   OH224269   4.286   5.527   0.189
 8102TIP3    H124270   4.336   5.609   0.189
 8102TIP3    H224271   4.283   5.500   0.280
 8103TIP3   OH224272   2.438   5.639   2.834
 8103TIP3    H124273   2.370   5.698   2.867
 8103TIP3    H224274   2.450   5.576   2.904
 8104TIP3   OH224275   1.752   4.524   2.222
 8104TIP3    H124276   1.741   4.553   2.131
 8104TIP3    H224277   1.782   4.433   2.215
 8105TIP3   OH224278   5.058   2.767   0.112
 8105TIP3    H124279   5.083   2.677   0.128
 8105TIP3    H224280   5.065   2.810   0.197
 8106TIP3   OH224281   6.782   1.829   3.499
 8106TIP3    H124282   6.754   1.779   3.422
 8106TIP3    H224283   6.705   1.831   3.556
 8107TIP3   OH224284   4.184   5.721   3.672
 8107TIP3    H124285   4.275   5.715   3.699
 8107TIP3    H224286   4.173   5.652   3.606
 8108TIP3   OH224287   5.734   0.147   0.915
 8108TIP3    H124288   5.651   0.107   0.890
 8108TIP3    H224289   5.792   0.131   0.841
 8109TIP3   OH224290   3.980   4.615   2.789
 8109TIP3    H124291   3.887   4.610   2.809
 8109TIP3    H224292   4.021   4.556   2.852
 8110TIP3   OH224293   1.631   2.770   1.025
 8110TIP3    H124294   1.559   2.731   1.074
 8110TIP3    H224295   1.633   2.721   0.942
 8111TIP3   OH224296   4.418   5.552   2.435
 8111TIP3    H124297   4.337   5.544   2.385
 8111TIP3    H224298   4.476   5.605   2.380
 8112TIP3   OH224299   3.683   2.273   5.687
 8112TIP3    H124300   3.595   2.285   5.723
 8112TIP3    H224301   3.737   2.250   5.763
 8113TIP3   OH224302   2.526   5.684   0.333
 8113TIP3    H124303   2.582   5.696   0.256
 8113TIP3    H224304   2.518   5.589   0.341
 8114TIP3   OH224305   3.252   6.222   4.502
 8114TIP3    H124306   3.157   6.234   4.497
 8114TIP3    H224307   3.287   6.310   4.517
 8115TIP3   OH224308   6.202   2.716   0.983
 8115TIP3    H124309   6.133   2.650   0.990
 8115TIP3    H224310   6.239   2.720   1.071
 8116TIP3   OH224311   4.642   5.785   4.648
 8116TIP3    H124312   4.646   5.693   4.620
 8116TIP3    H224313   4.566   5.821   4.603
 8117TIP3   OH224314   1.790   5.001   4.025
 8117TIP3    H124315   1.840   5.083   4.022
 8117TIP3    H224316   1.847   4.937   3.983
 8118TIP3   OH224317   2.557   3.368   1.585
 8118TIP3    H124318   2.513   3.422   1.650
 8118TIP3    H224319   2.592   3.294   1.635
 8119TIP3   OH224320   0.138   2.950   0.792
 8119TIP3    H124321   0.129   2.954   0.887
 8119TIP3    H224322   0.184   3.031   0.769
 8120TIP3   OH224323   1.921   1.324   5.106
 8120TIP3    H124324   1.915   1.376   5.026
 8120TIP3    H224325   2.011   1.336   5.136
 8121TIP3   OH224326   6.485   2.598   1.338
 8121TIP3    H124327   6.436   2.527   1.381
 8121TIP3    H224328   6.419   2.666   1.323
 8122TIP3   OH224329   6.351   5.162   1.162
 8122TIP3    H124330   6.430   5.192   1.116
 8122TIP3    H224331   6.370   5.071   1.185
 8123TIP3   OH224332   5.659   5.572   5.548
 8123TIP3    H124333   5.749   5.561   5.581
 8123TIP3    H224334   5.655   5.515   5.471
 8124TIP3   OH224335   4.698   0.983   2.331
 8124TIP3    H124336   4.743   1.038   2.395
 8124TIP3    H224337   4.671   0.906   2.382
 8125TIP3   OH224338   3.275   3.612   5.046
 8125TIP3    H124339   3.306   3.547   4.984
 8125TIP3    H224340   3.305   3.696   5.010
 8126TIP3   OH224341   2.240   6.398   1.201
 8126TIP3    H124342   2.228   6.311   1.162
 8126TIP3    H224343   2.269   6.453   1.128
 8127TIP3   OH224344   1.027   5.235   5.535
 8127TIP3    H124345   0.992   5.280   5.458
 8127TIP3    H224346   1.101   5.289   5.563
 8128TIP3   OH224347   3.966   2.813   3.447
 8128TIP3    H124348   3.930   2.901   3.460
 8128TIP3    H224349   3.890   2.755   3.447
 8129TIP3   OH224350   3.230   3.898   5.587
 8129TIP3    H124351   3.139   3.877   5.563
 8129TIP3    H224352   3.232   3.890   5.682
 8130TIP3   OH224353   1.455   2.438   4.790
 8130TIP3    H124354   1.439   2.521   4.837
 8130TIP3    H224355   1.379   2.428   4.733
 8131TIP3   OH224356   6.978   1.679   1.413
 8131TIP3    H124357   6.990   1.651   1.322
 8131TIP3    H224358   7.034   1.756   1.423
 8132TIP3   OH224359   0.026   5.962   2.470
 8132TIP3    H124360   0.031   5.903   2.394
 8132TIP3    H224361  -0.018   5.909   2.537
 8133TIP3   OH224362   3.113   2.144   1.204
 8133TIP3    H124363   3.120   2.049   1.190
 8133TIP3    H224364   3.171   2.161   1.279
 8134TIP3   OH224365   2.144   3.380   3.352
 8134TIP3    H124366   2.099   3.296   3.356
 8134TIP3    H224367   2.209   3.377   3.423
 8135TIP3   OH224368   4.766   5.865   1.541
 8135TIP3    H124369   4.743   5.918   1.465
 8135TIP3    H224370   4.862   5.863   1.540
 8136TIP3   OH224371   0.035   0.451   1.751
 8136TIP3    H124372   0.060   0.543   1.745
 8136TIP3    H224373  -0.049   0.451   1.795
 8137TIP3   OH224374   4.495   0.550   3.296
 8137TIP3    H124375   4.455   0.473   3.255
 8137TIP3    H224376   4.546   0.514   3.369
 8138TIP3   OH224377   3.261   6.570   3.575
 8138TIP3    H124378   3.215   6.488   3.594
 8138TIP3    H224379   3.204   6.615   3.512
 8139TIP3   OH224380   4.431   2.215   1.713
 8139TIP3    H124381   4.519   2.197   1.746
 8139TIP3    H224382   4.432   2.308   1.690
 8140TIP3   OH224383   5.501   0.865   4.526
 8140TIP3    H124384   5.493   0.852   4.621
 8140TIP3    H224385   5.595   0.873   4.510
 8141TIP3   OH224386   0.946   2.495   3.801
 8141TIP3    H124387   0.859   2.456   3.807
 8141TIP3    H224388   0.935   2.571   3.744
 8142TIP3   OH224389   5.862   0.571   3.875
 8142TIP3    H124390   5.931   0.621   3.919
 8142TIP3    H224391   5.827   0.632   3.810
 8143TIP3   OH224392   6.275   5.793   4.893
 8143TIP3    H124393   6.257   5.721   4.833
 8143TIP3    H224394   6.189   5.833   4.910
 8144TIP3   OH224395   1.013   0.146   2.696
 8144TIP3    H124396   1.073   0.169   2.767
 8144TIP3    H224397   0.931   0.191   2.719
 8145TIP3   OH224398   1.512   0.261   3.459
 8145TIP3    H124399   1.559   0.208   3.395
 8145TIP3    H224400   1.423   0.227   3.457
 8146TIP3   OH224401   0.776   6.277   0.610
 8146TIP3    H124402   0.803   6.334   0.538
 8146TIP3    H224403   0.685   6.303   0.628
 8147TIP3   OH224404   6.590   4.419   1.665
 8147TIP3    H124405   6.547   4.340   1.631
 8147TIP3    H224406   6.678   4.390   1.689
 8148TIP3   OH224407   3.641   2.931   2.280
 8148TIP3    H124408   3.599   2.888   2.354
 8148TIP3    H224409   3.635   2.869   2.208
 8149TIP3   OH224410   4.999   4.628   4.953
 8149TIP3    H124411   5.050   4.548   4.965
 8149TIP3    H224412   4.931   4.624   5.019
 8150TIP3   OH224413   4.190   1.608   5.741
 8150TIP3    H124414   4.211   1.515   5.746
 8150TIP3    H224415   4.104   1.616   5.782
 8151TIP3   OH224416   5.044   6.696   5.026
 8151TIP3    H124417   4.996   6.699   5.109
 8151TIP3    H224418   5.107   6.767   5.032
 8152TIP3   OH224419   5.813   2.190   1.142
 8152TIP3    H124420   5.859   2.137   1.206
 8152TIP3    H224421   5.799   2.131   1.068
 8153TIP3   OH224422   2.871   6.753   0.686
 8153TIP3    H124423   2.927   6.744   0.609
 8153TIP3    H224424   2.823   6.834   0.671
 8154TIP3   OH224425   4.945   3.232   5.092
 8154TIP3    H124426   4.889   3.188   5.156
 8154TIP3    H224427   4.926   3.189   5.009
 8155TIP3   OH224428   3.406   4.810   3.513
 8155TIP3    H124429   3.469   4.760   3.565
 8155TIP3    H224430   3.426   4.787   3.423
 8156TIP3   OH224431   4.116   6.786   3.175
 8156TIP3    H124432   4.071   6.789   3.260
 8156TIP3    H224433   4.070   6.851   3.121
 8157TIP3   OH224434   6.400   5.820   3.165
 8157TIP3    H124435   6.434   5.813   3.076
 8157TIP3    H224436   6.419   5.734   3.204
 8158TIP3   OH224437   0.842   1.241   4.830
 8158TIP3    H124438   0.935   1.256   4.846
 8158TIP3    H224439   0.839   1.180   4.757
 8159TIP3   OH224440   5.071   1.295   3.249
 8159TIP3    H124441   5.002   1.338   3.198
 8159TIP3    H224442   5.077   1.347   3.330
 8160TIP3   OH224443   4.148   6.408   3.758
 8160TIP3    H124444   4.224   6.411   3.700
 8160TIP3    H224445   4.140   6.497   3.793
 8161TIP3   OH224446   3.349   3.400   2.038
 8161TIP3    H124447   3.440   3.427   2.047
 8161TIP3    H224448   3.302   3.478   2.010
 8162TIP3   OH224449   5.381   3.830   0.027
 8162TIP3    H124450   5.299   3.877   0.010
 8162TIP3    H224451   5.377   3.808   0.120
 8163TIP3   OH224452   6.924   0.539   5.473
 8163TIP3    H124453   6.937   0.512   5.564
 8163TIP3    H224454   7.012   0.538   5.434
 8164TIP3   OH224455   4.831   2.900   1.229
 8164TIP3    H124456   4.812   2.849   1.308
 8164TIP3    H224457   4.767   2.971   1.231
 8165TIP3   OH224458   0.876   0.574   1.706
 8165TIP3    H124459   0.938   0.566   1.634
 8165TIP3    H224460   0.873   0.668   1.724
 8166TIP3   OH224461   4.570   2.175   2.263
 8166TIP3    H124462   4.560   2.080   2.275
 8166TIP3    H224463   4.515   2.214   2.331
 8167TIP3   OH224464   1.273   3.435  -0.014
 8167TIP3    H124465   1.220   3.361   0.016
 8167TIP3    H224466   1.360   3.398  -0.028
 8168TIP3   OH224467   7.191   0.727   3.212
 8168TIP3    H124468   7.141   0.668   3.269
 8168TIP3    H224469   7.158   0.709   3.124
 8169TIP3   OH224470   2.037   6.127   4.377
 8169TIP3    H124471   2.000   6.075   4.449
 8169TIP3    H224472   2.110   6.174   4.417
 8170TIP3   OH224473   3.392   4.032   3.426
 8170TIP3    H124474   3.334   3.955   3.425
 8170TIP3    H224475   3.336   4.103   3.394
 8171TIP3   OH224476   2.664   3.418   1.329
 8171TIP3    H124477   2.605   3.405   1.403
 8171TIP3    H224478   2.704   3.332   1.315
 8172TIP3   OH224479   6.121   1.797   5.371
 8172TIP3    H124480   6.039   1.749   5.383
 8172TIP3    H224481   6.187   1.730   5.356
 8173TIP3   OH224482   1.061   5.462   2.362
 8173TIP3    H124483   0.995   5.412   2.314
 8173TIP3    H224484   1.071   5.414   2.445
 8174TIP3   OH224485   5.589   6.165   5.139
 8174TIP3    H124486   5.574   6.249   5.096
 8174TIP3    H224487   5.643   6.186   5.214
 8175TIP3   OH224488   5.361   5.134   5.819
 8175TIP3    H124489   5.329   5.190   5.749
 8175TIP3    H224490   5.452   5.115   5.795
 8176TIP3   OH224491   3.156   4.425   2.913
 8176TIP3    H124492   3.247   4.394   2.913
 8176TIP3    H224493   3.163   4.520   2.911
 8177TIP3   OH224494   0.165   4.082   4.610
 8177TIP3    H124495   0.233   4.090   4.677
 8177TIP3    H224496   0.159   3.988   4.593
 8178TIP3   OH224497   0.662   5.322   3.180
 8178TIP3    H124498   0.577   5.281   3.168
 8178TIP3    H224499   0.703   5.273   3.252
 8179TIP3   OH224500   6.252   2.473   3.365
 8179TIP3    H124501   6.311   2.409   3.405
 8179TIP3    H224502   6.191   2.420   3.313
 8180TIP3   OH224503   6.493   1.276   4.780
 8180TIP3    H124504   6.447   1.315   4.705
 8180TIP3    H224505   6.510   1.349   4.839
 8181TIP3   OH224506   6.105   2.417   4.353
 8181TIP3    H124507   6.097   2.410   4.448
 8181TIP3    H224508   6.078   2.507   4.333
 8182TIP3   OH224509   3.119   0.434   1.639
 8182TIP3    H124510   3.054   0.434   1.569
 8182TIP3    H224511   3.148   0.525   1.645
 8183TIP3   OH224512   4.054   0.275   3.844
 8183TIP3    H124513   4.114   0.342   3.878
 8183TIP3    H224514   4.011   0.317   3.770
 8184TIP3   OH224515   2.206   1.965   3.350
 8184TIP3    H124516   2.212   2.007   3.436
 8184TIP3    H224517   2.161   2.029   3.295
 8185TIP3   OH224518   5.264   0.520  -0.024
 8185TIP3    H124519   5.245   0.613  -0.032
 8185TIP3    H224520   5.332   0.515   0.043
 8186TIP3   OH224521   5.775   4.033   0.862
 8186TIP3    H124522   5.835   3.986   0.803
 8186TIP3    H224523   5.828   4.050   0.940
 8187TIP3   OH224524   6.759   4.426   5.631
 8187TIP3    H124525   6.819   4.422   5.706
 8187TIP3    H224526   6.701   4.351   5.643
 8188TIP3   OH224527   2.371   3.366   3.579
 8188TIP3    H124528   2.403   3.276   3.574
 8188TIP3    H224529   2.439   3.419   3.538
 8189TIP3   OH224530   6.688   6.257   3.914
 8189TIP3    H124531   6.648   6.245   4.000
 8189TIP3    H224532   6.780   6.232   3.927
 8190TIP3   OH224533   6.637   3.531   2.903
 8190TIP3    H124534   6.558   3.531   2.956
 8190TIP3    H224535   6.703   3.488   2.957
 8191TIP3   OH224536   1.155   5.106   5.236
 8191TIP3    H124537   1.174   5.168   5.307
 8191TIP3    H224538   1.231   5.048   5.235
 8192TIP3   OH224539   4.576   4.057   3.343
 8192TIP3    H124540   4.638   3.999   3.388
 8192TIP3    H224541   4.617   4.143   3.348
 8193TIP3   OH224542   2.004   6.221   5.075
 8193TIP3    H124543   2.050   6.301   5.048
 8193TIP3    H224544   2.073   6.156   5.086
 8194TIP3   OH224545   5.577   3.166   2.459
 8194TIP3    H124546   5.606   3.198   2.373
 8194TIP3    H224547   5.619   3.224   2.522
 8195TIP3   OH224548   2.088   0.933   1.182
 8195TIP3    H124549   2.183   0.943   1.189
 8195TIP3    H224550   2.065   0.875   1.254
 8196TIP3   OH224551   0.964   0.361   0.905
 8196TIP3    H124552   0.979   0.443   0.953
 8196TIP3    H224553   0.961   0.294   0.974
 8197TIP3   OH224554   3.058   3.064   3.890
 8197TIP3    H124555   3.021   2.987   3.846
 8197TIP3    H224556   2.982   3.112   3.923
 8198TIP3   OH224557   2.438   2.010   4.756
 8198TIP3    H124558   2.387   1.942   4.800
 8198TIP3    H224559   2.476   2.061   4.827
 8199TIP3   OH224560   6.385   3.520   4.701
 8199TIP3    H124561   6.318   3.548   4.764
 8199TIP3    H224562   6.341   3.522   4.616
 8200TIP3   OH224563   4.408   0.018   3.810
 8200TIP3    H124564   4.471  -0.013   3.875
 8200TIP3    H224565   4.328   0.035   3.859
 8201TIP3   OH224566   2.094   2.792   5.600
 8201TIP3    H124567   2.081   2.887   5.605
 8201TIP3    H224568   2.157   2.773   5.669
 8202TIP3   OH224569   3.701   6.309   4.562
 8202TIP3    H124570   3.675   6.316   4.470
 8202TIP3    H224571   3.676   6.393   4.601
 8203TIP3   OH224572   1.585   6.294   1.367
 8203TIP3    H124573   1.657   6.306   1.305
 8203TIP3    H224574   1.552   6.206   1.348
 8204TIP3   OH224575   0.211   5.148   0.713
 8204TIP3    H124576   0.208   5.161   0.808
 8204TIP3    H224577   0.120   5.142   0.686
 8205TIP3   OH224578   2.954   0.532   0.265
 8205TIP3    H124579   2.923   0.623   0.260
 8205TIP3    H224580   3.012   0.522   0.190
 8206TIP3   OH224581   2.026   0.774   3.303
 8206TIP3    H124582   2.080   0.792   3.380
 8206TIP3    H224583   2.084   0.791   3.228
 8207TIP3   OH224584   0.269   1.978   2.508
 8207TIP3    H124585   0.221   1.905   2.469
 8207TIP3    H224586   0.201   2.037   2.541
 8208TIP3   OH224587   5.852   0.592   4.420
 8208TIP3    H124588   5.793   0.530   4.463
 8208TIP3    H224589   5.938   0.573   4.457
 8209TIP3   OH224590   6.637   4.966   4.705
 8209TIP3    H124591   6.689   4.886   4.710
 8209TIP3    H224592   6.547   4.936   4.693
 8210TIP3   OH224593   3.676   0.801   4.476
 8210TIP3    H124594   3.614   0.853   4.425
 8210TIP3    H224595   3.751   0.789   4.418
 8211TIP3   OH224596   2.691   6.568   4.747
 8211TIP3    H124597   2.683   6.481   4.707
 8211TIP3    H224598   2.785   6.582   4.755
 8212TIP3   OH224599   5.163   6.217   1.349
 8212TIP3    H124600   5.112   6.179   1.277
 8212TIP3    H224601   5.132   6.307   1.355
 8213TIP3   OH224602   6.136   5.135   5.388
 8213TIP3    H124603   6.145   5.211   5.330
 8213TIP3    H224604   6.218   5.087   5.377
 8214TIP3   OH224605   5.661   5.663   3.673
 8214TIP3    H124606   5.676   5.588   3.615
 8214TIP3    H224607   5.567   5.677   3.671
 8215TIP3   OH224608   1.841   3.768   2.471
 8215TIP3    H124609   1.778   3.699   2.494
 8215TIP3    H224610   1.882   3.791   2.554
 8216TIP3   OH224611   2.821   5.852   1.940
 8216TIP3    H124612   2.863   5.919   1.886
 8216TIP3    H224613   2.814   5.776   1.881
 8217TIP3   OH224614   6.310   2.489   0.298
 8217TIP3    H124615   6.396   2.512   0.264
 8217TIP3    H224616   6.297   2.546   0.374
 8218TIP3   OH224617   4.924   0.222   4.041
 8218TIP3    H124618   4.921   0.137   3.998
 8218TIP3    H224619   4.973   0.207   4.122
 8219TIP3   OH224620   0.244   1.890   2.103
 8219TIP3    H124621   0.333   1.868   2.128
 8219TIP3    H224622   0.224   1.831   2.031
 8220TIP3   OH224623   3.754   1.481   5.501
 8220TIP3    H124624   3.830   1.487   5.442
 8220TIP3    H224625   3.691   1.426   5.453
 8221TIP3   OH224626   3.759   2.126   0.564
 8221TIP3    H124627   3.769   2.130   0.659
 8221TIP3    H224628   3.849   2.126   0.530
 8222TIP3   OH224629   3.517   5.621   5.869
 8222TIP3    H124630   3.480   5.592   5.786
 8222TIP3    H224631   3.562   5.545   5.904
 8223TIP3   OH224632   0.047   3.989   3.824
 8223TIP3    H124633   0.102   3.946   3.758
 8223TIP3    H224634   0.058   4.082   3.808
 8224TIP3   OH224635   3.594   6.370   4.326
 8224TIP3    H124636   3.524   6.347   4.265
 8224TIP3    H224637   3.668   6.394   4.269
 8225TIP3   OH224638   0.545   2.054   5.201
 8225TIP3    H124639   0.464   2.004   5.196
 8225TIP3    H224640   0.605   1.998   5.250
 8226TIP3   OH224641   3.889   5.418   3.211
 8226TIP3    H124642   3.943   5.344   3.240
 8226TIP3    H224643   3.842   5.445   3.289
 8227TIP3   OH224644   4.970   0.584   3.848
 8227TIP3    H124645   5.018   0.530   3.912
 8227TIP3    H224646   4.987   0.674   3.876
 8228TIP3   OH224647   2.505   0.840   0.498
 8228TIP3    H124648   2.563   0.910   0.469
 8228TIP3    H224649   2.528   0.765   0.443
 8229TIP3   OH224650   3.035   5.193   0.702
 8229TIP3    H124651   3.019   5.287   0.689
 8229TIP3    H224652   2.996   5.174   0.787
 8230TIP3   OH224653   6.674   2.480   5.010
 8230TIP3    H124654   6.617   2.497   5.085
 8230TIP3    H224655   6.757   2.454   5.048
 8231TIP3   OH224656   1.929   2.913   4.546
 8231TIP3    H124657   2.007   2.879   4.590
 8231TIP3    H224658   1.901   2.986   4.601
 8232TIP3   OH224659   6.677   3.420   0.058
 8232TIP3    H124660   6.629   3.475  -0.004
 8232TIP3    H224661   6.610   3.386   0.116
 8233TIP3   OH224662   3.944   5.685   1.872
 8233TIP3    H124663   3.900   5.620   1.927
 8233TIP3    H224664   3.891   5.764   1.881
 8234TIP3   OH224665   1.130   0.509   4.392
 8234TIP3    H124666   1.123   0.417   4.417
 8234TIP3    H224667   1.090   0.557   4.464
 8235TIP3   OH224668   3.787  -0.016   2.844
 8235TIP3    H124669   3.829   0.007   2.761
 8235TIP3    H224670   3.837  -0.091   2.876
 8236TIP3   OH224671   4.227   5.785   0.392
 8236TIP3    H124672   4.242   5.764   0.484
 8236TIP3    H224673   4.132   5.793   0.384
 8237TIP3   OH224674   5.580   4.099   5.328
 8237TIP3    H124675   5.631   4.157   5.386
 8237TIP3    H224676   5.524   4.158   5.278
 8238TIP3   OH224677   5.673   2.761   0.416
 8238TIP3    H124678   5.615   2.710   0.359
 8238TIP3    H224679   5.752   2.776   0.363
 8239TIP3   OH224680   3.440   0.928   2.741
 8239TIP3    H124681   3.398   1.009   2.711
 8239TIP3    H224682   3.457   0.944   2.834
 8240TIP3   OH224683   2.516   5.198   4.964
 8240TIP3    H124684   2.530   5.138   4.891
 8240TIP3    H224685   2.499   5.140   5.039
 8241TIP3   OH224686   3.235   4.234   3.331
 8241TIP3    H124687   3.236   4.315   3.279
 8241TIP3    H224688   3.144   4.206   3.329
 8242TIP3   OH224689   6.747   5.680   2.035
 8242TIP3    H124690   6.818   5.725   2.082
 8242TIP3    H224691   6.789   5.602   1.999
 8243TIP3   OH224692   0.360   5.266   2.691
 8243TIP3    H124693   0.293   5.275   2.623
 8243TIP3    H224694   0.408   5.187   2.667
 8244TIP3   OH224695   6.136   1.656   0.382
 8244TIP3    H124696   6.200   1.727   0.372
 8244TIP3    H224697   6.159   1.593   0.314
 8245TIP3   OH224698   6.060   1.563   1.581
 8245TIP3    H124699   6.147   1.527   1.564
 8245TIP3    H224700   6.049   1.631   1.514
 8246TIP3   OH224701   3.694   1.936   1.669
 8246TIP3    H124702   3.643   1.953   1.747
 8246TIP3    H224703   3.729   1.847   1.682
 8247TIP3   OH224704   5.667   2.000   1.995
 8247TIP3    H124705   5.709   1.918   2.018
 8247TIP3    H224706   5.573   1.980   1.997
 8248TIP3   OH224707   1.824   5.452   0.963
 8248TIP3    H124708   1.767   5.473   1.037
 8248TIP3    H224709   1.864   5.536   0.939
 8249TIP3   OH224710   4.792   6.734   3.975
 8249TIP3    H124711   4.731   6.662   3.958
 8249TIP3    H224712   4.828   6.715   4.061
 8250TIP3   OH224713   3.644   4.666   0.678
 8250TIP3    H124714   3.683   4.747   0.709
 8250TIP3    H224715   3.706   4.631   0.614
 8251TIP3   OH224716   0.489   0.361   1.984
 8251TIP3    H124717   0.506   0.268   1.974
 8251TIP3    H224718   0.575   0.402   1.974
 8252TIP3   OH224719   6.323   0.707   4.313
 8252TIP3    H124720   6.250   0.769   4.322
 8252TIP3    H224721   6.365   0.732   4.230
 8253TIP3   OH224722   5.179   2.107   0.029
 8253TIP3    H124723   5.203   2.122   0.121
 8253TIP3    H224724   5.260   2.123  -0.020
 8254TIP3   OH224725   3.892   2.661   2.073
 8254TIP3    H124726   3.864   2.569   2.069
 8254TIP3    H224727   3.988   2.656   2.080
 8255TIP3   OH224728   2.500   0.345   0.466
 8255TIP3    H124729   2.491   0.420   0.524
 8255TIP3    H224730   2.416   0.298   0.473
 8256TIP3   OH224731   6.480   2.864   5.043
 8256TIP3    H124732   6.501   2.819   5.124
 8256TIP3    H224733   6.498   2.957   5.062
 8257TIP3   OH224734   2.722   2.159   4.872
 8257TIP3    H124735   2.780   2.197   4.807
 8257TIP3    H224736   2.718   2.066   4.850
 8258TIP3   OH224737   7.132   2.060   4.712
 8258TIP3    H124738   7.166   2.136   4.759
 8258TIP3    H224739   7.178   1.986   4.751
 8259TIP3   OH224740   2.071   5.703   4.380
 8259TIP3    H124741   1.984   5.662   4.382
 8259TIP3    H224742   2.086   5.722   4.288
 8260TIP3   OH224743   2.154   0.926   2.111
 8260TIP3    H124744   2.244   0.899   2.126
 8260TIP3    H224745   2.106   0.844   2.096
 8261TIP3   OH224746   6.666   5.936   0.527
 8261TIP3    H124747   6.664   5.927   0.432
 8261TIP3    H224748   6.575   5.941   0.554
 8262TIP3   OH224749   2.955   4.171   3.304
 8262TIP3    H124750   2.991   4.168   3.215
 8262TIP3    H224751   2.870   4.214   3.293
 8263TIP3   OH224752   3.984   1.276   4.558
 8263TIP3    H124753   4.050   1.269   4.628
 8263TIP3    H224754   3.934   1.195   4.563
 8264TIP3   OH224755   1.172   3.601   0.750
 8264TIP3    H124756   1.150   3.508   0.757
 8264TIP3    H224757   1.203   3.625   0.837
 8265TIP3   OH224758   3.834   0.546   1.797
 8265TIP3    H124759   3.858   0.615   1.859
 8265TIP3    H224760   3.869   0.577   1.713
 8266TIP3   OH224761   1.135   0.733   5.112
 8266TIP3    H124762   1.180   0.809   5.078
 8266TIP3    H224763   1.047   0.764   5.133
 8267TIP3   OH224764   4.095   0.694   0.642
 8267TIP3    H124765   4.099   0.662   0.732
 8267TIP3    H224766   4.113   0.788   0.649
 8268TIP3   OH224767   4.412   1.375   1.988
 8268TIP3    H124768   4.387   1.282   1.986
 8268TIP3    H224769   4.335   1.419   2.023
 8269TIP3   OH224770   2.032   2.756   3.841
 8269TIP3    H124771   1.937   2.768   3.851
 8269TIP3    H224772   2.068   2.775   3.927
 8270TIP3   OH224773   3.996   6.665   0.772
 8270TIP3    H124774   3.942   6.694   0.845
 8270TIP3    H224775   4.048   6.743   0.748
 8271TIP3   OH224776   0.667   3.436   0.948
 8271TIP3    H124777   0.641   3.462   1.036
 8271TIP3    H224778   0.585   3.426   0.900
 8272TIP3   OH224779   3.324   2.151   1.403
 8272TIP3    H124780   3.388   2.080   1.409
 8272TIP3    H224781   3.376   2.231   1.407
 8273TIP3   OH224782   0.282   5.465   0.780
 8273TIP3    H124783   0.307   5.392   0.836
 8273TIP3    H224784   0.365   5.503   0.752
 8274TIP3   OH224785   5.285   3.502   3.037
 8274TIP3    H124786   5.333   3.449   3.102
 8274TIP3    H224787   5.250   3.575   3.087
 8275TIP3   OH224788   5.080   5.882   1.894
 8275TIP3    H124789   5.168   5.868   1.928
 8275TIP3    H224790   5.047   5.794   1.875
 8276TIP3   OH224791   6.626   4.229   3.253
 8276TIP3    H124792   6.557   4.232   3.187
 8276TIP3    H224793   6.614   4.145   3.297
 8277TIP3   OH224794   1.941   6.366   4.594
 8277TIP3    H124795   1.918   6.317   4.673
 8277TIP3    H224796   1.920   6.307   4.522
 8278TIP3   OH224797   6.473   2.173   1.203
 8278TIP3    H124798   6.544   2.230   1.233
 8278TIP3    H224799   6.443   2.213   1.122
 8279TIP3   OH224800   6.738   5.552   3.939
 8279TIP3    H124801   6.778   5.477   3.896
 8279TIP3    H224802   6.691   5.515   4.013
 8280TIP3   OH224803   1.319   6.434   3.580
 8280TIP3    H124804   1.410   6.445   3.608
 8280TIP3    H224805   1.268   6.436   3.661
 8281TIP3   OH224806   0.743   4.686   0.046
 8281TIP3    H124807   0.723   4.634   0.124
 8281TIP3    H224808   0.838   4.681   0.038
 8282TIP3   OH224809   5.383   2.987   2.399
 8282TIP3    H124810   5.438   3.060   2.428
 8282TIP3    H224811   5.440   2.937   2.340
 8283TIP3   OH224812   1.499   4.113   3.214
 8283TIP3    H124813   1.463   4.202   3.218
 8283TIP3    H224814   1.462   4.076   3.134
 8284TIP3   OH224815   4.461   6.774   4.172
 8284TIP3    H124816   4.469   6.823   4.091
 8284TIP3    H224817   4.448   6.683   4.144
 8285TIP3   OH224818   4.108   4.180   4.586
 8285TIP3    H124819   4.050   4.206   4.657
 8285TIP3    H224820   4.050   4.172   4.510
 8286TIP3   OH224821   6.180   0.691   0.492
 8286TIP3    H124822   6.249   0.628   0.473
 8286TIP3    H224823   6.107   0.637   0.524
 8287TIP3   OH224824   5.191   1.106  -0.002
 8287TIP3    H124825   5.122   1.158   0.040
 8287TIP3    H224826   5.239   1.067   0.071
 8288TIP3   OH224827   1.711   1.994   5.225
 8288TIP3    H124828   1.765   2.036   5.158
 8288TIP3    H224829   1.773   1.940   5.275
 8289TIP3   OH224830   5.256   0.176   1.726
 8289TIP3    H124831   5.304   0.205   1.648
 8289TIP3    H224832   5.307   0.101   1.758
 8290TIP3   OH224833   3.891   0.418   1.448
 8290TIP3    H124834   3.851   0.504   1.435
 8290TIP3    H224835   3.829   0.371   1.503
 8291TIP3   OH224836   4.489   0.198   5.722
 8291TIP3    H124837   4.398   0.187   5.748
 8291TIP3    H224838   4.484   0.231   5.632
 8292TIP3   OH224839   0.212   6.218   3.331
 8292TIP3    H124840   0.217   6.237   3.424
 8292TIP3    H224841   0.251   6.132   3.322
 8293TIP3   OH224842   0.929   3.853   3.082
 8293TIP3    H124843   0.998   3.786   3.078
 8293TIP3    H224844   0.894   3.845   3.171
 8294TIP3   OH224845   2.832   5.049   4.249
 8294TIP3    H124846   2.840   4.954   4.237
 8294TIP3    H224847   2.862   5.085   4.165
 8295TIP3   OH224848   5.497   1.013   5.612
 8295TIP3    H124849   5.584   0.984   5.586
 8295TIP3    H224850   5.497   1.010   5.707
 8296TIP3   OH224851   0.952   4.558   0.329
 8296TIP3    H124852   0.960   4.651   0.307
 8296TIP3    H224853   1.006   4.546   0.407
 8297TIP3   OH224854   3.379   5.079   3.459
 8297TIP3    H124855   3.433   5.004   3.435
 8297TIP3    H224856   3.416   5.152   3.410
 8298TIP3   OH224857   5.221   2.423   1.829
 8298TIP3    H124858   5.251   2.445   1.917
 8298TIP3    H224859   5.278   2.351   1.801
 8299TIP3   OH224860   4.991   5.104   0.613
 8299TIP3    H124861   4.997   5.023   0.664
 8299TIP3    H224862   4.928   5.157   0.660
 8300TIP3   OH224863   5.760   2.888   2.550
 8300TIP3    H124864   5.764   2.888   2.645
 8300TIP3    H224865   5.711   2.966   2.527
 8301TIP3   OH224866   1.471   5.934   1.506
 8301TIP3    H124867   1.426   6.005   1.552
 8301TIP3    H224868   1.409   5.861   1.510
 8302TIP3   OH224869   2.537   4.812   1.078
 8302TIP3    H124870   2.617   4.855   1.048
 8302TIP3    H224871   2.489   4.879   1.126
 8303TIP3   OH224872   3.684   3.229   3.577
 8303TIP3    H124873   3.669   3.317   3.612
 8303TIP3    H224874   3.602   3.207   3.532
 8304TIP3   OH224875   6.024   1.379   2.305
 8304TIP3    H124876   6.069   1.396   2.222
 8304TIP3    H224877   5.951   1.440   2.306
 8305TIP3   OH224878   4.918   4.309   5.348
 8305TIP3    H124879   4.940   4.401   5.366
 8305TIP3    H224880   4.823   4.305   5.356
 8306TIP3   OH224881   3.467   4.220   1.536
 8306TIP3    H124882   3.502   4.195   1.450
 8306TIP3    H224883   3.537   4.198   1.597
 8307TIP3   OH224884   4.942   5.989   4.772
 8307TIP3    H124885   4.882   5.994   4.846
 8307TIP3    H224886   5.020   6.035   4.802
 8308TIP3   OH224887   1.093   2.937   0.494
 8308TIP3    H124888   1.040   2.988   0.555
 8308TIP3    H224889   1.178   2.982   0.492
 8309TIP3   OH224890   6.993   1.937   5.924
 8309TIP3    H124891   6.928   1.867   5.917
 8309TIP3    H224892   7.069   1.895   5.964
 8310TIP3   OH224893   5.446   5.675   5.679
 8310TIP3    H124894   5.505   5.649   5.607
 8310TIP3    H224895   5.363   5.634   5.657
 8311TIP3   OH224896   1.205   6.745   0.229
 8311TIP3    H124897   1.139   6.688   0.268
 8311TIP3    H224898   1.251   6.783   0.305
 8312TIP3   OH224899   5.881   0.379   3.181
 8312TIP3    H124900   5.884   0.381   3.276
 8312TIP3    H224901   5.796   0.339   3.161
 8313TIP3   OH224902   5.628   1.517   0.571
 8313TIP3    H124903   5.697   1.564   0.525
 8313TIP3    H224904   5.664   1.498   0.657
 8314TIP3   OH224905   0.200   3.686   2.594
 8314TIP3    H124906   0.229   3.731   2.674
 8314TIP3    H224907   0.143   3.749   2.550
 8315TIP3   OH224908   4.238   4.381   5.073
 8315TIP3    H124909   4.158   4.427   5.048
 8315TIP3    H224910   4.307   4.448   5.069
 8316TIP3   OH224911   7.091   5.042   5.725
 8316TIP3    H124912   7.002   5.009   5.715
 8316TIP3    H224913   7.143   4.991   5.664
 8317TIP3   OH224914   6.981   4.215   0.526
 8317TIP3    H124915   6.886   4.203   0.524
 8317TIP3    H224916   6.997   4.293   0.473
 8318TIP3   OH224917   0.840   0.925   0.961
 8318TIP3    H124918   0.748   0.920   0.986
 8318TIP3    H224919   0.868   1.011   0.991
 8319TIP3   OH224920   5.492   3.180   5.297
 8319TIP3    H124921   5.509   3.125   5.220
 8319TIP3    H224922   5.552   3.147   5.364
 8320TIP3   OH224923   1.283   1.699   0.424
 8320TIP3    H124924   1.297   1.787   0.458
 8320TIP3    H224925   1.188   1.689   0.421
 8321TIP3   OH224926   6.711   3.663   2.662
 8321TIP3    H124927   6.773   3.617   2.605
 8321TIP3    H224928   6.697   3.604   2.735
 8322TIP3   OH224929   6.394   5.749   4.523
 8322TIP3    H124930   6.400   5.844   4.521
 8322TIP3    H224931   6.332   5.727   4.453
 8323TIP3   OH224932   5.991   5.727   2.079
 8323TIP3    H124933   5.906   5.748   2.117
 8323TIP3    H224934   6.039   5.683   2.150
 8324TIP3   OH224935   0.734   0.843   3.642
 8324TIP3    H124936   0.646   0.867   3.670
 8324TIP3    H224937   0.727   0.753   3.611
 8325TIP3   OH224938   3.945   3.453   0.157
 8325TIP3    H124939   3.877   3.494   0.104
 8325TIP3    H224940   3.901   3.431   0.239
 8326TIP3   OH224941   4.213   1.002   5.277
 8326TIP3    H124942   4.302   0.991   5.310
 8326TIP3    H224943   4.187   0.915   5.246
 8327TIP3   OH224944   3.961   0.500   1.116
 8327TIP3    H124945   4.008   0.416   1.115
 8327TIP3    H224946   3.875   0.479   1.152
 8328TIP3   OH224947   4.385   1.925   1.075
 8328TIP3    H124948   4.296   1.928   1.039
 8328TIP3    H224949   4.424   2.008   1.047
 8329TIP3   OH224950   1.830   6.674   2.722
 8329TIP3    H124951   1.850   6.604   2.784
 8329TIP3    H224952   1.769   6.634   2.660
 8330TIP3   OH224953   4.042   2.291   0.701
 8330TIP3    H124954   4.035   2.256   0.612
 8330TIP3    H224955   3.986   2.234   0.754
 8331TIP3   OH224956   5.662   6.792   2.063
 8331TIP3    H124957   5.735   6.823   2.010
 8331TIP3    H224958   5.699   6.779   2.150
 8332TIP3   OH224959   3.925   0.745   1.976
 8332TIP3    H124960   3.971   0.824   2.003
 8332TIP3    H224961   3.850   0.739   2.034
 8333TIP3   OH224962   6.827   3.950   2.713
 8333TIP3    H124963   6.836   4.039   2.681
 8333TIP3    H224964   6.754   3.913   2.663
 8334TIP3   OH224965   3.746   2.029   3.264
 8334TIP3    H124966   3.799   1.961   3.306
 8334TIP3    H224967   3.688   1.980   3.205
 8335TIP3   OH224968   4.775   4.346   4.663
 8335TIP3    H124969   4.738   4.357   4.576
 8335TIP3    H224970   4.753   4.256   4.688
 8336TIP3   OH224971   5.727   0.216   2.952
 8336TIP3    H124972   5.712   0.290   2.893
 8336TIP3    H224973   5.674   0.236   3.030
 8337TIP3   OH224974   0.692   6.027   1.411
 8337TIP3    H124975   0.608   6.064   1.436
 8337TIP3    H224976   0.757   6.085   1.450
 8338TIP3   OH224977   5.803   1.870   0.977
 8338TIP3    H124978   5.874   1.907   0.924
 8338TIP3    H224979   5.846   1.808   1.036
 8339TIP3   OH224980   3.292   1.714   0.657
 8339TIP3    H124981   3.305   1.736   0.565
 8339TIP3    H224982   3.209   1.757   0.680
 8340TIP3   OH224983   0.696   2.994   4.787
 8340TIP3    H124984   0.650   3.007   4.704
 8340TIP3    H224985   0.677   2.903   4.811
 8341TIP3   OH224986   3.397   3.351   3.328
 8341TIP3    H124987   3.380   3.272   3.380
 8341TIP3    H224988   3.370   3.423   3.385
 8342TIP3   OH224989   5.479   5.080   4.894
 8342TIP3    H124990   5.387   5.087   4.921
 8342TIP3    H224991   5.508   5.171   4.886
 8343TIP3   OH224992   5.762   5.653   2.747
 8343TIP3    H124993   5.716   5.646   2.831
 8343TIP3    H224994   5.798   5.742   2.747
 8344TIP3   OH224995   2.475   3.427   4.818
 8344TIP3    H124996   2.423   3.392   4.746
 8344TIP3    H224997   2.411   3.471   4.875
 8345TIP3   OH224998   2.813   4.541   5.207
 8345TIP3    H124999   2.891   4.585   5.173
 8345TIP3    H225000   2.844   4.454   5.234
 8346TIP3   OH225001   2.174   2.961   1.228
 8346TIP3    H125002   2.108   2.988   1.292
 8346TIP3    H225003   2.148   2.873   1.201
 8347TIP3   OH225004   5.961   3.927   1.962
 8347TIP3    H125005   6.051   3.902   1.940
 8347TIP3    H225006   5.970   3.989   2.034
 8348TIP3   OH225007   5.973   0.894   3.192
 8348TIP3    H125008   6.053   0.946   3.188
 8348TIP3    H225009   5.955   0.871   3.101
 8349TIP3   OH225010   6.507   4.434   5.428
 8349TIP3    H125011   6.579   4.470   5.480
 8349TIP3    H225012   6.429   4.449   5.481
 8350TIP3   OH225013   4.923   0.222   3.144
 8350TIP3    H125014   4.961   0.308   3.123
 8350TIP3    H225015   4.874   0.237   3.225
 8351TIP3   OH225016   5.330   1.588   1.236
 8351TIP3    H125017   5.404   1.647   1.249
 8351TIP3    H225018   5.265   1.615   1.301
 8352TIP3   OH225019   2.162   1.259   3.134
 8352TIP3    H125020   2.251   1.266   3.098
 8352TIP3    H225021   2.159   1.326   3.202
 8353TIP3   OH225022   4.123   0.410   5.439
 8353TIP3    H125023   4.085   0.434   5.524
 8353TIP3    H225024   4.203   0.363   5.461
 8354TIP3   OH225025   0.401   4.195   0.298
 8354TIP3    H125026   0.445   4.181   0.214
 8354TIP3    H225027   0.365   4.284   0.291
 8355TIP3   OH225028   6.482   4.031   2.339
 8355TIP3    H125029   6.443   4.081   2.411
 8355TIP3    H225030   6.570   4.067   2.331
 8356TIP3   OH225031   1.861   4.144   2.204
 8356TIP3    H125032   1.877   4.058   2.166
 8356TIP3    H225033   1.772   4.167   2.176
 8357TIP3   OH225034   6.573   2.368   1.695
 8357TIP3    H125035   6.516   2.427   1.645
 8357TIP3    H225036   6.562   2.396   1.786
 8358TIP3   OH225037   1.124   4.534   0.811
 8358TIP3    H125038   1.206   4.570   0.779
 8358TIP3    H225039   1.129   4.441   0.790
 8359TIP3   OH225040   0.012   1.558   4.967
 8359TIP3    H125041  -0.050   1.512   4.911
 8359TIP3    H225042   0.097   1.543   4.925
 8360TIP3   OH225043   4.648   2.912   0.047
 8360TIP3    H125044   4.615   2.970   0.116
 8360TIP3    H225045   4.571   2.889  -0.003
 8361TIP3   OH225046   5.765   4.670   0.984
 8361TIP3    H125047   5.776   4.763   0.963
 8361TIP3    H225048   5.766   4.625   0.899
 8362TIP3   OH225049   1.441   1.405   3.829
 8362TIP3    H125050   1.476   1.405   3.740
 8362TIP3    H225051   1.346   1.411   3.818
 8363TIP3   OH225052   6.887   5.737   0.693
 8363TIP3    H125053   6.906   5.783   0.775
 8363TIP3    H225054   6.959   5.762   0.634
 8364TIP3   OH225055   0.959   1.150   0.744
 8364TIP3    H125056   1.002   1.115   0.666
 8364TIP3    H225057   0.872   1.110   0.744
 8365TIP3   OH225058   3.541   5.209   5.360
 8365TIP3    H125059   3.458   5.170   5.385
 8365TIP3    H225060   3.564   5.265   5.435
 8366TIP3   OH225061   4.416   6.119   1.594
 8366TIP3    H125062   4.405   6.142   1.686
 8366TIP3    H225063   4.503   6.151   1.571
 8367TIP3   OH225064   0.749   4.570   4.622
 8367TIP3    H125065   0.658   4.589   4.645
 8367TIP3    H225066   0.753   4.475   4.616
 8368TIP3   OH225067   4.315   5.115   2.013
 8368TIP3    H125068   4.245   5.141   2.073
 8368TIP3    H225069   4.281   5.136   1.926
 8369TIP3   OH225070   4.600   5.351   5.241
 8369TIP3    H125071   4.572   5.420   5.300
 8369TIP3    H225072   4.614   5.395   5.157
 8370TIP3   OH225073   0.160   2.379   5.728
 8370TIP3    H125074   0.085   2.323   5.707
 8370TIP3    H225075   0.203   2.394   5.644
 8371TIP3   OH225076   4.670   3.650   3.812
 8371TIP3    H125077   4.744   3.692   3.856
 8371TIP3    H225078   4.710   3.606   3.736
 8372TIP3   OH225079   1.484   0.844   3.863
 8372TIP3    H125080   1.459   0.827   3.772
 8372TIP3    H225081   1.579   0.856   3.859
 8373TIP3   OH225082   0.071   3.144   2.062
 8373TIP3    H125083   0.113   3.206   2.122
 8373TIP3    H225084  -0.019   3.175   2.054
 8374TIP3   OH225085   5.464   3.038   3.032
 8374TIP3    H125086   5.496   3.010   3.118
 8374TIP3    H225087   5.406   3.112   3.052
 8375TIP3   OH225088   0.683   5.872   0.735
 8375TIP3    H125089   0.736   5.951   0.722
 8375TIP3    H225090   0.632   5.863   0.654
 8376TIP3   OH225091   6.709   0.725   0.712
 8376TIP3    H125092   6.677   0.796   0.766
 8376TIP3    H225093   6.650   0.652   0.730
 8377TIP3   OH225094   1.782   6.298   1.852
 8377TIP3    H125095   1.784   6.393   1.865
 8377TIP3    H225096   1.746   6.287   1.764
 8378TIP3   OH225097   2.548   1.807   3.265
 8378TIP3    H125098   2.519   1.847   3.184
 8378TIP3    H225099   2.643   1.819   3.265
 8379TIP3   OH225100   3.349   0.899   1.431
 8379TIP3    H125101   3.404   0.899   1.353
 8379TIP3    H225102   3.352   0.990   1.462
 8380TIP3   OH225103   0.743   0.277   5.272
 8380TIP3    H125104   0.807   0.346   5.284
 8380TIP3    H225105   0.706   0.293   5.185
 8381TIP3   OH225106   3.570   6.564   1.474
 8381TIP3    H125107   3.650   6.601   1.437
 8381TIP3    H225108   3.597   6.530   1.560
 8382TIP3   OH225109   5.443   2.388   2.616
 8382TIP3    H125110   5.443   2.300   2.654
 8382TIP3    H225111   5.529   2.396   2.574
 8383TIP3   OH225112   3.257   3.696   4.676
 8383TIP3    H125113   3.268   3.771   4.735
 8383TIP3    H225114   3.228   3.735   4.593
 8384TIP3   OH225115   1.911   6.176   4.788
 8384TIP3    H125116   1.934   6.209   4.875
 8384TIP3    H225117   1.972   6.104   4.772
 8385TIP3   OH225118   6.437   6.656   1.876
 8385TIP3    H125119   6.444   6.569   1.917
 8385TIP3    H225120   6.350   6.658   1.837
 8386TIP3   OH225121   6.118   2.431   3.606
 8386TIP3    H125122   6.146   2.459   3.519
 8386TIP3    H225123   6.022   2.440   3.604
 8387TIP3   OH225124   3.195   1.100   0.886
 8387TIP3    H125125   3.167   1.180   0.931
 8387TIP3    H225126   3.288   1.113   0.872
 8388TIP3   OH225127   2.569   4.441   0.904
 8388TIP3    H125128   2.578   4.524   0.857
 8388TIP3    H225129   2.622   4.379   0.852
 8389TIP3   OH225130   2.790   4.360   0.706
 8389TIP3    H125131   2.829   4.447   0.707
 8389TIP3    H225132   2.793   4.334   0.614
 8390TIP3   OH225133   3.069   3.799   3.028
 8390TIP3    H125134   2.976   3.821   3.040
 8390TIP3    H225135   3.068   3.713   2.987
 8391TIP3   OH225136   1.106   1.274   4.880
 8391TIP3    H125137   1.174   1.275   4.812
 8391TIP3    H225138   1.146   1.318   4.954
 8392TIP3   OH225139   6.802   5.032   5.662
 8392TIP3    H125140   6.726   5.000   5.614
 8392TIP3    H225141   6.765   5.074   5.740
 8393TIP3   OH225142   2.899   0.139   1.452
 8393TIP3    H125143   2.810   0.175   1.459
 8393TIP3    H225144   2.906   0.112   1.360
 8394TIP3   OH225145   3.767   4.917   5.872
 8394TIP3    H125146   3.764   4.900   5.778
 8394TIP3    H225147   3.686   4.879   5.905
 8395TIP3   OH225148   5.552   5.342   4.859
 8395TIP3    H125149   5.590   5.429   4.871
 8395TIP3    H225150   5.519   5.343   4.769
 8396TIP3   OH225151   3.247   3.554   3.210
 8396TIP3    H125152   3.163   3.511   3.195
 8396TIP3    H225153   3.305   3.485   3.241
 8397TIP3   OH225154   0.333   2.828   4.304
 8397TIP3    H125155   0.403   2.782   4.352
 8397TIP3    H225156   0.372   2.847   4.219
 8398TIP3   OH225157   5.802   1.311   3.865
 8398TIP3    H125158   5.734   1.250   3.837
 8398TIP3    H225159   5.795   1.314   3.960
 8399TIP3   OH225160   4.388   4.885   4.502
 8399TIP3    H125161   4.428   4.802   4.478
 8399TIP3    H225162   4.437   4.951   4.453
 8400TIP3   OH225163   3.050   1.162   0.244
 8400TIP3    H125164   3.061   1.105   0.320
 8400TIP3    H225165   2.983   1.119   0.191
 8401TIP3   OH225166   4.325   5.934   4.430
 8401TIP3    H125167   4.346   5.958   4.340
 8401TIP3    H225168   4.339   6.014   4.481
 8402TIP3   OH225169   5.936   2.812   5.077
 8402TIP3    H125170   6.008   2.766   5.034
 8402TIP3    H225171   5.949   2.796   5.170
 8403TIP3   OH225172   3.296   5.067   1.544
 8403TIP3    H125173   3.303   5.005   1.472
 8403TIP3    H225174   3.378   5.058   1.593
 8404TIP3   OH225175   5.434   1.534   0.981
 8404TIP3    H125176   5.501   1.466   0.978
 8404TIP3    H225177   5.391   1.521   1.065
 8405TIP3   OH225178   2.013   0.500   3.226
 8405TIP3    H125179   2.041   0.528   3.313
 8405TIP3    H225180   2.042   0.569   3.167
 8406TIP3   OH225181   1.938   5.964   3.705
 8406TIP3    H125182   2.011   5.942   3.646
 8406TIP3    H225183   1.865   5.983   3.646
 8407TIP3   OH225184   6.296   3.020   4.911
 8407TIP3    H125185   6.236   3.016   4.837
 8407TIP3    H225186   6.324   2.930   4.924
 8408TIP3   OH225187   1.668   1.345   4.875
 8408TIP3    H125188   1.699   1.419   4.823
 8408TIP3    H225189   1.672   1.271   4.815
 8409TIP3   OH225190   2.201   1.402   4.813
 8409TIP3    H125191   2.207   1.495   4.791
 8409TIP3    H225192   2.126   1.370   4.764
 8410TIP3   OH225193   3.739   4.395   1.096
 8410TIP3    H125194   3.768   4.428   1.011
 8410TIP3    H225195   3.780   4.308   1.103
 8411TIP3   OH225196   1.482   0.826   2.655
 8411TIP3    H125197   1.494   0.732   2.662
 8411TIP3    H225198   1.513   0.861   2.738
 8412TIP3   OH225199   7.086   5.210   3.135
 8412TIP3    H125200   7.028   5.206   3.060
 8412TIP3    H225201   7.173   5.223   3.098
 8413TIP3   OH225202   4.685   5.566   5.792
 8413TIP3    H125203   4.714   5.570   5.701
 8413TIP3    H225204   4.762   5.591   5.843
 8414TIP3   OH225205   4.601   1.472   1.760
 8414TIP3    H125206   4.582   1.430   1.844
 8414TIP3    H225207   4.524   1.526   1.743
 8415TIP3   OH225208   6.466   4.772   5.800
 8415TIP3    H125209   6.415   4.692   5.796
 8415TIP3    H225210   6.556   4.745   5.782
 8416TIP3   OH225211   2.527   2.251   5.243
 8416TIP3    H125212   2.538   2.345   5.257
 8416TIP3    H225213   2.614   2.219   5.221
 8417TIP3   OH225214   0.600   1.496   0.504
 8417TIP3    H125215   0.684   1.468   0.540
 8417TIP3    H225216   0.550   1.525   0.580
 8418TIP3   OH225217   4.389   4.852   5.759
 8418TIP3    H125218   4.379   4.774   5.703
 8418TIP3    H225219   4.482   4.855   5.779
 8419TIP3   OH225220   5.143   1.835   4.676
 8419TIP3    H125221   5.049   1.824   4.662
 8419TIP3    H225222   5.164   1.920   4.637
 8420TIP3   OH225223   2.104   0.541   3.490
 8420TIP3    H125224   2.105   0.624   3.537
 8420TIP3    H225225   2.025   0.496   3.520
 8421TIP3   OH225226   0.257   0.585   4.224
 8421TIP3    H125227   0.264   0.680   4.231
 8421TIP3    H225228   0.294   0.553   4.306
 8422TIP3   OH225229   1.355   4.420   2.085
 8422TIP3    H125230   1.353   4.487   2.017
 8422TIP3    H225231   1.282   4.362   2.063
 8423TIP3   OH225232   5.515   6.510   0.498
 8423TIP3    H125233   5.471   6.438   0.453
 8423TIP3    H225234   5.517   6.581   0.433
 8424TIP3   OH225235   0.418   2.340   1.098
 8424TIP3    H125236   0.487   2.342   1.165
 8424TIP3    H225237   0.442   2.408   1.036
 8425TIP3   OH225238   6.349   1.819   1.983
 8425TIP3    H125239   6.261   1.805   2.017
 8425TIP3    H225240   6.405   1.820   2.061
 8426TIP3   OH225241   4.829   3.570   1.389
 8426TIP3    H125242   4.804   3.554   1.480
 8426TIP3    H225243   4.887   3.498   1.367
 8427TIP3   OH225244   1.575   4.578   3.714
 8427TIP3    H125245   1.520   4.539   3.782
 8427TIP3    H225246   1.522   4.571   3.634
 8428TIP3   OH225247   4.067   1.191   0.551
 8428TIP3    H125248   4.055   1.172   0.458
 8428TIP3    H225249   3.979   1.216   0.582
 8429TIP3   OH225250   1.101   0.731   2.170
 8429TIP3    H125251   1.158   0.688   2.234
 8429TIP3    H225252   1.117   0.684   2.088
 8430TIP3   OH225253   2.852   4.092   1.685
 8430TIP3    H125254   2.846   4.167   1.626
 8430TIP3    H225255   2.916   4.118   1.751
 8431TIP3   OH225256   0.123   5.911   0.354
 8431TIP3    H125257   0.071   5.879   0.428
 8431TIP3    H225258   0.058   5.937   0.289
 8432TIP3   OH225259   5.454   5.464   3.379
 8432TIP3    H125260   5.470   5.442   3.471
 8432TIP3    H225261   5.391   5.399   3.350
 8433TIP3   OH225262   0.431   0.214   1.557
 8433TIP3    H125263   0.383   0.277   1.611
 8433TIP3    H225264   0.473   0.268   1.491
 8434TIP3   OH225265   4.633   2.648   2.676
 8434TIP3    H125266   4.699   2.714   2.656
 8434TIP3    H225267   4.553   2.697   2.692
 8435TIP3   OH225268   6.448   1.739   2.236
 8435TIP3    H125269   6.486   1.823   2.261
 8435TIP3    H225270   6.375   1.726   2.297
 8436TIP3   OH225271   6.532   0.225   2.186
 8436TIP3    H125272   6.536   0.131   2.204
 8436TIP3    H225273   6.596   0.239   2.116
 8437TIP3   OH225274   1.084   3.191   1.135
 8437TIP3    H125275   1.032   3.267   1.162
 8437TIP3    H225276   1.174   3.213   1.158
 8438TIP3   OH225277   2.671   5.855   2.165
 8438TIP3    H125278   2.722   5.850   2.084
 8438TIP3    H225279   2.633   5.768   2.175
 8439TIP3   OH225280   5.782   4.947   3.529
 8439TIP3    H125281   5.695   4.922   3.499
 8439TIP3    H225282   5.807   4.878   3.590
 8440TIP3   OH225283   4.270   0.942   4.036
 8440TIP3    H125284   4.192   0.988   4.065
 8440TIP3    H225285   4.263   0.854   4.075
 8441TIP3   OH225286   4.316   4.945   1.464
 8441TIP3    H125287   4.309   4.850   1.464
 8441TIP3    H225288   4.226   4.976   1.456
 8442TIP3   OH225289   2.837   2.660   5.290
 8442TIP3    H125290   2.928   2.677   5.317
 8442TIP3    H225291   2.842   2.578   5.241
 8443TIP3   OH225292   2.287   0.787   0.163
 8443TIP3    H125293   2.288   0.827   0.076
 8443TIP3    H225294   2.204   0.816   0.201
 8444TIP3   OH225295   2.904   3.619   3.324
 8444TIP3    H125296   2.946   3.646   3.405
 8444TIP3    H225297   2.884   3.701   3.278
 8445TIP3   OH225298   4.215   5.325   2.835
 8445TIP3    H125299   4.257   5.352   2.753
 8445TIP3    H225300   4.249   5.386   2.901
 8446TIP3   OH225301   1.011   6.151   5.379
 8446TIP3    H125302   1.013   6.194   5.464
 8446TIP3    H225303   0.924   6.111   5.374
 8447TIP3   OH225304   3.378   1.573   3.837
 8447TIP3    H125305   3.383   1.636   3.765
 8447TIP3    H225306   3.344   1.623   3.911
 8448TIP3   OH225307   1.629   3.771   3.059
 8448TIP3    H125308   1.721   3.760   3.084
 8448TIP3    H225309   1.631   3.830   2.984
 8449TIP3   OH225310   5.701   3.311   3.769
 8449TIP3    H125311   5.648   3.342   3.842
 8449TIP3    H225312   5.647   3.244   3.727
 8450TIP3   OH225313   0.768   1.092   5.563
 8450TIP3    H125314   0.733   1.181   5.565
 8450TIP3    H225315   0.767   1.067   5.471
 8451TIP3   OH225316   4.214   3.922   4.608
 8451TIP3    H125317   4.221   4.014   4.582
 8451TIP3    H225318   4.142   3.888   4.555
 8452TIP3   OH225319   1.082   6.303   3.315
 8452TIP3    H125320   1.023   6.331   3.245
 8452TIP3    H225321   1.149   6.371   3.319
 8453TIP3   OH225322   1.466   2.685   0.462
 8453TIP3    H125323   1.454   2.779   0.477
 8453TIP3    H225324   1.556   2.677   0.433
 8454TIP3   OH225325   0.802   1.926   1.719
 8454TIP3    H125326   0.855   1.962   1.648
 8454TIP3    H225327   0.765   2.003   1.762
 8455TIP3   OH225328   2.919   5.467   2.271
 8455TIP3    H125329   2.838   5.464   2.321
 8455TIP3    H225330   2.918   5.386   2.219
 8456TIP3   OH225331   0.533   4.963   5.767
 8456TIP3    H125332   0.567   4.881   5.802
 8456TIP3    H225333   0.448   4.975   5.810
 8457TIP3   OH225334   5.776   2.839   4.324
 8457TIP3    H125335   5.820   2.859   4.407
 8457TIP3    H225336   5.697   2.792   4.349
 8458TIP3   OH225337   6.498   3.593   2.489
 8458TIP3    H125338   6.410   3.595   2.525
 8458TIP3    H225339   6.555   3.608   2.564
 8459TIP3   OH225340   6.395   4.676   0.097
 8459TIP3    H125341   6.325   4.613   0.115
 8459TIP3    H225342   6.359   4.732   0.028
 8460TIP3   OH225343   5.594   2.568   1.827
 8460TIP3    H125344   5.536   2.492   1.821
 8460TIP3    H225345   5.611   2.591   1.735
 8461TIP3   OH225346   0.733   6.094   3.937
 8461TIP3    H125347   0.657   6.035   3.934
 8461TIP3    H225348   0.768   6.082   4.025
 8462TIP3   OH225349   2.648   3.041   0.075
 8462TIP3    H125350   2.646   3.064   0.168
 8462TIP3    H225351   2.662   2.946   0.074
 8463TIP3   OH225352   0.997   4.333   5.413
 8463TIP3    H125353   0.992   4.408   5.473
 8463TIP3    H225354   0.939   4.356   5.340
 8464TIP3   OH225355   7.069   3.572   1.929
 8464TIP3    H125356   7.020   3.643   1.971
 8464TIP3    H225357   7.039   3.574   1.838
 8465TIP3   OH225358   5.072   6.418   0.307
 8465TIP3    H125359   4.988   6.413   0.353
 8465TIP3    H225360   5.052   6.467   0.227
 8466TIP3   OH225361   2.473   4.363   3.761
 8466TIP3    H125362   2.410   4.332   3.695
 8466TIP3    H225363   2.473   4.294   3.827
 8467TIP3   OH225364   0.871   1.916   2.286
 8467TIP3    H125365   0.930   1.988   2.263
 8467TIP3    H225366   0.810   1.955   2.348
 8468TIP3   OH225367   5.827   6.271   4.420
 8468TIP3    H125368   5.900   6.310   4.374
 8468TIP3    H225369   5.847   6.177   4.422
 8469TIP3   OH225370   0.283   3.448   3.298
 8469TIP3    H125371   0.261   3.365   3.340
 8469TIP3    H225372   0.240   3.515   3.350
 8470TIP3   OH225373   1.386   5.396   2.324
 8470TIP3    H125374   1.391   5.373   2.417
 8470TIP3    H225375   1.355   5.487   2.324
 8471TIP3   OH225376   1.846   1.259   3.565
 8471TIP3    H125377   1.787   1.262   3.490
 8471TIP3    H225378   1.898   1.180   3.552
 8472TIP3   OH225379   6.038   5.528   3.690
 8472TIP3    H125380   6.098   5.599   3.666
 8472TIP3    H225381   6.066   5.454   3.636
 8473TIP3   OH225382   0.323   4.108   4.824
 8473TIP3    H125383   0.369   4.032   4.860
 8473TIP3    H225384   0.259   4.131   4.891
 8474TIP3   OH225385   6.572   2.447   0.469
 8474TIP3    H125386   6.636   2.503   0.425
 8474TIP3    H225387   6.497   2.505   0.486
 8475TIP3   OH225388   3.785   1.737   2.242
 8475TIP3    H125389   3.816   1.713   2.154
 8475TIP3    H225390   3.712   1.677   2.258
 8476TIP3   OH225391   6.089   0.066   4.887
 8476TIP3    H125392   6.055   0.128   4.822
 8476TIP3    H225393   6.184   0.082   4.886
 8477TIP3   OH225394   5.855   6.536   4.613
 8477TIP3    H125395   5.801   6.466   4.577
 8477TIP3    H225396   5.930   6.491   4.651
 8478TIP3   OH225397   1.929   2.494   2.974
 8478TIP3    H125398   1.944   2.498   3.068
 8478TIP3    H225399   1.902   2.403   2.958
 8479TIP3   OH225400   5.734   4.194   0.330
 8479TIP3    H125401   5.762   4.237   0.411
 8479TIP3    H225402   5.816   4.171   0.286
 8480TIP3   OH225403   1.709   6.565   4.961
 8480TIP3    H125404   1.632   6.600   4.915
 8480TIP3    H225405   1.673   6.497   5.018
 8481TIP3   OH225406   4.254   3.374   2.893
 8481TIP3    H125407   4.309   3.450   2.913
 8481TIP3    H225408   4.315   3.300   2.892
 8482TIP3   OH225409   5.015   1.025   1.772
 8482TIP3    H125410   4.928   1.052   1.802
 8482TIP3    H225411   5.025   1.067   1.686
 8483TIP3   OH225412   6.951   6.504   2.962
 8483TIP3    H125413   6.899   6.448   3.020
 8483TIP3    H225414   6.919   6.485   2.874
 8484TIP3   OH225415   2.439   6.392   2.796
 8484TIP3    H125416   2.376   6.361   2.731
 8484TIP3    H225417   2.411   6.481   2.817
 8485TIP3   OH225418   5.813   4.529   1.325
 8485TIP3    H125419   5.746   4.462   1.313
 8485TIP3    H225420   5.767   4.612   1.311
 8486TIP3   OH225421   2.695   3.625   0.014
 8486TIP3    H125422   2.601   3.637   0.004
 8486TIP3    H225423   2.704   3.569   0.091
 8487TIP3   OH225424   4.539   4.004   4.042
 8487TIP3    H125425   4.540   3.932   4.105
 8487TIP3    H225426   4.473   3.979   3.978
 8488TIP3   OH225427   3.731   6.194   0.671
 8488TIP3    H125428   3.710   6.224   0.582
 8488TIP3    H225429   3.768   6.271   0.714
 8489TIP3   OH225430   3.436   1.242   1.255
 8489TIP3    H125431   3.520   1.284   1.238
 8489TIP3    H225432   3.451   1.149   1.234
 8490TIP3   OH225433   1.096   0.607   4.098
 8490TIP3    H125434   1.158   0.651   4.040
 8490TIP3    H225435   1.148   0.539   4.141
 8491TIP3   OH225436   1.419   1.288   1.860
 8491TIP3    H125437   1.432   1.200   1.826
 8491TIP3    H225438   1.480   1.343   1.810
 8492TIP3   OH225439   6.794   1.488   4.303
 8492TIP3    H125440   6.857   1.416   4.300
 8492TIP3    H225441   6.840   1.562   4.265
 8493TIP3   OH225442   5.707   0.425   3.703
 8493TIP3    H125443   5.638   0.489   3.685
 8493TIP3    H225444   5.760   0.465   3.772
 8494TIP3   OH225445   0.031   2.360   0.708
 8494TIP3    H125446  -0.044   2.417   0.690
 8494TIP3    H225447   0.030   2.295   0.638
 8495TIP3   OH225448   3.952   0.479   4.414
 8495TIP3    H125449   4.027   0.520   4.370
 8495TIP3    H225450   3.990   0.403   4.458
 8496TIP3   OH225451   3.926   4.277   3.262
 8496TIP3    H125452   3.894   4.359   3.300
 8496TIP3    H225453   4.001   4.253   3.316
 8497TIP3   OH225454   2.979   2.711   2.927
 8497TIP3    H125455   3.044   2.671   2.870
 8497TIP3    H225456   2.927   2.637   2.959
 8498TIP3   OH225457   5.941   6.139   1.925
 8498TIP3    H125458   5.987   6.057   1.947
 8498TIP3    H225459   5.964   6.155   1.834
 8499TIP3   OH225460   1.293   6.604   1.953
 8499TIP3    H125461   1.305   6.699   1.945
 8499TIP3    H225462   1.310   6.586   2.045
 8500TIP3   OH225463   5.297   1.905   2.198
 8500TIP3    H125464   5.286   1.853   2.118
 8500TIP3    H225465   5.248   1.857   2.264
 8501TIP3   OH225466   4.372   3.903   4.942
 8501TIP3    H125467   4.347   3.978   4.997
 8501TIP3    H225468   4.296   3.846   4.943
 8502TIP3   OH225469   1.908   3.048   0.166
 8502TIP3    H125470   1.867   3.071   0.249
 8502TIP3    H225471   1.873   2.961   0.145
 8503TIP3   OH225472   5.614   3.608   0.989
 8503TIP3    H125473   5.703   3.580   0.966
 8503TIP3    H225474   5.622   3.702   1.007
 8504TIP3   OH225475   5.861   5.867   0.561
 8504TIP3    H125476   5.860   5.957   0.530
 8504TIP3    H225477   5.855   5.874   0.656
 8505TIP3   OH225478   5.884   5.710   5.059
 8505TIP3    H125479   5.860   5.734   5.149
 8505TIP3    H225480   5.927   5.625   5.067
 8506TIP3   OH225481   4.046   2.475   4.111
 8506TIP3    H125482   4.049   2.518   4.196
 8506TIP3    H225483   3.982   2.404   4.123
 8507TIP3   OH225484   4.582   3.674   4.920
 8507TIP3    H125485   4.568   3.651   4.828
 8507TIP3    H225486   4.506   3.726   4.944
 8508TIP3   OH225487   3.380   3.640   2.973
 8508TIP3    H125488   3.429   3.722   2.966
 8508TIP3    H225489   3.336   3.645   3.058
 8509TIP3   OH225490   3.579   1.497   0.733
 8509TIP3    H125491   3.510   1.563   0.730
 8509TIP3    H225492   3.658   1.546   0.757
 8510TIP3   OH225493   3.530   1.999   2.620
 8510TIP3    H125494   3.455   2.055   2.639
 8510TIP3    H225495   3.594   2.056   2.578
 8511TIP3   OH225496   5.526   6.296   1.549
 8511TIP3    H125497   5.497   6.272   1.461
 8511TIP3    H225498   5.464   6.363   1.578
 8512TIP3   OH225499   0.855   1.659   2.800
 8512TIP3    H125500   0.896   1.742   2.827
 8512TIP3    H225501   0.772   1.656   2.847
 8513TIP3   OH225502   6.874   5.336   3.823
 8513TIP3    H125503   6.847   5.245   3.820
 8513TIP3    H225504   6.967   5.335   3.803
 8514TIP3   OH225505   0.570   1.221   2.386
 8514TIP3    H125506   0.625   1.287   2.429
 8514TIP3    H225507   0.596   1.138   2.426
 8515TIP3   OH225508   4.958   0.705   1.660
 8515TIP3    H125509   4.878   0.655   1.643
 8515TIP3    H225510   4.932   0.770   1.725
 8516TIP3   OH225511   2.591   1.752   0.572
 8516TIP3    H125512   2.548   1.804   0.504
 8516TIP3    H225513   2.579   1.803   0.652
 8517TIP3   OH225514   4.762   6.372   3.516
 8517TIP3    H125515   4.856   6.388   3.509
 8517TIP3    H225516   4.744   6.372   3.610
 8518TIP3   OH225517   6.027   1.608   1.298
 8518TIP3    H125518   6.071   1.665   1.235
 8518TIP3    H225519   5.935   1.632   1.291
 8519TIP3   OH225520   3.773   5.528   3.728
 8519TIP3    H125521   3.829   5.453   3.750
 8519TIP3    H225522   3.801   5.554   3.641
 8520TIP3   OH225523   1.118   3.449   5.259
 8520TIP3    H125524   1.067   3.495   5.192
 8520TIP3    H225525   1.209   3.472   5.240
 8521TIP3   OH225526   1.042   0.084   1.877
 8521TIP3    H125527   1.083   0.047   1.799
 8521TIP3    H225528   1.064   0.177   1.873
 8522TIP3   OH225529   2.546   1.637   4.642
 8522TIP3    H125530   2.466   1.614   4.594
 8522TIP3    H225531   2.616   1.626   4.577
 8523TIP3   OH225532   2.455   3.850   5.328
 8523TIP3    H125533   2.365   3.824   5.312
 8523TIP3    H225534   2.449   3.940   5.359
 8524TIP3   OH225535   1.194   6.463   1.097
 8524TIP3    H125536   1.222   6.392   1.153
 8524TIP3    H225537   1.252   6.536   1.119
 8525TIP3   OH225538   1.972   2.013   4.774
 8525TIP3    H125539   1.991   2.056   4.858
 8525TIP3    H225540   1.886   2.048   4.749
 8526TIP3   OH225541   0.467   2.368   2.987
 8526TIP3    H125542   0.429   2.454   3.002
 8526TIP3    H225543   0.484   2.333   3.074
 8527TIP3   OH225544   0.891   3.299   3.473
 8527TIP3    H125545   0.802   3.294   3.440
 8527TIP3    H225546   0.945   3.312   3.395
 8528TIP3   OH225547   6.986   3.606   3.555
 8528TIP3    H125548   6.923   3.669   3.590
 8528TIP3    H225549   7.054   3.600   3.621
 8529TIP3   OH225550   4.005   0.136   3.071
 8529TIP3    H125551   4.057   0.132   2.991
 8529TIP3    H225552   4.067   0.117   3.141
 8530TIP3   OH225553   1.623   6.612   1.474
 8530TIP3    H125554   1.621   6.706   1.454
 8530TIP3    H225555   1.589   6.606   1.563
 8531TIP3   OH225556   1.666   0.393   2.957
 8531TIP3    H125557   1.692   0.439   2.877
 8531TIP3    H225558   1.620   0.460   3.009
 8532TIP3   OH225559   7.095   1.817   1.142
 8532TIP3    H125560   7.064   1.885   1.082
 8532TIP3    H225561   7.150   1.863   1.205
 8533TIP3   OH225562   5.254   5.471   4.412
 8533TIP3    H125563   5.163   5.451   4.433
 8533TIP3    H225564   5.269   5.430   4.327
 8534TIP3   OH225565   2.162   4.693   0.320
 8534TIP3    H125566   2.223   4.646   0.263
 8534TIP3    H225567   2.119   4.624   0.372
 8535TIP3   OH225568   1.718   3.512   4.859
 8535TIP3    H125569   1.682   3.425   4.880
 8535TIP3    H225570   1.640   3.567   4.847
 8536TIP3   OH225571   5.182   3.361   0.808
 8536TIP3    H125572   5.173   3.266   0.814
 8536TIP3    H225573   5.094   3.394   0.824
 8537TIP3   OH225574   6.876   4.327   3.246
 8537TIP3    H125575   6.797   4.294   3.203
 8537TIP3    H225576   6.922   4.375   3.177
 8538TIP3   OH225577   0.781   6.396   5.301
 8538TIP3    H125578   0.763   6.356   5.387
 8538TIP3    H225579   0.865   6.440   5.312
 8539TIP3   OH225580   0.178   6.077   4.505
 8539TIP3    H125581   0.210   5.987   4.507
 8539TIP3    H225582   0.249   6.128   4.542
 8540TIP3   OH225583   0.351   2.653   5.685
 8540TIP3    H125584   0.443   2.677   5.697
 8540TIP3    H225585   0.353   2.579   5.624
 8541TIP3   OH225586   6.702   3.657   2.266
 8541TIP3    H125587   6.679   3.750   2.264
 8541TIP3    H225588   6.642   3.618   2.330
 8542TIP3   OH225589   2.657   6.383   0.594
 8542TIP3    H125590   2.594   6.310   0.593
 8542TIP3    H225591   2.743   6.341   0.588
 8543TIP3   OH225592   5.006   0.344   1.149
 8543TIP3    H125593   4.962   0.391   1.220
 8543TIP3    H225594   4.944   0.348   1.076
 8544TIP3   OH225595   1.384   3.550   0.304
 8544TIP3    H125596   1.306   3.592   0.268
 8544TIP3    H225597   1.458   3.595   0.262
 8545TIP3   OH225598   3.609   2.259   5.105
 8545TIP3    H125599   3.579   2.232   5.192
 8545TIP3    H225600   3.607   2.179   5.053
 8546TIP3   OH225601   1.006   3.795   4.303
 8546TIP3    H125602   1.095   3.830   4.302
 8546TIP3    H225603   1.016   3.704   4.276
 8547TIP3   OH225604   4.769   0.689   2.234
 8547TIP3    H125605   4.782   0.703   2.328
 8547TIP3    H225606   4.681   0.653   2.227
 8548TIP3   OH225607   5.154   3.800   3.413
 8548TIP3    H125608   5.183   3.762   3.330
 8548TIP3    H225609   5.190   3.742   3.480
 8549TIP3   OH225610   6.243   3.360   3.597
 8549TIP3    H125611   6.273   3.282   3.644
 8549TIP3    H225612   6.179   3.327   3.534
 8550TIP3   OH225613   2.084   0.153   1.863
 8550TIP3    H125614   2.019   0.086   1.843
 8550TIP3    H225615   2.094   0.203   1.783
 8551TIP3   OH225616   4.590   4.158   4.271
 8551TIP3    H125617   4.663   4.097   4.267
 8551TIP3    H225618   4.554   4.157   4.182
 8552TIP3   OH225619   1.620   0.180   1.710
 8552TIP3    H125620   1.573   0.175   1.626
 8552TIP3    H225621   1.570   0.242   1.762
 8553TIP3   OH225622   4.451   5.314   1.068
 8553TIP3    H125623   4.475   5.273   1.151
 8553TIP3    H225624   4.357   5.296   1.059
 8554TIP3   OH225625   5.344   6.647   1.021
 8554TIP3    H125626   5.344   6.740   1.045
 8554TIP3    H225627   5.319   6.646   0.929
 8555TIP3   OH225628   1.130   4.185   3.877
 8555TIP3    H125629   1.087   4.121   3.933
 8555TIP3    H225630   1.196   4.135   3.829
 8556TIP3   OH225631   2.983   3.369   3.085
 8556TIP3    H125632   2.947   3.445   3.039
 8556TIP3    H225633   2.905   3.321   3.116
 8557TIP3   OH225634   3.505   5.408   0.230
 8557TIP3    H125635   3.596   5.384   0.247
 8557TIP3    H225636   3.498   5.408   0.134
 8558TIP3   OH225637   3.096   4.372   5.193
 8558TIP3    H125638   3.151   4.431   5.141
 8558TIP3    H225639   3.055   4.315   5.129
 8559TIP3   OH225640   5.915   1.726   3.243
 8559TIP3    H125641   5.956   1.795   3.294
 8559TIP3    H225642   5.933   1.750   3.152
 8560TIP3   OH225643   6.364   2.914   5.415
 8560TIP3    H125644   6.286   2.889   5.365
 8560TIP3    H225645   6.437   2.888   5.360
 8561TIP3   OH225646   3.242   2.839   2.589
 8561TIP3    H125647   3.180   2.908   2.566
 8561TIP3    H225648   3.254   2.847   2.683
 8562TIP3   OH225649   6.397   5.990   0.477
 8562TIP3    H125650   6.364   6.047   0.408
 8562TIP3    H225651   6.330   5.922   0.486
 8563TIP3   OH225652   2.899   0.353   4.080
 8563TIP3    H125653   2.989   0.366   4.109
 8563TIP3    H225654   2.884   0.424   4.018
 8564TIP3   OH225655   2.684   3.978   3.448
 8564TIP3    H125656   2.753   3.959   3.384
 8564TIP3    H225657   2.602   3.957   3.403
 8565TIP3   OH225658   1.562   0.516   0.513
 8565TIP3    H125659   1.602   0.429   0.517
 8565TIP3    H225660   1.474   0.500   0.479
 8566TIP3   OH225661   2.751   3.114   0.321
 8566TIP3    H125662   2.823   3.174   0.299
 8566TIP3    H225663   2.711   3.152   0.399
 8567TIP3   OH225664   5.776   0.656   2.120
 8567TIP3    H125665   5.747   0.717   2.051
 8567TIP3    H225666   5.703   0.653   2.181
 8568TIP3   OH225667   6.994   4.097   0.177
 8568TIP3    H125668   6.956   4.140   0.254
 8568TIP3    H225669   6.919   4.058   0.133
 8569TIP3   OH225670   3.280   1.656   4.313
 8569TIP3    H125671   3.344   1.587   4.330
 8569TIP3    H225672   3.238   1.671   4.398
 8570TIP3   OH225673   4.013   0.508   2.344
 8570TIP3    H125674   3.984   0.595   2.373
 8570TIP3    H225675   4.064   0.474   2.418
 8571TIP3   OH225676   1.804   3.911   0.104
 8571TIP3    H125677   1.780   3.969   0.031
 8571TIP3    H225678   1.785   3.823   0.071
 8572TIP3   OH225679   5.071   0.589   4.630
 8572TIP3    H125680   5.087   0.544   4.547
 8572TIP3    H225681   4.997   0.542   4.668
 8573TIP3   OH225682   0.796   1.742   1.209
 8573TIP3    H125683   0.770   1.746   1.301
 8573TIP3    H225684   0.885   1.708   1.211
 8574TIP3   OH225685   1.667   5.526   1.248
 8574TIP3    H125686   1.684   5.619   1.261
 8574TIP3    H225687   1.571   5.518   1.250
 8575TIP3   OH225688   0.783   2.129   3.974
 8575TIP3    H125689   0.786   2.188   4.050
 8575TIP3    H225690   0.692   2.101   3.968
 8576TIP3   OH225691   0.824   3.352   5.115
 8576TIP3    H125692   0.794   3.317   5.031
 8576TIP3    H225693   0.846   3.274   5.166
 8577TIP3   OH225694   5.156   3.122   3.104
 8577TIP3    H125695   5.117   3.077   3.029
 8577TIP3    H225696   5.088   3.181   3.135
 8578TIP3   OH225697   1.304   4.108   1.405
 8578TIP3    H125698   1.272   4.054   1.478
 8578TIP3    H225699   1.231   4.113   1.344
 8579TIP3   OH225700   6.909   2.492   5.269
 8579TIP3    H125701   6.888   2.578   5.303
 8579TIP3    H225702   6.894   2.432   5.342
 8580TIP3   OH225703   4.787   3.578   2.742
 8580TIP3    H125704   4.782   3.659   2.692
 8580TIP3    H225705   4.808   3.605   2.832
 8581TIP3   OH225706   0.720   1.222   2.990
 8581TIP3    H125707   0.794   1.276   2.962
 8581TIP3    H225708   0.755   1.134   2.998
 8582TIP3   OH225709   2.707   0.716   3.733
 8582TIP3    H125710   2.770   0.671   3.790
 8582TIP3    H225711   2.633   0.735   3.791
 8583TIP3   OH225712   5.164   6.705   4.052
 8583TIP3    H125713   5.082   6.712   4.100
 8583TIP3    H225714   5.148   6.639   3.985
 8584TIP3   OH225715   0.217   3.899   1.941
 8584TIP3    H125716   0.288   3.847   1.979
 8584TIP3    H225717   0.236   3.900   1.847
 8585TIP3   OH225718   5.148   2.769   0.391
 8585TIP3    H125719   5.152   2.832   0.462
 8585TIP3    H225720   5.089   2.700   0.423
 8586TIP3   OH225721   2.268   5.377   0.709
 8586TIP3    H125722   2.182   5.373   0.753
 8586TIP3    H225723   2.283   5.289   0.676
 8587TIP3   OH225724   3.172   3.632   4.247
 8587TIP3    H125725   3.258   3.672   4.261
 8587TIP3    H225726   3.119   3.664   4.320
 8588TIP3   OH225727   2.988   3.890   2.581
 8588TIP3    H125728   3.073   3.882   2.623
 8588TIP3    H225729   2.994   3.970   2.529
 8589TIP3   OH225730   3.917   3.734   0.471
 8589TIP3    H125731   3.980   3.695   0.410
 8589TIP3    H225732   3.904   3.667   0.538
 8590TIP3   OH225733   5.184   2.552   3.020
 8590TIP3    H125734   5.225   2.638   3.009
 8590TIP3    H225735   5.090   2.569   3.021
 8591TIP3   OH225736   2.353   3.846   0.153
 8591TIP3    H125737   2.309   3.788   0.216
 8591TIP3    H225738   2.282   3.898   0.115
 8592TIP3   OH225739   0.347   2.636   0.059
 8592TIP3    H125740   0.418   2.576   0.038
 8592TIP3    H225741   0.268   2.595   0.023
 8593TIP3   OH225742   3.998   2.124   3.498
 8593TIP3    H125743   4.001   2.028   3.498
 8593TIP3    H225744   4.090   2.151   3.499
 8594TIP3   OH225745   2.463   0.531   5.311
 8594TIP3    H125746   2.412   0.473   5.254
 8594TIP3    H225747   2.516   0.472   5.365
 8595TIP3   OH225748   5.604   4.748   4.607
 8595TIP3    H125749   5.571   4.673   4.557
 8595TIP3    H225750   5.584   4.824   4.552
 8596TIP3   OH225751   3.737   3.097   0.097
 8596TIP3    H125752   3.820   3.054   0.073
 8596TIP3    H225753   3.719   3.065   0.186
 8597TIP3   OH225754   1.070   3.194   5.373
 8597TIP3    H125755   1.106   3.282   5.357
 8597TIP3    H225756   0.975   3.207   5.369
 8598TIP3   OH225757   0.523  -0.039   1.624
 8598TIP3    H125758   0.491   0.051   1.617
 8598TIP3    H225759   0.559  -0.058   1.537
 8599TIP3   OH225760   4.761   1.492   5.536
 8599TIP3    H125761   4.670   1.484   5.565
 8599TIP3    H225762   4.805   1.414   5.569
 8600TIP3   OH225763   0.783   5.088   2.979
 8600TIP3    H125764   0.735   5.166   3.006
 8600TIP3    H225765   0.875   5.108   2.996
 8601TIP3   OH225766   3.661   4.157   2.047
 8601TIP3    H125767   3.658   4.218   1.973
 8601TIP3    H225768   3.679   4.213   2.122
 8602TIP3   OH225769   5.587   3.683   3.825
 8602TIP3    H125770   5.521   3.699   3.892
 8602TIP3    H225771   5.541   3.697   3.742
 8603TIP3   OH225772   3.582   4.462   5.521
 8603TIP3    H125773   3.554   4.523   5.453
 8603TIP3    H225774   3.501   4.439   5.567
 8604TIP3   OH225775   3.420   2.275   5.758
 8604TIP3    H125776   3.395   2.270   5.666
 8604TIP3    H225777   3.381   2.198   5.798
 8605TIP3   OH225778   2.414   0.124   1.396
 8605TIP3    H125779   2.403   0.151   1.304
 8605TIP3    H225780   2.494   0.169   1.424
 8606TIP3   OH225781   2.454   6.065   3.164
 8606TIP3    H125782   2.454   5.976   3.127
 8606TIP3    H225783   2.543   6.077   3.197
 8607TIP3   OH225784   5.867   6.419   3.348
 8607TIP3    H125785   5.888   6.470   3.270
 8607TIP3    H225786   5.929   6.346   3.346
 8608TIP3   OH225787   2.296   0.096   4.156
 8608TIP3    H125788   2.229   0.062   4.097
 8608TIP3    H225789   2.378   0.058   4.124
 8609TIP3   OH225790   6.529   1.830   1.394
 8609TIP3    H125791   6.487   1.833   1.308
 8609TIP3    H225792   6.504   1.744   1.429
 8610TIP3   OH225793   1.261   4.719   1.067
 8610TIP3    H125794   1.276   4.642   1.013
 8610TIP3    H225795   1.214   4.780   1.010
 8611TIP3   OH225796   5.629   0.574   4.808
 8611TIP3    H125797   5.611   0.528   4.726
 8611TIP3    H225798   5.664   0.507   4.866
 8612TIP3   OH225799   5.273   2.684   1.747
 8612TIP3    H125800   5.290   2.591   1.765
 8612TIP3    H225801   5.199   2.707   1.803
 8613TIP3   OH225802   4.143   3.413   5.158
 8613TIP3    H125803   4.197   3.492   5.164
 8613TIP3    H225804   4.138   3.394   5.064
 8614TIP3   OH225805   6.620   3.245   1.956
 8614TIP3    H125806   6.617   3.338   1.978
 8614TIP3    H225807   6.573   3.202   2.027
 8615TIP3   OH225808   7.025   2.308   4.963
 8615TIP3    H125809   6.992   2.390   4.926
 8615TIP3    H225810   7.100   2.285   4.908
 8616TIP3   OH225811   5.193   3.649   5.278
 8616TIP3    H125812   5.262   3.675   5.216
 8616TIP3    H225813   5.197   3.554   5.280
 8617TIP3   OH225814   7.238   3.774   5.809
 8617TIP3    H125815   7.321   3.798   5.768
 8617TIP3    H225816   7.186   3.855   5.806
 8618TIP3   OH225817   6.016   0.424   1.602
 8618TIP3    H125818   6.024   0.336   1.566
 8618TIP3    H225819   6.106   0.453   1.619
 8619TIP3   OH225820   2.048   5.223   1.467
 8619TIP3    H125821   1.958   5.196   1.483
 8619TIP3    H225822   2.040   5.295   1.404
 8620TIP3   OH225823   0.249   3.907   4.000
 8620TIP3    H125824   0.173   3.936   3.949
 8620TIP3    H225825   0.317   3.971   3.978
 8621TIP3   OH225826   3.096   6.775   5.635
 8621TIP3    H125827   3.066   6.697   5.588
 8621TIP3    H225828   3.018   6.805   5.682
 8622TIP3   OH225829   4.941   2.352   2.405
 8622TIP3    H125830   4.903   2.339   2.318
 8622TIP3    H225831   5.022   2.300   2.404
 8623TIP3   OH225832   3.973   1.029   2.104
 8623TIP3    H125833   3.962   1.056   2.195
 8623TIP3    H225834   4.034   1.093   2.067
 8624TIP3   OH225835   5.420   5.988   4.119
 8624TIP3    H125836   5.429   5.906   4.071
 8624TIP3    H225837   5.326   6.005   4.120
 8625TIP3   OH225838   0.326   3.634   1.072
 8625TIP3    H125839   0.365   3.650   0.986
 8625TIP3    H225840   0.274   3.712   1.089
 8626TIP3   OH225841   4.071   2.409   0.040
 8626TIP3    H125842   3.979   2.411   0.067
 8626TIP3    H225843   4.118   2.450   0.112
 8627TIP3   OH225844   5.703   4.416   3.966
 8627TIP3    H125845   5.797   4.421   3.952
 8627TIP3    H225846   5.674   4.508   3.967
 8628TIP3   OH225847   5.509   2.988   5.095
 8628TIP3    H125848   5.557   2.913   5.130
 8628TIP3    H225849   5.549   3.003   5.009
 8629TIP3   OH225850   5.778   2.079   3.994
 8629TIP3    H125851   5.725   2.154   4.019
 8629TIP3    H225852   5.862   2.116   3.969
 8630TIP3   OH225853   2.899   1.402   1.028
 8630TIP3    H125854   2.840   1.353   1.086
 8630TIP3    H225855   2.866   1.492   1.033
 8631TIP3   OH225856   2.554   0.749   2.398
 8631TIP3    H125857   2.600   0.666   2.395
 8631TIP3    H225858   2.464   0.726   2.421
 8632TIP3   OH225859   7.243   6.191   5.560
 8632TIP3    H125860   7.206   6.268   5.602
 8632TIP3    H225861   7.203   6.117   5.606
 8633TIP3   OH225862   5.377   1.878   5.667
 8633TIP3    H125863   5.451   1.895   5.725
 8633TIP3    H225864   5.412   1.820   5.600
 8634TIP3   OH225865   1.544   3.274   1.844
 8634TIP3    H125866   1.618   3.224   1.878
 8634TIP3    H225867   1.584   3.338   1.786
 8635TIP3   OH225868   4.866   3.541   5.562
 8635TIP3    H125869   4.771   3.548   5.555
 8635TIP3    H225870   4.899   3.593   5.488
 8636TIP3   OH225871   2.440   4.996   5.148
 8636TIP3    H125872   2.353   5.025   5.175
 8636TIP3    H225873   2.425   4.913   5.103
 8637TIP3   OH225874   2.276   0.203   0.490
 8637TIP3    H125875   2.261   0.113   0.520
 8637TIP3    H225876   2.246   0.203   0.399
 8638TIP3   OH225877   2.873   5.514   0.596
 8638TIP3    H125878   2.859   5.580   0.528
 8638TIP3    H225879   2.792   5.464   0.599
 8639TIP3   OH225880   0.134   4.943   1.332
 8639TIP3    H125881   0.191   4.929   1.409
 8639TIP3    H225882   0.169   4.883   1.266
 8640TIP3   OH225883   6.547   1.147   1.774
 8640TIP3    H125884   6.601   1.220   1.746
 8640TIP3    H225885   6.548   1.151   1.869
 8641TIP3   OH225886   4.002   1.666   2.843
 8641TIP3    H125887   3.941   1.597   2.871
 8641TIP3    H225888   3.952   1.716   2.778
 8642TIP3   OH225889   0.006   4.223   3.107
 8642TIP3    H125890   0.091   4.251   3.141
 8642TIP3    H225891  -0.018   4.148   3.162
 8643TIP3   OH225892   5.498   1.824   5.180
 8643TIP3    H125893   5.450   1.812   5.262
 8643TIP3    H225894   5.486   1.742   5.132
 8644TIP3   OH225895   2.745   2.857   4.064
 8644TIP3    H125896   2.802   2.839   3.990
 8644TIP3    H225897   2.702   2.940   4.042
 8645TIP3   OH225898   4.878   0.978   3.227
 8645TIP3    H125899   4.967   1.012   3.221
 8645TIP3    H225900   4.849   0.972   3.136
 8646TIP3   OH225901   3.497   0.693   3.960
 8646TIP3    H125902   3.512   0.606   3.997
 8646TIP3    H225903   3.515   0.683   3.867
 8647TIP3   OH225904   2.507   0.662   0.263
 8647TIP3    H125905   2.486   0.569   0.258
 8647TIP3    H225906   2.433   0.705   0.221
 8648TIP3   OH225907   4.761   0.543   5.715
 8648TIP3    H125908   4.841   0.562   5.667
 8648TIP3    H225909   4.790   0.521   5.803
 8649TIP3   OH225910   2.365   5.631   4.335
 8649TIP3    H125911   2.429   5.648   4.404
 8649TIP3    H225912   2.280   5.645   4.376
 8650TIP3   OH225913   5.856   5.448   1.995
 8650TIP3    H125914   5.840   5.413   2.083
 8650TIP3    H225915   5.911   5.525   2.009
 8651TIP3   OH225916   2.273   2.567   0.348
 8651TIP3    H125917   2.202   2.547   0.409
 8651TIP3    H225918   2.311   2.482   0.326
 8652TIP3   OH225919   7.029   5.772   5.616
 8652TIP3    H125920   7.101   5.769   5.679
 8652TIP3    H225921   7.069   5.807   5.536
 8653TIP3   OH225922   5.005   1.181   3.931
 8653TIP3    H125923   4.931   1.145   3.881
 8653TIP3    H225924   5.033   1.109   3.987
 8654TIP3   OH225925   4.055   6.009   2.828
 8654TIP3    H125926   3.994   5.978   2.895
 8654TIP3    H225927   4.066   5.935   2.768
 8655TIP3   OH225928   6.731   0.877   4.120
 8655TIP3    H125929   6.720   0.898   4.028
 8655TIP3    H225930   6.771   0.956   4.158
 8656TIP3   OH225931   2.243   0.746   4.359
 8656TIP3    H125932   2.240   0.657   4.393
 8656TIP3    H225933   2.333   0.774   4.373
 8657TIP3   OH225934   6.376   5.322   0.547
 8657TIP3    H125935   6.426   5.275   0.480
 8657TIP3    H225936   6.287   5.288   0.539
 8658TIP3   OH225937   0.742   5.423   5.536
 8658TIP3    H125938   0.820   5.456   5.490
 8658TIP3    H225939   0.760   5.330   5.551
 8659TIP3   OH225940   0.485   6.125   2.031
 8659TIP3    H125941   0.420   6.192   2.006
 8659TIP3    H225942   0.569   6.169   2.020
 8660TIP3   OH225943   0.300   2.185   4.592
 8660TIP3    H125944   0.299   2.163   4.685
 8660TIP3    H225945   0.227   2.135   4.555
 8661TIP3   OH225946   3.832  -0.035   2.568
 8661TIP3    H125947   3.849   0.055   2.543
 8661TIP3    H225948   3.756  -0.062   2.516
 8662TIP3   OH225949   4.290   0.304   4.066
 8662TIP3    H125950   4.385   0.294   4.066
 8662TIP3    H225951   4.256   0.216   4.081
 8663TIP3   OH225952   3.952   3.098   3.182
 8663TIP3    H125953   4.043   3.077   3.163
 8663TIP3    H225954   3.916   3.018   3.219
 8664TIP3   OH225955   6.667   4.051   1.086
 8664TIP3    H125956   6.730   3.992   1.127
 8664TIP3    H225957   6.647   4.115   1.154
 8665TIP3   OH225958   5.619   6.506   4.793
 8665TIP3    H125959   5.700   6.530   4.748
 8665TIP3    H225960   5.560   6.580   4.777
 8666TIP3   OH225961   5.510   6.714   0.317
 8666TIP3    H125962   5.420   6.727   0.286
 8666TIP3    H225963   5.550   6.800   0.312
 8667TIP3   OH225964   1.441   1.038   1.459
 8667TIP3    H125965   1.500   0.971   1.424
 8667TIP3    H225966   1.435   1.103   1.389
 8668TIP3   OH225967   0.032   3.517   2.975
 8668TIP3    H125968   0.031   3.565   2.893
 8668TIP3    H225969   0.047   3.584   3.042
 8669TIP3   OH225970   1.376   1.158   5.280
 8669TIP3    H125971   1.439   1.087   5.269
 8669TIP3    H225972   1.398   1.221   5.212
 8670TIP3   OH225973   2.598   3.125   4.019
 8670TIP3    H125974   2.573   3.192   4.084
 8670TIP3    H225975   2.524   3.065   4.017
 8671TIP3   OH225976   3.918   4.579   0.157
 8671TIP3    H125977   3.845   4.640   0.164
 8671TIP3    H225978   3.911   4.523   0.235
 8672TIP3   OH225979   3.768   5.252   0.763
 8672TIP3    H125980   3.750   5.300   0.844
 8672TIP3    H225981   3.690   5.266   0.709
 8673TIP3   OH225982   0.311   2.889   3.190
 8673TIP3    H125983   0.327   2.905   3.097
 8673TIP3    H225984   0.232   2.835   3.193
 8674TIP3   OH225985   0.268   1.460   3.556
 8674TIP3    H125986   0.341   1.423   3.507
 8674TIP3    H225987   0.212   1.385   3.577
 8675TIP3   OH225988   3.537   3.591   4.484
 8675TIP3    H125989   3.508   3.501   4.496
 8675TIP3    H225990   3.519   3.634   4.567
 8676TIP3   OH225991   4.168   2.587   1.006
 8676TIP3    H125992   4.150   2.506   1.053
 8676TIP3    H225993   4.201   2.647   1.073
 8677TIP3   OH225994   0.900   2.434   5.202
 8677TIP3    H125995   0.838   2.445   5.275
 8677TIP3    H225996   0.929   2.523   5.181
 8678TIP3   OH225997   3.209   6.175   3.952
 8678TIP3    H125998   3.273   6.243   3.930
 8678TIP3    H225999   3.196   6.127   3.870
 8679TIP3   OH226000   5.321   2.541   0.063
 8679TIP3    H126001   5.346   2.519  -0.027
 8679TIP3    H226002   5.362   2.626   0.079
 8680TIP3   OH226003   5.861   3.533   1.249
 8680TIP3    H126004   5.823   3.535   1.161
 8680TIP3    H226005   5.943   3.485   1.238
 8681TIP3   OH226006   5.772   1.508   5.355
 8681TIP3    H126007   5.688   1.465   5.346
 8681TIP3    H226008   5.800   1.488   5.445
 8682TIP3   OH226009   4.064   3.399   3.927
 8682TIP3    H126010   3.981   3.445   3.911
 8682TIP3    H226011   4.119   3.422   3.852
 8683TIP3   OH226012   3.553   4.226   4.473
 8683TIP3    H126013   3.604   4.303   4.446
 8683TIP3    H226014   3.554   4.228   4.568
 8684TIP3   OH226015   4.982   6.109   1.116
 8684TIP3    H126016   4.920   6.047   1.155
 8684TIP3    H226017   5.019   6.063   1.041
 8685TIP3   OH226018   6.974   2.550   1.057
 8685TIP3    H126019   7.028   2.614   1.009
 8685TIP3    H226020   7.032   2.516   1.125
 8686TIP3   OH226021   2.072   5.122   4.907
 8686TIP3    H126022   2.114   5.065   4.972
 8686TIP3    H226023   2.137   5.190   4.890
 8687TIP3   OH226024   3.090   3.577   0.469
 8687TIP3    H126025   3.023   3.520   0.505
 8687TIP3    H226026   3.054   3.607   0.386
 8688TIP3   OH226027   2.703   3.875   2.028
 8688TIP3    H126028   2.708   3.790   1.983
 8688TIP3    H226029   2.791   3.913   2.017
 8689TIP3   OH226030   5.728   4.789   5.140
 8689TIP3    H126031   5.756   4.878   5.162
 8689TIP3    H226032   5.701   4.794   5.048
 8690TIP3   OH226033   4.452   2.857   0.323
 8690TIP3    H126034   4.392   2.847   0.249
 8690TIP3    H226035   4.482   2.948   0.317
 8691TIP3   OH226036   3.335   2.470   1.949
 8691TIP3    H126037   3.332   2.505   2.038
 8691TIP3    H226038   3.272   2.524   1.900
 8692TIP3   OH226039   0.166   6.306   1.543
 8692TIP3    H126040   0.079   6.309   1.503
 8692TIP3    H226041   0.212   6.381   1.505
 8693TIP3   OH226042   2.499   4.776   2.005
 8693TIP3    H126043   2.429   4.732   1.957
 8693TIP3    H226044   2.580   4.737   1.971
 8694TIP3   OH226045   3.465   6.419   0.267
 8694TIP3    H126046   3.476   6.480   0.193
 8694TIP3    H226047   3.411   6.467   0.329
 8695TIP3   OH226048   1.656   5.229   2.059
 8695TIP3    H126049   1.714   5.297   2.024
 8695TIP3    H226050   1.704   5.194   2.134
 8696TIP3   OH226051   0.081   1.905   0.888
 8696TIP3    H126052   0.002   1.856   0.863
 8696TIP3    H226053   0.139   1.896   0.812
 8697TIP3   OH226054   6.025   2.222   5.767
 8697TIP3    H126055   6.027   2.205   5.672
 8697TIP3    H226056   6.115   2.209   5.795
 8698TIP3   OH226057   3.293   1.730   3.201
 8698TIP3    H126058   3.222   1.704   3.260
 8698TIP3    H226059   3.250   1.777   3.130
 8699TIP3   OH226060   6.779   2.312   5.473
 8699TIP3    H126061   6.699   2.262   5.490
 8699TIP3    H226062   6.799   2.354   5.557
 8700TIP3   OH226063   5.223   3.918   5.441
 8700TIP3    H126064   5.206   3.996   5.389
 8700TIP3    H226065   5.243   3.850   5.376
 8701TIP3   OH226066   1.244   4.847   5.718
 8701TIP3    H126067   1.233   4.942   5.719
 8701TIP3    H226068   1.157   4.813   5.694
 8702TIP3   OH226069   0.448   5.713   3.912
 8702TIP3    H126070   0.455   5.653   3.987
 8702TIP3    H226071   0.520   5.687   3.854
 8703TIP3   OH226072   4.172   6.715   4.649
 8703TIP3    H126073   4.166   6.743   4.558
 8703TIP3    H226074   4.264   6.728   4.672
 8704TIP3   OH226075   1.065   0.777   3.320
 8704TIP3    H126076   0.981   0.801   3.282
 8704TIP3    H226077   1.050   0.691   3.361
 8705TIP3   OH226078   2.989   5.157   3.718
 8705TIP3    H126079   2.935   5.124   3.646
 8705TIP3    H226080   3.072   5.180   3.677
 8706TIP3   OH226081   3.404   2.146   3.659
 8706TIP3    H126082   3.470   2.207   3.693
 8706TIP3    H226083   3.326   2.200   3.645
 8707TIP3   OH226084   4.412   4.187   5.718
 8707TIP3    H126085   4.468   4.259   5.747
 8707TIP3    H226086   4.381   4.214   5.632
 8708TIP3   OH226087   0.169   2.356   1.203
 8708TIP3    H126088   0.164   2.261   1.198
 8708TIP3    H226089   0.261   2.376   1.183
 8709TIP3   OH226090   4.489   2.645   5.454
 8709TIP3    H126091   4.441   2.728   5.459
 8709TIP3    H226092   4.581   2.671   5.458
 8710TIP3   OH226093   2.997   3.461   5.434
 8710TIP3    H126094   2.921   3.448   5.378
 8710TIP3    H226095   2.961   3.497   5.515
 8711TIP3   OH226096   4.519   2.985   1.739
 8711TIP3    H126097   4.547   3.076   1.737
 8711TIP3    H226098   4.586   2.940   1.790
 8712TIP3   OH226099   3.894   1.698   1.209
 8712TIP3    H126100   3.914   1.624   1.151
 8712TIP3    H226101   3.863   1.767   1.149
 8713TIP3   OH226102   3.772   0.478   0.097
 8713TIP3    H126103   3.716   0.551   0.124
 8713TIP3    H226104   3.713   0.414   0.059
 8714TIP3   OH226105   5.348   4.525   3.235
 8714TIP3    H126106   5.340   4.620   3.222
 8714TIP3    H226107   5.376   4.516   3.326
 8715TIP3   OH226108   3.278   4.318   0.808
 8715TIP3    H126109   3.341   4.294   0.876
 8715TIP3    H226110   3.260   4.411   0.825
 8716TIP3   OH226111   4.605   3.235   1.790
 8716TIP3    H126112   4.695   3.213   1.814
 8716TIP3    H226113   4.588   3.319   1.832
 8717TIP3   OH226114   4.088   2.184   5.449
 8717TIP3    H126115   4.101   2.275   5.422
 8717TIP3    H226116   3.993   2.174   5.451
 8718TIP3   OH226117   0.075   5.058   1.946
 8718TIP3    H126118   0.109   5.030   2.031
 8718TIP3    H226119   0.131   5.131   1.921
 8719TIP3   OH226120   4.821   2.106   1.492
 8719TIP3    H126121   4.770   2.031   1.525
 8719TIP3    H226122   4.910   2.089   1.522
 8720TIP3   OH226123   3.894   3.986   2.676
 8720TIP3    H126124   3.977   3.963   2.634
 8720TIP3    H226125   3.853   4.046   2.614
 8721TIP3   OH226126   3.614   0.942   5.440
 8721TIP3    H126127   3.648   1.026   5.470
 8721TIP3    H226128   3.692   0.892   5.414
 8722TIP3   OH226129   3.524   2.062   0.837
 8722TIP3    H126130   3.588   2.056   0.907
 8722TIP3    H226131   3.575   2.088   0.760
 8723TIP3   OH226132   0.173   0.516   2.030
 8723TIP3    H126133   0.266   0.539   2.031
 8723TIP3    H226134   0.133   0.577   2.092
 8724TIP3   OH226135   5.403   5.683   0.404
 8724TIP3    H126136   5.327   5.741   0.402
 8724TIP3    H226137   5.478   5.742   0.416
 8725TIP3   OH226138   2.151   1.774   3.679
 8725TIP3    H126139   2.135   1.680   3.671
 8725TIP3    H226140   2.142   1.808   3.590
 8726TIP3   OH226141   5.153   1.928   4.337
 8726TIP3    H126142   5.196   1.921   4.251
 8726TIP3    H226143   5.215   1.978   4.390
 8727TIP3   OH226144   1.019   4.587   2.518
 8727TIP3    H126145   0.966   4.525   2.467
 8727TIP3    H226146   1.062   4.641   2.452
 8728TIP3   OH226147   1.269   5.410   5.701
 8728TIP3    H126148   1.312   5.336   5.744
 8728TIP3    H226149   1.341   5.471   5.680
 8729TIP3   OH226150   6.973   0.444   1.333
 8729TIP3    H126151   6.915   0.474   1.263
 8729TIP3    H226152   6.976   0.517   1.394
 8730TIP3   OH226153   0.570   6.516   2.095
 8730TIP3    H126154   0.584   6.550   2.184
 8730TIP3    H226155   0.499   6.453   2.104
 8731TIP3   OH226156   2.990   3.635   0.202
 8731TIP3    H126157   2.906   3.608   0.166
 8731TIP3    H226158   3.055   3.599   0.141
 8732TIP3   OH226159   3.130   3.229   5.374
 8732TIP3    H126160   3.069   3.285   5.423
 8732TIP3    H226161   3.111   3.140   5.405
 8733TIP3   OH226162   7.076   5.802   4.955
 8733TIP3    H126163   6.995   5.751   4.956
 8733TIP3    H226164   7.142   5.743   4.992
 8734TIP3   OH226165   3.515   6.081   1.951
 8734TIP3    H126166   3.449   6.020   1.985
 8734TIP3    H226167   3.506   6.075   1.856
 8735TIP3   OH226168   1.634   5.160   0.217
 8735TIP3    H126169   1.598   5.164   0.306
 8735TIP3    H226170   1.716   5.210   0.222
 8736TIP3   OH226171   0.224   5.252   2.185
 8736TIP3    H126172   0.234   5.185   2.116
 8736TIP3    H226173   0.313   5.267   2.217
 8737TIP3   OH226174   1.371  -0.057   5.482
 8737TIP3    H126175   1.296  -0.001   5.461
 8737TIP3    H226176   1.437   0.003   5.516
 8738TIP3   OH226177   4.384   1.184   1.635
 8738TIP3    H126178   4.325   1.161   1.563
 8738TIP3    H226179   4.397   1.278   1.626
 8739TIP3   OH226180   5.298   3.260   1.873
 8739TIP3    H126181   5.359   3.333   1.867
 8739TIP3    H226182   5.305   3.230   1.964
 8740TIP3   OH226183   6.276   5.712   1.970
 8740TIP3    H126184   6.191   5.752   1.986
 8740TIP3    H226185   6.266   5.667   1.886
 8741TIP3   OH226186   1.837   2.537   0.847
 8741TIP3    H126187   1.761   2.523   0.903
 8741TIP3    H226188   1.803   2.588   0.773
 8742TIP3   OH226189   5.716   0.147   5.157
 8742TIP3    H126190   5.747   0.067   5.200
 8742TIP3    H226191   5.742   0.218   5.215
 8743TIP3   OH226192   2.151   2.392   5.524
 8743TIP3    H126193   2.110   2.307   5.511
 8743TIP3    H226194   2.119   2.422   5.609
 8744TIP3   OH226195   6.801   2.035   0.553
 8744TIP3    H126196   6.814   2.106   0.616
 8744TIP3    H226197   6.865   2.053   0.484
 8745TIP3   OH226198   2.168   5.020   2.925
 8745TIP3    H126199   2.231   5.059   2.864
 8745TIP3    H226200   2.181   4.926   2.917
 8746TIP3   OH226201   6.504   1.523   4.253
 8746TIP3    H126202   6.580   1.470   4.231
 8746TIP3    H226203   6.441   1.461   4.290
 8747TIP3   OH226204   1.926   5.858   3.952
 8747TIP3    H126205   1.922   5.909   3.871
 8747TIP3    H226206   1.901   5.921   4.021
 8748TIP3   OH226207   4.028   3.377   3.606
 8748TIP3    H126208   3.954   3.387   3.667
 8748TIP3    H226209   3.989   3.342   3.526
 8749TIP3   OH226210   5.009   1.185   2.103
 8749TIP3    H126211   4.975   1.097   2.115
 8749TIP3    H226212   5.104   1.173   2.097
 8750TIP3   OH226213   4.333   2.379   4.305
 8750TIP3    H126214   4.406   2.408   4.359
 8750TIP3    H226215   4.368   2.379   4.216
 8751TIP3   OH226216   1.446   4.090   3.922
 8751TIP3    H126217   1.367   4.035   3.923
 8751TIP3    H226218   1.468   4.102   4.014
 8752TIP3   OH226219   6.162   5.171   0.432
 8752TIP3    H126220   6.228   5.122   0.382
 8752TIP3    H226221   6.152   5.253   0.382
 8753TIP3   OH226222   6.983   4.765   1.480
 8753TIP3    H126223   7.011   4.822   1.552
 8753TIP3    H226224   6.896   4.736   1.504
 8754TIP3   OH226225   6.463   1.468   0.163
 8754TIP3    H126226   6.372   1.477   0.193
 8754TIP3    H226227   6.515   1.507   0.232
 8755TIP3   OH226228   0.420   4.601   5.633
 8755TIP3    H126229   0.400   4.577   5.723
 8755TIP3    H226230   0.506   4.563   5.616
 8756TIP3   OH226231   3.324   1.989   4.789
 8756TIP3    H126232   3.271   1.915   4.759
 8756TIP3    H226233   3.391   1.950   4.844
 8757TIP3   OH226234   0.160   0.352   1.491
 8757TIP3    H126235   0.104   0.344   1.414
 8757TIP3    H226236   0.212   0.431   1.475
 8758TIP3   OH226237   3.376   4.624   0.600
 8758TIP3    H126238   3.318   4.617   0.676
 8758TIP3    H226239   3.461   4.646   0.638
 8759TIP3   OH226240   4.580   6.209   0.467
 8759TIP3    H126241   4.588   6.178   0.377
 8759TIP3    H226242   4.553   6.300   0.460
 8760TIP3   OH226243   0.694   6.278   1.907
 8760TIP3    H126244   0.678   6.369   1.883
 8760TIP3    H226245   0.721   6.282   1.999
 8761TIP3   OH226246   0.415   0.017   0.375
 8761TIP3    H126247   0.333   0.002   0.328
 8761TIP3    H226248   0.409   0.108   0.405
 8762TIP3   OH226249   6.385   4.022   5.855
 8762TIP3    H126250   6.342   3.974   5.925
 8762TIP3    H226251   6.471   4.046   5.891
 8763TIP3   OH226252   4.192   6.636   1.650
 8763TIP3    H126253   4.144   6.559   1.679
 8763TIP3    H226254   4.283   6.619   1.677
 8764TIP3   OH226255   1.088   5.180   0.047
 8764TIP3    H126256   1.021   5.243   0.022
 8764TIP3    H226257   1.047   5.095   0.036
 8765TIP3   OH226258   6.018   5.578   3.290
 8765TIP3    H126259   5.937   5.529   3.300
 8765TIP3    H226260   6.087   5.512   3.301
 8766TIP3   OH226261   2.349   5.116   0.507
 8766TIP3    H126262   2.290   5.041   0.494
 8766TIP3    H226263   2.393   5.097   0.590
 8767TIP3   OH226264   2.846   1.224   4.770
 8767TIP3    H126265   2.757   1.259   4.766
 8767TIP3    H226266   2.879   1.233   4.680
 8768TIP3   OH226267   1.131   3.488   3.450
 8768TIP3    H126268   1.132   3.517   3.541
 8768TIP3    H226269   1.200   3.422   3.444
 8769TIP3   OH226270   1.614   2.436   0.977
 8769TIP3    H126271   1.636   2.347   1.006
 8769TIP3    H226272   1.518   2.439   0.982
 8770TIP3   OH226273   4.087   0.576   0.877
 8770TIP3    H126274   4.172   0.601   0.913
 8770TIP3    H226275   4.029   0.571   0.954
 8771TIP3   OH226276   6.571   4.586   2.433
 8771TIP3    H126277   6.611   4.607   2.348
 8771TIP3    H226278   6.621   4.637   2.496
 8772TIP3   OH226279   1.376   5.790   3.984
 8772TIP3    H126280   1.292   5.775   3.940
 8772TIP3    H226281   1.441   5.747   3.928
 8773TIP3   OH226282   6.860   6.672   4.875
 8773TIP3    H126283   6.927   6.701   4.813
 8773TIP3    H226284   6.804   6.749   4.888
 8774TIP3   OH226285   1.445   0.666   5.012
 8774TIP3    H126286   1.374   0.655   5.075
 8774TIP3    H226287   1.521   0.692   5.065
 8775TIP3   OH226288   1.026   2.553   0.401
 8775TIP3    H126289   1.082   2.482   0.370
 8775TIP3    H226290   0.948   2.548   0.345
 8776TIP3   OH226291   4.343   0.476   4.959
 8776TIP3    H126292   4.430   0.463   4.998
 8776TIP3    H226293   4.297   0.393   4.974
 8777TIP3   OH226294   0.135   4.555   2.029
 8777TIP3    H126295   0.081   4.634   2.021
 8777TIP3    H226296   0.222   4.588   2.053
 8778TIP3   OH226297   3.506   1.661   0.017
 8778TIP3    H126298   3.473   1.601   0.083
 8778TIP3    H226299   3.476   1.747   0.045
 8779TIP3   OH226300   2.750   2.341   5.757
 8779TIP3    H126301   2.797   2.350   5.840
 8779TIP3    H226302   2.773   2.421   5.709
 8780TIP3   OH226303   3.765   0.002   3.747
 8780TIP3    H126304   3.810  -0.001   3.831
 8780TIP3    H226305   3.835   0.016   3.683
 8781TIP3   OH226306   2.784   6.468   2.484
 8781TIP3    H126307   2.715   6.408   2.454
 8781TIP3    H226308   2.865   6.417   2.476
 8782TIP3   OH226309   3.992   3.708   3.306
 8782TIP3    H126310   3.961   3.669   3.224
 8782TIP3    H226311   3.946   3.792   3.312
 8783TIP3   OH226312   3.042   5.700   0.238
 8783TIP3    H126313   3.025   5.769   0.174
 8783TIP3    H226314   2.964   5.645   0.234
 8784TIP3   OH226315   4.536   1.966   1.301
 8784TIP3    H126316   4.489   1.945   1.221
 8784TIP3    H226317   4.544   2.061   1.300
 8785TIP3   OH226318   0.481   2.509   1.719
 8785TIP3    H126319   0.483   2.458   1.800
 8785TIP3    H226320   0.422   2.460   1.661
 8786TIP3   OH226321   2.497   3.864   3.766
 8786TIP3    H126322   2.441   3.810   3.822
 8786TIP3    H226323   2.495   3.820   3.681
 8787TIP3   OH226324   1.512   2.952   2.499
 8787TIP3    H126325   1.583   2.888   2.504
 8787TIP3    H226326   1.552   3.035   2.522
 8788TIP3   OH226327   1.388   4.558   0.854
 8788TIP3    H126328   1.472   4.598   0.830
 8788TIP3    H226329   1.401   4.465   0.837
 8789TIP3   OH226330   0.702   4.895   3.277
 8789TIP3    H126331   0.766   4.824   3.280
 8789TIP3    H226332   0.755   4.975   3.280
 8790TIP3   OH226333   0.762   2.858   4.499
 8790TIP3    H126334   0.783   2.808   4.421
 8790TIP3    H226335   0.773   2.796   4.571
 8791TIP3   OH226336   0.917   5.263   4.528
 8791TIP3    H126337   0.991   5.222   4.572
 8791TIP3    H226338   0.846   5.199   4.537
 8792TIP3   OH226339   6.301   5.696   1.510
 8792TIP3    H126340   6.367   5.761   1.533
 8792TIP3    H226341   6.218   5.744   1.511
 8793TIP3   OH226342   0.223   2.967   0.306
 8793TIP3    H126343   0.298   3.013   0.343
 8793TIP3    H226344   0.203   2.898   0.369
 8794TIP3   OH226345   2.484   2.402   1.677
 8794TIP3    H126346   2.503   2.467   1.745
 8794TIP3    H226347   2.526   2.437   1.598
 8795TIP3   OH226348   2.544   0.720   5.142
 8795TIP3    H126349   2.521   0.659   5.212
 8795TIP3    H226350   2.513   0.805   5.172
 8796TIP3   OH226351   6.161   5.679   2.552
 8796TIP3    H126352   6.200   5.728   2.624
 8796TIP3    H226353   6.095   5.624   2.594
 8797TIP3   OH226354   4.330   0.667   0.918
 8797TIP3    H126355   4.405   0.685   0.862
 8797TIP3    H226356   4.297   0.753   0.943
 8798TIP3   OH226357   5.697   1.669   1.656
 8798TIP3    H126358   5.642   1.746   1.672
 8798TIP3    H226359   5.727   1.679   1.565
 8799TIP3   OH226360   2.192   6.203   2.117
 8799TIP3    H126361   2.246   6.135   2.077
 8799TIP3    H226362   2.191   6.274   2.053
 8800TIP3   OH226363   1.501   4.108   2.613
 8800TIP3    H126364   1.594   4.100   2.632
 8800TIP3    H226365   1.494   4.188   2.560
 8801TIP3   OH226366   5.465   4.378   4.632
 8801TIP3    H126367   5.446   4.288   4.606
 8801TIP3    H226368   5.532   4.408   4.571
 8802TIP3   OH226369   4.619   0.424   4.385
 8802TIP3    H126370   4.659   0.339   4.368
 8802TIP3    H226371   4.527   0.405   4.403
 8803TIP3   OH226372   0.294   3.549   4.693
 8803TIP3    H126373   0.282   3.457   4.669
 8803TIP3    H226374   0.364   3.548   4.759
 8804TIP3   OH226375   1.599   0.043   3.987
 8804TIP3    H126376   1.552   0.062   3.906
 8804TIP3    H226377   1.602   0.127   4.033
 8805TIP3   OH226378   2.854   4.110   0.214
 8805TIP3    H126379   2.820   4.022   0.202
 8805TIP3    H226380   2.907   4.126   0.136
 8806TIP3   OH226381   3.470   0.477   2.814
 8806TIP3    H126382   3.539   0.436   2.867
 8806TIP3    H226383   3.473   0.570   2.837
 8807TIP3   OH226384   7.008   2.459   0.260
 8807TIP3    H126385   6.976   2.505   0.182
 8807TIP3    H226386   6.940   2.396   0.281
 8808TIP3   OH226387   2.430   6.517   4.505
 8808TIP3    H126388   2.394   6.556   4.585
 8808TIP3    H226389   2.411   6.582   4.437
 8809TIP3   OH226390   6.252   1.663   4.278
 8809TIP3    H126391   6.240   1.612   4.198
 8809TIP3    H226392   6.337   1.634   4.312
 8810TIP3   OH226393   5.994   1.690   1.830
 8810TIP3    H126394   6.017   1.657   1.743
 8810TIP3    H226395   5.901   1.708   1.825
 8811TIP3   OH226396   0.445   5.248   4.925
 8811TIP3    H126397   0.476   5.339   4.924
 8811TIP3    H226398   0.379   5.245   4.995
 8812TIP3   OH226399   2.403   4.190   3.951
 8812TIP3    H126400   2.409   4.162   4.042
 8812TIP3    H226401   2.343   4.128   3.910
 8813TIP3   OH226402   4.743   1.932   5.316
 8813TIP3    H126403   4.741   1.837   5.309
 8813TIP3    H226404   4.816   1.950   5.375
 8814TIP3   OH226405   0.818   0.104   0.910
 8814TIP3    H126406   0.903   0.109   0.953
 8814TIP3    H226407   0.776   0.028   0.950
 8815TIP3   OH226408   7.156   0.206   3.140
 8815TIP3    H126409   7.103   0.269   3.091
 8815TIP3    H226410   7.237   0.253   3.160
 8816TIP3   OH226411   5.549   2.258   3.115
 8816TIP3    H126412   5.599   2.322   3.064
 8816TIP3    H226413   5.459   2.289   3.113
 8817TIP3   OH226414   5.352   0.925   1.032
 8817TIP3    H126415   5.414   0.902   1.101
 8817TIP3    H226416   5.272   0.878   1.055
 8818TIP3   OH226417   6.950   5.624   0.167
 8818TIP3    H126418   7.025   5.683   0.165
 8818TIP3    H226419   6.934   5.601   0.076
 8819TIP3   OH226420   6.934   3.812   4.498
 8819TIP3    H126421   6.973   3.767   4.423
 8819TIP3    H226422   6.908   3.897   4.463
 8820TIP3   OH226423   0.562   3.034   4.521
 8820TIP3    H126424   0.611   2.954   4.502
 8820TIP3    H226425   0.485   3.030   4.465
 8821TIP3   OH226426   6.796   5.353   0.709
 8821TIP3    H126427   6.777   5.385   0.621
 8821TIP3    H226428   6.724   5.293   0.729
 8822TIP3   OH226429   4.566   2.969   3.409
 8822TIP3    H126430   4.558   2.978   3.314
 8822TIP3    H226431   4.647   3.014   3.431
 8823TIP3   OH226432   4.880   4.045   4.243
 8823TIP3    H126433   4.934   4.048   4.164
 8823TIP3    H226434   4.901   3.962   4.284
 8824TIP3   OH226435   3.049   5.003   3.226
 8824TIP3    H126436   3.106   4.976   3.154
 8824TIP3    H226437   3.059   5.098   3.229
 8825TIP3   OH226438   4.778   6.802   1.183
 8825TIP3    H126439   4.762   6.783   1.090
 8825TIP3    H226440   4.724   6.878   1.202
 8826TIP3   OH226441   2.043   6.021   2.629
 8826TIP3    H126442   1.994   6.026   2.547
 8826TIP3    H226443   2.124   5.976   2.606
 8827TIP3   OH226444   4.771   3.275   0.489
 8827TIP3    H126445   4.826   3.351   0.468
 8827TIP3    H226446   4.697   3.312   0.538
 8828TIP3   OH226447   3.661   0.761   3.187
 8828TIP3    H126448   3.571   0.730   3.183
 8828TIP3    H226449   3.713   0.682   3.207
 8829TIP3   OH226450   0.726   1.495   2.363
 8829TIP3    H126451   0.711   1.588   2.374
 8829TIP3    H226452   0.722   1.480   2.268
 8830TIP3   OH226453   3.724   4.221   3.026
 8830TIP3    H126454   3.651   4.171   3.061
 8830TIP3    H226455   3.716   4.308   3.065
 8831TIP3   OH226456   5.463   4.367   5.741
 8831TIP3    H126457   5.430   4.346   5.653
 8831TIP3    H226458   5.493   4.283   5.776
 8832TIP3   OH226459   0.158   1.120   0.091
 8832TIP3    H126460   0.130   1.136   0.001
 8832TIP3    H226461   0.189   1.204   0.123
 8833TIP3   OH226462   1.781   4.222   3.858
 8833TIP3    H126463   1.754   4.156   3.922
 8833TIP3    H226464   1.798   4.173   3.778
 8834TIP3   OH226465   1.682   3.586   4.340
 8834TIP3    H126466   1.598   3.555   4.306
 8834TIP3    H226467   1.687   3.549   4.428
 8835TIP3   OH226468   5.887   3.019   0.789
 8835TIP3    H126469   5.826   3.092   0.799
 8835TIP3    H226470   5.865   2.980   0.705
 8836TIP3   OH226471   7.241   2.327   1.920
 8836TIP3    H126472   7.261   2.420   1.908
 8836TIP3    H226473   7.151   2.318   1.888
 8837TIP3   OH226474   6.045   1.491   4.917
 8837TIP3    H126475   6.066   1.438   4.840
 8837TIP3    H226476   5.951   1.507   4.911
 8838TIP3   OH226477   5.239   5.084   5.034
 8838TIP3    H126478   5.193   5.005   5.063
 8838TIP3    H226479   5.170   5.145   5.009
 8839TIP3   OH226480   2.090   3.217   2.378
 8839TIP3    H126481   2.088   3.202   2.473
 8839TIP3    H226482   2.096   3.129   2.340
 8840TIP3   OH226483   4.505   2.548   2.238
 8840TIP3    H126484   4.503   2.641   2.214
 8840TIP3    H226485   4.555   2.545   2.319
 8841TIP3   OH226486   6.577   5.357   1.072
 8841TIP3    H126487   6.550   5.382   0.984
 8841TIP3    H226488   6.547   5.429   1.128
 8842TIP3   OH226489   3.655   6.224   3.177
 8842TIP3    H126490   3.660   6.150   3.116
 8842TIP3    H226491   3.566   6.222   3.210
 8843TIP3   OH226492   5.211   4.137   2.521
 8843TIP3    H126493   5.263   4.142   2.441
 8843TIP3    H226494   5.264   4.183   2.586
 8844TIP3   OH226495   0.870   1.024   3.135
 8844TIP3    H126496   0.904   1.009   3.047
 8844TIP3    H226497   0.830   0.941   3.160
 8845TIP3   OH226498   1.582   1.787   4.004
 8845TIP3    H126499   1.548   1.873   4.030
 8845TIP3    H226500   1.649   1.807   3.939
 8846TIP3   OH226501   0.328   3.209   0.936
 8846TIP3    H126502   0.337   3.180   0.845
 8846TIP3    H226503   0.398   3.163   0.983
 8847TIP3   OH226504   2.540   6.476   2.033
 8847TIP3    H126505   2.586   6.457   1.952
 8847TIP3    H226506   2.476   6.404   2.041
 8848TIP3   OH226507   1.299   1.439   3.532
 8848TIP3    H126508   1.232   1.379   3.499
 8848TIP3    H226509   1.264   1.469   3.616
 8849TIP3   OH226510   2.410   1.162   0.507
 8849TIP3    H126511   2.323   1.124   0.519
 8849TIP3    H226512   2.456   1.098   0.452
 8850TIP3   OH226513   0.112   2.600   4.911
 8850TIP3    H126514   0.071   2.683   4.890
 8850TIP3    H226515   0.123   2.556   4.827
 8851TIP3   OH226516   4.400   2.174   0.365
 8851TIP3    H126517   4.405   2.194   0.458
 8851TIP3    H226518   4.409   2.259   0.321
 8852TIP3   OH226519   3.104   0.991   3.101
 8852TIP3    H126520   3.149   0.974   3.184
 8852TIP3    H226521   3.080   0.904   3.069
 8853TIP3   OH226522   4.162   3.938   4.210
 8853TIP3    H126523   4.117   4.009   4.164
 8853TIP3    H226524   4.148   3.861   4.155
 8854TIP3   OH226525   3.017   2.839   0.053
 8854TIP3    H126526   2.994   2.826  -0.039
 8854TIP3    H226527   3.002   2.753   0.093
 8855TIP3   OH226528   6.416   4.069   3.824
 8855TIP3    H126529   6.335   4.060   3.874
 8855TIP3    H226530   6.482   4.092   3.890
 8856TIP3   OH226531   5.912   6.185   5.564
 8856TIP3    H126532   5.927   6.091   5.573
 8856TIP3    H226533   5.998   6.224   5.581
 8857TIP3   OH226534   0.245   1.069   5.506
 8857TIP3    H126535   0.198   1.143   5.468
 8857TIP3    H226536   0.243   1.002   5.438
 8858TIP3   OH226537   3.132   4.054   0.571
 8858TIP3    H126538   3.162   4.019   0.654
 8858TIP3    H226539   3.080   3.984   0.532
 8859TIP3   OH226540   6.129   3.114   5.379
 8859TIP3    H126541   6.205   3.071   5.338
 8859TIP3    H226542   6.163   3.150   5.461
 8860TIP3   OH226543   0.685   0.486   2.568
 8860TIP3    H126544   0.738   0.424   2.618
 8860TIP3    H226545   0.748   0.552   2.537
 8861TIP3   OH226546   1.539   3.741   5.460
 8861TIP3    H126547   1.592   3.819   5.446
 8861TIP3    H226548   1.449   3.773   5.458
 8862TIP3   OH226549   2.388   6.178   1.301
 8862TIP3    H126550   2.333   6.253   1.275
 8862TIP3    H226551   2.478   6.211   1.297
 8863TIP3   OH226552   2.682   6.373   1.005
 8863TIP3    H126553   2.677   6.277   0.999
 8863TIP3    H226554   2.747   6.398   0.940
 8864TIP3   OH226555   0.629   2.713   1.232
 8864TIP3    H126556   0.700   2.706   1.167
 8864TIP3    H226557   0.624   2.626   1.271
 8865TIP3   OH226558   3.578   6.068   1.369
 8865TIP3    H126559   3.595   6.010   1.295
 8865TIP3    H226560   3.486   6.092   1.360
 8866TIP3   OH226561   0.979   6.639   1.151
 8866TIP3    H126562   1.063   6.598   1.129
 8866TIP3    H226563   0.933   6.645   1.067
 8867TIP3   OH226564   4.717   1.307   1.559
 8867TIP3    H126565   4.683   1.372   1.620
 8867TIP3    H226566   4.655   1.307   1.487
 8868TIP3   OH226567   0.404   5.241   0.558
 8868TIP3    H126568   0.390   5.333   0.536
 8868TIP3    H226569   0.331   5.218   0.616
 8869TIP3   OH226570   6.833   0.374   2.238
 8869TIP3    H126571   6.830   0.298   2.296
 8869TIP3    H226572   6.767   0.355   2.170
 8870TIP3   OH226573   4.507   0.636   5.252
 8870TIP3    H126574   4.467   0.700   5.194
 8870TIP3    H226575   4.433   0.586   5.287
 8871TIP3   OH226576   1.442   0.872   2.142
 8871TIP3    H126577   1.524   0.915   2.166
 8871TIP3    H226578   1.382   0.892   2.214
 8872TIP3   OH226579   3.585   3.072   4.182
 8872TIP3    H126580   3.502   3.106   4.215
 8872TIP3    H226581   3.584   2.979   4.206
 8873TIP3   OH226582   1.182   6.538   2.656
 8873TIP3    H126583   1.195   6.615   2.601
 8873TIP3    H226584   1.269   6.518   2.690
 8874TIP3   OH226585   0.621   2.151   2.230
 8874TIP3    H126586   0.550   2.166   2.292
 8874TIP3    H226587   0.692   2.206   2.262
 8875TIP3   OH226588   2.343   3.164   4.248
 8875TIP3    H126589   2.341   3.081   4.202
 8875TIP3    H226590   2.318   3.229   4.182
 8876TIP3   OH226591   6.707   2.654   2.341
 8876TIP3    H126592   6.701   2.729   2.401
 8876TIP3    H226593   6.795   2.660   2.305
 8877TIP3   OH226594   6.152   6.295   5.637
 8877TIP3    H126595   6.142   6.371   5.695
 8877TIP3    H226596   6.221   6.243   5.677
 8878TIP3   OH226597   3.303   0.862   3.740
 8878TIP3    H126598   3.215   0.889   3.765
 8878TIP3    H226599   3.299   0.767   3.736
 8879TIP3   OH226600   1.939   5.956   5.684
 8879TIP3    H126601   1.845   5.943   5.696
 8879TIP3    H226602   1.946   6.020   5.613
 8880TIP3   OH226603   6.804   2.145   0.050
 8880TIP3    H126604   6.765   2.144   0.137
 8880TIP3    H226605   6.799   2.054   0.020
 8881TIP3   OH226606   3.508   4.166   4.031
 8881TIP3    H126607   3.528   4.237   3.970
 8881TIP3    H226608   3.436   4.199   4.084
 8882TIP3   OH226609   4.049   2.191   5.829
 8882TIP3    H126610   4.044   2.136   5.751
 8882TIP3    H226611   4.102   2.267   5.801
 8883TIP3   OH226612   4.302   5.908   2.506
 8883TIP3    H126613   4.214   5.885   2.478
 8883TIP3    H226614   4.350   5.925   2.425
 8884TIP3   OH226615   1.764   4.043   2.601
 8884TIP3    H126616   1.739   4.005   2.516
 8884TIP3    H226617   1.844   3.996   2.626
 8885TIP3   OH226618   6.024   3.163   1.883
 8885TIP3    H126619   6.034   3.189   1.974
 8885TIP3    H226620   6.027   3.067   1.885
 8886TIP3   OH226621   0.299   0.376   4.419
 8886TIP3    H126622   0.330   0.396   4.508
 8886TIP3    H226623   0.206   0.357   4.430
 8887TIP3   OH226624   0.296   1.954   5.273
 8887TIP3    H126625   0.212   1.912   5.254
 8887TIP3    H226626   0.281   1.999   5.356
 8888TIP3   OH226627   4.095   0.108   5.751
 8888TIP3    H126628   4.083   0.107   5.656
 8888TIP3    H226629   4.044   0.183   5.781
 8889TIP3   OH226630   3.015   4.718   2.935
 8889TIP3    H126631   2.961   4.781   2.889
 8889TIP3    H226632   2.953   4.663   2.983
 8890TIP3   OH226633   4.607   3.327   2.828
 8890TIP3    H126634   4.623   3.417   2.857
 8890TIP3    H226635   4.577   3.337   2.737
 8891TIP3   OH226636   1.870   5.370   5.556
 8891TIP3    H126637   1.853   5.296   5.499
 8891TIP3    H226638   1.844   5.447   5.504
 8892TIP3   OH226639   2.429   6.017   4.016
 8892TIP3    H126640   2.440   5.993   3.924
 8892TIP3    H226641   2.387   5.940   4.056
 8893TIP3   OH226642   6.400   4.267   3.110
 8893TIP3    H126643   6.391   4.330   3.038
 8893TIP3    H226644   6.315   4.270   3.155
 8894TIP3   OH226645   2.356   0.466   2.563
 8894TIP3    H126646   2.318   0.540   2.517
 8894TIP3    H226647   2.280   0.416   2.594
 8895TIP3   OH226648   4.408   5.598   5.714
 8895TIP3    H126649   4.468   5.529   5.742
 8895TIP3    H226650   4.349   5.554   5.653
 8896TIP3   OH226651   0.542   3.863   0.713
 8896TIP3    H126652   0.605   3.924   0.674
 8896TIP3    H226653   0.456   3.901   0.692
 8897TIP3   OH226654   3.925   0.020   3.518
 8897TIP3    H126655   3.973   0.081   3.463
 8897TIP3    H226656   3.984  -0.055   3.528
 8898TIP3   OH226657   3.225   3.191   1.520
 8898TIP3    H126658   3.152   3.179   1.582
 8898TIP3    H226659   3.266   3.273   1.547
 8899TIP3   OH226660   1.202   2.273   5.750
 8899TIP3    H126661   1.213   2.364   5.723
 8899TIP3    H226662   1.289   2.245   5.779
 8900TIP3   OH226663   0.757   3.869   4.027
 8900TIP3    H126664   0.720   3.861   4.115
 8900TIP3    H226665   0.687   3.838   3.969
 8901TIP3   OH226666   5.974   3.593   1.755
 8901TIP3    H126667   5.983   3.536   1.679
 8901TIP3    H226668   5.904   3.653   1.732
 8902TIP3   OH226669   6.871   2.502   5.652
 8902TIP3    H126670   6.862   2.572   5.588
 8902TIP3    H226671   6.807   2.524   5.721
 8903TIP3   OH226672   5.071   4.146   0.518
 8903TIP3    H126673   5.083   4.240   0.530
 8903TIP3    H226674   5.158   4.114   0.492
 8904TIP3   OH226675   4.529   1.573   4.882
 8904TIP3    H126676   4.569   1.619   4.956
 8904TIP3    H226677   4.445   1.617   4.869
 8905TIP3   OH226678   6.285   0.463   1.636
 8905TIP3    H126679   6.302   0.425   1.550
 8905TIP3    H226680   6.338   0.543   1.639
 8906TIP3   OH226681   3.403   0.800   5.838
 8906TIP3    H126682   3.331   0.811   5.900
 8906TIP3    H226683   3.370   0.737   5.774
 8907TIP3   OH226684   4.602   3.554   5.606
 8907TIP3    H126685   4.541   3.600   5.664
 8907TIP3    H226686   4.558   3.473   5.584
 8908TIP3   OH226687   2.031   4.599   5.582
 8908TIP3    H126688   1.983   4.550   5.515
 8908TIP3    H226689   1.971   4.603   5.656
 8909TIP3   OH226690   0.344   2.569   4.001
 8909TIP3    H126691   0.313   2.615   3.923
 8909TIP3    H226692   0.393   2.635   4.050
 8910TIP3   OH226693   7.127   2.741   2.920
 8910TIP3    H126694   7.044   2.694   2.914
 8910TIP3    H226695   7.131   2.792   2.839
 8911TIP3   OH226696   2.980   6.410   0.994
 8911TIP3    H126697   2.927   6.434   0.918
 8911TIP3    H226698   3.065   6.449   0.978
 8912TIP3   OH226699   4.686   1.760   1.769
 8912TIP3    H126700   4.628   1.684   1.770
 8912TIP3    H226701   4.629   1.833   1.792
 8913TIP3   OH226702   1.371   2.130   4.146
 8913TIP3    H126703   1.370   2.225   4.159
 8913TIP3    H226704   1.433   2.116   4.075
 8914TIP3   OH226705   3.390   6.290   5.743
 8914TIP3    H126706   3.310   6.246   5.713
 8914TIP3    H226707   3.380   6.296   5.838
 8915TIP3   OH226708   1.593   6.273   5.676
 8915TIP3    H126709   1.501   6.268   5.702
 8915TIP3    H226710   1.634   6.329   5.743
 8916TIP3   OH226711   6.995   1.188   0.965
 8916TIP3    H126712   7.043   1.269   0.947
 8916TIP3    H226713   6.905   1.216   0.979
 8917TIP3   OH226714   3.174   0.943   5.544
 8917TIP3    H126715   3.097   1.000   5.540
 8917TIP3    H226716   3.137   0.855   5.556
 8918TIP3   OH226717   0.255   1.593   4.771
 8918TIP3    H126718   0.242   1.538   4.694
 8918TIP3    H226719   0.343   1.571   4.802
 8919TIP3   OH226720   0.651   0.910   5.046
 8919TIP3    H126721   0.707   0.975   5.004
 8919TIP3    H226722   0.620   0.855   4.974
 8920TIP3   OH226723   4.062   2.787   3.163
 8920TIP3    H126724   4.150   2.759   3.137
 8920TIP3    H226725   4.067   2.797   3.258
 8921TIP3   OH226726   4.581   2.506   1.862
 8921TIP3    H126727   4.648   2.520   1.929
 8921TIP3    H226728   4.525   2.438   1.899
 8922TIP3   OH226729   2.524   2.537   5.332
 8922TIP3    H126730   2.456   2.579   5.385
 8922TIP3    H226731   2.598   2.528   5.392
 8923TIP3   OH226732   5.278   5.062   3.048
 8923TIP3    H126733   5.207   5.071   3.111
 8923TIP3    H226734   5.358   5.071   3.100
 8924TIP3   OH226735   2.903   3.744   4.699
 8924TIP3    H126736   2.816   3.715   4.724
 8924TIP3    H226737   2.960   3.714   4.769
 8925TIP3   OH226738   4.952   2.495   3.740
 8925TIP3    H126739   4.901   2.422   3.776
 8925TIP3    H226740   4.933   2.569   3.799
 8926TIP3   OH226741   4.735   1.103   1.757
 8926TIP3    H126742   4.681   1.029   1.727
 8926TIP3    H226743   4.763   1.146   1.676
 8927TIP3   OH226744   4.449   1.688   3.720
 8927TIP3    H126745   4.407   1.693   3.634
 8927TIP3    H226746   4.508   1.613   3.714
 8928TIP3   OH226747   2.160   1.374   3.408
 8928TIP3    H126748   2.249   1.392   3.438
 8928TIP3    H226749   2.128   1.306   3.467
 8929TIP3   OH226750   0.069   4.845   5.491
 8929TIP3    H126751   0.034   4.759   5.511
 8929TIP3    H226752   0.041   4.863   5.401
 8930TIP3   OH226753   4.379   3.604   4.050
 8930TIP3    H126754   4.399   3.513   4.031
 8930TIP3    H226755   4.385   3.611   4.145
 8931TIP3   OH226756   3.003   6.508   5.797
 8931TIP3    H126757   2.967   6.421   5.777
 8931TIP3    H226758   3.048   6.534   5.717
 8932TIP3   OH226759   3.328   4.943   1.938
 8932TIP3    H126760   3.294   4.957   2.026
 8932TIP3    H226761   3.251   4.948   1.881
 8933TIP3   OH226762   6.285   4.197   5.500
 8933TIP3    H126763   6.290   4.246   5.582
 8933TIP3    H226764   6.194   4.168   5.495
 8934TIP3   OH226765   5.187   6.608   4.717
 8934TIP3    H126766   5.276   6.597   4.750
 8934TIP3    H226767   5.156   6.689   4.759
 8935TIP3   OH226768   5.593   2.094   2.269
 8935TIP3    H126769   5.662   2.059   2.326
 8935TIP3    H226770   5.632   2.093   2.181
 8936TIP3   OH226771   1.064   2.673   5.167
 8936TIP3    H126772   1.158   2.661   5.182
 8936TIP3    H226773   1.044   2.757   5.209
 8937TIP3   OH226774   6.889   4.103   1.691
 8937TIP3    H126775   6.854   4.061   1.613
 8937TIP3    H226776   6.977   4.132   1.665
 8938TIP3   OH226777   4.804   4.038   5.403
 8938TIP3    H126778   4.854   4.119   5.390
 8938TIP3    H226779   4.811   3.991   5.320
 8939TIP3   OH226780   5.307   6.460   1.563
 8939TIP3    H126781   5.325   6.543   1.608
 8939TIP3    H226782   5.246   6.484   1.493
 8940TIP3   OH226783   5.466   2.823   1.271
 8940TIP3    H126784   5.391   2.837   1.329
 8940TIP3    H226785   5.522   2.899   1.285
 8941TIP3   OH226786   3.365   1.886   2.422
 8941TIP3    H126787   3.379   1.849   2.509
 8941TIP3    H226788   3.413   1.969   2.422
 8942TIP3   OH226789   2.696   6.641   2.819
 8942TIP3    H126790   2.626   6.627   2.755
 8942TIP3    H226791   2.775   6.610   2.774
 8943TIP3   OH226792   0.994   6.532   3.545
 8943TIP3    H126793   1.021   6.570   3.629
 8943TIP3    H226794   1.077   6.513   3.500
 8944TIP3   OH226795   6.422   1.821   5.146
 8944TIP3    H126796   6.487   1.777   5.199
 8944TIP3    H226797   6.363   1.752   5.117
 8945TIP3   OH226798   1.159   6.644   5.094
 8945TIP3    H126799   1.224   6.674   5.158
 8945TIP3    H226800   1.195   6.670   5.009
 8946TIP3   OH226801   1.770   3.843   4.775
 8946TIP3    H126802   1.792   3.754   4.747
 8946TIP3    H226803   1.854   3.881   4.800
 8947TIP3   OH226804   3.604   2.403   3.004
 8947TIP3    H126805   3.600   2.325   3.060
 8947TIP3    H226806   3.683   2.448   3.032
 8948TIP3   OH226807   4.771   5.544   3.326
 8948TIP3    H126808   4.810   5.484   3.390
 8948TIP3    H226809   4.824   5.532   3.247
 8949TIP3   OH226810   2.912   3.011   0.699
 8949TIP3    H126811   2.837   3.025   0.757
 8949TIP3    H226812   2.883   2.942   0.640
 8950TIP3   OH226813   1.206   2.407   1.092
 8950TIP3    H126814   1.261   2.470   1.045
 8950TIP3    H226815   1.146   2.461   1.143
 8951TIP3   OH226816   4.274   6.759   0.962
 8951TIP3    H126817   4.334   6.794   0.895
 8951TIP3    H226818   4.310   6.673   0.983
 8952TIP3   OH226819   4.118   2.594   4.370
 8952TIP3    H126820   4.050   2.631   4.426
 8952TIP3    H226821   4.178   2.550   4.430
 8953TIP3   OH226822   6.881   3.888   1.140
 8953TIP3    H126823   6.973   3.899   1.164
 8953TIP3    H226824   6.873   3.797   1.113
 8954TIP3   OH226825   6.507   4.514   1.347
 8954TIP3    H126826   6.575   4.449   1.365
 8954TIP3    H226827   6.550   4.578   1.291
 8955TIP3   OH226828   6.693   5.994   4.962
 8955TIP3    H126829   6.604   6.000   4.927
 8955TIP3    H226830   6.727   5.912   4.928
 8956TIP3   OH226831   4.561   3.586   2.919
 8956TIP3    H126832   4.553   3.594   2.824
 8956TIP3    H226833   4.562   3.677   2.951
 8957TIP3   OH226834   6.417   3.545   5.322
 8957TIP3    H126835   6.462   3.620   5.283
 8957TIP3    H226836   6.423   3.559   5.416
 8958TIP3   OH226837   4.494   6.729   4.457
 8958TIP3    H126838   4.553   6.655   4.470
 8958TIP3    H226839   4.459   6.716   4.369
 8959TIP3   OH226840   2.954   2.375   2.449
 8959TIP3    H126841   3.005   2.295   2.460
 8959TIP3    H226842   2.879   2.364   2.508
 8960TIP3   OH226843   6.185   0.730   0.129
 8960TIP3    H126844   6.179   0.635   0.132
 8960TIP3    H226845   6.233   0.753   0.209
 8961TIP3   OH226846   1.899   3.301   1.522
 8961TIP3    H126847   1.933   3.375   1.472
 8961TIP3    H226848   1.955   3.295   1.599
 8962TIP3   OH226849   1.834   5.947   1.147
 8962TIP3    H126850   1.796   5.998   1.076
 8962TIP3    H226851   1.759   5.911   1.195
 8963TIP3   OH226852   2.506   4.497   0.491
 8963TIP3    H126853   2.565   4.456   0.426
 8963TIP3    H226854   2.490   4.428   0.555
 8964TIP3   OH226855   5.501   0.871   2.127
 8964TIP3    H126856   5.541   0.955   2.105
 8964TIP3    H226857   5.514   0.862   2.221
 8965TIP3   OH226858   2.836   0.427   5.262
 8965TIP3    H126859   2.903   0.486   5.226
 8965TIP3    H226860   2.781   0.405   5.187
 8966TIP3   OH226861   2.586   5.562   1.478
 8966TIP3    H126862   2.503   5.547   1.433
 8966TIP3    H226863   2.626   5.476   1.485
 8967TIP3   OH226864   0.901   5.186   1.738
 8967TIP3    H126865   0.985   5.141   1.737
 8967TIP3    H226866   0.841   5.129   1.690
 8968TIP3   OH226867   6.649   3.026   5.428
 8968TIP3    H126868   6.744   3.017   5.425
 8968TIP3    H226869   6.633   3.120   5.424
 8969TIP3   OH226870   5.768   3.807   1.694
 8969TIP3    H126871   5.742   3.747   1.624
 8969TIP3    H226872   5.766   3.893   1.654
 8970TIP3   OH226873   1.916   4.221   1.592
 8970TIP3    H126874   1.996   4.255   1.632
 8970TIP3    H226875   1.863   4.191   1.666
 8971TIP3   OH226876   6.154   2.268   1.846
 8971TIP3    H126877   6.230   2.210   1.855
 8971TIP3    H226878   6.101   2.249   1.923
 8972TIP3   OH226879   2.243   0.222   3.409
 8972TIP3    H126880   2.332   0.191   3.396
 8972TIP3    H226881   2.198   0.150   3.454
 8973TIP3   OH226882   0.256   3.465   3.640
 8973TIP3    H126883   0.168   3.438   3.614
 8973TIP3    H226884   0.241   3.532   3.707
 8974TIP3   OH226885   0.267   2.381   1.606
 8974TIP3    H126886   0.172   2.378   1.593
 8974TIP3    H226887   0.299   2.300   1.568
 8975TIP3   OH226888   7.086   0.170   3.747
 8975TIP3    H126889   7.116   0.258   3.724
 8975TIP3    H226890   7.131   0.112   3.685
 8976TIP3   OH226891   1.268   1.602   4.525
 8976TIP3    H126892   1.266   1.550   4.445
 8976TIP3    H226893   1.184   1.584   4.568
 8977TIP3   OH226894   2.256   0.353   1.617
 8977TIP3    H126895   2.337   0.319   1.653
 8977TIP3    H226896   2.262   0.335   1.523
 8978TIP3   OH226897   4.651   5.370   2.960
 8978TIP3    H126898   4.580   5.421   2.920
 8978TIP3    H226899   4.634   5.374   3.054
 8979TIP3   OH226900   4.946   5.562   3.087
 8979TIP3    H126901   5.037   5.544   3.060
 8979TIP3    H226902   4.941   5.657   3.092
 8980TIP3   OH226903   1.520   0.223   2.584
 8980TIP3    H126904   1.571   0.289   2.538
 8980TIP3    H226905   1.451   0.198   2.522
 8981TIP3   OH226906   2.391   1.471   0.563
 8981TIP3    H126907   2.396   1.376   0.562
 8981TIP3    H226908   2.391   1.493   0.657
 8982TIP3   OH226909   2.154   2.088   2.476
 8982TIP3    H126910   2.192   2.005   2.507
 8982TIP3    H226911   2.201   2.155   2.526
 8983TIP3   OH226912   3.411   6.465   4.480
 8983TIP3    H126913   3.409   6.551   4.521
 8983TIP3    H226914   3.496   6.461   4.436
 8984TIP3   OH226915   3.467   6.419   1.919
 8984TIP3    H126916   3.399   6.378   1.866
 8984TIP3    H226917   3.444   6.396   2.009
 8985TIP3   OH226918   2.446   5.782   3.500
 8985TIP3    H126919   2.437   5.740   3.414
 8985TIP3    H226920   2.507   5.854   3.484
 8986TIP3   OH226921   0.130   0.888   5.279
 8986TIP3    H126922   0.140   0.930   5.193
 8986TIP3    H226923   0.049   0.925   5.315
 8987TIP3   OH226924   4.638   5.008   3.322
 8987TIP3    H126925   4.617   4.995   3.414
 8987TIP3    H226926   4.567   5.063   3.289
 8988TIP3   OH226927   5.621   3.897   1.057
 8988TIP3    H126928   5.681   3.939   0.996
 8988TIP3    H226929   5.675   3.876   1.133
 8989TIP3   OH226930   6.107   6.087   4.679
 8989TIP3    H126931   6.061   6.035   4.745
 8989TIP3    H226932   6.097   6.036   4.598
 8990TIP3   OH226933   3.246   0.687   4.683
 8990TIP3    H126934   3.226   0.638   4.604
 8990TIP3    H226935   3.160   0.706   4.722
 8991TIP3   OH226936   3.490   4.809   5.688
 8991TIP3    H126937   3.502   4.744   5.757
 8991TIP3    H226938   3.492   4.759   5.607
 8992TIP3   OH226939   5.045   3.018   4.535
 8992TIP3    H126940   5.010   2.972   4.611
 8992TIP3    H226941   5.040   3.111   4.558
 8993TIP3   OH226942   2.432   4.825   2.356
 8993TIP3    H126943   2.479   4.744   2.376
 8993TIP3    H226944   2.374   4.801   2.283
 8994TIP3   OH226945   4.049   2.950   5.199
 8994TIP3    H126946   3.999   2.888   5.145
 8994TIP3    H226947   4.106   2.994   5.137
 8995TIP3   OH226948   0.912   4.744   1.622
 8995TIP3    H126949   0.820   4.760   1.642
 8995TIP3    H226950   0.912   4.657   1.582
 8996TIP3   OH226951   6.254   1.655   4.627
 8996TIP3    H126952   6.161   1.634   4.615
 8996TIP3    H226953   6.258   1.750   4.617
 8997TIP3   OH226954   3.455   6.190   0.767
 8997TIP3    H126955   3.550   6.175   0.769
 8997TIP3    H226956   3.435   6.202   0.674
 8998TIP3   OH226957   2.596   4.088   1.345
 8998TIP3    H126958   2.568   4.103   1.436
 8998TIP3    H226959   2.623   3.996   1.344
 8999TIP3   OH226960   5.427   0.317   0.561
 8999TIP3    H126961   5.428   0.382   0.631
 8999TIP3    H226962   5.478   0.244   0.596
 9000TIP3   OH226963   1.592   1.384   0.685
 9000TIP3    H126964   1.564   1.472   0.661
 9000TIP3    H226965   1.587   1.334   0.603
 9001TIP3   OH226966   1.885   2.707   2.306
 9001TIP3    H126967   1.804   2.671   2.340
 9001TIP3    H226968   1.954   2.651   2.343
 9002TIP3   OH226969   0.067   5.775   2.086
 9002TIP3    H126970   0.126   5.850   2.087
 9002TIP3    H226971   0.078   5.737   1.999
 9003TIP3   OH226972   0.911   1.057   5.795
 9003TIP3    H126973   0.891   1.128   5.856
 9003TIP3    H226974   0.865   1.082   5.715
 9004TIP3   OH226975   3.476   3.871   5.185
 9004TIP3    H126976   3.389   3.882   5.225
 9004TIP3    H226977   3.536   3.913   5.246
 9005TIP3   OH226978   5.315   3.054   4.470
 9005TIP3    H126979   5.306   2.963   4.444
 9005TIP3    H226980   5.226   3.086   4.479
 9006TIP3   OH226981   1.560   4.475   1.598
 9006TIP3    H126982   1.638   4.527   1.613
 9006TIP3    H226983   1.498   4.504   1.666
 9007TIP3   OH226984   0.699   4.487   5.462
 9007TIP3    H126985   0.762   4.443   5.405
 9007TIP3    H226986   0.618   4.489   5.411
 9008TIP3   OH226987   0.704   1.821   0.496
 9008TIP3    H126988   0.735   1.785   0.413
 9008TIP3    H226989   0.772   1.799   0.559
 9009TIP3   OH226990   0.249   4.966   2.170
 9009TIP3    H126991   0.214   4.877   2.173
 9009TIP3    H226992   0.258   4.990   2.263
 9010TIP3   OH226993   2.998   4.396   1.207
 9010TIP3    H126994   2.907   4.377   1.227
 9010TIP3    H226995   3.046   4.317   1.232
 9011TIP3   OH226996   3.057   1.924   5.022
 9011TIP3    H126997   3.138   1.907   5.069
 9011TIP3    H226998   3.078   1.996   4.962
 9012TIP3   OH226999   1.801   6.823   4.153
 9012TIP3    H127000   1.722   6.833   4.205
 9012TIP3    H227001   1.772   6.784   4.071
 9013TIP3   OH227002   7.096   0.475   3.941
 9013TIP3    H127003   7.145   0.540   3.991
 9013TIP3    H227004   7.156   0.449   3.870
 9014TIP3   OH227005   1.131   3.237   5.649
 9014TIP3    H127006   1.140   3.201   5.561
 9014TIP3    H227007   1.151   3.330   5.638
 9015TIP3   OH227008   2.307   0.024   3.600
 9015TIP3    H127009   2.295   0.098   3.660
 9015TIP3    H227010   2.257  -0.048   3.640
 9016TIP3   OH227011   1.315   1.994   5.580
 9016TIP3    H127012   1.243   2.014   5.519
 9016TIP3    H227013   1.394   2.024   5.534
 9017TIP3   OH227014   6.966   6.069   2.187
 9017TIP3    H127015   6.970   5.980   2.152
 9017TIP3    H227016   6.954   6.058   2.281
 9018TIP3   OH227017   1.875   6.529   4.051
 9018TIP3    H127018   1.804   6.525   4.114
 9018TIP3    H227019   1.952   6.554   4.102
 9019TIP3   OH227020   5.497   2.918   4.235
 9019TIP3    H127021   5.581   2.938   4.277
 9019TIP3    H227022   5.521   2.879   4.151
 9020TIP3   OH227023   2.986   0.776   4.549
 9020TIP3    H127024   3.009   0.748   4.460
 9020TIP3    H227025   3.052   0.841   4.571
 9021TIP3   OH227026   5.572   6.274   2.527
 9021TIP3    H127027   5.549   6.356   2.482
 9021TIP3    H227028   5.626   6.226   2.465
 9022TIP3   OH227029   2.769   2.311   4.487
 9022TIP3    H127030   2.733   2.392   4.451
 9022TIP3    H227031   2.814   2.271   4.412
 9023TIP3   OH227032   4.582   1.879   0.459
 9023TIP3    H127033   4.546   1.968   0.464
 9023TIP3    H227034   4.677   1.892   0.465
 9024TIP3   OH227035   5.783   4.556   1.878
 9024TIP3    H127036   5.747   4.644   1.886
 9024TIP3    H227037   5.868   4.561   1.922
 9025TIP3   OH227038   5.922   3.244   2.339
 9025TIP3    H127039   5.931   3.191   2.260
 9025TIP3    H227040   5.881   3.186   2.403
 9026TIP3   OH227041   5.305   5.080   4.329
 9026TIP3    H127042   5.254   5.053   4.406
 9026TIP3    H227043   5.390   5.037   4.341
 9027TIP3   OH227044   0.609   0.551   4.824
 9027TIP3    H127045   0.526   0.598   4.834
 9027TIP3    H227046   0.675   0.612   4.858
 9028TIP3   OH227047   6.393   0.649   3.797
 9028TIP3    H127048   6.342   0.651   3.716
 9028TIP3    H227049   6.442   0.567   3.793
 9029TIP3   OH227050   0.883   3.854   5.017
 9029TIP3    H127051   0.836   3.822   4.940
 9029TIP3    H227052   0.825   3.834   5.090
 9030TIP3   OH227053   1.054   0.566   1.080
 9030TIP3    H127054   1.140   0.540   1.113
 9030TIP3    H227055   1.033   0.646   1.128
 9031TIP3   OH227056   3.316   5.194   5.030
 9031TIP3    H127057   3.397   5.147   5.014
 9031TIP3    H227058   3.341   5.287   5.030
 9032TIP3   OH227059   3.485   5.702   5.364
 9032TIP3    H127060   3.544   5.678   5.292
 9032TIP3    H227061   3.401   5.720   5.322
 9033TIP3   OH227062   4.090   1.571   4.721
 9033TIP3    H127063   4.017   1.613   4.766
 9033TIP3    H227064   4.093   1.483   4.757
 9034TIP3   OH227065   6.782   4.062   5.292
 9034TIP3    H127066   6.767   4.002   5.218
 9034TIP3    H227067   6.877   4.073   5.295
 9035TIP3   OH227068   3.496   5.242   1.215
 9035TIP3    H127069   3.516   5.311   1.151
 9035TIP3    H227070   3.561   5.254   1.284
 9036TIP3   OH227071   0.420   5.315   2.958
 9036TIP3    H127072   0.406   5.285   2.869
 9036TIP3    H227073   0.476   5.392   2.950
 9037TIP3   OH227074   6.455   4.725   0.376
 9037TIP3    H127075   6.426   4.716   0.286
 9037TIP3    H227076   6.432   4.642   0.418
 9038TIP3   OH227077   6.532   2.994   1.673
 9038TIP3    H127078   6.575   3.070   1.711
 9038TIP3    H227079   6.539   2.926   1.740
 9039TIP3   OH227080   4.134   1.971   2.562
 9039TIP3    H127081   4.178   2.035   2.506
 9039TIP3    H227082   4.051   1.954   2.518
 9040TIP3   OH227083   5.655   6.608   0.744
 9040TIP3    H127084   5.743   6.599   0.707
 9040TIP3    H227085   5.597   6.612   0.668
 9041TIP3   OH227086   5.682   3.345   4.552
 9041TIP3    H127087   5.685   3.382   4.463
 9041TIP3    H227088   5.599   3.298   4.556
 9042TIP3   OH227089   6.165   5.977   2.239
 9042TIP3    H127090   6.238   6.011   2.187
 9042TIP3    H227091   6.124   5.911   2.183
 9043TIP3   OH227092   1.557   4.234   5.414
 9043TIP3    H127093   1.464   4.234   5.390
 9043TIP3    H227094   1.601   4.271   5.338
 9044TIP3   OH227095   1.598   2.106   1.405
 9044TIP3    H127096   1.585   2.100   1.499
 9044TIP3    H227097   1.656   2.181   1.393
 9045TIP3   OH227098   6.569   4.306   4.643
 9045TIP3    H127099   6.595   4.288   4.553
 9045TIP3    H227100   6.637   4.365   4.676
 9046TIP3   OH227101   5.142   1.923   5.204
 9046TIP3    H127102   5.137   1.910   5.109
 9046TIP3    H227103   5.085   1.997   5.222
 9047TIP3   OH227104   2.134   2.613   5.016
 9047TIP3    H127105   2.039   2.602   5.003
 9047TIP3    H227106   2.157   2.687   4.960
 9048TIP3   OH227107   6.807   5.489   3.473
 9048TIP3    H127108   6.884   5.544   3.457
 9048TIP3    H227109   6.838   5.423   3.535
 9049TIP3   OH227110   6.695   3.439   1.018
 9049TIP3    H127111   6.620   3.498   1.010
 9049TIP3    H227112   6.656   3.354   1.038
 9050TIP3   OH227113   2.123   5.912   1.729
 9050TIP3    H127114   2.170   5.926   1.647
 9050TIP3    H227115   2.073   5.992   1.743
 9051TIP3   OH227116   5.507   4.895   2.896
 9051TIP3    H127117   5.481   4.931   2.811
 9051TIP3    H227118   5.466   4.808   2.898
 9052TIP3   OH227119   4.746   1.567   1.360
 9052TIP3    H127120   4.758   1.661   1.346
 9052TIP3    H227121   4.814   1.543   1.423
 9053TIP3   OH227122   0.766   1.648   5.669
 9053TIP3    H127123   0.834   1.615   5.727
 9053TIP3    H227124   0.716   1.709   5.723
 9054TIP3   OH227125   2.511   0.476   4.946
 9054TIP3    H127126   2.539   0.562   4.978
 9054TIP3    H227127   2.508   0.485   4.851
 9055TIP3   OH227128   5.257   1.894   1.469
 9055TIP3    H127129   5.196   1.942   1.526
 9055TIP3    H227130   5.200   1.848   1.407
 9056TIP3   OH227131   6.016   5.016   1.595
 9056TIP3    H127132   6.057   4.997   1.511
 9056TIP3    H227133   6.089   5.022   1.657
 9057TIP3   OH227134   1.978   1.421   0.552
 9057TIP3    H127135   2.038   1.351   0.576
 9057TIP3    H227136   2.032   1.487   0.510
 9058TIP3   OH227137   0.338   6.787   5.407
 9058TIP3    H127138   0.387   6.867   5.419
 9058TIP3    H227139   0.349   6.765   5.314
 9059TIP3   OH227140   2.859   3.709   0.748
 9059TIP3    H127141   2.924   3.770   0.782
 9059TIP3    H227142   2.878   3.626   0.793
 9060TIP3   OH227143   1.359   1.051   4.575
 9060TIP3    H127144   1.435   1.036   4.519
 9060TIP3    H227145   1.370   0.990   4.648
 9061TIP3   OH227146   6.677   5.951   5.224
 9061TIP3    H127147   6.680   5.958   5.129
 9061TIP3    H227148   6.757   5.995   5.254
 9062TIP3   OH227149   0.722   1.694   0.887
 9062TIP3    H127150   0.646   1.640   0.865
 9062TIP3    H227151   0.687   1.766   0.939
 9063TIP3   OH227152   3.451   0.973   1.172
 9063TIP3    H127153   3.505   0.949   1.097
 9063TIP3    H227154   3.361   0.962   1.142
 9064TIP3   OH227155   5.074   0.995   2.797
 9064TIP3    H127156   5.152   0.971   2.847
 9064TIP3    H227157   5.003   0.946   2.839
 9065TIP3   OH227158   4.702   1.550   3.679
 9065TIP3    H127159   4.694   1.490   3.753
 9065TIP3    H227160   4.787   1.591   3.690
 9066TIP3   OH227161   0.164   3.653   5.300
 9066TIP3    H127162   0.217   3.697   5.367
 9066TIP3    H227163   0.109   3.722   5.264
 9067TIP3   OH227164   6.175   4.458   1.736
 9067TIP3    H127165   6.082   4.436   1.732
 9067TIP3    H227166   6.207   4.411   1.814
 9068TIP3   OH227167   2.194   6.276   4.004
 9068TIP3    H127168   2.256   6.203   4.010
 9068TIP3    H227169   2.133   6.251   3.935
 9069TIP3   OH227170   6.722   1.550   3.678
 9069TIP3    H127171   6.750   1.636   3.712
 9069TIP3    H227172   6.753   1.548   3.588
 9070TIP3   OH227173   0.922   5.124   0.605
 9070TIP3    H127174   0.981   5.060   0.566
 9070TIP3    H227175   0.834   5.091   0.587
 9071TIP3   OH227176   6.130   3.267   4.828
 9071TIP3    H127177   6.064   3.199   4.842
 9071TIP3    H227178   6.168   3.281   4.914
 9072TIP3   OH227179   5.752   3.277   0.844
 9072TIP3    H127180   5.659   3.273   0.867
 9072TIP3    H227181   5.785   3.353   0.891
 9073TIP3   OH227182   2.875   4.960   2.862
 9073TIP3    H127183   2.856   4.949   2.769
 9073TIP3    H227184   2.794   4.995   2.899
 9074TIP3   OH227185   4.578   4.655   1.630
 9074TIP3    H127186   4.592   4.724   1.565
 9074TIP3    H227187   4.494   4.616   1.607
 9075TIP3   OH227188   5.754   5.390   4.536
 9075TIP3    H127189   5.780   5.301   4.515
 9075TIP3    H227190   5.663   5.383   4.565
 9076TIP3   OH227191   6.205   4.435   4.719
 9076TIP3    H127192   6.162   4.425   4.804
 9076TIP3    H227193   6.229   4.528   4.715
 9077TIP3   OH227194   5.808   4.610   4.776
 9077TIP3    H127195   5.817   4.515   4.784
 9077TIP3    H227196   5.758   4.623   4.696
 9078TIP3   OH227197   5.725   6.305   5.400
 9078TIP3    H127198   5.793   6.263   5.453
 9078TIP3    H227199   5.770   6.334   5.321
 9079TIP3   OH227200   6.615   2.898   0.505
 9079TIP3    H127201   6.615   2.993   0.494
 9079TIP3    H227202   6.688   2.881   0.564
 9080TIP3   OH227203   2.323   0.789   1.575
 9080TIP3    H127204   2.277   0.873   1.577
 9080TIP3    H227205   2.321   0.764   1.483
 9081TIP3   OH227206   0.191   2.974   5.106
 9081TIP3    H127207   0.153   3.060   5.086
 9081TIP3    H227208   0.236   2.987   5.189
 9082TIP3   OH227209   0.387   2.404   4.469
 9082TIP3    H127210   0.353   2.317   4.488
 9082TIP3    H227211   0.377   2.413   4.374
 9083TIP3   OH227212   6.342   2.069   5.649
 9083TIP3    H127213   6.257   2.026   5.639
 9083TIP3    H227214   6.337   2.112   5.735
 9084TIP3   OH227215   3.836   4.010   5.440
 9084TIP3    H127216   3.811   4.052   5.522
 9084TIP3    H227217   3.928   3.986   5.452
 9085TIP3   OH227218   0.874   3.932   0.895
 9085TIP3    H127219   0.894   3.943   0.802
 9085TIP3    H227220   0.833   3.846   0.900
 9086TIP3   OH227221   1.604   3.209   4.715
 9086TIP3    H127222   1.563   3.206   4.629
 9086TIP3    H227223   1.541   3.253   4.771
 9087TIP3   OH227224   4.993   3.815   4.317
 9087TIP3    H127225   4.975   3.730   4.358
 9087TIP3    H227226   5.029   3.793   4.231
 9088TIP3   OH227227   3.688   2.815   2.041
 9088TIP3    H127228   3.742   2.894   2.034
 9088TIP3    H227229   3.751   2.744   2.044
 9089TIP3   OH227230   6.989   4.978   1.224
 9089TIP3    H127231   7.040   5.054   1.252
 9089TIP3    H227232   7.028   4.904   1.269
 9090TIP3   OH227233   3.991   3.615   0.805
 9090TIP3    H127234   4.027   3.534   0.771
 9090TIP3    H227235   3.913   3.631   0.753
 9091TIP3   OH227236   2.530   5.178   1.139
 9091TIP3    H127237   2.570   5.234   1.072
 9091TIP3    H227238   2.604   5.143   1.188
 9092TIP3   OH227239   0.849   1.254   3.299
 9092TIP3    H127240   0.830   1.183   3.360
 9092TIP3    H227241   0.844   1.214   3.212
 9093TIP3   OH227242   1.014   2.899   1.112
 9093TIP3    H127243   0.987   2.871   1.025
 9093TIP3    H227244   1.027   2.994   1.105
 9094TIP3   OH227245   0.175   6.419   1.263
 9094TIP3    H127246   0.258   6.467   1.266
 9094TIP3    H227247   0.197   6.336   1.220
 9095TIP3   OH227248   0.334   0.157   3.478
 9095TIP3    H127249   0.240   0.158   3.460
 9095TIP3    H227250   0.340   0.182   3.570
 9096TIP3   OH227251   6.779   5.258   2.868
 9096TIP3    H127252   6.814   5.347   2.872
 9096TIP3    H227253   6.856   5.202   2.880
 9097TIP3   OH227254   6.732   0.463   2.573
 9097TIP3    H127255   6.718   0.517   2.495
 9097TIP3    H227256   6.816   0.492   2.608
 9098TIP3   OH227257   0.361   0.909   5.002
 9098TIP3    H127258   0.326   0.848   5.067
 9098TIP3    H227259   0.370   0.856   4.922
 9099TIP3   OH227260   1.077   3.011   0.208
 9099TIP3    H127261   0.986   2.985   0.216
 9099TIP3    H227262   1.126   2.929   0.206
 9100TIP3   OH227263   4.286   5.431   1.350
 9100TIP3    H127264   4.255   5.511   1.307
 9100TIP3    H227265   4.218   5.366   1.330
 9101TIP3   OH227266   6.331   4.479   0.564
 9101TIP3    H127267   6.370   4.509   0.646
 9101TIP3    H227268   6.348   4.385   0.562
 9102TIP3   OH227269   3.137   0.311   5.048
 9102TIP3    H127270   3.137   0.387   5.106
 9102TIP3    H227271   3.067   0.256   5.082
 9103TIP3   OH227272   0.994   2.103   2.151
 9103TIP3    H127273   1.048   2.088   2.073
 9103TIP3    H227274   1.046   2.161   2.206
 9104TIP3   OH227275   4.641   6.487   4.189
 9104TIP3    H127276   4.650   6.511   4.281
 9104TIP3    H227277   4.725   6.445   4.167
 9105TIP3   OH227278   3.973   1.090   2.385
 9105TIP3    H127279   4.049   1.053   2.429
 9105TIP3    H227280   3.961   1.176   2.425
 9106TIP3   OH227281   6.025   5.480   2.737
 9106TIP3    H127282   5.931   5.475   2.757
 9106TIP3    H227283   6.067   5.436   2.810
 9107TIP3   OH227284   0.651   5.937   0.228
 9107TIP3    H127285   0.579   5.908   0.172
 9107TIP3    H227286   0.642   5.885   0.308
 9108TIP3   OH227287   2.923   1.464   2.724
 9108TIP3    H127288   2.899   1.375   2.747
 9108TIP3    H227289   3.016   1.470   2.745
 9109TIP3   OH227290   3.342   3.920   3.963
 9109TIP3    H127291   3.340   3.888   3.872
 9109TIP3    H227292   3.415   3.981   3.965
 9110TIP3   OH227293   3.133   2.576   5.632
 9110TIP3    H127294   3.215   2.530   5.650
 9110TIP3    H227295   3.159   2.650   5.578
 9111TIP3   OH227296   7.049   0.249   0.160
 9111TIP3    H127297   7.060   0.164   0.203
 9111TIP3    H227298   6.970   0.239   0.107
 9112TIP3   OH227299   2.272   4.973   1.703
 9112TIP3    H127300   2.209   5.034   1.663
 9112TIP3    H227301   2.254   4.889   1.661
 9113TIP3   OH227302   3.663   2.269   1.026
 9113TIP3    H127303   3.570   2.279   1.047
 9113TIP3    H227304   3.691   2.357   1.000
 9114TIP3   OH227305   3.696   6.037   4.453
 9114TIP3    H127306   3.607   6.040   4.417
 9114TIP3    H227307   3.687   6.070   4.543
 9115TIP3   OH227308   5.588   0.289   5.585
 9115TIP3    H127309   5.671   0.275   5.540
 9115TIP3    H227310   5.592   0.232   5.662
 9116TIP3   OH227311   3.019   4.192   5.015
 9116TIP3    H127312   2.986   4.258   4.954
 9116TIP3    H227313   3.060   4.127   4.959
 9117TIP3   OH227314   5.251   5.891   5.502
 9117TIP3    H127315   5.237   5.881   5.408
 9117TIP3    H227316   5.325   5.950   5.510
 9118TIP3   OH227317   6.338   0.548   4.907
 9118TIP3    H127318   6.326   0.621   4.846
 9118TIP3    H227319   6.357   0.473   4.851
 9119TIP3   OH227320   1.385   3.770   2.066
 9119TIP3    H127321   1.310   3.712   2.073
 9119TIP3    H227322   1.421   3.752   1.979
 9120TIP3   OH227323   4.636   6.113   4.034
 9120TIP3    H127324   4.692   6.054   3.984
 9120TIP3    H227325   4.574   6.148   3.970
 9121TIP3   OH227326   1.035   3.227   0.587
 9121TIP3    H127327   1.081   3.230   0.671
 9121TIP3    H227328   1.085   3.286   0.530
 9122TIP3   OH227329   4.371   4.549   2.492
 9122TIP3    H127330   4.417   4.563   2.575
 9122TIP3    H227331   4.306   4.619   2.488
 9123TIP3   OH227332   6.159   6.310   1.883
 9123TIP3    H127333   6.076   6.323   1.930
 9123TIP3    H227334   6.158   6.377   1.815
 9124TIP3   OH227335   2.152   5.881   3.497
 9124TIP3    H127336   2.075   5.883   3.440
 9124TIP3    H227337   2.214   5.823   3.452
 9125TIP3   OH227338   4.232   2.694   4.958
 9125TIP3    H127339   4.143   2.670   4.985
 9125TIP3    H227340   4.219   2.760   4.891
 9126TIP3   OH227341   4.296   1.919   0.350
 9126TIP3    H127342   4.216   1.941   0.303
 9126TIP3    H227343   4.347   2.000   0.350
 9127TIP3   OH227344   6.003   3.201   1.551
 9127TIP3    H127345   5.927   3.157   1.590
 9127TIP3    H227346   6.079   3.153   1.585
 9128TIP3   OH227347   1.416   5.982   0.872
 9128TIP3    H127348   1.481   5.980   0.802
 9128TIP3    H227349   1.392   6.075   0.879
 9129TIP3   OH227350   1.363   4.883   1.271
 9129TIP3    H127351   1.404   4.838   1.345
 9129TIP3    H227352   1.330   4.813   1.216
 9130TIP3   OH227353   0.718   4.465   1.112
 9130TIP3    H127354   0.788   4.520   1.075
 9130TIP3    H227355   0.669   4.525   1.168
 9131TIP3   OH227356   0.373   3.504   5.741
 9131TIP3    H127357   0.399   3.433   5.682
 9131TIP3    H227358   0.451   3.519   5.795
 9132TIP3   OH227359   6.067   2.809   1.665
 9132TIP3    H127360   6.073   2.715   1.651
 9132TIP3    H227361   5.979   2.822   1.700
 9133TIP3   OH227362   2.902   3.353   4.669
 9133TIP3    H127363   2.835   3.375   4.604
 9133TIP3    H227364   2.982   3.341   4.617
 9134TIP3   OH227365   1.257   3.494   5.664
 9134TIP3    H127366   1.314   3.503   5.588
 9134TIP3    H227367   1.169   3.485   5.628
 9135TIP3   OH227368   4.823   5.931   0.415
 9135TIP3    H127369   4.887   6.002   0.414
 9135TIP3    H227370   4.870   5.857   0.453
 9136TIP3   OH227371   7.068   0.369   2.935
 9136TIP3    H127372   7.129   0.358   2.862
 9136TIP3    H227373   6.983   0.344   2.900
 9137TIP3   OH227374   1.254   6.509   3.323
 9137TIP3    H127375   1.312   6.557   3.264
 9137TIP3    H227376   1.302   6.507   3.407
 9138TIP3   OH227377   3.636   3.277   0.642
 9138TIP3    H127378   3.569   3.226   0.689
 9138TIP3    H227379   3.685   3.322   0.711
 9139TIP3   OH227380   4.088   3.227   4.617
 9139TIP3    H127381   4.008   3.268   4.649
 9139TIP3    H227382   4.072   3.212   4.523
 9140TIP3   OH227383   5.324   4.048   4.918
 9140TIP3    H127384   5.293   4.032   5.007
 9140TIP3    H227385   5.245   4.064   4.867
 9141TIP3   OH227386   4.710   4.289   3.364
 9141TIP3    H127387   4.739   4.376   3.394
 9141TIP3    H227388   4.786   4.254   3.318
 9142TIP3   OH227389   5.896   5.930   5.691
 9142TIP3    H127390   5.902   5.837   5.712
 9142TIP3    H227391   5.934   5.975   5.767
 9143TIP3   OH227392   0.386   0.469   3.384
 9143TIP3    H127393   0.331   0.395   3.357
 9143TIP3    H227394   0.475   0.433   3.385
 9144TIP3   OH227395   6.133   1.067   3.585
 9144TIP3    H127396   6.050   1.105   3.615
 9144TIP3    H227397   6.108   0.984   3.544
 9145TIP3   OH227398   6.409   0.430   4.065
 9145TIP3    H127399   6.408   0.336   4.082
 9145TIP3    H227400   6.497   0.458   4.089
 9146TIP3   OH227401   5.253   4.299   2.184
 9146TIP3    H127402   5.312   4.314   2.258
 9146TIP3    H227403   5.279   4.214   2.149
 9147TIP3   OH227404   0.597   2.243   0.801
 9147TIP3    H127405   0.635   2.259   0.715
 9147TIP3    H227406   0.654   2.289   0.862
 9148TIP3   OH227407   6.857   5.971   2.677
 9148TIP3    H127408   6.940   5.954   2.722
 9148TIP3    H227409   6.825   5.884   2.652
 9149TIP3   OH227410   0.548   0.097   5.291
 9149TIP3    H127411   0.608   0.169   5.309
 9149TIP3    H227412   0.587   0.022   5.335
 9150TIP3   OH227413   6.916   5.306   1.454
 9150TIP3    H127414   6.984   5.238   1.456
 9150TIP3    H227415   6.914   5.334   1.362
 9151TIP3   OH227416   3.486   5.632   0.406
 9151TIP3    H127417   3.497   5.598   0.317
 9151TIP3    H227418   3.523   5.720   0.403
 9152TIP3   OH227419   0.905   6.801   2.747
 9152TIP3    H127420   0.912   6.715   2.705
 9152TIP3    H227421   0.983   6.807   2.802
 9153TIP3   OH227422   1.997   1.236   1.707
 9153TIP3    H127423   2.080   1.241   1.755
 9153TIP3    H227424   1.931   1.259   1.771
 9154TIP3   OH227425   0.463   2.590   0.983
 9154TIP3    H127426   0.556   2.604   0.999
 9154TIP3    H227427   0.419   2.652   1.042
 9155TIP3   OH227428   1.286   2.881   4.175
 9155TIP3    H127429   1.378   2.894   4.196
 9155TIP3    H227430   1.250   2.836   4.251
 9156TIP3   OH227431   3.030   2.988   5.427
 9156TIP3    H127432   3.029   2.924   5.498
 9156TIP3    H227433   2.939   3.017   5.420
 9157TIP3   OH227434   6.009   6.724   3.363
 9157TIP3    H127435   6.084   6.671   3.390
 9157TIP3    H227436   6.047   6.807   3.336
 9158TIP3   OH227437   3.426   3.859   1.843
 9158TIP3    H127438   3.515   3.837   1.869
 9158TIP3    H227439   3.424   3.842   1.749
 9159TIP3   OH227440   6.857   0.799   3.237
 9159TIP3    H127441   6.774   0.777   3.279
 9159TIP3    H227442   6.917   0.731   3.268
 9160TIP3   OH227443   1.593   2.009   1.668
 9160TIP3    H127444   1.526   1.941   1.675
 9160TIP3    H227445   1.672   1.969   1.705
 9161TIP3   OH227446   6.702   1.351   5.863
 9161TIP3    H127447   6.622   1.302   5.844
 9161TIP3    H227448   6.750   1.354   5.780
 9162TIP3   OH227449   1.705   2.027   3.540
 9162TIP3    H127450   1.618   2.039   3.502
 9162TIP3    H227451   1.711   1.933   3.559
 9163TIP3   OH227452   2.955   5.169   3.984
 9163TIP3    H127453   2.959   5.172   3.889
 9163TIP3    H227454   2.932   5.258   4.010
 9164TIP3   OH227455   3.442   4.066   5.555
 9164TIP3    H127456   3.365   4.010   5.548
 9164TIP3    H227457   3.415   4.137   5.613
 9165TIP3   OH227458   1.263   3.399   1.440
 9165TIP3    H127459   1.338   3.434   1.489
 9165TIP3    H227460   1.213   3.477   1.415
 9166TIP3   OH227461   3.128   0.404   2.500
 9166TIP3    H127462   3.169   0.490   2.506
 9166TIP3    H227463   3.043   0.421   2.457
 9167TIP3   OH227464   5.780   4.587   3.383
 9167TIP3    H127465   5.753   4.615   3.295
 9167TIP3    H227466   5.820   4.501   3.370
 9168TIP3   OH227467   1.058   3.958   2.340
 9168TIP3    H127468   1.146   3.946   2.376
 9168TIP3    H227469   1.002   3.906   2.397
 9169TIP3   OH227470   1.515   3.179   1.451
 9169TIP3    H127471   1.548   3.246   1.511
 9169TIP3    H227472   1.574   3.183   1.376
 9170TIP3   OH227473   2.935   2.052   3.014
 9170TIP3    H127474   2.985   2.092   3.085
 9170TIP3    H227475   2.912   2.125   2.956
 9171TIP3   OH227476   5.039   3.561   0.991
 9171TIP3    H127477   5.039   3.657   0.995
 9171TIP3    H227478   4.977   3.540   0.921
 9172TIP3   OH227479   5.687   2.215   5.026
 9172TIP3    H127480   5.613   2.161   4.998
 9172TIP3    H227481   5.761   2.154   5.029
 9173TIP3   OH227482   3.807   4.685   2.281
 9173TIP3    H127483   3.807   4.747   2.354
 9173TIP3    H227484   3.716   4.657   2.273
 9174TIP3   OH227485   3.477   2.652   3.092
 9174TIP3    H127486   3.508   2.568   3.058
 9174TIP3    H227487   3.382   2.644   3.094
 9175TIP3   OH227488   0.297   3.207   4.137
 9175TIP3    H127489   0.383   3.177   4.107
 9175TIP3    H227490   0.262   3.256   4.062
 9176TIP3   OH227491   5.895   6.364   5.207
 9176TIP3    H127492   5.943   6.435   5.250
 9176TIP3    H227493   5.888   6.392   5.116
 9177TIP3   OH227494   0.482   4.654   2.537
 9177TIP3    H127495   0.484   4.581   2.599
 9177TIP3    H227496   0.428   4.623   2.464
 9178TIP3   OH227497   0.261   3.652   3.124
 9178TIP3    H127498   0.279   3.713   3.196
 9178TIP3    H227499   0.320   3.578   3.141
 9179TIP3   OH227500   3.509   2.592   0.129
 9179TIP3    H127501   3.437   2.656   0.125
 9179TIP3    H227502   3.477   2.525   0.190
 9180TIP3   OH227503   5.918   2.737   1.261
 9180TIP3    H127504   5.921   2.734   1.165
 9180TIP3    H227505   5.984   2.675   1.290
 9181TIP3   OH227506   6.835   2.192   2.418
 9181TIP3    H127507   6.769   2.261   2.416
 9181TIP3    H227508   6.798   2.124   2.473
 9182TIP3   OH227509   0.118   5.214   2.856
 9182TIP3    H127510   0.193   5.263   2.888
 9182TIP3    H227511   0.150   5.170   2.777
 9183TIP3   OH227512   3.454   6.227   3.840
 9183TIP3    H127513   3.509   6.155   3.871
 9183TIP3    H227514   3.498   6.306   3.871
 9184TIP3   OH227515   1.086   4.674   1.356
 9184TIP3    H127516   1.049   4.630   1.432
 9184TIP3    H227517   1.132   4.605   1.309
 9185TIP3   OH227518   5.875   5.458   5.718
 9185TIP3    H127519   5.910   5.372   5.696
 9185TIP3    H227520   5.792   5.440   5.762
 9186TIP3   OH227521   4.843   2.856   3.083
 9186TIP3    H127522   4.794   2.778   3.109
 9186TIP3    H227523   4.882   2.888   3.164
 9187TIP3   OH227524   4.167   4.259   5.317
 9187TIP3    H127525   4.075   4.231   5.312
 9187TIP3    H227526   4.181   4.309   5.237
 9188TIP3   OH227527   7.129   4.278   0.019
 9188TIP3    H127528   7.209   4.278   0.070
 9188TIP3    H227529   7.066   4.230   0.073
 9189TIP3   OH227530   7.175   4.897   2.807
 9189TIP3    H127531   7.254   4.877   2.756
 9189TIP3    H227532   7.155   4.815   2.853
 9190TIP3   OH227533   1.671   5.905   1.739
 9190TIP3    H127534   1.611   5.863   1.801
 9190TIP3    H227535   1.615   5.931   1.666
 9191TIP3   OH227536   6.504   1.331   0.669
 9191TIP3    H127537   6.437   1.286   0.722
 9191TIP3    H227538   6.507   1.420   0.704
 9192TIP3   OH227539   6.237   5.766   3.466
 9192TIP3    H127540   6.272   5.848   3.431
 9192TIP3    H227541   6.144   5.768   3.443
 9193TIP3   OH227542   3.535   4.122   2.726
 9193TIP3    H127543   3.621   4.158   2.748
 9193TIP3    H227544   3.531   4.128   2.630
 9194TIP3   OH227545   0.342   3.831   5.409
 9194TIP3    H127546   0.354   3.790   5.495
 9194TIP3    H227547   0.371   3.921   5.421
 9195TIP3   OH227548   5.943   0.835   2.910
 9195TIP3    H127549   5.996   0.756   2.902
 9195TIP3    H227550   5.858   0.803   2.942
 9196TIP3   OH227551   5.592   5.947   1.994
 9196TIP3    H127552   5.614   5.911   1.908
 9196TIP3    H227553   5.629   6.036   1.992
 9197TIP3   OH227554   3.161   2.439   3.905
 9197TIP3    H127555   3.191   2.383   3.834
 9197TIP3    H227556   3.067   2.449   3.892
 9198TIP3   OH227557   3.407   3.194   1.878
 9198TIP3    H127558   3.482   3.146   1.915
 9198TIP3    H227559   3.395   3.268   1.936
 9199TIP3   OH227560   6.534   4.776   2.838
 9199TIP3    H127561   6.619   4.812   2.810
 9199TIP3    H227562   6.474   4.803   2.769
 9200TIP3   OH227563   5.824   4.047   4.876
 9200TIP3    H127564   5.857   4.013   4.960
 9200TIP3    H227565   5.729   4.045   4.884
 9201TIP3   OH227566   6.316   1.812   1.718
 9201TIP3    H127567   6.290   1.812   1.810
 9201TIP3    H227568   6.377   1.739   1.710
 9202TIP3   OH227569   5.013   5.115   4.524
 9202TIP3    H127570   4.924   5.090   4.546
 9202TIP3    H227571   5.064   5.034   4.531
 9203TIP3   OH227572   4.586   4.226   2.284
 9203TIP3    H127573   4.643   4.224   2.207
 9203TIP3    H227574   4.522   4.295   2.264
 9204TIP3   OH227575   6.700   2.044   5.245
 9204TIP3    H127576   6.648   2.079   5.318
 9204TIP3    H227577   6.747   2.119   5.210
 9205TIP3   OH227578   2.915   5.680   2.841
 9205TIP3    H127579   2.992   5.628   2.865
 9205TIP3    H227580   2.847   5.615   2.826
 9206TIP3   OH227581   3.412   0.254   0.221
 9206TIP3    H127582   3.429   0.273   0.313
 9206TIP3    H227583   3.367   0.170   0.222
 9207TIP3   OH227584   2.404   5.316   3.406
 9207TIP3    H127585   2.390   5.237   3.459
 9207TIP3    H227586   2.489   5.301   3.364
 9208TIP3   OH227587   2.330   2.079   4.394
 9208TIP3    H127588   2.331   1.999   4.340
 9208TIP3    H227589   2.422   2.097   4.412
 9209TIP3   OH227590   0.673   0.545   4.011
 9209TIP3    H127591   0.627   0.508   4.086
 9209TIP3    H227592   0.604   0.575   3.952
 9210TIP3   OH227593   6.967   0.774   4.092
 9210TIP3    H127594   6.983   0.685   4.122
 9210TIP3    H227595   6.875   0.791   4.113
 9211TIP3   OH227596   3.662   0.261   1.514
 9211TIP3    H127597   3.586   0.318   1.526
 9211TIP3    H227598   3.651   0.191   1.577
 9212TIP3   OH227599   2.662   2.290   0.331
 9212TIP3    H127600   2.742   2.318   0.376
 9212TIP3    H227601   2.661   2.341   0.250
 9213TIP3   OH227602   1.587   0.295   4.140
 9213TIP3    H127603   1.605   0.309   4.233
 9213TIP3    H227604   1.499   0.329   4.126
 9214TIP3   OH227605   2.927   2.242   0.803
 9214TIP3    H127606   2.936   2.256   0.898
 9214TIP3    H227607   2.882   2.159   0.795
 9215TIP3   OH227608   4.249   1.146   1.900
 9215TIP3    H127609   4.301   1.164   1.822
 9215TIP3    H227610   4.185   1.081   1.872
 9216TIP3   OH227611   3.872   5.930   0.591
 9216TIP3    H127612   3.830   6.016   0.593
 9216TIP3    H227613   3.960   5.946   0.627
 9217TIP3   OH227614   6.784   0.440   3.193
 9217TIP3    H127615   6.842   0.458   3.267
 9217TIP3    H227616   6.808   0.351   3.165
 9218TIP3   OH227617   5.104   3.709   3.102
 9218TIP3    H127618   5.015   3.709   3.138
 9218TIP3    H227619   5.095   3.753   3.017
 9219TIP3   OH227620   3.149   3.045   3.323
 9219TIP3    H127621   3.075   3.019   3.378
 9219TIP3    H227622   3.208   3.091   3.383
 9220TIP3   OH227623   4.909   0.926   2.130
 9220TIP3    H127624   4.980   0.880   2.174
 9220TIP3    H227625   4.829   0.887   2.166
 9221TIP3   OH227626   4.024   0.698   0.370
 9221TIP3    H127627   4.100   0.739   0.329
 9221TIP3    H227628   4.059   0.657   0.449
 9222TIP3   OH227629   4.210   2.099   4.847
 9222TIP3    H127630   4.165   2.034   4.793
 9222TIP3    H227631   4.152   2.113   4.921
 9223TIP3   OH227632   3.106   4.997   2.593
 9223TIP3    H127633   3.030   4.938   2.595
 9223TIP3    H227634   3.085   5.065   2.657
 9224TIP3   OH227635   2.037   6.389   0.887
 9224TIP3    H127636   2.131   6.390   0.872
 9224TIP3    H227637   2.016   6.476   0.919
 9225TIP3   OH227638   2.845   6.059   4.000
 9225TIP3    H127639   2.923   6.003   3.993
 9225TIP3    H227640   2.855   6.122   3.929
 9226TIP3   OH227641   5.029   1.557   1.181
 9226TIP3    H127642   5.091   1.493   1.147
 9226TIP3    H227643   4.944   1.530   1.145
 9227TIP3   OH227644   4.939   6.729   3.723
 9227TIP3    H127645   4.989   6.657   3.763
 9227TIP3    H227646   4.873   6.751   3.788
 9228TIP3   OH227647   0.241   1.733   3.403
 9228TIP3    H127648   0.255   1.813   3.453
 9228TIP3    H227649   0.317   1.678   3.423
 9229TIP3   OH227650   4.053   4.345   2.190
 9229TIP3    H127651   4.079   4.369   2.279
 9229TIP3    H227652   4.102   4.264   2.172
 9230TIP3   OH227653   5.341   2.408   5.367
 9230TIP3    H127654   5.373   2.347   5.433
 9230TIP3    H227655   5.413   2.416   5.304
 9231TIP3   OH227656   3.131   0.167   0.961
 9231TIP3    H127657   3.126   0.082   0.918
 9231TIP3    H227658   3.225   0.186   0.965
 9232TIP3   OH227659   6.486   3.958   5.615
 9232TIP3    H127660   6.433   3.993   5.686
 9232TIP3    H227661   6.422   3.926   5.551
 9233TIP3   OH227662   0.272   3.722   2.854
 9233TIP3    H127663   0.283   3.648   2.914
 9233TIP3    H227664   0.298   3.798   2.906
 9234TIP3   OH227665   6.511   5.919   3.466
 9234TIP3    H127666   6.588   5.954   3.422
 9234TIP3    H227667   6.518   5.824   3.455
 9235TIP3   OH227668   6.672   2.153   3.678
 9235TIP3    H127669   6.624   2.094   3.620
 9235TIP3    H227670   6.608   2.175   3.746
 9236TIP3   OH227671   5.706   4.605   5.599
 9236TIP3    H127672   5.661   4.644   5.524
 9236TIP3    H227673   5.729   4.517   5.569
 9237TIP3   OH227674   0.994   2.286   0.667
 9237TIP3    H127675   1.090   2.287   0.660
 9237TIP3    H227676   0.974   2.204   0.712
 9238TIP3   OH227677   1.208   1.210   0.466
 9238TIP3    H127678   1.155   1.282   0.433
 9238TIP3    H227679   1.171   1.131   0.425
 9239TIP3   OH227680   3.551   0.676   1.235
 9239TIP3    H127681   3.482   0.633   1.285
 9239TIP3    H227682   3.558   0.763   1.274
 9240TIP3   OH227683   5.060   1.801   1.291
 9240TIP3    H127684   4.970   1.830   1.275
 9240TIP3    H227685   5.057   1.706   1.275
 9241TIP3   OH227686   4.690   2.384   2.798
 9241TIP3    H127687   4.671   2.476   2.782
 9241TIP3    H227688   4.774   2.369   2.755
 9242TIP3   OH227689   0.277   5.011   5.887
 9242TIP3    H127690   0.221   5.023   5.963
 9242TIP3    H227691   0.227   4.954   5.829
 9243TIP3   OH227692   3.499   3.011   2.807
 9243TIP3    H127693   3.480   3.104   2.792
 9243TIP3    H227694   3.414   2.972   2.828
 9244TIP3   OH227695   6.227   6.737   4.768
 9244TIP3    H127696   6.132   6.741   4.768
 9244TIP3    H227697   6.254   6.802   4.833
 9245TIP3   OH227698   0.643   0.305   0.865
 9245TIP3    H127699   0.670   0.397   0.856
 9245TIP3    H227700   0.725   0.256   0.861
 9246TIP3   OH227701   5.475   4.672   2.280
 9246TIP3    H127702   5.466   4.693   2.372
 9246TIP3    H227703   5.511   4.583   2.279
 9247TIP3   OH227704   0.355   0.234   2.656
 9247TIP3    H127705   0.431   0.251   2.601
 9247TIP3    H227706   0.389   0.180   2.728
 9248TIP3   OH227707   5.503   3.484   1.833
 9248TIP3    H127708   5.593   3.491   1.800
 9248TIP3    H227709   5.504   3.537   1.913
 9249TIP3   OH227710   1.285   3.187   4.477
 9249TIP3    H127711   1.215   3.219   4.533
 9249TIP3    H227712   1.249   3.192   4.388
 9250TIP3   OH227713   5.919   5.121   3.024
 9250TIP3    H127714   5.947   5.077   2.943
 9250TIP3    H227715   5.826   5.103   3.031
 9251TIP3   OH227716   3.294   2.334   3.131
 9251TIP3    H127717   3.271   2.403   3.194
 9251TIP3    H227718   3.384   2.311   3.153
 9252TIP3   OH227719   2.937   4.383   4.319
 9252TIP3    H127720   2.899   4.373   4.232
 9252TIP3    H227721   3.026   4.413   4.303
 9253TIP3   OH227722   1.348   3.495   2.943
 9253TIP3    H127723   1.355   3.583   2.980
 9253TIP3    H227724   1.399   3.439   3.001
 9254TIP3   OH227725   6.309   4.697   4.335
 9254TIP3    H127726   6.256   4.693   4.415
 9254TIP3    H227727   6.350   4.783   4.337
 9255TIP3   OH227728   4.242   0.733   2.526
 9255TIP3    H127729   4.325   0.708   2.567
 9255TIP3    H227730   4.178   0.672   2.562
 9256TIP3   OH227731   0.505   5.769   4.297
 9256TIP3    H127732   0.515   5.717   4.376
 9256TIP3    H227733   0.410   5.771   4.281
 9257TIP3   OH227734   5.877   2.636   2.533
 9257TIP3    H127735   5.832   2.721   2.530
 9257TIP3    H227736   5.932   2.635   2.455
 9258TIP3   OH227737   4.772   4.173   2.064
 9258TIP3    H127738   4.837   4.116   2.023
 9258TIP3    H227739   4.758   4.243   2.000
 9259TIP3   OH227740   1.779   4.100   1.376
 9259TIP3    H127741   1.684   4.113   1.380
 9259TIP3    H227742   1.812   4.141   1.455
 9260TIP3   OH227743   3.478   3.172   2.365
 9260TIP3    H127744   3.448   3.236   2.430
 9260TIP3    H227745   3.489   3.091   2.415
 9261TIP3   OH227746   5.752   5.394   5.319
 9261TIP3    H127747   5.751   5.339   5.397
 9261TIP3    H227748   5.833   5.445   5.327
 9262TIP3   OH227749   3.839   2.174   1.209
 9262TIP3    H127750   3.842   2.084   1.175
 9262TIP3    H227751   3.779   2.220   1.152
 9263TIP3   OH227752   2.166   4.925   0.463
 9263TIP3    H127753   2.147   4.849   0.408
 9263TIP3    H227754   2.115   4.910   0.542
 9264TIP3   OH227755   2.282   3.257   1.503
 9264TIP3    H127756   2.298   3.163   1.497
 9264TIP3    H227757   2.365   3.297   1.477
 9265TIP3   OH227758   3.829   6.139   2.549
 9265TIP3    H127759   3.840   6.175   2.637
 9265TIP3    H227760   3.735   6.149   2.531
 9266TIP3   OH227761   2.557   3.104   4.828
 9266TIP3    H127762   2.601   3.120   4.912
 9266TIP3    H227763   2.464   3.108   4.849
 9267TIP3   OH227764   5.565   1.904   0.305
 9267TIP3    H127765   5.573   2.000   0.303
 9267TIP3    H227766   5.519   1.883   0.223
 9268TIP3   OH227767   1.981   0.784   3.864
 9268TIP3    H127768   1.964   0.785   3.770
 9268TIP3    H227769   1.999   0.693   3.885
 9269TIP3   OH227770   6.918   3.073   4.159
 9269TIP3    H127771   6.951   3.159   4.185
 9269TIP3    H227772   6.984   3.011   4.191
 9270TIP3   OH227773   3.930   1.605   5.882
 9270TIP3    H127774   3.942   1.700   5.876
 9270TIP3    H227775   3.859   1.586   5.821
 9271TIP3   OH227776   1.171   3.580   2.066
 9271TIP3    H127777   1.165   3.487   2.046
 9271TIP3    H227778   1.169   3.585   2.162
 9272TIP3   OH227779   7.035   0.457   0.330
 9272TIP3    H127780   7.036   0.386   0.266
 9272TIP3    H227781   7.105   0.435   0.392
 9273TIP3   OH227782   1.839   4.044   4.124
 9273TIP3    H127783   1.862   4.045   4.217
 9273TIP3    H227784   1.773   3.975   4.116
 9274TIP3   OH227785   1.711   6.633   5.742
 9274TIP3    H127786   1.714   6.727   5.764
 9274TIP3    H227787   1.757   6.627   5.658
 9275TIP3   OH227788   5.292   4.087   0.347
 9275TIP3    H127789   5.329   4.168   0.312
 9275TIP3    H227790   5.367   4.041   0.386
 9276TIP3   OH227791   1.770   6.416   0.346
 9276TIP3    H127792   1.806   6.502   0.324
 9276TIP3    H227793   1.805   6.397   0.433
 9277TIP3   OH227794   5.057   0.147   4.271
 9277TIP3    H127795   5.114   0.071   4.267
 9277TIP3    H227796   4.984   0.120   4.327
 9278TIP3   OH227797   5.813   2.949   3.678
 9278TIP3    H127798   5.848   2.978   3.762
 9278TIP3    H227799   5.749   2.881   3.701
 9279TIP3   OH227800   6.471   5.847   2.527
 9279TIP3    H127801   6.411   5.916   2.555
 9279TIP3    H227802   6.510   5.880   2.446
 9280TIP3   OH227803   6.949   3.583   3.931
 9280TIP3    H127804   6.915   3.637   3.860
 9280TIP3    H227805   6.880   3.518   3.947
 9281TIP3   OH227806   4.237   2.865   2.406
 9281TIP3    H127807   4.198   2.933   2.460
 9281TIP3    H227808   4.261   2.909   2.324
 9282TIP3   OH227809   4.094   1.789   3.079
 9282TIP3    H127810   4.085   1.882   3.058
 9282TIP3    H227811   4.056   1.743   3.003
 9283TIP3   OH227812   2.230   6.299   1.623
 9283TIP3    H127813   2.172   6.363   1.581
 9283TIP3    H227814   2.175   6.222   1.637
 9284TIP3   OH227815   6.039   4.565   2.032
 9284TIP3    H127816   6.124   4.529   2.058
 9284TIP3    H227817   6.059   4.621   1.957
 9285TIP3   OH227818   0.364   5.992   3.389
 9285TIP3    H127819   0.317   5.910   3.374
 9285TIP3    H227820   0.446   5.982   3.340
 9286TIP3   OH227821   4.408   0.231   2.906
 9286TIP3    H127822   4.368   0.311   2.870
 9286TIP3    H227823   4.469   0.202   2.838
 9287TIP3   OH227824   5.812   4.050   3.789
 9287TIP3    H127825   5.872   4.074   3.859
 9287TIP3    H227826   5.819   4.122   3.726
 9288TIP3   OH227827   6.335   4.079   1.437
 9288TIP3    H127828   6.313   4.172   1.450
 9288TIP3    H227829   6.307   4.037   1.518
 9289TIP3   OH227830   4.208   1.000   2.512
 9289TIP3    H127831   4.270   1.019   2.583
 9289TIP3    H227832   4.218   0.906   2.496
 9290TIP3   OH227833   1.199   6.308   4.101
 9290TIP3    H127834   1.195   6.331   4.194
 9290TIP3    H227835   1.120   6.257   4.086
 9291TIP3   OH227836   2.444   1.500   3.924
 9291TIP3    H127837   2.446   1.513   4.019
 9291TIP3    H227838   2.387   1.570   3.892
 9292TIP3   OH227839   5.545   2.826   2.007
 9292TIP3    H127840   5.567   2.765   1.936
 9292TIP3    H227841   5.605   2.899   1.995
 9293TIP3   OH227842   5.464   3.769   1.273
 9293TIP3    H127843   5.407   3.808   1.207
 9293TIP3    H227844   5.553   3.790   1.245
 9294TIP3   OH227845   0.187   0.726   5.486
 9294TIP3    H127846   0.173   0.777   5.406
 9294TIP3    H227847   0.282   0.719   5.494
 9295TIP3   OH227848   5.497   5.770   5.036
 9295TIP3    H127849   5.558   5.714   4.988
 9295TIP3    H227850   5.513   5.858   5.001
 9296TIP3   OH227851   7.054   5.559   4.564
 9296TIP3    H127852   7.086   5.539   4.652
 9296TIP3    H227853   7.130   5.598   4.520
 9297TIP3   OH227854   2.616   3.464   3.438
 9297TIP3    H127855   2.685   3.455   3.504
 9297TIP3    H227856   2.657   3.436   3.356
 9298TIP3   OH227857   0.938   2.252   4.727
 9298TIP3    H127858   0.875   2.179   4.728
 9298TIP3    H227859   1.022   2.210   4.709
 9299TIP3   OH227860   4.182   3.985   2.916
 9299TIP3    H127861   4.107   4.007   2.972
 9299TIP3    H227862   4.177   3.889   2.907
 9300TIP3   OH227863   5.775   6.621   5.448
 9300TIP3    H127864   5.869   6.609   5.457
 9300TIP3    H227865   5.739   6.532   5.447
 9301TIP3   OH227866   0.864   0.913   2.628
 9301TIP3    H127867   0.784   0.889   2.674
 9301TIP3    H227868   0.886   1.000   2.662
 9302TIP3   OH227869   3.877   5.568   3.471
 9302TIP3    H127870   3.823   5.631   3.424
 9302TIP3    H227871   3.960   5.568   3.423
 9303TIP3   OH227872   1.038   4.368   5.018
 9303TIP3    H127873   1.039   4.273   5.018
 9303TIP3    H227874   0.962   4.391   5.072
 9304TIP3   OH227875   5.558   3.791   0.647
 9304TIP3    H127876   5.564   3.696   0.661
 9304TIP3    H227877   5.591   3.804   0.558
 9305TIP3   OH227878   3.377   0.720   3.292
 9305TIP3    H127879   3.339   0.654   3.235
 9305TIP3    H227880   3.309   0.786   3.302
 9306TIP3   OH227881   5.081   4.335   4.685
 9306TIP3    H127882   4.987   4.353   4.676
 9306TIP3    H227883   5.120   4.376   4.608
 9307TIP3   OH227884   3.434   6.075   4.376
 9307TIP3    H127885   3.412   6.157   4.420
 9307TIP3    H227886   3.355   6.049   4.330
 9308TIP3   OH227887   5.072   1.816   2.573
 9308TIP3    H127888   5.128   1.767   2.633
 9308TIP3    H227889   5.111   1.903   2.568
 9309TIP3   OH227890   7.088   1.701   3.526
 9309TIP3    H127891   7.052   1.786   3.550
 9309TIP3    H227892   7.173   1.720   3.486
 9310TIP3   OH227893   0.673   3.921   1.455
 9310TIP3    H127894   0.739   3.960   1.512
 9310TIP3    H227895   0.718   3.909   1.371
 9311TIP3   OH227896   4.735   5.979   1.290
 9311TIP3    H127897   4.757   5.890   1.262
 9311TIP3    H227898   4.684   6.015   1.217
 9312TIP3   OH227899   1.178   5.014   0.507
 9312TIP3    H127900   1.259   4.991   0.462
 9312TIP3    H227901   1.205   5.077   0.574
 9313TIP3   OH227902   1.889   4.550   0.235
 9313TIP3    H127903   1.887   4.621   0.171
 9313TIP3    H227904   1.919   4.473   0.186
 9314TIP3   OH227905   3.029   5.300   4.865
 9314TIP3    H127906   2.944   5.331   4.834
 9314TIP3    H227907   3.026   5.205   4.852
 9315TIP3   OH227908   6.297   3.922   5.417
 9315TIP3    H127909   6.304   4.018   5.421
 9315TIP3    H227910   6.205   3.904   5.435
 9316TIP3   OH227911   5.925   0.388   2.394
 9316TIP3    H127912   5.875   0.399   2.313
 9316TIP3    H227913   5.865   0.417   2.463
 9317TIP3   OH227914   6.092   3.715   0.689
 9317TIP3    H127915   6.153   3.670   0.631
 9317TIP3    H227916   6.057   3.646   0.746
 9318TIP3   OH227917   3.303   5.171   0.687
 9318TIP3    H127918   3.334   5.261   0.674
 9318TIP3    H227919   3.209   5.179   0.698
 9319TIP3   OH227920   1.352   2.694   4.997
 9319TIP3    H127921   1.325   2.772   5.045
 9319TIP3    H227922   1.444   2.681   5.022
 9320TIP3   OH227923   1.268   1.405   4.344
 9320TIP3    H127924   1.243   1.313   4.334
 9320TIP3    H227925   1.256   1.442   4.257
 9321TIP3   OH227926   1.549   6.363   2.085
 9321TIP3    H127927   1.457   6.363   2.059
 9321TIP3    H227928   1.598   6.373   2.003
 9322TIP3   OH227929   3.486   4.978   1.356
 9322TIP3    H127930   3.579   4.965   1.375
 9322TIP3    H227931   3.484   5.052   1.296
 9323TIP3   OH227932   3.202   6.500   0.894
 9323TIP3    H127933   3.294   6.520   0.878
 9323TIP3    H227934   3.165   6.487   0.807
 9324TIP3   OH227935   5.318   4.879   5.925
 9324TIP3    H127936   5.269   4.836   5.855
 9324TIP3    H227937   5.328   4.970   5.895
 9325TIP3   OH227938   0.188   4.209   5.641
 9325TIP3    H127939   0.185   4.293   5.596
 9325TIP3    H227940   0.246   4.155   5.588
 9326TIP3   OH227941   1.828   1.473   0.761
 9326TIP3    H127942   1.860   1.448   0.674
 9326TIP3    H227943   1.737   1.443   0.762
 9327TIP3   OH227944   5.540   6.439   1.220
 9327TIP3    H127945   5.508   6.351   1.238
 9327TIP3    H227946   5.465   6.496   1.238
 9328TIP3   OH227947   2.406   6.795   2.722
 9328TIP3    H127948   2.343   6.726   2.742
 9328TIP3    H227949   2.369   6.873   2.764
 9329TIP3   OH227950   3.584   1.304   5.721
 9329TIP3    H127951   3.585   1.213   5.752
 9329TIP3    H227952   3.608   1.298   5.628
 9330TIP3   OH227953   2.767   5.302   1.465
 9330TIP3    H127954   2.813   5.224   1.495
 9330TIP3    H227955   2.836   5.359   1.430
 9331TIP3   OH227956   4.205   6.761   2.231
 9331TIP3    H127957   4.182   6.721   2.147
 9331TIP3    H227958   4.180   6.696   2.296
 9332TIP3   OH227959   1.673   4.244   4.392
 9332TIP3    H127960   1.636   4.187   4.460
 9332TIP3    H227961   1.763   4.212   4.381
 9333TIP3   OH227962   2.747   0.670   4.960
 9333TIP3    H127963   2.689   0.666   5.035
 9333TIP3    H227964   2.701   0.725   4.896
 9334TIP3   OH227965   1.182   3.638   1.386
 9334TIP3    H127966   1.246   3.697   1.427
 9334TIP3    H227967   1.152   3.686   1.309
 9335TIP3   OH227968   0.686   4.593   4.318
 9335TIP3    H127969   0.768   4.640   4.305
 9335TIP3    H227970   0.650   4.630   4.399
 9336TIP3   OH227971   5.878   1.161   5.589
 9336TIP3    H127972   5.795   1.202   5.613
 9336TIP3    H227973   5.937   1.183   5.661
 9337TIP3   OH227974   4.866   6.199   0.184
 9337TIP3    H127975   4.903   6.212   0.271
 9337TIP3    H227976   4.776   6.172   0.199
 9338TIP3   OH227977   4.847   6.766   1.939
 9338TIP3    H127978   4.889   6.799   2.018
 9338TIP3    H227979   4.775   6.712   1.971
 9339TIP3   OH227980   5.009   4.990   5.890
 9339TIP3    H127981   4.915   5.002   5.880
 9339TIP3    H227982   5.028   4.909   5.843
 9340TIP3   OH227983   2.377   3.418   0.213
 9340TIP3    H127984   2.358   3.328   0.186
 9340TIP3    H227985   2.393   3.465   0.131
 9341TIP3   OH227986   2.264   6.224   4.509
 9341TIP3    H127987   2.309   6.307   4.495
 9341TIP3    H227988   2.333   6.158   4.504
 9342TIP3   OH227989   4.541   6.597   3.710
 9342TIP3    H127990   4.515   6.687   3.730
 9342TIP3    H227991   4.592   6.604   3.629
 9343TIP3   OH227992   5.699   1.782   4.326
 9343TIP3    H127993   5.753   1.769   4.404
 9343TIP3    H227994   5.624   1.724   4.339
 9344TIP3   OH227995   1.010   0.975   3.522
 9344TIP3    H127996   0.916   0.988   3.508
 9344TIP3    H227997   1.031   0.895   3.474
 9345TIP3   OH227998   6.366   4.168   3.568
 9345TIP3    H127999   6.370   4.138   3.659
 9345TIP3    H228000   6.438   4.122   3.525
 9346TIP3   OH228001   3.200   3.397   0.663
 9346TIP3    H128002   3.228   3.482   0.629
 9346TIP3    H228003   3.115   3.414   0.705
 9347TIP3   OH228004   3.863   1.255   3.916
 9347TIP3    H128005   3.808   1.232   3.841
 9347TIP3    H228006   3.822   1.332   3.954
 9348TIP3   OH228007   2.569   4.249   4.795
 9348TIP3    H128008   2.531   4.296   4.869
 9348TIP3    H228009   2.618   4.177   4.835
 9349TIP3   OH228010   0.984   4.956   3.226
 9349TIP3    H128011   1.041   5.024   3.190
 9349TIP3    H228012   0.946   4.913   3.149
 9350TIP3   OH228013   1.452   1.232   2.837
 9350TIP3    H128014   1.409   1.316   2.822
 9350TIP3    H228015   1.465   1.195   2.750
 9351TIP3   OH228016   1.771   2.334   4.903
 9351TIP3    H128017   1.810   2.421   4.916
 9351TIP3    H228018   1.685   2.341   4.943
 9352TIP3   OH228019   6.014   6.182   3.310
 9352TIP3    H128020   5.964   6.106   3.339
 9352TIP3    H228021   6.099   6.173   3.353
 9353TIP3   OH228022   3.711   2.522   5.563
 9353TIP3    H128023   3.797   2.542   5.526
 9353TIP3    H228024   3.727   2.451   5.625
 9354TIP3   OH228025   3.483   3.432   5.732
 9354TIP3    H128026   3.469   3.491   5.806
 9354TIP3    H228027   3.480   3.489   5.655
 9355TIP3   OH228028   1.834   5.183   3.637
 9355TIP3    H128029   1.807   5.093   3.659
 9355TIP3    H228030   1.873   5.176   3.550
 9356TIP3   OH228031   3.765   4.788   4.697
 9356TIP3    H128032   3.698   4.837   4.745
 9356TIP3    H228033   3.801   4.726   4.761
 9357TIP3   OH228034   7.130   5.946   4.721
 9357TIP3    H128035   7.075   6.024   4.723
 9357TIP3    H228036   7.119   5.907   4.808
 9358TIP3   OH228037   0.578   1.509   5.338
 9358TIP3    H128038   0.502   1.519   5.396
 9358TIP3    H228039   0.570   1.581   5.276
 9359TIP3   OH228040   5.530   3.213   5.670
 9359TIP3    H128041   5.495   3.302   5.667
 9359TIP3    H228042   5.516   3.185   5.760
 9360TIP3   OH228043   1.283   2.814   3.201
 9360TIP3    H128044   1.205   2.788   3.250
 9360TIP3    H228045   1.250   2.868   3.129
 9361TIP3   OH228046   3.812   0.052   1.873
 9361TIP3    H128047   3.817   0.096   1.958
 9361TIP3    H228048   3.836   0.120   1.809
 9362TIP3   OH228049   6.721   3.918   1.575
 9362TIP3    H128050   6.671   3.921   1.656
 9362TIP3    H228051   6.673   3.858   1.518
 9363TIP3   OH228052   4.544   5.957   2.689
 9363TIP3    H128053   4.573   5.876   2.648
 9363TIP3    H228054   4.480   5.929   2.754
 9364TIP3   OH228055   4.144   3.614   5.805
 9364TIP3    H128056   4.062   3.614   5.855
 9364TIP3    H228057   4.139   3.535   5.752
 9365TIP3   OH228058   0.033   3.645   4.436
 9365TIP3    H128059   0.057   3.682   4.351
 9365TIP3    H228060   0.115   3.640   4.485
 9366TIP3   OH228061   1.456   6.683   2.224
 9366TIP3    H128062   1.394   6.621   2.262
 9366TIP3    H228063   1.542   6.646   2.245
 9367TIP3   OH228064   5.164   2.160   3.895
 9367TIP3    H128065   5.198   2.181   3.807
 9367TIP3    H228066   5.218   2.212   3.954
 9368TIP3   OH228067   3.763   6.191   2.079
 9368TIP3    H128068   3.670   6.177   2.059
 9368TIP3    H228069   3.810   6.152   2.006
 9369TIP3   OH228070   5.074   5.791   0.619
 9369TIP3    H128071   5.096   5.704   0.651
 9369TIP3    H228072   5.082   5.784   0.524
 9370TIP3   OH228073   4.636   6.631   2.086
 9370TIP3    H128074   4.648   6.578   2.164
 9370TIP3    H228075   4.591   6.710   2.117
 9371TIP3   OH228076   0.540   1.107   3.266
 9371TIP3    H128077   0.592   1.030   3.288
 9371TIP3    H228078   0.551   1.118   3.171
 9372TIP3   OH228079   1.542   1.343   5.741
 9372TIP3    H128080   1.488   1.318   5.667
 9372TIP3    H228081   1.512   1.287   5.813
 9373TIP3   OH228082   6.582   5.966   0.974
 9373TIP3    H128083   6.559   5.875   0.952
 9373TIP3    H228084   6.673   5.974   0.946
 9374TIP3   OH228085   5.200   5.519   1.363
 9374TIP3    H128086   5.152   5.579   1.419
 9374TIP3    H228087   5.133   5.469   1.317
 9375TIP3   OH228088   4.947   0.939   1.319
 9375TIP3    H128089   4.986   0.899   1.396
 9375TIP3    H228090   4.854   0.945   1.339
 9376TIP3   OH228091   0.121   5.179   4.969
 9376TIP3    H128092   0.164   5.162   5.052
 9376TIP3    H228093   0.128   5.274   4.957
 9377TIP3   OH228094   1.132  -0.024   4.696
 9377TIP3    H128095   1.092  -0.110   4.682
 9377TIP3    H228096   1.166   0.001   4.610
 9378TIP3   OH228097   5.821   5.839   0.841
 9378TIP3    H128098   5.865   5.765   0.881
 9378TIP3    H228099   5.794   5.894   0.914
 9379TIP3   OH228100   2.364   0.270   3.761
 9379TIP3    H128101   2.404   0.309   3.683
 9379TIP3    H228102   2.345   0.345   3.818
 9380TIP3   OH228103   6.944   3.720   0.709
 9380TIP3    H128104   6.999   3.644   0.727
 9380TIP3    H228105   7.007   3.791   0.694
 9381TIP3   OH228106   1.650   4.041   4.614
 9381TIP3    H128107   1.682   3.961   4.656
 9381TIP3    H228108   1.670   4.110   4.678
 9382TIP3   OH228109   4.906   2.046   3.425
 9382TIP3    H128110   4.865   2.129   3.402
 9382TIP3    H228111   4.834   1.983   3.426
 9383TIP3   OH228112   4.869   1.467   3.126
 9383TIP3    H128113   4.792   1.415   3.103
 9383TIP3    H228114   4.845   1.513   3.206
 9384TIP3   OH228115   5.095   0.429   3.645
 9384TIP3    H128116   5.041   0.489   3.697
 9384TIP3    H228117   5.076   0.451   3.554
 9385TIP3   OH228118   3.676   4.599   4.501
 9385TIP3    H128119   3.650   4.554   4.581
 9385TIP3    H228120   3.716   4.680   4.531
 9386TIP3   OH228121   1.532   2.588   3.991
 9386TIP3    H128122   1.438   2.607   3.992
 9386TIP3    H228123   1.543   2.521   4.058
 9387TIP3   OH228124   6.796   0.907   2.754
 9387TIP3    H128125   6.706   0.899   2.722
 9387TIP3    H228126   6.787   0.919   2.848
 9388TIP3   OH228127   6.207   5.384   0.265
 9388TIP3    H128128   6.285   5.363   0.213
 9388TIP3    H228129   6.220   5.475   0.293
 9389TIP3   OH228130   3.495   3.364   3.034
 9389TIP3    H128131   3.473   3.448   2.993
 9389TIP3    H228132   3.449   3.299   2.982
 9390TIP3   OH228133   6.749   2.664   3.499
 9390TIP3    H128134   6.800   2.702   3.427
 9390TIP3    H228135   6.684   2.609   3.455
 9391TIP3   OH228136   5.653   2.722   1.607
 9391TIP3    H128137   5.620   2.812   1.606
 9391TIP3    H228138   5.641   2.691   1.517
 9392TIP3   OH228139  -0.017   3.642   3.703
 9392TIP3    H128140   0.046   3.675   3.640
 9392TIP3    H228141   0.019   3.666   3.789
 9393TIP3   OH228142   6.577   4.289   2.031
 9393TIP3    H128143   6.661   4.323   2.002
 9393TIP3    H228144   6.539   4.247   1.954
 9394TIP3   OH228145   1.344   2.398   2.646
 9394TIP3    H128146   1.405   2.462   2.682
 9394TIP3    H228147   1.356   2.320   2.701
 9395TIP3   OH228148   3.055   1.280   4.027
 9395TIP3    H128149   2.997   1.346   3.988
 9395TIP3    H228150   2.999   1.229   4.085
 9396TIP3   OH228151   6.507   4.018   3.376
 9396TIP3    H128152   6.571   3.950   3.396
 9396TIP3    H228153   6.423   3.972   3.379
 9397TIP3   OH228154   4.971   5.836   3.139
 9397TIP3    H128155   4.930   5.919   3.115
 9397TIP3    H228156   5.010   5.853   3.225
 9398TIP3   OH228157   0.729   3.811   0.253
 9398TIP3    H128158   0.652   3.808   0.310
 9398TIP3    H228159   0.696   3.787   0.166
 9399TIP3   OH228160   5.725   6.376   3.879
 9399TIP3    H128161   5.710   6.395   3.971
 9399TIP3    H228162   5.638   6.357   3.844
 9400TIP3   OH228163   5.356   4.425   3.808
 9400TIP3    H128164   5.401   4.483   3.870
 9400TIP3    H228165   5.272   4.405   3.851
 9401TIP3   OH228166   6.526   1.076   0.272
 9401TIP3    H128167   6.524   1.000   0.331
 9401TIP3    H228168   6.462   1.137   0.310
 9402TIP3   OH228169   3.442   1.363   4.878
 9402TIP3    H128170   3.445   1.268   4.869
 9402TIP3    H228171   3.377   1.379   4.945
 9403TIP3   OH228172   3.809   0.534   3.261
 9403TIP3    H128173   3.804   0.512   3.354
 9403TIP3    H228174   3.780   0.455   3.215
 9404TIP3   OH228175   6.994   5.827   2.087
 9404TIP3    H128176   6.961   5.849   1.999
 9404TIP3    H228177   7.089   5.824   2.077
 9405TIP3   OH228178   4.820   2.904   1.860
 9405TIP3    H128179   4.830   2.816   1.824
 9405TIP3    H228180   4.841   2.962   1.787
 9406TIP3   OH228181   3.687   1.978   3.556
 9406TIP3    H128182   3.680   2.030   3.476
 9406TIP3    H228183   3.712   2.041   3.623
 9407TIP3   OH228184   1.438   6.492   4.987
 9407TIP3    H128185   1.415   6.518   5.076
 9407TIP3    H228186   1.409   6.402   4.980
 9408TIP3   OH228187   5.399   2.423   0.548
 9408TIP3    H128188   5.444   2.489   0.494
 9408TIP3    H228189   5.403   2.457   0.637
 9409TIP3   OH228190   2.130   0.480   2.299
 9409TIP3    H128191   2.150   0.406   2.357
 9409TIP3    H228192   2.130   0.442   2.211
 9410TIP3   OH228193   4.539   0.246   3.710
 9410TIP3    H128194   4.460   0.198   3.733
 9410TIP3    H228195   4.610   0.196   3.751
 9411TIP3   OH228196   5.207   0.454   1.726
 9411TIP3    H128197   5.229   0.361   1.734
 9411TIP3    H228198   5.287   0.495   1.693
 9412TIP3   OH228199   2.213   2.820   4.536
 9412TIP3    H128200   2.273   2.746   4.527
 9412TIP3    H228201   2.269   2.894   4.558
 9413TIP3   OH228202   1.087   2.104   4.026
 9413TIP3    H128203   1.182   2.111   4.037
 9413TIP3    H228204   1.056   2.194   4.022
 9414TIP3   OH228205   2.582   1.563   5.783
 9414TIP3    H128206   2.629   1.590   5.862
 9414TIP3    H228207   2.650   1.560   5.715
 9415TIP3   OH228208   5.427   2.106   3.556
 9415TIP3    H128209   5.447   2.075   3.468
 9415TIP3    H228210   5.337   2.077   3.573
 9416TIP3   OH228211   3.278   1.026   1.764
 9416TIP3    H128212   3.333   0.948   1.758
 9416TIP3    H228213   3.318   1.088   1.702
 9417TIP3   OH228214   3.042   0.133   2.995
 9417TIP3    H128215   3.073   0.144   2.904
 9417TIP3    H228216   3.099   0.064   3.030
 9418TIP3   OH228217   1.604   4.077   3.696
 9418TIP3    H128218   1.569   3.990   3.675
 9418TIP3    H228219   1.557   4.104   3.774
 9419TIP3   OH228220   3.089   4.741   3.353
 9419TIP3    H128221   3.053   4.813   3.301
 9419TIP3    H228222   3.132   4.785   3.427
 9420TIP3   OH228223   1.466   3.252   4.118
 9420TIP3    H128224   1.425   3.217   4.039
 9420TIP3    H228225   1.550   3.285   4.088
 9421TIP3   OH228226   0.017   0.663   4.079
 9421TIP3    H128227   0.079   0.714   4.027
 9421TIP3    H228228   0.070   0.598   4.124
 9422TIP3   OH228229   5.327   6.256   0.488
 9422TIP3    H128230   5.399   6.222   0.540
 9422TIP3    H228231   5.261   6.282   0.552
 9423TIP3   OH228232   3.689   4.705   0.964
 9423TIP3    H128233   3.654   4.652   0.893
 9423TIP3    H228234   3.784   4.699   0.954
 9424TIP3   OH228235   4.759   4.867   0.393
 9424TIP3    H128236   4.748   4.946   0.341
 9424TIP3    H228237   4.723   4.890   0.479
 9425TIP3   OH228238   0.292   2.451   5.495
 9425TIP3    H128239   0.356   2.474   5.428
 9425TIP3    H228240   0.218   2.416   5.447
 9426TIP3   OH228241   1.672   3.592   0.557
 9426TIP3    H128242   1.630   3.579   0.472
 9426TIP3    H228243   1.603   3.630   0.612
 9427TIP3   OH228244   0.192   6.655   2.911
 9427TIP3    H128245   0.179   6.581   2.852
 9427TIP3    H228246   0.103   6.684   2.933
 9428TIP3   OH228247   3.462   5.457   0.627
 9428TIP3    H128248   3.449   5.516   0.552
 9428TIP3    H228249   3.453   5.513   0.704
 9429TIP3   OH228250   0.782   3.699   2.146
 9429TIP3    H128251   0.784   3.715   2.052
 9429TIP3    H228252   0.825   3.615   2.158
 9430TIP3   OH228253   5.742   0.661   2.983
 9430TIP3    H128254   5.648   0.675   2.985
 9430TIP3    H228255   5.763   0.626   3.070
 9431TIP3   OH228256   5.266   6.478   4.381
 9431TIP3    H128257   5.188   6.442   4.338
 9431TIP3    H228258   5.233   6.518   4.461
 9432TIP3   OH228259   3.841   3.836   1.529
 9432TIP3    H128260   3.755   3.830   1.569
 9432TIP3    H228261   3.878   3.918   1.563
 9433TIP3   OH228262   0.671   6.273   4.954
 9433TIP3    H128263   0.604   6.211   4.926
 9433TIP3    H228264   0.734   6.220   5.004
 9434TIP3   OH228265   5.559   4.635   3.533
 9434TIP3    H128266   5.645   4.608   3.502
 9434TIP3    H228267   5.518   4.554   3.563
 9435TIP3   OH228268   1.103   1.335   5.314
 9435TIP3    H128269   1.129   1.243   5.315
 9435TIP3    H228270   1.112   1.364   5.405
 9436TIP3   OH228271   6.944   6.059   5.291
 9436TIP3    H128272   6.932   6.088   5.381
 9436TIP3    H228273   6.989   5.975   5.298
 9437TIP3   OH228274   3.783   5.057   2.952
 9437TIP3    H128275   3.724   5.037   2.878
 9437TIP3    H228276   3.728   5.046   3.029
 9438TIP3   OH228277   3.632   1.976   1.935
 9438TIP3    H128278   3.547   1.953   1.972
 9438TIP3    H228279   3.634   2.072   1.935
 9439TIP3   OH228280   6.721   1.757   1.932
 9439TIP3    H128281   6.710   1.829   1.994
 9439TIP3    H228282   6.780   1.696   1.976
 9440TIP3   OH228283   3.772   2.852   3.801
 9440TIP3    H128284   3.687   2.896   3.814
 9440TIP3    H228285   3.818   2.907   3.738
 9441TIP3   OH228286   5.104   4.258   1.165
 9441TIP3    H128287   5.155   4.189   1.123
 9441TIP3    H228288   5.113   4.242   1.259
 9442TIP3   OH228289   3.488   3.510   3.910
 9442TIP3    H128290   3.414   3.559   3.947
 9442TIP3    H228291   3.561   3.530   3.969
 9443TIP3   OH228292   3.755   5.139   1.130
 9443TIP3    H128293   3.797   5.219   1.100
 9443TIP3    H228294   3.827   5.076   1.139
 9444TIP3   OH228295   4.847   3.536   4.885
 9444TIP3    H128296   4.756   3.556   4.866
 9444TIP3    H228297   4.843   3.457   4.940
 9445TIP3   OH228298   1.762   4.256   4.774
 9445TIP3    H128299   1.807   4.216   4.848
 9445TIP3    H228300   1.832   4.299   4.724
 9446TIP3   OH228301   5.668   1.907   2.634
 9446TIP3    H128302   5.713   1.924   2.551
 9446TIP3    H228303   5.734   1.866   2.689
 9447TIP3   OH228304   0.043   6.427   2.441
 9447TIP3    H128305  -0.030   6.485   2.421
 9447TIP3    H228306   0.058   6.439   2.535
 9448TIP3   OH228307   6.230   2.763   2.930
 9448TIP3    H128308   6.285   2.711   2.871
 9448TIP3    H228309   6.271   2.752   3.016
 9449TIP3   OH228310   5.845   1.907   4.806
 9449TIP3    H128311   5.797   1.829   4.835
 9449TIP3    H228312   5.865   1.954   4.887
 9450TIP3   OH228313   1.254   0.991   5.833
 9450TIP3    H128314   1.237   1.056   5.902
 9450TIP3    H228315   1.243   0.906   5.876
 9451TIP3   OH228316   6.449   6.312   2.580
 9451TIP3    H128317   6.372   6.255   2.574
 9451TIP3    H228318   6.500   6.275   2.652
 9452TIP3   OH228319   7.065   4.791   4.823
 9452TIP3    H128320   7.138   4.853   4.816
 9452TIP3    H228321   7.091   4.717   4.770
 9453TIP3   OH228322   6.055   3.101   2.625
 9453TIP3    H128323   6.046   3.196   2.626
 9453TIP3    H228324   6.058   3.076   2.717
 9454TIP3   OH228325   1.156   3.298   4.015
 9454TIP3    H128326   1.186   3.388   4.025
 9454TIP3    H228327   1.194   3.251   4.090
 9455TIP3   OH228328   6.111   1.924   5.638
 9455TIP3    H128329   6.073   1.887   5.558
 9455TIP3    H228330   6.075   1.870   5.709
 9456TIP3   OH228331   5.515   6.165   3.895
 9456TIP3    H128332   5.557   6.082   3.870
 9456TIP3    H228333   5.468   6.144   3.976
 9457TIP3   OH228334   6.309   2.095   4.762
 9457TIP3    H128335   6.333   2.112   4.853
 9457TIP3    H228336   6.378   2.037   4.729
 9458TIP3   OH228337   2.327   5.113   3.986
 9458TIP3    H128338   2.297   5.056   4.056
 9458TIP3    H228339   2.250   5.130   3.932
 9459TIP3   OH228340   6.226   4.732   2.971
 9459TIP3    H128341   6.304   4.677   2.964
 9459TIP3    H228342   6.244   4.808   2.916
 9460TIP3   OH228343   4.366   4.189   3.150
 9460TIP3    H128344   4.350   4.114   3.093
 9460TIP3    H228345   4.437   4.160   3.208
 9461TIP3   OH228346   0.323   1.393   2.101
 9461TIP3    H128347   0.418   1.394   2.116
 9461TIP3    H228348   0.313   1.358   2.013
 9462TIP3   OH228349   2.455   4.231   0.545
 9462TIP3    H128350   2.492   4.168   0.483
 9462TIP3    H228351   2.494   4.207   0.629
 9463TIP3   OH228352   0.517   3.178   3.970
 9463TIP3    H128353   0.584   3.240   3.941
 9463TIP3    H228354   0.478   3.146   3.889
 9464TIP3   OH228355   5.084   4.233   0.168
 9464TIP3    H128356   5.150   4.201   0.229
 9464TIP3    H228357   5.002   4.232   0.217
 9465TIP3   OH228358   6.204   2.107   2.324
 9465TIP3    H128359   6.168   2.112   2.235
 9465TIP3    H228360   6.294   2.137   2.315
 9466TIP3   OH228361   0.641   5.254   3.958
 9466TIP3    H128362   0.730   5.219   3.963
 9466TIP3    H228363   0.622   5.282   4.047
 9467TIP3   OH228364   4.867   3.809   4.632
 9467TIP3    H128365   4.905   3.722   4.615
 9467TIP3    H228366   4.817   3.829   4.553
 9468TIP3   OH228367   3.042   0.559   5.130
 9468TIP3    H128368   2.987   0.603   5.065
 9468TIP3    H228369   3.119   0.615   5.137
 9469TIP3   OH228370   0.263   2.786   3.796
 9469TIP3    H128371   0.194   2.818   3.853
 9469TIP3    H228372   0.222   2.716   3.745
 9470TIP3   OH228373   3.998   3.342   0.868
 9470TIP3    H128374   4.066   3.324   0.933
 9470TIP3    H228375   3.962   3.256   0.848
 9471TIP3   OH228376   1.300   6.185   2.290
 9471TIP3    H128377   1.251   6.121   2.341
 9471TIP3    H228378   1.387   6.147   2.281
 9472TIP3   OH228379   4.799   4.799   0.938
 9472TIP3    H128380   4.772   4.717   0.980
 9472TIP3    H228381   4.726   4.859   0.953
 9473TIP3   OH228382   1.891   3.400   2.574
 9473TIP3    H128383   1.883   3.457   2.651
 9473TIP3    H228384   1.952   3.446   2.516
 9474TIP3   OH228385   6.895   5.311   1.728
 9474TIP3    H128386   6.902   5.320   1.633
 9474TIP3    H228387   6.939   5.228   1.748
 9475TIP3   OH228388   0.629   0.888   4.764
 9475TIP3    H128389   0.685   0.929   4.698
 9475TIP3    H228390   0.550   0.864   4.716
 9476TIP3   OH228391   3.056   6.030   1.498
 9476TIP3    H128392   3.070   5.994   1.585
 9476TIP3    H228393   3.038   5.954   1.443
 9477TIP3   OH228394   4.112   3.995   2.401
 9477TIP3    H128395   4.195   3.988   2.448
 9477TIP3    H228396   4.137   4.030   2.315
 9478TIP3   OH228397   3.171   6.501   5.288
 9478TIP3    H128398   3.237   6.544   5.235
 9478TIP3    H228399   3.202   6.411   5.298
 9479TIP3   OH228400   2.099   5.952   1.342
 9479TIP3    H128401   2.044   5.949   1.420
 9479TIP3    H228402   2.071   5.875   1.291
 9480TIP3   OH228403   7.192   4.753   0.033
 9480TIP3    H128404   7.250   4.709   0.095
 9480TIP3    H228405   7.180   4.689  -0.038
 9481TIP3   OH228406   1.260   5.111   5.791
 9481TIP3    H128407   1.175   5.151   5.812
 9481TIP3    H228408   1.318   5.140   5.861
 9482TIP3   OH228409   5.653   2.749   5.124
 9482TIP3    H128410   5.668   2.658   5.100
 9482TIP3    H228411   5.737   2.792   5.107
 9483TIP3   OH228412   5.204   0.380   5.163
 9483TIP3    H128413   5.214   0.333   5.080
 9483TIP3    H228414   5.291   0.376   5.203
 9484TIP3   OH228415   5.755   1.249   1.305
 9484TIP3    H128416   5.766   1.162   1.343
 9484TIP3    H228417   5.816   1.305   1.354
 9485TIP3   OH228418   1.054   3.296   2.269
 9485TIP3    H128419   1.125   3.353   2.241
 9485TIP3    H228420   1.003   3.349   2.331
 9486TIP3   OH228421   3.322   0.441   0.676
 9486TIP3    H128422   3.356   0.528   0.654
 9486TIP3    H228423   3.315   0.441   0.772
 9487TIP3   OH228424   2.439   0.562   4.617
 9487TIP3    H128425   2.376   0.496   4.589
 9487TIP3    H228426   2.516   0.546   4.562
 9488TIP3   OH228427   3.980   1.846   0.628
 9488TIP3    H128428   4.042   1.809   0.690
 9488TIP3    H228429   3.999   1.801   0.545
 9489TIP3   OH228430   1.532   3.877   0.160
 9489TIP3    H128431   1.625   3.869   0.140
 9489TIP3    H228432   1.500   3.787   0.164
 9490TIP3   OH228433   4.613   3.568   1.604
 9490TIP3    H128434   4.674   3.548   1.675
 9490TIP3    H228435   4.538   3.608   1.647
 9491TIP3   OH228436   1.118   6.452   4.692
 9491TIP3    H128437   1.032   6.468   4.731
 9491TIP3    H228438   1.137   6.361   4.713
 9492TIP3   OH228439   5.956   1.361   3.547
 9492TIP3    H128440   6.005   1.443   3.553
 9492TIP3    H228441   5.876   1.377   3.596
 9493TIP3   OH228442   0.165   1.089   1.324
 9493TIP3    H128443   0.244   1.062   1.278
 9493TIP3    H228444   0.094   1.074   1.262
 9494TIP3   OH228445   1.726   2.098   3.020
 9494TIP3    H128446   1.704   2.157   3.092
 9494TIP3    H228447   1.737   2.013   3.062
 9495TIP3   OH228448   3.684   0.833   0.408
 9495TIP3    H128449   3.740   0.816   0.484
 9495TIP3    H228450   3.643   0.917   0.427
 9496TIP3   OH228451   5.602   2.830   0.813
 9496TIP3    H128452   5.602   2.890   0.738
 9496TIP3    H228453   5.518   2.845   0.855
 9497TIP3   OH228454   6.474   0.161   5.118
 9497TIP3    H128455   6.505   0.252   5.126
 9497TIP3    H228456   6.515   0.116   5.191
 9498TIP3   OH228457   2.713   1.770   3.797
 9498TIP3    H128458   2.786   1.793   3.855
 9498TIP3    H228459   2.717   1.675   3.789
 9499TIP3   OH228460   3.850   0.841   3.994
 9499TIP3    H128461   3.858   0.749   3.968
 9499TIP3    H228462   3.881   0.891   3.919
 9500TIP3   OH228463   5.616   0.336   1.103
 9500TIP3    H128464   5.540   0.375   1.060
 9500TIP3    H228465   5.649   0.272   1.040
 9501TIP3   OH228466   4.596   4.987   0.983
 9501TIP3    H128467   4.511   4.970   0.941
 9501TIP3    H228468   4.583   4.960   1.074
 9502TIP3   OH228469   0.097   2.574   1.036
 9502TIP3    H128470   0.160   2.522   1.086
 9502TIP3    H228471   0.064   2.638   1.098
 9503TIP3   OH228472   1.494   3.562   3.234
 9503TIP3    H128473   1.416   3.616   3.243
 9503TIP3    H228474   1.550   3.611   3.173
 9504TIP3   OH228475   3.669   5.999   5.203
 9504TIP3    H128476   3.662   6.058   5.278
 9504TIP3    H228477   3.729   5.930   5.234
 9505TIP3   OH228478   1.253   5.504   1.535
 9505TIP3    H128479   1.203   5.426   1.511
 9505TIP3    H228480   1.344   5.479   1.521
 9506TIP3   OH228481   3.241   5.438   0.364
 9506TIP3    H128482   3.333   5.439   0.338
 9506TIP3    H228483   3.203   5.365   0.314
 9507TIP3   OH228484   2.152   4.243   5.135
 9507TIP3    H128485   2.209   4.232   5.060
 9507TIP3    H228486   2.199   4.304   5.193
 9508TIP3   OH228487   5.845   5.456   0.692
 9508TIP3    H128488   5.796   5.537   0.708
 9508TIP3    H228489   5.778   5.387   0.694
 9509TIP3   OH228490   2.664   0.847   0.128
 9509TIP3    H128491   2.601   0.827   0.197
 9509TIP3    H228492   2.613   0.847   0.047
 9510TIP3   OH228493  -0.007   6.285   4.812
 9510TIP3    H128494  -0.097   6.255   4.826
 9510TIP3    H228495   0.047   6.212   4.842
 9511TIP3   OH228496   2.163   5.512   2.410
 9511TIP3    H128497   2.226   5.530   2.479
 9511TIP3    H228498   2.173   5.586   2.349
 9512TIP3   OH228499   7.030   0.983   5.562
 9512TIP3    H128500   6.980   0.999   5.642
 9512TIP3    H228501   7.075   0.900   5.578
 9513TIP3   OH228502   0.128   5.590   5.797
 9513TIP3    H128503   0.189   5.554   5.861
 9513TIP3    H228504   0.053   5.529   5.798
 9514TIP3   OH228505   0.711   3.367   3.920
 9514TIP3    H128506   0.756   3.406   3.845
 9514TIP3    H228507   0.775   3.305   3.956
 9515TIP3   OH228508   4.826   1.619   2.027
 9515TIP3    H128509   4.800   1.673   1.952
 9515TIP3    H228510   4.855   1.537   1.988
 9516TIP3   OH228511   2.823   1.662   2.963
 9516TIP3    H128512   2.854   1.704   2.882
 9516TIP3    H228513   2.901   1.619   2.998
 9517TIP3   OH228514   2.411   4.469   2.648
 9517TIP3    H128515   2.420   4.492   2.741
 9517TIP3    H228516   2.317   4.455   2.636
 9518TIP3   OH228517   1.953   1.163   3.827
 9518TIP3    H128518   1.883   1.175   3.762
 9518TIP3    H228519   1.913   1.191   3.910
 9519TIP3   OH228520   2.885   0.173   0.690
 9519TIP3    H128521   2.971   0.133   0.685
 9519TIP3    H228522   2.845   0.155   0.605
 9520TIP3   OH228523   4.476   6.392   3.126
 9520TIP3    H128524   4.550   6.355   3.174
 9520TIP3    H228525   4.466   6.481   3.162
 9521TIP3   OH228526   6.905   4.895   5.044
 9521TIP3    H128527   6.950   4.861   4.966
 9521TIP3    H228528   6.850   4.966   5.011
 9522TIP3   OH228529   1.108   2.038   5.420
 9522TIP3    H128530   1.072   1.949   5.425
 9522TIP3    H228531   1.030   2.094   5.415
 9523TIP3   OH228532   2.855   0.680   1.665
 9523TIP3    H128533   2.912   0.727   1.726
 9523TIP3    H228534   2.769   0.721   1.677
 9524TIP3   OH228535   1.735   5.060   1.797
 9524TIP3    H128536   1.797   5.049   1.869
 9524TIP3    H228537   1.693   5.144   1.814
 9525TIP3   OH228538   0.069   1.614   1.045
 9525TIP3    H128539   0.126   1.582   1.114
 9525TIP3    H228540   0.035   1.697   1.078
 9526TIP3   OH228541   3.536   4.059   3.127
 9526TIP3    H128542   3.454   4.012   3.114
 9526TIP3    H228543   3.537   4.079   3.220
 9527TIP3   OH228544   4.482   2.265   5.770
 9527TIP3    H128545   4.431   2.198   5.724
 9527TIP3    H228546   4.515   2.321   5.700
 9528TIP3   OH228547   2.817   0.416   0.484
 9528TIP3    H128548   2.849   0.487   0.427
 9528TIP3    H228549   2.746   0.455   0.534
 9529TIP3   OH228550   0.023   1.337   1.945
 9529TIP3    H128551   0.070   1.254   1.947
 9529TIP3    H228552   0.066   1.387   1.875
 9530TIP3   OH228553   3.920   2.794   2.915
 9530TIP3    H128554   3.829   2.776   2.940
 9530TIP3    H228555   3.965   2.808   2.998
 9531TIP3   OH228556   2.341   5.926   1.978
 9531TIP3    H128557   2.411   5.978   1.938
 9531TIP3    H228558   2.301   5.879   1.905
 9532TIP3   OH228559   3.507   5.033   0.531
 9532TIP3    H128560   3.478   4.947   0.502
 9532TIP3    H228561   3.436   5.065   0.587
 9533TIP3   OH228562   5.487   2.166   0.466
 9533TIP3    H128563   5.443   2.108   0.529
 9533TIP3    H228564   5.470   2.254   0.500
 9534TIP3   OH228565   7.207   3.933   0.119
 9534TIP3    H128566   7.143   3.991   0.160
 9534TIP3    H228567   7.162   3.848   0.114
 9535TIP3   OH228568   1.999   3.566   4.272
 9535TIP3    H128569   1.905   3.577   4.285
 9535TIP3    H228570   2.008   3.555   4.177
 9536TIP3   OH228571   0.121   6.709   5.539
 9536TIP3    H128572   0.195   6.731   5.483
 9536TIP3    H228573   0.045   6.712   5.481
 9537TIP3   OH228574   2.696   6.448   1.776
 9537TIP3    H128575   2.636   6.407   1.714
 9537TIP3    H228576   2.756   6.499   1.721
 9538TIP3   OH228577   5.733   0.332   1.492
 9538TIP3    H128578   5.812   0.284   1.468
 9538TIP3    H228579   5.661   0.274   1.466
 9539TIP3   OH228580   2.837   6.022   0.359
 9539TIP3    H128581   2.875   6.082   0.295
 9539TIP3    H228582   2.747   6.009   0.330
 9540TIP3   OH228583   1.795   3.180   3.158
 9540TIP3    H128584   1.780   3.264   3.113
 9540TIP3    H228585   1.712   3.161   3.202
 9541TIP3   OH228586   7.172   5.636   5.161
 9541TIP3    H128587   7.217   5.590   5.231
 9541TIP3    H228588   7.088   5.662   5.199
 9542TIP3   OH228589   4.835   3.808   3.982
 9542TIP3    H128590   4.801   3.897   3.982
 9542TIP3    H228591   4.930   3.818   3.974
 9543TIP3   OH228592   2.402   3.323   3.974
 9543TIP3    H128593   2.354   3.257   3.924
 9543TIP3    H228594   2.486   3.332   3.928
 9544TIP3   OH228595   5.879   6.790   0.204
 9544TIP3    H128596   5.806   6.851   0.212
 9544TIP3    H228597   5.845   6.719   0.150
 9545TIP3   OH228598   0.934   1.993   4.438
 9545TIP3    H128599   0.919   1.927   4.370
 9545TIP3    H228600   1.018   1.968   4.477
 9546TIP3   OH228601   3.214   6.109   2.217
 9546TIP3    H128602   3.309   6.116   2.207
 9546TIP3    H228603   3.198   6.122   2.310
 9547TIP3   OH228604   0.642   2.917   2.036
 9547TIP3    H128605   0.665   2.873   2.118
 9547TIP3    H228606   0.631   2.845   1.973
 9548TIP3   OH228607   6.983   4.363   5.782
 9548TIP3    H128608   7.014   4.428   5.845
 9548TIP3    H228609   6.951   4.290   5.836
 9549TIP3   OH228610   0.505   4.579   0.510
 9549TIP3    H128611   0.448   4.615   0.578
 9549TIP3    H228612   0.574   4.645   0.499
 9550TIP3   OH228613   0.418   6.766   2.810
 9550TIP3    H128614   0.383   6.845   2.769
 9550TIP3    H228615   0.346   6.733   2.865
 9551TIP3   OH228616   6.498   1.171   5.844
 9551TIP3    H128617   6.432   1.179   5.913
 9551TIP3    H228618   6.487   1.082   5.811
 9552TIP3   OH228619   1.547   1.520   4.064
 9552TIP3    H128620   1.527   1.609   4.034
 9552TIP3    H228621   1.510   1.463   3.996
 9553TIP3   OH228622   3.886   6.466   3.828
 9553TIP3    H128623   3.961   6.417   3.795
 9553TIP3    H228624   3.839   6.495   3.750
 9554TIP3   OH228625   1.796   5.859   5.333
 9554TIP3    H128626   1.884   5.828   5.311
 9554TIP3    H228627   1.811   5.923   5.402
 9555TIP3   OH228628   6.260   3.579   5.759
 9555TIP3    H128629   6.232   3.488   5.772
 9555TIP3    H228630   6.179   3.629   5.760
 9556TIP3   OH228631   4.364   1.779   4.619
 9556TIP3    H128632   4.359   1.780   4.714
 9556TIP3    H228633   4.279   1.745   4.591
 9557TIP3   OH228634   7.148   6.715   2.951
 9557TIP3    H128635   7.093   6.780   2.907
 9557TIP3    H228636   7.095   6.636   2.953
 9558TIP3   OH228637   1.465   3.972   0.932
 9558TIP3    H128638   1.482   3.881   0.956
 9558TIP3    H228639   1.499   3.979   0.842
 9559TIP3   OH228640   2.890   6.158   3.731
 9559TIP3    H128641   2.798   6.160   3.706
 9559TIP3    H228642   2.936   6.201   3.658
 9560TIP3   OH228643   5.454   0.775   1.889
 9560TIP3    H128644   5.454   0.797   1.982
 9560TIP3    H228645   5.372   0.810   1.856
 9561TIP3   OH228646   1.408   4.547   2.314
 9561TIP3    H128647   1.327   4.594   2.335
 9561TIP3    H228648   1.386   4.495   2.237
 9562TIP3   OH228649   4.311   2.903   3.955
 9562TIP3    H128650   4.260   2.873   4.031
 9562TIP3    H228651   4.246   2.910   3.885
 9563TIP3   OH228652   0.316   4.993   2.440
 9563TIP3    H128653   0.401   4.965   2.406
 9563TIP3    H228654   0.321   4.975   2.534
 9564TIP3   OH228655   3.823   5.200   5.796
 9564TIP3    H128656   3.784   5.117   5.824
 9564TIP3    H228657   3.896   5.214   5.857
 9565TIP3   OH228658   4.016   2.702   5.745
 9565TIP3    H128659   3.940   2.740   5.788
 9565TIP3    H228660   4.086   2.766   5.758
 9566TIP3   OH228661   2.353   2.404   5.702
 9566TIP3    H128662   2.305   2.394   5.619
 9566TIP3    H228663   2.365   2.314   5.733
 9567TIP3   OH228664   7.150   0.144   4.832
 9567TIP3    H128665   7.071   0.149   4.887
 9567TIP3    H228666   7.116   0.141   4.742
 9568TIP3   OH228667   3.465   4.871   0.141
 9568TIP3    H128668   3.526   4.934   0.103
 9568TIP3    H228669   3.448   4.905   0.229
 9569TIP3   OH228670   3.483   6.685   3.497
 9569TIP3    H128671   3.415   6.640   3.547
 9569TIP3    H228672   3.448   6.691   3.408
 9570TIP3   OH228673   6.296   2.524   2.786
 9570TIP3    H128674   6.279   2.523   2.692
 9570TIP3    H228675   6.392   2.526   2.793
 9571TIP3   OH228676   5.610   4.381   2.572
 9571TIP3    H128677   5.585   4.408   2.484
 9571TIP3    H228678   5.706   4.390   2.573
 9572TIP3   OH228679   2.710   4.424   0.299
 9572TIP3    H128680   2.749   4.337   0.299
 9572TIP3    H228681   2.747   4.467   0.222
 9573TIP3   OH228682   0.920   2.747   2.482
 9573TIP3    H128683   0.951   2.794   2.560
 9573TIP3    H228684   0.987   2.763   2.416
 9574TIP3   OH228685   5.676   4.926   2.436
 9574TIP3    H128686   5.666   4.961   2.348
 9574TIP3    H228687   5.587   4.927   2.473
 9575TIP3   OH228688   6.093   1.359   4.672
 9575TIP3    H128689   6.045   1.277   4.659
 9575TIP3    H228690   6.051   1.421   4.613
 9576TIP3   OH228691   0.757   0.994   4.098
 9576TIP3    H128692   0.828   0.938   4.129
 9576TIP3    H228693   0.711   1.021   4.177
 9577TIP3   OH228694   3.208   5.612   1.752
 9577TIP3    H128695   3.174   5.530   1.717
 9577TIP3    H228696   3.183   5.610   1.845
 9578TIP3   OH228697   1.253   5.771   1.525
 9578TIP3    H128698   1.196   5.791   1.451
 9578TIP3    H228699   1.241   5.677   1.540
 9579TIP3   OH228700   7.038   5.510   4.065
 9579TIP3    H128701   7.075   5.428   4.097
 9579TIP3    H228702   6.983   5.542   4.138
 9580TIP3   OH228703   3.006   3.850   1.705
 9580TIP3    H128704   3.088   3.894   1.685
 9580TIP3    H228705   2.939   3.915   1.686
 9581TIP3   OH228706   2.457   3.592   3.186
 9581TIP3    H128707   2.371   3.633   3.181
 9581TIP3    H228708   2.440   3.498   3.183
 9582TIP3   OH228709   1.294   6.792   4.308
 9582TIP3    H128710   1.257   6.719   4.258
 9582TIP3    H228711   1.243   6.868   4.281
 9583TIP3   OH228712   1.848   1.735   5.678
 9583TIP3    H128713   1.943   1.747   5.677
 9583TIP3    H228714   1.836   1.641   5.688
 9584TIP3   OH228715   6.047   6.469   4.417
 9584TIP3    H128716   6.059   6.440   4.507
 9584TIP3    H228717   6.134   6.500   4.390
 9585TIP3   OH228718   3.615   3.156   1.395
 9585TIP3    H128719   3.586   3.146   1.485
 9585TIP3    H228720   3.537   3.138   1.342
 9586TIP3   OH228721   5.046   3.788   2.120
 9586TIP3    H128722   5.136   3.772   2.148
 9586TIP3    H228723   5.026   3.714   2.062
 9587TIP3   OH228724   3.834   2.565   0.523
 9587TIP3    H128725   3.739   2.569   0.536
 9587TIP3    H228726   3.871   2.587   0.609
 9588TIP3   OH228727   5.082   6.243   2.210
 9588TIP3    H128728   5.116   6.328   2.238
 9588TIP3    H228729   5.099   6.241   2.116
 9589TIP3   OH228730   3.071   1.162   2.453
 9589TIP3    H128731   3.057   1.120   2.368
 9589TIP3    H228732   3.055   1.092   2.517
 9590TIP3   OH228733   6.452   0.834   4.102
 9590TIP3    H128734   6.547   0.833   4.094
 9590TIP3    H228735   6.421   0.805   4.016
 9591TIP3   OH228736  -0.011   4.417   0.836
 9591TIP3    H128737   0.019   4.438   0.748
 9591TIP3    H228738   0.068   4.410   0.888
 9592TIP3   OH228739   3.924   1.446   3.061
 9592TIP3    H128740   3.925   1.357   3.098
 9592TIP3    H228741   3.958   1.501   3.132
 9593TIP3   OH228742   6.697   0.278   3.573
 9593TIP3    H128743   6.658   0.208   3.626
 9593TIP3    H228744   6.695   0.244   3.484
 9594TIP3   OH228745   3.676   2.678   4.449
 9594TIP3    H128746   3.618   2.608   4.480
 9594TIP3    H228747   3.617   2.745   4.415
 9595TIP3   OH228748   4.104   3.630   1.311
 9595TIP3    H128749   4.191   3.645   1.347
 9595TIP3    H228750   4.048   3.618   1.388
 9596TIP3   OH228751   5.924   4.661   1.562
 9596TIP3    H128752   5.914   4.566   1.571
 9596TIP3    H228753   5.890   4.682   1.475
 9597TIP3   OH228754   4.256   5.335   5.153
 9597TIP3    H128755   4.180   5.276   5.146
 9597TIP3    H228756   4.281   5.329   5.245
 9598TIP3   OH228757   2.224   0.330   5.765
 9598TIP3    H128758   2.317   0.310   5.758
 9598TIP3    H228759   2.190   0.266   5.828
 9599TIP3   OH228760   0.221   4.780   3.171
 9599TIP3    H128761   0.181   4.738   3.247
 9599TIP3    H228762   0.315   4.782   3.191
 9600TIP3   OH228763   1.349   5.012   0.860
 9600TIP3    H128764   1.316   5.078   0.799
 9600TIP3    H228765   1.356   5.058   0.944
 9601TIP3   OH228766   3.725   2.522   2.658
 9601TIP3    H128767   3.779   2.566   2.723
 9601TIP3    H228768   3.755   2.431   2.660
 9602TIP3   OH228769   3.047   5.540   1.939
 9602TIP3    H128770   3.081   5.582   2.018
 9602TIP3    H228771   3.055   5.447   1.956
 9603TIP3   OH228772   6.573   5.090   5.461
 9603TIP3    H128773   6.601   5.119   5.375
 9603TIP3    H228774   6.572   4.994   5.455
 9604TIP3   OH228775   5.492   2.145   3.932
 9604TIP3    H128776   5.558   2.076   3.924
 9604TIP3    H228777   5.493   2.189   3.848
 9605TIP3   OH228778   2.084   6.735   3.539
 9605TIP3    H128779   2.073   6.647   3.574
 9605TIP3    H228780   2.120   6.786   3.612
 9606TIP3   OH228781   0.636   2.759   3.643
 9606TIP3    H128782   0.579   2.690   3.609
 9606TIP3    H228783   0.648   2.819   3.569
 9607TIP3   OH228784   3.786   6.119   1.002
 9607TIP3    H128785   3.750   6.164   1.079
 9607TIP3    H228786   3.727   6.045   0.989
 9608TIP3   OH228787   3.017   3.777   4.446
 9608TIP3    H128788   2.947   3.803   4.387
 9608TIP3    H228789   2.976   3.772   4.532
 9609TIP3   OH228790   6.913   3.539   5.246
 9609TIP3    H128791   6.989   3.594   5.260
 9609TIP3    H228792   6.892   3.550   5.153
 9610TIP3   OH228793   2.873   0.106   2.430
 9610TIP3    H128794   2.835   0.027   2.392
 9610TIP3    H228795   2.953   0.075   2.473
 9611TIP3   OH228796   4.203   3.709   0.973
 9611TIP3    H128797   4.134   3.700   0.907
 9611TIP3    H228798   4.178   3.787   1.023
 9612TIP3   OH228799   4.071   2.410   3.725
 9612TIP3    H128800   4.092   2.429   3.633
 9612TIP3    H228801   4.082   2.494   3.770
 9613TIP3   OH228802   4.205   0.912   0.967
 9613TIP3    H128803   4.252   0.991   0.993
 9613TIP3    H228804   4.113   0.939   0.963
 9614TIP3   OH228805   6.302   5.682   0.309
 9614TIP3    H128806   6.383   5.633   0.318
 9614TIP3    H228807   6.274   5.699   0.398
 9615TIP3   OH228808   7.098   5.945   2.810
 9615TIP3    H128809   7.072   5.967   2.899
 9615TIP3    H228810   7.119   5.852   2.813
 9616TIP3   OH228811   2.214   0.584   1.819
 9616TIP3    H128812   2.206   0.510   1.758
 9616TIP3    H228813   2.250   0.654   1.765
 9617TIP3   OH228814   1.036   4.652   3.726
 9617TIP3    H128815   1.095   4.600   3.781
 9617TIP3    H228816   1.044   4.614   3.639
 9618TIP3   OH228817   1.367   4.819   5.466
 9618TIP3    H128818   1.338   4.850   5.552
 9618TIP3    H228819   1.399   4.730   5.483
 9619TIP3   OH228820   1.110   5.560   3.077
 9619TIP3    H128821   1.181   5.529   3.021
 9619TIP3    H228822   1.152   5.618   3.140
 9620TIP3   OH228823   6.237   5.752   5.393
 9620TIP3    H128824   6.259   5.783   5.481
 9620TIP3    H228825   6.286   5.810   5.334
 9621TIP3   OH228826   5.327   3.242   2.872
 9621TIP3    H128827   5.241   3.248   2.830
 9621TIP3    H228828   5.349   3.332   2.894
 9622TIP3   OH228829   0.024   0.320   4.415
 9622TIP3    H128830  -0.040   0.271   4.467
 9622TIP3    H228831  -0.008   0.411   4.418
 9623TIP3   OH228832   6.714   4.827   3.207
 9623TIP3    H128833   6.790   4.801   3.258
 9623TIP3    H228834   6.722   4.778   3.125
 9624TIP3   OH228835   5.649   5.541   1.275
 9624TIP3    H128836   5.590   5.491   1.331
 9624TIP3    H228837   5.643   5.498   1.190
 9625TIP3   OH228838   2.082   2.217   3.593
 9625TIP3    H128839   2.100   2.305   3.626
 9625TIP3    H228840   2.166   2.172   3.597
 9626TIP3   OH228841   6.825   3.497   4.641
 9626TIP3    H128842   6.816   3.413   4.595
 9626TIP3    H228843   6.918   3.519   4.632
 9627TIP3   OH228844   0.339   6.763   3.656
 9627TIP3    H128845   0.382   6.685   3.691
 9627TIP3    H228846   0.402   6.834   3.671
 9628TIP3   OH228847   1.956   4.397   4.643
 9628TIP3    H128848   1.950   4.446   4.725
 9628TIP3    H228849   2.046   4.364   4.641
 9629TIP3   OH228850   3.793   6.075   0.330
 9629TIP3    H128851   3.739   6.003   0.363
 9629TIP3    H228852   3.738   6.152   0.338
 9630TIP3   OH228853   4.681   6.543   4.496
 9630TIP3    H128854   4.643   6.538   4.584
 9630TIP3    H228855   4.771   6.572   4.511
 9631TIP3   OH228856   0.395   6.046   1.376
 9631TIP3    H128857   0.427   6.083   1.293
 9631TIP3    H228858   0.368   6.122   1.427
 9632TIP3   OH228859   6.210   0.814   0.767
 9632TIP3    H128860   6.175   0.772   0.846
 9632TIP3    H228861   6.179   0.758   0.695
 9633TIP3   OH228862   2.054   3.061   0.445
 9633TIP3    H128863   2.112   3.012   0.502
 9633TIP3    H228864   1.991   3.102   0.504
 9634TIP3   OH228865   4.594   1.591   0.736
 9634TIP3    H128866   4.587   1.678   0.775
 9634TIP3    H228867   4.507   1.573   0.702
 9635TIP3   OH228868   3.731   2.668   3.415
 9635TIP3    H128869   3.645   2.634   3.388
 9635TIP3    H228870   3.741   2.640   3.506
 9636TIP3   OH228871   4.089   5.245   1.892
 9636TIP3    H128872   4.021   5.199   1.842
 9636TIP3    H228873   4.040   5.300   1.953
 9637TIP3   OH228874   0.858   2.737   4.281
 9637TIP3    H128875   0.914   2.668   4.245
 9637TIP3    H228876   0.825   2.784   4.204
 9638TIP3   OH228877   1.844   2.216   1.086
 9638TIP3    H128878   1.936   2.213   1.113
 9638TIP3    H228879   1.846   2.203   0.991
 9639TIP3   OH228880   3.439   1.225   2.095
 9639TIP3    H128881   3.466   1.276   2.018
 9639TIP3    H228882   3.488   1.264   2.168
 9640TIP3   OH228883   0.254   2.098   4.862
 9640TIP3    H128884   0.320   2.061   4.921
 9640TIP3    H228885   0.188   2.030   4.854
 9641TIP3   OH228886   4.371   5.942   3.865
 9641TIP3    H128887   4.425   5.867   3.841
 9641TIP3    H228888   4.286   5.904   3.887
 9642TIP3   OH228889   3.839   2.341   0.167
 9642TIP3    H128890   3.847   2.256   0.125
 9642TIP3    H228891   3.753   2.338   0.210
 9643TIP3   OH228892   6.384   2.897   0.904
 9643TIP3    H128893   6.343   2.981   0.924
 9643TIP3    H228894   6.321   2.831   0.934
 9644TIP3   OH228895   2.744   6.597   0.077
 9644TIP3    H128896   2.776   6.521   0.125
 9644TIP3    H228897   2.653   6.577   0.057
 9645TIP3   OH228898   2.875   2.417   0.455
 9645TIP3    H128899   2.957   2.390   0.497
 9645TIP3    H228900   2.894   2.504   0.420
 9646TIP3   OH228901   2.984   6.162   4.576
 9646TIP3    H128902   2.951   6.173   4.487
 9646TIP3    H228903   2.922   6.104   4.618
 9647TIP3   OH228904   4.088   2.218   4.337
 9647TIP3    H128905   4.050   2.221   4.425
 9647TIP3    H228906   4.168   2.270   4.343
 9648TIP3   OH228907   0.374   2.194   3.981
 9648TIP3    H128908   0.357   2.279   4.023
 9648TIP3    H228909   0.336   2.204   3.893
 9649TIP3   OH228910   4.507   2.561   5.132
 9649TIP3    H128911   4.537   2.538   5.220
 9649TIP3    H228912   4.574   2.525   5.074
 9650TIP3   OH228913   1.993   5.243   1.886
 9650TIP3    H128914   1.986   5.152   1.913
 9650TIP3    H228915   2.082   5.269   1.909
 9651TIP3   OH228916   3.116   3.580   1.718
 9651TIP3    H128917   3.053   3.652   1.715
 9651TIP3    H228918   3.076   3.515   1.777
 9652TIP3   OH228919   3.715   3.719   1.038
 9652TIP3    H128920   3.751   3.770   0.965
 9652TIP3    H228921   3.779   3.650   1.053
 9653TIP3   OH228922   2.074   3.112   1.707
 9653TIP3    H128923   2.160   3.152   1.698
 9653TIP3    H228924   2.057   3.115   1.802
 9654TIP3   OH228925   5.599   6.462   1.859
 9654TIP3    H128926   5.513   6.450   1.900
 9654TIP3    H228927   5.592   6.546   1.814
 9655TIP3   OH228928   3.576   2.913   2.564
 9655TIP3    H128929   3.530   2.932   2.647
 9655TIP3    H228930   3.665   2.944   2.579
 9656TIP3   OH228931   1.418   1.222   3.284
 9656TIP3    H128932   1.447   1.166   3.212
 9656TIP3    H228933   1.354   1.169   3.332
 9657TIP3   OH228934   2.560   6.743   4.013
 9657TIP3    H128935   2.630   6.682   4.039
 9657TIP3    H228936   2.479   6.696   4.032
 9658TIP3   OH228937   0.377   5.057   4.072
 9658TIP3    H128938   0.337   4.980   4.032
 9658TIP3    H228939   0.467   5.031   4.090
 9659TIP3   OH228940   4.022   0.236   2.640
 9659TIP3    H128941   4.074   0.255   2.562
 9659TIP3    H228942   4.081   0.188   2.698
 9660TIP3   OH228943   5.964   3.213   0.446
 9660TIP3    H128944   5.995   3.133   0.489
 9660TIP3    H228945   6.035   3.239   0.388
 9661TIP3   OH228946   5.486   2.790   4.002
 9661TIP3    H128947   5.481   2.711   4.056
 9661TIP3    H228948   5.408   2.785   3.946
 9662TIP3   OH228949   2.885   0.784   0.277
 9662TIP3    H128950   2.809   0.814   0.227
 9662TIP3    H228951   2.874   0.823   0.364
 9663TIP3   OH228952   0.413   1.030   0.731
 9663TIP3    H128953   0.347   0.980   0.683
 9663TIP3    H228954   0.375   1.118   0.739
 9664TIP3   OH228955   1.222   6.365   5.295
 9664TIP3    H128956   1.271   6.336   5.218
 9664TIP3    H228957   1.156   6.298   5.308
 9665TIP3   OH228958   2.931   2.041   0.531
 9665TIP3    H128959   2.968   2.128   0.543
 9665TIP3    H228960   2.842   2.056   0.499
 9666TIP3   OH228961   4.284   5.268   3.634
 9666TIP3    H128962   4.286   5.257   3.729
 9666TIP3    H228963   4.227   5.344   3.620
 9667TIP3   OH228964   6.083   4.145   3.606
 9667TIP3    H128965   6.030   4.208   3.558
 9667TIP3    H228966   6.170   4.152   3.568
 9668TIP3   OH228967   4.354   0.046   2.553
 9668TIP3    H128968   4.285   0.063   2.489
 9668TIP3    H228969   4.321  -0.027   2.605
 9669TIP3   OH228970   2.113   5.481   5.327
 9669TIP3    H128971   2.197   5.474   5.283
 9669TIP3    H228972   2.062   5.407   5.293
 9670TIP3   OH228973   3.397   0.222   5.503
 9670TIP3    H128974   3.403   0.309   5.465
 9670TIP3    H228975   3.484   0.184   5.490
 9671TIP3   OH228976   6.013   5.827   3.787
 9671TIP3    H128977   6.034   5.835   3.880
 9671TIP3    H228978   6.004   5.733   3.773
 9672TIP3   OH228979   4.364   3.596   5.160
 9672TIP3    H128980   4.426   3.646   5.211
 9672TIP3    H228981   4.400   3.507   5.157
 9673TIP3   OH228982   3.523   4.749   1.878
 9673TIP3    H128983   3.457   4.817   1.866
 9673TIP3    H228984   3.599   4.794   1.915
 9674TIP3   OH228985   4.804   5.087   0.192
 9674TIP3    H128986   4.883   5.046   0.157
 9674TIP3    H228987   4.732   5.035   0.155
 9675TIP3   OH228988   4.728   0.924   1.011
 9675TIP3    H128989   4.672   0.862   1.057
 9675TIP3    H228990   4.807   0.873   0.990
 9676TIP3   OH228991   1.375   5.099   1.100
 9676TIP3    H128992   1.347   5.041   1.171
 9676TIP3    H228993   1.469   5.083   1.091
 9677TIP3   OH228994   5.588   0.096   0.341
 9677TIP3    H128995   5.610   0.181   0.301
 9677TIP3    H228996   5.508   0.069   0.297
 9678TIP3   OH228997   5.489   1.857   1.321
 9678TIP3    H128998   5.491   1.921   1.250
 9678TIP3    H228999   5.427   1.894   1.385
 9679TIP3   OH229000   3.501   0.529   0.078
 9679TIP3    H129001   3.476   0.450   0.029
 9679TIP3    H229002   3.502   0.501   0.169
 9680TIP3   OH229003   7.056   1.925   3.900
 9680TIP3    H129004   7.090   1.885   3.981
 9680TIP3    H229005   6.986   1.983   3.929
 9681TIP3   OH229006   4.312   1.807   2.006
 9681TIP3    H129007   4.345   1.894   1.985
 9681TIP3    H229008   4.229   1.823   2.051
 9682TIP3   OH229009   4.734   3.442   4.281
 9682TIP3    H129010   4.682   3.368   4.251
 9682TIP3    H229011   4.708   3.514   4.225
 9683TIP3   OH229012   5.000   3.337   5.751
 9683TIP3    H129013   4.939   3.389   5.700
 9683TIP3    H229014   5.033   3.397   5.818
 9684TIP3   OH229015   0.075   4.685   1.634
 9684TIP3    H129016   0.075   4.666   1.540
 9684TIP3    H229017   0.167   4.680   1.660
 9685TIP3   OH229018   3.054   3.211   5.886
 9685TIP3    H129019   3.077   3.123   5.859
 9685TIP3    H229020   3.137   3.249   5.916
 9686TIP3   OH229021   4.623   1.787   1.037
 9686TIP3    H129022   4.620   1.791   0.941
 9686TIP3    H229023   4.531   1.792   1.064
 9687TIP3   OH229024   6.070   0.460   5.064
 9687TIP3    H129025   6.165   0.468   5.054
 9687TIP3    H229026   6.035   0.545   5.038
 9688TIP3   OH229027   6.884   0.424   0.566
 9688TIP3    H129028   6.913   0.501   0.616
 9688TIP3    H229029   6.910   0.442   0.476
 9689TIP3   OH229030   1.687   3.859   2.125
 9689TIP3    H129031   1.763   3.877   2.179
 9689TIP3    H229032   1.722   3.854   2.036
 9690TIP3   OH229033   2.057   2.253   2.283
 9690TIP3    H129034   2.082   2.195   2.355
 9690TIP3    H229035   2.128   2.316   2.277
 9691TIP3   OH229036   2.378   4.271   0.120
 9691TIP3    H129037   2.459   4.242   0.076
 9691TIP3    H229038   2.370   4.363   0.096
 9692TIP3   OH229039   3.020   0.977   3.596
 9692TIP3    H129040   2.934   1.020   3.598
 9692TIP3    H229041   3.075   1.031   3.652
 9693TIP3   OH229042   4.615   1.240   4.854
 9693TIP3    H129043   4.541   1.211   4.909
 9693TIP3    H229044   4.672   1.163   4.849
 9694TIP3   OH229045   4.993   2.385   4.210
 9694TIP3    H129046   5.036   2.397   4.126
 9694TIP3    H229047   4.906   2.424   4.198
 9695TIP3   OH229048   3.353   0.960   5.346
 9695TIP3    H129049   3.440   0.951   5.387
 9695TIP3    H229050   3.291   0.944   5.417
 9696TIP3   OH229051   0.373   0.711   4.801
 9696TIP3    H129052   0.293   0.672   4.837
 9696TIP3    H229053   0.368   0.692   4.707
 9697TIP3   OH229054   1.063   5.885   1.363
 9697TIP3    H129055   1.029   5.797   1.348
 9697TIP3    H229056   1.103   5.909   1.279
 9698TIP3   OH229057   2.810   4.406   4.564
 9698TIP3    H129058   2.857   4.371   4.489
 9698TIP3    H229059   2.770   4.329   4.606
 9699TIP3   OH229060   1.206   1.316   1.608
 9699TIP3    H129061   1.280   1.376   1.607
 9699TIP3    H229062   1.138   1.362   1.657
 9700TIP3   OH229063   2.691   4.530   3.778
 9700TIP3    H129064   2.723   4.554   3.692
 9700TIP3    H229065   2.623   4.464   3.762
 9701TIP3   OH229066   0.182   0.950   4.663
 9701TIP3    H129067   0.178   0.855   4.669
 9701TIP3    H229068   0.090   0.978   4.662
 9702TIP3   OH229069   3.414   1.089   4.935
 9702TIP3    H129070   3.477   1.018   4.942
 9702TIP3    H229071   3.339   1.051   4.890
 9703TIP3   OH229072   5.499   6.739   4.527
 9703TIP3    H129073   5.568   6.736   4.461
 9703TIP3    H229074   5.420   6.762   4.479
 9704TIP3   OH229075   1.266   6.006   0.556
 9704TIP3    H129076   1.351   6.022   0.597
 9704TIP3    H229077   1.213   6.082   0.580
 9705TIP3   OH229078   2.290   1.773   1.682
 9705TIP3    H129079   2.385   1.783   1.691
 9705TIP3    H229080   2.254   1.852   1.723
 9706TIP3   OH229081   5.486   2.713   2.665
 9706TIP3    H129082   5.488   2.806   2.685
 9706TIP3    H229083   5.577   2.685   2.666
 9707TIP3   OH229084   7.054   2.851   1.152
 9707TIP3    H129085   7.114   2.790   1.195
 9707TIP3    H229086   6.977   2.853   1.207
 9708TIP3   OH229087   1.503   5.476   2.086
 9708TIP3    H129088   1.472   5.475   2.176
 9708TIP3    H229089   1.525   5.385   2.067
 9709TIP3   OH229090   0.025   4.982   4.386
 9709TIP3    H129091  -0.030   4.947   4.456
 9709TIP3    H229092  -0.038   5.013   4.320
 9710TIP3   OH229093   5.428   5.971   2.374
 9710TIP3    H129094   5.411   5.883   2.342
 9710TIP3    H229095   5.352   6.022   2.344
 9711TIP3   OH229096   2.953   4.370   4.817
 9711TIP3    H129097   3.013   4.379   4.743
 9711TIP3    H229098   2.891   4.442   4.806
 9712TIP3   OH229099   5.988   1.488   3.883
 9712TIP3    H129100   5.955   1.563   3.833
 9712TIP3    H229101   5.927   1.417   3.860
 9713TIP3   OH229102   6.008   6.071   0.156
 9713TIP3    H129103   5.968   6.003   0.101
 9713TIP3    H229104   5.990   6.153   0.109
 9714TIP3   OH229105   6.000   5.346   4.143
 9714TIP3    H129106   6.087   5.374   4.115
 9714TIP3    H229107   5.958   5.313   4.064
 9715TIP3   OH229108   2.802   4.619   5.491
 9715TIP3    H129109   2.810   4.685   5.422
 9715TIP3    H229110   2.790   4.536   5.444
 9716TIP3   OH229111   0.551   0.516   0.236
 9716TIP3    H129112   0.488   0.527   0.307
 9716TIP3    H229113   0.525   0.581   0.171
 9717TIP3   OH229114   6.990   0.575   3.341
 9717TIP3    H129115   6.926   0.561   3.411
 9717TIP3    H229116   7.055   0.507   3.355
 9718TIP3   OH229117   2.127   4.170   5.580
 9718TIP3    H129118   2.044   4.186   5.625
 9718TIP3    H229119   2.191   4.225   5.625
 9719TIP3   OH229120   2.316   4.974   0.172
 9719TIP3    H129121   2.287   4.945   0.259
 9719TIP3    H229122   2.350   5.063   0.187
 9720TIP3   OH229123   7.002   4.592   5.004
 9720TIP3    H129124   6.917   4.550   4.991
 9720TIP3    H229125   6.995   4.675   4.958
 9721TIP3   OH229126   0.366   6.502   3.716
 9721TIP3    H129127   0.323   6.417   3.721
 9721TIP3    H229128   0.362   6.537   3.804
 9722TIP3   OH229129   6.510   5.309   5.795
 9722TIP3    H129130   6.537   5.394   5.829
 9722TIP3    H229131   6.484   5.260   5.873
 9723TIP3   OH229132   6.786   1.386   0.262
 9723TIP3    H129133   6.722   1.446   0.300
 9723TIP3    H229134   6.863   1.440   0.247
 9724TIP3   OH229135   6.620   2.388   2.409
 9724TIP3    H129136   6.565   2.347   2.342
 9724TIP3    H229137   6.654   2.467   2.367
 9725TIP3   OH229138   3.826   1.824   4.756
 9725TIP3    H129139   3.798   1.733   4.752
 9725TIP3    H229140   3.786   1.865   4.679
 9726TIP3   OH229141   5.373   1.807   3.814
 9726TIP3    H129142   5.451   1.862   3.811
 9726TIP3    H229143   5.377   1.756   3.733
 9727TIP3   OH229144   2.301   3.349   5.702
 9727TIP3    H129145   2.302   3.273   5.644
 9727TIP3    H229146   2.259   3.318   5.782
 9728TIP3   OH229147   4.226   1.426   4.990
 9728TIP3    H129148   4.258   1.505   5.035
 9728TIP3    H229149   4.214   1.362   5.061
 9729TIP3   OH229150   4.444   6.659   5.440
 9729TIP3    H129151   4.496   6.617   5.372
 9729TIP3    H229152   4.368   6.601   5.451
 9730TIP3   OH229153   2.483   2.607   2.269
 9730TIP3    H129154   2.517   2.696   2.281
 9730TIP3    H229155   2.560   2.551   2.274
 9731TIP3   OH229156   2.853   3.059   4.771
 9731TIP3    H129157   2.853   3.151   4.743
 9731TIP3    H229158   2.924   3.053   4.835
 9732TIP3   OH229159   7.106   5.945   3.289
 9732TIP3    H129160   7.170   5.956   3.219
 9732TIP3    H229161   7.086   6.035   3.317
 9733TIP3   OH229162   0.805   0.314   2.800
 9733TIP3    H129163   0.824   0.402   2.832
 9733TIP3    H229164   0.790   0.263   2.880
 9734TIP3   OH229165   6.894   3.971   3.610
 9734TIP3    H129166   6.946   4.023   3.549
 9734TIP3    H229167   6.885   4.028   3.687
 9735TIP3   OH229168   4.288   1.306   5.432
 9735TIP3    H129169   4.383   1.313   5.442
 9735TIP3    H229170   4.253   1.353   5.508
 9736TIP3   OH229171   4.692   3.141   5.524
 9736TIP3    H129172   4.705   3.138   5.430
 9736TIP3    H229173   4.780   3.148   5.560
 9737TIP3   OH229174   4.985   1.671   5.682
 9737TIP3    H129175   4.918   1.673   5.751
 9737TIP3    H229176   4.941   1.627   5.609
 9738TIP3   OH229177   1.340   2.787   5.331
 9738TIP3    H129178   1.364   2.709   5.381
 9738TIP3    H229179   1.291   2.842   5.393
 9739TIP3   OH229180   3.317   4.466   4.976
 9739TIP3    H129181   3.357   4.379   4.977
 9739TIP3    H229182   3.301   4.484   4.884
 9740TIP3   OH229183   1.798   6.702   0.491
 9740TIP3    H129184   1.742   6.761   0.441
 9740TIP3    H229185   1.883   6.746   0.495
 9741TIP3   OH229186   1.051   2.924   4.637
 9741TIP3    H129187   1.128   2.924   4.693
 9741TIP3    H229188   0.996   2.853   4.671
 9742TIP3   OH229189   3.058   1.850   0.677
 9742TIP3    H129190   3.098   1.914   0.737
 9742TIP3    H229191   3.003   1.903   0.619
 9743TIP3   OH229192   6.317   6.568   4.419
 9743TIP3    H129193   6.321   6.607   4.332
 9743TIP3    H229194   6.399   6.595   4.461
 9744TIP3   OH229195   2.119   0.959   4.054
 9744TIP3    H129196   2.073   0.932   3.974
 9744TIP3    H229197   2.204   0.916   4.048
 9745TIP3   OH229198   4.917   0.218   5.456
 9745TIP3    H129199   4.997   0.221   5.509
 9745TIP3    H229200   4.932   0.146   5.395
 9746TIP3   OH229201   4.564   6.347   1.610
 9746TIP3    H129202   4.618   6.311   1.681
 9746TIP3    H229203   4.594   6.437   1.599
 9747TIP3   OH229204   0.387   4.566   4.447
 9747TIP3    H129205   0.393   4.471   4.453
 9747TIP3    H229206   0.419   4.597   4.532
 9748TIP3   OH229207   2.030   1.762   1.579
 9748TIP3    H129208   2.001   1.813   1.503
 9748TIP3    H229209   2.124   1.779   1.585
 9749TIP3   OH229210   4.582   1.060   1.984
 9749TIP3    H129211   4.632   1.094   1.909
 9749TIP3    H229212   4.532   0.986   1.949
   7.21454   6.80194   5.89064   0.00000   0.00000  -2.40485   0.00000  -2.40485  -3.40097
