Title t= 498.00000 step= 249000
29212
    1ASP      N    1   3.367   2.141   2.727
    1ASP    HT1    2   3.356   2.179   2.823
    1ASP    HT2    3   3.316   2.197   2.655
    1ASP    HT3    4   3.462   2.160   2.691
    1ASP     CA    5   3.323   2.002   2.712
    1ASP     HA    6   3.338   1.981   2.608
    1ASP     CB    7   3.420   1.906   2.794
    1ASP    HB1    8   3.396   1.801   2.766
    1ASP    HB2    9   3.415   1.925   2.903
    1ASP     CG   10   3.565   1.929   2.766
    1ASP    OD1   11   3.600   2.002   2.676
    1ASP    OD2   12   3.649   1.853   2.822
    1ASP      C   13   3.175   1.990   2.753
    1ASP      O   14   3.093   2.083   2.726
    2GLY      N   15   3.129   1.877   2.809
    2GLY     HN   16   3.188   1.797   2.819
    2GLY     CA   17   2.989   1.863   2.868
    2GLY    HA1   18   2.980   1.949   2.932
    2GLY    HA2   19   2.983   1.775   2.931
    2GLY      C   20   2.876   1.859   2.767
    2GLY      O   21   2.889   1.892   2.652
    3ASP      N   22   2.758   1.811   2.806
    3ASP     HN   23   2.752   1.769   2.897
    3ASP     CA   24   2.649   1.796   2.713
    3ASP     HA   25   2.693   1.742   2.631
    3ASP     CB   26   2.527   1.711   2.781
    3ASP    HB1   27   2.435   1.707   2.719
    3ASP    HB2   28   2.498   1.755   2.879
    3ASP     CG   29   2.561   1.559   2.810
    3ASP    OD1   30   2.500   1.497   2.903
    3ASP    OD2   31   2.626   1.491   2.730
    3ASP      C   32   2.580   1.926   2.657
    3ASP      O   33   2.604   2.037   2.698
    4GLY      N   34   2.480   1.915   2.558
    4GLY     HN   35   2.459   1.827   2.515
    4GLY     CA   36   2.404   2.031   2.504
    4GLY    HA1   37   2.335   1.980   2.438
    4GLY    HA2   38   2.476   2.088   2.447
    4GLY      C   39   2.312   2.102   2.592
    4GLY      O   40   2.292   2.059   2.704
    5PRO      N   41   2.237   2.206   2.539
    5PRO     CD   42   2.270   2.258   2.410
    5PRO    HD1   43   2.272   2.179   2.332
    5PRO    HD2   44   2.367   2.311   2.417
    5PRO     CA   45   2.123   2.270   2.601
    5PRO     HA   46   2.156   2.338   2.679
    5PRO     CB   47   2.057   2.347   2.482
    5PRO    HB1   48   1.997   2.438   2.505
    5PRO    HB2   49   1.977   2.289   2.430
    5PRO     CG   50   2.174   2.376   2.390
    5PRO    HG1   51   2.140   2.406   2.288
    5PRO    HG2   52   2.229   2.468   2.417
    5PRO      C   53   2.031   2.183   2.663
    5PRO      O   54   1.995   2.090   2.594
    6GLY      N   55   1.981   2.215   2.780
    6GLY     HN   56   2.025   2.292   2.825
    6GLY     CA   57   1.872   2.136   2.842
    6GLY    HA1   58   1.847   2.179   2.938
    6GLY    HA2   59   1.898   2.032   2.825
    6GLY      C   60   1.738   2.158   2.779
    6GLY      O   61   1.706   2.271   2.728
    7ASP      N   62   1.660   2.043   2.779
    7ASP     HN   63   1.713   1.963   2.805
    7ASP     CA   64   1.524   2.040   2.736
    7ASP     HA   65   1.510   2.097   2.645
    7ASP     CB   66   1.481   1.889   2.709
    7ASP    HB1   67   1.373   1.884   2.736
    7ASP    HB2   68   1.530   1.816   2.777
    7ASP     CG   69   1.509   1.845   2.565
    7ASP    OD1   70   1.519   1.726   2.542
    7ASP    OD2   71   1.505   1.938   2.475
    7ASP      C   72   1.437   2.126   2.840
    7ASP      O   73   1.466   2.117   2.959
    8PRO      N   74   1.323   2.204   2.806
    8PRO     CD   75   1.275   2.218   2.669
    8PRO    HD1   76   1.244   2.117   2.636
    8PRO    HD2   77   1.356   2.254   2.602
    8PRO     CA   78   1.268   2.304   2.903
    8PRO     HA   79   1.352   2.351   2.951
    8PRO     CB   80   1.191   2.401   2.812
    8PRO    HB1   81   1.264   2.478   2.777
    8PRO    HB2   82   1.104   2.450   2.861
    8PRO     CG   83   1.156   2.313   2.688
    8PRO    HG1   84   1.065   2.252   2.712
    8PRO    HG2   85   1.140   2.360   2.589
    8PRO      C   86   1.173   2.233   3.001
    8PRO      O   87   1.095   2.301   3.078
    9GLY      N   88   1.161   2.099   3.004
    9GLY     HN   89   1.212   2.059   2.929
    9GLY     CA   90   1.094   2.017   3.102
    9GLY    HA1   91   1.127   1.921   3.065
    9GLY    HA2   92   0.988   2.039   3.102
    9GLY      C   93   1.136   2.036   3.245
    9GLY      O   94   1.253   2.066   3.267
   10ASP      N   95   1.045   2.029   3.342
   10ASP     HN   96   0.947   2.021   3.328
   10ASP     CA   97   1.084   2.038   3.479
   10ASP     HA   98   1.127   2.134   3.504
   10ASP     CB   99   0.958   2.020   3.571
   10ASP    HB1  100   0.980   2.018   3.680
   10ASP    HB2  101   0.917   1.918   3.551
   10ASP     CG  102   0.849   2.126   3.544
   10ASP    OD1  103   0.872   2.225   3.466
   10ASP    OD2  104   0.747   2.117   3.619
   10ASP      C  105   1.194   1.937   3.522
   10ASP      O  106   1.183   1.818   3.502
   11GLY      N  107   1.301   1.990   3.589
   11GLY     HN  108   1.308   2.088   3.608
   11GLY     CA  109   1.386   1.900   3.659
   11GLY    HA1  110   1.423   1.834   3.581
   11GLY    HA2  111   1.331   1.867   3.746
   11GLY      C  112   1.501   1.983   3.727
   11GLY    OT1  113   1.613   1.936   3.757
   11GLY    OT2  114   1.481   2.103   3.753
   12LIT    LIT  115   0.147   1.521   1.041
   13LIT    LIT  116   5.928   1.106   1.302
   14LIT    LIT  117   0.558   5.255   0.499
   15LIT    LIT  118   6.501   3.975   3.032
   16LIT    LIT  119   1.653   2.163   3.788
   17LIT    LIT  120   3.518   5.276   3.901
   18LIT    LIT  121   2.808   3.567   2.896
   19LIT    LIT  122   4.055   6.815   4.963
   20LIT    LIT  123   0.345   0.124   4.623
   21LIT    LIT  124   0.963   4.875   4.570
   22LIT    LIT  125   5.769   1.968   4.279
   23LIT    LIT  126   4.599   1.943   1.659
   24LIT    LIT  127   2.316   6.250   0.633
   25LIT    LIT  128   0.243   3.514   1.811
   26LIT    LIT  129   0.733   2.310   3.617
   27LIT    LIT  130   5.658   5.872   4.458
   28LIT    LIT  131   4.764   0.313   5.227
   29LIT    LIT  132   6.680   2.272   2.486
   30LIT    LIT  133   0.980   0.160   1.450
   31LIT    LIT  134   5.625   3.203   0.614
   32LIT    LIT  135   6.506   4.617   5.547
   33LIT    LIT  136   2.572   4.628   2.706
   34LIT    LIT  137   6.774   3.070   5.267
   35LIT    LIT  138   0.566   2.338   1.954
   36LIT    LIT  139   6.635   6.324   1.872
   37LIT    LIT  140   2.824   3.966   4.545
   38LIT    LIT  141   0.756   0.688   0.256
   39LIT    LIT  142   3.787   1.954   2.687
   40LIT    LIT  143   3.443   6.297   2.047
   41LIT    LIT  144   3.892   2.069   3.455
   42LIT    LIT  145   2.573   1.329   2.833
   43CLA    CLA  146   3.330   6.094   2.028
   44CLA    CLA  147   7.187   4.484   4.374
   45CLA    CLA  148   2.811   2.941   2.936
   46CLA    CLA  149   3.800   0.986   5.325
   47CLA    CLA  150   7.065   1.087   3.155
   48CLA    CLA  151   0.268   0.075   2.428
   49CLA    CLA  152   1.096   2.983   4.096
   50CLA    CLA  153   6.504   3.456   2.135
   51CLA    CLA  154   3.639   6.173   1.627
   52CLA    CLA  155   1.076   4.786   4.996
   53CLA    CLA  156   3.321   0.990   3.145
   54CLA    CLA  157   2.087   1.009   0.930
   55CLA    CLA  158   0.262   2.749   5.380
   56CLA    CLA  159   1.696   0.490   2.914
   57CLA    CLA  160   1.021   0.047   4.682
   58CLA    CLA  161   2.355   4.561   2.657
   59CLA    CLA  162   5.536   1.987   1.306
   60CLA    CLA  163   1.746   6.326   1.050
   61CLA    CLA  164   0.464   2.155   1.869
   62CLA    CLA  165   1.643   1.422   2.228
   63CLA    CLA  166   1.949   5.534   4.577
   64CLA    CLA  167   6.950   1.316   4.699
   65CLA    CLA  168   2.019   6.718   0.816
   66CLA    CLA  169   6.747   4.282   1.622
   67CLA    CLA  170   0.824   4.363   4.905
   68CLA    CLA  171   4.419   2.533   3.170
   69CLA    CLA  172   2.782   5.827   4.859
   70TIP3   OH2  173   1.423   3.423   2.058
   70TIP3    H1  174   1.372   3.446   2.135
   70TIP3    H2  175   1.371   3.455   1.984
   71TIP3   OH2  176   1.881   1.628   1.044
   71TIP3    H1  177   1.881   1.710   1.093
   71TIP3    H2  178   1.801   1.584   1.072
   72TIP3   OH2  179   6.659   5.414   5.427
   72TIP3    H1  180   6.585   5.460   5.466
   72TIP3    H2  181   6.620   5.341   5.379
   73TIP3   OH2  182   5.201   0.521   4.294
   73TIP3    H1  183   5.290   0.507   4.327
   73TIP3    H2  184   5.194   0.615   4.283
   74TIP3   OH2  185   2.282   2.530   4.640
   74TIP3    H1  186   2.307   2.476   4.565
   74TIP3    H2  187   2.191   2.506   4.658
   75TIP3   OH2  188   5.828   3.010   1.362
   75TIP3    H1  189   5.920   3.038   1.365
   75TIP3    H2  190   5.800   3.009   1.453
   76TIP3   OH2  191   4.718   3.853   4.980
   76TIP3    H1  192   4.712   3.927   5.041
   76TIP3    H2  193   4.689   3.889   4.897
   77TIP3   OH2  194   5.789   5.089   2.665
   77TIP3    H1  195   5.810   5.168   2.715
   77TIP3    H2  196   5.754   5.121   2.582
   78TIP3   OH2  197   4.537   2.293   3.869
   78TIP3    H1  198   4.500   2.376   3.899
   78TIP3    H2  199   4.624   2.316   3.837
   79TIP3   OH2  200   1.724   5.895   2.416
   79TIP3    H1  201   1.742   5.845   2.495
   79TIP3    H2  202   1.722   5.986   2.445
   80TIP3   OH2  203   1.881   0.229   2.895
   80TIP3    H1  204   1.830   0.149   2.902
   80TIP3    H2  205   1.817   0.299   2.909
   81TIP3   OH2  206   6.410   2.055   2.157
   81TIP3    H1  207   6.483   2.021   2.210
   81TIP3    H2  208   6.337   1.995   2.177
   82TIP3   OH2  209   3.452   3.069   4.972
   82TIP3    H1  210   3.528   3.015   4.997
   82TIP3    H2  211   3.459   3.078   4.877
   83TIP3   OH2  212   2.113   6.001   5.413
   83TIP3    H1  213   2.183   5.936   5.409
   83TIP3    H2  214   2.035   5.952   5.440
   84TIP3   OH2  215   6.924   5.329   5.312
   84TIP3    H1  216   6.887   5.401   5.261
   84TIP3    H2  217   7.018   5.331   5.291
   85TIP3   OH2  218   0.708   1.695   3.028
   85TIP3    H1  219   0.670   1.647   2.954
   85TIP3    H2  220   0.654   1.670   3.103
   86TIP3   OH2  221   2.747   0.437   0.727
   86TIP3    H1  222   2.778   0.509   0.671
   86TIP3    H2  223   2.659   0.464   0.754
   87TIP3   OH2  224   5.819   4.130   2.349
   87TIP3    H1  225   5.911   4.125   2.324
   87TIP3    H2  226   5.772   4.132   2.266
   88TIP3   OH2  227   1.107   4.059   5.220
   88TIP3    H1  228   1.155   4.135   5.187
   88TIP3    H2  229   1.109   4.069   5.315
   89TIP3   OH2  230   1.194   5.323   0.736
   89TIP3    H1  231   1.240   5.268   0.800
   89TIP3    H2  232   1.156   5.393   0.788
   90TIP3   OH2  233   2.615   2.474   1.415
   90TIP3    H1  234   2.553   2.541   1.444
   90TIP3    H2  235   2.701   2.512   1.432
   91TIP3   OH2  236   6.474   1.927   4.908
   91TIP3    H1  237   6.551   1.980   4.889
   91TIP3    H2  238   6.454   1.883   4.825
   92TIP3   OH2  239   2.702   0.088  -0.001
   92TIP3    H1  240   2.674   0.049   0.082
   92TIP3    H2  241   2.755   0.020  -0.044
   93TIP3   OH2  242   1.770   0.987   5.579
   93TIP3    H1  243   1.680   0.957   5.566
   93TIP3    H2  244   1.772   1.075   5.541
   94TIP3   OH2  245   2.851   4.306   0.117
   94TIP3    H1  246   2.815   4.288   0.030
   94TIP3    H2  247   2.946   4.304   0.104
   95TIP3   OH2  248   0.940   0.275   1.296
   95TIP3    H1  249   1.011   0.327   1.259
   95TIP3    H2  250   0.877   0.267   1.224
   96TIP3   OH2  251   3.684   4.331   3.637
   96TIP3    H1  252   3.689   4.328   3.542
   96TIP3    H2  253   3.704   4.242   3.666
   97TIP3   OH2  254   6.397   4.362   2.703
   97TIP3    H1  255   6.302   4.370   2.699
   97TIP3    H2  256   6.418   4.292   2.641
   98TIP3   OH2  257   1.790   4.863   1.571
   98TIP3    H1  258   1.845   4.816   1.507
   98TIP3    H2  259   1.706   4.818   1.568
   99TIP3   OH2  260   1.083   3.070   3.733
   99TIP3    H1  261   1.170   3.032   3.742
   99TIP3    H2  262   1.078   3.136   3.802
  100TIP3   OH2  263   0.593   3.432   4.108
  100TIP3    H1  264   0.663   3.375   4.140
  100TIP3    H2  265   0.591   3.417   4.014
  101TIP3   OH2  266   6.469   4.766   4.848
  101TIP3    H1  267   6.419   4.826   4.904
  101TIP3    H2  268   6.550   4.813   4.829
  102TIP3   OH2  269   3.022   0.933   3.977
  102TIP3    H1  270   2.933   0.960   3.956
  102TIP3    H2  271   3.041   0.862   3.916
  103TIP3   OH2  272   0.210   1.019   2.183
  103TIP3    H1  273   0.271   1.054   2.117
  103TIP3    H2  274   0.256   0.944   2.221
  104TIP3   OH2  275   1.311   2.461   1.128
  104TIP3    H1  276   1.246   2.422   1.069
  104TIP3    H2  277   1.358   2.387   1.165
  105TIP3   OH2  278   2.234   0.332   3.374
  105TIP3    H1  279   2.189   0.255   3.408
  105TIP3    H2  280   2.167   0.380   3.325
  106TIP3   OH2  281   2.334   3.640   1.554
  106TIP3    H1  282   2.242   3.653   1.577
  106TIP3    H2  283   2.375   3.725   1.570
  107TIP3   OH2  284   5.632   3.083   4.822
  107TIP3    H1  285   5.588   3.151   4.873
  107TIP3    H2  286   5.699   3.129   4.772
  108TIP3   OH2  287   1.606   4.405   1.255
  108TIP3    H1  288   1.616   4.327   1.310
  108TIP3    H2  289   1.516   4.399   1.222
  109TIP3   OH2  290   2.249   4.121   0.616
  109TIP3    H1  291   2.236   4.060   0.689
  109TIP3    H2  292   2.213   4.204   0.647
  110TIP3   OH2  293   4.692   3.906   3.559
  110TIP3    H1  294   4.732   3.955   3.631
  110TIP3    H2  295   4.702   3.964   3.483
  111TIP3   OH2  296   2.943   5.950   3.986
  111TIP3    H1  297   3.001   6.008   3.937
  111TIP3    H2  298   2.928   5.994   4.069
  112TIP3   OH2  299   4.839   3.577   4.386
  112TIP3    H1  300   4.865   3.638   4.455
  112TIP3    H2  301   4.921   3.535   4.359
  113TIP3   OH2  302   3.941   1.875   1.493
  113TIP3    H1  303   3.898   1.890   1.577
  113TIP3    H2  304   3.900   1.797   1.458
  114TIP3   OH2  305   2.812   4.131   0.886
  114TIP3    H1  306   2.801   4.161   0.796
  114TIP3    H2  307   2.779   4.203   0.939
  115TIP3   OH2  308   4.232   5.722   2.967
  115TIP3    H1  309   4.139   5.713   2.948
  115TIP3    H2  310   4.243   5.816   2.984
  116TIP3   OH2  311   0.294   4.566   5.033
  116TIP3    H1  312   0.286   4.564   4.938
  116TIP3    H2  313   0.365   4.627   5.050
  117TIP3   OH2  314   6.269   3.466   4.013
  117TIP3    H1  315   6.221   3.528   4.067
  117TIP3    H2  316   6.353   3.454   4.057
  118TIP3   OH2  317   4.780   5.805   0.777
  118TIP3    H1  318   4.688   5.828   0.789
  118TIP3    H2  319   4.779   5.720   0.734
  119TIP3   OH2  320   3.059   3.761   3.577
  119TIP3    H1  321   3.080   3.787   3.667
  119TIP3    H2  322   3.130   3.703   3.552
  120TIP3   OH2  323   6.487   0.694   1.938
  120TIP3    H1  324   6.406   0.661   1.897
  120TIP3    H2  325   6.530   0.743   1.868
  121TIP3   OH2  326  -0.043   2.369   2.785
  121TIP3    H1  327   0.028   2.420   2.747
  121TIP3    H2  328  -0.015   2.353   2.875
  122TIP3   OH2  329   4.425   5.259   3.562
  122TIP3    H1  330   4.454   5.346   3.535
  122TIP3    H2  331   4.498   5.224   3.612
  123TIP3   OH2  332   7.156   6.180   1.226
  123TIP3    H1  333   7.177   6.199   1.317
  123TIP3    H2  334   7.152   6.084   1.222
  124TIP3   OH2  335   5.932   1.273   3.560
  124TIP3    H1  336   5.911   1.182   3.539
  124TIP3    H2  337   5.917   1.321   3.478
  125TIP3   OH2  338   5.012   4.189   0.337
  125TIP3    H1  339   5.030   4.109   0.386
  125TIP3    H2  340   4.961   4.159   0.262
  126TIP3   OH2  341   3.137   4.931   3.384
  126TIP3    H1  342   3.185   4.926   3.467
  126TIP3    H2  343   3.045   4.931   3.409
  127TIP3   OH2  344   6.059   2.078   3.218
  127TIP3    H1  345   5.996   2.120   3.276
  127TIP3    H2  346   6.138   2.132   3.224
  128TIP3   OH2  347   0.361   1.592   5.111
  128TIP3    H1  348   0.434   1.542   5.074
  128TIP3    H2  349   0.400   1.674   5.140
  129TIP3   OH2  350   4.114   0.572   1.735
  129TIP3    H1  351   4.147   0.594   1.822
  129TIP3    H2  352   4.191   0.537   1.689
  130TIP3   OH2  353   0.550   1.290   0.005
  130TIP3    H1  354   0.517   1.374   0.036
  130TIP3    H2  355   0.641   1.308  -0.021
  131TIP3   OH2  356   4.725   0.599   4.587
  131TIP3    H1  357   4.705   0.691   4.570
  131TIP3    H2  358   4.718   0.556   4.502
  132TIP3   OH2  359   5.305   2.386   3.513
  132TIP3    H1  360   5.335   2.321   3.449
  132TIP3    H2  361   5.235   2.341   3.561
  133TIP3   OH2  362   2.275   2.924   1.551
  133TIP3    H1  363   2.235   2.897   1.633
  133TIP3    H2  364   2.201   2.931   1.490
  134TIP3   OH2  365   3.789   2.431   3.600
  134TIP3    H1  366   3.819   2.402   3.686
  134TIP3    H2  367   3.745   2.354   3.563
  135TIP3   OH2  368   2.611   5.861   3.521
  135TIP3    H1  369   2.569   5.839   3.604
  135TIP3    H2  370   2.541   5.899   3.468
  136TIP3   OH2  371   1.683   4.996   2.729
  136TIP3    H1  372   1.750   5.001   2.797
  136TIP3    H2  373   1.648   5.085   2.723
  137TIP3   OH2  374   4.941   5.116   3.702
  137TIP3    H1  375   4.872   5.117   3.636
  137TIP3    H2  376   5.019   5.086   3.655
  138TIP3   OH2  377   7.021   5.094   4.949
  138TIP3    H1  378   7.101   5.128   4.990
  138TIP3    H2  379   6.999   5.017   5.001
  139TIP3   OH2  380   2.438   4.694   1.588
  139TIP3    H1  381   2.518   4.743   1.573
  139TIP3    H2  382   2.368   4.760   1.583
  140TIP3   OH2  383   1.985   4.334   1.847
  140TIP3    H1  384   1.958   4.324   1.756
  140TIP3    H2  385   1.955   4.255   1.890
  141TIP3   OH2  386   6.684   4.299   4.585
  141TIP3    H1  387   6.768   4.274   4.547
  141TIP3    H2  388   6.674   4.392   4.562
  142TIP3   OH2  389   7.159   5.756   1.404
  142TIP3    H1  390   7.196   5.824   1.461
  142TIP3    H2  391   7.215   5.679   1.420
  143TIP3   OH2  392   0.150   6.220   1.730
  143TIP3    H1  393   0.183   6.162   1.798
  143TIP3    H2  394   0.184   6.307   1.752
  144TIP3   OH2  395   6.745   5.301   5.762
  144TIP3    H1  396   6.765   5.376   5.818
  144TIP3    H2  397   6.653   5.310   5.740
  145TIP3   OH2  398   0.873   6.023   3.719
  145TIP3    H1  399   0.958   6.061   3.695
  145TIP3    H2  400   0.849   6.067   3.800
  146TIP3   OH2  401   7.083   5.322   0.486
  146TIP3    H1  402   7.080   5.254   0.554
  146TIP3    H2  403   7.139   5.284   0.418
  147TIP3   OH2  404   0.203   0.153   5.241
  147TIP3    H1  405   0.170   0.094   5.309
  147TIP3    H2  406   0.124   0.193   5.204
  148TIP3   OH2  407   5.753   4.859   0.435
  148TIP3    H1  408   5.781   4.863   0.344
  148TIP3    H2  409   5.763   4.948   0.467
  149TIP3   OH2  410   0.485   6.454   4.298
  149TIP3    H1  411   0.536   6.519   4.346
  149TIP3    H2  412   0.399   6.496   4.287
  150TIP3   OH2  413   4.891   0.160   2.793
  150TIP3    H1  414   4.969   0.155   2.737
  150TIP3    H2  415   4.828   0.211   2.742
  151TIP3   OH2  416   2.736   1.035   4.053
  151TIP3    H1  417   2.677   1.078   4.114
  151TIP3    H2  418   2.708   1.064   3.967
  152TIP3   OH2  419   3.984   5.710   1.129
  152TIP3    H1  420   3.992   5.725   1.224
  152TIP3    H2  421   4.007   5.794   1.090
  153TIP3   OH2  422   6.661   3.228   2.736
  153TIP3    H1  423   6.606   3.306   2.726
  153TIP3    H2  424   6.707   3.220   2.653
  154TIP3   OH2  425   5.887   1.612   3.440
  154TIP3    H1  426   5.922   1.530   3.405
  154TIP3    H2  427   5.938   1.681   3.397
  155TIP3   OH2  428   4.698   0.138   5.338
  155TIP3    H1  429   4.666   0.049   5.320
  155TIP3    H2  430   4.650   0.165   5.416
  156TIP3   OH2  431   0.142   3.920   4.701
  156TIP3    H1  432   0.186   3.997   4.666
  156TIP3    H2  433   0.206   3.849   4.693
  157TIP3   OH2  434   2.428   3.427   1.707
  157TIP3    H1  435   2.375   3.348   1.714
  157TIP3    H2  436   2.380   3.484   1.647
  158TIP3   OH2  437   3.033   0.186   4.929
  158TIP3    H1  438   3.002   0.231   5.007
  158TIP3    H2  439   2.963   0.123   4.909
  159TIP3   OH2  440   6.192   0.964   3.711
  159TIP3    H1  441   6.225   1.022   3.642
  159TIP3    H2  442   6.133   1.019   3.762
  160TIP3   OH2  443   3.053   3.643   0.102
  160TIP3    H1  444   3.107   3.573   0.140
  160TIP3    H2  445   3.059   3.629   0.007
  161TIP3   OH2  446   6.708   3.693   0.210
  161TIP3    H1  447   6.742   3.611   0.174
  161TIP3    H2  448   6.625   3.706   0.166
  162TIP3   OH2  449   4.074   5.984   5.676
  162TIP3    H1  450   4.075   6.077   5.653
  162TIP3    H2  451   4.066   5.984   5.772
  163TIP3   OH2  452   2.959   0.594   3.328
  163TIP3    H1  453   2.992   0.528   3.267
  163TIP3    H2  454   3.017   0.669   3.317
  164TIP3   OH2  455   3.391   6.671   1.369
  164TIP3    H1  456   3.297   6.656   1.373
  164TIP3    H2  457   3.420   6.668   1.460
  165TIP3   OH2  458   4.141   1.166   0.153
  165TIP3    H1  459   4.139   1.086   0.100
  165TIP3    H2  460   4.225   1.162   0.198
  166TIP3   OH2  461   0.246   0.453   5.571
  166TIP3    H1  462   0.169   0.478   5.621
  166TIP3    H2  463   0.287   0.383   5.622
  167TIP3   OH2  464   4.159   4.013   0.952
  167TIP3    H1  465   4.112   3.937   0.917
  167TIP3    H2  466   4.194   3.982   1.036
  168TIP3   OH2  467   4.023   6.508   3.273
  168TIP3    H1  468   4.017   6.551   3.187
  168TIP3    H2  469   4.113   6.525   3.302
  169TIP3   OH2  470   7.181   6.078   2.263
  169TIP3    H1  471   7.265   6.113   2.293
  169TIP3    H2  472   7.131   6.065   2.344
  170TIP3   OH2  473   1.432   6.390   2.355
  170TIP3    H1  474   1.514   6.436   2.372
  170TIP3    H2  475   1.388   6.387   2.440
  171TIP3   OH2  476   4.056   5.522   0.918
  171TIP3    H1  477   4.139   5.567   0.902
  171TIP3    H2  478   4.006   5.584   0.972
  172TIP3   OH2  479   6.555   4.916   2.564
  172TIP3    H1  480   6.499   4.872   2.500
  172TIP3    H2  481   6.588   4.993   2.518
  173TIP3   OH2  482   1.912   1.445   0.825
  173TIP3    H1  483   1.909   1.518   0.886
  173TIP3    H2  484   1.860   1.474   0.749
  174TIP3   OH2  485   4.673   4.799   2.415
  174TIP3    H1  486   4.596   4.760   2.456
  174TIP3    H2  487   4.678   4.758   2.329
  175TIP3   OH2  488   6.928   1.616   1.660
  175TIP3    H1  489   6.959   1.579   1.577
  175TIP3    H2  490   6.924   1.710   1.645
  176TIP3   OH2  491   6.153   6.566   2.878
  176TIP3    H1  492   6.078   6.513   2.851
  176TIP3    H2  493   6.138   6.652   2.839
  177TIP3   OH2  494   2.968   5.832   3.692
  177TIP3    H1  495   2.908   5.759   3.684
  177TIP3    H2  496   3.055   5.794   3.677
  178TIP3   OH2  497   3.631   4.988   2.782
  178TIP3    H1  498   3.624   4.938   2.701
  178TIP3    H2  499   3.662   4.926   2.847
  179TIP3   OH2  500   0.280   4.399   3.628
  179TIP3    H1  501   0.354   4.449   3.593
  179TIP3    H2  502   0.316   4.351   3.702
  180TIP3   OH2  503   4.328   2.815   1.673
  180TIP3    H1  504   4.339   2.755   1.746
  180TIP3    H2  505   4.366   2.897   1.703
  181TIP3   OH2  506   1.428   2.143   0.587
  181TIP3    H1  507   1.494   2.198   0.545
  181TIP3    H2  508   1.466   2.121   0.672
  182TIP3   OH2  509   4.916   5.203   2.288
  182TIP3    H1  510   4.977   5.139   2.325
  182TIP3    H2  511   4.833   5.156   2.282
  183TIP3   OH2  512   6.193   5.852   2.096
  183TIP3    H1  513   6.130   5.843   2.168
  183TIP3    H2  514   6.139   5.859   2.018
  184TIP3   OH2  515   4.204   6.157   3.342
  184TIP3    H1  516   4.246   6.162   3.256
  184TIP3    H2  517   4.190   6.064   3.357
  185TIP3   OH2  518   7.059   5.552   4.987
  185TIP3    H1  519   6.992   5.546   4.919
  185TIP3    H2  520   7.010   5.569   5.067
  186TIP3   OH2  521   5.354   2.663   0.323
  186TIP3    H1  522   5.392   2.585   0.282
  186TIP3    H2  523   5.404   2.736   0.285
  187TIP3   OH2  524   5.301   3.257   4.868
  187TIP3    H1  525   5.318   3.294   4.954
  187TIP3    H2  526   5.371   3.194   4.854
  188TIP3   OH2  527   4.917   4.523   3.810
  188TIP3    H1  528   4.901   4.458   3.742
  188TIP3    H2  529   4.846   4.586   3.798
  189TIP3   OH2  530   0.077   1.821   3.316
  189TIP3    H1  531   0.057   1.868   3.235
  189TIP3    H2  532   0.131   1.747   3.288
  190TIP3   OH2  533   1.408   1.965   1.305
  190TIP3    H1  534   1.313   1.975   1.295
  190TIP3    H2  535   1.427   2.006   1.389
  191TIP3   OH2  536   1.425   5.559   5.064
  191TIP3    H1  537   1.374   5.479   5.073
  191TIP3    H2  538   1.378   5.624   5.116
  192TIP3   OH2  539   3.869   0.086   4.712
  192TIP3    H1  540   3.951   0.075   4.664
  192TIP3    H2  541   3.843   0.177   4.696
  193TIP3   OH2  542   0.885   2.923   5.753
  193TIP3    H1  543   0.953   2.856   5.759
  193TIP3    H2  544   0.820   2.886   5.692
  194TIP3   OH2  545   4.609   3.057   3.102
  194TIP3    H1  546   4.680   3.095   3.049
  194TIP3    H2  547   4.633   2.965   3.111
  195TIP3   OH2  548   4.526   1.487   1.178
  195TIP3    H1  549   4.493   1.577   1.174
  195TIP3    H2  550   4.467   1.437   1.122
  196TIP3   OH2  551   4.025   2.492   1.574
  196TIP3    H1  552   4.011   2.548   1.497
  196TIP3    H2  553   3.939   2.453   1.591
  197TIP3   OH2  554   2.341   5.734   0.469
  197TIP3    H1  555   2.359   5.640   0.478
  197TIP3    H2  556   2.381   5.772   0.547
  198TIP3   OH2  557   1.450   5.835   2.319
  198TIP3    H1  558   1.537   5.806   2.348
  198TIP3    H2  559   1.467   5.916   2.271
  199TIP3   OH2  560   1.995   2.826   4.098
  199TIP3    H1  561   1.919   2.791   4.052
  199TIP3    H2  562   1.966   2.911   4.132
  200TIP3   OH2  563   6.022   4.661   0.042
  200TIP3    H1  564   5.978   4.656  -0.043
  200TIP3    H2  565   6.111   4.633   0.024
  201TIP3   OH2  566   3.710   2.112   3.996
  201TIP3    H1  567   3.705   2.017   4.009
  201TIP3    H2  568   3.799   2.135   4.022
  202TIP3   OH2  569   1.834   0.183   1.494
  202TIP3    H1  570   1.808   0.275   1.486
  202TIP3    H2  571   1.927   0.187   1.518
  203TIP3   OH2  572   6.636   5.965   0.114
  203TIP3    H1  573   6.668   5.976   0.204
  203TIP3    H2  574   6.711   5.990   0.060
  204TIP3   OH2  575   0.068   1.301   0.448
  204TIP3    H1  576   0.004   1.323   0.516
  204TIP3    H2  577   0.067   1.376   0.389
  205TIP3   OH2  578   4.811   1.689   0.372
  205TIP3    H1  579   4.736   1.631   0.360
  205TIP3    H2  580   4.772   1.775   0.389
  206TIP3   OH2  581   5.758   3.863   1.259
  206TIP3    H1  582   5.842   3.834   1.296
  206TIP3    H2  583   5.715   3.782   1.231
  207TIP3   OH2  584   4.927   4.748   0.215
  207TIP3    H1  585   4.960   4.782   0.298
  207TIP3    H2  586   4.987   4.676   0.194
  208TIP3   OH2  587   0.662   4.093   4.941
  208TIP3    H1  588   0.570   4.112   4.961
  208TIP3    H2  589   0.710   4.171   4.969
  209TIP3   OH2  590   0.691   6.623   2.897
  209TIP3    H1  591   0.668   6.582   2.814
  209TIP3    H2  592   0.682   6.554   2.962
  210TIP3   OH2  593   7.122   5.913   1.182
  210TIP3    H1  594   7.110   5.869   1.266
  210TIP3    H2  595   7.170   5.850   1.129
  211TIP3   OH2  596   4.261   5.476   3.087
  211TIP3    H1  597   4.323   5.440   3.022
  211TIP3    H2  598   4.247   5.566   3.058
  212TIP3   OH2  599   4.943   1.844   1.923
  212TIP3    H1  600   4.960   1.751   1.911
  212TIP3    H2  601   4.952   1.858   2.018
  213TIP3   OH2  602   5.914   6.680   3.130
  213TIP3    H1  603   5.893   6.659   3.039
  213TIP3    H2  604   5.998   6.636   3.145
  214TIP3   OH2  605   0.011   1.717   1.511
  214TIP3    H1  606   0.095   1.702   1.468
  214TIP3    H2  607   0.004   1.645   1.575
  215TIP3   OH2  608   4.203   2.067   3.886
  215TIP3    H1  609   4.198   2.159   3.863
  215TIP3    H2  610   4.296   2.045   3.879
  216TIP3   OH2  611   7.058   0.417   3.748
  216TIP3    H1  612   7.004   0.341   3.727
  216TIP3    H2  613   7.039   0.480   3.678
  217TIP3   OH2  614   4.908   5.305   3.006
  217TIP3    H1  615   4.959   5.270   2.933
  217TIP3    H2  616   4.939   5.395   3.016
  218TIP3   OH2  617   1.744   3.099   2.013
  218TIP3    H1  618   1.834   3.119   2.041
  218TIP3    H2  619   1.741   3.003   2.012
  219TIP3   OH2  620   0.836   4.677   1.856
  219TIP3    H1  621   0.896   4.678   1.931
  219TIP3    H2  622   0.789   4.760   1.861
  220TIP3   OH2  623   0.132   5.811   5.518
  220TIP3    H1  624   0.037   5.806   5.534
  220TIP3    H2  625   0.141   5.876   5.448
  221TIP3   OH2  626   3.988   0.797   0.795
  221TIP3    H1  627   4.019   0.883   0.765
  221TIP3    H2  628   4.014   0.737   0.726
  222TIP3   OH2  629   1.173   2.705   1.120
  222TIP3    H1  630   1.247   2.644   1.120
  222TIP3    H2  631   1.132   2.693   1.206
  223TIP3   OH2  632   3.557   5.071   0.770
  223TIP3    H1  633   3.556   4.976   0.755
  223TIP3    H2  634   3.504   5.107   0.699
  224TIP3   OH2  635   0.520   2.285   5.872
  224TIP3    H1  636   0.529   2.363   5.928
  224TIP3    H2  637   0.427   2.284   5.848
  225TIP3   OH2  638   4.782   2.290   1.483
  225TIP3    H1  639   4.876   2.300   1.463
  225TIP3    H2  640   4.740   2.360   1.433
  226TIP3   OH2  641   2.016   2.884   0.412
  226TIP3    H1  642   1.969   2.803   0.432
  226TIP3    H2  643   2.088   2.856   0.355
  227TIP3   OH2  644   5.104   0.491   0.246
  227TIP3    H1  645   5.025   0.468   0.296
  227TIP3    H2  646   5.174   0.494   0.311
  228TIP3   OH2  647   6.696   5.788   4.014
  228TIP3    H1  648   6.776   5.837   4.000
  228TIP3    H2  649   6.638   5.815   3.943
  229TIP3   OH2  650   1.908   2.916   1.772
  229TIP3    H1  651   1.955   2.978   1.716
  229TIP3    H2  652   1.905   2.959   1.857
  230TIP3   OH2  653   4.858   3.550   2.211
  230TIP3    H1  654   4.787   3.613   2.204
  230TIP3    H2  655   4.931   3.599   2.248
  231TIP3   OH2  656   0.696   5.490   1.003
  231TIP3    H1  657   0.768   5.472   0.943
  231TIP3    H2  658   0.618   5.491   0.947
  232TIP3   OH2  659   6.345   2.606   2.249
  232TIP3    H1  660   6.428   2.652   2.242
  232TIP3    H2  661   6.344   2.546   2.174
  233TIP3   OH2  662   4.700   2.059   3.570
  233TIP3    H1  663   4.616   2.100   3.550
  233TIP3    H2  664   4.718   2.004   3.494
  234TIP3   OH2  665   1.482   3.128   2.040
  234TIP3    H1  666   1.460   3.221   2.047
  234TIP3    H2  667   1.578   3.126   2.035
  235TIP3   OH2  668   2.131   3.745   4.423
  235TIP3    H1  669   2.121   3.731   4.329
  235TIP3    H2  670   2.163   3.661   4.456
  236TIP3   OH2  671   0.647   2.733   1.083
  236TIP3    H1  672   0.660   2.649   1.040
  236TIP3    H2  673   0.733   2.776   1.077
  237TIP3   OH2  674   4.278   2.417   3.427
  237TIP3    H1  675   4.189   2.450   3.421
  237TIP3    H2  676   4.322   2.450   3.349
  238TIP3   OH2  677   2.919   5.071   1.348
  238TIP3    H1  678   2.936   5.009   1.420
  238TIP3    H2  679   2.828   5.055   1.324
  239TIP3   OH2  680   3.795   4.935   4.447
  239TIP3    H1  681   3.862   4.867   4.450
  239TIP3    H2  682   3.798   4.977   4.533
  240TIP3   OH2  683   3.423   2.142   4.822
  240TIP3    H1  684   3.460   2.054   4.826
  240TIP3    H2  685   3.455   2.185   4.901
  241TIP3   OH2  686   0.319   0.788   3.609
  241TIP3    H1  687   0.393   0.798   3.548
  241TIP3    H2  688   0.354   0.738   3.682
  242TIP3   OH2  689   6.150   1.909   0.446
  242TIP3    H1  690   6.132   1.898   0.353
  242TIP3    H2  691   6.176   1.822   0.476
  243TIP3   OH2  692   4.618   1.420   1.666
  243TIP3    H1  693   4.596   1.473   1.589
  243TIP3    H2  694   4.564   1.342   1.657
  244TIP3   OH2  695   1.678   1.069   1.789
  244TIP3    H1  696   1.746   1.003   1.773
  244TIP3    H2  697   1.657   1.060   1.882
  245TIP3   OH2  698   0.668   2.648   2.810
  245TIP3    H1  699   0.655   2.554   2.798
  245TIP3    H2  700   0.652   2.686   2.723
  246TIP3   OH2  701   0.080   6.254   1.476
  246TIP3    H1  702   0.065   6.229   1.567
  246TIP3    H2  703   0.174   6.243   1.463
  247TIP3   OH2  704   4.470   4.167   3.456
  247TIP3    H1  705   4.470   4.263   3.445
  247TIP3    H2  706   4.388   4.149   3.501
  248TIP3   OH2  707   6.644   5.180   1.379
  248TIP3    H1  708   6.649   5.275   1.370
  248TIP3    H2  709   6.715   5.147   1.323
  249TIP3   OH2  710   2.055   4.342   1.361
  249TIP3    H1  711   1.966   4.309   1.350
  249TIP3    H2  712   2.067   4.345   1.455
  250TIP3   OH2  713   4.383   2.012   4.725
  250TIP3    H1  714   4.477   2.031   4.719
  250TIP3    H2  715   4.347   2.042   4.641
  251TIP3   OH2  716   6.732   2.337   1.972
  251TIP3    H1  717   6.784   2.380   2.040
  251TIP3    H2  718   6.791   2.270   1.936
  252TIP3   OH2  719   0.435   0.536   0.700
  252TIP3    H1  720   0.457   0.530   0.607
  252TIP3    H2  721   0.349   0.577   0.702
  253TIP3   OH2  722   1.833   4.931   2.468
  253TIP3    H1  723   1.894   4.996   2.432
  253TIP3    H2  724   1.807   4.966   2.553
  254TIP3   OH2  725   3.025   4.058   4.572
  254TIP3    H1  726   3.001   4.117   4.643
  254TIP3    H2  727   3.111   4.089   4.543
  255TIP3   OH2  728   0.086   4.735   0.157
  255TIP3    H1  729   0.098   4.830   0.157
  255TIP3    H2  730   0.114   4.708   0.244
  256TIP3   OH2  731   0.320   1.924   1.707
  256TIP3    H1  732   0.296   1.861   1.775
  256TIP3    H2  733   0.366   1.994   1.754
  257TIP3   OH2  734   2.942   4.907   0.127
  257TIP3    H1  735   2.892   4.829   0.101
  257TIP3    H2  736   2.880   4.979   0.118
  258TIP3   OH2  737   2.109   0.628   3.101
  258TIP3    H1  738   2.125   0.553   3.044
  258TIP3    H2  739   2.080   0.589   3.184
  259TIP3   OH2  740   2.148   0.459   4.425
  259TIP3    H1  741   2.073   0.410   4.460
  259TIP3    H2  742   2.109   0.523   4.366
  260TIP3   OH2  743   4.370   1.560   5.304
  260TIP3    H1  744   4.456   1.532   5.337
  260TIP3    H2  745   4.311   1.490   5.331
  261TIP3   OH2  746   4.468   3.303   4.169
  261TIP3    H1  747   4.482   3.230   4.230
  261TIP3    H2  748   4.540   3.363   4.187
  262TIP3   OH2  749   5.849   5.901   5.749
  262TIP3    H1  750   5.902   5.851   5.811
  262TIP3    H2  751   5.907   5.915   5.674
  263TIP3   OH2  752   5.088   6.584   5.258
  263TIP3    H1  753   5.053   6.519   5.196
  263TIP3    H2  754   5.010   6.622   5.299
  264TIP3   OH2  755   5.326   1.583   3.097
  264TIP3    H1  756   5.408   1.546   3.131
  264TIP3    H2  757   5.353   1.659   3.046
  265TIP3   OH2  758   3.002   1.176   1.073
  265TIP3    H1  759   2.991   1.138   0.985
  265TIP3    H2  760   2.913   1.180   1.108
  266TIP3   OH2  761   3.070   1.717   1.849
  266TIP3    H1  762   3.095   1.715   1.756
  266TIP3    H2  763   3.019   1.798   1.858
  267TIP3   OH2  764   6.483   6.212   0.276
  267TIP3    H1  765   6.558   6.192   0.219
  267TIP3    H2  766   6.516   6.279   0.336
  268TIP3   OH2  767   3.051   2.089   2.382
  268TIP3    H1  768   3.092   2.005   2.403
  268TIP3    H2  769   2.961   2.079   2.412
  269TIP3   OH2  770   0.760   5.215   1.681
  269TIP3    H1  771   0.668   5.237   1.699
  269TIP3    H2  772   0.809   5.252   1.754
  270TIP3   OH2  773   5.002   3.716   0.316
  270TIP3    H1  774   5.041   3.654   0.255
  270TIP3    H2  775   5.074   3.773   0.343
  271TIP3   OH2  776   0.817   6.268   3.197
  271TIP3    H1  777   0.832   6.175   3.177
  271TIP3    H2  778   0.831   6.274   3.292
  272TIP3   OH2  779   7.092   6.713   3.560
  272TIP3    H1  780   7.033   6.764   3.616
  272TIP3    H2  781   7.156   6.676   3.621
  273TIP3   OH2  782   0.103   0.656   2.618
  273TIP3    H1  783   0.033   0.702   2.572
  273TIP3    H2  784   0.095   0.684   2.710
  274TIP3   OH2  785   5.291   6.205   2.327
  274TIP3    H1  786   5.200   6.233   2.334
  274TIP3    H2  787   5.340   6.287   2.320
  275TIP3   OH2  788   6.912   4.507   3.215
  275TIP3    H1  789   6.896   4.570   3.285
  275TIP3    H2  790   6.861   4.430   3.241
  276TIP3   OH2  791   6.201   4.326   4.343
  276TIP3    H1  792   6.217   4.337   4.436
  276TIP3    H2  793   6.271   4.269   4.313
  277TIP3   OH2  794   0.324   2.424   0.827
  277TIP3    H1  795   0.373   2.501   0.857
  277TIP3    H2  796   0.391   2.360   0.803
  278TIP3   OH2  797   5.984   4.301   1.049
  278TIP3    H1  798   6.037   4.297   1.128
  278TIP3    H2  799   5.910   4.243   1.066
  279TIP3   OH2  800   1.783   1.866   4.689
  279TIP3    H1  801   1.714   1.849   4.754
  279TIP3    H2  802   1.761   1.811   4.615
  280TIP3   OH2  803   3.742   4.069   3.708
  280TIP3    H1  804   3.821   4.037   3.664
  280TIP3    H2  805   3.748   4.034   3.796
  281TIP3   OH2  806   6.214   6.390   4.646
  281TIP3    H1  807   6.151   6.462   4.641
  281TIP3    H2  808   6.299   6.432   4.630
  282TIP3   OH2  809   6.543   1.114   5.342
  282TIP3    H1  810   6.632   1.084   5.360
  282TIP3    H2  811   6.500   1.115   5.428
  283TIP3   OH2  812   3.054   1.340   1.766
  283TIP3    H1  813   3.081   1.335   1.674
  283TIP3    H2  814   3.121   1.393   1.808
  284TIP3   OH2  815   5.064   4.914   0.926
  284TIP3    H1  816   5.074   4.984   0.862
  284TIP3    H2  817   5.152   4.903   0.963
  285TIP3   OH2  818   5.962   1.389   3.319
  285TIP3    H1  819   5.889   1.376   3.258
  285TIP3    H2  820   6.039   1.360   3.272
  286TIP3   OH2  821   0.449   1.853   5.086
  286TIP3    H1  822   0.366   1.891   5.116
  286TIP3    H2  823   0.430   1.819   4.999
  287TIP3   OH2  824   4.227   6.597   1.246
  287TIP3    H1  825   4.252   6.650   1.322
  287TIP3    H2  826   4.237   6.507   1.277
  288TIP3   OH2  827   5.190   3.727   3.839
  288TIP3    H1  828   5.100   3.754   3.826
  288TIP3    H2  829   5.240   3.808   3.848
  289TIP3   OH2  830   6.145   2.652   2.626
  289TIP3    H1  831   6.226   2.690   2.592
  289TIP3    H2  832   6.084   2.725   2.631
  290TIP3   OH2  833   7.107   1.139   2.259
  290TIP3    H1  834   7.083   1.115   2.170
  290TIP3    H2  835   7.177   1.203   2.249
  291TIP3   OH2  836   6.463   2.391   3.979
  291TIP3    H1  837   6.457   2.446   3.901
  291TIP3    H2  838   6.545   2.343   3.969
  292TIP3   OH2  839   6.336   3.006   1.029
  292TIP3    H1  840   6.276   3.042   1.095
  292TIP3    H2  841   6.282   2.998   0.950
  293TIP3   OH2  842   4.505   1.757   4.629
  293TIP3    H1  843   4.473   1.809   4.555
  293TIP3    H2  844   4.545   1.820   4.688
  294TIP3   OH2  845   5.712   5.906   2.441
  294TIP3    H1  846   5.711   6.001   2.451
  294TIP3    H2  847   5.675   5.873   2.522
  295TIP3   OH2  848   4.310   4.651   1.857
  295TIP3    H1  849   4.345   4.619   1.940
  295TIP3    H2  850   4.232   4.701   1.881
  296TIP3   OH2  851   5.127   4.500   0.155
  296TIP3    H1  852   5.158   4.421   0.110
  296TIP3    H2  853   5.197   4.521   0.218
  297TIP3   OH2  854   1.186   1.613   3.937
  297TIP3    H1  855   1.269   1.598   3.891
  297TIP3    H2  856   1.128   1.649   3.871
  298TIP3   OH2  857   1.671   3.869   0.713
  298TIP3    H1  858   1.576   3.876   0.721
  298TIP3    H2  859   1.699   3.821   0.791
  299TIP3   OH2  860   5.998   6.187   2.811
  299TIP3    H1  861   6.029   6.160   2.725
  299TIP3    H2  862   6.072   6.173   2.869
  300TIP3   OH2  863   2.802   1.732   5.178
  300TIP3    H1  864   2.759   1.751   5.095
  300TIP3    H2  865   2.739   1.679   5.227
  301TIP3   OH2  866   3.496   2.790   3.989
  301TIP3    H1  867   3.527   2.844   3.917
  301TIP3    H2  868   3.513   2.700   3.961
  302TIP3   OH2  869   4.246   4.510   3.278
  302TIP3    H1  870   4.275   4.590   3.236
  302TIP3    H2  871   4.312   4.492   3.344
  303TIP3   OH2  872   1.130   3.165   5.692
  303TIP3    H1  873   1.124   3.095   5.628
  303TIP3    H2  874   1.206   3.143   5.745
  304TIP3   OH2  875   6.074   3.224   2.930
  304TIP3    H1  876   6.130   3.189   2.861
  304TIP3    H2  877   5.993   3.174   2.923
  305TIP3   OH2  878   6.646   4.416   1.266
  305TIP3    H1  879   6.680   4.337   1.225
  305TIP3    H2  880   6.600   4.462   1.196
  306TIP3   OH2  881   5.808   1.812   5.281
  306TIP3    H1  882   5.761   1.734   5.251
  306TIP3    H2  883   5.884   1.779   5.327
  307TIP3   OH2  884   4.331   3.158   4.667
  307TIP3    H1  885   4.393   3.211   4.616
  307TIP3    H2  886   4.250   3.162   4.616
  308TIP3   OH2  887   1.019   5.842   0.450
  308TIP3    H1  888   1.073   5.780   0.402
  308TIP3    H2  889   1.079   5.884   0.512
  309TIP3   OH2  890   0.003   6.308   5.256
  309TIP3    H1  891   0.073   6.245   5.238
  309TIP3    H2  892  -0.058   6.260   5.314
  310TIP3   OH2  893   1.197   4.658   1.328
  310TIP3    H1  894   1.240   4.635   1.246
  310TIP3    H2  895   1.117   4.704   1.302
  311TIP3   OH2  896   1.520   5.993   3.738
  311TIP3    H1  897   1.431   5.973   3.709
  311TIP3    H2  898   1.531   5.943   3.819
  312TIP3   OH2  899   4.665   6.437   0.706
  312TIP3    H1  900   4.723   6.432   0.783
  312TIP3    H2  901   4.684   6.357   0.657
  313TIP3   OH2  902   6.763   2.276   4.606
  313TIP3    H1  903   6.809   2.211   4.660
  313TIP3    H2  904   6.829   2.308   4.545
  314TIP3   OH2  905   6.172   2.142   4.207
  314TIP3    H1  906   6.248   2.100   4.168
  314TIP3    H2  907   6.118   2.169   4.132
  315TIP3   OH2  908   1.286   4.104   3.583
  315TIP3    H1  909   1.359   4.151   3.543
  315TIP3    H2  910   1.243   4.169   3.637
  316TIP3   OH2  911   3.453   4.045   1.316
  316TIP3    H1  912   3.435   4.127   1.270
  316TIP3    H2  913   3.410   3.978   1.262
  317TIP3   OH2  914   1.814   1.251   5.858
  317TIP3    H1  915   1.810   1.333   5.808
  317TIP3    H2  916   1.895   1.210   5.830
  318TIP3   OH2  917   5.112   2.327   0.614
  318TIP3    H1  918   5.184   2.323   0.676
  318TIP3    H2  919   5.132   2.403   0.559
  319TIP3   OH2  920   3.894   5.830   1.627
  319TIP3    H1  921   3.907   5.912   1.674
  319TIP3    H2  922   3.892   5.763   1.695
  320TIP3   OH2  923   4.269   6.281   1.410
  320TIP3    H1  924   4.211   6.205   1.403
  320TIP3    H2  925   4.234   6.331   1.484
  321TIP3   OH2  926   4.928   3.649   0.913
  321TIP3    H1  927   5.000   3.687   0.963
  321TIP3    H2  928   4.854   3.647   0.974
  322TIP3   OH2  929   5.729   4.542   5.441
  322TIP3    H1  930   5.661   4.586   5.492
  322TIP3    H2  931   5.800   4.527   5.503
  323TIP3   OH2  932   6.343   4.939   5.021
  323TIP3    H1  933   6.261   4.942   4.972
  323TIP3    H2  934   6.319   4.965   5.110
  324TIP3   OH2  935   4.789   5.229   3.481
  324TIP3    H1  936   4.735   5.229   3.559
  324TIP3    H2  937   4.827   5.316   3.477
  325TIP3   OH2  938   3.296   0.166   5.085
  325TIP3    H1  939   3.341   0.250   5.072
  325TIP3    H2  940   3.211   0.178   5.044
  326TIP3   OH2  941   1.776   5.872   4.008
  326TIP3    H1  942   1.800   5.953   4.054
  326TIP3    H2  943   1.849   5.858   3.947
  327TIP3   OH2  944   3.776   6.781   5.868
  327TIP3    H1  945   3.853   6.797   5.922
  327TIP3    H2  946   3.784   6.689   5.842
  328TIP3   OH2  947   4.482   3.511   0.609
  328TIP3    H1  948   4.512   3.507   0.518
  328TIP3    H2  949   4.392   3.542   0.603
  329TIP3   OH2  950   3.420   2.907   2.590
  329TIP3    H1  951   3.472   2.932   2.514
  329TIP3    H2  952   3.335   2.882   2.553
  330TIP3   OH2  953   4.494   0.519   3.392
  330TIP3    H1  954   4.428   0.588   3.386
  330TIP3    H2  955   4.528   0.512   3.303
  331TIP3   OH2  956   1.961   0.279   4.726
  331TIP3    H1  957   1.901   0.293   4.652
  331TIP3    H2  958   1.967   0.184   4.733
  332TIP3   OH2  959   2.796   2.878   2.293
  332TIP3    H1  960   2.889   2.891   2.276
  332TIP3    H2  961   2.788   2.882   2.388
  333TIP3   OH2  962   4.167   4.335   5.661
  333TIP3    H1  963   4.190   4.402   5.597
  333TIP3    H2  964   4.124   4.382   5.732
  334TIP3   OH2  965   5.471   5.665   3.434
  334TIP3    H1  966   5.400   5.714   3.475
  334TIP3    H2  967   5.547   5.681   3.490
  335TIP3   OH2  968   2.363   2.822   2.477
  335TIP3    H1  969   2.291   2.780   2.524
  335TIP3    H2  970   2.369   2.910   2.516
  336TIP3   OH2  971   5.324   3.897   5.877
  336TIP3    H1  972   5.356   3.807   5.865
  336TIP3    H2  973   5.255   3.907   5.812
  337TIP3   OH2  974   1.484   1.275   1.243
  337TIP3    H1  975   1.497   1.185   1.272
  337TIP3    H2  976   1.562   1.295   1.190
  338TIP3   OH2  977   6.727   6.396   3.939
  338TIP3    H1  978   6.796   6.335   3.912
  338TIP3    H2  979   6.723   6.385   4.034
  339TIP3   OH2  980   1.404   5.904   2.787
  339TIP3    H1  981   1.491   5.900   2.826
  339TIP3    H2  982   1.369   5.815   2.797
  340TIP3   OH2  983   1.226   1.953   0.970
  340TIP3    H1  984   1.252   2.044   0.957
  340TIP3    H2  985   1.220   1.944   1.065
  341TIP3   OH2  986   7.121   4.379   3.061
  341TIP3    H1  987   7.053   4.440   3.089
  341TIP3    H2  988   7.202   4.429   3.068
  342TIP3   OH2  989   4.627   3.248   4.853
  342TIP3    H1  990   4.593   3.173   4.804
  342TIP3    H2  991   4.613   3.225   4.945
  343TIP3   OH2  992   6.606   0.682   2.554
  343TIP3    H1  993   6.653   0.749   2.504
  343TIP3    H2  994   6.536   0.731   2.597
  344TIP3   OH2  995   1.562   0.268   4.166
  344TIP3    H1  996   1.581   0.248   4.075
  344TIP3    H2  997   1.473   0.305   4.165
  345TIP3   OH2  998   6.024   0.330   4.439
  345TIP3    H1  999   5.968   0.348   4.364
  345TIP3    H2 1000   6.071   0.412   4.454
  346TIP3   OH2 1001   5.863   3.907   2.008
  346TIP3    H1 1002   5.833   3.856   2.083
  346TIP3    H2 1003   5.796   3.975   1.998
  347TIP3   OH2 1004   4.241   3.600   3.582
  347TIP3    H1 1005   4.181   3.581   3.510
  347TIP3    H2 1006   4.231   3.694   3.597
  348TIP3   OH2 1007   1.457   0.171   3.093
  348TIP3    H1 1008   1.453   0.262   3.124
  348TIP3    H2 1009   1.437   0.119   3.171
  349TIP3   OH2 1010   3.704   4.983   2.040
  349TIP3    H1 1011   3.633   5.003   1.978
  349TIP3    H2 1012   3.761   5.060   2.035
  350TIP3   OH2 1013   4.447   1.492   4.491
  350TIP3    H1 1014   4.506   1.468   4.419
  350TIP3    H2 1015   4.476   1.579   4.518
  351TIP3   OH2 1016   2.029   3.157   0.304
  351TIP3    H1 1017   2.030   3.062   0.320
  351TIP3    H2 1018   2.060   3.195   0.387
  352TIP3   OH2 1019   1.827   3.685   1.008
  352TIP3    H1 1020   1.903   3.668   0.951
  352TIP3    H2 1021   1.831   3.615   1.074
  353TIP3   OH2 1022   1.549   5.972   5.781
  353TIP3    H1 1023   1.468   5.940   5.821
  353TIP3    H2 1024   1.567   6.055   5.825
  354TIP3   OH2 1025   2.106   5.812   5.190
  354TIP3    H1 1026   2.112   5.719   5.170
  354TIP3    H2 1027   2.019   5.824   5.227
  355TIP3   OH2 1028   5.026   5.990   2.633
  355TIP3    H1 1029   4.941   5.988   2.678
  355TIP3    H2 1030   5.036   5.902   2.598
  356TIP3   OH2 1031   2.570   2.296   2.760
  356TIP3    H1 1032   2.551   2.206   2.734
  356TIP3    H2 1033   2.532   2.304   2.847
  357TIP3   OH2 1034   5.527   5.027   4.693
  357TIP3    H1 1035   5.567   5.025   4.606
  357TIP3    H2 1036   5.499   5.118   4.704
  358TIP3   OH2 1037   1.070   6.627   0.916
  358TIP3    H1 1038   1.053   6.640   0.822
  358TIP3    H2 1039   1.141   6.688   0.936
  359TIP3   OH2 1040   1.117   6.011   1.628
  359TIP3    H1 1041   1.061   6.085   1.648
  359TIP3    H2 1042   1.205   6.040   1.650
  360TIP3   OH2 1043   2.873   1.545   2.595
  360TIP3    H1 1044   2.876   1.467   2.539
  360TIP3    H2 1045   2.799   1.529   2.654
  361TIP3   OH2 1046   1.454   1.602   3.872
  361TIP3    H1 1047   1.522   1.587   3.806
  361TIP3    H2 1048   1.464   1.529   3.934
  362TIP3   OH2 1049   3.276   1.521   1.858
  362TIP3    H1 1050   3.355   1.572   1.871
  362TIP3    H2 1051   3.204   1.582   1.873
  363TIP3   OH2 1052   5.923   0.925   1.227
  363TIP3    H1 1053   5.985   0.854   1.245
  363TIP3    H2 1054   5.872   0.893   1.152
  364TIP3   OH2 1055   0.222   2.791   4.809
  364TIP3    H1 1056   0.307   2.757   4.836
  364TIP3    H2 1057   0.187   2.835   4.887
  365TIP3   OH2 1058   6.921   5.419   3.498
  365TIP3    H1 1059   7.001   5.468   3.481
  365TIP3    H2 1060   6.891   5.390   3.412
  366TIP3   OH2 1061   4.907   1.856   4.733
  366TIP3    H1 1062   4.889   1.770   4.697
  366TIP3    H2 1063   4.968   1.840   4.805
  367TIP3   OH2 1064   3.223   3.662   2.983
  367TIP3    H1 1065   3.273   3.599   3.036
  367TIP3    H2 1066   3.199   3.731   3.045
  368TIP3   OH2 1067   2.282   1.279   0.048
  368TIP3    H1 1068   2.282   1.335   0.126
  368TIP3    H2 1069   2.194   1.241   0.046
  369TIP3   OH2 1070   0.360   2.699   4.199
  369TIP3    H1 1071   0.408   2.734   4.275
  369TIP3    H2 1072   0.269   2.720   4.217
  370TIP3   OH2 1073   3.391   1.500   5.620
  370TIP3    H1 1074   3.360   1.558   5.550
  370TIP3    H2 1075   3.482   1.481   5.596
  371TIP3   OH2 1076   2.532   1.836   1.448
  371TIP3    H1 1077   2.618   1.818   1.486
  371TIP3    H2 1078   2.544   1.917   1.398
  372TIP3   OH2 1079   5.201   0.311   5.327
  372TIP3    H1 1080   5.245   0.237   5.285
  372TIP3    H2 1081   5.204   0.290   5.421
  373TIP3   OH2 1082   0.570   2.686   5.335
  373TIP3    H1 1083   0.609   2.751   5.393
  373TIP3    H2 1084   0.479   2.680   5.363
  374TIP3   OH2 1085   0.925   3.588   3.307
  374TIP3    H1 1086   0.862   3.642   3.355
  374TIP3    H2 1087   0.980   3.549   3.375
  375TIP3   OH2 1088   6.514   1.680   0.085
  375TIP3    H1 1089   6.534   1.677  -0.008
  375TIP3    H2 1090   6.431   1.634   0.093
  376TIP3   OH2 1091   6.547   6.291   4.633
  376TIP3    H1 1092   6.544   6.206   4.589
  376TIP3    H2 1093   6.520   6.272   4.723
  377TIP3   OH2 1094   6.915   1.833   5.022
  377TIP3    H1 1095   6.934   1.776   4.947
  377TIP3    H2 1096   6.928   1.777   5.099
  378TIP3   OH2 1097   5.683   2.364   2.931
  378TIP3    H1 1098   5.743   2.396   2.999
  378TIP3    H2 1099   5.662   2.275   2.958
  379TIP3   OH2 1100   7.126   4.095   4.527
  379TIP3    H1 1101   7.090   4.040   4.458
  379TIP3    H2 1102   7.221   4.084   4.519
  380TIP3   OH2 1103   2.577   2.052   3.886
  380TIP3    H1 1104   2.636   2.023   3.816
  380TIP3    H2 1105   2.585   2.147   3.887
  381TIP3   OH2 1106   3.142   3.154   4.278
  381TIP3    H1 1107   3.150   3.087   4.346
  381TIP3    H2 1108   3.051   3.148   4.249
  382TIP3   OH2 1109   2.836   0.270   2.573
  382TIP3    H1 1110   2.778   0.231   2.639
  382TIP3    H2 1111   2.796   0.355   2.553
  383TIP3   OH2 1112   0.605   2.588   4.738
  383TIP3    H1 1113   0.632   2.653   4.803
  383TIP3    H2 1114   0.532   2.542   4.779
  384TIP3   OH2 1115   2.285   0.786   5.439
  384TIP3    H1 1116   2.359   0.836   5.473
  384TIP3    H2 1117   2.295   0.790   5.344
  385TIP3   OH2 1118   1.004   1.641   5.019
  385TIP3    H1 1119   1.055   1.568   4.984
  385TIP3    H2 1120   0.993   1.701   4.945
  386TIP3   OH2 1121   2.350   3.200   5.271
  386TIP3    H1 1122   2.442   3.177   5.260
  386TIP3    H2 1123   2.304   3.149   5.205
  387TIP3   OH2 1124   1.967   6.407   0.195
  387TIP3    H1 1125   1.884   6.453   0.205
  387TIP3    H2 1126   1.979   6.399   0.101
  388TIP3   OH2 1127   5.587   4.151   2.719
  388TIP3    H1 1128   5.532   4.125   2.792
  388TIP3    H2 1129   5.526   4.169   2.648
  389TIP3   OH2 1130   6.618   5.738   1.917
  389TIP3    H1 1131   6.535   5.737   1.870
  389TIP3    H2 1132   6.683   5.714   1.850
  390TIP3   OH2 1133   0.669   2.442   3.504
  390TIP3    H1 1134   0.670   2.426   3.409
  390TIP3    H2 1135   0.671   2.537   3.512
  391TIP3   OH2 1136   1.516   0.812   0.808
  391TIP3    H1 1137   1.555   0.725   0.803
  391TIP3    H2 1138   1.483   0.819   0.897
  392TIP3   OH2 1139   0.651   2.855   5.527
  392TIP3    H1 1140   0.574   2.859   5.584
  392TIP3    H2 1141   0.686   2.944   5.528
  393TIP3   OH2 1142   2.069   1.881   0.232
  393TIP3    H1 1143   2.043   1.789   0.230
  393TIP3    H2 1144   2.150   1.884   0.182
  394TIP3   OH2 1145   4.044   1.595   0.333
  394TIP3    H1 1146   4.095   1.655   0.279
  394TIP3    H2 1147   3.961   1.640   0.347
  395TIP3   OH2 1148   1.617   5.856   4.361
  395TIP3    H1 1149   1.707   5.822   4.369
  395TIP3    H2 1150   1.562   5.787   4.397
  396TIP3   OH2 1151   3.122   5.846   2.770
  396TIP3    H1 1152   3.145   5.934   2.799
  396TIP3    H2 1153   3.177   5.832   2.692
  397TIP3   OH2 1154   2.705   4.630   4.232
  397TIP3    H1 1155   2.664   4.683   4.300
  397TIP3    H2 1156   2.694   4.681   4.152
  398TIP3   OH2 1157   7.175   0.564   2.173
  398TIP3    H1 1158   7.218   0.546   2.256
  398TIP3    H2 1159   7.146   0.655   2.180
  399TIP3   OH2 1160   2.496   3.746   5.487
  399TIP3    H1 1161   2.511   3.831   5.530
  399TIP3    H2 1162   2.497   3.766   5.394
  400TIP3   OH2 1163   4.778   4.350   3.305
  400TIP3    H1 1164   4.864   4.381   3.276
  400TIP3    H2 1165   4.729   4.336   3.224
  401TIP3   OH2 1166   5.790   6.694   1.159
  401TIP3    H1 1167   5.769   6.665   1.070
  401TIP3    H2 1168   5.718   6.753   1.183
  402TIP3   OH2 1169   2.653   0.825   3.302
  402TIP3    H1 1170   2.669   0.911   3.264
  402TIP3    H2 1171   2.557   0.817   3.303
  403TIP3   OH2 1172   3.262   4.247   5.565
  403TIP3    H1 1173   3.200   4.226   5.496
  403TIP3    H2 1174   3.279   4.341   5.554
  404TIP3   OH2 1175   6.546   5.426   3.290
  404TIP3    H1 1176   6.467   5.468   3.324
  404TIP3    H2 1177   6.592   5.496   3.243
  405TIP3   OH2 1178   5.932   6.451   2.749
  405TIP3    H1 1179   5.932   6.359   2.776
  405TIP3    H2 1180   5.900   6.450   2.659
  406TIP3   OH2 1181   5.884   0.435   2.383
  406TIP3    H1 1182   5.958   0.447   2.442
  406TIP3    H2 1183   5.912   0.367   2.322
  407TIP3   OH2 1184   7.010   6.633   1.521
  407TIP3    H1 1185   7.053   6.640   1.607
  407TIP3    H2 1186   7.044   6.552   1.484
  408TIP3   OH2 1187   5.716   2.696   3.513
  408TIP3    H1 1188   5.729   2.790   3.502
  408TIP3    H2 1189   5.759   2.676   3.596
  409TIP3   OH2 1190   0.802   3.230   4.234
  409TIP3    H1 1191   0.816   3.224   4.140
  409TIP3    H2 1192   0.890   3.241   4.271
  410TIP3   OH2 1193   1.591   1.682   2.038
  410TIP3    H1 1194   1.599   1.599   2.084
  410TIP3    H2 1195   1.590   1.748   2.107
  411TIP3   OH2 1196   4.851   2.288   3.025
  411TIP3    H1 1197   4.938   2.248   3.030
  411TIP3    H2 1198   4.850   2.351   3.098
  412TIP3   OH2 1199   1.967   5.468   4.041
  412TIP3    H1 1200   1.949   5.453   3.948
  412TIP3    H2 1201   2.041   5.410   4.061
  413TIP3   OH2 1202   4.070   4.381   1.110
  413TIP3    H1 1203   4.098   4.381   1.201
  413TIP3    H2 1204   3.974   4.384   1.114
  414TIP3   OH2 1205   6.210   5.403   4.889
  414TIP3    H1 1206   6.145   5.336   4.869
  414TIP3    H2 1207   6.260   5.413   4.808
  415TIP3   OH2 1208   5.468   0.948   4.736
  415TIP3    H1 1209   5.467   0.920   4.828
  415TIP3    H2 1210   5.404   0.891   4.693
  416TIP3   OH2 1211   3.555   3.252   3.783
  416TIP3    H1 1212   3.532   3.334   3.742
  416TIP3    H2 1213   3.499   3.187   3.740
  417TIP3   OH2 1214   4.498   0.094   1.397
  417TIP3    H1 1215   4.518   0.059   1.310
  417TIP3    H2 1216   4.425   0.041   1.428
  418TIP3   OH2 1217   6.189   2.787   5.364
  418TIP3    H1 1218   6.119   2.723   5.352
  418TIP3    H2 1219   6.145   2.872   5.359
  419TIP3   OH2 1220   3.131   1.648   2.599
  419TIP3    H1 1221   3.168   1.603   2.675
  419TIP3    H2 1222   3.042   1.614   2.592
  420TIP3   OH2 1223   6.386   6.739   5.037
  420TIP3    H1 1224   6.318   6.695   5.087
  420TIP3    H2 1225   6.419   6.806   5.096
  421TIP3   OH2 1226   4.475   4.451   3.409
  421TIP3    H1 1227   4.446   4.515   3.474
  421TIP3    H2 1228   4.527   4.502   3.347
  422TIP3   OH2 1229   6.821   1.301   5.035
  422TIP3    H1 1230   6.847   1.386   5.000
  422TIP3    H2 1231   6.859   1.298   5.123
  423TIP3   OH2 1232   5.013   0.019   1.238
  423TIP3    H1 1233   5.013   0.111   1.265
  423TIP3    H2 1234   4.936   0.010   1.182
  424TIP3   OH2 1235   5.181   5.354   1.197
  424TIP3    H1 1236   5.103   5.302   1.177
  424TIP3    H2 1237   5.225   5.364   1.113
  425TIP3   OH2 1238   2.583   2.664   2.526
  425TIP3    H1 1239   2.650   2.732   2.517
  425TIP3    H2 1240   2.500   2.712   2.518
  426TIP3   OH2 1241   1.709   4.520   4.755
  426TIP3    H1 1242   1.675   4.449   4.701
  426TIP3    H2 1243   1.770   4.477   4.816
  427TIP3   OH2 1244   2.749   6.229   2.802
  427TIP3    H1 1245   2.686   6.250   2.733
  427TIP3    H2 1246   2.791   6.313   2.823
  428TIP3   OH2 1247   6.051   5.975   1.313
  428TIP3    H1 1248   6.083   5.987   1.403
  428TIP3    H2 1249   5.987   6.045   1.301
  429TIP3   OH2 1250   4.660   2.567   5.658
  429TIP3    H1 1251   4.653   2.592   5.566
  429TIP3    H2 1252   4.729   2.622   5.693
  430TIP3   OH2 1253   3.121   5.901   0.396
  430TIP3    H1 1254   3.076   5.973   0.439
  430TIP3    H2 1255   3.069   5.884   0.317
  431TIP3   OH2 1256   2.316   2.850   4.352
  431TIP3    H1 1257   2.373   2.796   4.297
  431TIP3    H2 1258   2.357   2.847   4.439
  432TIP3   OH2 1259   2.972   6.506   3.526
  432TIP3    H1 1260   2.965   6.589   3.478
  432TIP3    H2 1261   2.917   6.445   3.478
  433TIP3   OH2 1262   4.158   3.187   5.829
  433TIP3    H1 1263   4.159   3.265   5.773
  433TIP3    H2 1264   4.088   3.132   5.793
  434TIP3   OH2 1265   5.385   2.710   4.312
  434TIP3    H1 1266   5.351   2.779   4.256
  434TIP3    H2 1267   5.465   2.680   4.269
  435TIP3   OH2 1268   1.720   2.418   5.183
  435TIP3    H1 1269   1.701   2.470   5.105
  435TIP3    H2 1270   1.767   2.341   5.151
  436TIP3   OH2 1271   2.378   5.034   5.199
  436TIP3    H1 1272   2.329   5.084   5.135
  436TIP3    H2 1273   2.319   4.962   5.224
  437TIP3   OH2 1274   1.291   5.577   2.416
  437TIP3    H1 1275   1.260   5.607   2.501
  437TIP3    H2 1276   1.381   5.609   2.410
  438TIP3   OH2 1277   5.862   0.698   0.840
  438TIP3    H1 1278   5.889   0.662   0.755
  438TIP3    H2 1279   5.784   0.748   0.820
  439TIP3   OH2 1280   1.400   0.424   5.583
  439TIP3    H1 1281   1.342   0.348   5.589
  439TIP3    H2 1282   1.373   0.469   5.502
  440TIP3   OH2 1283   0.732   0.876   3.268
  440TIP3    H1 1284   0.744   0.964   3.304
  440TIP3    H2 1285   0.820   0.852   3.237
  441TIP3   OH2 1286   1.088   2.685   2.459
  441TIP3    H1 1287   1.169   2.689   2.510
  441TIP3    H2 1288   1.117   2.701   2.369
  442TIP3   OH2 1289   1.021   2.309   1.580
  442TIP3    H1 1290   0.992   2.220   1.600
  442TIP3    H2 1291   0.997   2.360   1.658
  443TIP3   OH2 1292   6.402   4.928   2.021
  443TIP3    H1 1293   6.413   4.902   1.929
  443TIP3    H2 1294   6.318   4.973   2.023
  444TIP3   OH2 1295   0.243   3.266   5.124
  444TIP3    H1 1296   0.254   3.189   5.180
  444TIP3    H2 1297   0.178   3.320   5.170
  445TIP3   OH2 1298   4.446   5.951   4.381
  445TIP3    H1 1299   4.369   5.928   4.329
  445TIP3    H2 1300   4.426   5.917   4.469
  446TIP3   OH2 1301   4.770   5.249   1.975
  446TIP3    H1 1302   4.783   5.159   1.945
  446TIP3    H2 1303   4.841   5.299   1.935
  447TIP3   OH2 1304   3.756   4.918   3.398
  447TIP3    H1 1305   3.763   4.971   3.319
  447TIP3    H2 1306   3.845   4.913   3.432
  448TIP3   OH2 1307   7.063   6.368   1.425
  448TIP3    H1 1308   7.005   6.292   1.428
  448TIP3    H2 1309   7.148   6.334   1.452
  449TIP3   OH2 1310   6.790   1.010   1.652
  449TIP3    H1 1311   6.814   1.101   1.630
  449TIP3    H2 1312   6.697   1.015   1.675
  450TIP3   OH2 1313   0.285   1.559   0.873
  450TIP3    H1 1314   0.293   1.624   0.803
  450TIP3    H2 1315   0.369   1.561   0.919
  451TIP3   OH2 1316   3.748   5.904   0.643
  451TIP3    H1 1317   3.826   5.891   0.696
  451TIP3    H2 1318   3.730   5.818   0.605
  452TIP3   OH2 1319   4.567   0.748   2.968
  452TIP3    H1 1320   4.520   0.827   2.995
  452TIP3    H2 1321   4.648   0.780   2.930
  453TIP3   OH2 1322   0.808   1.926   2.204
  453TIP3    H1 1323   0.741   1.907   2.138
  453TIP3    H2 1324   0.810   2.021   2.210
  454TIP3   OH2 1325   6.222   2.381   2.065
  454TIP3    H1 1326   6.259   2.327   1.995
  454TIP3    H2 1327   6.163   2.441   2.020
  455TIP3   OH2 1328   4.189   5.018   5.133
  455TIP3    H1 1329   4.280   5.041   5.152
  455TIP3    H2 1330   4.195   4.937   5.083
  456TIP3   OH2 1331   4.782   5.270   4.250
  456TIP3    H1 1332   4.875   5.292   4.253
  456TIP3    H2 1333   4.744   5.316   4.325
  457TIP3   OH2 1334   2.036   1.817   2.908
  457TIP3    H1 1335   2.060   1.813   2.816
  457TIP3    H2 1336   2.111   1.778   2.954
  458TIP3   OH2 1337   7.032   5.158   0.684
  458TIP3    H1 1338   6.951   5.136   0.731
  458TIP3    H2 1339   7.080   5.214   0.746
  459TIP3   OH2 1340   4.615   0.674   2.655
  459TIP3    H1 1341   4.694   0.648   2.608
  459TIP3    H2 1342   4.647   0.727   2.728
  460TIP3   OH2 1343   7.199   1.114   3.635
  460TIP3    H1 1344   7.265   1.163   3.684
  460TIP3    H2 1345   7.183   1.036   3.689
  461TIP3   OH2 1346   3.039   1.050   1.717
  461TIP3    H1 1347   3.101   1.083   1.783
  461TIP3    H2 1348   3.076   1.077   1.633
  462TIP3   OH2 1349   1.511   6.321   4.098
  462TIP3    H1 1350   1.457   6.346   4.173
  462TIP3    H2 1351   1.460   6.253   4.054
  463TIP3   OH2 1352   1.854   6.444   1.307
  463TIP3    H1 1353   1.822   6.413   1.222
  463TIP3    H2 1354   1.888   6.366   1.350
  464TIP3   OH2 1355   0.357   6.214   3.721
  464TIP3    H1 1356   0.421   6.220   3.792
  464TIP3    H2 1357   0.409   6.196   3.643
  465TIP3   OH2 1358   2.106   0.147   0.205
  465TIP3    H1 1359   2.182   0.091   0.197
  465TIP3    H2 1360   2.041   0.093   0.251
  466TIP3   OH2 1361   0.241   3.126   0.868
  466TIP3    H1 1362   0.319   3.180   0.877
  466TIP3    H2 1363   0.223   3.125   0.774
  467TIP3   OH2 1364   6.297   0.073   3.401
  467TIP3    H1 1365   6.309   0.030   3.316
  467TIP3    H2 1366   6.205   0.097   3.403
  468TIP3   OH2 1367   3.345   4.392   0.864
  468TIP3    H1 1368   3.344   4.487   0.857
  468TIP3    H2 1369   3.352   4.361   0.774
  469TIP3   OH2 1370   5.731   6.218   5.496
  469TIP3    H1 1371   5.709   6.249   5.584
  469TIP3    H2 1372   5.819   6.182   5.505
  470TIP3   OH2 1373   0.451   3.053   2.578
  470TIP3    H1 1374   0.380   3.057   2.641
  470TIP3    H2 1375   0.418   2.996   2.508
  471TIP3   OH2 1376   6.034   0.930   4.474
  471TIP3    H1 1377   6.081   0.988   4.413
  471TIP3    H2 1378   6.102   0.871   4.507
  472TIP3   OH2 1379   6.140   3.654   4.222
  472TIP3    H1 1380   6.059   3.699   4.244
  472TIP3    H2 1381   6.159   3.599   4.297
  473TIP3   OH2 1382   3.707   5.123   2.529
  473TIP3    H1 1383   3.738   5.118   2.620
  473TIP3    H2 1384   3.709   5.217   2.508
  474TIP3   OH2 1385   3.622   5.849   1.599
  474TIP3    H1 1386   3.711   5.825   1.575
  474TIP3    H2 1387   3.622   5.945   1.596
  475TIP3   OH2 1388   1.999   2.668   2.978
  475TIP3    H1 1389   1.933   2.625   2.925
  475TIP3    H2 1390   1.988   2.761   2.960
  476TIP3   OH2 1391   1.221   4.771   1.016
  476TIP3    H1 1392   1.133   4.735   1.018
  476TIP3    H2 1393   1.209   4.865   1.007
  477TIP3   OH2 1394   5.605   4.525   4.800
  477TIP3    H1 1395   5.533   4.497   4.856
  477TIP3    H2 1396   5.593   4.620   4.791
  478TIP3   OH2 1397   3.141   5.220   1.266
  478TIP3    H1 1398   3.166   5.201   1.175
  478TIP3    H2 1399   3.056   5.177   1.276
  479TIP3   OH2 1400   4.053   6.213   2.114
  479TIP3    H1 1401   4.042   6.139   2.174
  479TIP3    H2 1402   4.064   6.173   2.028
  480TIP3   OH2 1403   5.885  -0.057   5.015
  480TIP3    H1 1404   5.819  -0.076   5.082
  480TIP3    H2 1405   5.860   0.028   4.980
  481TIP3   OH2 1406   1.326   1.475   4.647
  481TIP3    H1 1407   1.254   1.524   4.688
  481TIP3    H2 1408   1.309   1.481   4.553
  482TIP3   OH2 1409   0.726   2.280   0.486
  482TIP3    H1 1410   0.704   2.190   0.509
  482TIP3    H2 1411   0.675   2.297   0.406
  483TIP3   OH2 1412   1.207   2.391   4.576
  483TIP3    H1 1413   1.239   2.304   4.553
  483TIP3    H2 1414   1.286   2.443   4.589
  484TIP3   OH2 1415   4.117   4.158   0.596
  484TIP3    H1 1416   4.023   4.145   0.601
  484TIP3    H2 1417   4.153   4.070   0.582
  485TIP3   OH2 1418   3.062   4.820   4.220
  485TIP3    H1 1419   3.020   4.901   4.189
  485TIP3    H2 1420   3.017   4.799   4.302
  486TIP3   OH2 1421   6.757   0.159   2.381
  486TIP3    H1 1422   6.807   0.188   2.306
  486TIP3    H2 1423   6.735   0.239   2.429
  487TIP3   OH2 1424   2.422   0.782   3.656
  487TIP3    H1 1425   2.377   0.751   3.735
  487TIP3    H2 1426   2.439   0.703   3.605
  488TIP3   OH2 1427   4.608   0.076   0.047
  488TIP3    H1 1428   4.544   0.053   0.114
  488TIP3    H2 1429   4.657   0.150   0.085
  489TIP3   OH2 1430   2.860   3.171   4.779
  489TIP3    H1 1431   2.908   3.112   4.722
  489TIP3    H2 1432   2.817   3.233   4.720
  490TIP3   OH2 1433   0.527   4.177   0.115
  490TIP3    H1 1434   0.520   4.170   0.210
  490TIP3    H2 1435   0.595   4.114   0.091
  491TIP3   OH2 1436   5.357   4.434   4.533
  491TIP3    H1 1437   5.338   4.414   4.624
  491TIP3    H2 1438   5.407   4.359   4.501
  492TIP3   OH2 1439   2.215   5.126   0.263
  492TIP3    H1 1440   2.123   5.150   0.260
  492TIP3    H2 1441   2.223   5.069   0.340
  493TIP3   OH2 1442   5.032   2.904   4.457
  493TIP3    H1 1443   5.051   2.877   4.367
  493TIP3    H2 1444   4.938   2.889   4.467
  494TIP3   OH2 1445   3.613   0.617   3.435
  494TIP3    H1 1446   3.580   0.630   3.524
  494TIP3    H2 1447   3.598   0.700   3.391
  495TIP3   OH2 1448   6.782   4.964   5.694
  495TIP3    H1 1449   6.786   4.962   5.790
  495TIP3    H2 1450   6.816   5.051   5.671
  496TIP3   OH2 1451   2.692   3.417   2.918
  496TIP3    H1 1452   2.626   3.392   2.983
  496TIP3    H2 1453   2.722   3.334   2.881
  497TIP3   OH2 1454   6.940   0.315   5.832
  497TIP3    H1 1455   6.928   0.392   5.887
  497TIP3    H2 1456   7.034   0.295   5.839
  498TIP3   OH2 1457   1.647   4.594   4.185
  498TIP3    H1 1458   1.600   4.607   4.268
  498TIP3    H2 1459   1.648   4.680   4.144
  499TIP3   OH2 1460   5.802   1.785   4.204
  499TIP3    H1 1461   5.889   1.800   4.166
  499TIP3    H2 1462   5.794   1.689   4.207
  500TIP3   OH2 1463   5.175   6.150   5.864
  500TIP3    H1 1464   5.228   6.229   5.848
  500TIP3    H2 1465   5.109   6.178   5.927
  501TIP3   OH2 1466   7.059   1.552   4.876
  501TIP3    H1 1467   7.133   1.510   4.919
  501TIP3    H2 1468   7.016   1.481   4.827
  502TIP3   OH2 1469   2.389   0.311   1.795
  502TIP3    H1 1470   2.355   0.282   1.880
  502TIP3    H2 1471   2.484   0.302   1.803
  503TIP3   OH2 1472   3.074   4.091   4.988
  503TIP3    H1 1473   3.052   4.020   5.049
  503TIP3    H2 1474   3.166   4.109   5.005
  504TIP3   OH2 1475   4.038   2.850   1.871
  504TIP3    H1 1476   4.065   2.836   1.780
  504TIP3    H2 1477   3.951   2.811   1.876
  505TIP3   OH2 1478   0.637   0.699   2.354
  505TIP3    H1 1479   0.661   0.788   2.327
  505TIP3    H2 1480   0.699   0.643   2.306
  506TIP3   OH2 1481   6.726   1.724   4.190
  506TIP3    H1 1482   6.699   1.762   4.273
  506TIP3    H2 1483   6.820   1.743   4.184
  507TIP3   OH2 1484   5.854   4.069   2.676
  507TIP3    H1 1485   5.776   4.122   2.696
  507TIP3    H2 1486   5.842   3.989   2.727
  508TIP3   OH2 1487   0.033   2.963   1.398
  508TIP3    H1 1488   0.005   2.922   1.316
  508TIP3    H2 1489  -0.049   2.982   1.444
  509TIP3   OH2 1490   4.995   4.230   0.714
  509TIP3    H1 1491   5.029   4.185   0.636
  509TIP3    H2 1492   5.005   4.323   0.694
  510TIP3   OH2 1493   4.263   1.032   0.514
  510TIP3    H1 1494   4.344   0.989   0.486
  510TIP3    H2 1495   4.270   1.120   0.477
  511TIP3   OH2 1496   5.427   6.379   0.359
  511TIP3    H1 1497   5.445   6.359   0.267
  511TIP3    H2 1498   5.349   6.326   0.380
  512TIP3   OH2 1499   3.785   0.372   5.309
  512TIP3    H1 1500   3.795   0.316   5.232
  512TIP3    H2 1501   3.691   0.369   5.328
  513TIP3   OH2 1502   6.267   6.369   0.798
  513TIP3    H1 1503   6.289   6.357   0.890
  513TIP3    H2 1504   6.184   6.417   0.798
  514TIP3   OH2 1505   5.148   2.591   4.854
  514TIP3    H1 1506   5.235   2.582   4.815
  514TIP3    H2 1507   5.164   2.593   4.948
  515TIP3   OH2 1508   0.039   3.405   1.432
  515TIP3    H1 1509   0.045   3.460   1.510
  515TIP3    H2 1510  -0.054   3.405   1.410
  516TIP3   OH2 1511   2.581   0.314   1.529
  516TIP3    H1 1512   2.497   0.282   1.494
  516TIP3    H2 1513   2.557   0.391   1.580
  517TIP3   OH2 1514   1.886   4.364   0.923
  517TIP3    H1 1515   1.963   4.328   0.880
  517TIP3    H2 1516   1.820   4.295   0.917
  518TIP3   OH2 1517   6.280   5.824   2.744
  518TIP3    H1 1518   6.314   5.842   2.832
  518TIP3    H2 1519   6.257   5.731   2.746
  519TIP3   OH2 1520   2.329   4.598   0.210
  519TIP3    H1 1521   2.276   4.549   0.147
  519TIP3    H2 1522   2.269   4.663   0.246
  520TIP3   OH2 1523   1.688   5.628   3.763
  520TIP3    H1 1524   1.770   5.677   3.757
  520TIP3    H2 1525   1.638   5.675   3.830
  521TIP3   OH2 1526   4.480   0.933   1.480
  521TIP3    H1 1527   4.407   0.887   1.522
  521TIP3    H2 1528   4.438   0.993   1.418
  522TIP3   OH2 1529   0.573   2.680   4.020
  522TIP3    H1 1530   0.612   2.634   4.094
  522TIP3    H2 1531   0.500   2.729   4.057
  523TIP3   OH2 1532   1.717   6.419   4.947
  523TIP3    H1 1533   1.644   6.444   5.004
  523TIP3    H2 1534   1.678   6.363   4.881
  524TIP3   OH2 1535   5.680   0.494   1.313
  524TIP3    H1 1536   5.608   0.494   1.376
  524TIP3    H2 1537   5.668   0.414   1.262
  525TIP3   OH2 1538   3.256   0.481   3.784
  525TIP3    H1 1539   3.249   0.456   3.692
  525TIP3    H2 1540   3.245   0.398   3.832
  526TIP3   OH2 1541   3.998   0.362   2.410
  526TIP3    H1 1542   4.017   0.398   2.324
  526TIP3    H2 1543   4.008   0.268   2.400
  527TIP3   OH2 1544   3.996   4.972   1.316
  527TIP3    H1 1545   3.913   5.017   1.301
  527TIP3    H2 1546   3.997   4.954   1.410
  528TIP3   OH2 1547   2.928   2.805   5.287
  528TIP3    H1 1548   2.884   2.730   5.247
  528TIP3    H2 1549   2.987   2.767   5.352
  529TIP3   OH2 1550   3.620   3.036   3.045
  529TIP3    H1 1551   3.702   3.067   3.007
  529TIP3    H2 1552   3.555   3.051   2.976
  530TIP3   OH2 1553   4.745   4.283   2.821
  530TIP3    H1 1554   4.693   4.253   2.747
  530TIP3    H2 1555   4.814   4.218   2.830
  531TIP3   OH2 1556   6.212   2.062   5.650
  531TIP3    H1 1557   6.282   2.127   5.658
  531TIP3    H2 1558   6.227   2.022   5.564
  532TIP3   OH2 1559   1.894   4.034   5.167
  532TIP3    H1 1560   1.878   4.127   5.185
  532TIP3    H2 1561   1.983   4.018   5.199
  533TIP3   OH2 1562   2.426   5.882   0.729
  533TIP3    H1 1563   2.361   5.952   0.718
  533TIP3    H2 1564   2.465   5.900   0.815
  534TIP3   OH2 1565   3.977   1.192   4.605
  534TIP3    H1 1566   3.964   1.287   4.603
  534TIP3    H2 1567   3.957   1.164   4.515
  535TIP3   OH2 1568   1.194   6.530   0.129
  535TIP3    H1 1569   1.185   6.512   0.035
  535TIP3    H2 1570   1.108   6.513   0.166
  536TIP3   OH2 1571   4.306   4.713   2.360
  536TIP3    H1 1572   4.293   4.619   2.364
  536TIP3    H2 1573   4.336   4.737   2.448
  537TIP3   OH2 1574   4.259   2.380   1.563
  537TIP3    H1 1575   4.318   2.448   1.530
  537TIP3    H2 1576   4.174   2.423   1.568
  538TIP3   OH2 1577   3.202   2.119   0.838
  538TIP3    H1 1578   3.127   2.138   0.781
  538TIP3    H2 1579   3.195   2.184   0.908
  539TIP3   OH2 1580   5.998   6.076   4.045
  539TIP3    H1 1581   5.970   6.138   3.978
  539TIP3    H2 1582   6.073   6.031   4.007
  540TIP3   OH2 1583   1.815   3.858  -0.062
  540TIP3    H1 1584   1.911   3.850  -0.066
  540TIP3    H2 1585   1.792   3.828   0.026
  541TIP3   OH2 1586   6.788   0.759   2.960
  541TIP3    H1 1587   6.785   0.774   3.054
  541TIP3    H2 1588   6.712   0.704   2.943
  542TIP3   OH2 1589   4.230   3.883   0.637
  542TIP3    H1 1590   4.163   3.818   0.658
  542TIP3    H2 1591   4.292   3.836   0.580
  543TIP3   OH2 1592   0.586   0.735   4.879
  543TIP3    H1 1593   0.625   0.662   4.927
  543TIP3    H2 1594   0.616   0.813   4.925
  544TIP3   OH2 1595   4.021   1.908   1.180
  544TIP3    H1 1596   3.995   1.819   1.154
  544TIP3    H2 1597   3.955   1.965   1.142
  545TIP3   OH2 1598   6.942   6.494   5.332
  545TIP3    H1 1599   6.905   6.579   5.307
  545TIP3    H2 1600   6.928   6.439   5.255
  546TIP3   OH2 1601   2.546   0.912   4.592
  546TIP3    H1 1602   2.451   0.914   4.580
  546TIP3    H2 1603   2.566   0.991   4.642
  547TIP3   OH2 1604   4.214   2.025   5.754
  547TIP3    H1 1605   4.133   2.025   5.804
  547TIP3    H2 1606   4.252   2.112   5.768
  548TIP3   OH2 1607   6.745   4.353   3.376
  548TIP3    H1 1608   6.668   4.305   3.404
  548TIP3    H2 1609   6.819   4.297   3.402
  549TIP3   OH2 1610   0.707   1.556   0.700
  549TIP3    H1 1611   0.739   1.546   0.790
  549TIP3    H2 1612   0.785   1.570   0.647
  550TIP3   OH2 1613   0.513   1.267   1.694
  550TIP3    H1 1614   0.545   1.356   1.704
  550TIP3    H2 1615   0.588   1.212   1.719
  551TIP3   OH2 1616   1.656   4.320   0.429
  551TIP3    H1 1617   1.674   4.410   0.456
  551TIP3    H2 1618   1.580   4.327   0.371
  552TIP3   OH2 1619   4.994   1.245   4.437
  552TIP3    H1 1620   4.967   1.253   4.346
  552TIP3    H2 1621   5.075   1.295   4.443
  553TIP3   OH2 1622   6.509   4.407   0.767
  553TIP3    H1 1623   6.441   4.474   0.779
  553TIP3    H2 1624   6.583   4.439   0.819
  554TIP3   OH2 1625   2.672   3.225   5.015
  554TIP3    H1 1626   2.709   3.184   4.936
  554TIP3    H2 1627   2.689   3.162   5.085
  555TIP3   OH2 1628   6.338   4.939   3.667
  555TIP3    H1 1629   6.249   4.911   3.690
  555TIP3    H2 1630   6.335   4.955   3.573
  556TIP3   OH2 1631   4.720   6.020   5.714
  556TIP3    H1 1632   4.643   6.006   5.769
  556TIP3    H2 1633   4.696   5.982   5.630
  557TIP3   OH2 1634   0.933   5.499   2.748
  557TIP3    H1 1635   0.867   5.568   2.762
  557TIP3    H2 1636   0.908   5.459   2.664
  558TIP3   OH2 1637   5.656   1.690   3.275
  558TIP3    H1 1638   5.700   1.709   3.192
  558TIP3    H2 1639   5.727   1.666   3.335
  559TIP3   OH2 1640   1.449   5.489   3.670
  559TIP3    H1 1641   1.477   5.424   3.607
  559TIP3    H2 1642   1.526   5.544   3.685
  560TIP3   OH2 1643   3.532   4.534   1.726
  560TIP3    H1 1644   3.601   4.571   1.780
  560TIP3    H2 1645   3.518   4.599   1.657
  561TIP3   OH2 1646   4.960   2.236   0.034
  561TIP3    H1 1647   4.918   2.180   0.099
  561TIP3    H2 1648   5.053   2.214   0.040
  562TIP3   OH2 1649   4.870   5.474   3.471
  562TIP3    H1 1650   4.873   5.550   3.413
  562TIP3    H2 1651   4.920   5.501   3.548
  563TIP3   OH2 1652   5.255   1.073   0.639
  563TIP3    H1 1653   5.188   1.129   0.677
  563TIP3    H2 1654   5.232   1.067   0.546
  564TIP3   OH2 1655   7.181   0.628   4.413
  564TIP3    H1 1656   7.175   0.674   4.329
  564TIP3    H2 1657   7.163   0.696   4.478
  565TIP3   OH2 1658   2.226   0.379   0.331
  565TIP3    H1 1659   2.318   0.391   0.354
  565TIP3    H2 1660   2.216   0.285   0.319
  566TIP3   OH2 1661   2.770   1.854   1.547
  566TIP3    H1 1662   2.786   1.876   1.639
  566TIP3    H2 1663   2.856   1.861   1.505
  567TIP3   OH2 1664   4.125   0.618   0.611
  567TIP3    H1 1665   4.213   0.642   0.642
  567TIP3    H2 1666   4.126   0.523   0.607
  568TIP3   OH2 1667   4.094   0.203   0.907
  568TIP3    H1 1668   4.008   0.167   0.885
  568TIP3    H2 1669   4.144   0.196   0.826
  569TIP3   OH2 1670   1.026   3.446   4.092
  569TIP3    H1 1671   1.026   3.482   4.181
  569TIP3    H2 1672   0.976   3.510   4.040
  570TIP3   OH2 1673   6.798   3.329   0.624
  570TIP3    H1 1674   6.883   3.296   0.592
  570TIP3    H2 1675   6.758   3.369   0.547
  571TIP3   OH2 1676   0.799   2.078   4.942
  571TIP3    H1 1677   0.811   1.994   4.986
  571TIP3    H2 1678   0.852   2.140   4.993
  572TIP3   OH2 1679   6.186   2.618   1.907
  572TIP3    H1 1680   6.240   2.696   1.902
  572TIP3    H2 1681   6.109   2.645   1.957
  573TIP3   OH2 1682   5.963   2.009   1.067
  573TIP3    H1 1683   5.902   2.083   1.072
  573TIP3    H2 1684   5.942   1.955   1.143
  574TIP3   OH2 1685   6.820   1.034   0.916
  574TIP3    H1 1686   6.742   1.088   0.915
  574TIP3    H2 1687   6.824   0.997   1.004
  575TIP3   OH2 1688   7.017   1.850   1.939
  575TIP3    H1 1689   7.053   1.875   1.854
  575TIP3    H2 1690   7.057   1.765   1.958
  576TIP3   OH2 1691   2.113   0.478   1.290
  576TIP3    H1 1692   2.115   0.411   1.358
  576TIP3    H2 1693   2.023   0.478   1.258
  577TIP3   OH2 1694   3.680   5.252   5.280
  577TIP3    H1 1695   3.751   5.190   5.299
  577TIP3    H2 1696   3.725   5.333   5.258
  578TIP3   OH2 1697   0.491   1.820   5.583
  578TIP3    H1 1698   0.535   1.902   5.604
  578TIP3    H2 1699   0.433   1.842   5.511
  579TIP3   OH2 1700   6.579   4.423   5.582
  579TIP3    H1 1701   6.628   4.437   5.663
  579TIP3    H2 1702   6.633   4.362   5.532
  580TIP3   OH2 1703   2.354   2.475   0.319
  580TIP3    H1 1704   2.369   2.428   0.237
  580TIP3    H2 1705   2.435   2.463   0.368
  581TIP3   OH2 1706   6.392   5.394   1.352
  581TIP3    H1 1707   6.302   5.383   1.321
  581TIP3    H2 1708   6.445   5.395   1.272
  582TIP3   OH2 1709   4.338   1.136   2.110
  582TIP3    H1 1710   4.326   1.078   2.185
  582TIP3    H2 1711   4.249   1.156   2.081
  583TIP3   OH2 1712   2.373   1.271   4.552
  583TIP3    H1 1713   2.421   1.353   4.565
  583TIP3    H2 1714   2.371   1.231   4.639
  584TIP3   OH2 1715   0.951   2.258   5.096
  584TIP3    H1 1716   1.036   2.300   5.094
  584TIP3    H2 1717   0.891   2.326   5.128
  585TIP3   OH2 1718   6.717   6.080   4.949
  585TIP3    H1 1719   6.704   6.174   4.936
  585TIP3    H2 1720   6.628   6.045   4.961
  586TIP3   OH2 1721   5.027   1.422   3.826
  586TIP3    H1 1722   4.964   1.467   3.770
  586TIP3    H2 1723   5.030   1.333   3.792
  587TIP3   OH2 1724   2.210   3.125   3.821
  587TIP3    H1 1725   2.222   3.031   3.821
  587TIP3    H2 1726   2.214   3.151   3.729
  588TIP3   OH2 1727   1.637   4.026   3.436
  588TIP3    H1 1728   1.673   3.965   3.372
  588TIP3    H2 1729   1.610   3.971   3.509
  589TIP3   OH2 1730   2.832   0.827   0.338
  589TIP3    H1 1731   2.781   0.905   0.358
  589TIP3    H2 1732   2.864   0.841   0.249
  590TIP3   OH2 1733   4.593   3.916   1.740
  590TIP3    H1 1734   4.623   3.884   1.654
  590TIP3    H2 1735   4.541   3.994   1.720
  591TIP3   OH2 1736   2.517   6.561   0.148
  591TIP3    H1 1737   2.451   6.528   0.209
  591TIP3    H2 1738   2.548   6.483   0.101
  592TIP3   OH2 1739   4.648   3.816   1.256
  592TIP3    H1 1740   4.705   3.856   1.191
  592TIP3    H2 1741   4.601   3.890   1.295
  593TIP3   OH2 1742   6.129   1.298   0.725
  593TIP3    H1 1743   6.171   1.272   0.808
  593TIP3    H2 1744   6.043   1.330   0.751
  594TIP3   OH2 1745   0.131   2.109   1.438
  594TIP3    H1 1746   0.116   2.124   1.531
  594TIP3    H2 1747   0.185   2.184   1.410
  595TIP3   OH2 1748   5.944   0.984   4.971
  595TIP3    H1 1749   6.030   0.944   4.984
  595TIP3    H2 1750   5.958   1.050   4.904
  596TIP3   OH2 1751   3.729   1.402   3.381
  596TIP3    H1 1752   3.743   1.363   3.295
  596TIP3    H2 1753   3.806   1.376   3.432
  597TIP3   OH2 1754   7.071   2.848   3.541
  597TIP3    H1 1755   7.060   2.783   3.472
  597TIP3    H2 1756   7.120   2.802   3.609
  598TIP3   OH2 1757   2.691   6.728   0.041
  598TIP3    H1 1758   2.619   6.685   0.086
  598TIP3    H2 1759   2.669   6.723  -0.051
  599TIP3   OH2 1760   6.708   3.584   2.635
  599TIP3    H1 1761   6.792   3.544   2.658
  599TIP3    H2 1762   6.729   3.677   2.621
  600TIP3   OH2 1763   7.105   4.114   2.251
  600TIP3    H1 1764   7.081   4.165   2.173
  600TIP3    H2 1765   7.028   4.120   2.307
  601TIP3   OH2 1766   4.720   3.372   3.165
  601TIP3    H1 1767   4.625   3.359   3.163
  601TIP3    H2 1768   4.739   3.387   3.258
  602TIP3   OH2 1769   3.205   1.226   3.510
  602TIP3    H1 1770   3.274   1.166   3.535
  602TIP3    H2 1771   3.244   1.313   3.517
  603TIP3   OH2 1772   3.610   2.246   2.321
  603TIP3    H1 1773   3.593   2.170   2.375
  603TIP3    H2 1774   3.690   2.224   2.272
  604TIP3   OH2 1775   6.779   4.311   1.033
  604TIP3    H1 1776   6.858   4.269   0.999
  604TIP3    H2 1777   6.756   4.376   0.966
  605TIP3   OH2 1778   5.188   4.606   4.425
  605TIP3    H1 1779   5.250   4.539   4.453
  605TIP3    H2 1780   5.103   4.576   4.457
  606TIP3   OH2 1781   0.670   5.755   1.092
  606TIP3    H1 1782   0.759   5.785   1.074
  606TIP3    H2 1783   0.663   5.671   1.046
  607TIP3   OH2 1784   6.822   2.690   2.227
  607TIP3    H1 1785   6.852   2.683   2.318
  607TIP3    H2 1786   6.740   2.739   2.233
  608TIP3   OH2 1787   3.753   6.178   2.341
  608TIP3    H1 1788   3.744   6.113   2.271
  608TIP3    H2 1789   3.672   6.230   2.336
  609TIP3   OH2 1790   7.056   2.478   2.559
  609TIP3    H1 1791   7.090   2.418   2.626
  609TIP3    H2 1792   7.023   2.420   2.490
  610TIP3   OH2 1793   4.953   1.755   2.600
  610TIP3    H1 1794   4.920   1.765   2.511
  610TIP3    H2 1795   4.874   1.748   2.654
  611TIP3   OH2 1796   6.051   4.365   3.552
  611TIP3    H1 1797   5.958   4.368   3.574
  611TIP3    H2 1798   6.081   4.280   3.583
  612TIP3   OH2 1799   6.069   4.888   4.943
  612TIP3    H1 1800   5.990   4.941   4.947
  612TIP3    H2 1801   6.038   4.800   4.922
  613TIP3   OH2 1802   5.240   1.545   4.840
  613TIP3    H1 1803   5.317   1.594   4.809
  613TIP3    H2 1804   5.271   1.454   4.848
  614TIP3   OH2 1805   0.240   5.191   5.695
  614TIP3    H1 1806   0.282   5.181   5.780
  614TIP3    H2 1807   0.277   5.272   5.659
  615TIP3   OH2 1808   0.399   5.978   4.344
  615TIP3    H1 1809   0.454   5.908   4.376
  615TIP3    H2 1810   0.363   5.946   4.261
  616TIP3   OH2 1811   0.604   6.325   1.432
  616TIP3    H1 1812   0.585   6.404   1.483
  616TIP3    H2 1813   0.616   6.357   1.342
  617TIP3   OH2 1814   4.281   3.161   0.397
  617TIP3    H1 1815   4.322   3.083   0.360
  617TIP3    H2 1816   4.243   3.131   0.480
  618TIP3   OH2 1817   0.609   6.172   3.581
  618TIP3    H1 1818   0.622   6.084   3.545
  618TIP3    H2 1819   0.697   6.209   3.584
  619TIP3   OH2 1820   6.212   3.739   0.413
  619TIP3    H1 1821   6.166   3.819   0.389
  619TIP3    H2 1822   6.262   3.715   0.335
  620TIP3   OH2 1823   0.982   2.580   5.436
  620TIP3    H1 1824   1.040   2.612   5.506
  620TIP3    H2 1825   1.003   2.634   5.360
  621TIP3   OH2 1826   4.108   6.047   1.408
  621TIP3    H1 1827   4.139   5.957   1.414
  621TIP3    H2 1828   4.089   6.071   1.499
  622TIP3   OH2 1829   6.312   1.692   4.059
  622TIP3    H1 1830   6.251   1.669   3.989
  622TIP3    H2 1831   6.268   1.661   4.139
  623TIP3   OH2 1832   0.849   6.290   3.497
  623TIP3    H1 1833   0.927   6.265   3.548
  623TIP3    H2 1834   0.859   6.384   3.483
  624TIP3   OH2 1835   5.443   2.425   3.776
  624TIP3    H1 1836   5.505   2.379   3.719
  624TIP3    H2 1837   5.422   2.505   3.729
  625TIP3   OH2 1838   6.091   2.863   1.292
  625TIP3    H1 1839   6.143   2.905   1.360
  625TIP3    H2 1840   6.071   2.933   1.230
  626TIP3   OH2 1841   3.805   6.169   3.633
  626TIP3    H1 1842   3.833   6.136   3.548
  626TIP3    H2 1843   3.731   6.227   3.613
  627TIP3   OH2 1844   3.486   5.286   2.086
  627TIP3    H1 1845   3.566   5.333   2.108
  627TIP3    H2 1846   3.421   5.355   2.073
  628TIP3   OH2 1847   4.421   5.770   3.530
  628TIP3    H1 1848   4.418   5.781   3.435
  628TIP3    H2 1849   4.446   5.678   3.543
  629TIP3   OH2 1850   1.457   3.311   4.151
  629TIP3    H1 1851   1.424   3.224   4.173
  629TIP3    H2 1852   1.492   3.302   4.063
  630TIP3   OH2 1853   0.084   2.050   1.705
  630TIP3    H1 1854   0.167   2.004   1.691
  630TIP3    H2 1855   0.018   1.981   1.704
  631TIP3   OH2 1856   0.010   0.358   0.467
  631TIP3    H1 1857   0.058   0.276   0.479
  631TIP3    H2 1858  -0.055   0.338   0.400
  632TIP3   OH2 1859   5.612   4.479   2.356
  632TIP3    H1 1860   5.684   4.457   2.415
  632TIP3    H2 1861   5.654   4.512   2.277
  633TIP3   OH2 1862   2.361   6.614   0.738
  633TIP3    H1 1863   2.410   6.676   0.791
  633TIP3    H2 1864   2.307   6.669   0.680
  634TIP3   OH2 1865   0.935   6.719   4.964
  634TIP3    H1 1866   0.928   6.800   5.016
  634TIP3    H2 1867   0.947   6.750   4.874
  635TIP3   OH2 1868   6.524   1.234   0.592
  635TIP3    H1 1869   6.534   1.207   0.683
  635TIP3    H2 1870   6.523   1.152   0.543
  636TIP3   OH2 1871   3.783   2.109   5.294
  636TIP3    H1 1872   3.876   2.097   5.274
  636TIP3    H2 1873   3.737   2.081   5.215
  637TIP3   OH2 1874   5.041   3.728   2.292
  637TIP3    H1 1875   5.066   3.703   2.381
  637TIP3    H2 1876   5.123   3.735   2.244
  638TIP3   OH2 1877   1.276   5.266   1.619
  638TIP3    H1 1878   1.353   5.241   1.569
  638TIP3    H2 1879   1.230   5.184   1.636
  639TIP3   OH2 1880   5.222   0.529   3.683
  639TIP3    H1 1881   5.293   0.474   3.649
  639TIP3    H2 1882   5.234   0.526   3.778
  640TIP3   OH2 1883   0.150   4.446   4.601
  640TIP3    H1 1884   0.100   4.474   4.524
  640TIP3    H2 1885   0.084   4.409   4.660
  641TIP3   OH2 1886   1.493   5.144   5.042
  641TIP3    H1 1887   1.440   5.072   5.076
  641TIP3    H2 1888   1.431   5.200   4.996
  642TIP3   OH2 1889   5.874   5.449   1.058
  642TIP3    H1 1890   5.963   5.463   1.027
  642TIP3    H2 1891   5.825   5.420   0.981
  643TIP3   OH2 1892   0.693   6.772   1.658
  643TIP3    H1 1893   0.690   6.866   1.675
  643TIP3    H2 1894   0.779   6.757   1.619
  644TIP3   OH2 1895   4.191   3.988   4.239
  644TIP3    H1 1896   4.200   4.083   4.244
  644TIP3    H2 1897   4.111   3.968   4.287
  645TIP3   OH2 1898   0.332   4.561   4.750
  645TIP3    H1 1899   0.369   4.627   4.692
  645TIP3    H2 1900   0.265   4.517   4.698
  646TIP3   OH2 1901   1.109   0.587   1.776
  646TIP3    H1 1902   1.106   0.619   1.866
  646TIP3    H2 1903   1.202   0.591   1.752
  647TIP3   OH2 1904   5.612   0.055   3.631
  647TIP3    H1 1905   5.612   0.137   3.682
  647TIP3    H2 1906   5.661   0.077   3.552
  648TIP3   OH2 1907   1.031   6.261   4.493
  648TIP3    H1 1908   1.089   6.337   4.490
  648TIP3    H2 1909   1.071   6.197   4.434
  649TIP3   OH2 1910   6.626   4.037   4.658
  649TIP3    H1 1911   6.616   4.131   4.643
  649TIP3    H2 1912   6.702   4.029   4.715
  650TIP3   OH2 1913   4.012   5.477   5.816
  650TIP3    H1 1914   3.967   5.560   5.827
  650TIP3    H2 1915   4.103   5.501   5.801
  651TIP3   OH2 1916   4.057   0.177   0.540
  651TIP3    H1 1917   4.009   0.127   0.474
  651TIP3    H2 1918   4.050   0.125   0.620
  652TIP3   OH2 1919   5.384   2.891   1.220
  652TIP3    H1 1920   5.451   2.957   1.202
  652TIP3    H2 1921   5.381   2.836   1.142
  653TIP3   OH2 1922   3.809   6.334   3.172
  653TIP3    H1 1923   3.876   6.402   3.176
  653TIP3    H2 1924   3.821   6.284   3.253
  654TIP3   OH2 1925   0.144   0.911   1.662
  654TIP3    H1 1926   0.203   0.970   1.616
  654TIP3    H2 1927   0.125   0.842   1.599
  655TIP3   OH2 1928   1.241   5.954   2.079
  655TIP3    H1 1929   1.224   6.011   2.005
  655TIP3    H2 1930   1.261   6.013   2.152
  656TIP3   OH2 1931   0.793   1.017   4.422
  656TIP3    H1 1932   0.748   1.088   4.469
  656TIP3    H2 1933   0.733   0.996   4.350
  657TIP3   OH2 1934   3.118   0.070   0.306
  657TIP3    H1 1935   3.032   0.028   0.311
  657TIP3    H2 1936   3.102   0.156   0.267
  658TIP3   OH2 1937   1.547   5.594   2.509
  658TIP3    H1 1938   1.611   5.649   2.555
  658TIP3    H2 1939   1.592   5.511   2.496
  659TIP3   OH2 1940   4.069   3.024   3.279
  659TIP3    H1 1941   3.975   3.017   3.296
  659TIP3    H2 1942   4.106   2.943   3.316
  660TIP3   OH2 1943   3.255   2.188   0.185
  660TIP3    H1 1944   3.261   2.093   0.179
  660TIP3    H2 1945   3.167   2.209   0.154
  661TIP3   OH2 1946   5.660   2.960   1.143
  661TIP3    H1 1947   5.713   2.987   1.218
  661TIP3    H2 1948   5.692   3.013   1.070
  662TIP3   OH2 1949   7.233   5.847   5.049
  662TIP3    H1 1950   7.193   5.929   5.018
  662TIP3    H2 1951   7.162   5.783   5.043
  663TIP3   OH2 1952   0.997   0.943   3.479
  663TIP3    H1 1953   1.058   1.011   3.507
  663TIP3    H2 1954   0.911   0.986   3.477
  664TIP3   OH2 1955   6.015   2.776   5.683
  664TIP3    H1 1956   6.019   2.719   5.760
  664TIP3    H2 1957   6.104   2.775   5.647
  665TIP3   OH2 1958   7.164   4.226   1.425
  665TIP3    H1 1959   7.169   4.307   1.477
  665TIP3    H2 1960   7.087   4.237   1.371
  666TIP3   OH2 1961   1.820   5.316   3.538
  666TIP3    H1 1962   1.726   5.321   3.520
  666TIP3    H2 1963   1.848   5.232   3.502
  667TIP3   OH2 1964   0.526   5.462   4.927
  667TIP3    H1 1965   0.503   5.506   4.845
  667TIP3    H2 1966   0.526   5.369   4.905
  668TIP3   OH2 1967   0.297   1.265   5.507
  668TIP3    H1 1968   0.290   1.194   5.443
  668TIP3    H2 1969   0.250   1.232   5.584
  669TIP3   OH2 1970   2.532   4.285   1.342
  669TIP3    H1 1971   2.607   4.310   1.396
  669TIP3    H2 1972   2.461   4.341   1.372
  670TIP3   OH2 1973   1.357   4.750   2.588
  670TIP3    H1 1974   1.332   4.673   2.639
  670TIP3    H2 1975   1.438   4.724   2.544
  671TIP3   OH2 1976   3.280   2.337   1.612
  671TIP3    H1 1977   3.241   2.358   1.697
  671TIP3    H2 1978   3.222   2.271   1.574
  672TIP3   OH2 1979   0.331   0.470   1.131
  672TIP3    H1 1980   0.327   0.405   1.061
  672TIP3    H2 1981   0.353   0.552   1.086
  673TIP3   OH2 1982   3.055   5.527   5.868
  673TIP3    H1 1983   3.062   5.498   5.959
  673TIP3    H2 1984   3.142   5.511   5.832
  674TIP3   OH2 1985   4.856   0.375   0.565
  674TIP3    H1 1986   4.880   0.392   0.474
  674TIP3    H2 1987   4.939   0.370   0.611
  675TIP3   OH2 1988   6.797   3.910   1.991
  675TIP3    H1 1989   6.888   3.926   2.015
  675TIP3    H2 1990   6.781   3.820   2.017
  676TIP3   OH2 1991   4.515   6.066   4.087
  676TIP3    H1 1992   4.446   6.035   4.030
  676TIP3    H2 1993   4.507   6.012   4.166
  677TIP3   OH2 1994   0.162   6.118   2.457
  677TIP3    H1 1995   0.243   6.168   2.470
  677TIP3    H2 1996   0.116   6.124   2.540
  678TIP3   OH2 1997   4.525   2.793   2.902
  678TIP3    H1 1998   4.502   2.786   2.995
  678TIP3    H2 1999   4.616   2.763   2.898
  679TIP3   OH2 2000   6.135   1.427   0.312
  679TIP3    H1 2001   6.189   1.430   0.391
  679TIP3    H2 2002   6.048   1.455   0.340
  680TIP3   OH2 2003   2.687   5.987   0.058
  680TIP3    H1 2004   2.598   6.021   0.052
  680TIP3    H2 2005   2.733   6.023  -0.017
  681TIP3   OH2 2006   0.828   5.478   1.515
  681TIP3    H1 2007   0.841   5.483   1.420
  681TIP3    H2 2008   0.847   5.387   1.537
  682TIP3   OH2 2009   3.490   2.276   4.048
  682TIP3    H1 2010   3.434   2.261   3.971
  682TIP3    H2 2011   3.547   2.199   4.051
  683TIP3   OH2 2012   0.972   3.004   4.453
  683TIP3    H1 2013   0.993   3.097   4.450
  683TIP3    H2 2014   0.950   2.982   4.362
  684TIP3   OH2 2015   2.329   2.020   3.993
  684TIP3    H1 2016   2.424   2.020   4.005
  684TIP3    H2 2017   2.316   2.010   3.899
  685TIP3   OH2 2018   1.269   2.140   1.691
  685TIP3    H1 2019   1.284   2.085   1.768
  685TIP3    H2 2020   1.215   2.086   1.633
  686TIP3   OH2 2021   0.273   1.755   1.322
  686TIP3    H1 2022   0.318   1.680   1.361
  686TIP3    H2 2023   0.321   1.832   1.355
  687TIP3   OH2 2024   2.744   5.762   3.200
  687TIP3    H1 2025   2.694   5.718   3.268
  687TIP3    H2 2026   2.821   5.707   3.186
  688TIP3   OH2 2027   6.494   3.467   4.167
  688TIP3    H1 2028   6.535   3.455   4.253
  688TIP3    H2 2029   6.556   3.426   4.106
  689TIP3   OH2 2030   4.073   4.810   5.647
  689TIP3    H1 2031   4.075   4.865   5.568
  689TIP3    H2 2032   4.165   4.788   5.663
  690TIP3   OH2 2033   4.863   0.414   3.159
  690TIP3    H1 2034   4.899   0.404   3.071
  690TIP3    H2 2035   4.769   0.424   3.146
  691TIP3   OH2 2036   3.359   3.639   1.957
  691TIP3    H1 2037   3.361   3.636   2.053
  691TIP3    H2 2038   3.437   3.690   1.934
  692TIP3   OH2 2039   5.755   1.013   4.313
  692TIP3    H1 2040   5.667   1.042   4.287
  692TIP3    H2 2041   5.740   0.950   4.383
  693TIP3   OH2 2042   4.962   5.426   5.803
  693TIP3    H1 2043   5.008   5.395   5.881
  693TIP3    H2 2044   4.980   5.521   5.801
  694TIP3   OH2 2045   2.789   5.844   0.943
  694TIP3    H1 2046   2.773   5.907   1.013
  694TIP3    H2 2047   2.806   5.899   0.866
  695TIP3   OH2 2048   5.506   5.827   3.081
  695TIP3    H1 2049   5.422   5.864   3.054
  695TIP3    H2 2050   5.535   5.884   3.153
  696TIP3   OH2 2051   3.522   2.816   5.887
  696TIP3    H1 2052   3.611   2.790   5.860
  696TIP3    H2 2053   3.464   2.760   5.834
  697TIP3   OH2 2054   6.912   2.702   3.970
  697TIP3    H1 2055   6.861   2.667   3.898
  697TIP3    H2 2056   6.892   2.645   4.044
  698TIP3   OH2 2057   5.137   1.873   4.323
  698TIP3    H1 2058   5.176   1.837   4.244
  698TIP3    H2 2059   5.044   1.882   4.303
  699TIP3   OH2 2060   3.436   4.047   2.336
  699TIP3    H1 2061   3.398   3.963   2.311
  699TIP3    H2 2062   3.529   4.027   2.352
  700TIP3   OH2 2063   1.415   0.138   1.682
  700TIP3    H1 2064   1.440   0.229   1.665
  700TIP3    H2 2065   1.365   0.142   1.764
  701TIP3   OH2 2066   6.711   1.746   2.159
  701TIP3    H1 2067   6.803   1.729   2.177
  701TIP3    H2 2068   6.667   1.663   2.177
  702TIP3   OH2 2069   6.772   5.114   0.815
  702TIP3    H1 2070   6.691   5.146   0.854
  702TIP3    H2 2071   6.745   5.053   0.747
  703TIP3   OH2 2072   4.793   1.605   0.792
  703TIP3    H1 2073   4.855   1.666   0.754
  703TIP3    H2 2074   4.722   1.660   0.827
  704TIP3   OH2 2075   3.209   6.025   3.900
  704TIP3    H1 2076   3.189   5.932   3.912
  704TIP3    H2 2077   3.298   6.035   3.934
  705TIP3   OH2 2078   3.105   5.367   2.824
  705TIP3    H1 2079   3.081   5.276   2.840
  705TIP3    H2 2080   3.069   5.386   2.737
  706TIP3   OH2 2081   0.885   4.419   2.542
  706TIP3    H1 2082   0.960   4.380   2.587
  706TIP3    H2 2083   0.821   4.349   2.537
  707TIP3   OH2 2084   0.307   0.264   0.921
  707TIP3    H1 2085   0.383   0.251   0.863
  707TIP3    H2 2086   0.238   0.293   0.862
  708TIP3   OH2 2087   6.989   2.168   5.669
  708TIP3    H1 2088   6.971   2.078   5.642
  708TIP3    H2 2089   7.061   2.195   5.612
  709TIP3   OH2 2090   3.787   1.370   4.285
  709TIP3    H1 2091   3.779   1.340   4.376
  709TIP3    H2 2092   3.879   1.394   4.275
  710TIP3   OH2 2093   7.093   5.217   4.702
  710TIP3    H1 2094   7.025   5.283   4.690
  710TIP3    H2 2095   7.058   5.159   4.770
  711TIP3   OH2 2096   4.493   5.008   2.138
  711TIP3    H1 2097   4.406   4.997   2.176
  711TIP3    H2 2098   4.535   4.923   2.147
  712TIP3   OH2 2099   1.933   4.208   5.774
  712TIP3    H1 2100   1.885   4.290   5.772
  712TIP3    H2 2101   1.914   4.166   5.691
  713TIP3   OH2 2102   0.892   4.604   3.374
  713TIP3    H1 2103   0.857   4.673   3.431
  713TIP3    H2 2104   0.823   4.588   3.310
  714TIP3   OH2 2105   6.570   5.670   1.129
  714TIP3    H1 2106   6.649   5.665   1.075
  714TIP3    H2 2107   6.545   5.762   1.126
  715TIP3   OH2 2108   5.574   2.226   3.617
  715TIP3    H1 2109   5.522   2.146   3.614
  715TIP3    H2 2110   5.664   2.197   3.625
  716TIP3   OH2 2111   6.615   0.056   5.048
  716TIP3    H1 2112   6.667   0.003   5.109
  716TIP3    H2 2113   6.680   0.110   5.002
  717TIP3   OH2 2114   4.574   2.214   0.385
  717TIP3    H1 2115   4.593   2.240   0.294
  717TIP3    H2 2116   4.562   2.119   0.381
  718TIP3   OH2 2117   0.468   3.647   4.829
  718TIP3    H1 2118   0.522   3.568   4.823
  718TIP3    H2 2119   0.521   3.708   4.880
  719TIP3   OH2 2120   3.080   3.285   5.856
  719TIP3    H1 2121   3.142   3.221   5.823
  719TIP3    H2 2122   2.998   3.237   5.865
  720TIP3   OH2 2123   2.876   0.711   0.945
  720TIP3    H1 2124   2.786   0.693   0.918
  720TIP3    H2 2125   2.885   0.669   1.030
  721TIP3   OH2 2126   1.811   3.822   2.873
  721TIP3    H1 2127   1.873   3.868   2.929
  721TIP3    H2 2128   1.770   3.757   2.931
  722TIP3   OH2 2129   0.760   3.513   2.899
  722TIP3    H1 2130   0.835   3.549   2.851
  722TIP3    H2 2131   0.738   3.432   2.852
  723TIP3   OH2 2132   4.504   5.905   4.661
  723TIP3    H1 2133   4.462   5.966   4.722
  723TIP3    H2 2134   4.593   5.938   4.651
  724TIP3   OH2 2135   3.516   0.519   0.073
  724TIP3    H1 2136   3.534   0.430   0.105
  724TIP3    H2 2137   3.475   0.506  -0.012
  725TIP3   OH2 2138   1.616   1.997   1.996
  725TIP3    H1 2139   1.661   1.994   1.911
  725TIP3    H2 2140   1.652   1.924   2.045
  726TIP3   OH2 2141   5.908   4.799   4.470
  726TIP3    H1 2142   5.989   4.822   4.424
  726TIP3    H2 2143   5.874   4.724   4.423
  727TIP3   OH2 2144   3.856   1.028   4.950
  727TIP3    H1 2145   3.893   1.024   5.039
  727TIP3    H2 2146   3.762   1.017   4.963
  728TIP3   OH2 2147   3.066   2.519   5.705
  728TIP3    H1 2148   2.996   2.567   5.660
  728TIP3    H2 2149   3.024   2.439   5.736
  729TIP3   OH2 2150   4.116   0.345   0.307
  729TIP3    H1 2151   4.085   0.323   0.395
  729TIP3    H2 2152   4.122   0.262   0.261
  730TIP3   OH2 2153   1.270   0.239   0.522
  730TIP3    H1 2154   1.216   0.317   0.509
  730TIP3    H2 2155   1.324   0.259   0.598
  731TIP3   OH2 2156   4.266   3.847   1.136
  731TIP3    H1 2157   4.224   3.793   1.202
  731TIP3    H2 2158   4.324   3.787   1.089
  732TIP3   OH2 2159   5.105   1.035   2.352
  732TIP3    H1 2160   5.178   1.043   2.291
  732TIP3    H2 2161   5.027   1.042   2.297
  733TIP3   OH2 2162   5.855   6.026   3.312
  733TIP3    H1 2163   5.804   6.085   3.256
  733TIP3    H2 2164   5.946   6.040   3.286
  734TIP3   OH2 2165   2.591   0.730   5.616
  734TIP3    H1 2166   2.602   0.647   5.570
  734TIP3    H2 2167   2.665   0.734   5.677
  735TIP3   OH2 2168   0.927   1.208   2.317
  735TIP3    H1 2169   0.832   1.209   2.317
  735TIP3    H2 2170   0.951   1.163   2.397
  736TIP3   OH2 2171   3.612   1.687   0.602
  736TIP3    H1 2172   3.531   1.688   0.653
  736TIP3    H2 2173   3.642   1.596   0.606
  737TIP3   OH2 2174   5.000   5.019   3.961
  737TIP3    H1 2175   4.937   5.024   3.889
  737TIP3    H2 2176   5.056   5.096   3.949
  738TIP3   OH2 2177   0.582   5.914   1.520
  738TIP3    H1 2178   0.671   5.910   1.484
  738TIP3    H2 2179   0.583   5.990   1.578
  739TIP3   OH2 2180   2.291   1.969   2.134
  739TIP3    H1 2181   2.356   1.900   2.126
  739TIP3    H2 2182   2.216   1.927   2.177
  740TIP3   OH2 2183   2.540   5.524   5.415
  740TIP3    H1 2184   2.478   5.453   5.433
  740TIP3    H2 2185   2.556   5.563   5.501
  741TIP3   OH2 2186   6.829   3.554   4.713
  741TIP3    H1 2187   6.877   3.595   4.786
  741TIP3    H2 2188   6.815   3.625   4.651
  742TIP3   OH2 2189   5.467   0.160   0.877
  742TIP3    H1 2190   5.525   0.103   0.928
  742TIP3    H2 2191   5.525   0.226   0.840
  743TIP3   OH2 2192   0.944   6.563   2.163
  743TIP3    H1 2193   0.899   6.487   2.200
  743TIP3    H2 2194   1.010   6.587   2.228
  744TIP3   OH2 2195   6.426   2.728   2.514
  744TIP3    H1 2196   6.449   2.786   2.586
  744TIP3    H2 2197   6.416   2.787   2.439
  745TIP3   OH2 2198   6.668   3.914   1.369
  745TIP3    H1 2199   6.602   3.849   1.346
  745TIP3    H2 2200   6.671   3.973   1.294
  746TIP3   OH2 2201   3.090   4.746   2.092
  746TIP3    H1 2202   3.135   4.828   2.073
  746TIP3    H2 2203   3.056   4.718   2.007
  747TIP3   OH2 2204   1.904   3.134   5.415
  747TIP3    H1 2205   1.862   3.071   5.357
  747TIP3    H2 2206   1.996   3.109   5.415
  748TIP3   OH2 2207   1.885   1.624   2.277
  748TIP3    H1 2208   1.885   1.667   2.362
  748TIP3    H2 2209   1.808   1.567   2.278
  749TIP3   OH2 2210   0.707   4.398   1.522
  749TIP3    H1 2211   0.767   4.333   1.560
  749TIP3    H2 2212   0.731   4.402   1.430
  750TIP3   OH2 2213   4.284   5.997   3.960
  750TIP3    H1 2214   4.194   6.008   3.991
  750TIP3    H2 2215   4.276   5.951   3.876
  751TIP3   OH2 2216   6.057   5.372   2.318
  751TIP3    H1 2217   6.036   5.457   2.358
  751TIP3    H2 2218   6.127   5.393   2.256
  752TIP3   OH2 2219   2.934   6.652   4.965
  752TIP3    H1 2220   2.989   6.607   4.901
  752TIP3    H2 2221   2.952   6.608   5.048
  753TIP3   OH2 2222   3.636   0.719   5.322
  753TIP3    H1 2223   3.691   0.797   5.329
  753TIP3    H2 2224   3.647   0.675   5.407
  754TIP3   OH2 2225   6.003   6.117   0.819
  754TIP3    H1 2226   6.035   6.029   0.799
  754TIP3    H2 2227   5.989   6.158   0.734
  755TIP3   OH2 2228   5.135   0.388   4.673
  755TIP3    H1 2229   5.221   0.427   4.662
  755TIP3    H2 2230   5.141   0.303   4.629
  756TIP3   OH2 2231   0.589   5.392   2.731
  756TIP3    H1 2232   0.560   5.373   2.642
  756TIP3    H2 2233   0.558   5.481   2.748
  757TIP3   OH2 2234   5.375   6.040   4.766
  757TIP3    H1 2235   5.326   5.982   4.824
  757TIP3    H2 2236   5.444   6.076   4.822
  758TIP3   OH2 2237   4.699   1.371   0.447
  758TIP3    H1 2238   4.761   1.325   0.503
  758TIP3    H2 2239   4.737   1.366   0.359
  759TIP3   OH2 2240   3.519   2.832   0.066
  759TIP3    H1 2241   3.606   2.866   0.085
  759TIP3    H2 2242   3.469   2.848   0.147
  760TIP3   OH2 2243   2.470   0.440   5.767
  760TIP3    H1 2244   2.416   0.367   5.796
  760TIP3    H2 2245   2.414   0.490   5.707
  761TIP3   OH2 2246   2.750   3.385   4.013
  761TIP3    H1 2247   2.728   3.445   3.943
  761TIP3    H2 2248   2.754   3.299   3.971
  762TIP3   OH2 2249   1.420   5.763   4.562
  762TIP3    H1 2250   1.356   5.805   4.619
  762TIP3    H2 2251   1.481   5.720   4.622
  763TIP3   OH2 2252   4.873   3.958   2.575
  763TIP3    H1 2253   4.876   3.946   2.480
  763TIP3    H2 2254   4.870   4.053   2.586
  764TIP3   OH2 2255   2.984   0.240   1.140
  764TIP3    H1 2256   2.937   0.165   1.176
  764TIP3    H2 2257   2.915   0.300   1.111
  765TIP3   OH2 2258   4.778   1.480   2.704
  765TIP3    H1 2259   4.868   1.451   2.704
  765TIP3    H2 2260   4.773   1.542   2.777
  766TIP3   OH2 2261   0.526   5.432   3.698
  766TIP3    H1 2262   0.560   5.343   3.702
  766TIP3    H2 2263   0.537   5.466   3.787
  767TIP3   OH2 2264   5.065   3.354   2.547
  767TIP3    H1 2265   5.039   3.320   2.633
  767TIP3    H2 2266   5.156   3.326   2.536
  768TIP3   OH2 2267   1.240   1.443   1.030
  768TIP3    H1 2268   1.265   1.446   0.937
  768TIP3    H2 2269   1.308   1.495   1.074
  769TIP3   OH2 2270   4.587   3.111   0.907
  769TIP3    H1 2271   4.588   3.098   1.002
  769TIP3    H2 2272   4.536   3.191   0.894
  770TIP3   OH2 2273   0.551   0.903   0.830
  770TIP3    H1 2274   0.529   0.923   0.739
  770TIP3    H2 2275   0.582   0.812   0.828
  771TIP3   OH2 2276   3.380   3.297   5.113
  771TIP3    H1 2277   3.382   3.214   5.065
  771TIP3    H2 2278   3.301   3.293   5.166
  772TIP3   OH2 2279   2.920   6.371   3.914
  772TIP3    H1 2280   2.867   6.419   3.851
  772TIP3    H2 2281   2.985   6.325   3.861
  773TIP3   OH2 2282   1.818   6.008   1.082
  773TIP3    H1 2283   1.809   6.102   1.069
  773TIP3    H2 2284   1.832   5.998   1.176
  774TIP3   OH2 2285   4.702   2.788   4.097
  774TIP3    H1 2286   4.628   2.742   4.136
  774TIP3    H2 2287   4.664   2.868   4.061
  775TIP3   OH2 2288   1.106   4.916   1.547
  775TIP3    H1 2289   1.061   5.001   1.545
  775TIP3    H2 2290   1.148   4.913   1.633
  776TIP3   OH2 2291   5.661   2.938   2.770
  776TIP3    H1 2292   5.574   2.976   2.753
  776TIP3    H2 2293   5.694   2.915   2.684
  777TIP3   OH2 2294   6.322   5.720   4.362
  777TIP3    H1 2295   6.398   5.737   4.306
  777TIP3    H2 2296   6.251   5.700   4.300
  778TIP3   OH2 2297   2.369   4.537   4.005
  778TIP3    H1 2298   2.343   4.470   4.068
  778TIP3    H2 2299   2.358   4.619   4.052
  779TIP3   OH2 2300   1.827   6.780   4.911
  779TIP3    H1 2301   1.855   6.759   4.822
  779TIP3    H2 2302   1.843   6.700   4.960
  780TIP3   OH2 2303   2.340   5.014   1.972
  780TIP3    H1 2304   2.373   5.103   1.986
  780TIP3    H2 2305   2.416   4.958   1.989
  781TIP3   OH2 2306   2.773   1.134   1.880
  781TIP3    H1 2307   2.861   1.163   1.854
  781TIP3    H2 2308   2.788   1.052   1.927
  782TIP3   OH2 2309   5.215   4.297   2.330
  782TIP3    H1 2310   5.245   4.281   2.240
  782TIP3    H2 2311   5.119   4.299   2.322
  783TIP3   OH2 2312   2.114   2.197   0.514
  783TIP3    H1 2313   2.172   2.164   0.582
  783TIP3    H2 2314   2.168   2.197   0.435
  784TIP3   OH2 2315   2.984   4.496   2.593
  784TIP3    H1 2316   2.949   4.412   2.564
  784TIP3    H2 2317   3.035   4.528   2.518
  785TIP3   OH2 2318   5.399   5.984   1.083
  785TIP3    H1 2319   5.356   6.049   1.028
  785TIP3    H2 2320   5.450   5.931   1.021
  786TIP3   OH2 2321   3.493   2.887   4.345
  786TIP3    H1 2322   3.499   2.973   4.303
  786TIP3    H2 2323   3.400   2.864   4.338
  787TIP3   OH2 2324   3.834   3.403   5.213
  787TIP3    H1 2325   3.750   3.431   5.177
  787TIP3    H2 2326   3.870   3.345   5.146
  788TIP3   OH2 2327   1.013   6.653   5.790
  788TIP3    H1 2328   1.019   6.663   5.695
  788TIP3    H2 2329   1.029   6.560   5.805
  789TIP3   OH2 2330   1.535   3.747   3.431
  789TIP3    H1 2331   1.449   3.788   3.439
  789TIP3    H2 2332   1.540   3.687   3.506
  790TIP3   OH2 2333   0.588   0.503   4.666
  790TIP3    H1 2334   0.591   0.597   4.684
  790TIP3    H2 2335   0.566   0.498   4.573
  791TIP3   OH2 2336   7.131   0.979   1.060
  791TIP3    H1 2337   7.101   0.888   1.066
  791TIP3    H2 2338   7.077   1.026   1.124
  792TIP3   OH2 2339   4.730   2.849   3.404
  792TIP3    H1 2340   4.773   2.934   3.390
  792TIP3    H2 2341   4.755   2.824   3.493
  793TIP3   OH2 2342   5.315   3.252   1.389
  793TIP3    H1 2343   5.398   3.278   1.348
  793TIP3    H2 2344   5.340   3.185   1.453
  794TIP3   OH2 2345   4.027   4.321   4.183
  794TIP3    H1 2346   4.024   4.416   4.175
  794TIP3    H2 2347   4.115   4.302   4.215
  795TIP3   OH2 2348   5.265   3.834   1.654
  795TIP3    H1 2349   5.314   3.752   1.663
  795TIP3    H2 2350   5.258   3.868   1.744
  796TIP3   OH2 2351   1.418   5.837   1.537
  796TIP3    H1 2352   1.372   5.898   1.480
  796TIP3    H2 2353   1.350   5.775   1.566
  797TIP3   OH2 2354   1.450   5.582   0.750
  797TIP3    H1 2355   1.452   5.561   0.844
  797TIP3    H2 2356   1.444   5.496   0.707
  798TIP3   OH2 2357   2.624   5.269   1.270
  798TIP3    H1 2358   2.649   5.305   1.185
  798TIP3    H2 2359   2.655   5.179   1.269
  799TIP3   OH2 2360   3.326   3.093   1.306
  799TIP3    H1 2361   3.326   3.189   1.310
  799TIP3    H2 2362   3.247   3.068   1.354
  800TIP3   OH2 2363   4.360   6.220   3.117
  800TIP3    H1 2364   4.318   6.306   3.112
  800TIP3    H2 2365   4.452   6.238   3.096
  801TIP3   OH2 2366   2.720   1.401   3.771
  801TIP3    H1 2367   2.762   1.329   3.817
  801TIP3    H2 2368   2.665   1.443   3.837
  802TIP3   OH2 2369   5.726   0.132   3.944
  802TIP3    H1 2370   5.713   0.157   4.035
  802TIP3    H2 2371   5.669   0.191   3.894
  803TIP3   OH2 2372   6.854   1.550   3.664
  803TIP3    H1 2373   6.913   1.604   3.717
  803TIP3    H2 2374   6.767   1.586   3.680
  804TIP3   OH2 2375   5.441   1.202   4.625
  804TIP3    H1 2376   5.444   1.145   4.702
  804TIP3    H2 2377   5.455   1.290   4.661
  805TIP3   OH2 2378   4.397   5.358   4.988
  805TIP3    H1 2379   4.399   5.423   4.917
  805TIP3    H2 2380   4.349   5.402   5.059
  806TIP3   OH2 2381   6.268   0.554   2.708
  806TIP3    H1 2382   6.245   0.576   2.798
  806TIP3    H2 2383   6.184   0.540   2.665
  807TIP3   OH2 2384   5.100   2.182   3.086
  807TIP3    H1 2385   5.092   2.098   3.041
  807TIP3    H2 2386   5.182   2.220   3.052
  808TIP3   OH2 2387   4.508   0.146   3.838
  808TIP3    H1 2388   4.569   0.156   3.911
  808TIP3    H2 2389   4.439   0.090   3.872
  809TIP3   OH2 2390   5.684   6.650   0.597
  809TIP3    H1 2391   5.605   6.618   0.555
  809TIP3    H2 2392   5.755   6.626   0.537
  810TIP3   OH2 2393   4.044   3.892   0.057
  810TIP3    H1 2394   4.051   3.899  -0.038
  810TIP3    H2 2395   3.959   3.932   0.078
  811TIP3   OH2 2396   2.756   1.438   0.171
  811TIP3    H1 2397   2.821   1.378   0.206
  811TIP3    H2 2398   2.784   1.525   0.200
  812TIP3   OH2 2399   5.516   4.076   0.109
  812TIP3    H1 2400   5.600   4.094   0.068
  812TIP3    H2 2401   5.473   4.014   0.051
  813TIP3   OH2 2402   5.339   0.096   5.217
  813TIP3    H1 2403   5.274   0.026   5.205
  813TIP3    H2 2404   5.407   0.056   5.273
  814TIP3   OH2 2405   3.448   4.834   2.082
  814TIP3    H1 2406   3.442   4.829   2.177
  814TIP3    H2 2407   3.539   4.809   2.062
  815TIP3   OH2 2408   0.358   6.442   0.069
  815TIP3    H1 2409   0.392   6.429   0.157
  815TIP3    H2 2410   0.402   6.376   0.016
  816TIP3   OH2 2411   7.030   4.247   2.014
  816TIP3    H1 2412   7.007   4.337   1.990
  816TIP3    H2 2413   7.024   4.198   1.932
  817TIP3   OH2 2414   7.066   1.988   5.321
  817TIP3    H1 2415   7.081   1.902   5.282
  817TIP3    H2 2416   7.071   1.973   5.415
  818TIP3   OH2 2417   3.053   1.936   3.443
  818TIP3    H1 2418   3.139   1.906   3.473
  818TIP3    H2 2419   2.991   1.881   3.491
  819TIP3   OH2 2420   6.759   4.223   5.551
  819TIP3    H1 2421   6.808   4.281   5.609
  819TIP3    H2 2422   6.802   4.138   5.558
  820TIP3   OH2 2423   1.341   5.647   2.874
  820TIP3    H1 2424   1.322   5.615   2.962
  820TIP3    H2 2425   1.413   5.592   2.843
  821TIP3   OH2 2426   0.503   0.269   3.923
  821TIP3    H1 2427   0.439   0.298   3.858
  821TIP3    H2 2428   0.491   0.174   3.929
  822TIP3   OH2 2429   3.147   3.800   4.272
  822TIP3    H1 2430   3.128   3.789   4.179
  822TIP3    H2 2431   3.106   3.725   4.314
  823TIP3   OH2 2432   1.171   1.453   5.057
  823TIP3    H1 2433   1.171   1.381   4.994
  823TIP3    H2 2434   1.162   1.410   5.142
  824TIP3   OH2 2435   4.532   0.659   1.734
  824TIP3    H1 2436   4.519   0.728   1.799
  824TIP3    H2 2437   4.625   0.665   1.711
  825TIP3   OH2 2438   2.109   4.484   3.133
  825TIP3    H1 2439   2.087   4.504   3.042
  825TIP3    H2 2440   2.024   4.471   3.176
  826TIP3   OH2 2441   3.462   1.633   3.660
  826TIP3    H1 2442   3.544   1.652   3.706
  826TIP3    H2 2443   3.409   1.586   3.725
  827TIP3   OH2 2444   2.847   3.037   3.227
  827TIP3    H1 2445   2.786   3.077   3.289
  827TIP3    H2 2446   2.792   2.988   3.166
  828TIP3   OH2 2447   0.376   2.694   0.957
  828TIP3    H1 2448   0.334   2.774   0.925
  828TIP3    H2 2449   0.467   2.719   0.972
  829TIP3   OH2 2450   6.852   0.184   5.085
  829TIP3    H1 2451   6.904   0.251   5.041
  829TIP3    H2 2452   6.830   0.223   5.169
  830TIP3   OH2 2453   3.454   4.793   5.388
  830TIP3    H1 2454   3.456   4.884   5.358
  830TIP3    H2 2455   3.413   4.746   5.316
  831TIP3   OH2 2456   0.496   3.371   0.442
  831TIP3    H1 2457   0.570   3.398   0.496
  831TIP3    H2 2458   0.531   3.300   0.388
  832TIP3   OH2 2459   2.800   4.646   0.860
  832TIP3    H1 2460   2.847   4.721   0.824
  832TIP3    H2 2461   2.857   4.613   0.930
  833TIP3   OH2 2462   7.175   0.149   5.071
  833TIP3    H1 2463   7.218   0.101   5.000
  833TIP3    H2 2464   7.194   0.241   5.052
  834TIP3   OH2 2465   2.147   1.831   2.645
  834TIP3    H1 2466   2.207   1.899   2.674
  834TIP3    H2 2467   2.202   1.771   2.594
  835TIP3   OH2 2468   0.786   4.182   4.635
  835TIP3    H1 2469   0.775   4.241   4.709
  835TIP3    H2 2470   0.839   4.110   4.669
  836TIP3   OH2 2471   2.632   0.563   3.866
  836TIP3    H1 2472   2.601   0.549   3.776
  836TIP3    H2 2473   2.671   0.651   3.864
  837TIP3   OH2 2474   6.503   6.004   1.729
  837TIP3    H1 2475   6.423   5.970   1.772
  837TIP3    H2 2476   6.570   5.999   1.797
  838TIP3   OH2 2477   1.753   3.467   0.746
  838TIP3    H1 2478   1.717   3.445   0.660
  838TIP3    H2 2479   1.680   3.510   0.792
  839TIP3   OH2 2480   5.241   0.181   2.853
  839TIP3    H1 2481   5.311   0.242   2.876
  839TIP3    H2 2482   5.274   0.135   2.776
  840TIP3   OH2 2483   5.831   5.257   5.443
  840TIP3    H1 2484   5.851   5.197   5.371
  840TIP3    H2 2485   5.870   5.215   5.520
  841TIP3   OH2 2486   1.463   2.099   4.303
  841TIP3    H1 2487   1.530   2.071   4.365
  841TIP3    H2 2488   1.512   2.135   4.229
  842TIP3   OH2 2489   1.673   5.539   3.266
  842TIP3    H1 2490   1.734   5.587   3.322
  842TIP3    H2 2491   1.588   5.547   3.311
  843TIP3   OH2 2492   5.364   0.753   3.245
  843TIP3    H1 2493   5.304   0.735   3.317
  843TIP3    H2 2494   5.451   0.736   3.281
  844TIP3   OH2 2495   5.399   2.665   1.048
  844TIP3    H1 2496   5.477   2.627   1.006
  844TIP3    H2 2497   5.344   2.589   1.068
  845TIP3   OH2 2498   2.774   1.161   2.284
  845TIP3    H1 2499   2.836   1.088   2.282
  845TIP3    H2 2500   2.693   1.125   2.247
  846TIP3   OH2 2501   6.524   5.925   1.283
  846TIP3    H1 2502   6.618   5.909   1.289
  846TIP3    H2 2503   6.488   5.882   1.361
  847TIP3   OH2 2504   0.554   2.073   0.361
  847TIP3    H1 2505   0.499   2.119   0.297
  847TIP3    H2 2506   0.619   2.028   0.308
  848TIP3   OH2 2507   3.626   4.230   5.705
  848TIP3    H1 2508   3.680   4.282   5.645
  848TIP3    H2 2509   3.568   4.180   5.648
  849TIP3   OH2 2510   0.020   6.612   3.784
  849TIP3    H1 2511  -0.025   6.576   3.860
  849TIP3    H2 2512   0.050   6.535   3.735
  850TIP3   OH2 2513   5.090   1.921   2.160
  850TIP3    H1 2514   5.092   2.017   2.163
  850TIP3    H2 2515   5.182   1.896   2.153
  851TIP3   OH2 2516   2.029   0.908   5.588
  851TIP3    H1 2517   2.067   0.842   5.530
  851TIP3    H2 2518   1.938   0.881   5.599
  852TIP3   OH2 2519   6.442   3.425   3.694
  852TIP3    H1 2520   6.400   3.396   3.613
  852TIP3    H2 2521   6.536   3.411   3.679
  853TIP3   OH2 2522   5.680   4.689   0.643
  853TIP3    H1 2523   5.703   4.743   0.567
  853TIP3    H2 2524   5.658   4.603   0.605
  854TIP3   OH2 2525   2.788   4.390   1.486
  854TIP3    H1 2526   2.753   4.479   1.480
  854TIP3    H2 2527   2.822   4.372   1.398
  855TIP3   OH2 2528   0.377   1.342   2.128
  855TIP3    H1 2529   0.320   1.353   2.052
  855TIP3    H2 2530   0.460   1.381   2.101
  856TIP3   OH2 2531   6.254   0.381   4.182
  856TIP3    H1 2532   6.277   0.473   4.170
  856TIP3    H2 2533   6.162   0.375   4.159
  857TIP3   OH2 2534   0.327   0.294   3.653
  857TIP3    H1 2535   0.396   0.236   3.619
  857TIP3    H2 2536   0.264   0.234   3.693
  858TIP3   OH2 2537   5.352   1.817   3.826
  858TIP3    H1 2538   5.440   1.779   3.824
  858TIP3    H2 2539   5.293   1.744   3.807
  859TIP3   OH2 2540   6.478   6.324   2.806
  859TIP3    H1 2541   6.554   6.268   2.825
  859TIP3    H2 2542   6.456   6.304   2.715
  860TIP3   OH2 2543   5.103   5.325   5.253
  860TIP3    H1 2544   5.166   5.264   5.214
  860TIP3    H2 2545   5.028   5.271   5.276
  861TIP3   OH2 2546   4.236   5.243   5.803
  861TIP3    H1 2547   4.223   5.311   5.869
  861TIP3    H2 2548   4.294   5.283   5.738
  862TIP3   OH2 2549   0.367   5.674   0.176
  862TIP3    H1 2550   0.333   5.585   0.163
  862TIP3    H2 2551   0.290   5.727   0.197
  863TIP3   OH2 2552   0.323   5.853   0.454
  863TIP3    H1 2553   0.251   5.865   0.516
  863TIP3    H2 2554   0.298   5.776   0.403
  864TIP3   OH2 2555   5.320   4.896   1.041
  864TIP3    H1 2556   5.262   4.925   1.111
  864TIP3    H2 2557   5.341   4.806   1.062
  865TIP3   OH2 2558   0.275   5.468   1.845
  865TIP3    H1 2559   0.181   5.481   1.832
  865TIP3    H2 2560   0.300   5.404   1.779
  866TIP3   OH2 2561   3.499   5.551   2.222
  866TIP3    H1 2562   3.437   5.560   2.294
  866TIP3    H2 2563   3.445   5.545   2.144
  867TIP3   OH2 2564   1.637   3.976   0.435
  867TIP3    H1 2565   1.590   4.058   0.418
  867TIP3    H2 2566   1.667   3.984   0.526
  868TIP3   OH2 2567   3.078   4.444   3.702
  868TIP3    H1 2568   2.989   4.421   3.729
  868TIP3    H2 2569   3.066   4.518   3.642
  869TIP3   OH2 2570   2.381   4.531   5.040
  869TIP3    H1 2571   2.367   4.626   5.042
  869TIP3    H2 2572   2.294   4.494   5.028
  870TIP3   OH2 2573   6.015   5.726   4.450
  870TIP3    H1 2574   6.076   5.792   4.416
  870TIP3    H2 2575   6.033   5.648   4.398
  871TIP3   OH2 2576   1.159   3.556   5.470
  871TIP3    H1 2577   1.213   3.481   5.446
  871TIP3    H2 2578   1.084   3.552   5.412
  872TIP3   OH2 2579   3.910   6.442   1.332
  872TIP3    H1 2580   3.985   6.400   1.289
  872TIP3    H2 2581   3.839   6.379   1.323
  873TIP3   OH2 2582   4.063   0.078   0.198
  873TIP3    H1 2583   3.973   0.050   0.182
  873TIP3    H2 2584   4.090   0.030   0.276
  874TIP3   OH2 2585   5.479   2.879   3.167
  874TIP3    H1 2586   5.526   2.821   3.107
  874TIP3    H2 2587   5.447   2.820   3.235
  875TIP3   OH2 2588   3.262   2.495   5.369
  875TIP3    H1 2589   3.267   2.436   5.295
  875TIP3    H2 2590   3.331   2.560   5.354
  876TIP3   OH2 2591   7.036   3.795   1.424
  876TIP3    H1 2592   6.969   3.859   1.447
  876TIP3    H2 2593   7.117   3.846   1.420
  877TIP3   OH2 2594   0.029   6.700   0.768
  877TIP3    H1 2595   0.073   6.717   0.685
  877TIP3    H2 2596   0.097   6.711   0.835
  878TIP3   OH2 2597   3.204   0.972   5.362
  878TIP3    H1 2598   3.264   0.900   5.341
  878TIP3    H2 2599   3.182   0.959   5.454
  879TIP3   OH2 2600   2.860   5.403   2.273
  879TIP3    H1 2601   2.954   5.401   2.260
  879TIP3    H2 2602   2.845   5.350   2.351
  880TIP3   OH2 2603   3.477   1.631   4.874
  880TIP3    H1 2604   3.514   1.545   4.851
  880TIP3    H2 2605   3.472   1.630   4.970
  881TIP3   OH2 2606   5.621   1.723   3.820
  881TIP3    H1 2607   5.698   1.694   3.770
  881TIP3    H2 2608   5.645   1.809   3.853
  882TIP3   OH2 2609   6.934   4.920   0.368
  882TIP3    H1 2610   6.856   4.953   0.413
  882TIP3    H2 2611   6.921   4.946   0.276
  883TIP3   OH2 2612   2.051   0.662   0.076
  883TIP3    H1 2613   2.143   0.665   0.104
  883TIP3    H2 2614   2.017   0.584   0.119
  884TIP3   OH2 2615   0.959   6.229   5.645
  884TIP3    H1 2616   0.912   6.281   5.581
  884TIP3    H2 2617   1.009   6.166   5.593
  885TIP3   OH2 2618   6.263   1.168   4.653
  885TIP3    H1 2619   6.268   1.168   4.558
  885TIP3    H2 2620   6.293   1.081   4.679
  886TIP3   OH2 2621   0.411   5.488   2.217
  886TIP3    H1 2622   0.500   5.517   2.197
  886TIP3    H2 2623   0.364   5.568   2.241
  887TIP3   OH2 2624   5.173   3.622   1.900
  887TIP3    H1 2625   5.200   3.691   1.960
  887TIP3    H2 2626   5.253   3.599   1.853
  888TIP3   OH2 2627   2.671   3.273   3.350
  888TIP3    H1 2628   2.683   3.365   3.375
  888TIP3    H2 2629   2.686   3.224   3.430
  889TIP3   OH2 2630   1.758   0.966   0.748
  889TIP3    H1 2631   1.778   0.976   0.841
  889TIP3    H2 2632   1.674   0.919   0.746
  890TIP3   OH2 2633   4.826   3.083   5.483
  890TIP3    H1 2634   4.732   3.072   5.495
  890TIP3    H2 2635   4.847   3.165   5.528
  891TIP3   OH2 2636   2.384   6.186   4.944
  891TIP3    H1 2637   2.371   6.222   4.856
  891TIP3    H2 2638   2.376   6.261   5.003
  892TIP3   OH2 2639   0.860   5.415   2.487
  892TIP3    H1 2640   0.796   5.345   2.473
  892TIP3    H2 2641   0.942   5.379   2.456
  893TIP3   OH2 2642   3.968   1.411   5.742
  893TIP3    H1 2643   3.918   1.378   5.667
  893TIP3    H2 2644   3.905   1.414   5.813
  894TIP3   OH2 2645   6.695   3.635   3.863
  894TIP3    H1 2646   6.673   3.550   3.901
  894TIP3    H2 2647   6.741   3.614   3.782
  895TIP3   OH2 2648   7.071   4.114   1.718
  895TIP3    H1 2649   6.996   4.138   1.664
  895TIP3    H2 2650   7.146   4.154   1.674
  896TIP3   OH2 2651   1.923   5.464   0.310
  896TIP3    H1 2652   1.898   5.396   0.373
  896TIP3    H2 2653   1.894   5.546   0.350
  897TIP3   OH2 2654   2.101   2.836   4.562
  897TIP3    H1 2655   2.148   2.849   4.480
  897TIP3    H2 2656   2.017   2.881   4.549
  898TIP3   OH2 2657   5.987   0.318   3.254
  898TIP3    H1 2658   5.960   0.229   3.278
  898TIP3    H2 2659   6.030   0.352   3.332
  899TIP3   OH2 2660   4.462   6.192   5.853
  899TIP3    H1 2661   4.514   6.180   5.932
  899TIP3    H2 2662   4.386   6.243   5.881
  900TIP3   OH2 2663   1.079   3.825   4.020
  900TIP3    H1 2664   1.044   3.908   3.990
  900TIP3    H2 2665   1.113   3.783   3.941
  901TIP3   OH2 2666   5.993   5.868   1.917
  901TIP3    H1 2667   5.985   5.953   1.873
  901TIP3    H2 2668   5.902   5.839   1.930
  902TIP3   OH2 2669   5.364   3.282   1.013
  902TIP3    H1 2670   5.304   3.210   0.996
  902TIP3    H2 2671   5.310   3.348   1.057
  903TIP3   OH2 2672   4.102   5.435   5.174
  903TIP3    H1 2673   4.038   5.364   5.181
  903TIP3    H2 2674   4.086   5.473   5.088
  904TIP3   OH2 2675   4.455   1.231   0.510
  904TIP3    H1 2676   4.485   1.238   0.419
  904TIP3    H2 2677   4.475   1.317   0.548
  905TIP3   OH2 2678   2.328   5.291   1.949
  905TIP3    H1 2679   2.339   5.310   2.042
  905TIP3    H2 2680   2.311   5.376   1.908
  906TIP3   OH2 2681   3.107   5.951   0.851
  906TIP3    H1 2682   3.077   5.955   0.942
  906TIP3    H2 2683   3.172   5.880   0.850
  907TIP3   OH2 2684   4.139   2.465   2.333
  907TIP3    H1 2685   4.166   2.373   2.343
  907TIP3    H2 2686   4.058   2.461   2.282
  908TIP3   OH2 2687   5.743   3.835   0.326
  908TIP3    H1 2688   5.787   3.772   0.384
  908TIP3    H2 2689   5.674   3.874   0.380
  909TIP3   OH2 2690   4.267   2.706   4.718
  909TIP3    H1 2691   4.347   2.653   4.709
  909TIP3    H2 2692   4.212   2.679   4.645
  910TIP3   OH2 2693   6.929   4.920   5.314
  910TIP3    H1 2694   6.896   4.996   5.266
  910TIP3    H2 2695   6.888   4.927   5.401
  911TIP3   OH2 2696   4.707   1.932   5.504
  911TIP3    H1 2697   4.669   1.925   5.416
  911TIP3    H2 2698   4.725   1.842   5.529
  912TIP3   OH2 2699   3.444   3.886   1.551
  912TIP3    H1 2700   3.470   3.928   1.468
  912TIP3    H2 2701   3.350   3.874   1.543
  913TIP3   OH2 2702   4.316   2.339   5.645
  913TIP3    H1 2703   4.344   2.304   5.560
  913TIP3    H2 2704   4.377   2.300   5.707
  914TIP3   OH2 2705   0.800   4.855   5.519
  914TIP3    H1 2706   0.736   4.881   5.452
  914TIP3    H2 2707   0.777   4.764   5.538
  915TIP3   OH2 2708   1.058   1.738   2.594
  915TIP3    H1 2709   1.019   1.673   2.535
  915TIP3    H2 2710   1.152   1.720   2.590
  916TIP3   OH2 2711   3.816   2.801   4.741
  916TIP3    H1 2712   3.790   2.726   4.795
  916TIP3    H2 2713   3.824   2.765   4.653
  917TIP3   OH2 2714   0.208   3.230   3.297
  917TIP3    H1 2715   0.219   3.284   3.376
  917TIP3    H2 2716   0.116   3.206   3.298
  918TIP3   OH2 2717   0.480   1.059   5.748
  918TIP3    H1 2718   0.457   1.069   5.841
  918TIP3    H2 2719   0.420   1.118   5.702
  919TIP3   OH2 2720   4.620   4.796   5.676
  919TIP3    H1 2721   4.630   4.890   5.696
  919TIP3    H2 2722   4.618   4.754   5.762
  920TIP3   OH2 2723   1.465   4.190   3.856
  920TIP3    H1 2724   1.456   4.262   3.793
  920TIP3    H2 2725   1.508   4.230   3.932
  921TIP3   OH2 2726   0.950   4.671   2.952
  921TIP3    H1 2727   0.859   4.641   2.941
  921TIP3    H2 2728   0.999   4.592   2.974
  922TIP3   OH2 2729   0.282   4.018   2.652
  922TIP3    H1 2730   0.225   3.961   2.704
  922TIP3    H2 2731   0.290   3.973   2.568
  923TIP3   OH2 2732   2.514   3.562   2.721
  923TIP3    H1 2733   2.513   3.609   2.805
  923TIP3    H2 2734   2.470   3.479   2.740
  924TIP3   OH2 2735   6.075   0.776   1.695
  924TIP3    H1 2736   6.161   0.814   1.714
  924TIP3    H2 2737   6.091   0.683   1.685
  925TIP3   OH2 2738   1.584   4.310   4.077
  925TIP3    H1 2739   1.553   4.400   4.071
  925TIP3    H2 2740   1.657   4.314   4.139
  926TIP3   OH2 2741   6.520   0.454   4.360
  926TIP3    H1 2742   6.543   0.396   4.288
  926TIP3    H2 2743   6.434   0.424   4.389
  927TIP3   OH2 2744   4.616   0.512   1.204
  927TIP3    H1 2745   4.631   0.455   1.128
  927TIP3    H2 2746   4.567   0.457   1.265
  928TIP3   OH2 2747   0.525   6.478   2.188
  928TIP3    H1 2748   0.508   6.509   2.099
  928TIP3    H2 2749   0.546   6.385   2.177
  929TIP3   OH2 2750   6.134   3.514   3.771
  929TIP3    H1 2751   6.122   3.427   3.734
  929TIP3    H2 2752   6.173   3.499   3.857
  930TIP3   OH2 2753   0.870   6.623   0.381
  930TIP3    H1 2754   0.826   6.706   0.361
  930TIP3    H2 2755   0.833   6.595   0.465
  931TIP3   OH2 2756   0.439   6.317   3.139
  931TIP3    H1 2757   0.480   6.234   3.164
  931TIP3    H2 2758   0.422   6.361   3.223
  932TIP3   OH2 2759   6.749   1.250   2.234
  932TIP3    H1 2760   6.662   1.244   2.194
  932TIP3    H2 2761   6.790   1.325   2.190
  933TIP3   OH2 2762   2.283   2.402   1.166
  933TIP3    H1 2763   2.237   2.485   1.164
  933TIP3    H2 2764   2.294   2.383   1.260
  934TIP3   OH2 2765   1.239   2.934   0.972
  934TIP3    H1 2766   1.322   2.953   1.015
  934TIP3    H2 2767   1.207   2.855   1.016
  935TIP3   OH2 2768   5.740   4.413   3.040
  935TIP3    H1 2769   5.834   4.423   3.051
  935TIP3    H2 2770   5.712   4.494   2.997
  936TIP3   OH2 2771   3.353   4.539   4.693
  936TIP3    H1 2772   3.421   4.486   4.651
  936TIP3    H2 2773   3.312   4.586   4.621
  937TIP3   OH2 2774   6.095   4.098   2.254
  937TIP3    H1 2775   6.105   4.190   2.278
  937TIP3    H2 2776   6.101   4.097   2.159
  938TIP3   OH2 2777   4.416   5.231   0.953
  938TIP3    H1 2778   4.504   5.266   0.937
  938TIP3    H2 2779   4.374   5.230   0.867
  939TIP3   OH2 2780   1.752   0.663   2.132
  939TIP3    H1 2781   1.772   0.739   2.077
  939TIP3    H2 2782   1.825   0.657   2.193
  940TIP3   OH2 2783   1.021   5.588   5.624
  940TIP3    H1 2784   1.059   5.545   5.701
  940TIP3    H2 2785   1.024   5.521   5.555
  941TIP3   OH2 2786   2.788   4.886   4.614
  941TIP3    H1 2787   2.718   4.829   4.646
  941TIP3    H2 2788   2.804   4.947   4.686
  942TIP3   OH2 2789   0.402   2.653   2.941
  942TIP3    H1 2790   0.486   2.669   2.898
  942TIP3    H2 2791   0.408   2.562   2.972
  943TIP3   OH2 2792   0.549   3.749   3.464
  943TIP3    H1 2793   0.506   3.748   3.550
  943TIP3    H2 2794   0.642   3.741   3.484
  944TIP3   OH2 2795   6.849   5.909   1.558
  944TIP3    H1 2796   6.761   5.872   1.567
  944TIP3    H2 2797   6.891   5.890   1.642
  945TIP3   OH2 2798   5.970   1.426   2.748
  945TIP3    H1 2799   5.907   1.494   2.723
  945TIP3    H2 2800   5.930   1.383   2.824
  946TIP3   OH2 2801   2.653   6.493   1.731
  946TIP3    H1 2802   2.613   6.531   1.653
  946TIP3    H2 2803   2.651   6.399   1.715
  947TIP3   OH2 2804   0.544   4.290   0.610
  947TIP3    H1 2805   0.506   4.377   0.625
  947TIP3    H2 2806   0.539   4.247   0.695
  948TIP3   OH2 2807   4.038   1.752   2.974
  948TIP3    H1 2808   4.129   1.734   2.950
  948TIP3    H2 2809   4.043   1.782   3.065
  949TIP3   OH2 2810   2.597   1.208   2.678
  949TIP3    H1 2811   2.519   1.183   2.629
  949TIP3    H2 2812   2.664   1.145   2.651
  950TIP3   OH2 2813   2.022   3.711   1.424
  950TIP3    H1 2814   1.987   3.793   1.390
  950TIP3    H2 2815   1.968   3.692   1.500
  951TIP3   OH2 2816   1.678   3.522   2.114
  951TIP3    H1 2817   1.595   3.475   2.108
  951TIP3    H2 2818   1.657   3.612   2.087
  952TIP3   OH2 2819   2.030   6.162   4.969
  952TIP3    H1 2820   2.025   6.244   4.920
  952TIP3    H2 2821   2.076   6.102   4.911
  953TIP3   OH2 2822   2.925   1.309   4.036
  953TIP3    H1 2823   2.934   1.375   4.105
  953TIP3    H2 2824   2.955   1.228   4.076
  954TIP3   OH2 2825   0.253   3.682   4.623
  954TIP3    H1 2826   0.324   3.693   4.687
  954TIP3    H2 2827   0.293   3.636   4.550
  955TIP3   OH2 2828   7.089   4.251   0.168
  955TIP3    H1 2829   7.060   4.164   0.195
  955TIP3    H2 2830   7.028   4.311   0.210
  956TIP3   OH2 2831   6.375   6.316   3.642
  956TIP3    H1 2832   6.441   6.349   3.702
  956TIP3    H2 2833   6.377   6.377   3.568
  957TIP3   OH2 2834   6.001   6.738   0.581
  957TIP3    H1 2835   5.959   6.679   0.518
  957TIP3    H2 2836   6.011   6.820   0.533
  958TIP3   OH2 2837   0.731   4.596   2.688
  958TIP3    H1 2838   0.810   4.545   2.669
  958TIP3    H2 2839   0.736   4.671   2.629
  959TIP3   OH2 2840   1.958   6.734   3.942
  959TIP3    H1 2841   1.884   6.756   3.997
  959TIP3    H2 2842   2.029   6.714   4.003
  960TIP3   OH2 2843   5.282   1.256   4.402
  960TIP3    H1 2844   5.272   1.351   4.411
  960TIP3    H2 2845   5.340   1.231   4.474
  961TIP3   OH2 2846   0.602   3.096   1.826
  961TIP3    H1 2847   0.512   3.082   1.797
  961TIP3    H2 2848   0.656   3.072   1.750
  962TIP3   OH2 2849   6.096   1.190   0.123
  962TIP3    H1 2850   6.112   1.100   0.151
  962TIP3    H2 2851   6.149   1.243   0.183
  963TIP3   OH2 2852   4.112   0.298   5.894
  963TIP3    H1 2853   4.164   0.357   5.840
  963TIP3    H2 2854   4.088   0.226   5.836
  964TIP3   OH2 2855   2.358   0.318   1.344
  964TIP3    H1 2856   2.277   0.358   1.311
  964TIP3    H2 2857   2.358   0.230   1.306
  965TIP3   OH2 2858   3.095   1.597   3.459
  965TIP3    H1 2859   3.051   1.587   3.543
  965TIP3    H2 2860   3.188   1.585   3.479
  966TIP3   OH2 2861   0.535   2.422   5.586
  966TIP3    H1 2862   0.588   2.442   5.510
  966TIP3    H2 2863   0.481   2.347   5.560
  967TIP3   OH2 2864   0.434   3.538   3.299
  967TIP3    H1 2865   0.476   3.592   3.366
  967TIP3    H2 2866   0.496   3.466   3.284
  968TIP3   OH2 2867   1.536   1.329   2.732
  968TIP3    H1 2868   1.580   1.394   2.677
  968TIP3    H2 2869   1.568   1.245   2.700
  969TIP3   OH2 2870   6.419   5.543   3.874
  969TIP3    H1 2871   6.445   5.566   3.785
  969TIP3    H2 2872   6.397   5.449   3.868
  970TIP3   OH2 2873   7.169   4.840   3.626
  970TIP3    H1 2874   7.192   4.748   3.612
  970TIP3    H2 2875   7.073   4.840   3.627
  971TIP3   OH2 2876   2.916   1.093   0.720
  971TIP3    H1 2877   2.840   1.042   0.693
  971TIP3    H2 2878   2.952   1.045   0.794
  972TIP3   OH2 2879   6.728   6.356   4.924
  972TIP3    H1 2880   6.682   6.382   5.004
  972TIP3    H2 2881   6.721   6.432   4.866
  973TIP3   OH2 2882   5.109   0.567   2.807
  973TIP3    H1 2883   5.168   0.592   2.879
  973TIP3    H2 2884   5.159   0.587   2.728
  974TIP3   OH2 2885   4.744   1.654   5.592
  974TIP3    H1 2886   4.717   1.567   5.561
  974TIP3    H2 2887   4.838   1.645   5.609
  975TIP3   OH2 2888   5.053   2.619   1.279
  975TIP3    H1 2889   5.008   2.604   1.361
  975TIP3    H2 2890   5.133   2.666   1.303
  976TIP3   OH2 2891   1.760   1.568   0.192
  976TIP3    H1 2892   1.720   1.649   0.161
  976TIP3    H2 2893   1.727   1.557   0.281
  977TIP3   OH2 2894   7.115   2.611   5.580
  977TIP3    H1 2895   7.140   2.695   5.617
  977TIP3    H2 2896   7.058   2.572   5.647
  978TIP3   OH2 2897   3.755   2.831   5.440
  978TIP3    H1 2898   3.723   2.772   5.372
  978TIP3    H2 2899   3.703   2.911   5.429
  979TIP3   OH2 2900   2.324   3.734   4.091
  979TIP3    H1 2901   2.282   3.651   4.070
  979TIP3    H2 2902   2.252   3.791   4.117
  980TIP3   OH2 2903   1.414   5.601   4.342
  980TIP3    H1 2904   1.508   5.590   4.357
  980TIP3    H2 2905   1.381   5.636   4.424
  981TIP3   OH2 2906   4.250   1.529   5.811
  981TIP3    H1 2907   4.244   1.608   5.757
  981TIP3    H2 2908   4.164   1.488   5.803
  982TIP3   OH2 2909   1.808   0.968   1.036
  982TIP3    H1 2910   1.809   1.037   1.102
  982TIP3    H2 2911   1.892   0.979   0.990
  983TIP3   OH2 2912   0.442   5.398   2.487
  983TIP3    H1 2913   0.461   5.304   2.486
  983TIP3    H2 2914   0.427   5.420   2.395
  984TIP3   OH2 2915   1.763   2.643   3.265
  984TIP3    H1 2916   1.841   2.589   3.249
  984TIP3    H2 2917   1.726   2.657   3.178
  985TIP3   OH2 2918   5.974   5.199   4.390
  985TIP3    H1 2919   6.062   5.186   4.425
  985TIP3    H2 2920   5.978   5.166   4.301
  986TIP3   OH2 2921   3.904   1.742   5.119
  986TIP3    H1 2922   3.988   1.712   5.085
  986TIP3    H2 2923   3.854   1.661   5.134
  987TIP3   OH2 2924   5.744   1.217   1.600
  987TIP3    H1 2925   5.661   1.168   1.592
  987TIP3    H2 2926   5.723   1.289   1.660
  988TIP3   OH2 2927   4.911   1.377   5.536
  988TIP3    H1 2928   4.862   1.336   5.607
  988TIP3    H2 2929   4.871   1.341   5.456
  989TIP3   OH2 2930   3.750   4.828   2.973
  989TIP3    H1 2931   3.795   4.747   2.994
  989TIP3    H2 2932   3.819   4.886   2.941
  990TIP3   OH2 2933   2.752   6.115   5.005
  990TIP3    H1 2934   2.715   6.177   4.943
  990TIP3    H2 2935   2.777   6.039   4.952
  991TIP3   OH2 2936   6.755   0.254   1.894
  991TIP3    H1 2937   6.838   0.236   1.937
  991TIP3    H2 2938   6.701   0.295   1.961
  992TIP3   OH2 2939   4.953   0.921   0.899
  992TIP3    H1 2940   4.979   0.845   0.847
  992TIP3    H2 2941   4.870   0.896   0.939
  993TIP3   OH2 2942   2.987   3.493   2.935
  993TIP3    H1 2943   3.070   3.539   2.942
  993TIP3    H2 2944   2.995   3.419   2.996
  994TIP3   OH2 2945   1.419   5.978   5.526
  994TIP3    H1 2946   1.472   5.952   5.601
  994TIP3    H2 2947   1.333   5.938   5.542
  995TIP3   OH2 2948   3.772   4.888   0.293
  995TIP3    H1 2949   3.719   4.963   0.318
  995TIP3    H2 2950   3.769   4.887   0.198
  996TIP3   OH2 2951   3.397   4.296   0.312
  996TIP3    H1 2952   3.306   4.324   0.305
  996TIP3    H2 2953   3.445   4.354   0.253
  997TIP3   OH2 2954   0.189   4.579   4.019
  997TIP3    H1 2955   0.175   4.661   4.066
  997TIP3    H2 2956   0.211   4.605   3.930
  998TIP3   OH2 2957   1.733   1.379   1.181
  998TIP3    H1 2958   1.756   1.315   1.248
  998TIP3    H2 2959   1.809   1.381   1.122
  999TIP3   OH2 2960   1.935   5.857   3.770
  999TIP3    H1 2961   1.957   5.898   3.686
  999TIP3    H2 2962   2.007   5.797   3.787
 1000TIP3   OH2 2963   2.954   4.979   3.986
 1000TIP3    H1 2964   2.922   5.029   3.911
 1000TIP3    H2 2965   2.977   4.893   3.950
 1001TIP3   OH2 2966   7.112   3.803   4.436
 1001TIP3    H1 2967   7.041   3.739   4.437
 1001TIP3    H2 2968   7.114   3.838   4.525
 1002TIP3   OH2 2969   6.072   6.179   5.068
 1002TIP3    H1 2970   6.050   6.170   4.975
 1002TIP3    H2 2971   6.031   6.103   5.110
 1003TIP3   OH2 2972   0.568   5.176   5.619
 1003TIP3    H1 2973   0.502   5.243   5.637
 1003TIP3    H2 2974   0.631   5.219   5.560
 1004TIP3   OH2 2975   5.749   0.875   5.550
 1004TIP3    H1 2976   5.662   0.893   5.516
 1004TIP3    H2 2977   5.736   0.860   5.644
 1005TIP3   OH2 2978   0.256   6.564   5.841
 1005TIP3    H1 2979   0.242   6.559   5.746
 1005TIP3    H2 2980   0.260   6.472   5.869
 1006TIP3   OH2 2981   6.041   4.854   3.653
 1006TIP3    H1 2982   6.028   4.797   3.577
 1006TIP3    H2 2983   5.977   4.823   3.717
 1007TIP3   OH2 2984   5.243   1.904   4.569
 1007TIP3    H1 2985   5.260   1.996   4.590
 1007TIP3    H2 2986   5.213   1.905   4.478
 1008TIP3   OH2 2987   1.078   5.369   0.367
 1008TIP3    H1 2988   1.037   5.294   0.411
 1008TIP3    H2 2989   1.005   5.418   0.329
 1009TIP3   OH2 2990   7.102   2.604   4.490
 1009TIP3    H1 2991   7.177   2.661   4.473
 1009TIP3    H2 2992   7.094   2.602   4.585
 1010TIP3   OH2 2993   1.181   0.394   2.493
 1010TIP3    H1 2994   1.095   0.353   2.506
 1010TIP3    H2 2995   1.224   0.387   2.578
 1011TIP3   OH2 2996   2.103   6.217   5.229
 1011TIP3    H1 2997   2.066   6.177   5.150
 1011TIP3    H2 2998   2.093   6.150   5.296
 1012TIP3   OH2 2999   4.262   4.866   1.377
 1012TIP3    H1 3000   4.194   4.882   1.311
 1012TIP3    H2 3001   4.259   4.772   1.391
 1013TIP3   OH2 3002   4.720   5.468   4.740
 1013TIP3    H1 3003   4.688   5.388   4.781
 1013TIP3    H2 3004   4.672   5.538   4.783
 1014TIP3   OH2 3005   0.747   4.261   0.876
 1014TIP3    H1 3006   0.778   4.351   0.884
 1014TIP3    H2 3007   0.804   4.211   0.934
 1015TIP3   OH2 3008   1.480   0.720   1.457
 1015TIP3    H1 3009   1.518   0.761   1.380
 1015TIP3    H2 3010   1.416   0.784   1.489
 1016TIP3   OH2 3011   0.396   2.480   5.274
 1016TIP3    H1 3012   0.348   2.552   5.315
 1016TIP3    H2 3013   0.391   2.409   5.337
 1017TIP3   OH2 3014   3.777   0.536   2.440
 1017TIP3    H1 3015   3.697   0.493   2.470
 1017TIP3    H2 3016   3.839   0.465   2.426
 1018TIP3   OH2 3017   6.026   4.605   0.316
 1018TIP3    H1 3018   6.034   4.640   0.227
 1018TIP3    H2 3019   6.091   4.535   0.320
 1019TIP3   OH2 3020   3.365   4.982   1.773
 1019TIP3    H1 3021   3.333   4.893   1.759
 1019TIP3    H2 3022   3.316   5.035   1.710
 1020TIP3   OH2 3023   6.261   6.442   2.602
 1020TIP3    H1 3024   6.306   6.501   2.663
 1020TIP3    H2 3025   6.209   6.385   2.658
 1021TIP3   OH2 3026   0.402   2.633   2.252
 1021TIP3    H1 3027   0.478   2.662   2.303
 1021TIP3    H2 3028   0.331   2.690   2.280
 1022TIP3   OH2 3029   5.406   0.935   3.754
 1022TIP3    H1 3030   5.321   0.929   3.712
 1022TIP3    H2 3031   5.462   0.979   3.690
 1023TIP3   OH2 3032   2.540   6.295   1.082
 1023TIP3    H1 3033   2.507   6.332   1.164
 1023TIP3    H2 3034   2.635   6.299   1.090
 1024TIP3   OH2 3035   7.123   3.795   3.353
 1024TIP3    H1 3036   7.089   3.714   3.393
 1024TIP3    H2 3037   7.208   3.808   3.395
 1025TIP3   OH2 3038   3.754   6.410   0.411
 1025TIP3    H1 3039   3.669   6.421   0.368
 1025TIP3    H2 3040   3.744   6.454   0.496
 1026TIP3   OH2 3041   3.230   3.434   1.790
 1026TIP3    H1 3042   3.296   3.484   1.838
 1026TIP3    H2 3043   3.281   3.374   1.736
 1027TIP3   OH2 3044   5.788   6.579   2.234
 1027TIP3    H1 3045   5.836   6.661   2.241
 1027TIP3    H2 3046   5.815   6.543   2.149
 1028TIP3   OH2 3047   2.718   3.773   5.819
 1028TIP3    H1 3048   2.783   3.737   5.879
 1028TIP3    H2 3049   2.634   3.750   5.859
 1029TIP3   OH2 3050   4.931   4.731   4.260
 1029TIP3    H1 3051   4.918   4.824   4.241
 1029TIP3    H2 3052   5.026   4.719   4.257
 1030TIP3   OH2 3053   3.988   2.166   4.037
 1030TIP3    H1 3054   4.051   2.109   3.992
 1030TIP3    H2 3055   4.007   2.154   4.130
 1031TIP3   OH2 3056   4.253   1.790   4.827
 1031TIP3    H1 3057   4.181   1.835   4.871
 1031TIP3    H2 3058   4.304   1.861   4.786
 1032TIP3   OH2 3059   4.132   2.129   0.547
 1032TIP3    H1 3060   4.203   2.176   0.504
 1032TIP3    H2 3061   4.112   2.182   0.625
 1033TIP3   OH2 3062   3.211   6.623   0.757
 1033TIP3    H1 3063   3.219   6.602   0.664
 1033TIP3    H2 3064   3.263   6.556   0.801
 1034TIP3   OH2 3065   6.135   4.859   0.816
 1034TIP3    H1 3066   6.126   4.954   0.820
 1034TIP3    H2 3067   6.094   4.835   0.733
 1035TIP3   OH2 3068   0.530   5.474   1.482
 1035TIP3    H1 3069   0.502   5.552   1.435
 1035TIP3    H2 3070   0.625   5.481   1.488
 1036TIP3   OH2 3071   1.282   2.160   4.914
 1036TIP3    H1 3072   1.225   2.232   4.889
 1036TIP3    H2 3073   1.363   2.202   4.943
 1037TIP3   OH2 3074   0.750   4.936   1.308
 1037TIP3    H1 3075   0.710   4.912   1.392
 1037TIP3    H2 3076   0.678   4.968   1.255
 1038TIP3   OH2 3077   5.379   4.463   4.958
 1038TIP3    H1 3078   5.284   4.459   4.951
 1038TIP3    H2 3079   5.396   4.480   5.051
 1039TIP3   OH2 3080   3.683   0.657   5.605
 1039TIP3    H1 3081   3.594   0.630   5.626
 1039TIP3    H2 3082   3.736   0.628   5.679
 1040TIP3   OH2 3083   6.150   0.928   0.128
 1040TIP3    H1 3084   6.196   0.885   0.200
 1040TIP3    H2 3085   6.084   0.865   0.100
 1041TIP3   OH2 3086   2.109   3.057   4.335
 1041TIP3    H1 3087   2.158   2.975   4.331
 1041TIP3    H2 3088   2.017   3.029   4.334
 1042TIP3   OH2 3089   0.092   0.413   5.346
 1042TIP3    H1 3090   0.165   0.425   5.406
 1042TIP3    H2 3091   0.125   0.444   5.262
 1043TIP3   OH2 3092   3.256   0.067   2.424
 1043TIP3    H1 3093   3.337   0.043   2.469
 1043TIP3    H2 3094   3.202   0.109   2.492
 1044TIP3   OH2 3095   3.552   6.619   5.595
 1044TIP3    H1 3096   3.545   6.607   5.500
 1044TIP3    H2 3097   3.461   6.612   5.626
 1045TIP3   OH2 3098   4.646   6.167   4.446
 1045TIP3    H1 3099   4.567   6.116   4.432
 1045TIP3    H2 3100   4.693   6.120   4.515
 1046TIP3   OH2 3101   4.682   0.527   4.319
 1046TIP3    H1 3102   4.757   0.469   4.311
 1046TIP3    H2 3103   4.708   0.606   4.272
 1047TIP3   OH2 3104   6.724   1.663   3.107
 1047TIP3    H1 3105   6.805   1.714   3.108
 1047TIP3    H2 3106   6.659   1.723   3.071
 1048TIP3   OH2 3107   4.157   3.406   5.284
 1048TIP3    H1 3108   4.165   3.359   5.367
 1048TIP3    H2 3109   4.063   3.415   5.271
 1049TIP3   OH2 3110   4.863   5.564   2.628
 1049TIP3    H1 3111   4.841   5.564   2.721
 1049TIP3    H2 3112   4.785   5.531   2.585
 1050TIP3   OH2 3113   3.779   3.484   0.994
 1050TIP3    H1 3114   3.684   3.484   1.007
 1050TIP3    H2 3115   3.810   3.561   1.043
 1051TIP3   OH2 3116   2.769   3.267   1.242
 1051TIP3    H1 3117   2.682   3.306   1.249
 1051TIP3    H2 3118   2.785   3.260   1.148
 1052TIP3   OH2 3119   4.860   1.414   3.055
 1052TIP3    H1 3120   4.802   1.404   3.130
 1052TIP3    H2 3121   4.850   1.506   3.029
 1053TIP3   OH2 3122   3.845   5.841   4.123
 1053TIP3    H1 3123   3.766   5.822   4.073
 1053TIP3    H2 3124   3.828   5.805   4.210
 1054TIP3   OH2 3125   5.247   6.575   0.149
 1054TIP3    H1 3126   5.182   6.562   0.081
 1054TIP3    H2 3127   5.258   6.489   0.190
 1055TIP3   OH2 3128   4.571   5.470   0.283
 1055TIP3    H1 3129   4.646   5.500   0.334
 1055TIP3    H2 3130   4.598   5.387   0.245
 1056TIP3   OH2 3131   1.957   0.919   4.389
 1056TIP3    H1 3132   1.991   0.967   4.464
 1056TIP3    H2 3133   1.975   0.827   4.408
 1057TIP3   OH2 3134   3.454   4.043   5.540
 1057TIP3    H1 3135   3.439   3.989   5.462
 1057TIP3    H2 3136   3.386   4.111   5.535
 1058TIP3   OH2 3137   5.810   1.147   0.456
 1058TIP3    H1 3138   5.897   1.117   0.483
 1058TIP3    H2 3139   5.752   1.073   0.473
 1059TIP3   OH2 3140   4.730   2.341   4.971
 1059TIP3    H1 3141   4.810   2.289   4.979
 1059TIP3    H2 3142   4.661   2.277   4.956
 1060TIP3   OH2 3143   2.436   5.225   2.760
 1060TIP3    H1 3144   2.402   5.144   2.799
 1060TIP3    H2 3145   2.365   5.257   2.705
 1061TIP3   OH2 3146   2.658   0.849   4.234
 1061TIP3    H1 3147   2.604   0.791   4.180
 1061TIP3    H2 3148   2.711   0.898   4.170
 1062TIP3   OH2 3149   5.291   4.806   1.886
 1062TIP3    H1 3150   5.229   4.837   1.952
 1062TIP3    H2 3151   5.316   4.885   1.839
 1063TIP3   OH2 3152   0.889   3.580   3.919
 1063TIP3    H1 3153   0.846   3.510   3.869
 1063TIP3    H2 3154   0.819   3.643   3.937
 1064TIP3   OH2 3155   4.286   5.562   5.757
 1064TIP3    H1 3156   4.379   5.546   5.739
 1064TIP3    H2 3157   4.251   5.597   5.675
 1065TIP3   OH2 3158   2.154   2.232   3.494
 1065TIP3    H1 3159   2.134   2.190   3.410
 1065TIP3    H2 3160   2.204   2.165   3.542
 1066TIP3   OH2 3161   1.980   3.940   1.272
 1066TIP3    H1 3162   1.980   3.934   1.177
 1066TIP3    H2 3163   1.952   4.030   1.290
 1067TIP3   OH2 3164   6.989   5.928   5.209
 1067TIP3    H1 3165   6.906   5.882   5.222
 1067TIP3    H2 3166   6.992   5.947   5.115
 1068TIP3   OH2 3167   0.207   5.336   2.141
 1068TIP3    H1 3168   0.271   5.274   2.106
 1068TIP3    H2 3169   0.260   5.408   2.176
 1069TIP3   OH2 3170   5.177   4.153   4.622
 1069TIP3    H1 3171   5.166   4.059   4.638
 1069TIP3    H2 3172   5.266   4.160   4.586
 1070TIP3   OH2 3173   6.090   1.160   0.459
 1070TIP3    H1 3174   6.168   1.116   0.427
 1070TIP3    H2 3175   6.122   1.241   0.498
 1071TIP3   OH2 3176   1.285   0.682   0.402
 1071TIP3    H1 3177   1.358   0.642   0.356
 1071TIP3    H2 3178   1.312   0.684   0.494
 1072TIP3   OH2 3179   1.403   1.473   5.888
 1072TIP3    H1 3180   1.478   1.531   5.898
 1072TIP3    H2 3181   1.352   1.511   5.817
 1073TIP3   OH2 3182   6.361   1.515   1.002
 1073TIP3    H1 3183   6.345   1.593   1.054
 1073TIP3    H2 3184   6.401   1.547   0.921
 1074TIP3   OH2 3185   6.672   2.004   5.630
 1074TIP3    H1 3186   6.730   2.042   5.563
 1074TIP3    H2 3187   6.653   1.916   5.599
 1075TIP3   OH2 3188   6.345   2.447   4.207
 1075TIP3    H1 3189   6.383   2.435   4.120
 1075TIP3    H2 3190   6.252   2.461   4.192
 1076TIP3   OH2 3191   5.971   2.546   1.349
 1076TIP3    H1 3192   5.921   2.597   1.285
 1076TIP3    H2 3193   5.998   2.609   1.415
 1077TIP3   OH2 3194   4.113   2.493   2.865
 1077TIP3    H1 3195   4.064   2.499   2.783
 1077TIP3    H2 3196   4.204   2.510   2.839
 1078TIP3   OH2 3197   5.094   1.943   0.463
 1078TIP3    H1 3198   5.024   1.888   0.497
 1078TIP3    H2 3199   5.144   1.968   0.541
 1079TIP3   OH2 3200   4.338   3.862   5.504
 1079TIP3    H1 3201   4.252   3.852   5.461
 1079TIP3    H2 3202   4.317   3.899   5.590
 1080TIP3   OH2 3203   4.608   3.663   1.867
 1080TIP3    H1 3204   4.694   3.622   1.861
 1080TIP3    H2 3205   4.614   3.741   1.812
 1081TIP3   OH2 3206   2.448   0.521   3.359
 1081TIP3    H1 3207   2.428   0.615   3.358
 1081TIP3    H2 3208   2.367   0.479   3.333
 1082TIP3   OH2 3209   2.537   6.246   2.631
 1082TIP3    H1 3210   2.490   6.264   2.549
 1082TIP3    H2 3211   2.487   6.176   2.673
 1083TIP3   OH2 3212   3.864   2.076   2.555
 1083TIP3    H1 3213   3.935   2.125   2.596
 1083TIP3    H2 3214   3.829   2.136   2.488
 1084TIP3   OH2 3215   4.524   4.928   1.071
 1084TIP3    H1 3216   4.581   4.858   1.038
 1084TIP3    H2 3217   4.526   4.994   1.002
 1085TIP3   OH2 3218   5.324   2.283   5.441
 1085TIP3    H1 3219   5.314   2.250   5.530
 1085TIP3    H2 3220   5.254   2.347   5.431
 1086TIP3   OH2 3221   6.447   0.459   2.532
 1086TIP3    H1 3222   6.369   0.485   2.581
 1086TIP3    H2 3223   6.501   0.538   2.527
 1087TIP3   OH2 3224   2.456   6.680   5.094
 1087TIP3    H1 3225   2.483   6.699   5.184
 1087TIP3    H2 3226   2.364   6.655   5.101
 1088TIP3   OH2 3227   5.508   0.099   0.488
 1088TIP3    H1 3228   5.517   0.019   0.437
 1088TIP3    H2 3229   5.547   0.167   0.433
 1089TIP3   OH2 3230   2.041   0.457   2.015
 1089TIP3    H1 3231   1.967   0.473   1.956
 1089TIP3    H2 3232   2.011   0.389   2.074
 1090TIP3   OH2 3233   2.876   0.126   2.005
 1090TIP3    H1 3234   2.952   0.073   1.981
 1090TIP3    H2 3235   2.906   0.180   2.078
 1091TIP3   OH2 3236   1.327   1.974   1.909
 1091TIP3    H1 3237   1.417   1.947   1.924
 1091TIP3    H2 3238   1.275   1.920   1.968
 1092TIP3   OH2 3239   4.771   3.865   0.273
 1092TIP3    H1 3240   4.823   3.786   0.286
 1092TIP3    H2 3241   4.680   3.834   0.276
 1093TIP3   OH2 3242   5.194   5.160   2.381
 1093TIP3    H1 3243   5.217   5.106   2.456
 1093TIP3    H2 3244   5.217   5.249   2.406
 1094TIP3   OH2 3245   4.624   3.815   5.886
 1094TIP3    H1 3246   4.614   3.903   5.850
 1094TIP3    H2 3247   4.560   3.811   5.957
 1095TIP3   OH2 3248   5.186   1.741   2.725
 1095TIP3    H1 3249   5.112   1.776   2.675
 1095TIP3    H2 3250   5.159   1.652   2.748
 1096TIP3   OH2 3251   1.518   3.695   0.426
 1096TIP3    H1 3252   1.497   3.784   0.452
 1096TIP3    H2 3253   1.606   3.680   0.461
 1097TIP3   OH2 3254   5.703   5.416   0.852
 1097TIP3    H1 3255   5.708   5.509   0.830
 1097TIP3    H2 3256   5.615   5.390   0.824
 1098TIP3   OH2 3257   6.767   1.791   0.030
 1098TIP3    H1 3258   6.750   1.719   0.092
 1098TIP3    H2 3259   6.739   1.756  -0.055
 1099TIP3   OH2 3260   4.926   2.086   1.037
 1099TIP3    H1 3261   4.859   2.042   1.089
 1099TIP3    H2 3262   4.899   2.073   0.947
 1100TIP3   OH2 3263   4.941   4.548   4.579
 1100TIP3    H1 3264   4.882   4.595   4.638
 1100TIP3    H2 3265   4.889   4.476   4.544
 1101TIP3   OH2 3266   5.036   2.263   3.330
 1101TIP3    H1 3267   5.047   2.221   3.245
 1101TIP3    H2 3268   4.987   2.342   3.312
 1102TIP3   OH2 3269   1.204   5.372   3.385
 1102TIP3    H1 3270   1.153   5.342   3.310
 1102TIP3    H2 3271   1.145   5.361   3.460
 1103TIP3   OH2 3272   3.745   3.652   3.227
 1103TIP3    H1 3273   3.831   3.647   3.185
 1103TIP3    H2 3274   3.763   3.634   3.319
 1104TIP3   OH2 3275   1.186   5.865   2.417
 1104TIP3    H1 3276   1.265   5.857   2.364
 1104TIP3    H2 3277   1.188   5.790   2.476
 1105TIP3   OH2 3278   1.868   3.560   1.633
 1105TIP3    H1 3279   1.843   3.477   1.672
 1105TIP3    H2 3280   1.934   3.595   1.692
 1106TIP3   OH2 3281   1.469   4.419   0.742
 1106TIP3    H1 3282   1.450   4.443   0.651
 1106TIP3    H2 3283   1.424   4.486   0.793
 1107TIP3   OH2 3284   3.025   0.185   3.307
 1107TIP3    H1 3285   3.111   0.204   3.269
 1107TIP3    H2 3286   2.996   0.105   3.262
 1108TIP3   OH2 3287   2.011   3.611   0.810
 1108TIP3    H1 3288   1.929   3.567   0.788
 1108TIP3    H2 3289   2.023   3.675   0.739
 1109TIP3   OH2 3290   1.705   4.846   0.749
 1109TIP3    H1 3291   1.795   4.863   0.776
 1109TIP3    H2 3292   1.691   4.753   0.767
 1110TIP3   OH2 3293   0.954   4.448   5.788
 1110TIP3    H1 3294   0.933   4.402   5.870
 1110TIP3    H2 3295   0.869   4.465   5.748
 1111TIP3   OH2 3296   4.006   0.437   1.057
 1111TIP3    H1 3297   4.098   0.460   1.070
 1111TIP3    H2 3298   4.009   0.354   1.009
 1112TIP3   OH2 3299   0.745   5.987   4.380
 1112TIP3    H1 3300   0.724   5.924   4.449
 1112TIP3    H2 3301   0.714   5.946   4.300
 1113TIP3   OH2 3302   4.599   5.542   5.684
 1113TIP3    H1 3303   4.566   5.546   5.594
 1113TIP3    H2 3304   4.647   5.460   5.688
 1114TIP3   OH2 3305   7.090   1.376   0.614
 1114TIP3    H1 3306   7.064   1.302   0.668
 1114TIP3    H2 3307   7.007   1.416   0.586
 1115TIP3   OH2 3308   4.886   5.504   1.170
 1115TIP3    H1 3309   4.885   5.431   1.232
 1115TIP3    H2 3310   4.813   5.560   1.197
 1116TIP3   OH2 3311   4.685   0.467   5.314
 1116TIP3    H1 3312   4.633   0.534   5.270
 1116TIP3    H2 3313   4.705   0.506   5.400
 1117TIP3   OH2 3314   2.046   4.550   3.709
 1117TIP3    H1 3315   2.127   4.500   3.705
 1117TIP3    H2 3316   1.994   4.507   3.777
 1118TIP3   OH2 3317   1.977   1.625   4.920
 1118TIP3    H1 3318   1.909   1.609   4.986
 1118TIP3    H2 3319   1.936   1.599   4.837
 1119TIP3   OH2 3320   5.000   5.093   0.118
 1119TIP3    H1 3321   4.927   5.061   0.170
 1119TIP3    H2 3322   5.049   5.014   0.093
 1120TIP3   OH2 3323   0.568   2.335   0.748
 1120TIP3    H1 3324   0.565   2.332   0.652
 1120TIP3    H2 3325   0.600   2.248   0.773
 1121TIP3   OH2 3326   2.389   5.429   3.112
 1121TIP3    H1 3327   2.391   5.334   3.101
 1121TIP3    H2 3328   2.428   5.463   3.032
 1122TIP3   OH2 3329   4.061   2.493   4.164
 1122TIP3    H1 3330   4.010   2.548   4.105
 1122TIP3    H2 3331   4.000   2.424   4.191
 1123TIP3   OH2 3332   1.883   4.623   2.820
 1123TIP3    H1 3333   1.935   4.603   2.743
 1123TIP3    H2 3334   1.798   4.583   2.803
 1124TIP3   OH2 3335   5.937   4.780   5.341
 1124TIP3    H1 3336   5.904   4.777   5.251
 1124TIP3    H2 3337   5.860   4.797   5.395
 1125TIP3   OH2 3338   3.265   4.676   0.015
 1125TIP3    H1 3339   3.268   4.748   0.078
 1125TIP3    H2 3340   3.208   4.611   0.056
 1126TIP3   OH2 3341   1.220   6.075   4.338
 1126TIP3    H1 3342   1.299   6.109   4.296
 1126TIP3    H2 3343   1.226   5.980   4.328
 1127TIP3   OH2 3344   0.206   2.056   2.029
 1127TIP3    H1 3345   0.171   2.144   2.040
 1127TIP3    H2 3346   0.285   2.069   1.976
 1128TIP3   OH2 3347   3.793   4.798   1.843
 1128TIP3    H1 3348   3.757   4.719   1.884
 1128TIP3    H2 3349   3.767   4.869   1.902
 1129TIP3   OH2 3350   4.813   1.580   4.427
 1129TIP3    H1 3351   4.782   1.554   4.514
 1129TIP3    H2 3352   4.908   1.589   4.438
 1130TIP3   OH2 3353   0.328   3.443   2.726
 1130TIP3    H1 3354   0.266   3.374   2.748
 1130TIP3    H2 3355   0.388   3.402   2.664
 1131TIP3   OH2 3356   4.468   5.819   2.029
 1131TIP3    H1 3357   4.488   5.726   2.041
 1131TIP3    H2 3358   4.373   5.824   2.040
 1132TIP3   OH2 3359   5.558   2.690   1.524
 1132TIP3    H1 3360   5.536   2.638   1.602
 1132TIP3    H2 3361   5.546   2.629   1.451
 1133TIP3   OH2 3362   1.539   2.763   4.048
 1133TIP3    H1 3363   1.576   2.806   4.125
 1133TIP3    H2 3364   1.491   2.688   4.083
 1134TIP3   OH2 3365   4.003   6.647   2.303
 1134TIP3    H1 3366   4.084   6.623   2.348
 1134TIP3    H2 3367   3.999   6.742   2.309
 1135TIP3   OH2 3368   3.610   5.773   5.819
 1135TIP3    H1 3369   3.626   5.731   5.735
 1135TIP3    H2 3370   3.555   5.711   5.867
 1136TIP3   OH2 3371   1.296   4.758   4.725
 1136TIP3    H1 3372   1.252   4.771   4.809
 1136TIP3    H2 3373   1.282   4.839   4.677
 1137TIP3   OH2 3374   7.093   2.654   2.838
 1137TIP3    H1 3375   7.122   2.593   2.770
 1137TIP3    H2 3376   7.016   2.697   2.801
 1138TIP3   OH2 3377   0.911   2.003   2.549
 1138TIP3    H1 3378   0.919   1.929   2.610
 1138TIP3    H2 3379   0.825   2.041   2.569
 1139TIP3   OH2 3380   6.622   3.069   0.775
 1139TIP3    H1 3381   6.711   3.057   0.741
 1139TIP3    H2 3382   6.629   3.049   0.868
 1140TIP3   OH2 3383   2.485   5.613   4.295
 1140TIP3    H1 3384   2.425   5.605   4.369
 1140TIP3    H2 3385   2.548   5.680   4.323
 1141TIP3   OH2 3386   1.638   6.800   5.453
 1141TIP3    H1 3387   1.679   6.746   5.386
 1141TIP3    H2 3388   1.638   6.744   5.531
 1142TIP3   OH2 3389   0.653   0.575   1.234
 1142TIP3    H1 3390   0.601   0.638   1.185
 1142TIP3    H2 3391   0.673   0.620   1.317
 1143TIP3   OH2 3392   4.398   0.479   0.883
 1143TIP3    H1 3393   4.377   0.388   0.863
 1143TIP3    H2 3394   4.367   0.491   0.973
 1144TIP3   OH2 3395   1.263   6.171   2.290
 1144TIP3    H1 3396   1.189   6.158   2.349
 1144TIP3    H2 3397   1.314   6.241   2.330
 1145TIP3   OH2 3398   2.588   5.821   1.774
 1145TIP3    H1 3399   2.622   5.825   1.684
 1145TIP3    H2 3400   2.659   5.854   1.829
 1146TIP3   OH2 3401   1.681   3.905   1.096
 1146TIP3    H1 3402   1.733   3.834   1.059
 1146TIP3    H2 3403   1.627   3.862   1.163
 1147TIP3   OH2 3404   6.122   0.287   2.990
 1147TIP3    H1 3405   6.089   0.240   2.914
 1147TIP3    H2 3406   6.055   0.276   3.057
 1148TIP3   OH2 3407   3.653   3.482   5.863
 1148TIP3    H1 3408   3.565   3.501   5.895
 1148TIP3    H2 3409   3.685   3.412   5.919
 1149TIP3   OH2 3410   1.720   0.102   3.322
 1149TIP3    H1 3411   1.736   0.172   3.258
 1149TIP3    H2 3412   1.771   0.028   3.289
 1150TIP3   OH2 3413   1.425   1.293   5.061
 1150TIP3    H1 3414   1.376   1.313   4.981
 1150TIP3    H2 3415   1.422   1.374   5.112
 1151TIP3   OH2 3416   3.768   1.758   3.025
 1151TIP3    H1 3417   3.858   1.731   3.011
 1151TIP3    H2 3418   3.739   1.790   2.940
 1152TIP3   OH2 3419   4.902   0.046   0.831
 1152TIP3    H1 3420   4.841   0.120   0.824
 1152TIP3    H2 3421   4.987   0.087   0.844
 1153TIP3   OH2 3422   4.110   6.481   4.516
 1153TIP3    H1 3423   4.026   6.463   4.473
 1153TIP3    H2 3424   4.163   6.404   4.496
 1154TIP3   OH2 3425   6.758   0.582   4.874
 1154TIP3    H1 3426   6.749   0.668   4.834
 1154TIP3    H2 3427   6.737   0.595   4.966
 1155TIP3   OH2 3428   6.627   3.866   5.017
 1155TIP3    H1 3429   6.693   3.916   4.968
 1155TIP3    H2 3430   6.650   3.882   5.109
 1156TIP3   OH2 3431   4.261   1.669   3.604
 1156TIP3    H1 3432   4.321   1.646   3.534
 1156TIP3    H2 3433   4.174   1.653   3.567
 1157TIP3   OH2 3434   5.020   6.713   0.413
 1157TIP3    H1 3435   5.054   6.624   0.422
 1157TIP3    H2 3436   4.956   6.707   0.342
 1158TIP3   OH2 3437   4.583   0.614   3.640
 1158TIP3    H1 3438   4.493   0.639   3.657
 1158TIP3    H2 3439   4.582   0.575   3.553
 1159TIP3   OH2 3440   6.345   2.879   3.553
 1159TIP3    H1 3441   6.357   2.789   3.525
 1159TIP3    H2 3442   6.270   2.876   3.613
 1160TIP3   OH2 3443   1.626   4.979   0.163
 1160TIP3    H1 3444   1.653   5.070   0.171
 1160TIP3    H2 3445   1.684   4.942   0.096
 1161TIP3   OH2 3446   6.087   5.136   0.782
 1161TIP3    H1 3447   6.119   5.205   0.840
 1161TIP3    H2 3448   5.996   5.160   0.763
 1162TIP3   OH2 3449   3.316   2.158   3.879
 1162TIP3    H1 3450   3.247   2.092   3.888
 1162TIP3    H2 3451   3.330   2.164   3.785
 1163TIP3   OH2 3452   0.420   2.192   0.162
 1163TIP3    H1 3453   0.394   2.275   0.121
 1163TIP3    H2 3454   0.433   2.132   0.089
 1164TIP3   OH2 3455   3.806   0.467   4.919
 1164TIP3    H1 3456   3.736   0.510   4.968
 1164TIP3    H2 3457   3.881   0.526   4.928
 1165TIP3   OH2 3458   6.528   0.811   1.620
 1165TIP3    H1 3459   6.471   0.763   1.559
 1165TIP3    H2 3460   6.545   0.894   1.577
 1166TIP3   OH2 3461   5.253   3.914   0.066
 1166TIP3    H1 3462   5.197   3.852   0.019
 1166TIP3    H2 3463   5.215   3.918   0.155
 1167TIP3   OH2 3464   2.598   0.093   2.073
 1167TIP3    H1 3465   2.686   0.119   2.046
 1167TIP3    H2 3466   2.609   0.054   2.160
 1168TIP3   OH2 3467   1.232   1.553   5.672
 1168TIP3    H1 3468   1.208   1.621   5.609
 1168TIP3    H2 3469   1.214   1.471   5.626
 1169TIP3   OH2 3470   6.267   4.033   2.814
 1169TIP3    H1 3471   6.230   4.057   2.729
 1169TIP3    H2 3472   6.252   3.939   2.822
 1170TIP3   OH2 3473   3.026   0.245   1.755
 1170TIP3    H1 3474   2.944   0.210   1.791
 1170TIP3    H2 3475   3.004   0.270   1.665
 1171TIP3   OH2 3476   1.877   1.815   2.002
 1171TIP3    H1 3477   1.971   1.796   2.007
 1171TIP3    H2 3478   1.850   1.827   2.093
 1172TIP3   OH2 3479   4.990   6.421   2.006
 1172TIP3    H1 3480   4.949   6.496   1.962
 1172TIP3    H2 3481   5.052   6.461   2.067
 1173TIP3   OH2 3482   5.766   4.256   5.150
 1173TIP3    H1 3483   5.763   4.351   5.149
 1173TIP3    H2 3484   5.674   4.229   5.141
 1174TIP3   OH2 3485   0.256   4.895   1.175
 1174TIP3    H1 3486   0.219   4.838   1.243
 1174TIP3    H2 3487   0.279   4.975   1.221
 1175TIP3   OH2 3488   6.497   1.527   0.753
 1175TIP3    H1 3489   6.431   1.488   0.697
 1175TIP3    H2 3490   6.505   1.618   0.722
 1176TIP3   OH2 3491   0.574   6.285   5.591
 1176TIP3    H1 3492   0.498   6.255   5.541
 1176TIP3    H2 3493   0.650   6.255   5.540
 1177TIP3   OH2 3494   0.032   4.483   0.386
 1177TIP3    H1 3495  -0.009   4.530   0.459
 1177TIP3    H2 3496  -0.027   4.498   0.312
 1178TIP3   OH2 3497   0.281   3.488   0.137
 1178TIP3    H1 3498   0.216   3.552   0.109
 1178TIP3    H2 3499   0.364   3.535   0.133
 1179TIP3   OH2 3500   3.339   4.307   3.156
 1179TIP3    H1 3501   3.303   4.391   3.183
 1179TIP3    H2 3502   3.379   4.271   3.235
 1180TIP3   OH2 3503   1.504   3.511   4.357
 1180TIP3    H1 3504   1.597   3.490   4.371
 1180TIP3    H2 3505   1.474   3.448   4.292
 1181TIP3   OH2 3506   5.260   1.673   4.077
 1181TIP3    H1 3507   5.315   1.613   4.026
 1181TIP3    H2 3508   5.315   1.750   4.092
 1182TIP3   OH2 3509   2.632   6.445   5.529
 1182TIP3    H1 3510   2.614   6.361   5.485
 1182TIP3    H2 3511   2.728   6.450   5.530
 1183TIP3   OH2 3512   6.008   3.361   1.518
 1183TIP3    H1 3513   6.051   3.336   1.600
 1183TIP3    H2 3514   5.974   3.449   1.536
 1184TIP3   OH2 3515   5.769   3.538   5.783
 1184TIP3    H1 3516   5.809   3.572   5.863
 1184TIP3    H2 3517   5.680   3.513   5.809
 1185TIP3   OH2 3518   1.001   5.482   3.017
 1185TIP3    H1 3519   0.990   5.470   2.923
 1185TIP3    H2 3520   0.917   5.516   3.047
 1186TIP3   OH2 3521   2.339   4.791   5.050
 1186TIP3    H1 3522   2.272   4.829   5.108
 1186TIP3    H2 3523   2.323   4.831   4.965
 1187TIP3   OH2 3524   1.497   4.871   4.441
 1187TIP3    H1 3525   1.585   4.901   4.463
 1187TIP3    H2 3526   1.506   4.778   4.424
 1188TIP3   OH2 3527   0.849   5.639   2.322
 1188TIP3    H1 3528   0.885   5.578   2.386
 1188TIP3    H2 3529   0.886   5.612   2.238
 1189TIP3   OH2 3530   0.077   0.683   3.593
 1189TIP3    H1 3531   0.144   0.751   3.603
 1189TIP3    H2 3532  -0.005   0.727   3.616
 1190TIP3   OH2 3533   4.188   1.513   2.876
 1190TIP3    H1 3534   4.120   1.460   2.917
 1190TIP3    H2 3535   4.252   1.528   2.945
 1191TIP3   OH2 3536   3.648   3.456   2.973
 1191TIP3    H1 3537   3.683   3.403   3.044
 1191TIP3    H2 3538   3.699   3.537   2.975
 1192TIP3   OH2 3539   3.432   3.435   1.035
 1192TIP3    H1 3540   3.416   3.485   0.955
 1192TIP3    H2 3541   3.389   3.351   1.019
 1193TIP3   OH2 3542   0.664   6.008  -0.016
 1193TIP3    H1 3543   0.709   6.064   0.048
 1193TIP3    H2 3544   0.733   5.951  -0.049
 1194TIP3   OH2 3545   0.852   5.190   2.076
 1194TIP3    H1 3546   0.874   5.175   2.169
 1194TIP3    H2 3547   0.821   5.280   2.073
 1195TIP3   OH2 3548   1.834   2.903   4.687
 1195TIP3    H1 3549   1.758   2.856   4.720
 1195TIP3    H2 3550   1.887   2.922   4.764
 1196TIP3   OH2 3551   5.829   0.258   2.657
 1196TIP3    H1 3552   5.805   0.348   2.633
 1196TIP3    H2 3553   5.786   0.204   2.590
 1197TIP3   OH2 3554   5.650   6.069   3.787
 1197TIP3    H1 3555   5.554   6.063   3.786
 1197TIP3    H2 3556   5.672   6.103   3.700
 1198TIP3   OH2 3557   2.158   1.843   1.457
 1198TIP3    H1 3558   2.096   1.770   1.452
 1198TIP3    H2 3559   2.222   1.816   1.523
 1199TIP3   OH2 3560   4.746   4.820   5.100
 1199TIP3    H1 3561   4.783   4.835   5.013
 1199TIP3    H2 3562   4.819   4.783   5.151
 1200TIP3   OH2 3563   3.919   2.414   5.410
 1200TIP3    H1 3564   3.961   2.437   5.327
 1200TIP3    H2 3565   3.828   2.397   5.387
 1201TIP3   OH2 3566   1.254   5.409   4.162
 1201TIP3    H1 3567   1.277   5.499   4.186
 1201TIP3    H2 3568   1.271   5.358   4.240
 1202TIP3   OH2 3569   3.197   4.312   5.832
 1202TIP3    H1 3570   3.274   4.353   5.870
 1202TIP3    H2 3571   3.227   4.274   5.750
 1203TIP3   OH2 3572   3.948   0.923   2.608
 1203TIP3    H1 3573   3.908   0.985   2.548
 1203TIP3    H2 3574   4.018   0.972   2.651
 1204TIP3   OH2 3575   1.152   2.098   4.521
 1204TIP3    H1 3576   1.235   2.071   4.561
 1204TIP3    H2 3577   1.095   2.115   4.596
 1205TIP3   OH2 3578   0.570   6.551   5.652
 1205TIP3    H1 3579   0.627   6.585   5.721
 1205TIP3    H2 3580   0.595   6.459   5.641
 1206TIP3   OH2 3581   2.402   2.511   1.972
 1206TIP3    H1 3582   2.349   2.432   1.971
 1206TIP3    H2 3583   2.488   2.482   2.001
 1207TIP3   OH2 3584   3.295   1.012   2.819
 1207TIP3    H1 3585   3.269   1.003   2.910
 1207TIP3    H2 3586   3.293   1.107   2.803
 1208TIP3   OH2 3587   1.050   6.042   2.896
 1208TIP3    H1 3588   1.043   6.117   2.956
 1208TIP3    H2 3589   1.137   6.049   2.859
 1209TIP3   OH2 3590   2.718   4.350   4.193
 1209TIP3    H1 3591   2.761   4.338   4.277
 1209TIP3    H2 3592   2.690   4.442   4.194
 1210TIP3   OH2 3593   3.947   4.138   5.720
 1210TIP3    H1 3594   4.028   4.169   5.681
 1210TIP3    H2 3595   3.878   4.188   5.674
 1211TIP3   OH2 3596   2.087   2.833   5.843
 1211TIP3    H1 3597   2.036   2.778   5.784
 1211TIP3    H2 3598   2.110   2.776   5.917
 1212TIP3   OH2 3599   2.831   1.868   2.134
 1212TIP3    H1 3600   2.742   1.851   2.165
 1212TIP3    H2 3601   2.885   1.867   2.213
 1213TIP3   OH2 3602   5.676   0.218   1.859
 1213TIP3    H1 3603   5.750   0.169   1.893
 1213TIP3    H2 3604   5.684   0.210   1.764
 1214TIP3   OH2 3605   7.129   2.001   4.995
 1214TIP3    H1 3606   7.141   2.020   5.087
 1214TIP3    H2 3607   7.053   1.942   4.992
 1215TIP3   OH2 3608   5.380   4.235   3.618
 1215TIP3    H1 3609   5.359   4.143   3.602
 1215TIP3    H2 3610   5.475   4.239   3.618
 1216TIP3   OH2 3611   3.183   3.524   0.529
 1216TIP3    H1 3612   3.109   3.464   0.516
 1216TIP3    H2 3613   3.216   3.539   0.440
 1217TIP3   OH2 3614   5.415   3.897   4.952
 1217TIP3    H1 3615   5.327   3.867   4.975
 1217TIP3    H2 3616   5.418   3.987   4.983
 1218TIP3   OH2 3617   6.243   5.136   5.517
 1218TIP3    H1 3618   6.216   5.063   5.462
 1218TIP3    H2 3619   6.211   5.214   5.471
 1219TIP3   OH2 3620   4.700   2.403   0.543
 1219TIP3    H1 3621   4.650   2.349   0.482
 1219TIP3    H2 3622   4.757   2.456   0.487
 1220TIP3   OH2 3623   7.016   3.605   0.373
 1220TIP3    H1 3624   7.038   3.536   0.435
 1220TIP3    H2 3625   6.999   3.682   0.428
 1221TIP3   OH2 3626   5.462   3.512   3.933
 1221TIP3    H1 3627   5.554   3.488   3.938
 1221TIP3    H2 3628   5.456   3.571   3.857
 1222TIP3   OH2 3629   1.934   6.555   1.561
 1222TIP3    H1 3630   1.875   6.627   1.584
 1222TIP3    H2 3631   1.891   6.477   1.595
 1223TIP3   OH2 3632   4.758   2.237   4.613
 1223TIP3    H1 3633   4.832   2.178   4.597
 1223TIP3    H2 3634   4.794   2.307   4.667
 1224TIP3   OH2 3635   0.088   6.535   2.422
 1224TIP3    H1 3636   0.181   6.535   2.401
 1224TIP3    H2 3637   0.047   6.484   2.352
 1225TIP3   OH2 3638   4.477   1.540   4.831
 1225TIP3    H1 3639   4.469   1.602   4.758
 1225TIP3    H2 3640   4.457   1.455   4.792
 1226TIP3   OH2 3641   0.805   1.584   0.957
 1226TIP3    H1 3642   0.876   1.561   0.898
 1226TIP3    H2 3643   0.842   1.653   1.013
 1227TIP3   OH2 3644   5.263   4.360   0.599
 1227TIP3    H1 3645   5.241   4.421   0.669
 1227TIP3    H2 3646   5.199   4.377   0.530
 1228TIP3   OH2 3647   0.997   5.953   4.029
 1228TIP3    H1 3648   0.976   6.044   4.008
 1228TIP3    H2 3649   1.072   5.932   3.974
 1229TIP3   OH2 3650   1.933   4.929   1.791
 1229TIP3    H1 3651   1.881   4.929   1.711
 1229TIP3    H2 3652   2.005   4.989   1.773
 1230TIP3   OH2 3653   4.590   0.732   4.049
 1230TIP3    H1 3654   4.639   0.704   3.971
 1230TIP3    H2 3655   4.658   0.748   4.115
 1231TIP3   OH2 3656   6.089   1.067   2.642
 1231TIP3    H1 3657   6.064   1.158   2.628
 1231TIP3    H2 3658   6.115   1.035   2.556
 1232TIP3   OH2 3659   5.140   6.265   4.805
 1232TIP3    H1 3660   5.234   6.270   4.820
 1232TIP3    H2 3661   5.123   6.171   4.796
 1233TIP3   OH2 3662   3.338   3.642   2.723
 1233TIP3    H1 3663   3.306   3.604   2.805
 1233TIP3    H2 3664   3.282   3.718   2.709
 1234TIP3   OH2 3665   0.011   5.194   0.308
 1234TIP3    H1 3666   0.070   5.124   0.337
 1234TIP3    H2 3667  -0.006   5.174   0.216
 1235TIP3   OH2 3668   2.048   6.658   2.367
 1235TIP3    H1 3669   2.005   6.693   2.289
 1235TIP3    H2 3670   2.052   6.563   2.351
 1236TIP3   OH2 3671   2.216   3.719   2.728
 1236TIP3    H1 3672   2.232   3.788   2.793
 1236TIP3    H2 3673   2.129   3.739   2.693
 1237TIP3   OH2 3674   6.048   3.107   1.178
 1237TIP3    H1 3675   6.055   3.193   1.219
 1237TIP3    H2 3676   6.003   3.124   1.095
 1238TIP3   OH2 3677   4.005   6.368   2.625
 1238TIP3    H1 3678   4.061   6.322   2.687
 1238TIP3    H2 3679   3.965   6.298   2.573
 1239TIP3   OH2 3680   1.502   3.741   1.763
 1239TIP3    H1 3681   1.411   3.758   1.785
 1239TIP3    H2 3682   1.535   3.824   1.728
 1240TIP3   OH2 3683   6.985   0.021   3.293
 1240TIP3    H1 3684   7.044   0.081   3.338
 1240TIP3    H2 3685   7.020   0.016   3.204
 1241TIP3   OH2 3686   1.097   0.121   0.897
 1241TIP3    H1 3687   1.046   0.041   0.891
 1241TIP3    H2 3688   1.080   0.167   0.815
 1242TIP3   OH2 3689   5.832   1.197   4.505
 1242TIP3    H1 3690   5.813   1.130   4.440
 1242TIP3    H2 3691   5.843   1.148   4.587
 1243TIP3   OH2 3692   0.177   2.419   4.645
 1243TIP3    H1 3693   0.231   2.427   4.567
 1243TIP3    H2 3694   0.239   2.414   4.717
 1244TIP3   OH2 3695   0.327   3.418   2.203
 1244TIP3    H1 3696   0.301   3.468   2.281
 1244TIP3    H2 3697   0.410   3.378   2.227
 1245TIP3   OH2 3698   4.305   6.476   3.088
 1245TIP3    H1 3699   4.259   6.506   3.010
 1245TIP3    H2 3700   4.326   6.556   3.136
 1246TIP3   OH2 3701   2.793   2.027   0.498
 1246TIP3    H1 3702   2.822   1.936   0.509
 1246TIP3    H2 3703   2.843   2.076   0.563
 1247TIP3   OH2 3704   3.614   6.591   3.385
 1247TIP3    H1 3705   3.638   6.570   3.476
 1247TIP3    H2 3706   3.535   6.538   3.369
 1248TIP3   OH2 3707   4.686   1.829   3.247
 1248TIP3    H1 3708   4.604   1.811   3.293
 1248TIP3    H2 3709   4.659   1.852   3.158
 1249TIP3   OH2 3710   4.465   1.491   0.828
 1249TIP3    H1 3711   4.485   1.584   0.830
 1249TIP3    H2 3712   4.545   1.450   0.794
 1250TIP3   OH2 3713   4.904   0.931   3.211
 1250TIP3    H1 3714   4.954   0.899   3.136
 1250TIP3    H2 3715   4.870   0.851   3.252
 1251TIP3   OH2 3716   5.850   6.643   0.354
 1251TIP3    H1 3717   5.830   6.586   0.280
 1251TIP3    H2 3718   5.927   6.693   0.325
 1252TIP3   OH2 3719   3.362   2.457   0.201
 1252TIP3    H1 3720   3.300   2.484   0.133
 1252TIP3    H2 3721   3.353   2.362   0.205
 1253TIP3   OH2 3722   6.983   2.320   0.311
 1253TIP3    H1 3723   7.072   2.286   0.317
 1253TIP3    H2 3724   6.928   2.242   0.308
 1254TIP3   OH2 3725   0.609   4.250   1.135
 1254TIP3    H1 3726   0.562   4.169   1.151
 1254TIP3    H2 3727   0.653   4.237   1.051
 1255TIP3   OH2 3728   4.333   6.485   4.820
 1255TIP3    H1 3729   4.394   6.428   4.772
 1255TIP3    H2 3730   4.368   6.489   4.909
 1256TIP3   OH2 3731   1.158   1.214   4.299
 1256TIP3    H1 3732   1.106   1.136   4.320
 1256TIP3    H2 3733   1.249   1.187   4.313
 1257TIP3   OH2 3734   6.213   1.988   0.003
 1257TIP3    H1 3735   6.183   2.011  -0.085
 1257TIP3    H2 3736   6.205   2.069   0.053
 1258TIP3   OH2 3737   1.544   1.148   2.530
 1258TIP3    H1 3738   1.629   1.112   2.506
 1258TIP3    H2 3739   1.509   1.184   2.448
 1259TIP3   OH2 3740   5.087   1.914   5.733
 1259TIP3    H1 3741   5.144   1.962   5.794
 1259TIP3    H2 3742   5.083   1.969   5.655
 1260TIP3   OH2 3743   0.084   2.429   4.945
 1260TIP3    H1 3744   0.150   2.498   4.953
 1260TIP3    H2 3745   0.098   2.394   4.857
 1261TIP3   OH2 3746   3.495   2.786   2.075
 1261TIP3    H1 3747   3.425   2.760   2.135
 1261TIP3    H2 3748   3.462   2.865   2.032
 1262TIP3   OH2 3749   2.340   2.014   1.175
 1262TIP3    H1 3750   2.401   2.048   1.239
 1262TIP3    H2 3751   2.374   2.044   1.091
 1263TIP3   OH2 3752   0.494   4.574   1.221
 1263TIP3    H1 3753   0.461   4.566   1.311
 1263TIP3    H2 3754   0.429   4.529   1.168
 1264TIP3   OH2 3755   0.140   6.269   4.650
 1264TIP3    H1 3756   0.111   6.178   4.650
 1264TIP3    H2 3757   0.164   6.287   4.742
 1265TIP3   OH2 3758   4.680   4.221   4.248
 1265TIP3    H1 3759   4.734   4.187   4.176
 1265TIP3    H2 3760   4.635   4.144   4.283
 1266TIP3   OH2 3761   4.025   0.145   1.724
 1266TIP3    H1 3762   4.087   0.073   1.712
 1266TIP3    H2 3763   4.057   0.214   1.666
 1267TIP3   OH2 3764   1.844   4.479   3.203
 1267TIP3    H1 3765   1.879   4.517   3.284
 1267TIP3    H2 3766   1.752   4.463   3.222
 1268TIP3   OH2 3767   0.264   2.314   5.797
 1268TIP3    H1 3768   0.231   2.329   5.709
 1268TIP3    H2 3769   0.218   2.379   5.851
 1269TIP3   OH2 3770   2.694   4.373   3.308
 1269TIP3    H1 3771   2.660   4.425   3.235
 1269TIP3    H2 3772   2.737   4.438   3.364
 1270TIP3   OH2 3773   5.964   1.744   0.718
 1270TIP3    H1 3774   5.947   1.695   0.637
 1270TIP3    H2 3775   6.027   1.811   0.692
 1271TIP3   OH2 3776   0.463   3.357   5.000
 1271TIP3    H1 3777   0.395   3.329   5.062
 1271TIP3    H2 3778   0.419   3.358   4.915
 1272TIP3   OH2 3779   4.923   3.804   5.908
 1272TIP3    H1 3780   4.959   3.854   5.835
 1272TIP3    H2 3781   4.830   3.827   5.909
 1273TIP3   OH2 3782   2.122   4.911   2.157
 1273TIP3    H1 3783   2.199   4.924   2.102
 1273TIP3    H2 3784   2.094   5.000   2.181
 1274TIP3   OH2 3785   0.361   2.239   3.363
 1274TIP3    H1 3786   0.371   2.333   3.381
 1274TIP3    H2 3787   0.450   2.206   3.358
 1275TIP3   OH2 3788   3.409   5.092   2.241
 1275TIP3    H1 3789   3.433   5.151   2.170
 1275TIP3    H2 3790   3.448   5.008   2.217
 1276TIP3   OH2 3791   4.078   2.235   4.764
 1276TIP3    H1 3792   4.001   2.194   4.805
 1276TIP3    H2 3793   4.152   2.200   4.813
 1277TIP3   OH2 3794   0.621   5.254   1.314
 1277TIP3    H1 3795   0.706   5.286   1.285
 1277TIP3    H2 3796   0.588   5.321   1.373
 1278TIP3   OH2 3797   5.726   4.130   1.307
 1278TIP3    H1 3798   5.663   4.136   1.379
 1278TIP3    H2 3799   5.748   4.037   1.301
 1279TIP3   OH2 3800   0.799   4.252   4.369
 1279TIP3    H1 3801   0.826   4.253   4.461
 1279TIP3    H2 3802   0.727   4.316   4.365
 1280TIP3   OH2 3803   2.434   4.296   4.152
 1280TIP3    H1 3804   2.526   4.303   4.180
 1280TIP3    H2 3805   2.438   4.255   4.066
 1281TIP3   OH2 3806   3.934   4.170   1.536
 1281TIP3    H1 3807   3.852   4.134   1.568
 1281TIP3    H2 3808   4.001   4.137   1.595
 1282TIP3   OH2 3809   3.049   4.095   1.238
 1282TIP3    H1 3810   3.051   4.046   1.320
 1282TIP3    H2 3811   2.979   4.160   1.251
 1283TIP3   OH2 3812   6.232   1.175   0.960
 1283TIP3    H1 3813   6.275   1.213   1.036
 1283TIP3    H2 3814   6.228   1.081   0.979
 1284TIP3   OH2 3815   3.592   2.983   2.381
 1284TIP3    H1 3816   3.611   2.937   2.299
 1284TIP3    H2 3817   3.678   2.991   2.423
 1285TIP3   OH2 3818   4.499   1.234   0.217
 1285TIP3    H1 3819   4.560   1.161   0.209
 1285TIP3    H2 3820   4.473   1.254   0.127
 1286TIP3   OH2 3821   5.202   4.049   2.719
 1286TIP3    H1 3822   5.251   4.125   2.751
 1286TIP3    H2 3823   5.268   3.980   2.712
 1287TIP3   OH2 3824   1.295   4.914   3.664
 1287TIP3    H1 3825   1.245   4.950   3.590
 1287TIP3    H2 3826   1.337   4.836   3.628
 1288TIP3   OH2 3827   5.036   2.230   4.364
 1288TIP3    H1 3828   5.027   2.310   4.416
 1288TIP3    H2 3829   5.052   2.161   4.429
 1289TIP3   OH2 3830   2.710   3.107   1.737
 1289TIP3    H1 3831   2.692   3.184   1.791
 1289TIP3    H2 3832   2.638   3.047   1.756
 1290TIP3   OH2 3833   4.774   6.738   4.561
 1290TIP3    H1 3834   4.701   6.798   4.542
 1290TIP3    H2 3835   4.742   6.652   4.533
 1291TIP3   OH2 3836   1.096   5.204   5.395
 1291TIP3    H1 3837   1.074   5.129   5.339
 1291TIP3    H2 3838   1.179   5.179   5.436
 1292TIP3   OH2 3839   7.098   6.591   4.363
 1292TIP3    H1 3840   7.085   6.685   4.358
 1292TIP3    H2 3841   7.144   6.577   4.445
 1293TIP3   OH2 3842   1.091   6.271   3.059
 1293TIP3    H1 3843   1.005   6.305   3.082
 1293TIP3    H2 3844   1.134   6.344   3.015
 1294TIP3   OH2 3845   6.800   5.286   4.927
 1294TIP3    H1 3846   6.853   5.231   4.984
 1294TIP3    H2 3847   6.844   5.282   4.842
 1295TIP3   OH2 3848   3.498   2.266   5.052
 1295TIP3    H1 3849   3.514   2.359   5.034
 1295TIP3    H2 3850   3.445   2.266   5.132
 1296TIP3   OH2 3851   1.772   6.377   0.505
 1296TIP3    H1 3852   1.810   6.433   0.573
 1296TIP3    H2 3853   1.816   6.292   0.517
 1297TIP3   OH2 3854   5.463   2.891   0.229
 1297TIP3    H1 3855   5.556   2.915   0.230
 1297TIP3    H2 3856   5.436   2.901   0.138
 1298TIP3   OH2 3857   3.064   6.670   3.744
 1298TIP3    H1 3858   3.108   6.747   3.709
 1298TIP3    H2 3859   3.038   6.619   3.667
 1299TIP3   OH2 3860   1.060   3.399   5.150
 1299TIP3    H1 3861   1.021   3.334   5.091
 1299TIP3    H2 3862   1.102   3.462   5.091
 1300TIP3   OH2 3863   5.952   3.246   5.136
 1300TIP3    H1 3864   5.859   3.270   5.139
 1300TIP3    H2 3865   5.988   3.282   5.217
 1301TIP3   OH2 3866   0.584   2.950   3.079
 1301TIP3    H1 3867   0.558   3.017   3.016
 1301TIP3    H2 3868   0.516   2.954   3.147
 1302TIP3   OH2 3869   4.740   6.010   4.693
 1302TIP3    H1 3870   4.746   6.095   4.736
 1302TIP3    H2 3871   4.824   5.969   4.708
 1303TIP3   OH2 3872   5.743   1.886   5.019
 1303TIP3    H1 3873   5.742   1.847   5.106
 1303TIP3    H2 3874   5.778   1.974   5.033
 1304TIP3   OH2 3875   0.351   4.876   1.961
 1304TIP3    H1 3876   0.389   4.963   1.973
 1304TIP3    H2 3877   0.284   4.869   2.029
 1305TIP3   OH2 3878   2.271   0.677   3.869
 1305TIP3    H1 3879   2.218   0.729   3.930
 1305TIP3    H2 3880   2.296   0.599   3.919
 1306TIP3   OH2 3881   1.115   4.722   5.341
 1306TIP3    H1 3882   1.098   4.794   5.401
 1306TIP3    H2 3883   1.079   4.752   5.257
 1307TIP3   OH2 3884   1.347   0.421   4.288
 1307TIP3    H1 3885   1.293   0.347   4.261
 1307TIP3    H2 3886   1.295   0.467   4.354
 1308TIP3   OH2 3887   6.645   4.101   4.357
 1308TIP3    H1 3888   6.615   4.095   4.447
 1308TIP3    H2 3889   6.690   4.186   4.352
 1309TIP3   OH2 3890   4.941   4.321   1.705
 1309TIP3    H1 3891   4.999   4.248   1.686
 1309TIP3    H2 3892   4.863   4.281   1.742
 1310TIP3   OH2 3893   4.775   6.025   5.307
 1310TIP3    H1 3894   4.746   5.967   5.377
 1310TIP3    H2 3895   4.795   6.108   5.350
 1311TIP3   OH2 3896   2.499   4.474   4.421
 1311TIP3    H1 3897   2.552   4.485   4.500
 1311TIP3    H2 3898   2.484   4.379   4.415
 1312TIP3   OH2 3899   2.132   6.586   3.293
 1312TIP3    H1 3900   2.160   6.659   3.239
 1312TIP3    H2 3901   2.037   6.582   3.282
 1313TIP3   OH2 3902   2.601   2.863   3.453
 1313TIP3    H1 3903   2.544   2.875   3.377
 1313TIP3    H2 3904   2.649   2.782   3.434
 1314TIP3   OH2 3905   2.028   3.675   1.818
 1314TIP3    H1 3906   1.971   3.702   1.891
 1314TIP3    H2 3907   2.056   3.757   1.779
 1315TIP3   OH2 3908   2.328   5.714   1.701
 1315TIP3    H1 3909   2.311   5.713   1.795
 1315TIP3    H2 3910   2.413   5.757   1.693
 1316TIP3   OH2 3911   2.691   1.307   1.073
 1316TIP3    H1 3912   2.663   1.383   1.124
 1316TIP3    H2 3913   2.665   1.232   1.126
 1317TIP3   OH2 3914   6.951   6.301   3.366
 1317TIP3    H1 3915   6.992   6.336   3.445
 1317TIP3    H2 3916   6.981   6.359   3.296
 1318TIP3   OH2 3917   4.618   0.967   3.770
 1318TIP3    H1 3918   4.612   0.874   3.794
 1318TIP3    H2 3919   4.647   1.011   3.849
 1319TIP3   OH2 3920   7.196   2.686   1.810
 1319TIP3    H1 3921   7.119   2.630   1.808
 1319TIP3    H2 3922   7.181   2.750   1.740
 1320TIP3   OH2 3923   3.069   2.113   1.878
 1320TIP3    H1 3924   3.108   2.185   1.927
 1320TIP3    H2 3925   3.058   2.147   1.790
 1321TIP3   OH2 3926   2.355   4.382   3.231
 1321TIP3    H1 3927   2.349   4.428   3.315
 1321TIP3    H2 3928   2.272   4.400   3.187
 1322TIP3   OH2 3929   0.844   4.336   0.607
 1322TIP3    H1 3930   0.752   4.319   0.628
 1322TIP3    H2 3931   0.844   4.426   0.572
 1323TIP3   OH2 3932   1.890   1.894   3.104
 1323TIP3    H1 3933   1.838   1.813   3.100
 1323TIP3    H2 3934   1.953   1.886   3.032
 1324TIP3   OH2 3935   2.272   4.897   0.857
 1324TIP3    H1 3936   2.325   4.973   0.836
 1324TIP3    H2 3937   2.224   4.922   0.936
 1325TIP3   OH2 3938   1.048   0.109   2.702
 1325TIP3    H1 3939   1.111   0.182   2.697
 1325TIP3    H2 3940   1.065   0.058   2.623
 1326TIP3   OH2 3941   5.057   6.147   2.057
 1326TIP3    H1 3942   5.021   6.094   2.128
 1326TIP3    H2 3943   5.005   6.227   2.058
 1327TIP3   OH2 3944   1.825   0.158   1.134
 1327TIP3    H1 3945   1.896   0.128   1.191
 1327TIP3    H2 3946   1.828   0.098   1.060
 1328TIP3   OH2 3947   1.197   1.718   2.895
 1328TIP3    H1 3948   1.133   1.726   2.824
 1328TIP3    H2 3949   1.265   1.661   2.861
 1329TIP3   OH2 3950   1.952   2.642   0.570
 1329TIP3    H1 3951   1.991   2.590   0.641
 1329TIP3    H2 3952   1.985   2.601   0.490
 1330TIP3   OH2 3953   4.626   5.179   2.814
 1330TIP3    H1 3954   4.663   5.138   2.892
 1330TIP3    H2 3955   4.672   5.139   2.741
 1331TIP3   OH2 3956   0.662   4.384   5.722
 1331TIP3    H1 3957   0.624   4.345   5.644
 1331TIP3    H2 3958   0.694   4.309   5.773
 1332TIP3   OH2 3959   6.573   0.100   2.116
 1332TIP3    H1 3960   6.634   0.172   2.133
 1332TIP3    H2 3961   6.628   0.022   2.114
 1333TIP3   OH2 3962   2.551   1.551   3.160
 1333TIP3    H1 3963   2.542   1.531   3.067
 1333TIP3    H2 3964   2.465   1.585   3.186
 1334TIP3   OH2 3965   2.186   5.332   5.303
 1334TIP3    H1 3966   2.100   5.300   5.280
 1334TIP3    H2 3967   2.246   5.290   5.241
 1335TIP3   OH2 3968   5.979   3.820   4.996
 1335TIP3    H1 3969   5.986   3.778   4.911
 1335TIP3    H2 3970   5.961   3.912   4.977
 1336TIP3   OH2 3971   1.871   5.629   5.837
 1336TIP3    H1 3972   1.877   5.724   5.840
 1336TIP3    H2 3973   1.777   5.611   5.837
 1337TIP3   OH2 3974   4.133   4.671   3.933
 1337TIP3    H1 3975   4.200   4.604   3.943
 1337TIP3    H2 3976   4.109   4.695   4.023
 1338TIP3   OH2 3977   1.659   3.237   1.493
 1338TIP3    H1 3978   1.731   3.223   1.432
 1338TIP3    H2 3979   1.637   3.149   1.525
 1339TIP3   OH2 3980   1.929   5.583   2.759
 1339TIP3    H1 3981   1.958   5.492   2.750
 1339TIP3    H2 3982   1.990   5.622   2.821
 1340TIP3   OH2 3983   4.891   2.411   5.265
 1340TIP3    H1 3984   4.912   2.361   5.186
 1340TIP3    H2 3985   4.841   2.486   5.232
 1341TIP3   OH2 3986   2.201   1.945   1.826
 1341TIP3    H1 3987   2.259   2.020   1.846
 1341TIP3    H2 3988   2.250   1.894   1.762
 1342TIP3   OH2 3989   0.944   1.277   4.859
 1342TIP3    H1 3990   0.980   1.206   4.805
 1342TIP3    H2 3991   0.890   1.232   4.923
 1343TIP3   OH2 3992   5.761   0.788   4.874
 1343TIP3    H1 3993   5.823   0.728   4.916
 1343TIP3    H2 3994   5.791   0.875   4.900
 1344TIP3   OH2 3995   3.777   0.172   1.383
 1344TIP3    H1 3996   3.792   0.230   1.308
 1344TIP3    H2 3997   3.753   0.088   1.343
 1345TIP3   OH2 3998   0.046   4.147   4.277
 1345TIP3    H1 3999   0.067   4.235   4.308
 1345TIP3    H2 4000   0.129   4.100   4.282
 1346TIP3   OH2 4001   2.149   4.382   0.722
 1346TIP3    H1 4002   2.087   4.398   0.652
 1346TIP3    H2 4003   2.174   4.469   0.753
 1347TIP3   OH2 4004   5.727   0.912   1.016
 1347TIP3    H1 4005   5.707   0.923   0.923
 1347TIP3    H2 4006   5.677   0.981   1.060
 1348TIP3   OH2 4007   6.574   5.792   1.553
 1348TIP3    H1 4008   6.510   5.723   1.566
 1348TIP3    H2 4009   6.537   5.868   1.598
 1349TIP3   OH2 4010   4.433   5.543   2.709
 1349TIP3    H1 4011   4.512   5.541   2.657
 1349TIP3    H2 4012   4.427   5.633   2.741
 1350TIP3   OH2 4013   2.443   6.618   3.644
 1350TIP3    H1 4014   2.351   6.614   3.617
 1350TIP3    H2 4015   2.440   6.619   3.740
 1351TIP3   OH2 4016   6.013   5.198   4.840
 1351TIP3    H1 4017   5.952   5.137   4.881
 1351TIP3    H2 4018   6.058   5.146   4.774
 1352TIP3   OH2 4019   1.494   6.109   4.282
 1352TIP3    H1 4020   1.565   6.135   4.223
 1352TIP3    H2 4021   1.512   6.018   4.304
 1353TIP3   OH2 4022   0.088   5.723   4.498
 1353TIP3    H1 4023   0.022   5.655   4.487
 1353TIP3    H2 4024   0.165   5.688   4.453
 1354TIP3   OH2 4025   2.740   2.075   3.388
 1354TIP3    H1 4026   2.807   2.144   3.388
 1354TIP3    H2 4027   2.710   2.073   3.297
 1355TIP3   OH2 4028   6.127   5.421   1.276
 1355TIP3    H1 4029   6.084   5.446   1.358
 1355TIP3    H2 4030   6.141   5.504   1.230
 1356TIP3   OH2 4031   4.098   2.823   5.448
 1356TIP3    H1 4032   4.017   2.776   5.469
 1356TIP3    H2 4033   4.166   2.756   5.450
 1357TIP3   OH2 4034   2.217   5.332   0.100
 1357TIP3    H1 4035   2.217   5.413   0.150
 1357TIP3    H2 4036   2.237   5.263   0.164
 1358TIP3   OH2 4037   2.046   2.876   2.455
 1358TIP3    H1 4038   2.066   2.833   2.538
 1358TIP3    H2 4039   2.115   2.942   2.446
 1359TIP3   OH2 4040   0.728   3.651   1.298
 1359TIP3    H1 4041   0.810   3.603   1.309
 1359TIP3    H2 4042   0.679   3.600   1.233
 1360TIP3   OH2 4043   3.783   2.525   1.435
 1360TIP3    H1 4044   3.777   2.604   1.381
 1360TIP3    H2 4045   3.707   2.472   1.408
 1361TIP3   OH2 4046   5.965   0.366   2.016
 1361TIP3    H1 4047   6.049   0.350   1.974
 1361TIP3    H2 4048   5.902   0.313   1.966
 1362TIP3   OH2 4049   2.714   2.950   4.974
 1362TIP3    H1 4050   2.735   2.860   4.996
 1362TIP3    H2 4051   2.686   2.946   4.882
 1363TIP3   OH2 4052   6.477   1.827   4.376
 1363TIP3    H1 4053   6.450   1.741   4.409
 1363TIP3    H2 4054   6.519   1.870   4.451
 1364TIP3   OH2 4055   6.654   5.259   4.111
 1364TIP3    H1 4056   6.574   5.270   4.162
 1364TIP3    H2 4057   6.649   5.326   4.043
 1365TIP3   OH2 4058   0.995   2.736   1.372
 1365TIP3    H1 4059   0.908   2.727   1.411
 1365TIP3    H2 4060   1.052   2.687   1.430
 1366TIP3   OH2 4061   2.496   6.703   4.587
 1366TIP3    H1 4062   2.512   6.609   4.595
 1366TIP3    H2 4063   2.494   6.736   4.677
 1367TIP3   OH2 4064   1.862   5.816   1.698
 1367TIP3    H1 4065   1.932   5.767   1.656
 1367TIP3    H2 4066   1.811   5.853   1.626
 1368TIP3   OH2 4067   0.846   6.667   1.345
 1368TIP3    H1 4068   0.796   6.711   1.276
 1368TIP3    H2 4069   0.846   6.730   1.418
 1369TIP3   OH2 4070   4.924   3.735   4.620
 1369TIP3    H1 4071   5.015   3.762   4.632
 1369TIP3    H2 4072   4.884   3.806   4.569
 1370TIP3   OH2 4073   6.336   3.670   4.651
 1370TIP3    H1 4074   6.414   3.721   4.629
 1370TIP3    H2 4075   6.312   3.699   4.739
 1371TIP3   OH2 4076   2.760   2.538   0.661
 1371TIP3    H1 4077   2.808   2.621   0.652
 1371TIP3    H2 4078   2.744   2.530   0.755
 1372TIP3   OH2 4079   0.922   0.559   5.155
 1372TIP3    H1 4080   0.898   0.646   5.186
 1372TIP3    H2 4081   0.981   0.525   5.221
 1373TIP3   OH2 4082   3.743   5.075   4.234
 1373TIP3    H1 4083   3.745   5.008   4.301
 1373TIP3    H2 4084   3.650   5.098   4.226
 1374TIP3   OH2 4085   0.162   5.027   3.225
 1374TIP3    H1 4086   0.188   4.937   3.242
 1374TIP3    H2 4087   0.091   5.043   3.288
 1375TIP3   OH2 4088   1.598   5.377   4.145
 1375TIP3    H1 4089   1.619   5.467   4.171
 1375TIP3    H2 4090   1.595   5.380   4.049
 1376TIP3   OH2 4091   1.578   3.944   2.939
 1376TIP3    H1 4092   1.601   4.027   2.981
 1376TIP3    H2 4093   1.656   3.919   2.890
 1377TIP3   OH2 4094   4.090   1.186   2.021
 1377TIP3    H1 4095   4.044   1.103   2.007
 1377TIP3    H2 4096   4.034   1.234   2.082
 1378TIP3   OH2 4097   0.249   2.173   1.111
 1378TIP3    H1 4098   0.244   2.190   1.205
 1378TIP3    H2 4099   0.193   2.240   1.072
 1379TIP3   OH2 4100   4.670   4.291   0.658
 1379TIP3    H1 4101   4.620   4.307   0.739
 1379TIP3    H2 4102   4.713   4.207   0.673
 1380TIP3   OH2 4103   1.976   0.624   1.603
 1380TIP3    H1 4104   2.039   0.697   1.603
 1380TIP3    H2 4105   1.930   0.633   1.519
 1381TIP3   OH2 4106   6.927   5.117   1.305
 1381TIP3    H1 4107   7.022   5.119   1.310
 1381TIP3    H2 4108   6.906   5.027   1.278
 1382TIP3   OH2 4109   4.739   3.243   0.434
 1382TIP3    H1 4110   4.786   3.201   0.362
 1382TIP3    H2 4111   4.797   3.313   0.463
 1383TIP3   OH2 4112   3.763   0.209   1.830
 1383TIP3    H1 4113   3.845   0.180   1.791
 1383TIP3    H2 4114   3.710   0.129   1.835
 1384TIP3   OH2 4115   1.643   2.365   0.773
 1384TIP3    H1 4116   1.723   2.335   0.815
 1384TIP3    H2 4117   1.669   2.384   0.683
 1385TIP3   OH2 4118   2.207   5.166   5.024
 1385TIP3    H1 4119   2.181   5.255   4.999
 1385TIP3    H2 4120   2.228   5.123   4.941
 1386TIP3   OH2 4121   1.153   6.444   5.361
 1386TIP3    H1 4122   1.220   6.375   5.367
 1386TIP3    H2 4123   1.203   6.525   5.365
 1387TIP3   OH2 4124   2.800   6.034   3.597
 1387TIP3    H1 4125   2.865   5.969   3.623
 1387TIP3    H2 4126   2.724   5.983   3.571
 1388TIP3   OH2 4127   5.151   6.622   3.661
 1388TIP3    H1 4128   5.195   6.610   3.576
 1388TIP3    H2 4129   5.058   6.610   3.642
 1389TIP3   OH2 4130   2.121   2.644   1.492
 1389TIP3    H1 4131   2.043   2.624   1.543
 1389TIP3    H2 4132   2.188   2.667   1.557
 1390TIP3   OH2 4133   4.459   4.804   4.454
 1390TIP3    H1 4134   4.443   4.865   4.382
 1390TIP3    H2 4135   4.546   4.767   4.436
 1391TIP3   OH2 4136   2.771   5.601   1.686
 1391TIP3    H1 4137   2.692   5.574   1.640
 1391TIP3    H2 4138   2.815   5.661   1.625
 1392TIP3   OH2 4139   6.419   0.339   5.690
 1392TIP3    H1 4140   6.486   0.380   5.745
 1392TIP3    H2 4141   6.442   0.366   5.601
 1393TIP3   OH2 4142   3.836   4.926   3.792
 1393TIP3    H1 4143   3.856   4.843   3.749
 1393TIP3    H2 4144   3.883   4.992   3.741
 1394TIP3   OH2 4145   6.126   2.669   0.715
 1394TIP3    H1 4146   6.102   2.580   0.742
 1394TIP3    H2 4147   6.222   2.669   0.716
 1395TIP3   OH2 4148   6.345   2.282   2.292
 1395TIP3    H1 4149   6.404   2.228   2.239
 1395TIP3    H2 4150   6.285   2.321   2.228
 1396TIP3   OH2 4151   3.180   6.496   1.445
 1396TIP3    H1 4152   3.250   6.431   1.457
 1396TIP3    H2 4153   3.142   6.474   1.360
 1397TIP3   OH2 4154   6.125   3.273   1.757
 1397TIP3    H1 4155   6.157   3.296   1.845
 1397TIP3    H2 4156   6.136   3.178   1.752
 1398TIP3   OH2 4157   3.698   3.833   3.461
 1398TIP3    H1 4158   3.605   3.815   3.477
 1398TIP3    H2 4159   3.699   3.885   3.381
 1399TIP3   OH2 4160   0.430   4.164   0.841
 1399TIP3    H1 4161   0.500   4.107   0.873
 1399TIP3    H2 4162   0.359   4.153   0.904
 1400TIP3   OH2 4163   2.773   4.325   5.624
 1400TIP3    H1 4164   2.835   4.287   5.562
 1400TIP3    H2 4165   2.826   4.386   5.676
 1401TIP3   OH2 4166   2.307   5.603   3.597
 1401TIP3    H1 4167   2.225   5.579   3.554
 1401TIP3    H2 4168   2.322   5.694   3.570
 1402TIP3   OH2 4169   6.175   4.356   4.062
 1402TIP3    H1 4170   6.186   4.338   4.156
 1402TIP3    H2 4171   6.112   4.291   4.032
 1403TIP3   OH2 4172   6.177   0.211   0.493
 1403TIP3    H1 4173   6.238   0.174   0.556
 1403TIP3    H2 4174   6.177   0.305   0.511
 1404TIP3   OH2 4175   5.602   2.265   5.434
 1404TIP3    H1 4176   5.621   2.171   5.438
 1404TIP3    H2 4177   5.510   2.269   5.411
 1405TIP3   OH2 4178   1.694   0.744   0.106
 1405TIP3    H1 4179   1.616   0.705   0.147
 1405TIP3    H2 4180   1.661   0.781   0.023
 1406TIP3   OH2 4181   4.656   5.317   3.917
 1406TIP3    H1 4182   4.744   5.330   3.952
 1406TIP3    H2 4183   4.615   5.253   3.976
 1407TIP3   OH2 4184   6.630   2.696   5.067
 1407TIP3    H1 4185   6.546   2.730   5.098
 1407TIP3    H2 4186   6.618   2.601   5.065
 1408TIP3   OH2 4187   4.430   2.867   4.423
 1408TIP3    H1 4188   4.339   2.843   4.403
 1408TIP3    H2 4189   4.423   2.953   4.464
 1409TIP3   OH2 4190   2.788   6.645   3.784
 1409TIP3    H1 4191   2.758   6.558   3.757
 1409TIP3    H2 4192   2.884   6.637   3.790
 1410TIP3   OH2 4193   3.991   3.040   1.319
 1410TIP3    H1 4194   4.007   2.982   1.394
 1410TIP3    H2 4195   3.933   2.989   1.262
 1411TIP3   OH2 4196   1.180   0.519   0.739
 1411TIP3    H1 4197   1.206   0.610   0.725
 1411TIP3    H2 4198   1.162   0.485   0.652
 1412TIP3   OH2 4199   2.812   0.547   4.696
 1412TIP3    H1 4200   2.775   0.552   4.608
 1412TIP3    H2 4201   2.740   0.519   4.752
 1413TIP3   OH2 4202   5.221   2.789   5.797
 1413TIP3    H1 4203   5.297   2.731   5.807
 1413TIP3    H2 4204   5.180   2.761   5.716
 1414TIP3   OH2 4205   2.842   2.648   1.406
 1414TIP3    H1 4206   2.936   2.628   1.416
 1414TIP3    H2 4207   2.831   2.729   1.456
 1415TIP3   OH2 4208   1.240   1.964   4.015
 1415TIP3    H1 4209   1.247   1.868   4.010
 1415TIP3    H2 4210   1.223   1.982   4.107
 1416TIP3   OH2 4211   1.287   0.864   1.611
 1416TIP3    H1 4212   1.264   0.945   1.656
 1416TIP3    H2 4213   1.231   0.862   1.534
 1417TIP3   OH2 4214   0.559   5.779   5.314
 1417TIP3    H1 4215   0.522   5.710   5.369
 1417TIP3    H2 4216   0.651   5.755   5.305
 1418TIP3   OH2 4217   3.950   3.593   3.040
 1418TIP3    H1 4218   3.966   3.546   2.958
 1418TIP3    H2 4219   4.025   3.652   3.049
 1419TIP3   OH2 4220   6.597   0.082   0.192
 1419TIP3    H1 4221   6.574   0.169   0.159
 1419TIP3    H2 4222   6.528   0.025   0.158
 1420TIP3   OH2 4223   3.393   3.003   2.863
 1420TIP3    H1 4224   3.405   3.009   2.768
 1420TIP3    H2 4225   3.303   2.971   2.874
 1421TIP3   OH2 4226   3.781   4.504   3.817
 1421TIP3    H1 4227   3.860   4.453   3.802
 1421TIP3    H2 4228   3.715   4.462   3.763
 1422TIP3   OH2 4229   4.804   5.799   4.943
 1422TIP3    H1 4230   4.728   5.775   4.890
 1422TIP3    H2 4231   4.781   5.885   4.979
 1423TIP3   OH2 4232   2.307   2.540   3.791
 1423TIP3    H1 4233   2.308   2.456   3.836
 1423TIP3    H2 4234   2.263   2.600   3.853
 1424TIP3   OH2 4235   3.478   0.106   5.909
 1424TIP3    H1 4236   3.465   0.029   5.854
 1424TIP3    H2 4237   3.560   0.144   5.877
 1425TIP3   OH2 4238   1.038   3.959   2.223
 1425TIP3    H1 4239   1.026   4.014   2.146
 1425TIP3    H2 4240   1.003   4.011   2.296
 1426TIP3   OH2 4241   0.212   2.918   1.054
 1426TIP3    H1 4242   0.127   2.929   1.096
 1426TIP3    H2 4243   0.222   2.995   0.998
 1427TIP3   OH2 4244   6.214   2.114   0.619
 1427TIP3    H1 4245   6.249   2.196   0.585
 1427TIP3    H2 4246   6.207   2.057   0.543
 1428TIP3   OH2 4247   0.390   2.188   2.979
 1428TIP3    H1 4248   0.408   2.267   3.032
 1428TIP3    H2 4249   0.422   2.210   2.892
 1429TIP3   OH2 4250   7.239   4.858   2.639
 1429TIP3    H1 4251   7.160   4.912   2.631
 1429TIP3    H2 4252   7.206   4.772   2.664
 1430TIP3   OH2 4253   6.983   1.915   0.079
 1430TIP3    H1 4254   6.896   1.874   0.075
 1430TIP3    H2 4255   7.042   1.848   0.046
 1431TIP3   OH2 4256   1.043   1.766   0.081
 1431TIP3    H1 4257   1.097   1.811   0.016
 1431TIP3    H2 4258   1.044   1.824   0.157
 1432TIP3   OH2 4259   0.691   1.715   4.487
 1432TIP3    H1 4260   0.737   1.792   4.519
 1432TIP3    H2 4261   0.670   1.665   4.565
 1433TIP3   OH2 4262   4.668   1.781   2.175
 1433TIP3    H1 4263   4.655   1.773   2.270
 1433TIP3    H2 4264   4.630   1.701   2.139
 1434TIP3   OH2 4265   4.155   3.785   3.115
 1434TIP3    H1 4266   4.226   3.726   3.141
 1434TIP3    H2 4267   4.190   3.832   3.040
 1435TIP3   OH2 4268   3.950   4.987   2.907
 1435TIP3    H1 4269   3.988   5.072   2.928
 1435TIP3    H2 4270   4.026   4.928   2.901
 1436TIP3   OH2 4271   2.651   4.534   2.854
 1436TIP3    H1 4272   2.636   4.475   2.928
 1436TIP3    H2 4273   2.747   4.538   2.846
 1437TIP3   OH2 4274   6.104   3.005   2.637
 1437TIP3    H1 4275   6.073   2.968   2.720
 1437TIP3    H2 4276   6.190   3.042   2.659
 1438TIP3   OH2 4277   0.594   5.415   3.971
 1438TIP3    H1 4278   0.663   5.371   4.021
 1438TIP3    H2 4279   0.548   5.344   3.927
 1439TIP3   OH2 4280   4.406   2.208   4.110
 1439TIP3    H1 4281   4.443   2.220   4.023
 1439TIP3    H2 4282   4.445   2.127   4.142
 1440TIP3   OH2 4283   0.855   4.185   1.646
 1440TIP3    H1 4284   0.770   4.142   1.635
 1440TIP3    H2 4285   0.865   4.196   1.740
 1441TIP3   OH2 4286   1.815   6.210   4.312
 1441TIP3    H1 4287   1.843   6.178   4.226
 1441TIP3    H2 4288   1.876   6.169   4.374
 1442TIP3   OH2 4289   3.956   3.290   0.617
 1442TIP3    H1 4290   4.014   3.242   0.676
 1442TIP3    H2 4291   3.928   3.367   0.667
 1443TIP3   OH2 4292   1.868   6.641   3.214
 1443TIP3    H1 4293   1.870   6.733   3.239
 1443TIP3    H2 4294   1.776   6.617   3.220
 1444TIP3   OH2 4295   6.913   1.403   4.169
 1444TIP3    H1 4296   6.981   1.363   4.115
 1444TIP3    H2 4297   6.884   1.480   4.118
 1445TIP3   OH2 4298   6.929   6.121   0.435
 1445TIP3    H1 4299   6.973   6.164   0.508
 1445TIP3    H2 4300   6.997   6.068   0.393
 1446TIP3   OH2 4301   1.401   6.298   4.771
 1446TIP3    H1 4302   1.446   6.227   4.726
 1446TIP3    H2 4303   1.441   6.378   4.736
 1447TIP3   OH2 4304   3.370   1.116   4.505
 1447TIP3    H1 4305   3.462   1.105   4.528
 1447TIP3    H2 4306   3.332   1.029   4.516
 1448TIP3   OH2 4307   6.356   0.335   1.054
 1448TIP3    H1 4308   6.358   0.242   1.078
 1448TIP3    H2 4309   6.374   0.335   0.960
 1449TIP3   OH2 4310   5.372   5.951   0.159
 1449TIP3    H1 4311   5.465   5.938   0.180
 1449TIP3    H2 4312   5.358   5.898   0.081
 1450TIP3   OH2 4313   3.633   3.606   2.026
 1450TIP3    H1 4314   3.649   3.529   1.972
 1450TIP3    H2 4315   3.655   3.578   2.115
 1451TIP3   OH2 4316   6.885   6.242   5.170
 1451TIP3    H1 4317   6.930   6.195   5.240
 1451TIP3    H2 4318   6.817   6.182   5.140
 1452TIP3   OH2 4319   7.203   3.686   5.697
 1452TIP3    H1 4320   7.118   3.650   5.673
 1452TIP3    H2 4321   7.230   3.738   5.621
 1453TIP3   OH2 4322   3.368   0.989   3.565
 1453TIP3    H1 4323   3.442   0.944   3.524
 1453TIP3    H2 4324   3.295   0.927   3.557
 1454TIP3   OH2 4325   0.101   3.124   3.665
 1454TIP3    H1 4326   0.129   3.037   3.695
 1454TIP3    H2 4327   0.053   3.160   3.739
 1455TIP3   OH2 4328   1.387   4.894   5.103
 1455TIP3    H1 4329   1.420   4.824   5.046
 1455TIP3    H2 4330   1.293   4.879   5.108
 1456TIP3   OH2 4331   0.449   4.191   0.369
 1456TIP3    H1 4332   0.473   4.226   0.455
 1456TIP3    H2 4333   0.381   4.126   0.388
 1457TIP3   OH2 4334   2.071   3.067   2.004
 1457TIP3    H1 4335   2.163   3.079   2.025
 1457TIP3    H2 4336   2.041   2.998   2.064
 1458TIP3   OH2 4337   6.647   0.895   4.140
 1458TIP3    H1 4338   6.670   0.943   4.061
 1458TIP3    H2 4339   6.552   0.887   4.137
 1459TIP3   OH2 4340   4.969   2.047   4.558
 1459TIP3    H1 4341   4.920   2.001   4.491
 1459TIP3    H2 4342   4.980   1.983   4.628
 1460TIP3   OH2 4343   4.847   3.914   2.289
 1460TIP3    H1 4344   4.772   3.864   2.256
 1460TIP3    H2 4345   4.919   3.851   2.291
 1461TIP3   OH2 4346   0.071   2.140   0.671
 1461TIP3    H1 4347   0.056   2.223   0.626
 1461TIP3    H2 4348   0.094   2.079   0.602
 1462TIP3   OH2 4349   1.469   5.205   5.548
 1462TIP3    H1 4350   1.393   5.151   5.525
 1462TIP3    H2 4351   1.500   5.240   5.465
 1463TIP3   OH2 4352   1.551   0.745   4.443
 1463TIP3    H1 4353   1.550   0.658   4.483
 1463TIP3    H2 4354   1.459   0.768   4.433
 1464TIP3   OH2 4355   2.189   5.272   1.007
 1464TIP3    H1 4356   2.190   5.296   1.100
 1464TIP3    H2 4357   2.133   5.338   0.966
 1465TIP3   OH2 4358   2.359   1.750   0.221
 1465TIP3    H1 4359   2.434   1.807   0.207
 1465TIP3    H2 4360   2.298   1.773   0.151
 1466TIP3   OH2 4361   5.361   0.375   0.580
 1466TIP3    H1 4362   5.297   0.444   0.597
 1466TIP3    H2 4363   5.310   0.303   0.543
 1467TIP3   OH2 4364   5.526   6.351   2.158
 1467TIP3    H1 4365   5.545   6.310   2.074
 1467TIP3    H2 4366   5.572   6.297   2.222
 1468TIP3   OH2 4367   4.853   2.881   1.948
 1468TIP3    H1 4368   4.936   2.858   1.991
 1468TIP3    H2 4369   4.813   2.797   1.928
 1469TIP3   OH2 4370   5.828   2.186   3.694
 1469TIP3    H1 4371   5.833   2.113   3.632
 1469TIP3    H2 4372   5.893   2.249   3.661
 1470TIP3   OH2 4373   5.309   0.645   2.992
 1470TIP3    H1 4374   5.300   0.555   3.025
 1470TIP3    H2 4375   5.340   0.695   3.067
 1471TIP3   OH2 4376   6.966   3.398   3.186
 1471TIP3    H1 4377   6.941   3.456   3.115
 1471TIP3    H2 4378   7.036   3.344   3.149
 1472TIP3   OH2 4379   3.321   5.499   2.007
 1472TIP3    H1 4380   3.235   5.466   1.981
 1472TIP3    H2 4381   3.359   5.533   1.926
 1473TIP3   OH2 4382   3.346   5.453   0.171
 1473TIP3    H1 4383   3.273   5.490   0.221
 1473TIP3    H2 4384   3.343   5.499   0.087
 1474TIP3   OH2 4385   5.511   5.064   0.042
 1474TIP3    H1 4386   5.539   5.076   0.133
 1474TIP3    H2 4387   5.466   4.979   0.042
 1475TIP3   OH2 4388   2.893   2.479   0.274
 1475TIP3    H1 4389   2.865   2.570   0.278
 1475TIP3    H2 4390   2.871   2.450   0.185
 1476TIP3   OH2 4391   0.882   0.893   1.876
 1476TIP3    H1 4392   0.891   0.798   1.864
 1476TIP3    H2 4393   0.915   0.909   1.964
 1477TIP3   OH2 4394   6.567   4.740   3.739
 1477TIP3    H1 4395   6.515   4.668   3.776
 1477TIP3    H2 4396   6.508   4.784   3.678
 1478TIP3   OH2 4397   3.596   1.162   3.556
 1478TIP3    H1 4398   3.530   1.102   3.521
 1478TIP3    H2 4399   3.604   1.230   3.489
 1479TIP3   OH2 4400   3.333   6.558   5.757
 1479TIP3    H1 4401   3.309   6.468   5.779
 1479TIP3    H2 4402   3.363   6.595   5.840
 1480TIP3   OH2 4403   3.277   4.178   4.537
 1480TIP3    H1 4404   3.258   4.257   4.485
 1480TIP3    H2 4405   3.369   4.159   4.517
 1481TIP3   OH2 4406   6.741   5.053   2.752
 1481TIP3    H1 4407   6.793   5.006   2.817
 1481TIP3    H2 4408   6.691   4.985   2.706
 1482TIP3   OH2 4409   4.321   2.358   4.543
 1482TIP3    H1 4410   4.393   2.310   4.503
 1482TIP3    H2 4411   4.252   2.293   4.558
 1483TIP3   OH2 4412   5.691   6.356   0.438
 1483TIP3    H1 4413   5.605   6.343   0.398
 1483TIP3    H2 4414   5.753   6.349   0.365
 1484TIP3   OH2 4415   4.466   0.422   4.138
 1484TIP3    H1 4416   4.518   0.500   4.158
 1484TIP3    H2 4417   4.529   0.349   4.143
 1485TIP3   OH2 4418   5.210   3.268   5.773
 1485TIP3    H1 4419   5.228   3.188   5.822
 1485TIP3    H2 4420   5.265   3.260   5.695
 1486TIP3   OH2 4421   6.570   2.431   2.438
 1486TIP3    H1 4422   6.558   2.525   2.451
 1486TIP3    H2 4423   6.495   2.404   2.385
 1487TIP3   OH2 4424   6.461   2.863   2.740
 1487TIP3    H1 4425   6.397   2.826   2.801
 1487TIP3    H2 4426   6.493   2.942   2.784
 1488TIP3   OH2 4427   6.723   1.529   2.602
 1488TIP3    H1 4428   6.771   1.500   2.680
 1488TIP3    H2 4429   6.650   1.580   2.637
 1489TIP3   OH2 4430   0.855   2.035   5.705
 1489TIP3    H1 4431   0.890   2.000   5.623
 1489TIP3    H2 4432   0.928   2.085   5.743
 1490TIP3   OH2 4433   5.519   1.526   4.531
 1490TIP3    H1 4434   5.494   1.584   4.458
 1490TIP3    H2 4435   5.487   1.571   4.609
 1491TIP3   OH2 4436   1.247   4.307   0.113
 1491TIP3    H1 4437   1.159   4.312   0.151
 1491TIP3    H2 4438   1.241   4.357   0.032
 1492TIP3   OH2 4439   4.010   4.795   1.053
 1492TIP3    H1 4440   3.963   4.838   1.124
 1492TIP3    H2 4441   4.102   4.818   1.067
 1493TIP3   OH2 4442   4.205   3.676   0.076
 1493TIP3    H1 4443   4.170   3.765   0.089
 1493TIP3    H2 4444   4.150   3.621   0.132
 1494TIP3   OH2 4445   0.202   4.177   4.558
 1494TIP3    H1 4446   0.157   4.261   4.550
 1494TIP3    H2 4447   0.262   4.188   4.632
 1495TIP3   OH2 4448   1.803   5.891   5.825
 1495TIP3    H1 4449   1.860   5.907   5.749
 1495TIP3    H2 4450   1.715   5.913   5.794
 1496TIP3   OH2 4451   2.306   0.545   2.557
 1496TIP3    H1 4452   2.309   0.629   2.603
 1496TIP3    H2 4453   2.371   0.491   2.602
 1497TIP3   OH2 4454   0.084   5.899   0.595
 1497TIP3    H1 4455   0.141   5.907   0.672
 1497TIP3    H2 4456  -0.004   5.917   0.628
 1498TIP3   OH2 4457   3.445   6.296   1.244
 1498TIP3    H1 4458   3.403   6.299   1.330
 1498TIP3    H2 4459   3.377   6.262   1.185
 1499TIP3   OH2 4460   1.142   3.701   0.644
 1499TIP3    H1 4461   1.047   3.706   0.634
 1499TIP3    H2 4462   1.155   3.642   0.718
 1500TIP3   OH2 4463   0.605   2.668   4.457
 1500TIP3    H1 4464   0.622   2.657   4.551
 1500TIP3    H2 4465   0.561   2.753   4.451
 1501TIP3   OH2 4466   3.806   0.258   3.623
 1501TIP3    H1 4467   3.865   0.299   3.686
 1501TIP3    H2 4468   3.835   0.289   3.538
 1502TIP3   OH2 4469   5.033   2.756   2.140
 1502TIP3    H1 4470   5.009   2.754   2.232
 1502TIP3    H2 4471   5.073   2.670   2.124
 1503TIP3   OH2 4472   4.827   4.629   2.946
 1503TIP3    H1 4473   4.887   4.555   2.949
 1503TIP3    H2 4474   4.830   4.658   2.855
 1504TIP3   OH2 4475   1.254   3.818   2.573
 1504TIP3    H1 4476   1.302   3.738   2.554
 1504TIP3    H2 4477   1.303   3.858   2.646
 1505TIP3   OH2 4478   5.251   6.113   5.048
 1505TIP3    H1 4479   5.211   6.030   5.019
 1505TIP3    H2 4480   5.183   6.153   5.103
 1506TIP3   OH2 4481   0.477   6.016   2.940
 1506TIP3    H1 4482   0.472   6.054   2.852
 1506TIP3    H2 4483   0.396   5.965   2.948
 1507TIP3   OH2 4484   1.243   5.632   3.141
 1507TIP3    H1 4485   1.193   5.711   3.124
 1507TIP3    H2 4486   1.181   5.560   3.125
 1508TIP3   OH2 4487   4.136   6.763   4.431
 1508TIP3    H1 4488   4.104   6.683   4.472
 1508TIP3    H2 4489   4.118   6.752   4.338
 1509TIP3   OH2 4490   4.786   6.674   2.665
 1509TIP3    H1 4491   4.821   6.739   2.725
 1509TIP3    H2 4492   4.761   6.600   2.721
 1510TIP3   OH2 4493   4.436   3.047   2.890
 1510TIP3    H1 4494   4.414   2.954   2.892
 1510TIP3    H2 4495   4.476   3.064   2.975
 1511TIP3   OH2 4496   0.723   2.490   0.994
 1511TIP3    H1 4497   0.694   2.432   0.923
 1511TIP3    H2 4498   0.813   2.513   0.970
 1512TIP3   OH2 4499   1.470   4.346   4.597
 1512TIP3    H1 4500   1.394   4.356   4.653
 1512TIP3    H2 4501   1.510   4.264   4.625
 1513TIP3   OH2 4502   0.591   3.263   4.679
 1513TIP3    H1 4503   0.653   3.210   4.629
 1513TIP3    H2 4504   0.610   3.353   4.652
 1514TIP3   OH2 4505   3.490   0.373   5.296
 1514TIP3    H1 4506   3.470   0.365   5.202
 1514TIP3    H2 4507   3.481   0.467   5.314
 1515TIP3   OH2 4508   2.593   3.637   1.212
 1515TIP3    H1 4509   2.549   3.558   1.244
 1515TIP3    H2 4510   2.523   3.703   1.208
 1516TIP3   OH2 4511   3.799   6.369   5.155
 1516TIP3    H1 4512   3.777   6.288   5.108
 1516TIP3    H2 4513   3.765   6.438   5.098
 1517TIP3   OH2 4514   6.045   0.152   2.774
 1517TIP3    H1 4515   6.121   0.190   2.730
 1517TIP3    H2 4516   5.970   0.186   2.725
 1518TIP3   OH2 4517   3.162   0.542   2.843
 1518TIP3    H1 4518   3.171   0.550   2.748
 1518TIP3    H2 4519   3.214   0.613   2.879
 1519TIP3   OH2 4520   4.096   3.394   4.659
 1519TIP3    H1 4521   4.110   3.431   4.746
 1519TIP3    H2 4522   4.011   3.350   4.665
 1520TIP3   OH2 4523   6.409   0.643   1.096
 1520TIP3    H1 4524   6.371   0.720   1.053
 1520TIP3    H2 4525   6.398   0.572   1.033
 1521TIP3   OH2 4526   2.324   2.717   0.716
 1521TIP3    H1 4527   2.375   2.645   0.754
 1521TIP3    H2 4528   2.272   2.751   0.789
 1522TIP3   OH2 4529   5.729   2.966   3.519
 1522TIP3    H1 4530   5.696   3.053   3.498
 1522TIP3    H2 4531   5.796   2.981   3.584
 1523TIP3   OH2 4532   1.819   2.198   3.664
 1523TIP3    H1 4533   1.817   2.248   3.582
 1523TIP3    H2 4534   1.912   2.193   3.687
 1524TIP3   OH2 4535   0.325   0.077   1.329
 1524TIP3    H1 4536   0.282   0.059   1.413
 1524TIP3    H2 4537   0.253   0.094   1.269
 1525TIP3   OH2 4538   2.697   6.511   2.353
 1525TIP3    H1 4539   2.726   6.565   2.426
 1525TIP3    H2 4540   2.722   6.422   2.378
 1526TIP3   OH2 4541   0.972   3.466   1.505
 1526TIP3    H1 4542   1.062   3.495   1.517
 1526TIP3    H2 4543   0.954   3.480   1.413
 1527TIP3   OH2 4544   6.668   5.659   4.504
 1527TIP3    H1 4545   6.687   5.721   4.434
 1527TIP3    H2 4546   6.646   5.713   4.579
 1528TIP3   OH2 4547   0.138   6.367   3.754
 1528TIP3    H1 4548   0.153   6.379   3.848
 1528TIP3    H2 4549   0.220   6.329   3.722
 1529TIP3   OH2 4550   3.723   0.101   5.461
 1529TIP3    H1 4551   3.644   0.152   5.443
 1529TIP3    H2 4552   3.734   0.046   5.384
 1530TIP3   OH2 4553   1.397   3.920   0.713
 1530TIP3    H1 4554   1.303   3.907   0.722
 1530TIP3    H2 4555   1.415   3.998   0.766
 1531TIP3   OH2 4556   5.794   5.616   1.918
 1531TIP3    H1 4557   5.866   5.553   1.912
 1531TIP3    H2 4558   5.740   5.584   1.991
 1532TIP3   OH2 4559   1.718   3.433   5.781
 1532TIP3    H1 4560   1.806   3.415   5.816
 1532TIP3    H2 4561   1.723   3.407   5.689
 1533TIP3   OH2 4562   1.227   1.393   3.333
 1533TIP3    H1 4563   1.299   1.331   3.347
 1533TIP3    H2 4564   1.155   1.359   3.387
 1534TIP3   OH2 4565   2.157   6.247   5.842
 1534TIP3    H1 4566   2.209   6.212   5.771
 1534TIP3    H2 4567   2.066   6.238   5.812
 1535TIP3   OH2 4568   1.020   4.987   5.235
 1535TIP3    H1 4569   0.961   5.050   5.193
 1535TIP3    H2 4570   1.042   4.924   5.166
 1536TIP3   OH2 4571   6.290   5.686   3.080
 1536TIP3    H1 4572   6.282   5.716   3.171
 1536TIP3    H2 4573   6.211   5.634   3.065
 1537TIP3   OH2 4574   5.364   6.059   5.577
 1537TIP3    H1 4575   5.418   6.093   5.648
 1537TIP3    H2 4576   5.326   6.137   5.536
 1538TIP3   OH2 4577   4.336   2.396   1.993
 1538TIP3    H1 4578   4.292   2.472   2.030
 1538TIP3    H2 4579   4.272   2.325   2.002
 1539TIP3   OH2 4580   3.984   3.390   1.916
 1539TIP3    H1 4581   4.001   3.434   1.999
 1539TIP3    H2 4582   4.070   3.383   1.875
 1540TIP3   OH2 4583   1.099   6.327   4.118
 1540TIP3    H1 4584   1.039   6.279   4.176
 1540TIP3    H2 4585   1.043   6.357   4.046
 1541TIP3   OH2 4586   2.091   3.885   4.172
 1541TIP3    H1 4587   2.070   3.979   4.166
 1541TIP3    H2 4588   2.019   3.843   4.125
 1542TIP3   OH2 4589   5.932   0.623   2.161
 1542TIP3    H1 4590   5.925   0.552   2.097
 1542TIP3    H2 4591   5.907   0.582   2.244
 1543TIP3   OH2 4592   7.098   4.386   0.712
 1543TIP3    H1 4593   7.123   4.377   0.804
 1543TIP3    H2 4594   7.110   4.298   0.675
 1544TIP3   OH2 4595   1.684   4.252   0.685
 1544TIP3    H1 4596   1.687   4.260   0.589
 1544TIP3    H2 4597   1.604   4.298   0.710
 1545TIP3   OH2 4598   1.029   3.776   5.248
 1545TIP3    H1 4599   0.994   3.775   5.159
 1545TIP3    H2 4600   1.067   3.863   5.258
 1546TIP3   OH2 4601   6.356   4.389   3.103
 1546TIP3    H1 4602   6.335   4.320   3.166
 1546TIP3    H2 4603   6.449   4.407   3.118
 1547TIP3   OH2 4604   6.160   0.839   5.002
 1547TIP3    H1 4605   6.245   0.840   5.045
 1547TIP3    H2 4606   6.154   0.753   4.960
 1548TIP3   OH2 4607   1.091   3.431   5.713
 1548TIP3    H1 4608   1.159   3.470   5.659
 1548TIP3    H2 4609   1.109   3.337   5.710
 1549TIP3   OH2 4610   1.728   6.440   2.260
 1549TIP3    H1 4611   1.755   6.531   2.248
 1549TIP3    H2 4612   1.697   6.412   2.174
 1550TIP3   OH2 4613   6.582   2.924   1.998
 1550TIP3    H1 4614   6.670   2.957   1.976
 1550TIP3    H2 4615   6.551   2.882   1.918
 1551TIP3   OH2 4616   2.764   5.921   5.454
 1551TIP3    H1 4617   2.730   5.956   5.372
 1551TIP3    H2 4618   2.711   5.962   5.522
 1552TIP3   OH2 4619   5.146   3.875   4.696
 1552TIP3    H1 4620   5.136   3.870   4.791
 1552TIP3    H2 4621   5.198   3.798   4.673
 1553TIP3   OH2 4622   5.479   5.737   4.584
 1553TIP3    H1 4623   5.531   5.665   4.619
 1553TIP3    H2 4624   5.400   5.738   4.638
 1554TIP3   OH2 4625   3.306   6.444   2.068
 1554TIP3    H1 4626   3.321   6.522   2.121
 1554TIP3    H2 4627   3.215   6.420   2.087
 1555TIP3   OH2 4628   0.474   4.239   1.416
 1555TIP3    H1 4629   0.380   4.229   1.399
 1555TIP3    H2 4630   0.510   4.274   1.335
 1556TIP3   OH2 4631   6.174   0.429   1.230
 1556TIP3    H1 4632   6.241   0.402   1.167
 1556TIP3    H2 4633   6.091   0.399   1.192
 1557TIP3   OH2 4634   0.686   4.616   5.594
 1557TIP3    H1 4635   0.627   4.578   5.529
 1557TIP3    H2 4636   0.697   4.546   5.659
 1558TIP3   OH2 4637   2.817   2.861   1.594
 1558TIP3    H1 4638   2.837   2.877   1.686
 1558TIP3    H2 4639   2.829   2.946   1.551
 1559TIP3   OH2 4640   5.723   0.790   2.081
 1559TIP3    H1 4641   5.775   0.728   2.131
 1559TIP3    H2 4642   5.748   0.775   1.990
 1560TIP3   OH2 4643   0.085   6.687   5.253
 1560TIP3    H1 4644   0.026   6.628   5.205
 1560TIP3    H2 4645   0.166   6.637   5.261
 1561TIP3   OH2 4646   3.484   1.489   3.265
 1561TIP3    H1 4647   3.475   1.581   3.238
 1561TIP3    H2 4648   3.568   1.486   3.311
 1562TIP3   OH2 4649   0.145   3.347   1.826
 1562TIP3    H1 4650   0.142   3.322   1.919
 1562TIP3    H2 4651   0.119   3.268   1.779
 1563TIP3   OH2 4652   4.448   5.492   1.419
 1563TIP3    H1 4653   4.526   5.442   1.442
 1563TIP3    H2 4654   4.453   5.502   1.324
 1564TIP3   OH2 4655   3.013   6.051   5.481
 1564TIP3    H1 4656   2.931   6.001   5.476
 1564TIP3    H2 4657   3.064   6.007   5.548
 1565TIP3   OH2 4658   4.445   5.905   1.268
 1565TIP3    H1 4659   4.454   5.865   1.354
 1565TIP3    H2 4660   4.498   5.985   1.272
 1566TIP3   OH2 4661   5.056   5.111   4.548
 1566TIP3    H1 4662   5.093   5.194   4.518
 1566TIP3    H2 4663   5.132   5.059   4.573
 1567TIP3   OH2 4664   4.119   2.979   3.004
 1567TIP3    H1 4665   4.157   2.989   3.092
 1567TIP3    H2 4666   4.122   3.067   2.966
 1568TIP3   OH2 4667   4.706   5.194   3.208
 1568TIP3    H1 4668   4.710   5.234   3.294
 1568TIP3    H2 4669   4.772   5.241   3.156
 1569TIP3   OH2 4670   7.147   5.717   5.281
 1569TIP3    H1 4671   7.136   5.714   5.376
 1569TIP3    H2 4672   7.101   5.796   5.254
 1570TIP3   OH2 4673   5.514   5.905   4.302
 1570TIP3    H1 4674   5.534   5.897   4.209
 1570TIP3    H2 4675   5.444   5.970   4.306
 1571TIP3   OH2 4676   1.762   5.603   1.879
 1571TIP3    H1 4677   1.740   5.678   1.824
 1571TIP3    H2 4678   1.692   5.601   1.945
 1572TIP3   OH2 4679   1.947   1.918   0.538
 1572TIP3    H1 4680   2.034   1.887   0.512
 1572TIP3    H2 4681   1.914   1.964   0.461
 1573TIP3   OH2 4682   5.871   1.326   0.266
 1573TIP3    H1 4683   5.939   1.271   0.227
 1573TIP3    H2 4684   5.855   1.286   0.352
 1574TIP3   OH2 4685   0.610   4.871   1.551
 1574TIP3    H1 4686   0.524   4.876   1.595
 1574TIP3    H2 4687   0.637   4.780   1.564
 1575TIP3   OH2 4688   5.732   4.854   5.520
 1575TIP3    H1 4689   5.814   4.846   5.567
 1575TIP3    H2 4690   5.667   4.877   5.587
 1576TIP3   OH2 4691   4.278   0.188   4.313
 1576TIP3    H1 4692   4.349   0.240   4.275
 1576TIP3    H2 4693   4.284   0.205   4.407
 1577TIP3   OH2 4694   6.317   6.013   3.357
 1577TIP3    H1 4695   6.338   6.106   3.363
 1577TIP3    H2 4696   6.391   5.975   3.309
 1578TIP3   OH2 4697   6.902   0.764   5.712
 1578TIP3    H1 4698   6.905   0.859   5.698
 1578TIP3    H2 4699   6.846   0.731   5.642
 1579TIP3   OH2 4700   0.466   3.844   1.760
 1579TIP3    H1 4701   0.387   3.898   1.765
 1579TIP3    H2 4702   0.489   3.844   1.667
 1580TIP3   OH2 4703   3.265   6.370   3.852
 1580TIP3    H1 4704   3.233   6.364   3.762
 1580TIP3    H2 4705   3.244   6.459   3.880
 1581TIP3   OH2 4706   6.935   2.994   4.537
 1581TIP3    H1 4707   6.880   2.923   4.503
 1581TIP3    H2 4708   6.886   3.028   4.612
 1582TIP3   OH2 4709   3.335   1.374   0.634
 1582TIP3    H1 4710   3.262   1.430   0.659
 1582TIP3    H2 4711   3.411   1.416   0.674
 1583TIP3   OH2 4712   2.771   4.691   0.157
 1583TIP3    H1 4713   2.716   4.614   0.169
 1583TIP3    H2 4714   2.850   4.673   0.207
 1584TIP3   OH2 4715   2.830   5.113   2.822
 1584TIP3    H1 4716   2.769   5.106   2.748
 1584TIP3    H2 4717   2.780   5.155   2.891
 1585TIP3   OH2 4718   2.583   3.403   0.587
 1585TIP3    H1 4719   2.515   3.414   0.653
 1585TIP3    H2 4720   2.641   3.336   0.623
 1586TIP3   OH2 4721   5.495   6.006   1.797
 1586TIP3    H1 4722   5.569   5.945   1.804
 1586TIP3    H2 4723   5.483   6.018   1.703
 1587TIP3   OH2 4724   2.039   1.507   3.068
 1587TIP3    H1 4725   2.055   1.531   3.159
 1587TIP3    H2 4726   1.965   1.562   3.042
 1588TIP3   OH2 4727   5.830   4.391   3.739
 1588TIP3    H1 4728   5.903   4.418   3.794
 1588TIP3    H2 4729   5.780   4.471   3.724
 1589TIP3   OH2 4730   1.684   0.045   0.465
 1589TIP3    H1 4731   1.662   0.138   0.476
 1589TIP3    H2 4732   1.649   0.003   0.544
 1590TIP3   OH2 4733   5.606   6.730   3.682
 1590TIP3    H1 4734   5.665   6.804   3.688
 1590TIP3    H2 4735   5.557   6.743   3.601
 1591TIP3   OH2 4736   4.524   1.429   2.606
 1591TIP3    H1 4737   4.608   1.430   2.651
 1591TIP3    H2 4738   4.469   1.371   2.659
 1592TIP3   OH2 4739   0.555   6.252   3.922
 1592TIP3    H1 4740   0.551   6.347   3.909
 1592TIP3    H2 4741   0.547   6.240   4.017
 1593TIP3   OH2 4742   3.894   2.628   4.001
 1593TIP3    H1 4743   3.799   2.632   4.016
 1593TIP3    H2 4744   3.907   2.670   3.916
 1594TIP3   OH2 4745   3.622   5.715   4.087
 1594TIP3    H1 4746   3.595   5.643   4.144
 1594TIP3    H2 4747   3.563   5.708   4.011
 1595TIP3   OH2 4748   1.957   2.205   4.335
 1595TIP3    H1 4749   1.970   2.267   4.263
 1595TIP3    H2 4750   1.981   2.253   4.414
 1596TIP3   OH2 4751   6.106   4.118   2.588
 1596TIP3    H1 4752   6.114   4.197   2.642
 1596TIP3    H2 4753   6.014   4.093   2.598
 1597TIP3   OH2 4754   3.232   1.672   5.475
 1597TIP3    H1 4755   3.198   1.746   5.426
 1597TIP3    H2 4756   3.159   1.610   5.479
 1598TIP3   OH2 4757   2.124   0.783   0.733
 1598TIP3    H1 4758   2.149   0.837   0.808
 1598TIP3    H2 4759   2.045   0.825   0.698
 1599TIP3   OH2 4760   0.231   4.576   1.390
 1599TIP3    H1 4761   0.169   4.648   1.397
 1599TIP3    H2 4762   0.224   4.529   1.473
 1600TIP3   OH2 4763   4.556   3.420   0.338
 1600TIP3    H1 4764   4.592   3.331   0.332
 1600TIP3    H2 4765   4.587   3.464   0.259
 1601TIP3   OH2 4766   4.767   3.403   1.925
 1601TIP3    H1 4767   4.825   3.329   1.907
 1601TIP3    H2 4768   4.824   3.480   1.917
 1602TIP3   OH2 4769   0.018   4.122   0.629
 1602TIP3    H1 4770   0.105   4.097   0.660
 1602TIP3    H2 4771  -0.008   4.052   0.570
 1603TIP3   OH2 4772   4.849   6.056   1.116
 1603TIP3    H1 4773   4.850   5.961   1.119
 1603TIP3    H2 4774   4.941   6.081   1.122
 1604TIP3   OH2 4775   0.106   3.152   4.499
 1604TIP3    H1 4776   0.093   3.233   4.549
 1604TIP3    H2 4777   0.079   3.174   4.410
 1605TIP3   OH2 4778   5.535   3.805   4.490
 1605TIP3    H1 4779   5.615   3.827   4.539
 1605TIP3    H2 4780   5.475   3.771   4.556
 1606TIP3   OH2 4781   2.604   6.073   5.633
 1606TIP3    H1 4782   2.560   6.072   5.719
 1606TIP3    H2 4783   2.660   6.150   5.636
 1607TIP3   OH2 4784   6.539   1.267   4.846
 1607TIP3    H1 4785   6.470   1.241   4.784
 1607TIP3    H2 4786   6.501   1.250   4.932
 1608TIP3   OH2 4787   2.757   3.691   0.194
 1608TIP3    H1 4788   2.789   3.726   0.277
 1608TIP3    H2 4789   2.836   3.681   0.140
 1609TIP3   OH2 4790   3.978   4.928   2.124
 1609TIP3    H1 4791   3.953   4.913   2.216
 1609TIP3    H2 4792   3.922   5.000   2.096
 1610TIP3   OH2 4793   1.874   4.159   3.629
 1610TIP3    H1 4794   1.951   4.182   3.576
 1610TIP3    H2 4795   1.840   4.079   3.589
 1611TIP3   OH2 4796   5.812   0.704   3.858
 1611TIP3    H1 4797   5.807   0.756   3.938
 1611TIP3    H2 4798   5.887   0.739   3.811
 1612TIP3   OH2 4799   5.310   0.854   0.791
 1612TIP3    H1 4800   5.309   0.937   0.744
 1612TIP3    H2 4801   5.231   0.809   0.763
 1613TIP3   OH2 4802   0.706   3.946   0.349
 1613TIP3    H1 4803   0.735   4.031   0.381
 1613TIP3    H2 4804   0.622   3.931   0.393
 1614TIP3   OH2 4805   2.658   4.972   1.571
 1614TIP3    H1 4806   2.735   4.932   1.611
 1614TIP3    H2 4807   2.650   5.057   1.615
 1615TIP3   OH2 4808   3.118   1.061   0.467
 1615TIP3    H1 4809   3.037   1.075   0.517
 1615TIP3    H2 4810   3.152   1.149   0.451
 1616TIP3   OH2 4811   0.741   6.658   5.842
 1616TIP3    H1 4812   0.727   6.605   5.921
 1616TIP3    H2 4813   0.836   6.670   5.838
 1617TIP3   OH2 4814   0.203   1.188   4.018
 1617TIP3    H1 4815   0.198   1.253   4.089
 1617TIP3    H2 4816   0.170   1.234   3.941
 1618TIP3   OH2 4817   6.693   4.309   2.915
 1618TIP3    H1 4818   6.708   4.239   2.978
 1618TIP3    H2 4819   6.670   4.385   2.969
 1619TIP3   OH2 4820   6.256   0.649   4.175
 1619TIP3    H1 4821   6.195   0.718   4.152
 1619TIP3    H2 4822   6.298   0.679   4.256
 1620TIP3   OH2 4823   5.019   5.691   5.745
 1620TIP3    H1 4824   5.106   5.729   5.756
 1620TIP3    H2 4825   4.995   5.711   5.655
 1621TIP3   OH2 4826   6.706   3.742   3.257
 1621TIP3    H1 4827   6.681   3.686   3.184
 1621TIP3    H2 4828   6.649   3.715   3.329
 1622TIP3   OH2 4829   6.126   4.275   1.285
 1622TIP3    H1 4830   6.151   4.184   1.302
 1622TIP3    H2 4831   6.206   4.326   1.302
 1623TIP3   OH2 4832   6.814   4.612   1.171
 1623TIP3    H1 4833   6.751   4.542   1.189
 1623TIP3    H2 4834   6.880   4.603   1.239
 1624TIP3   OH2 4835   4.341   2.207   4.944
 1624TIP3    H1 4836   4.356   2.117   4.915
 1624TIP3    H2 4837   4.317   2.199   5.036
 1625TIP3   OH2 4838   0.308   4.987   3.582
 1625TIP3    H1 4839   0.278   4.919   3.522
 1625TIP3    H2 4840   0.232   5.006   3.638
 1626TIP3   OH2 4841   2.841   2.151   2.044
 1626TIP3    H1 4842   2.924   2.135   1.999
 1626TIP3    H2 4843   2.821   2.068   2.088
 1627TIP3   OH2 4844   3.512   1.894   4.795
 1627TIP3    H1 4845   3.483   1.809   4.830
 1627TIP3    H2 4846   3.570   1.871   4.722
 1628TIP3   OH2 4847   0.616   4.922   3.383
 1628TIP3    H1 4848   0.692   4.968   3.345
 1628TIP3    H2 4849   0.543   4.945   3.325
 1629TIP3   OH2 4850   3.009   0.131   3.581
 1629TIP3    H1 4851   3.068   0.093   3.517
 1629TIP3    H2 4852   2.949   0.185   3.530
 1630TIP3   OH2 4853   1.063   6.235   0.921
 1630TIP3    H1 4854   1.041   6.158   0.973
 1630TIP3    H2 4855   1.131   6.280   0.971
 1631TIP3   OH2 4856   6.136   5.972   0.332
 1631TIP3    H1 4857   6.206   6.017   0.380
 1631TIP3    H2 4858   6.182   5.908   0.278
 1632TIP3   OH2 4859   3.430   3.875   4.836
 1632TIP3    H1 4860   3.471   3.801   4.880
 1632TIP3    H2 4861   3.419   3.846   4.746
 1633TIP3   OH2 4862   2.245   4.325   5.373
 1633TIP3    H1 4863   2.299   4.373   5.310
 1633TIP3    H2 4864   2.283   4.238   5.377
 1634TIP3   OH2 4865   0.556   5.181   4.896
 1634TIP3    H1 4866   0.510   5.102   4.867
 1634TIP3    H2 4867   0.623   5.194   4.830
 1635TIP3   OH2 4868   2.299   6.476   0.280
 1635TIP3    H1 4869   2.302   6.405   0.345
 1635TIP3    H2 4870   2.240   6.444   0.212
 1636TIP3   OH2 4871   0.640   1.189   2.363
 1636TIP3    H1 4872   0.563   1.238   2.391
 1636TIP3    H2 4873   0.674   1.149   2.443
 1637TIP3   OH2 4874   1.343   3.061   2.257
 1637TIP3    H1 4875   1.400   3.076   2.181
 1637TIP3    H2 4876   1.393   3.095   2.331
 1638TIP3   OH2 4877   0.658   0.519   0.235
 1638TIP3    H1 4878   0.608   0.471   0.168
 1638TIP3    H2 4879   0.633   0.477   0.318
 1639TIP3   OH2 4880   5.190   5.174   2.995
 1639TIP3    H1 4881   5.142   5.127   2.928
 1639TIP3    H2 4882   5.129   5.182   3.068
 1640TIP3   OH2 4883   6.881   0.572   1.595
 1640TIP3    H1 4884   6.834   0.489   1.598
 1640TIP3    H2 4885   6.930   0.575   1.677
 1641TIP3   OH2 4886   5.770   2.697   5.653
 1641TIP3    H1 4887   5.754   2.632   5.722
 1641TIP3    H2 4888   5.862   2.721   5.664
 1642TIP3   OH2 4889   1.030   2.945   4.712
 1642TIP3    H1 4890   0.997   2.985   4.632
 1642TIP3    H2 4891   0.967   2.971   4.779
 1643TIP3   OH2 4892   3.602   3.081   4.722
 1643TIP3    H1 4893   3.629   3.165   4.684
 1643TIP3    H2 4894   3.680   3.049   4.768
 1644TIP3   OH2 4895   1.688   0.098   5.225
 1644TIP3    H1 4896   1.656   0.073   5.312
 1644TIP3    H2 4897   1.782   0.077   5.228
 1645TIP3   OH2 4898   4.192   0.315   5.417
 1645TIP3    H1 4899   4.116   0.304   5.475
 1645TIP3    H2 4900   4.206   0.229   5.378
 1646TIP3   OH2 4901   5.326   5.402   0.168
 1646TIP3    H1 4902   5.332   5.319   0.215
 1646TIP3    H2 4903   5.246   5.395   0.116
 1647TIP3   OH2 4904   1.962   6.198   2.227
 1647TIP3    H1 4905   1.925   6.265   2.169
 1647TIP3    H2 4906   1.952   6.234   2.315
 1648TIP3   OH2 4907   6.316   5.978   2.504
 1648TIP3    H1 4908   6.374   5.953   2.432
 1648TIP3    H2 4909   6.332   5.911   2.572
 1649TIP3   OH2 4910   6.768   6.062   2.429
 1649TIP3    H1 4911   6.821   5.987   2.403
 1649TIP3    H2 4912   6.809   6.094   2.510
 1650TIP3   OH2 4913   6.111   4.717   1.111
 1650TIP3    H1 4914   6.065   4.687   1.189
 1650TIP3    H2 4915   6.045   4.716   1.042
 1651TIP3   OH2 4916   3.207   2.011   1.271
 1651TIP3    H1 4917   3.293   2.054   1.268
 1651TIP3    H2 4918   3.192   1.982   1.181
 1652TIP3   OH2 4919   0.081   1.873   5.551
 1652TIP3    H1 4920   0.059   1.833   5.635
 1652TIP3    H2 4921   0.101   1.964   5.572
 1653TIP3   OH2 4922   5.282   3.800   0.390
 1653TIP3    H1 4923   5.342   3.874   0.396
 1653TIP3    H2 4924   5.331   3.733   0.342
 1654TIP3   OH2 4925   6.520   2.722   1.815
 1654TIP3    H1 4926   6.459   2.721   1.741
 1654TIP3    H2 4927   6.598   2.678   1.782
 1655TIP3   OH2 4928   3.422   0.039   4.708
 1655TIP3    H1 4929   3.467   0.095   4.644
 1655TIP3    H2 4930   3.391  -0.036   4.657
 1656TIP3   OH2 4931   3.715   1.401   4.557
 1656TIP3    H1 4932   3.807   1.427   4.549
 1656TIP3    H2 4933   3.703   1.384   4.650
 1657TIP3   OH2 4934   5.494   6.710   4.973
 1657TIP3    H1 4935   5.467   6.676   5.058
 1657TIP3    H2 4936   5.580   6.670   4.957
 1658TIP3   OH2 4937   4.220   3.885   3.736
 1658TIP3    H1 4938   4.275   3.940   3.792
 1658TIP3    H2 4939   4.198   3.810   3.790
 1659TIP3   OH2 4940   0.205   5.790   4.741
 1659TIP3    H1 4941   0.176   5.825   4.657
 1659TIP3    H2 4942   0.154   5.839   4.806
 1660TIP3   OH2 4943   3.054   1.526   2.251
 1660TIP3    H1 4944   3.020   1.477   2.326
 1660TIP3    H2 4945   2.993   1.506   2.180
 1661TIP3   OH2 4946   0.885   4.977   3.760
 1661TIP3    H1 4947   0.961   4.939   3.803
 1661TIP3    H2 4948   0.837   5.023   3.829
 1662TIP3   OH2 4949   4.800   4.925   3.312
 1662TIP3    H1 4950   4.889   4.912   3.278
 1662TIP3    H2 4951   4.797   5.018   3.334
 1663TIP3   OH2 4952   7.240   6.424   3.532
 1663TIP3    H1 4953   7.280   6.376   3.604
 1663TIP3    H2 4954   7.149   6.437   3.560
 1664TIP3   OH2 4955   2.147   1.144   0.277
 1664TIP3    H1 4956   2.129   1.072   0.338
 1664TIP3    H2 4957   2.103   1.118   0.197
 1665TIP3   OH2 4958   7.232   1.380   3.215
 1665TIP3    H1 4959   7.178   1.303   3.197
 1665TIP3    H2 4960   7.211   1.403   3.305
 1666TIP3   OH2 4961   1.096   5.508   0.911
 1666TIP3    H1 4962   1.129   5.561   0.984
 1666TIP3    H2 4963   1.050   5.436   0.953
 1667TIP3   OH2 4964   5.304   2.466   0.116
 1667TIP3    H1 4965   5.274   2.377   0.132
 1667TIP3    H2 4966   5.370   2.457   0.047
 1668TIP3   OH2 4967   4.443   0.574   2.388
 1668TIP3    H1 4968   4.428   0.651   2.442
 1668TIP3    H2 4969   4.461   0.504   2.450
 1669TIP3   OH2 4970   1.209   0.035   1.151
 1669TIP3    H1 4971   1.194   0.079   1.067
 1669TIP3    H2 4972   1.135  -0.025   1.160
 1670TIP3   OH2 4973   4.447   2.288   1.031
 1670TIP3    H1 4974   4.414   2.250   1.113
 1670TIP3    H2 4975   4.516   2.348   1.059
 1671TIP3   OH2 4976   0.761   2.120   4.343
 1671TIP3    H1 4977   0.815   2.048   4.310
 1671TIP3    H2 4978   0.815   2.163   4.409
 1672TIP3   OH2 4979   5.222   4.359   2.668
 1672TIP3    H1 4980   5.295   4.325   2.616
 1672TIP3    H2 4981   5.262   4.422   2.727
 1673TIP3   OH2 4982   2.784   1.460   1.854
 1673TIP3    H1 4983   2.785   1.472   1.949
 1673TIP3    H2 4984   2.859   1.404   1.837
 1674TIP3   OH2 4985   0.365   2.392   0.537
 1674TIP3    H1 4986   0.315   2.376   0.458
 1674TIP3    H2 4987   0.309   2.361   0.608
 1675TIP3   OH2 4988   1.866   0.669   4.539
 1675TIP3    H1 4989   1.796   0.719   4.497
 1675TIP3    H2 4990   1.826   0.584   4.559
 1676TIP3   OH2 4991   4.123   5.709   0.006
 1676TIP3    H1 4992   4.042   5.759  -0.007
 1676TIP3    H2 4993   4.181   5.768   0.052
 1677TIP3   OH2 4994   5.514   2.569   2.079
 1677TIP3    H1 4995   5.567   2.608   2.148
 1677TIP3    H2 4996   5.453   2.511   2.125
 1678TIP3   OH2 4997   1.890   2.306   0.354
 1678TIP3    H1 4998   1.968   2.292   0.408
 1678TIP3    H2 4999   1.907   2.389   0.308
 1679TIP3   OH2 5000   3.689   6.058   5.768
 1679TIP3    H1 5001   3.665   6.118   5.839
 1679TIP3    H2 5002   3.666   5.971   5.802
 1680TIP3   OH2 5003   3.537   1.644   0.190
 1680TIP3    H1 5004   3.566   1.729   0.223
 1680TIP3    H2 5005   3.476   1.665   0.119
 1681TIP3   OH2 5006   6.267   0.884   5.713
 1681TIP3    H1 5007   6.187   0.895   5.765
 1681TIP3    H2 5008   6.246   0.816   5.650
 1682TIP3   OH2 5009   4.236   6.327   2.290
 1682TIP3    H1 5010   4.212   6.389   2.358
 1682TIP3    H2 5011   4.157   6.316   2.238
 1683TIP3   OH2 5012   2.201   2.241   5.144
 1683TIP3    H1 5013   2.158   2.264   5.227
 1683TIP3    H2 5014   2.279   2.296   5.142
 1684TIP3   OH2 5015   5.828   1.807   0.957
 1684TIP3    H1 5016   5.866   1.892   0.983
 1684TIP3    H2 5017   5.850   1.799   0.864
 1685TIP3   OH2 5018   2.295   0.560   5.631
 1685TIP3    H1 5019   2.305   0.630   5.568
 1685TIP3    H2 5020   2.221   0.509   5.600
 1686TIP3   OH2 5021   3.869   6.779   4.565
 1686TIP3    H1 5022   3.827   6.720   4.502
 1686TIP3    H2 5023   3.892   6.856   4.514
 1687TIP3   OH2 5024   0.436   3.690   3.697
 1687TIP3    H1 5025   0.406   3.600   3.684
 1687TIP3    H2 5026   0.371   3.728   3.757
 1688TIP3   OH2 5027   3.019   5.320   3.478
 1688TIP3    H1 5028   2.991   5.253   3.415
 1688TIP3    H2 5029   2.940   5.340   3.527
 1689TIP3   OH2 5030   2.028   1.589   0.148
 1689TIP3    H1 5031   1.933   1.583   0.144
 1689TIP3    H2 5032   2.053   1.528   0.218
 1690TIP3   OH2 5033   1.899   3.158   2.524
 1690TIP3    H1 5034   1.906   3.241   2.478
 1690TIP3    H2 5035   1.987   3.121   2.522
 1691TIP3   OH2 5036   0.145   4.182   2.853
 1691TIP3    H1 5037   0.202   4.201   2.927
 1691TIP3    H2 5038   0.200   4.133   2.792
 1692TIP3   OH2 5039   6.463   3.053   2.976
 1692TIP3    H1 5040   6.435   2.980   3.032
 1692TIP3    H2 5041   6.485   3.123   3.037
 1693TIP3   OH2 5042   3.865   2.056   0.989
 1693TIP3    H1 5043   3.878   2.151   0.979
 1693TIP3    H2 5044   3.779   2.048   1.029
 1694TIP3   OH2 5045   2.259   6.183   2.968
 1694TIP3    H1 5046   2.298   6.270   2.982
 1694TIP3    H2 5047   2.194   6.175   3.037
 1695TIP3   OH2 5048   6.991   3.508   1.441
 1695TIP3    H1 5049   6.991   3.597   1.406
 1695TIP3    H2 5050   6.932   3.513   1.517
 1696TIP3   OH2 5051   2.380   4.599   4.673
 1696TIP3    H1 5052   2.340   4.536   4.614
 1696TIP3    H2 5053   2.324   4.599   4.751
 1697TIP3   OH2 5054   0.869   0.594   2.253
 1697TIP3    H1 5055   0.952   0.547   2.246
 1697TIP3    H2 5056   0.888   0.667   2.312
 1698TIP3   OH2 5057   0.009   0.398   3.245
 1698TIP3    H1 5058   0.093   0.438   3.268
 1698TIP3    H2 5059  -0.056   0.466   3.263
 1699TIP3   OH2 5060   3.248   0.252   4.765
 1699TIP3    H1 5061   3.183   0.213   4.823
 1699TIP3    H2 5062   3.315   0.184   4.756
 1700TIP3   OH2 5063   4.714   2.149   0.684
 1700TIP3    H1 5064   4.804   2.117   0.694
 1700TIP3    H2 5065   4.725   2.235   0.643
 1701TIP3   OH2 5066   6.353   5.962   0.062
 1701TIP3    H1 5067   6.359   5.959  -0.034
 1701TIP3    H2 5068   6.442   5.986   0.090
 1702TIP3   OH2 5069   4.185   0.605   2.238
 1702TIP3    H1 5070   4.133   0.660   2.297
 1702TIP3    H2 5071   4.262   0.581   2.289
 1703TIP3   OH2 5072   4.973   6.238   1.620
 1703TIP3    H1 5073   5.049   6.232   1.678
 1703TIP3    H2 5074   4.917   6.303   1.661
 1704TIP3   OH2 5075   5.180   3.186   3.157
 1704TIP3    H1 5076   5.218   3.152   3.076
 1704TIP3    H2 5077   5.253   3.189   3.219
 1705TIP3   OH2 5078   2.064   0.808   2.083
 1705TIP3    H1 5079   2.059   0.735   2.145
 1705TIP3    H2 5080   2.075   0.886   2.138
 1706TIP3   OH2 5081   3.964   6.631   0.840
 1706TIP3    H1 5082   4.019   6.599   0.769
 1706TIP3    H2 5083   3.880   6.586   0.827
 1707TIP3   OH2 5084   2.123   0.520   4.782
 1707TIP3    H1 5085   2.053   0.458   4.762
 1707TIP3    H2 5086   2.086   0.606   4.762
 1708TIP3   OH2 5087   5.803   4.396   1.365
 1708TIP3    H1 5088   5.788   4.307   1.334
 1708TIP3    H2 5089   5.759   4.399   1.450
 1709TIP3   OH2 5090   3.246   5.325   3.617
 1709TIP3    H1 5091   3.156   5.330   3.584
 1709TIP3    H2 5092   3.237   5.291   3.706
 1710TIP3   OH2 5093   4.422   2.015   1.615
 1710TIP3    H1 5094   4.385   2.094   1.653
 1710TIP3    H2 5095   4.349   1.972   1.572
 1711TIP3   OH2 5096   0.308   4.268   3.361
 1711TIP3    H1 5097   0.396   4.283   3.397
 1711TIP3    H2 5098   0.249   4.300   3.429
 1712TIP3   OH2 5099   2.695   5.251   0.445
 1712TIP3    H1 5100   2.718   5.244   0.537
 1712TIP3    H2 5101   2.600   5.239   0.443
 1713TIP3   OH2 5102   5.498   4.890   0.763
 1713TIP3    H1 5103   5.450   4.907   0.844
 1713TIP3    H2 5104   5.542   4.806   0.778
 1714TIP3   OH2 5105   2.006   3.107   1.602
 1714TIP3    H1 5106   2.069   3.178   1.610
 1714TIP3    H2 5107   2.031   3.061   1.522
 1715TIP3   OH2 5108   6.734   2.367   3.166
 1715TIP3    H1 5109   6.772   2.313   3.236
 1715TIP3    H2 5110   6.767   2.455   3.184
 1716TIP3   OH2 5111   0.242   1.603   2.107
 1716TIP3    H1 5112   0.161   1.552   2.108
 1716TIP3    H2 5113   0.270   1.604   2.199
 1717TIP3   OH2 5114   2.295   5.568   0.793
 1717TIP3    H1 5115   2.214   5.585   0.842
 1717TIP3    H2 5116   2.359   5.545   0.860
 1718TIP3   OH2 5117   0.839   6.350   5.437
 1718TIP3    H1 5118   0.923   6.365   5.395
 1718TIP3    H2 5119   0.774   6.367   5.369
 1719TIP3   OH2 5120   5.593   2.600   0.851
 1719TIP3    H1 5121   5.602   2.544   0.773
 1719TIP3    H2 5122   5.652   2.674   0.834
 1720TIP3   OH2 5123   6.472   5.973   3.754
 1720TIP3    H1 5124   6.535   5.982   3.683
 1720TIP3    H2 5125   6.463   6.061   3.790
 1721TIP3   OH2 5126   2.608   3.037   5.219
 1721TIP3    H1 5127   2.587   2.971   5.284
 1721TIP3    H2 5128   2.617   2.987   5.137
 1722TIP3   OH2 5129   2.735   0.320   1.874
 1722TIP3    H1 5130   2.758   0.233   1.905
 1722TIP3    H2 5131   2.728   0.373   1.953
 1723TIP3   OH2 5132   5.420   6.592   5.197
 1723TIP3    H1 5133   5.462   6.538   5.264
 1723TIP3    H2 5134   5.328   6.593   5.220
 1724TIP3   OH2 5135   4.137   0.167   1.445
 1724TIP3    H1 5136   4.083   0.157   1.366
 1724TIP3    H2 5137   4.191   0.088   1.447
 1725TIP3   OH2 5138   6.193   4.354   0.861
 1725TIP3    H1 5139   6.119   4.346   0.921
 1725TIP3    H2 5140   6.159   4.325   0.777
 1726TIP3   OH2 5141   4.376   0.790   2.541
 1726TIP3    H1 5142   4.401   0.812   2.630
 1726TIP3    H2 5143   4.289   0.752   2.549
 1727TIP3   OH2 5144   0.835   5.429   1.248
 1727TIP3    H1 5145   0.764   5.467   1.196
 1727TIP3    H2 5146   0.911   5.484   1.228
 1728TIP3   OH2 5147   3.775   3.182   0.163
 1728TIP3    H1 5148   3.722   3.197   0.241
 1728TIP3    H2 5149   3.765   3.088   0.145
 1729TIP3   OH2 5150   0.028   1.690   2.752
 1729TIP3    H1 5151   0.032   1.776   2.793
 1729TIP3    H2 5152   0.078   1.633   2.811
 1730TIP3   OH2 5153   5.142   5.617   2.745
 1730TIP3    H1 5154   5.210   5.567   2.789
 1730TIP3    H2 5155   5.060   5.582   2.780
 1731TIP3   OH2 5156   2.224   1.415   1.261
 1731TIP3    H1 5157   2.215   1.482   1.330
 1731TIP3    H2 5158   2.282   1.455   1.196
 1732TIP3   OH2 5159   3.783   6.582   4.743
 1732TIP3    H1 5160   3.863   6.530   4.754
 1732TIP3    H2 5161   3.798   6.631   4.662
 1733TIP3   OH2 5162   6.118   0.628   4.798
 1733TIP3    H1 5163   6.181   0.556   4.799
 1733TIP3    H2 5164   6.033   0.585   4.806
 1734TIP3   OH2 5165   5.303   2.941   4.920
 1734TIP3    H1 5166   5.244   2.988   4.979
 1734TIP3    H2 5167   5.246   2.899   4.857
 1735TIP3   OH2 5168   5.011   0.685   0.750
 1735TIP3    H1 5169   5.009   0.709   0.657
 1735TIP3    H2 5170   4.922   0.655   0.768
 1736TIP3   OH2 5171   7.252   1.384   0.951
 1736TIP3    H1 5172   7.271   1.298   0.914
 1736TIP3    H2 5173   7.170   1.411   0.910
 1737TIP3   OH2 5174   4.663   4.216   0.208
 1737TIP3    H1 5175   4.688   4.308   0.210
 1737TIP3    H2 5176   4.741   4.170   0.176
 1738TIP3   OH2 5177   1.736   2.887   3.395
 1738TIP3    H1 5178   1.704   2.856   3.480
 1738TIP3    H2 5179   1.728   2.811   3.337
 1739TIP3   OH2 5180   2.304   1.293   5.102
 1739TIP3    H1 5181   2.255   1.375   5.095
 1739TIP3    H2 5182   2.238   1.225   5.084
 1740TIP3   OH2 5183   6.652   2.491   0.235
 1740TIP3    H1 5184   6.657   2.486   0.139
 1740TIP3    H2 5185   6.668   2.402   0.265
 1741TIP3   OH2 5186   4.984   5.548   3.025
 1741TIP3    H1 5187   4.923   5.589   3.087
 1741TIP3    H2 5188   5.065   5.537   3.075
 1742TIP3   OH2 5189   1.034   1.676   3.354
 1742TIP3    H1 5190   1.087   1.741   3.399
 1742TIP3    H2 5191   1.058   1.683   3.262
 1743TIP3   OH2 5192   1.342   1.741   0.204
 1743TIP3    H1 5193   1.386   1.806   0.258
 1743TIP3    H2 5194   1.395   1.736   0.125
 1744TIP3   OH2 5195   6.109   2.225   3.942
 1744TIP3    H1 5196   6.162   2.257   3.870
 1744TIP3    H2 5197   6.026   2.271   3.933
 1745TIP3   OH2 5198   0.183   2.538   3.935
 1745TIP3    H1 5199   0.259   2.561   3.881
 1745TIP3    H2 5200   0.212   2.555   4.025
 1746TIP3   OH2 5201   3.200   1.297   0.399
 1746TIP3    H1 5202   3.233   1.259   0.317
 1746TIP3    H2 5203   3.276   1.341   0.437
 1747TIP3   OH2 5204   1.338   2.437   1.754
 1747TIP3    H1 5205   1.336   2.418   1.848
 1747TIP3    H2 5206   1.303   2.358   1.713
 1748TIP3   OH2 5207   5.049   2.044   5.482
 1748TIP3    H1 5208   5.013   2.131   5.466
 1748TIP3    H2 5209   5.104   2.027   5.407
 1749TIP3   OH2 5210   3.513   2.636   0.325
 1749TIP3    H1 5211   3.467   2.570   0.274
 1749TIP3    H2 5212   3.464   2.717   0.311
 1750TIP3   OH2 5213   5.143   0.091   4.577
 1750TIP3    H1 5214   5.160   0.118   4.486
 1750TIP3    H2 5215   5.080   0.020   4.569
 1751TIP3   OH2 5216   1.831   0.947   4.834
 1751TIP3    H1 5217   1.773   1.014   4.797
 1751TIP3    H2 5218   1.771   0.882   4.872
 1752TIP3   OH2 5219   2.301   4.701   4.376
 1752TIP3    H1 5220   2.380   4.653   4.399
 1752TIP3    H2 5221   2.303   4.779   4.431
 1753TIP3   OH2 5222   0.668   1.059   1.553
 1753TIP3    H1 5223   0.651   1.102   1.469
 1753TIP3    H2 5224   0.763   1.048   1.555
 1754TIP3   OH2 5225   2.556   1.697   0.505
 1754TIP3    H1 5226   2.525   1.763   0.443
 1754TIP3    H2 5227   2.646   1.724   0.526
 1755TIP3   OH2 5228   7.136   6.369   2.272
 1755TIP3    H1 5229   7.154   6.392   2.180
 1755TIP3    H2 5230   7.087   6.288   2.267
 1756TIP3   OH2 5231   4.436   4.002   2.268
 1756TIP3    H1 5232   4.396   3.936   2.212
 1756TIP3    H2 5233   4.388   3.996   2.350
 1757TIP3   OH2 5234   2.024   0.971   3.799
 1757TIP3    H1 5235   1.985   1.058   3.802
 1757TIP3    H2 5236   2.106   0.983   3.750
 1758TIP3   OH2 5237   3.853   0.660   1.003
 1758TIP3    H1 5238   3.914   0.596   1.041
 1758TIP3    H2 5239   3.896   0.690   0.923
 1759TIP3   OH2 5240   1.307   3.111   2.724
 1759TIP3    H1 5241   1.234   3.067   2.681
 1759TIP3    H2 5242   1.269   3.189   2.764
 1760TIP3   OH2 5243   0.939   1.531   5.578
 1760TIP3    H1 5244   0.848   1.552   5.561
 1760TIP3    H2 5245   0.988   1.610   5.552
 1761TIP3   OH2 5246   0.798   5.721   1.646
 1761TIP3    H1 5247   0.841   5.784   1.588
 1761TIP3    H2 5248   0.790   5.641   1.594
 1762TIP3   OH2 5249   2.963   5.513   1.907
 1762TIP3    H1 5250   3.027   5.508   1.835
 1762TIP3    H2 5251   2.879   5.528   1.863
 1763TIP3   OH2 5252   6.922   5.133   3.834
 1763TIP3    H1 5253   6.839   5.179   3.822
 1763TIP3    H2 5254   6.985   5.183   3.782
 1764TIP3   OH2 5255   6.286   3.614   2.383
 1764TIP3    H1 5256   6.330   3.659   2.456
 1764TIP3    H2 5257   6.354   3.603   2.317
 1765TIP3   OH2 5258   5.298   4.147   5.013
 1765TIP3    H1 5259   5.270   4.234   4.985
 1765TIP3    H2 5260   5.218   4.094   5.012
 1766TIP3   OH2 5261   0.022   4.958   4.345
 1766TIP3    H1 5262  -0.057   4.931   4.392
 1766TIP3    H2 5263  -0.006   5.033   4.293
 1767TIP3   OH2 5264   1.655   2.514   3.514
 1767TIP3    H1 5265   1.633   2.425   3.485
 1767TIP3    H2 5266   1.717   2.545   3.448
 1768TIP3   OH2 5267   4.914   5.503   0.097
 1768TIP3    H1 5268   4.862   5.476   0.173
 1768TIP3    H2 5269   4.957   5.584   0.125
 1769TIP3   OH2 5270   5.042   3.007   3.469
 1769TIP3    H1 5271   5.006   3.013   3.381
 1769TIP3    H2 5272   5.065   3.098   3.491
 1770TIP3   OH2 5273   3.358   1.145   5.013
 1770TIP3    H1 5274   3.380   1.065   4.965
 1770TIP3    H2 5275   3.272   1.127   5.051
 1771TIP3   OH2 5276   4.663   1.192   4.643
 1771TIP3    H1 5277   4.757   1.172   4.642
 1771TIP3    H2 5278   4.653   1.258   4.712
 1772TIP3   OH2 5279   3.556   5.108   1.059
 1772TIP3    H1 5280   3.561   5.095   0.964
 1772TIP3    H2 5281   3.534   5.201   1.069
 1773TIP3   OH2 5282   4.551   1.981   4.131
 1773TIP3    H1 5283   4.636   2.018   4.152
 1773TIP3    H2 5284   4.569   1.919   4.060
 1774TIP3   OH2 5285   5.404   3.815   0.861
 1774TIP3    H1 5286   5.446   3.763   0.793
 1774TIP3    H2 5287   5.322   3.844   0.823
 1775TIP3   OH2 5288   2.171   3.124   2.857
 1775TIP3    H1 5289   2.216   3.048   2.892
 1775TIP3    H2 5290   2.079   3.098   2.853
 1776TIP3   OH2 5291   0.201   0.641   0.153
 1776TIP3    H1 5292   0.128   0.679   0.106
 1776TIP3    H2 5293   0.268   0.625   0.086
 1777TIP3   OH2 5294   6.039   1.934   3.707
 1777TIP3    H1 5295   6.116   1.958   3.759
 1777TIP3    H2 5296   6.075   1.908   3.622
 1778TIP3   OH2 5297   1.449   0.210   0.776
 1778TIP3    H1 5298   1.372   0.265   0.791
 1778TIP3    H2 5299   1.460   0.162   0.858
 1779TIP3   OH2 5300   1.188   2.418   5.174
 1779TIP3    H1 5301   1.279   2.401   5.197
 1779TIP3    H2 5302   1.193   2.492   5.113
 1780TIP3   OH2 5303   0.231   4.916   5.872
 1780TIP3    H1 5304   0.282   4.990   5.840
 1780TIP3    H2 5305   0.151   4.956   5.908
 1781TIP3   OH2 5306   3.468   0.056   2.613
 1781TIP3    H1 5307   3.413   0.096   2.681
 1781TIP3    H2 5308   3.557   0.071   2.643
 1782TIP3   OH2 5309   0.740   0.323   1.106
 1782TIP3    H1 5310   0.697   0.333   1.021
 1782TIP3    H2 5311   0.718   0.403   1.154
 1783TIP3   OH2 5312   0.467   5.209   0.103
 1783TIP3    H1 5313   0.553   5.225   0.065
 1783TIP3    H2 5314   0.424   5.151   0.040
 1784TIP3   OH2 5315   7.061   6.432   1.997
 1784TIP3    H1 5316   7.054   6.399   1.907
 1784TIP3    H2 5317   7.015   6.516   1.995
 1785TIP3   OH2 5318   4.466   4.001   1.354
 1785TIP3    H1 5319   4.412   3.944   1.409
 1785TIP3    H2 5320   4.402   4.051   1.303
 1786TIP3   OH2 5321   1.982   4.718   3.310
 1786TIP3    H1 5322   2.037   4.678   3.242
 1786TIP3    H2 5323   1.907   4.754   3.262
 1787TIP3   OH2 5324   5.387   3.218   0.219
 1787TIP3    H1 5325   5.471   3.196   0.258
 1787TIP3    H2 5326   5.389   3.313   0.207
 1788TIP3   OH2 5327   4.874   0.457   2.872
 1788TIP3    H1 5328   4.958   0.477   2.832
 1788TIP3    H2 5329   4.827   0.541   2.871
 1789TIP3   OH2 5330   5.991   4.764   3.235
 1789TIP3    H1 5331   5.954   4.728   3.155
 1789TIP3    H2 5332   6.082   4.734   3.236
 1790TIP3   OH2 5333   4.611   6.448   3.584
 1790TIP3    H1 5334   4.634   6.526   3.533
 1790TIP3    H2 5335   4.552   6.399   3.527
 1791TIP3   OH2 5336   4.190   5.935   1.092
 1791TIP3    H1 5337   4.261   5.936   1.155
 1791TIP3    H2 5338   4.140   6.015   1.111
 1792TIP3   OH2 5339   3.760   5.574   2.306
 1792TIP3    H1 5340   3.706   5.538   2.236
 1792TIP3    H2 5341   3.699   5.590   2.378
 1793TIP3   OH2 5342   1.516   0.536   0.392
 1793TIP3    H1 5343   1.574   0.489   0.453
 1793TIP3    H2 5344   1.480   0.467   0.336
 1794TIP3   OH2 5345   3.531   4.289   1.016
 1794TIP3    H1 5346   3.584   4.292   0.936
 1794TIP3    H2 5347   3.444   4.317   0.988
 1795TIP3   OH2 5348   4.463   0.892   4.507
 1795TIP3    H1 5349   4.442   0.833   4.434
 1795TIP3    H2 5350   4.416   0.973   4.486
 1796TIP3   OH2 5351   6.308   1.659   5.740
 1796TIP3    H1 5352   6.352   1.744   5.736
 1796TIP3    H2 5353   6.377   1.595   5.724
 1797TIP3   OH2 5354   0.466   5.194   3.861
 1797TIP3    H1 5355   0.519   5.124   3.824
 1797TIP3    H2 5356   0.379   5.183   3.822
 1798TIP3   OH2 5357   2.628   4.375   3.645
 1798TIP3    H1 5358   2.566   4.306   3.621
 1798TIP3    H2 5359   2.574   4.452   3.660
 1799TIP3   OH2 5360   2.929   4.461   4.653
 1799TIP3    H1 5361   2.966   4.390   4.706
 1799TIP3    H2 5362   2.835   4.444   4.652
 1800TIP3   OH2 5363   4.365   0.198   2.495
 1800TIP3    H1 5364   4.281   0.239   2.515
 1800TIP3    H2 5365   4.363   0.182   2.401
 1801TIP3   OH2 5366   6.602   0.208   2.969
 1801TIP3    H1 5367   6.529   0.251   2.924
 1801TIP3    H2 5368   6.564   0.174   3.049
 1802TIP3   OH2 5369   4.309   1.609   0.472
 1802TIP3    H1 5370   4.241   1.545   0.493
 1802TIP3    H2 5371   4.275   1.692   0.505
 1803TIP3   OH2 5372   2.199   5.884   3.246
 1803TIP3    H1 5373   2.162   5.972   3.246
 1803TIP3    H2 5374   2.203   5.860   3.154
 1804TIP3   OH2 5375   6.530   6.546   0.201
 1804TIP3    H1 5376   6.551   6.585   0.116
 1804TIP3    H2 5377   6.595   6.584   0.261
 1805TIP3   OH2 5378   5.483   4.000   2.148
 1805TIP3    H1 5379   5.530   3.996   2.231
 1805TIP3    H2 5380   5.469   4.093   2.132
 1806TIP3   OH2 5381   1.613   1.660   3.466
 1806TIP3    H1 5382   1.520   1.656   3.446
 1806TIP3    H2 5383   1.642   1.744   3.430
 1807TIP3   OH2 5384   4.526   1.479   5.086
 1807TIP3    H1 5385   4.490   1.514   5.005
 1807TIP3    H2 5386   4.470   1.514   5.155
 1808TIP3   OH2 5387   3.721   5.648   5.602
 1808TIP3    H1 5388   3.781   5.690   5.541
 1808TIP3    H2 5389   3.733   5.554   5.587
 1809TIP3   OH2 5390   0.591   4.982   5.413
 1809TIP3    H1 5391   0.604   5.042   5.487
 1809TIP3    H2 5392   0.575   5.039   5.338
 1810TIP3   OH2 5393   2.689   5.108   2.197
 1810TIP3    H1 5394   2.722   5.018   2.190
 1810TIP3    H2 5395   2.766   5.163   2.179
 1811TIP3   OH2 5396   1.473   2.895   1.142
 1811TIP3    H1 5397   1.554   2.918   1.095
 1811TIP3    H2 5398   1.499   2.826   1.202
 1812TIP3   OH2 5399   6.379   4.143   4.195
 1812TIP3    H1 5400   6.387   4.070   4.135
 1812TIP3    H2 5401   6.424   4.114   4.275
 1813TIP3   OH2 5402   7.226   4.039   4.955
 1813TIP3    H1 5403   7.255   4.024   4.865
 1813TIP3    H2 5404   7.140   4.080   4.946
 1814TIP3   OH2 5405   5.273   5.720   2.171
 1814TIP3    H1 5406   5.251   5.772   2.093
 1814TIP3    H2 5407   5.241   5.773   2.244
 1815TIP3   OH2 5408   2.431   3.804   4.597
 1815TIP3    H1 5409   2.444   3.807   4.692
 1815TIP3    H2 5410   2.363   3.738   4.584
 1816TIP3   OH2 5411   1.881   1.787   2.512
 1816TIP3    H1 5412   1.969   1.805   2.546
 1816TIP3    H2 5413   1.831   1.763   2.590
 1817TIP3   OH2 5414   1.899   1.837   1.212
 1817TIP3    H1 5415   1.806   1.850   1.231
 1817TIP3    H2 5416   1.941   1.917   1.243
 1818TIP3   OH2 5417   5.181   4.014   0.607
 1818TIP3    H1 5418   5.123   3.953   0.560
 1818TIP3    H2 5419   5.158   4.001   0.699
 1819TIP3   OH2 5420   1.485   6.073   4.615
 1819TIP3    H1 5421   1.545   6.002   4.595
 1819TIP3    H2 5422   1.406   6.054   4.564
 1820TIP3   OH2 5423   3.979   1.257   1.219
 1820TIP3    H1 5424   4.021   1.321   1.277
 1820TIP3    H2 5425   3.916   1.212   1.276
 1821TIP3   OH2 5426   1.131   4.746   0.140
 1821TIP3    H1 5427   1.170   4.765   0.055
 1821TIP3    H2 5428   1.124   4.832   0.183
 1822TIP3   OH2 5429   2.662   0.087   4.322
 1822TIP3    H1 5430   2.615   0.081   4.405
 1822TIP3    H2 5431   2.596   0.111   4.257
 1823TIP3   OH2 5432   4.480   4.096   2.968
 1823TIP3    H1 5433   4.429   4.130   3.041
 1823TIP3    H2 5434   4.528   4.022   3.004
 1824TIP3   OH2 5435   3.262   2.647   3.494
 1824TIP3    H1 5436   3.329   2.710   3.522
 1824TIP3    H2 5437   3.247   2.669   3.402
 1825TIP3   OH2 5438   6.780   0.581   4.130
 1825TIP3    H1 5439   6.737   0.635   4.063
 1825TIP3    H2 5440   6.763   0.627   4.212
 1826TIP3   OH2 5441   4.100   6.473   5.229
 1826TIP3    H1 5442   4.147   6.458   5.311
 1826TIP3    H2 5443   4.008   6.457   5.251
 1827TIP3   OH2 5444   4.070   3.558   3.340
 1827TIP3    H1 5445   4.053   3.652   3.333
 1827TIP3    H2 5446   4.026   3.519   3.264
 1828TIP3   OH2 5447   6.500   4.784   1.145
 1828TIP3    H1 5448   6.465   4.834   1.072
 1828TIP3    H2 5449   6.477   4.834   1.222
 1829TIP3   OH2 5450   2.205   5.199   0.680
 1829TIP3    H1 5451   2.172   5.165   0.597
 1829TIP3    H2 5452   2.131   5.193   0.740
 1830TIP3   OH2 5453   2.396   6.328   3.876
 1830TIP3    H1 5454   2.333   6.372   3.819
 1830TIP3    H2 5455   2.443   6.268   3.818
 1831TIP3   OH2 5456   5.176   6.165   0.777
 1831TIP3    H1 5457   5.122   6.092   0.748
 1831TIP3    H2 5458   5.217   6.198   0.696
 1832TIP3   OH2 5459   3.191   6.676   1.659
 1832TIP3    H1 5460   3.205   6.621   1.582
 1832TIP3    H2 5461   3.279   6.705   1.684
 1833TIP3   OH2 5462   2.432   0.181   5.210
 1833TIP3    H1 5463   2.447   0.086   5.209
 1833TIP3    H2 5464   2.433   0.207   5.118
 1834TIP3   OH2 5465   4.051   3.646   2.103
 1834TIP3    H1 5466   4.061   3.663   2.010
 1834TIP3    H2 5467   3.982   3.707   2.131
 1835TIP3   OH2 5468   1.553   3.230   2.979
 1835TIP3    H1 5469   1.517   3.319   2.989
 1835TIP3    H2 5470   1.482   3.173   3.008
 1836TIP3   OH2 5471   4.940   1.789   1.139
 1836TIP3    H1 5472   4.941   1.811   1.232
 1836TIP3    H2 5473   4.896   1.704   1.136
 1837TIP3   OH2 5474   2.328   2.266   3.795
 1837TIP3    H1 5475   2.401   2.290   3.738
 1837TIP3    H2 5476   2.303   2.179   3.766
 1838TIP3   OH2 5477   6.379   1.436   5.314
 1838TIP3    H1 5478   6.396   1.417   5.406
 1838TIP3    H2 5479   6.447   1.390   5.266
 1839TIP3   OH2 5480   3.018   5.269   2.043
 1839TIP3    H1 5481   2.995   5.360   2.023
 1839TIP3    H2 5482   2.951   5.217   1.999
 1840TIP3   OH2 5483   5.655   6.350   5.739
 1840TIP3    H1 5484   5.706   6.370   5.817
 1840TIP3    H2 5485   5.582   6.411   5.741
 1841TIP3   OH2 5486   6.587   2.086   1.352
 1841TIP3    H1 5487   6.512   2.137   1.383
 1841TIP3    H2 5488   6.617   2.037   1.429
 1842TIP3   OH2 5489   2.843   4.016   3.878
 1842TIP3    H1 5490   2.906   4.053   3.815
 1842TIP3    H2 5491   2.842   4.079   3.950
 1843TIP3   OH2 5492   0.491   0.851   1.245
 1843TIP3    H1 5493   0.463   0.795   1.172
 1843TIP3    H2 5494   0.455   0.809   1.323
 1844TIP3   OH2 5495   4.278   2.086   5.186
 1844TIP3    H1 5496   4.187   2.057   5.195
 1844TIP3    H2 5497   4.328   2.005   5.176
 1845TIP3   OH2 5498   0.323   3.990   3.345
 1845TIP3    H1 5499   0.321   4.085   3.330
 1845TIP3    H2 5500   0.391   3.958   3.286
 1846TIP3   OH2 5501   0.853   2.366   4.571
 1846TIP3    H1 5502   0.757   2.372   4.564
 1846TIP3    H2 5503   0.885   2.440   4.521
 1847TIP3   OH2 5504   0.921   0.860   1.366
 1847TIP3    H1 5505   0.927   0.769   1.395
 1847TIP3    H2 5506   0.847   0.861   1.305
 1848TIP3   OH2 5507   0.418   0.432   1.825
 1848TIP3    H1 5508   0.475   0.404   1.896
 1848TIP3    H2 5509   0.329   0.418   1.857
 1849TIP3   OH2 5510   3.544   4.995   3.545
 1849TIP3    H1 5511   3.484   5.011   3.472
 1849TIP3    H2 5512   3.620   4.955   3.504
 1850TIP3   OH2 5513   3.024   4.212   1.581
 1850TIP3    H1 5514   3.009   4.279   1.515
 1850TIP3    H2 5515   2.938   4.198   1.620
 1851TIP3   OH2 5516   2.296   0.127   3.197
 1851TIP3    H1 5517   2.361   0.060   3.220
 1851TIP3    H2 5518   2.295   0.186   3.272
 1852TIP3   OH2 5519   0.261   6.738   0.914
 1852TIP3    H1 5520   0.227   6.821   0.949
 1852TIP3    H2 5521   0.354   6.755   0.900
 1853TIP3   OH2 5522   2.174   2.373   1.952
 1853TIP3    H1 5523   2.117   2.300   1.975
 1853TIP3    H2 5524   2.118   2.434   1.904
 1854TIP3   OH2 5525   0.668   0.686   1.542
 1854TIP3    H1 5526   0.700   0.732   1.620
 1854TIP3    H2 5527   0.729   0.613   1.530
 1855TIP3   OH2 5528   3.977   1.113   4.355
 1855TIP3    H1 5529   4.057   1.118   4.302
 1855TIP3    H2 5530   3.947   1.023   4.345
 1856TIP3   OH2 5531   6.378   1.369   1.998
 1856TIP3    H1 5532   6.338   1.429   1.934
 1856TIP3    H2 5533   6.468   1.358   1.967
 1857TIP3   OH2 5534   5.816   6.665   4.944
 1857TIP3    H1 5535   5.807   6.736   5.008
 1857TIP3    H2 5536   5.816   6.709   4.859
 1858TIP3   OH2 5537   0.530   6.113   5.062
 1858TIP3    H1 5538   0.499   6.181   5.123
 1858TIP3    H2 5539   0.481   6.129   4.982
 1859TIP3   OH2 5540   6.038   6.425   4.031
 1859TIP3    H1 5541   5.982   6.371   3.975
 1859TIP3    H2 5542   6.127   6.400   4.008
 1860TIP3   OH2 5543   2.901   1.577   3.257
 1860TIP3    H1 5544   2.970   1.586   3.323
 1860TIP3    H2 5545   2.852   1.499   3.285
 1861TIP3   OH2 5546   4.625   2.788   2.148
 1861TIP3    H1 5547   4.587   2.773   2.235
 1861TIP3    H2 5548   4.718   2.801   2.165
 1862TIP3   OH2 5549   6.879   5.191   5.545
 1862TIP3    H1 5550   6.842   5.243   5.617
 1862TIP3    H2 5551   6.866   5.246   5.467
 1863TIP3   OH2 5552   4.675   5.889   3.569
 1863TIP3    H1 5553   4.583   5.864   3.562
 1863TIP3    H2 5554   4.694   5.937   3.489
 1864TIP3   OH2 5555   3.423   3.277   1.932
 1864TIP3    H1 5556   3.468   3.318   1.858
 1864TIP3    H2 5557   3.493   3.250   1.991
 1865TIP3   OH2 5558   6.767   4.992   1.717
 1865TIP3    H1 5559   6.718   5.074   1.708
 1865TIP3    H2 5560   6.734   4.936   1.647
 1866TIP3   OH2 5561   0.955   2.836   3.854
 1866TIP3    H1 5562   0.989   2.878   3.933
 1866TIP3    H2 5563   0.937   2.909   3.794
 1867TIP3   OH2 5564   1.728   3.409   3.566
 1867TIP3    H1 5565   1.817   3.430   3.537
 1867TIP3    H2 5566   1.736   3.397   3.661
 1868TIP3   OH2 5567   4.818   4.858  -0.040
 1868TIP3    H1 5568   4.733   4.831  -0.007
 1868TIP3    H2 5569   4.881   4.815   0.019
 1869TIP3   OH2 5570   5.648   4.192   4.886
 1869TIP3    H1 5571   5.587   4.258   4.853
 1869TIP3    H2 5572   5.608   4.161   4.967
 1870TIP3   OH2 5573   0.211   4.852   4.711
 1870TIP3    H1 5574   0.125   4.891   4.695
 1870TIP3    H2 5575   0.222   4.787   4.642
 1871TIP3   OH2 5576   3.807   3.477   4.466
 1871TIP3    H1 5577   3.754   3.556   4.465
 1871TIP3    H2 5578   3.861   3.482   4.387
 1872TIP3   OH2 5579   0.025   4.541   2.544
 1872TIP3    H1 5580   0.057   4.554   2.455
 1872TIP3    H2 5581   0.035   4.447   2.560
 1873TIP3   OH2 5582   5.215   6.150   2.762
 1873TIP3    H1 5583   5.160   6.104   2.698
 1873TIP3    H2 5584   5.238   6.232   2.719
 1874TIP3   OH2 5585   1.820   2.290   1.965
 1874TIP3    H1 5586   1.867   2.207   1.976
 1874TIP3    H2 5587   1.729   2.268   1.983
 1875TIP3   OH2 5588   4.387   1.490   2.092
 1875TIP3    H1 5589   4.418   1.406   2.128
 1875TIP3    H2 5590   4.293   1.488   2.108
 1876TIP3   OH2 5591   4.205   5.500   5.401
 1876TIP3    H1 5592   4.176   5.491   5.310
 1876TIP3    H2 5593   4.125   5.524   5.449
 1877TIP3   OH2 5594   0.979   0.795   4.510
 1877TIP3    H1 5595   0.941   0.865   4.458
 1877TIP3    H2 5596   0.948   0.810   4.599
 1878TIP3   OH2 5597   0.295   2.855   1.543
 1878TIP3    H1 5598   0.202   2.853   1.566
 1878TIP3    H2 5599   0.297   2.891   1.454
 1879TIP3   OH2 5600   2.074   5.000   3.439
 1879TIP3    H1 5601   2.058   4.916   3.481
 1879TIP3    H2 5602   1.991   5.047   3.448
 1880TIP3   OH2 5603   5.329   2.978  -0.001
 1880TIP3    H1 5604   5.332   3.073   0.002
 1880TIP3    H2 5605   5.236   2.957  -0.014
 1881TIP3   OH2 5606   5.847   4.086   3.125
 1881TIP3    H1 5607   5.860   4.051   3.213
 1881TIP3    H2 5608   5.767   4.138   3.131
 1882TIP3   OH2 5609   5.901   6.217   3.840
 1882TIP3    H1 5610   5.917   6.261   3.757
 1882TIP3    H2 5611   5.848   6.140   3.817
 1883TIP3   OH2 5612   4.699   5.133   0.895
 1883TIP3    H1 5613   4.727   5.222   0.878
 1883TIP3    H2 5614   4.771   5.094   0.945
 1884TIP3   OH2 5615   6.370   6.212   5.825
 1884TIP3    H1 5616   6.354   6.231   5.733
 1884TIP3    H2 5617   6.456   6.171   5.827
 1885TIP3   OH2 5618   3.527   2.327   0.925
 1885TIP3    H1 5619   3.511   2.375   0.844
 1885TIP3    H2 5620   3.598   2.374   0.968
 1886TIP3   OH2 5621   4.221   1.300   3.561
 1886TIP3    H1 5622   4.312   1.269   3.558
 1886TIP3    H2 5623   4.204   1.315   3.654
 1887TIP3   OH2 5624   4.814   6.801   1.459
 1887TIP3    H1 5625   4.814   6.751   1.540
 1887TIP3    H2 5626   4.771   6.744   1.395
 1888TIP3   OH2 5627   1.265   6.071   2.615
 1888TIP3    H1 5628   1.278   6.021   2.534
 1888TIP3    H2 5629   1.283   6.008   2.684
 1889TIP3   OH2 5630   5.275   2.176   4.174
 1889TIP3    H1 5631   5.192   2.174   4.221
 1889TIP3    H2 5632   5.317   2.258   4.201
 1890TIP3   OH2 5633   2.831   0.734   5.748
 1890TIP3    H1 5634   2.856   0.799   5.813
 1890TIP3    H2 5635   2.842   0.650   5.792
 1891TIP3   OH2 5636   4.663   2.160   5.675
 1891TIP3    H1 5637   4.661   2.092   5.608
 1891TIP3    H2 5638   4.593   2.136   5.736
 1892TIP3   OH2 5639   0.252   4.147   0.099
 1892TIP3    H1 5640   0.338   4.189   0.107
 1892TIP3    H2 5641   0.227   4.127   0.190
 1893TIP3   OH2 5642   3.215   2.816   3.986
 1893TIP3    H1 5643   3.221   2.909   3.969
 1893TIP3    H2 5644   3.306   2.787   3.994
 1894TIP3   OH2 5645   5.950   3.963   3.350
 1894TIP3    H1 5646   5.944   3.867   3.355
 1894TIP3    H2 5647   6.032   3.984   3.393
 1895TIP3   OH2 5648   5.467   3.235   0.740
 1895TIP3    H1 5649   5.378   3.253   0.709
 1895TIP3    H2 5650   5.475   3.288   0.820
 1896TIP3   OH2 5651   5.952   4.962   1.860
 1896TIP3    H1 5652   5.960   4.881   1.911
 1896TIP3    H2 5653   5.986   4.939   1.774
 1897TIP3   OH2 5654   1.619   3.757   5.417
 1897TIP3    H1 5655   1.675   3.688   5.382
 1897TIP3    H2 5656   1.628   3.749   5.512
 1898TIP3   OH2 5657   5.153   2.522   0.427
 1898TIP3    H1 5658   5.210   2.570   0.367
 1898TIP3    H2 5659   5.117   2.590   0.485
 1899TIP3   OH2 5660   1.572   1.789   4.281
 1899TIP3    H1 5661   1.592   1.783   4.187
 1899TIP3    H2 5662   1.640   1.847   4.315
 1900TIP3   OH2 5663   3.124   0.828   2.712
 1900TIP3    H1 5664   3.187   0.876   2.765
 1900TIP3    H2 5665   3.054   0.806   2.774
 1901TIP3   OH2 5666   0.745   5.958   3.479
 1901TIP3    H1 5667   0.810   5.955   3.549
 1901TIP3    H2 5668   0.713   5.868   3.472
 1902TIP3   OH2 5669  -0.002   2.850   5.710
 1902TIP3    H1 5670   0.079   2.817   5.749
 1902TIP3    H2 5671  -0.064   2.852   5.782
 1903TIP3   OH2 5672   1.229   0.955   2.084
 1903TIP3    H1 5673   1.304   0.897   2.077
 1903TIP3    H2 5674   1.263   1.036   2.123
 1904TIP3   OH2 5675   0.194   5.849   4.149
 1904TIP3    H1 5676   0.218   5.766   4.190
 1904TIP3    H2 5677   0.150   5.897   4.219
 1905TIP3   OH2 5678   0.635   0.119   1.724
 1905TIP3    H1 5679   0.614   0.026   1.732
 1905TIP3    H2 5680   0.592   0.160   1.798
 1906TIP3   OH2 5681   4.498   5.894   5.873
 1906TIP3    H1 5682   4.445   5.823   5.910
 1906TIP3    H2 5683   4.436   5.966   5.859
 1907TIP3   OH2 5684   3.320   6.336   5.475
 1907TIP3    H1 5685   3.286   6.272   5.413
 1907TIP3    H2 5686   3.400   6.296   5.509
 1908TIP3   OH2 5687   1.916   6.710   0.005
 1908TIP3    H1 5688   1.868   6.634   0.038
 1908TIP3    H2 5689   1.943   6.758   0.084
 1909TIP3   OH2 5690   5.302   1.437   0.525
 1909TIP3    H1 5691   5.383   1.397   0.492
 1909TIP3    H2 5692   5.238   1.424   0.456
 1910TIP3   OH2 5693   6.756   4.682   1.766
 1910TIP3    H1 5694   6.727   4.766   1.731
 1910TIP3    H2 5695   6.678   4.626   1.765
 1911TIP3   OH2 5696   7.091   0.080   1.070
 1911TIP3    H1 5697   7.083   0.139   0.996
 1911TIP3    H2 5698   7.157   0.120   1.126
 1912TIP3   OH2 5699   4.295   6.806   3.682
 1912TIP3    H1 5700   4.342   6.729   3.714
 1912TIP3    H2 5701   4.212   6.805   3.730
 1913TIP3   OH2 5702   1.046   3.199   0.118
 1913TIP3    H1 5703   1.000   3.162   0.193
 1913TIP3    H2 5704   1.077   3.285   0.148
 1914TIP3   OH2 5705   6.913   5.469   2.812
 1914TIP3    H1 5706   6.916   5.405   2.741
 1914TIP3    H2 5707   7.000   5.465   2.852
 1915TIP3   OH2 5708   1.480   4.821   1.825
 1915TIP3    H1 5709   1.536   4.792   1.753
 1915TIP3    H2 5710   1.407   4.866   1.782
 1916TIP3   OH2 5711   3.279   4.931   4.622
 1916TIP3    H1 5712   3.204   4.941   4.563
 1916TIP3    H2 5713   3.300   5.021   4.649
 1917TIP3   OH2 5714   1.989  -0.024   5.550
 1917TIP3    H1 5715   1.905  -0.062   5.574
 1917TIP3    H2 5716   1.969   0.067   5.528
 1918TIP3   OH2 5717   5.778   5.853   3.515
 1918TIP3    H1 5718   5.816   5.886   3.597
 1918TIP3    H2 5719   5.824   5.899   3.446
 1919TIP3   OH2 5720   6.416   4.308   4.624
 1919TIP3    H1 5721   6.410   4.400   4.599
 1919TIP3    H2 5722   6.507   4.298   4.654
 1920TIP3   OH2 5723   1.382   3.056   4.180
 1920TIP3    H1 5724   1.398   2.973   4.225
 1920TIP3    H2 5725   1.305   3.039   4.125
 1921TIP3   OH2 5726   3.138   4.956   2.570
 1921TIP3    H1 5727   3.197   4.883   2.589
 1921TIP3    H2 5728   3.196   5.030   2.554
 1922TIP3   OH2 5729   0.257   6.422   0.507
 1922TIP3    H1 5730   0.297   6.405   0.421
 1922TIP3    H2 5731   0.270   6.341   0.556
 1923TIP3   OH2 5732   1.847   3.535   0.152
 1923TIP3    H1 5733   1.940   3.513   0.146
 1923TIP3    H2 5734   1.846   3.623   0.189
 1924TIP3   OH2 5735   1.984   4.789   4.661
 1924TIP3    H1 5736   1.893   4.767   4.643
 1924TIP3    H2 5737   2.002   4.865   4.606
 1925TIP3   OH2 5738   3.027   0.755   5.253
 1925TIP3    H1 5739   3.107   0.704   5.247
 1925TIP3    H2 5740   2.957   0.690   5.261
 1926TIP3   OH2 5741   2.399   3.700   3.503
 1926TIP3    H1 5742   2.415   3.793   3.487
 1926TIP3    H2 5743   2.433   3.656   3.425
 1927TIP3   OH2 5744   7.141   0.196   3.440
 1927TIP3    H1 5745   7.166   0.271   3.386
 1927TIP3    H2 5746   7.180   0.215   3.526
 1928TIP3   OH2 5747   0.656   2.616   2.376
 1928TIP3    H1 5748   0.727   2.568   2.418
 1928TIP3    H2 5749   0.676   2.611   2.282
 1929TIP3   OH2 5750   4.441   1.401   3.283
 1929TIP3    H1 5751   4.535   1.381   3.278
 1929TIP3    H2 5752   4.399   1.315   3.287
 1930TIP3   OH2 5753   6.413   3.280   5.637
 1930TIP3    H1 5754   6.377   3.195   5.663
 1930TIP3    H2 5755   6.400   3.283   5.542
 1931TIP3   OH2 5756   0.707   6.809   1.940
 1931TIP3    H1 5757   0.747   6.843   2.020
 1931TIP3    H2 5758   0.771   6.828   1.871
 1932TIP3   OH2 5759   6.463   5.748   5.447
 1932TIP3    H1 5760   6.495   5.744   5.357
 1932TIP3    H2 5761   6.402   5.675   5.455
 1933TIP3   OH2 5762   3.248   0.331   5.633
 1933TIP3    H1 5763   3.170   0.366   5.675
 1933TIP3    H2 5764   3.232   0.237   5.625
 1934TIP3   OH2 5765   0.450   1.899   0.913
 1934TIP3    H1 5766   0.355   1.899   0.916
 1934TIP3    H2 5767   0.477   1.927   1.001
 1935TIP3   OH2 5768   0.951   3.375   2.133
 1935TIP3    H1 5769   0.990   3.438   2.072
 1935TIP3    H2 5770   1.026   3.338   2.180
 1936TIP3   OH2 5771   3.058   5.959   1.740
 1936TIP3    H1 5772   3.068   5.969   1.835
 1936TIP3    H2 5773   3.138   5.997   1.704
 1937TIP3   OH2 5774   4.482   3.488   3.542
 1937TIP3    H1 5775   4.393   3.521   3.530
 1937TIP3    H2 5776   4.506   3.518   3.630
 1938TIP3   OH2 5777   4.061   0.536   0.104
 1938TIP3    H1 5778   4.084   0.510   0.015
 1938TIP3    H2 5779   4.093   0.464   0.159
 1939TIP3   OH2 5780   1.122   4.692   5.822
 1939TIP3    H1 5781   1.055   4.624   5.829
 1939TIP3    H2 5782   1.188   4.668   5.888
 1940TIP3   OH2 5783   6.438   5.029   5.317
 1940TIP3    H1 5784   6.471   5.014   5.406
 1940TIP3    H2 5785   6.517   5.052   5.267
 1941TIP3   OH2 5786   6.246   1.078   4.108
 1941TIP3    H1 5787   6.263   1.069   4.014
 1941TIP3    H2 5788   6.216   1.168   4.119
 1942TIP3   OH2 5789   0.829   0.471   4.813
 1942TIP3    H1 5790   0.896   0.440   4.751
 1942TIP3    H2 5791   0.747   0.463   4.765
 1943TIP3   OH2 5792   3.292   3.579   0.287
 1943TIP3    H1 5793   3.296   3.583   0.191
 1943TIP3    H2 5794   3.384   3.574   0.314
 1944TIP3   OH2 5795   0.343   1.508   4.688
 1944TIP3    H1 5796   0.249   1.520   4.694
 1944TIP3    H2 5797   0.363   1.520   4.595
 1945TIP3   OH2 5798   6.175   6.421   1.913
 1945TIP3    H1 5799   6.150   6.510   1.890
 1945TIP3    H2 5800   6.098   6.385   1.957
 1946TIP3   OH2 5801   0.541   1.414   2.690
 1946TIP3    H1 5802   0.609   1.475   2.662
 1946TIP3    H2 5803   0.489   1.399   2.611
 1947TIP3   OH2 5804   6.308   2.172   1.512
 1947TIP3    H1 5805   6.289   2.123   1.592
 1947TIP3    H2 5806   6.271   2.259   1.526
 1948TIP3   OH2 5807   3.181   5.284   0.406
 1948TIP3    H1 5808   3.141   5.217   0.351
 1948TIP3    H2 5809   3.262   5.245   0.438
 1949TIP3   OH2 5810   2.851   5.342   5.030
 1949TIP3    H1 5811   2.932   5.292   5.017
 1949TIP3    H2 5812   2.864   5.421   4.978
 1950TIP3   OH2 5813   4.706   2.363   2.282
 1950TIP3    H1 5814   4.788   2.410   2.292
 1950TIP3    H2 5815   4.732   2.272   2.267
 1951TIP3   OH2 5816   4.585   2.077   2.389
 1951TIP3    H1 5817   4.593   2.082   2.294
 1951TIP3    H2 5818   4.498   2.039   2.404
 1952TIP3   OH2 5819   1.045   2.517   4.052
 1952TIP3    H1 5820   0.958   2.495   4.018
 1952TIP3    H2 5821   1.105   2.465   4.000
 1953TIP3   OH2 5822   1.597   0.545   4.628
 1953TIP3    H1 5823   1.550   0.466   4.653
 1953TIP3    H2 5824   1.651   0.566   4.705
 1954TIP3   OH2 5825   6.868   3.450   4.387
 1954TIP3    H1 5826   6.883   3.504   4.310
 1954TIP3    H2 5827   6.954   3.437   4.426
 1955TIP3   OH2 5828   6.226   0.621   3.877
 1955TIP3    H1 5829   6.215   0.528   3.856
 1955TIP3    H2 5830   6.213   0.626   3.972
 1956TIP3   OH2 5831   5.855   4.680   1.568
 1956TIP3    H1 5832   5.836   4.595   1.608
 1956TIP3    H2 5833   5.770   4.713   1.540
 1957TIP3   OH2 5834   6.910   4.273   1.325
 1957TIP3    H1 5835   6.860   4.216   1.267
 1957TIP3    H2 5836   6.865   4.266   1.410
 1958TIP3   OH2 5837   0.540   6.550   4.841
 1958TIP3    H1 5838   0.632   6.528   4.831
 1958TIP3    H2 5839   0.511   6.498   4.916
 1959TIP3   OH2 5840   5.617   0.724   3.411
 1959TIP3    H1 5841   5.679   0.707   3.341
 1959TIP3    H2 5842   5.643   0.666   3.482
 1960TIP3   OH2 5843   4.157   4.139   2.476
 1960TIP3    H1 5844   4.210   4.062   2.495
 1960TIP3    H2 5845   4.107   4.116   2.398
 1961TIP3   OH2 5846   4.677   4.423   3.938
 1961TIP3    H1 5847   4.765   4.414   3.975
 1961TIP3    H2 5848   4.669   4.348   3.878
 1962TIP3   OH2 5849   6.683   2.362   2.857
 1962TIP3    H1 5850   6.704   2.318   2.939
 1962TIP3    H2 5851   6.605   2.316   2.824
 1963TIP3   OH2 5852   5.864   6.137   4.601
 1963TIP3    H1 5853   5.817   6.114   4.681
 1963TIP3    H2 5854   5.820   6.086   4.532
 1964TIP3   OH2 5855   2.552   2.321   1.215
 1964TIP3    H1 5856   2.456   2.317   1.212
 1964TIP3    H2 5857   2.571   2.392   1.276
 1965TIP3   OH2 5858   5.785   3.676   0.534
 1965TIP3    H1 5859   5.806   3.583   0.543
 1965TIP3    H2 5860   5.793   3.711   0.622
 1966TIP3   OH2 5861   0.366   5.425   5.145
 1966TIP3    H1 5862   0.274   5.444   5.125
 1966TIP3    H2 5863   0.414   5.449   5.066
 1967TIP3   OH2 5864   0.207   2.832   0.674
 1967TIP3    H1 5865   0.129   2.795   0.717
 1967TIP3    H2 5866   0.209   2.789   0.588
 1968TIP3   OH2 5867   5.308   4.628   1.659
 1968TIP3    H1 5868   5.262   4.581   1.729
 1968TIP3    H2 5869   5.362   4.692   1.705
 1969TIP3   OH2 5870   0.710   5.687   4.916
 1969TIP3    H1 5871   0.660   5.744   4.976
 1969TIP3    H2 5872   0.689   5.598   4.945
 1970TIP3   OH2 5873   0.436   0.714   1.864
 1970TIP3    H1 5874   0.457   0.624   1.840
 1970TIP3    H2 5875   0.513   0.765   1.837
 1971TIP3   OH2 5876   5.592   2.479   0.563
 1971TIP3    H1 5877   5.524   2.423   0.526
 1971TIP3    H2 5878   5.613   2.541   0.493
 1972TIP3   OH2 5879   3.029   6.119   0.499
 1972TIP3    H1 5880   2.984   6.198   0.471
 1972TIP3    H2 5881   3.096   6.149   0.560
 1973TIP3   OH2 5882   3.930   2.314   0.899
 1973TIP3    H1 5883   3.907   2.406   0.902
 1973TIP3    H2 5884   3.906   2.286   0.810
 1974TIP3   OH2 5885   4.090   5.848   5.249
 1974TIP3    H1 5886   4.056   5.932   5.218
 1974TIP3    H2 5887   4.180   5.867   5.274
 1975TIP3   OH2 5888   1.665   1.953   3.391
 1975TIP3    H1 5889   1.646   2.012   3.464
 1975TIP3    H2 5890   1.606   1.981   3.322
 1976TIP3   OH2 5891   0.014   1.646   2.483
 1976TIP3    H1 5892  -0.009   1.555   2.501
 1976TIP3    H2 5893   0.067   1.673   2.558
 1977TIP3   OH2 5894   2.580   1.879   5.489
 1977TIP3    H1 5895   2.617   1.807   5.539
 1977TIP3    H2 5896   2.533   1.931   5.554
 1978TIP3   OH2 5897   4.720   4.696   4.434
 1978TIP3    H1 5898   4.804   4.695   4.388
 1978TIP3    H2 5899   4.743   4.686   4.526
 1979TIP3   OH2 5900   0.201   2.437   2.311
 1979TIP3    H1 5901   0.244   2.522   2.298
 1979TIP3    H2 5902   0.178   2.408   2.222
 1980TIP3   OH2 5903   3.771   4.635   4.251
 1980TIP3    H1 5904   3.738   4.576   4.183
 1980TIP3    H2 5905   3.695   4.686   4.277
 1981TIP3   OH2 5906   1.998   6.037   4.448
 1981TIP3    H1 5907   1.973   5.947   4.431
 1981TIP3    H2 5908   1.990   6.047   4.543
 1982TIP3   OH2 5909   4.851   0.581   1.326
 1982TIP3    H1 5910   4.777   0.539   1.283
 1982TIP3    H2 5911   4.814   0.659   1.368
 1983TIP3   OH2 5912   4.857   4.427   0.162
 1983TIP3    H1 5913   4.857   4.381   0.078
 1983TIP3    H2 5914   4.949   4.437   0.184
 1984TIP3   OH2 5915   0.925   3.009   3.519
 1984TIP3    H1 5916   0.981   3.005   3.596
 1984TIP3    H2 5917   0.951   3.091   3.476
 1985TIP3   OH2 5918   0.936   3.375   0.712
 1985TIP3    H1 5919   0.974   3.288   0.704
 1985TIP3    H2 5920   1.003   3.426   0.758
 1986TIP3   OH2 5921   2.801   1.915   1.834
 1986TIP3    H1 5922   2.771   2.001   1.864
 1986TIP3    H2 5923   2.828   1.870   1.914
 1987TIP3   OH2 5924   3.525   1.300   1.183
 1987TIP3    H1 5925   3.614   1.291   1.152
 1987TIP3    H2 5926   3.501   1.213   1.215
 1988TIP3   OH2 5927   1.488   5.856   5.295
 1988TIP3    H1 5928   1.477   5.917   5.368
 1988TIP3    H2 5929   1.430   5.891   5.227
 1989TIP3   OH2 5930   5.427   0.471   4.443
 1989TIP3    H1 5931   5.414   0.457   4.536
 1989TIP3    H2 5932   5.477   0.395   4.414
 1990TIP3   OH2 5933   5.136   3.070   3.865
 1990TIP3    H1 5934   5.081   3.090   3.789
 1990TIP3    H2 5935   5.089   3.001   3.911
 1991TIP3   OH2 5936   3.054   4.165   0.649
 1991TIP3    H1 5937   3.073   4.259   0.651
 1991TIP3    H2 5938   2.959   4.160   0.635
 1992TIP3   OH2 5939   4.150   5.374   2.065
 1992TIP3    H1 5940   4.163   5.435   1.993
 1992TIP3    H2 5941   4.150   5.428   2.144
 1993TIP3   OH2 5942   1.876   6.683   1.088
 1993TIP3    H1 5943   1.923   6.699   1.006
 1993TIP3    H2 5944   1.857   6.589   1.086
 1994TIP3   OH2 5945   3.313   4.182   4.889
 1994TIP3    H1 5946   3.369   4.108   4.866
 1994TIP3    H2 5947   3.272   4.208   4.807
 1995TIP3   OH2 5948   4.626   4.639   1.264
 1995TIP3    H1 5949   4.721   4.653   1.258
 1995TIP3    H2 5950   4.596   4.705   1.327
 1996TIP3   OH2 5951   5.320   0.549   5.586
 1996TIP3    H1 5952   5.334   0.634   5.626
 1996TIP3    H2 5953   5.313   0.488   5.660
 1997TIP3   OH2 5954   5.791   6.646   2.875
 1997TIP3    H1 5955   5.797   6.719   2.815
 1997TIP3    H2 5956   5.838   6.575   2.831
 1998TIP3   OH2 5957   0.997   0.436   5.660
 1998TIP3    H1 5958   1.034   0.496   5.596
 1998TIP3    H2 5959   1.047   0.355   5.649
 1999TIP3   OH2 5960   3.544   3.795   1.785
 1999TIP3    H1 5961   3.624   3.848   1.792
 1999TIP3    H2 5962   3.505   3.821   1.701
 2000TIP3   OH2 5963   4.913   5.803   0.472
 2000TIP3    H1 5964   4.933   5.896   0.465
 2000TIP3    H2 5965   4.978   5.769   0.533
 2001TIP3   OH2 5966   2.358   0.243   4.943
 2001TIP3    H1 5967   2.384   0.293   4.866
 2001TIP3    H2 5968   2.330   0.158   4.909
 2002TIP3   OH2 5969   3.761   0.354   4.684
 2002TIP3    H1 5970   3.756   0.437   4.635
 2002TIP3    H2 5971   3.764   0.381   4.776
 2003TIP3   OH2 5972   3.295   0.672   0.497
 2003TIP3    H1 5973   3.285   0.750   0.551
 2003TIP3    H2 5974   3.383   0.679   0.461
 2004TIP3   OH2 5975   2.327   1.220   5.663
 2004TIP3    H1 5976   2.359   1.277   5.733
 2004TIP3    H2 5977   2.242   1.190   5.694
 2005TIP3   OH2 5978   4.717   3.548   5.819
 2005TIP3    H1 5979   4.690   3.625   5.869
 2005TIP3    H2 5980   4.731   3.480   5.885
 2006TIP3   OH2 5981   0.279   5.640   3.146
 2006TIP3    H1 5982   0.214   5.603   3.206
 2006TIP3    H2 5983   0.361   5.637   3.195
 2007TIP3   OH2 5984   7.228   3.302   5.275
 2007TIP3    H1 5985   7.168   3.331   5.206
 2007TIP3    H2 5986   7.191   3.336   5.356
 2008TIP3   OH2 5987   0.436   0.961   2.998
 2008TIP3    H1 5988   0.421   0.875   2.959
 2008TIP3    H2 5989   0.352   0.984   3.038
 2009TIP3   OH2 5990   3.781   3.539   2.290
 2009TIP3    H1 5991   3.853   3.478   2.273
 2009TIP3    H2 5992   3.715   3.487   2.335
 2010TIP3   OH2 5993   6.411   3.298   5.353
 2010TIP3    H1 5994   6.390   3.378   5.303
 2010TIP3    H2 5995   6.354   3.231   5.315
 2011TIP3   OH2 5996   0.767   0.042   1.228
 2011TIP3    H1 5997   0.714   0.092   1.290
 2011TIP3    H2 5998   0.755   0.087   1.145
 2012TIP3   OH2 5999   2.237   1.976   0.735
 2012TIP3    H1 6000   2.165   1.960   0.796
 2012TIP3    H2 6001   2.224   1.913   0.664
 2013TIP3   OH2 6002   6.892   0.066   1.521
 2013TIP3    H1 6003   6.912  -0.028   1.516
 2013TIP3    H2 6004   6.965   0.103   1.571
 2014TIP3   OH2 6005   3.098   6.752   2.887
 2014TIP3    H1 6006   3.087   6.685   2.820
 2014TIP3    H2 6007   3.128   6.829   2.838
 2015TIP3   OH2 6008   4.594   0.859   5.374
 2015TIP3    H1 6009   4.561   0.788   5.318
 2015TIP3    H2 6010   4.554   0.938   5.338
 2016TIP3   OH2 6011   5.927   3.660   1.003
 2016TIP3    H1 6012   5.873   3.670   0.924
 2016TIP3    H2 6013   5.874   3.606   1.062
 2017TIP3   OH2 6014   4.906   2.432   4.773
 2017TIP3    H1 6015   4.983   2.480   4.805
 2017TIP3    H2 6016   4.847   2.430   4.848
 2018TIP3   OH2 6017   2.368   0.808   3.317
 2018TIP3    H1 6018   2.330   0.843   3.397
 2018TIP3    H2 6019   2.312   0.842   3.247
 2019TIP3   OH2 6020   3.068   3.254   2.665
 2019TIP3    H1 6021   3.128   3.205   2.720
 2019TIP3    H2 6022   3.124   3.306   2.607
 2020TIP3   OH2 6023   1.817   4.084   2.164
 2020TIP3    H1 6024   1.885   4.113   2.225
 2020TIP3    H2 6025   1.741   4.068   2.219
 2021TIP3   OH2 6026   5.532   3.238   5.021
 2021TIP3    H1 6027   5.545   3.329   4.995
 2021TIP3    H2 6028   5.561   3.234   5.112
 2022TIP3   OH2 6029   6.456   3.638   1.491
 2022TIP3    H1 6030   6.495   3.724   1.507
 2022TIP3    H2 6031   6.439   3.603   1.579
 2023TIP3   OH2 6032   3.550   4.733   4.981
 2023TIP3    H1 6033   3.491   4.704   4.911
 2023TIP3    H2 6034   3.618   4.666   4.985
 2024TIP3   OH2 6035   0.588   4.103   3.413
 2024TIP3    H1 6036   0.612   4.173   3.352
 2024TIP3    H2 6037   0.600   4.022   3.363
 2025TIP3   OH2 6038   2.553   5.699   5.057
 2025TIP3    H1 6039   2.621   5.654   5.107
 2025TIP3    H2 6040   2.598   5.726   4.977
 2026TIP3   OH2 6041   1.258   5.918   3.548
 2026TIP3    H1 6042   1.263   5.825   3.570
 2026TIP3    H2 6043   1.319   5.928   3.474
 2027TIP3   OH2 6044   4.255   2.593   5.464
 2027TIP3    H1 6045   4.233   2.504   5.489
 2027TIP3    H2 6046   4.347   2.602   5.487
 2028TIP3   OH2 6047   0.110   3.797   0.896
 2028TIP3    H1 6048   0.036   3.853   0.875
 2028TIP3    H2 6049   0.091   3.764   0.984
 2029TIP3   OH2 6050   5.505   6.629   2.107
 2029TIP3    H1 6051   5.453   6.678   2.171
 2029TIP3    H2 6052   5.500   6.538   2.138
 2030TIP3   OH2 6053   0.786   4.035   2.590
 2030TIP3    H1 6054   0.707   4.026   2.642
 2030TIP3    H2 6055   0.852   3.984   2.638
 2031TIP3   OH2 6056   5.802   0.980   5.217
 2031TIP3    H1 6057   5.869   0.962   5.282
 2031TIP3    H2 6058   5.850   1.006   5.138
 2032TIP3   OH2 6059   6.132   1.540   1.458
 2032TIP3    H1 6060   6.058   1.487   1.487
 2032TIP3    H2 6061   6.100   1.585   1.380
 2033TIP3   OH2 6062   2.483   3.167   1.416
 2033TIP3    H1 6063   2.536   3.087   1.413
 2033TIP3    H2 6064   2.434   3.160   1.498
 2034TIP3   OH2 6065   4.180   6.441   3.651
 2034TIP3    H1 6066   4.104   6.451   3.594
 2034TIP3    H2 6067   4.156   6.369   3.709
 2035TIP3   OH2 6068   6.901   1.316   3.000
 2035TIP3    H1 6069   6.938   1.256   3.064
 2035TIP3    H2 6070   6.897   1.265   2.918
 2036TIP3   OH2 6071   1.186   6.770   0.249
 2036TIP3    H1 6072   1.203   6.686   0.208
 2036TIP3    H2 6073   1.114   6.753   0.310
 2037TIP3   OH2 6074   2.326   2.354   1.409
 2037TIP3    H1 6075   2.283   2.278   1.448
 2037TIP3    H2 6076   2.347   2.410   1.484
 2038TIP3   OH2 6077   3.362   2.659   5.176
 2038TIP3    H1 6078   3.277   2.624   5.148
 2038TIP3    H2 6079   3.421   2.639   5.103
 2039TIP3   OH2 6080   2.815   1.734   0.582
 2039TIP3    H1 6081   2.896   1.686   0.563
 2039TIP3    H2 6082   2.804   1.724   0.677
 2040TIP3   OH2 6083   3.745   6.085   5.289
 2040TIP3    H1 6084   3.781   6.170   5.314
 2040TIP3    H2 6085   3.719   6.045   5.373
 2041TIP3   OH2 6086   6.183   5.909   4.906
 2041TIP3    H1 6087   6.126   5.982   4.881
 2041TIP3    H2 6088   6.160   5.839   4.845
 2042TIP3   OH2 6089   3.544   2.136   5.818
 2042TIP3    H1 6090   3.573   2.152   5.728
 2042TIP3    H2 6091   3.600   2.193   5.872
 2043TIP3   OH2 6092   0.092   3.666   2.160
 2043TIP3    H1 6093   0.003   3.643   2.186
 2043TIP3    H2 6094   0.144   3.651   2.239
 2044TIP3   OH2 6095   0.386   6.191   5.362
 2044TIP3    H1 6096   0.411   6.153   5.447
 2044TIP3    H2 6097   0.368   6.115   5.306
 2045TIP3   OH2 6098   6.343   4.712   4.342
 2045TIP3    H1 6099   6.365   4.649   4.411
 2045TIP3    H2 6100   6.422   4.765   4.333
 2046TIP3   OH2 6101   5.759   6.670   0.862
 2046TIP3    H1 6102   5.734   6.680   0.770
 2046TIP3    H2 6103   5.736   6.580   0.884
 2047TIP3   OH2 6104   1.722   2.538   4.789
 2047TIP3    H1 6105   1.807   2.506   4.758
 2047TIP3    H2 6106   1.678   2.569   4.709
 2048TIP3   OH2 6107   0.341   0.838   4.930
 2048TIP3    H1 6108   0.425   0.799   4.906
 2048TIP3    H2 6109   0.329   0.910   4.867
 2049TIP3   OH2 6110   0.831   3.033   0.595
 2049TIP3    H1 6111   0.752   3.082   0.619
 2049TIP3    H2 6112   0.831   2.958   0.655
 2050TIP3   OH2 6113   5.828   4.360   2.500
 2050TIP3    H1 6114   5.906   4.377   2.447
 2050TIP3    H2 6115   5.809   4.267   2.485
 2051TIP3   OH2 6116   2.391   1.127   2.497
 2051TIP3    H1 6117   2.414   1.039   2.528
 2051TIP3    H2 6118   2.325   1.112   2.430
 2052TIP3   OH2 6119   1.963   3.483   2.633
 2052TIP3    H1 6120   2.056   3.466   2.650
 2052TIP3    H2 6121   1.946   3.441   2.549
 2053TIP3   OH2 6122   7.099   1.051   2.842
 2053TIP3    H1 6123   7.108   1.038   2.936
 2053TIP3    H2 6124   7.009   1.083   2.831
 2054TIP3   OH2 6125   0.072   0.725   5.226
 2054TIP3    H1 6126   0.167   0.720   5.235
 2054TIP3    H2 6127   0.038   0.698   5.311
 2055TIP3   OH2 6128   0.671   2.437   1.815
 2055TIP3    H1 6129   0.670   2.531   1.797
 2055TIP3    H2 6130   0.761   2.410   1.795
 2056TIP3   OH2 6131   4.118   4.864   5.367
 2056TIP3    H1 6132   4.187   4.799   5.378
 2056TIP3    H2 6133   4.152   4.923   5.299
 2057TIP3   OH2 6134   4.345   1.621   4.075
 2057TIP3    H1 6135   4.269   1.679   4.069
 2057TIP3    H2 6136   4.384   1.641   4.160
 2058TIP3   OH2 6137   3.775   5.608   1.352
 2058TIP3    H1 6138   3.841   5.600   1.420
 2058TIP3    H2 6139   3.754   5.702   1.350
 2059TIP3   OH2 6140   2.112   1.563   4.055
 2059TIP3    H1 6141   2.117   1.483   4.108
 2059TIP3    H2 6142   2.020   1.566   4.026
 2060TIP3   OH2 6143   5.217   4.138   5.662
 2060TIP3    H1 6144   5.176   4.216   5.624
 2060TIP3    H2 6145   5.309   4.162   5.673
 2061TIP3   OH2 6146   4.660   5.149   3.703
 2061TIP3    H1 6147   4.663   5.067   3.752
 2061TIP3    H2 6148   4.659   5.218   3.770
 2062TIP3   OH2 6149   7.047   2.531   0.659
 2062TIP3    H1 6150   6.997   2.472   0.716
 2062TIP3    H2 6151   6.997   2.534   0.578
 2063TIP3   OH2 6152   4.772   4.693   4.739
 2063TIP3    H1 6153   4.701   4.749   4.708
 2063TIP3    H2 6154   4.830   4.753   4.786
 2064TIP3   OH2 6155   3.863   3.529   0.734
 2064TIP3    H1 6156   3.871   3.615   0.693
 2064TIP3    H2 6157   3.836   3.547   0.824
 2065TIP3   OH2 6158   7.040   3.799   2.028
 2065TIP3    H1 6159   7.071   3.786   1.939
 2065TIP3    H2 6160   7.044   3.712   2.068
 2066TIP3   OH2 6161   6.167   3.057   4.690
 2066TIP3    H1 6162   6.088   3.039   4.741
 2066TIP3    H2 6163   6.233   3.000   4.728
 2067TIP3   OH2 6164   4.511   0.386   1.733
 2067TIP3    H1 6165   4.512   0.480   1.714
 2067TIP3    H2 6166   4.578   0.350   1.676
 2068TIP3   OH2 6167   3.096   1.327   3.817
 2068TIP3    H1 6168   3.042   1.307   3.893
 2068TIP3    H2 6169   3.126   1.242   3.786
 2069TIP3   OH2 6170   1.840   0.868   0.342
 2069TIP3    H1 6171   1.780   0.811   0.389
 2069TIP3    H2 6172   1.829   0.845   0.250
 2070TIP3   OH2 6173   5.931   3.433   5.598
 2070TIP3    H1 6174   5.941   3.528   5.589
 2070TIP3    H2 6175   5.904   3.421   5.689
 2071TIP3   OH2 6176   6.936   2.040   2.108
 2071TIP3    H1 6177   6.936   1.981   2.033
 2071TIP3    H2 6178   6.946   1.982   2.184
 2072TIP3   OH2 6179   5.041   1.819   0.897
 2072TIP3    H1 6180   4.998   1.826   0.983
 2072TIP3    H2 6181   5.106   1.889   0.896
 2073TIP3   OH2 6182   1.028   2.777   5.236
 2073TIP3    H1 6183   1.122   2.779   5.218
 2073TIP3    H2 6184   0.997   2.864   5.211
 2074TIP3   OH2 6185   6.029   1.786   2.871
 2074TIP3    H1 6186   6.122   1.806   2.883
 2074TIP3    H2 6187   6.009   1.724   2.940
 2075TIP3   OH2 6188   4.460   0.473   4.472
 2075TIP3    H1 6189   4.537   0.495   4.420
 2075TIP3    H2 6190   4.387   0.517   4.428
 2076TIP3   OH2 6191   6.733   3.365   4.887
 2076TIP3    H1 6192   6.781   3.418   4.824
 2076TIP3    H2 6193   6.641   3.371   4.859
 2077TIP3   OH2 6194   6.964   3.814   3.968
 2077TIP3    H1 6195   6.976   3.901   4.007
 2077TIP3    H2 6196   6.917   3.830   3.887
 2078TIP3   OH2 6197   3.276   3.702   3.832
 2078TIP3    H1 6198   3.253   3.790   3.802
 2078TIP3    H2 6199   3.343   3.716   3.899
 2079TIP3   OH2 6200   4.718   1.581   0.028
 2079TIP3    H1 6201   4.637   1.559  -0.018
 2079TIP3    H2 6202   4.699   1.663   0.072
 2080TIP3   OH2 6203   5.293   4.970   2.576
 2080TIP3    H1 6204   5.375   4.940   2.617
 2080TIP3    H2 6205   5.269   4.900   2.515
 2081TIP3   OH2 6206   3.555   2.495   5.639
 2081TIP3    H1 6207   3.562   2.581   5.679
 2081TIP3    H2 6208   3.481   2.454   5.682
 2082TIP3   OH2 6209   5.815   1.087   2.454
 2082TIP3    H1 6210   5.806   1.068   2.360
 2082TIP3    H2 6211   5.745   1.149   2.473
 2083TIP3   OH2 6212   1.770   6.706   0.426
 2083TIP3    H1 6213   1.857   6.668   0.434
 2083TIP3    H2 6214   1.739   6.713   0.517
 2084TIP3   OH2 6215   4.117   6.084   0.527
 2084TIP3    H1 6216   4.211   6.097   0.523
 2084TIP3    H2 6217   4.085   6.152   0.587
 2085TIP3   OH2 6218   5.865   0.905   3.121
 2085TIP3    H1 6219   5.954   0.941   3.126
 2085TIP3    H2 6220   5.821   0.959   3.056
 2086TIP3   OH2 6221   2.330   5.353   2.227
 2086TIP3    H1 6222   2.390   5.302   2.281
 2086TIP3    H2 6223   2.302   5.424   2.284
 2087TIP3   OH2 6224   6.662   2.219   0.823
 2087TIP3    H1 6225   6.705   2.297   0.787
 2087TIP3    H2 6226   6.570   2.230   0.801
 2088TIP3   OH2 6227   6.840   0.877   3.190
 2088TIP3    H1 6228   6.884   0.813   3.246
 2088TIP3    H2 6229   6.902   0.950   3.184
 2089TIP3   OH2 6230   6.741   0.753   4.356
 2089TIP3    H1 6231   6.805   0.772   4.425
 2089TIP3    H2 6232   6.758   0.819   4.289
 2090TIP3   OH2 6233   3.858   6.391   1.661
 2090TIP3    H1 6234   3.791   6.330   1.633
 2090TIP3    H2 6235   3.822   6.434   1.739
 2091TIP3   OH2 6236   6.995   1.463   4.426
 2091TIP3    H1 6237   6.967   1.419   4.345
 2091TIP3    H2 6238   6.948   1.417   4.496
 2092TIP3   OH2 6239   0.887   5.577   4.260
 2092TIP3    H1 6240   0.937   5.511   4.307
 2092TIP3    H2 6241   0.948   5.650   4.250
 2093TIP3   OH2 6242   0.217   3.737   3.407
 2093TIP3    H1 6243   0.187   3.793   3.479
 2093TIP3    H2 6244   0.283   3.789   3.362
 2094TIP3   OH2 6245   3.189   1.446   4.834
 2094TIP3    H1 6246   3.129   1.399   4.892
 2094TIP3    H2 6247   3.135   1.513   4.792
 2095TIP3   OH2 6248   0.231   0.558   2.365
 2095TIP3    H1 6249   0.296   0.497   2.400
 2095TIP3    H2 6250   0.192   0.599   2.442
 2096TIP3   OH2 6251   4.158   5.810   0.397
 2096TIP3    H1 6252   4.101   5.878   0.433
 2096TIP3    H2 6253   4.115   5.728   0.421
 2097TIP3   OH2 6254   0.765   1.929   3.241
 2097TIP3    H1 6255   0.759   1.839   3.275
 2097TIP3    H2 6256   0.704   1.931   3.168
 2098TIP3   OH2 6257   4.118   2.002   0.857
 2098TIP3    H1 6258   4.161   2.078   0.818
 2098TIP3    H2 6259   4.050   2.039   0.913
 2099TIP3   OH2 6260   1.138   3.946   0.485
 2099TIP3    H1 6261   1.149   3.860   0.526
 2099TIP3    H2 6262   1.064   3.985   0.531
 2100TIP3   OH2 6263   2.689   1.588   3.568
 2100TIP3    H1 6264   2.618   1.635   3.611
 2100TIP3    H2 6265   2.699   1.507   3.618
 2101TIP3   OH2 6266   2.772   3.717   0.474
 2101TIP3    H1 6267   2.780   3.805   0.510
 2101TIP3    H2 6268   2.691   3.683   0.513
 2102TIP3   OH2 6269   2.094   0.078   1.601
 2102TIP3    H1 6270   2.094  -0.011   1.566
 2102TIP3    H2 6271   2.087   0.066   1.696
 2103TIP3   OH2 6272   1.892   2.840   5.038
 2103TIP3    H1 6273   1.890   2.927   4.999
 2103TIP3    H2 6274   1.968   2.798   4.999
 2104TIP3   OH2 6275   1.105   4.833   5.597
 2104TIP3    H1 6276   1.014   4.803   5.607
 2104TIP3    H2 6277   1.152   4.789   5.668
 2105TIP3   OH2 6278   5.493   6.453   3.668
 2105TIP3    H1 6279   5.545   6.533   3.677
 2105TIP3    H2 6280   5.522   6.415   3.585
 2106TIP3   OH2 6281   5.783   0.234   2.943
 2106TIP3    H1 6282   5.797   0.319   2.984
 2106TIP3    H2 6283   5.806   0.248   2.851
 2107TIP3   OH2 6284   3.448   4.318   0.621
 2107TIP3    H1 6285   3.469   4.226   0.637
 2107TIP3    H2 6286   3.437   4.323   0.526
 2108TIP3   OH2 6287   3.991   4.463   5.368
 2108TIP3    H1 6288   3.907   4.510   5.367
 2108TIP3    H2 6289   4.055   4.528   5.397
 2109TIP3   OH2 6290   5.152   2.651   3.869
 2109TIP3    H1 6291   5.158   2.560   3.899
 2109TIP3    H2 6292   5.235   2.666   3.823
 2110TIP3   OH2 6293   1.713   3.593   4.738
 2110TIP3    H1 6294   1.655   3.656   4.781
 2110TIP3    H2 6295   1.697   3.606   4.644
 2111TIP3   OH2 6296   0.876   2.377   3.763
 2111TIP3    H1 6297   0.848   2.463   3.797
 2111TIP3    H2 6298   0.970   2.374   3.781
 2112TIP3   OH2 6299   3.616   4.034   3.264
 2112TIP3    H1 6300   3.673   4.015   3.190
 2112TIP3    H2 6301   3.533   3.993   3.242
 2113TIP3   OH2 6302   6.479   0.255   1.335
 2113TIP3    H1 6303   6.395   0.233   1.295
 2113TIP3    H2 6304   6.537   0.183   1.308
 2114TIP3   OH2 6305   4.366   5.288   0.305
 2114TIP3    H1 6306   4.434   5.237   0.260
 2114TIP3    H2 6307   4.397   5.378   0.300
 2115TIP3   OH2 6308   3.350   0.623   4.804
 2115TIP3    H1 6309   3.315   0.668   4.727
 2115TIP3    H2 6310   3.444   0.635   4.799
 2116TIP3   OH2 6311   6.286   4.809   0.135
 2116TIP3    H1 6312   6.278   4.797   0.230
 2116TIP3    H2 6313   6.371   4.771   0.113
 2117TIP3   OH2 6314   1.036   2.240   5.789
 2117TIP3    H1 6315   1.073   2.298   5.856
 2117TIP3    H2 6316   0.945   2.270   5.780
 2118TIP3   OH2 6317   4.702   1.776   5.204
 2118TIP3    H1 6318   4.710   1.688   5.169
 2118TIP3    H2 6319   4.774   1.784   5.267
 2119TIP3   OH2 6320   5.172   4.702   3.339
 2119TIP3    H1 6321   5.118   4.722   3.415
 2119TIP3    H2 6322   5.248   4.759   3.347
 2120TIP3   OH2 6323   5.987   3.163   0.874
 2120TIP3    H1 6324   6.014   3.255   0.864
 2120TIP3    H2 6325   6.057   3.113   0.832
 2121TIP3   OH2 6326   4.315   1.086   4.795
 2121TIP3    H1 6327   4.272   1.032   4.729
 2121TIP3    H2 6328   4.297   1.176   4.769
 2122TIP3   OH2 6329   3.912   3.314   3.677
 2122TIP3    H1 6330   3.977   3.279   3.617
 2122TIP3    H2 6331   3.850   3.242   3.690
 2123TIP3   OH2 6332   1.149   4.211   3.781
 2123TIP3    H1 6333   1.085   4.159   3.829
 2123TIP3    H2 6334   1.232   4.195   3.827
 2124TIP3   OH2 6335   3.807   0.224   5.099
 2124TIP3    H1 6336   3.809   0.279   5.020
 2124TIP3    H2 6337   3.864   0.151   5.079
 2125TIP3   OH2 6338   3.741   1.990   2.051
 2125TIP3    H1 6339   3.784   2.019   1.971
 2125TIP3    H2 6340   3.796   2.026   2.121
 2126TIP3   OH2 6341   2.180   6.329   0.736
 2126TIP3    H1 6342   2.097   6.376   0.739
 2126TIP3    H2 6343   2.210   6.327   0.827
 2127TIP3   OH2 6344   2.087   6.043   0.951
 2127TIP3    H1 6345   1.997   6.012   0.963
 2127TIP3    H2 6346   2.092   6.125   1.000
 2128TIP3   OH2 6347   2.006   6.411   3.948
 2128TIP3    H1 6348   2.046   6.328   3.973
 2128TIP3    H2 6349   1.974   6.448   4.031
 2129TIP3   OH2 6350   5.643   3.015   5.316
 2129TIP3    H1 6351   5.626   3.107   5.298
 2129TIP3    H2 6352   5.567   2.968   5.281
 2130TIP3   OH2 6353   5.160   1.286   2.564
 2130TIP3    H1 6354   5.252   1.268   2.543
 2130TIP3    H2 6355   5.140   1.226   2.635
 2131TIP3   OH2 6356   2.440   6.510   2.627
 2131TIP3    H1 6357   2.492   6.429   2.628
 2131TIP3    H2 6358   2.502   6.579   2.649
 2132TIP3   OH2 6359   1.802   2.523   3.749
 2132TIP3    H1 6360   1.760   2.519   3.663
 2132TIP3    H2 6361   1.886   2.480   3.736
 2133TIP3   OH2 6362   0.776   5.480   5.689
 2133TIP3    H1 6363   0.850   5.535   5.661
 2133TIP3    H2 6364   0.734   5.453   5.607
 2134TIP3   OH2 6365   4.458   2.771   1.018
 2134TIP3    H1 6366   4.384   2.724   1.058
 2134TIP3    H2 6367   4.453   2.859   1.053
 2135TIP3   OH2 6368   0.094   4.237   5.138
 2135TIP3    H1 6369   0.087   4.170   5.071
 2135TIP3    H2 6370   0.183   4.270   5.130
 2136TIP3   OH2 6371   4.738   5.632   3.727
 2136TIP3    H1 6372   4.825   5.593   3.726
 2136TIP3    H2 6373   4.753   5.726   3.718
 2137TIP3   OH2 6374   2.202   3.137   3.559
 2137TIP3    H1 6375   2.119   3.096   3.534
 2137TIP3    H2 6376   2.215   3.207   3.495
 2138TIP3   OH2 6377   2.933   6.348   5.482
 2138TIP3    H1 6378   2.995   6.275   5.487
 2138TIP3    H2 6379   2.865   6.318   5.421
 2139TIP3   OH2 6380   6.978   1.277   2.465
 2139TIP3    H1 6381   6.888   1.273   2.432
 2139TIP3    H2 6382   7.027   1.216   2.410
 2140TIP3   OH2 6383   6.922   0.832   4.566
 2140TIP3    H1 6384   6.988   0.780   4.613
 2140TIP3    H2 6385   6.969   0.911   4.540
 2141TIP3   OH2 6386   1.793   1.620   3.041
 2141TIP3    H1 6387   1.716   1.668   3.072
 2141TIP3    H2 6388   1.759   1.534   3.016
 2142TIP3   OH2 6389   3.530   5.983   3.684
 2142TIP3    H1 6390   3.557   5.940   3.765
 2142TIP3    H2 6391   3.546   6.076   3.699
 2143TIP3   OH2 6392   3.369   6.093   2.579
 2143TIP3    H1 6393   3.391   6.135   2.662
 2143TIP3    H2 6394   3.298   6.146   2.544
 2144TIP3   OH2 6395   6.838   5.216   2.188
 2144TIP3    H1 6396   6.822   5.122   2.177
 2144TIP3    H2 6397   6.772   5.258   2.134
 2145TIP3   OH2 6398   5.728   0.081   0.064
 2145TIP3    H1 6399   5.692   0.156   0.016
 2145TIP3    H2 6400   5.775   0.031  -0.003
 2146TIP3   OH2 6401   4.925   1.817   3.609
 2146TIP3    H1 6402   4.919   1.801   3.703
 2146TIP3    H2 6403   4.989   1.888   3.601
 2147TIP3   OH2 6404   7.041   6.306   4.307
 2147TIP3    H1 6405   7.131   6.275   4.321
 2147TIP3    H2 6406   7.049   6.401   4.305
 2148TIP3   OH2 6407   6.520   6.590   1.390
 2148TIP3    H1 6408   6.479   6.675   1.370
 2148TIP3    H2 6409   6.470   6.556   1.464
 2149TIP3   OH2 6410   7.115   3.080   4.917
 2149TIP3    H1 6411   7.050   3.150   4.931
 2149TIP3    H2 6412   7.066   2.999   4.931
 2150TIP3   OH2 6413   2.004   0.458   3.279
 2150TIP3    H1 6414   1.964   0.479   3.364
 2150TIP3    H2 6415   1.932   0.423   3.227
 2151TIP3   OH2 6416   0.158   1.279   3.763
 2151TIP3    H1 6417   0.151   1.373   3.777
 2151TIP3    H2 6418   0.236   1.268   3.708
 2152TIP3   OH2 6419   4.406   2.094   0.048
 2152TIP3    H1 6420   4.471   2.151   0.089
 2152TIP3    H2 6421   4.322   2.125   0.082
 2153TIP3   OH2 6422   6.094   6.087   3.142
 2153TIP3    H1 6423   6.081   6.018   3.077
 2153TIP3    H2 6424   6.138   6.157   3.094
 2154TIP3   OH2 6425   6.798   4.248   3.803
 2154TIP3    H1 6426   6.815   4.156   3.782
 2154TIP3    H2 6427   6.728   4.245   3.868
 2155TIP3   OH2 6428   0.535   3.828   5.403
 2155TIP3    H1 6429   0.591   3.782   5.465
 2155TIP3    H2 6430   0.567   3.918   5.403
 2156TIP3   OH2 6431   2.384   0.016   4.228
 2156TIP3    H1 6432   2.385   0.112   4.234
 2156TIP3    H2 6433   2.317  -0.004   4.163
 2157TIP3   OH2 6434   4.476   1.078   1.753
 2157TIP3    H1 6435   4.449   1.124   1.673
 2157TIP3    H2 6436   4.415   1.005   1.760
 2158TIP3   OH2 6437   1.162   5.320   2.718
 2158TIP3    H1 6438   1.182   5.263   2.792
 2158TIP3    H2 6439   1.099   5.384   2.753
 2159TIP3   OH2 6440   5.525   1.166   4.261
 2159TIP3    H1 6441   5.454   1.141   4.320
 2159TIP3    H2 6442   5.573   1.234   4.309
 2160TIP3   OH2 6443   3.631   2.392   0.014
 2160TIP3    H1 6444   3.686   2.452   0.065
 2160TIP3    H2 6445   3.693   2.330  -0.025
 2161TIP3   OH2 6446   4.208   4.769   5.011
 2161TIP3    H1 6447   4.148   4.696   5.023
 2161TIP3    H2 6448   4.293   4.736   5.039
 2162TIP3   OH2 6449   6.732   0.572   0.054
 2162TIP3    H1 6450   6.715   0.663   0.030
 2162TIP3    H2 6451   6.826   0.570   0.074
 2163TIP3   OH2 6452   2.497   1.702   3.697
 2163TIP3    H1 6453   2.493   1.785   3.648
 2163TIP3    H2 6454   2.405   1.677   3.709
 2164TIP3   OH2 6455   3.107   4.742   5.539
 2164TIP3    H1 6456   3.086   4.827   5.500
 2164TIP3    H2 6457   3.102   4.758   5.634
 2165TIP3   OH2 6458   1.802   3.823   0.241
 2165TIP3    H1 6459   1.886   3.856   0.270
 2165TIP3    H2 6460   1.738   3.862   0.301
 2166TIP3   OH2 6461   2.751   1.738   3.095
 2166TIP3    H1 6462   2.678   1.675   3.099
 2166TIP3    H2 6463   2.827   1.688   3.127
 2167TIP3   OH2 6464   2.011   5.062   4.456
 2167TIP3    H1 6465   2.005   5.135   4.395
 2167TIP3    H2 6466   1.936   5.007   4.435
 2168TIP3   OH2 6467   0.542   6.574   1.518
 2168TIP3    H1 6468   0.586   6.627   1.584
 2168TIP3    H2 6469   0.449   6.582   1.539
 2169TIP3   OH2 6470   1.952   4.194   0.443
 2169TIP3    H1 6471   1.984   4.144   0.519
 2169TIP3    H2 6472   1.857   4.188   0.449
 2170TIP3   OH2 6473   1.613   4.638   0.007
 2170TIP3    H1 6474   1.525   4.662   0.037
 2170TIP3    H2 6475   1.616   4.543   0.018
 2171TIP3   OH2 6476   2.437   5.127   3.418
 2171TIP3    H1 6477   2.355   5.119   3.467
 2171TIP3    H2 6478   2.411   5.159   3.332
 2172TIP3   OH2 6479   6.872   2.059   4.348
 2172TIP3    H1 6480   6.904   1.992   4.287
 2172TIP3    H2 6481   6.876   2.141   4.297
 2173TIP3   OH2 6482   1.901   4.788   0.272
 2173TIP3    H1 6483   1.919   4.844   0.197
 2173TIP3    H2 6484   1.812   4.756   0.258
 2174TIP3   OH2 6485   5.976   2.972   2.401
 2174TIP3    H1 6486   6.024   2.910   2.346
 2174TIP3    H2 6487   6.035   2.989   2.474
 2175TIP3   OH2 6488   4.164   4.472   4.777
 2175TIP3    H1 6489   4.120   4.444   4.696
 2175TIP3    H2 6490   4.141   4.405   4.841
 2176TIP3   OH2 6491   1.260   0.762   0.685
 2176TIP3    H1 6492   1.350   0.771   0.716
 2176TIP3    H2 6493   1.216   0.841   0.714
 2177TIP3   OH2 6494   2.001   2.882   2.196
 2177TIP3    H1 6495   2.018   2.896   2.289
 2177TIP3    H2 6496   2.003   2.787   2.185
 2178TIP3   OH2 6497   2.550   1.109   3.247
 2178TIP3    H1 6498   2.539   1.062   3.330
 2178TIP3    H2 6499   2.499   1.189   3.259
 2179TIP3   OH2 6500   0.239   3.744   4.986
 2179TIP3    H1 6501   0.217   3.676   4.923
 2179TIP3    H2 6502   0.334   3.751   4.983
 2180TIP3   OH2 6503   2.988   0.208   5.221
 2180TIP3    H1 6504   2.905   0.209   5.268
 2180TIP3    H2 6505   3.039   0.279   5.260
 2181TIP3   OH2 6506   6.057   2.323   1.520
 2181TIP3    H1 6507   5.981   2.381   1.514
 2181TIP3    H2 6508   6.030   2.257   1.584
 2182TIP3   OH2 6509   6.193   6.017   3.846
 2182TIP3    H1 6510   6.286   5.995   3.848
 2182TIP3    H2 6511   6.178   6.046   3.756
 2183TIP3   OH2 6512   4.678   4.274   5.344
 2183TIP3    H1 6513   4.683   4.280   5.439
 2183TIP3    H2 6514   4.610   4.338   5.319
 2184TIP3   OH2 6515   4.365   3.932   2.524
 2184TIP3    H1 6516   4.428   3.861   2.513
 2184TIP3    H2 6517   4.317   3.909   2.604
 2185TIP3   OH2 6518   4.423   1.908   4.415
 2185TIP3    H1 6519   4.453   1.911   4.324
 2185TIP3    H2 6520   4.394   1.997   4.433
 2186TIP3   OH2 6521   1.340   2.154   5.822
 2186TIP3    H1 6522   1.307   2.168   5.733
 2186TIP3    H2 6523   1.299   2.224   5.874
 2187TIP3   OH2 6524   3.196   6.216   5.026
 2187TIP3    H1 6525   3.189   6.154   4.954
 2187TIP3    H2 6526   3.196   6.161   5.105
 2188TIP3   OH2 6527  -0.005   6.280   5.885
 2188TIP3    H1 6528  -0.007   6.204   5.827
 2188TIP3    H2 6529   0.074   6.268   5.937
 2189TIP3   OH2 6530   2.368   0.076   1.244
 2189TIP3    H1 6531   2.428   0.002   1.244
 2189TIP3    H2 6532   2.281   0.038   1.232
 2190TIP3   OH2 6533   2.254   5.831   1.090
 2190TIP3    H1 6534   2.174   5.871   1.058
 2190TIP3    H2 6535   2.320   5.855   1.025
 2191TIP3   OH2 6536   1.826   1.638   4.021
 2191TIP3    H1 6537   1.766   1.713   4.030
 2191TIP3    H2 6538   1.775   1.573   3.972
 2192TIP3   OH2 6539   6.827   5.911   3.169
 2192TIP3    H1 6540   6.860   5.933   3.082
 2192TIP3    H2 6541   6.877   5.968   3.228
 2193TIP3   OH2 6542   3.462   3.084   5.579
 2193TIP3    H1 6543   3.463   3.130   5.495
 2193TIP3    H2 6544   3.527   3.130   5.632
 2194TIP3   OH2 6545   1.243   2.425   5.880
 2194TIP3    H1 6546   1.215   2.493   5.818
 2194TIP3    H2 6547   1.320   2.462   5.922
 2195TIP3   OH2 6548   0.391   0.012   2.905
 2195TIP3    H1 6549   0.385   0.075   2.833
 2195TIP3    H2 6550   0.367   0.063   2.983
 2196TIP3   OH2 6551   0.072   0.693   0.990
 2196TIP3    H1 6552   0.070   0.672   1.084
 2196TIP3    H2 6553  -0.003   0.750   0.976
 2197TIP3   OH2 6554   5.741   4.425   1.647
 2197TIP3    H1 6555   5.779   4.369   1.714
 2197TIP3    H2 6556   5.651   4.393   1.636
 2198TIP3   OH2 6557   4.041   5.436   1.246
 2198TIP3    H1 6558   4.039   5.526   1.214
 2198TIP3    H2 6559   4.117   5.397   1.204
 2199TIP3   OH2 6560   2.901   1.794   3.612
 2199TIP3    H1 6561   2.950   1.726   3.658
 2199TIP3    H2 6562   2.844   1.746   3.552
 2200TIP3   OH2 6563   0.020   6.740   4.959
 2200TIP3    H1 6564   0.102   6.714   4.916
 2200TIP3    H2 6565  -0.004   6.664   5.012
 2201TIP3   OH2 6566   3.960   2.489   2.141
 2201TIP3    H1 6567   3.974   2.481   2.047
 2201TIP3    H2 6568   3.879   2.540   2.149
 2202TIP3   OH2 6569   2.684   0.130   2.735
 2202TIP3    H1 6570   2.735   0.126   2.817
 2202TIP3    H2 6571   2.598   0.096   2.759
 2203TIP3   OH2 6572   1.881   4.159   4.405
 2203TIP3    H1 6573   1.867   4.238   4.354
 2203TIP3    H2 6574   1.972   4.164   4.433
 2204TIP3   OH2 6575   0.536   0.110   3.632
 2204TIP3    H1 6576   0.557   0.032   3.580
 2204TIP3    H2 6577   0.517   0.076   3.719
 2205TIP3   OH2 6578   3.036   4.135   3.722
 2205TIP3    H1 6579   3.065   4.225   3.735
 2205TIP3    H2 6580   2.979   4.139   3.645
 2206TIP3   OH2 6581   0.244   0.017   2.015
 2206TIP3    H1 6582   0.316   0.052   1.963
 2206TIP3    H2 6583   0.196   0.095   2.045
 2207TIP3   OH2 6584   1.778   4.405   2.135
 2207TIP3    H1 6585   1.832   4.460   2.078
 2207TIP3    H2 6586   1.834   4.331   2.156
 2208TIP3   OH2 6587   5.711   0.967   0.751
 2208TIP3    H1 6588   5.641   1.031   0.769
 2208TIP3    H2 6589   5.689   0.931   0.665
 2209TIP3   OH2 6590   1.306   4.581   4.509
 2209TIP3    H1 6591   1.385   4.528   4.515
 2209TIP3    H2 6592   1.315   4.646   4.579
 2210TIP3   OH2 6593   1.413   4.174   0.844
 2210TIP3    H1 6594   1.339   4.186   0.904
 2210TIP3    H2 6595   1.424   4.260   0.803
 2211TIP3   OH2 6596   6.095   0.479   1.713
 2211TIP3    H1 6597   6.138   0.446   1.635
 2211TIP3    H2 6598   6.002   0.478   1.692
 2212TIP3   OH2 6599   1.274   5.874   4.739
 2212TIP3    H1 6600   1.182   5.896   4.724
 2212TIP3    H2 6601   1.301   5.931   4.811
 2213TIP3   OH2 6602   0.998   4.448   4.655
 2213TIP3    H1 6603   0.949   4.414   4.730
 2213TIP3    H2 6604   1.086   4.463   4.689
 2214TIP3   OH2 6605   7.119   3.727   1.771
 2214TIP3    H1 6606   7.176   3.801   1.750
 2214TIP3    H2 6607   7.034   3.751   1.734
 2215TIP3   OH2 6608   6.575   1.907   2.336
 2215TIP3    H1 6609   6.633   1.860   2.275
 2215TIP3    H2 6610   6.517   1.840   2.370
 2216TIP3   OH2 6611   6.909   2.216   1.756
 2216TIP3    H1 6612   6.961   2.146   1.717
 2216TIP3    H2 6613   6.841   2.234   1.692
 2217TIP3   OH2 6614   4.544   1.576   0.316
 2217TIP3    H1 6615   4.589   1.508   0.367
 2217TIP3    H2 6616   4.455   1.577   0.351
 2218TIP3   OH2 6617   4.603   2.988   0.441
 2218TIP3    H1 6618   4.600   3.083   0.449
 2218TIP3    H2 6619   4.611   2.956   0.531
 2219TIP3   OH2 6620   1.836   2.439   0.050
 2219TIP3    H1 6621   1.824   2.346   0.068
 2219TIP3    H2 6622   1.747   2.475   0.050
 2220TIP3   OH2 6623   2.448   2.448   0.035
 2220TIP3    H1 6624   2.520   2.405  -0.010
 2220TIP3    H2 6625   2.407   2.503  -0.032
 2221TIP3   OH2 6626   0.311   5.750   1.900
 2221TIP3    H1 6627   0.285   5.664   1.868
 2221TIP3    H2 6628   0.371   5.731   1.973
 2222TIP3   OH2 6629   0.052   5.360   4.564
 2222TIP3    H1 6630   0.000   5.299   4.616
 2222TIP3    H2 6631   0.143   5.334   4.580
 2223TIP3   OH2 6632   5.324   5.721   1.289
 2223TIP3    H1 6633   5.257   5.727   1.222
 2223TIP3    H2 6634   5.300   5.644   1.341
 2224TIP3   OH2 6635   6.166   5.524   0.404
 2224TIP3    H1 6636   6.157   5.429   0.413
 2224TIP3    H2 6637   6.169   5.556   0.495
 2225TIP3   OH2 6638   2.041   0.329   5.739
 2225TIP3    H1 6639   2.026   0.319   5.645
 2225TIP3    H2 6640   1.956   0.307   5.779
 2226TIP3   OH2 6641   1.817   4.193   1.279
 2226TIP3    H1 6642   1.738   4.182   1.333
 2226TIP3    H2 6643   1.788   4.176   1.190
 2227TIP3   OH2 6644   2.700   3.323   1.907
 2227TIP3    H1 6645   2.663   3.399   1.951
 2227TIP3    H2 6646   2.790   3.348   1.886
 2228TIP3   OH2 6647   6.940   5.578   2.555
 2228TIP3    H1 6648   7.009   5.512   2.555
 2228TIP3    H2 6649   6.865   5.536   2.514
 2229TIP3   OH2 6650   5.908   6.709   5.679
 2229TIP3    H1 6651   5.904   6.710   5.775
 2229TIP3    H2 6652   5.999   6.690   5.658
 2230TIP3   OH2 6653   4.509   6.553   5.513
 2230TIP3    H1 6654   4.570   6.507   5.571
 2230TIP3    H2 6655   4.480   6.629   5.563
 2231TIP3   OH2 6656   1.548   5.577   4.785
 2231TIP3    H1 6657   1.504   5.591   4.869
 2231TIP3    H2 6658   1.617   5.643   4.782
 2232TIP3   OH2 6659   0.392   2.979   3.271
 2232TIP3    H1 6660   0.361   2.945   3.355
 2232TIP3    H2 6661   0.350   3.064   3.262
 2233TIP3   OH2 6662   6.709   6.311  -0.008
 2233TIP3    H1 6663   6.758   6.309   0.074
 2233TIP3    H2 6664   6.695   6.404  -0.025
 2234TIP3   OH2 6665   5.551   1.140   5.572
 2234TIP3    H1 6666   5.520   1.054   5.543
 2234TIP3    H2 6667   5.471   1.190   5.588
 2235TIP3   OH2 6668   1.895   5.583   5.496
 2235TIP3    H1 6669   1.896   5.487   5.502
 2235TIP3    H2 6670   1.921   5.612   5.584
 2236TIP3   OH2 6671   3.770   2.821   1.360
 2236TIP3    H1 6672   3.683   2.860   1.353
 2236TIP3    H2 6673   3.807   2.829   1.272
 2237TIP3   OH2 6674   0.626   3.213   0.276
 2237TIP3    H1 6675   0.705   3.158   0.276
 2237TIP3    H2 6676   0.630   3.262   0.194
 2238TIP3   OH2 6677   2.303   4.386   3.792
 2238TIP3    H1 6678   2.329   4.296   3.812
 2238TIP3    H2 6679   2.333   4.436   3.868
 2239TIP3   OH2 6680   4.930   1.817   5.361
 2239TIP3    H1 6681   4.988   1.742   5.377
 2239TIP3    H2 6682   4.959   1.883   5.424
 2240TIP3   OH2 6683   2.256   0.042   4.501
 2240TIP3    H1 6684   2.169   0.040   4.461
 2240TIP3    H2 6685   2.307   0.100   4.444
 2241TIP3   OH2 6686   3.169   1.703   1.573
 2241TIP3    H1 6687   3.264   1.699   1.582
 2241TIP3    H2 6688   3.154   1.737   1.485
 2242TIP3   OH2 6689   4.286   1.979   3.023
 2242TIP3    H1 6690   4.263   2.072   3.023
 2242TIP3    H2 6691   4.325   1.963   3.109
 2243TIP3   OH2 6692   3.856   5.895   3.263
 2243TIP3    H1 6693   3.815   5.887   3.349
 2243TIP3    H2 6694   3.839   5.810   3.221
 2244TIP3   OH2 6695   0.454   5.557   5.417
 2244TIP3    H1 6696   0.382   5.550   5.479
 2244TIP3    H2 6697   0.420   5.520   5.336
 2245TIP3   OH2 6698   3.061   3.157   0.163
 2245TIP3    H1 6699   3.006   3.120   0.231
 2245TIP3    H2 6700   3.149   3.158   0.201
 2246TIP3   OH2 6701   3.492   6.151   5.594
 2246TIP3    H1 6702   3.433   6.077   5.605
 2246TIP3    H2 6703   3.569   6.128   5.647
 2247TIP3   OH2 6704   4.258   5.896   0.157
 2247TIP3    H1 6705   4.293   5.981   0.184
 2247TIP3    H2 6706   4.222   5.858   0.237
 2248TIP3   OH2 6707   3.371   1.702   5.802
 2248TIP3    H1 6708   3.281   1.678   5.824
 2248TIP3    H2 6709   3.402   1.630   5.747
 2249TIP3   OH2 6710   6.771   3.256   3.340
 2249TIP3    H1 6711   6.844   3.299   3.297
 2249TIP3    H2 6712   6.811   3.182   3.387
 2250TIP3   OH2 6713   4.034   3.535   0.238
 2250TIP3    H1 6714   4.095   3.491   0.297
 2250TIP3    H2 6715   3.966   3.570   0.295
 2251TIP3   OH2 6716   4.756   3.607  -0.027
 2251TIP3    H1 6717   4.664   3.591  -0.006
 2251TIP3    H2 6718   4.804   3.548   0.032
 2252TIP3   OH2 6719   5.407   0.830   4.983
 2252TIP3    H1 6720   5.319   0.801   5.005
 2252TIP3    H2 6721   5.432   0.887   5.056
 2253TIP3   OH2 6722   0.222   3.718   3.887
 2253TIP3    H1 6723   0.211   3.794   3.944
 2253TIP3    H2 6724   0.218   3.643   3.947
 2254TIP3   OH2 6725   4.626   6.746   0.819
 2254TIP3    H1 6726   4.637   6.652   0.826
 2254TIP3    H2 6727   4.635   6.779   0.908
 2255TIP3   OH2 6728   3.918   5.507   0.148
 2255TIP3    H1 6729   3.858   5.498   0.074
 2255TIP3    H2 6730   3.984   5.570   0.117
 2256TIP3   OH2 6731   0.995   0.953   3.065
 2256TIP3    H1 6732   1.043   0.941   2.983
 2256TIP3    H2 6733   0.907   0.978   3.038
 2257TIP3   OH2 6734   3.544   0.999   3.790
 2257TIP3    H1 6735   3.566   1.086   3.758
 2257TIP3    H2 6736   3.471   0.970   3.734
 2258TIP3   OH2 6737   4.659   0.621   0.534
 2258TIP3    H1 6738   4.563   0.618   0.533
 2258TIP3    H2 6739   4.683   0.620   0.441
 2259TIP3   OH2 6740   6.687   2.823   3.419
 2259TIP3    H1 6741   6.684   2.902   3.365
 2259TIP3    H2 6742   6.718   2.755   3.360
 2260TIP3   OH2 6743   6.689   6.465   1.176
 2260TIP3    H1 6744   6.731   6.542   1.137
 2260TIP3    H2 6745   6.622   6.500   1.233
 2261TIP3   OH2 6746   2.635   3.225   2.562
 2261TIP3    H1 6747   2.644   3.320   2.553
 2261TIP3    H2 6748   2.700   3.201   2.629
 2262TIP3   OH2 6749   3.145   0.228   3.843
 2262TIP3    H1 6750   3.086   0.278   3.899
 2262TIP3    H2 6751   3.089   0.191   3.775
 2263TIP3   OH2 6752   0.778   3.628   1.610
 2263TIP3    H1 6753   0.811   3.716   1.628
 2263TIP3    H2 6754   0.856   3.576   1.590
 2264TIP3   OH2 6755   6.057   5.499   4.311
 2264TIP3    H1 6756   6.022   5.425   4.359
 2264TIP3    H2 6757   6.127   5.461   4.257
 2265TIP3   OH2 6758   4.024   3.292   1.568
 2265TIP3    H1 6759   4.094   3.308   1.631
 2265TIP3    H2 6760   3.968   3.226   1.609
 2266TIP3   OH2 6761   3.781   2.665   3.487
 2266TIP3    H1 6762   3.805   2.632   3.401
 2266TIP3    H2 6763   3.761   2.586   3.538
 2267TIP3   OH2 6764   1.981   6.163   2.768
 2267TIP3    H1 6765   2.038   6.197   2.700
 2267TIP3    H2 6766   1.995   6.222   2.843
 2268TIP3   OH2 6767   3.865   1.119   3.624
 2268TIP3    H1 6768   3.771   1.106   3.610
 2268TIP3    H2 6769   3.874   1.133   3.718
 2269TIP3   OH2 6770   6.832   2.630   3.176
 2269TIP3    H1 6771   6.783   2.665   3.102
 2269TIP3    H2 6772   6.911   2.683   3.179
 2270TIP3   OH2 6773   5.366   3.876   4.173
 2270TIP3    H1 6774   5.398   3.885   4.084
 2270TIP3    H2 6775   5.398   3.791   4.202
 2271TIP3   OH2 6776   1.323   5.430   0.492
 2271TIP3    H1 6777   1.293   5.402   0.579
 2271TIP3    H2 6778   1.253   5.404   0.432
 2272TIP3   OH2 6779   6.659   3.943   2.917
 2272TIP3    H1 6780   6.744   3.973   2.949
 2272TIP3    H2 6781   6.675   3.917   2.826
 2273TIP3   OH2 6782   2.414   3.087   2.592
 2273TIP3    H1 6783   2.437   3.057   2.680
 2273TIP3    H2 6784   2.486   3.144   2.567
 2274TIP3   OH2 6785   6.305   3.150   2.773
 2274TIP3    H1 6786   6.358   3.203   2.713
 2274TIP3    H2 6787   6.364   3.127   2.845
 2275TIP3   OH2 6788   2.995   1.755   4.961
 2275TIP3    H1 6789   2.960   1.765   5.050
 2275TIP3    H2 6790   3.079   1.801   4.963
 2276TIP3   OH2 6791   3.930   4.832   4.954
 2276TIP3    H1 6792   3.932   4.873   5.041
 2276TIP3    H2 6793   3.899   4.743   4.970
 2277TIP3   OH2 6794   7.027   3.971   2.769
 2277TIP3    H1 6795   7.071   3.925   2.841
 2277TIP3    H2 6796   7.092   4.034   2.738
 2278TIP3   OH2 6797   6.092   2.566   4.184
 2278TIP3    H1 6798   6.001   2.537   4.176
 2278TIP3    H2 6799   6.086   2.659   4.207
 2279TIP3   OH2 6800   3.962   1.322   3.478
 2279TIP3    H1 6801   4.057   1.319   3.490
 2279TIP3    H2 6802   3.929   1.248   3.529
 2280TIP3   OH2 6803   2.526   6.640   5.346
 2280TIP3    H1 6804   2.564   6.577   5.408
 2280TIP3    H2 6805   2.573   6.721   5.363
 2281TIP3   OH2 6806   6.393   4.203   2.424
 2281TIP3    H1 6807   6.477   4.216   2.379
 2281TIP3    H2 6808   6.345   4.142   2.369
 2282TIP3   OH2 6809   5.617   6.171   2.800
 2282TIP3    H1 6810   5.634   6.201   2.711
 2282TIP3    H2 6811   5.548   6.105   2.790
 2283TIP3   OH2 6812   1.902   4.755   3.560
 2283TIP3    H1 6813   1.930   4.740   3.470
 2283TIP3    H2 6814   1.954   4.694   3.612
 2284TIP3   OH2 6815   3.480   1.988   2.042
 2284TIP3    H1 6816   3.575   1.985   2.052
 2284TIP3    H2 6817   3.447   2.019   2.126
 2285TIP3   OH2 6818   6.248   0.238   5.301
 2285TIP3    H1 6819   6.177   0.181   5.271
 2285TIP3    H2 6820   6.206   0.300   5.361
 2286TIP3   OH2 6821   1.196   0.124   4.953
 2286TIP3    H1 6822   1.165   0.069   5.025
 2286TIP3    H2 6823   1.146   0.094   4.877
 2287TIP3   OH2 6824   4.768   3.622   3.650
 2287TIP3    H1 6825   4.766   3.710   3.613
 2287TIP3    H2 6826   4.685   3.613   3.696
 2288TIP3   OH2 6827   6.367   3.629   0.224
 2288TIP3    H1 6828   6.435   3.668   0.168
 2288TIP3    H2 6829   6.416   3.571   0.283
 2289TIP3   OH2 6830   0.359   4.809   2.794
 2289TIP3    H1 6831   0.434   4.790   2.850
 2289TIP3    H2 6832   0.312   4.726   2.787
 2290TIP3   OH2 6833   0.692   3.807   4.935
 2290TIP3    H1 6834   0.682   3.899   4.912
 2290TIP3    H2 6835   0.626   3.793   5.004
 2291TIP3   OH2 6836   1.829   4.200  -0.001
 2291TIP3    H1 6837   1.888   4.236   0.065
 2291TIP3    H2 6838   1.887   4.169  -0.070
 2292TIP3   OH2 6839   6.911   5.275   1.540
 2292TIP3    H1 6840   6.931   5.236   1.455
 2292TIP3    H2 6841   6.995   5.273   1.588
 2293TIP3   OH2 6842   6.988   3.291   1.271
 2293TIP3    H1 6843   7.008   3.214   1.325
 2293TIP3    H2 6844   6.985   3.363   1.333
 2294TIP3   OH2 6845   1.149   4.163   0.905
 2294TIP3    H1 6846   1.119   4.247   0.871
 2294TIP3    H2 6847   1.116   4.098   0.843
 2295TIP3   OH2 6848   0.829   1.645   3.801
 2295TIP3    H1 6849   0.842   1.577   3.866
 2295TIP3    H2 6850   0.834   1.727   3.850
 2296TIP3   OH2 6851   6.653   4.109   1.889
 2296TIP3    H1 6852   6.714   4.039   1.913
 2296TIP3    H2 6853   6.703   4.163   1.828
 2297TIP3   OH2 6854   3.790   5.362   5.608
 2297TIP3    H1 6855   3.803   5.279   5.562
 2297TIP3    H2 6856   3.877   5.387   5.639
 2298TIP3   OH2 6857   6.799   0.903   2.473
 2298TIP3    H1 6858   6.860   0.881   2.544
 2298TIP3    H2 6859   6.767   0.991   2.496
 2299TIP3   OH2 6860   0.865   2.508   2.524
 2299TIP3    H1 6861   0.883   2.477   2.612
 2299TIP3    H2 6862   0.941   2.562   2.501
 2300TIP3   OH2 6863   2.412   2.497   2.839
 2300TIP3    H1 6864   2.417   2.459   2.751
 2300TIP3    H2 6865   2.323   2.479   2.868
 2301TIP3   OH2 6866   1.796   0.813   4.047
 2301TIP3    H1 6867   1.766   0.744   4.106
 2301TIP3    H2 6868   1.823   0.885   4.105
 2302TIP3   OH2 6869   1.876   4.986   1.232
 2302TIP3    H1 6870   1.817   5.004   1.305
 2302TIP3    H2 6871   1.818   4.956   1.162
 2303TIP3   OH2 6872   3.852   5.291   4.094
 2303TIP3    H1 6873   3.947   5.286   4.109
 2303TIP3    H2 6874   3.816   5.226   4.155
 2304TIP3   OH2 6875   4.400   0.316   5.099
 2304TIP3    H1 6876   4.341   0.311   5.024
 2304TIP3    H2 6877   4.403   0.409   5.122
 2305TIP3   OH2 6878   5.879   1.197   1.872
 2305TIP3    H1 6879   5.812   1.265   1.863
 2305TIP3    H2 6880   5.854   1.131   1.807
 2306TIP3   OH2 6881   6.257   1.097   2.864
 2306TIP3    H1 6882   6.191   1.081   2.796
 2306TIP3    H2 6883   6.228   1.044   2.938
 2307TIP3   OH2 6884   2.669   3.491   2.506
 2307TIP3    H1 6885   2.655   3.516   2.597
 2307TIP3    H2 6886   2.648   3.570   2.456
 2308TIP3   OH2 6887   2.568   5.615   3.815
 2308TIP3    H1 6888   2.513   5.693   3.805
 2308TIP3    H2 6889   2.506   5.545   3.836
 2309TIP3   OH2 6890   2.214   6.621   1.526
 2309TIP3    H1 6891   2.236   6.672   1.605
 2309TIP3    H2 6892   2.121   6.601   1.537
 2310TIP3   OH2 6893   3.550   3.549   2.607
 2310TIP3    H1 6894   3.562   3.641   2.580
 2310TIP3    H2 6895   3.470   3.550   2.659
 2311TIP3   OH2 6896   4.726   3.632   2.916
 2311TIP3    H1 6897   4.749   3.685   2.992
 2311TIP3    H2 6898   4.807   3.587   2.893
 2312TIP3   OH2 6899   1.702   4.841   3.158
 2312TIP3    H1 6900   1.671   4.838   3.067
 2312TIP3    H2 6901   1.691   4.933   3.184
 2313TIP3   OH2 6902   6.072   0.597   0.384
 2313TIP3    H1 6903   6.032   0.511   0.371
 2313TIP3    H2 6904   6.129   0.609   0.308
 2314TIP3   OH2 6905   3.241   2.437   3.207
 2314TIP3    H1 6906   3.288   2.520   3.193
 2314TIP3    H2 6907   3.164   2.444   3.151
 2315TIP3   OH2 6908   3.716   2.246   5.630
 2315TIP3    H1 6909   3.746   2.229   5.541
 2315TIP3    H2 6910   3.665   2.327   5.623
 2316TIP3   OH2 6911   5.117   6.100   1.196
 2316TIP3    H1 6912   5.192   6.054   1.156
 2316TIP3    H2 6913   5.157   6.159   1.259
 2317TIP3   OH2 6914   6.986   1.121   0.711
 2317TIP3    H1 6915   6.955   1.110   0.801
 2317TIP3    H2 6916   6.944   1.051   0.662
 2318TIP3   OH2 6917   5.102   5.766   4.493
 2318TIP3    H1 6918   5.182   5.738   4.449
 2318TIP3    H2 6919   5.034   5.710   4.458
 2319TIP3   OH2 6920   1.369   6.224   5.418
 2319TIP3    H1 6921   1.379   6.145   5.471
 2319TIP3    H2 6922   1.444   6.223   5.359
 2320TIP3   OH2 6923   5.782   6.367   1.759
 2320TIP3    H1 6924   5.712   6.318   1.802
 2320TIP3    H2 6925   5.778   6.338   1.668
 2321TIP3   OH2 6926   4.225   0.687   2.775
 2321TIP3    H1 6927   4.216   0.776   2.742
 2321TIP3    H2 6928   4.140   0.666   2.814
 2322TIP3   OH2 6929   0.857   3.352   3.767
 2322TIP3    H1 6930   0.888   3.289   3.831
 2322TIP3    H2 6931   0.763   3.336   3.761
 2323TIP3   OH2 6932   4.761   0.648   3.843
 2323TIP3    H1 6933   4.837   0.599   3.811
 2323TIP3    H2 6934   4.697   0.641   3.773
 2324TIP3   OH2 6935   1.890   2.848   5.317
 2324TIP3    H1 6936   1.811   2.793   5.320
 2324TIP3    H2 6937   1.919   2.845   5.226
 2325TIP3   OH2 6938   5.485   5.132   0.600
 2325TIP3    H1 6939   5.501   5.047   0.640
 2325TIP3    H2 6940   5.454   5.187   0.672
 2326TIP3   OH2 6941  -0.027   0.158   2.325
 2326TIP3    H1 6942   0.041   0.116   2.377
 2326TIP3    H2 6943  -0.047   0.240   2.371
 2327TIP3   OH2 6944   0.617   2.144   3.301
 2327TIP3    H1 6945   0.646   2.079   3.236
 2327TIP3    H2 6946   0.679   2.134   3.373
 2328TIP3   OH2 6947   3.285   4.884   0.237
 2328TIP3    H1 6948   3.365   4.910   0.192
 2328TIP3    H2 6949   3.225   4.958   0.223
 2329TIP3   OH2 6950   6.871   5.624   4.761
 2329TIP3    H1 6951   6.924   5.703   4.755
 2329TIP3    H2 6952   6.784   5.655   4.787
 2330TIP3   OH2 6953   3.241   0.499   4.184
 2330TIP3    H1 6954   3.183   0.559   4.231
 2330TIP3    H2 6955   3.183   0.443   4.133
 2331TIP3   OH2 6956   7.231   3.755   5.144
 2331TIP3    H1 6957   7.313   3.728   5.103
 2331TIP3    H2 6958   7.221   3.847   5.120
 2332TIP3   OH2 6959   3.099   0.894   0.230
 2332TIP3    H1 6960   3.179   0.845   0.251
 2332TIP3    H2 6961   3.082   0.946   0.308
 2333TIP3   OH2 6962   0.920   4.950   4.737
 2333TIP3    H1 6963   0.941   4.913   4.823
 2333TIP3    H2 6964   0.912   5.044   4.753
 2334TIP3   OH2 6965   4.921   0.376   2.461
 2334TIP3    H1 6966   4.934   0.318   2.536
 2334TIP3    H2 6967   4.964   0.331   2.388
 2335TIP3   OH2 6968   0.772   3.917   1.271
 2335TIP3    H1 6969   0.865   3.917   1.294
 2335TIP3    H2 6970   0.742   3.829   1.293
 2336TIP3   OH2 6971   5.315   5.141   5.231
 2336TIP3    H1 6972   5.324   5.087   5.310
 2336TIP3    H2 6973   5.377   5.212   5.244
 2337TIP3   OH2 6974   3.712   3.334   2.697
 2337TIP3    H1 6975   3.661   3.415   2.688
 2337TIP3    H2 6976   3.712   3.315   2.791
 2338TIP3   OH2 6977   1.486   1.127   1.591
 2338TIP3    H1 6978   1.421   1.062   1.614
 2338TIP3    H2 6979   1.552   1.121   1.660
 2339TIP3   OH2 6980   1.347   3.405   4.780
 2339TIP3    H1 6981   1.426   3.353   4.768
 2339TIP3    H2 6982   1.377   3.496   4.778
 2340TIP3   OH2 6983   2.391   2.572   5.802
 2340TIP3    H1 6984   2.399   2.631   5.727
 2340TIP3    H2 6985   2.482   2.546   5.821
 2341TIP3   OH2 6986   6.846   2.770   2.748
 2341TIP3    H1 6987   6.779   2.714   2.788
 2341TIP3    H2 6988   6.835   2.855   2.791
 2342TIP3   OH2 6989   3.201   0.132   2.160
 2342TIP3    H1 6990   3.269   0.198   2.147
 2342TIP3    H2 6991   3.222   0.091   2.244
 2343TIP3   OH2 6992   2.076   3.549   3.123
 2343TIP3    H1 6993   2.068   3.457   3.148
 2343TIP3    H2 6994   2.137   3.549   3.049
 2344TIP3   OH2 6995   1.759   0.260   5.012
 2344TIP3    H1 6996   1.847   0.221   5.007
 2344TIP3    H2 6997   1.724   0.228   5.095
 2345TIP3   OH2 6998   4.162   6.594   0.650
 2345TIP3    H1 6999   4.255   6.574   0.646
 2345TIP3    H2 7000   4.142   6.631   0.564
 2346TIP3   OH2 7001   3.055   0.364   5.811
 2346TIP3    H1 7002   2.964   0.372   5.841
 2346TIP3    H2 7003   3.104   0.344   5.891
 2347TIP3   OH2 7004   1.402   3.966   4.028
 2347TIP3    H1 7005   1.402   4.048   3.977
 2347TIP3    H2 7006   1.494   3.953   4.052
 2348TIP3   OH2 7007   2.532   4.107   0.695
 2348TIP3    H1 7008   2.504   4.086   0.784
 2348TIP3    H2 7009   2.451   4.134   0.651
 2349TIP3   OH2 7010   6.199   5.127   5.248
 2349TIP3    H1 7011   6.287   5.090   5.257
 2349TIP3    H2 7012   6.213   5.221   5.236
 2350TIP3   OH2 7013   2.757   0.317   5.753
 2350TIP3    H1 7014   2.755   0.227   5.721
 2350TIP3    H2 7015   2.671   0.353   5.729
 2351TIP3   OH2 7016   6.204   6.589   5.244
 2351TIP3    H1 7017   6.172   6.541   5.167
 2351TIP3    H2 7018   6.229   6.520   5.306
 2352TIP3   OH2 7019   6.448   1.762   0.620
 2352TIP3    H1 7020   6.363   1.726   0.593
 2352TIP3    H2 7021   6.502   1.758   0.541
 2353TIP3   OH2 7022   5.366   6.679   0.900
 2353TIP3    H1 7023   5.276   6.681   0.868
 2353TIP3    H2 7024   5.359   6.682   0.995
 2354TIP3   OH2 7025   4.500   2.100   2.122
 2354TIP3    H1 7026   4.443   2.036   2.080
 2354TIP3    H2 7027   4.563   2.124   2.054
 2355TIP3   OH2 7028   6.718   3.383   0.868
 2355TIP3    H1 7029   6.723   3.309   0.929
 2355TIP3    H2 7030   6.729   3.343   0.781
 2356TIP3   OH2 7031   6.037   0.303   0.065
 2356TIP3    H1 7032   6.011   0.224   0.018
 2356TIP3    H2 7033   6.118   0.331   0.022
 2357TIP3   OH2 7034   0.202   3.194   1.349
 2357TIP3    H1 7035   0.164   3.106   1.354
 2357TIP3    H2 7036   0.130   3.253   1.369
 2358TIP3   OH2 7037   0.454   2.431   3.130
 2358TIP3    H1 7038   0.549   2.431   3.144
 2358TIP3    H2 7039   0.419   2.476   3.207
 2359TIP3   OH2 7040   5.397   0.832   1.047
 2359TIP3    H1 7041   5.451   0.754   1.061
 2359TIP3    H2 7042   5.368   0.825   0.956
 2360TIP3   OH2 7043   3.292   3.286   4.722
 2360TIP3    H1 7044   3.223   3.259   4.783
 2360TIP3    H2 7045   3.248   3.290   4.637
 2361TIP3   OH2 7046   1.253   6.491   3.958
 2361TIP3    H1 7047   1.299   6.575   3.957
 2361TIP3    H2 7048   1.232   6.475   4.050
 2362TIP3   OH2 7049   2.402   1.277   3.641
 2362TIP3    H1 7050   2.484   1.317   3.670
 2362TIP3    H2 7051   2.385   1.208   3.705
 2363TIP3   OH2 7052   0.413   6.287   4.606
 2363TIP3    H1 7053   0.493   6.312   4.560
 2363TIP3    H2 7054   0.350   6.356   4.585
 2364TIP3   OH2 7055   0.756   0.435   1.480
 2364TIP3    H1 7056   0.740   0.450   1.387
 2364TIP3    H2 7057   0.743   0.341   1.492
 2365TIP3   OH2 7058   4.289   3.317   1.351
 2365TIP3    H1 7059   4.299   3.224   1.371
 2365TIP3    H2 7060   4.197   3.335   1.365
 2366TIP3   OH2 7061   3.625   1.081   1.376
 2366TIP3    H1 7062   3.695   1.141   1.403
 2366TIP3    H2 7063   3.588   1.050   1.459
 2367TIP3   OH2 7064   5.101   1.210   1.496
 2367TIP3    H1 7065   5.062   1.236   1.412
 2367TIP3    H2 7066   5.112   1.292   1.544
 2368TIP3   OH2 7067   3.690   5.395   0.932
 2368TIP3    H1 7068   3.771   5.347   0.949
 2368TIP3    H2 7069   3.652   5.353   0.855
 2369TIP3   OH2 7070   5.911   0.941   3.591
 2369TIP3    H1 7071   5.867   0.856   3.591
 2369TIP3    H2 7072   5.982   0.932   3.654
 2370TIP3   OH2 7073   7.073   5.805   4.714
 2370TIP3    H1 7074   7.075   5.847   4.628
 2370TIP3    H2 7075   7.117   5.721   4.701
 2371TIP3   OH2 7076   0.536   4.714   2.135
 2371TIP3    H1 7077   0.462   4.686   2.190
 2371TIP3    H2 7078   0.495   4.758   2.060
 2372TIP3   OH2 7079   2.165   6.372   3.724
 2372TIP3    H1 7080   2.150   6.442   3.660
 2372TIP3    H2 7081   2.109   6.394   3.798
 2373TIP3   OH2 7082   7.114   0.661   1.843
 2373TIP3    H1 7083   7.059   0.668   1.921
 2373TIP3    H2 7084   7.202   0.684   1.874
 2374TIP3   OH2 7085  -0.040   3.997   5.522
 2374TIP3    H1 7086  -0.012   4.077   5.478
 2374TIP3    H2 7087   0.027   3.932   5.499
 2375TIP3   OH2 7088   3.958   4.361   4.590
 2375TIP3    H1 7089   3.912   4.445   4.583
 2375TIP3    H2 7090   3.998   4.349   4.504
 2376TIP3   OH2 7091   5.372   4.252   4.311
 2376TIP3    H1 7092   5.297   4.310   4.324
 2376TIP3    H2 7093   5.348   4.170   4.354
 2377TIP3   OH2 7094   3.657   3.966   4.198
 2377TIP3    H1 7095   3.667   4.061   4.201
 2377TIP3    H2 7096   3.739   3.932   4.233
 2378TIP3   OH2 7097   1.588   5.305   2.259
 2378TIP3    H1 7098   1.678   5.289   2.288
 2378TIP3    H2 7099   1.597   5.345   2.173
 2379TIP3   OH2 7100   3.494   5.409   4.793
 2379TIP3    H1 7101   3.563   5.469   4.823
 2379TIP3    H2 7102   3.475   5.354   4.869
 2380TIP3   OH2 7103   2.689   2.978   1.193
 2380TIP3    H1 7104   2.724   3.031   1.264
 2380TIP3    H2 7105   2.633   2.914   1.236
 2381TIP3   OH2 7106   7.129   2.622   4.187
 2381TIP3    H1 7107   7.209   2.576   4.209
 2381TIP3    H2 7108   7.100   2.661   4.270
 2382TIP3   OH2 7109   4.808   4.218   2.493
 2382TIP3    H1 7110   4.762   4.220   2.409
 2382TIP3    H2 7111   4.815   4.310   2.518
 2383TIP3   OH2 7112   6.689   1.601   5.322
 2383TIP3    H1 7113   6.646   1.571   5.242
 2383TIP3    H2 7114   6.619   1.644   5.372
 2384TIP3   OH2 7115   5.993   3.778   1.788
 2384TIP3    H1 7116   6.032   3.712   1.845
 2384TIP3    H2 7117   5.940   3.833   1.846
 2385TIP3   OH2 7118   4.968   1.267   0.516
 2385TIP3    H1 7119   5.026   1.297   0.586
 2385TIP3    H2 7120   4.998   1.314   0.438
 2386TIP3   OH2 7121   5.089   2.933   2.714
 2386TIP3    H1 7122   5.018   2.869   2.717
 2386TIP3    H2 7123   5.154   2.892   2.656
 2387TIP3   OH2 7124   3.486   0.836   2.661
 2387TIP3    H1 7125   3.512   0.877   2.578
 2387TIP3    H2 7126   3.425   0.898   2.701
 2388TIP3   OH2 7127   3.542   2.753   3.164
 2388TIP3    H1 7128   3.559   2.712   3.079
 2388TIP3    H2 7129   3.577   2.842   3.155
 2389TIP3   OH2 7130   6.258   4.547   2.098
 2389TIP3    H1 7131   6.348   4.577   2.088
 2389TIP3    H2 7132   6.265   4.452   2.112
 2390TIP3   OH2 7133   5.344   2.472   2.281
 2390TIP3    H1 7134   5.425   2.478   2.331
 2390TIP3    H2 7135   5.275   2.496   2.342
 2391TIP3   OH2 7136   5.572   1.015   2.002
 2391TIP3    H1 7137   5.502   0.954   1.977
 2391TIP3    H2 7138   5.645   0.958   2.027
 2392TIP3   OH2 7139   5.026   5.972   4.675
 2392TIP3    H1 7140   5.013   6.050   4.623
 2392TIP3    H2 7141   5.044   5.903   4.611
 2393TIP3   OH2 7142   6.398   0.368   0.768
 2393TIP3    H1 7143   6.436   0.284   0.795
 2393TIP3    H2 7144   6.474   0.424   0.750
 2394TIP3   OH2 7145   2.420   2.026   3.216
 2394TIP3    H1 7146   2.507   1.994   3.191
 2394TIP3    H2 7147   2.438   2.103   3.270
 2395TIP3   OH2 7148   4.631   5.108   4.088
 2395TIP3    H1 7149   4.687   5.147   4.155
 2395TIP3    H2 7150   4.558   5.071   4.136
 2396TIP3   OH2 7151   2.514   1.697   4.165
 2396TIP3    H1 7152   2.423   1.711   4.140
 2396TIP3    H2 7153   2.510   1.666   4.255
 2397TIP3   OH2 7154   5.799   0.807   4.547
 2397TIP3    H1 7155   5.875   0.865   4.538
 2397TIP3    H2 7156   5.789   0.794   4.642
 2398TIP3   OH2 7157   4.098   5.091   3.960
 2398TIP3    H1 7158   4.136   5.143   3.890
 2398TIP3    H2 7159   4.049   5.022   3.916
 2399TIP3   OH2 7160   5.097   4.313   5.492
 2399TIP3    H1 7161   5.045   4.282   5.418
 2399TIP3    H2 7162   5.034   4.357   5.549
 2400TIP3   OH2 7163   3.084   3.724   1.915
 2400TIP3    H1 7164   3.168   3.683   1.936
 2400TIP3    H2 7165   3.079   3.800   1.972
 2401TIP3   OH2 7166   2.501   0.169   1.007
 2401TIP3    H1 7167   2.501   0.262   1.028
 2401TIP3    H2 7168   2.445   0.129   1.073
 2402TIP3   OH2 7169   3.487   5.438   0.422
 2402TIP3    H1 7170   3.573   5.439   0.380
 2402TIP3    H2 7171   3.425   5.428   0.350
 2403TIP3   OH2 7172   2.344   4.117   1.511
 2403TIP3    H1 7173   2.325   4.141   1.421
 2403TIP3    H2 7174   2.368   4.200   1.553
 2404TIP3   OH2 7175   1.262   5.305   5.140
 2404TIP3    H1 7176   1.235   5.267   5.223
 2404TIP3    H2 7177   1.243   5.237   5.075
 2405TIP3   OH2 7178   5.475   0.692   4.147
 2405TIP3    H1 7179   5.518   0.671   4.064
 2405TIP3    H2 7180   5.540   0.668   4.213
 2406TIP3   OH2 7181   1.685   1.200   0.862
 2406TIP3    H1 7182   1.726   1.281   0.831
 2406TIP3    H2 7183   1.690   1.141   0.787
 2407TIP3   OH2 7184   2.754   4.690   1.500
 2407TIP3    H1 7185   2.778   4.753   1.432
 2407TIP3    H2 7186   2.834   4.680   1.552
 2408TIP3   OH2 7187   0.904   1.887   3.934
 2408TIP3    H1 7188   0.823   1.937   3.918
 2408TIP3    H2 7189   0.972   1.954   3.940
 2409TIP3   OH2 7190   2.549   6.487   5.791
 2409TIP3    H1 7191   2.565   6.465   5.700
 2409TIP3    H2 7192   2.564   6.582   5.797
 2410TIP3   OH2 7193   5.603   1.816   2.101
 2410TIP3    H1 7194   5.512   1.816   2.070
 2410TIP3    H2 7195   5.622   1.907   2.121
 2411TIP3   OH2 7196   4.595   5.108   4.658
 2411TIP3    H1 7197   4.559   5.032   4.704
 2411TIP3    H2 7198   4.665   5.072   4.603
 2412TIP3   OH2 7199   5.049   5.301   2.759
 2412TIP3    H1 7200   5.018   5.359   2.689
 2412TIP3    H2 7201   5.139   5.329   2.776
 2413TIP3   OH2 7202   4.589   0.252   0.303
 2413TIP3    H1 7203   4.589   0.278   0.395
 2413TIP3    H2 7204   4.567   0.332   0.255
 2414TIP3   OH2 7205   2.342   6.354   5.156
 2414TIP3    H1 7206   2.331   6.449   5.153
 2414TIP3    H2 7207   2.257   6.320   5.182
 2415TIP3   OH2 7208   5.053   3.428   4.311
 2415TIP3    H1 7209   5.138   3.427   4.267
 2415TIP3    H2 7210   5.069   3.393   4.398
 2416TIP3   OH2 7211   5.250   4.674   2.629
 2416TIP3    H1 7212   5.223   4.612   2.561
 2416TIP3    H2 7213   5.344   4.686   2.615
 2417TIP3   OH2 7214   5.555   5.223   3.971
 2417TIP3    H1 7215   5.496   5.268   3.910
 2417TIP3    H2 7216   5.516   5.136   3.981
 2418TIP3   OH2 7217   4.891   1.797   2.338
 2418TIP3    H1 7218   4.967   1.833   2.294
 2418TIP3    H2 7219   4.829   1.778   2.268
 2419TIP3   OH2 7220   2.367   5.133   1.480
 2419TIP3    H1 7221   2.391   5.150   1.571
 2419TIP3    H2 7222   2.429   5.185   1.429
 2420TIP3   OH2 7223   3.830   4.959   2.363
 2420TIP3    H1 7224   3.782   5.026   2.411
 2420TIP3    H2 7225   3.855   4.895   2.430
 2421TIP3   OH2 7226   1.954   4.061   4.671
 2421TIP3    H1 7227   1.923   4.054   4.581
 2421TIP3    H2 7228   1.879   4.033   4.724
 2422TIP3   OH2 7229   3.018   3.415   4.030
 2422TIP3    H1 7230   3.032   3.422   3.935
 2422TIP3    H2 7231   2.928   3.383   4.038
 2423TIP3   OH2 7232   0.769   0.199   4.622
 2423TIP3    H1 7233   0.768   0.200   4.527
 2423TIP3    H2 7234   0.853   0.160   4.645
 2424TIP3   OH2 7235   4.838   5.431   2.172
 2424TIP3    H1 7236   4.785   5.412   2.095
 2424TIP3    H2 7237   4.861   5.344   2.206
 2425TIP3   OH2 7238   3.558   1.931   0.208
 2425TIP3    H1 7239   3.531   1.991   0.138
 2425TIP3    H2 7240   3.548   1.982   0.289
 2426TIP3   OH2 7241   1.388   2.610   3.092
 2426TIP3    H1 7242   1.293   2.617   3.079
 2426TIP3    H2 7243   1.399   2.526   3.137
 2427TIP3   OH2 7244   4.039   0.052   5.739
 2427TIP3    H1 7245   4.031  -0.040   5.714
 2427TIP3    H2 7246   4.050   0.099   5.657
 2428TIP3   OH2 7247   6.405   2.652   0.680
 2428TIP3    H1 7248   6.441   2.731   0.640
 2428TIP3    H2 7249   6.438   2.654   0.770
 2429TIP3   OH2 7250   3.293   0.609   3.512
 2429TIP3    H1 7251   3.256   0.522   3.500
 2429TIP3    H2 7252   3.277   0.653   3.428
 2430TIP3   OH2 7253   3.880   2.000   5.627
 2430TIP3    H1 7254   3.953   2.035   5.577
 2430TIP3    H2 7255   3.832   2.078   5.656
 2431TIP3   OH2 7256   0.383   3.798   0.179
 2431TIP3    H1 7257   0.432   3.789   0.260
 2431TIP3    H2 7258   0.296   3.828   0.206
 2432TIP3   OH2 7259   3.713   5.000   5.855
 2432TIP3    H1 7260   3.693   4.968   5.943
 2432TIP3    H2 7261   3.690   5.093   5.857
 2433TIP3   OH2 7262   1.782   6.167   3.584
 2433TIP3    H1 7263   1.758   6.259   3.586
 2433TIP3    H2 7264   1.727   6.126   3.651
 2434TIP3   OH2 7265   6.072   6.117   2.317
 2434TIP3    H1 7266   6.083   6.211   2.308
 2434TIP3    H2 7267   6.001   6.094   2.258
 2435TIP3   OH2 7268   1.604   6.590   2.584
 2435TIP3    H1 7269   1.597   6.535   2.662
 2435TIP3    H2 7270   1.514   6.613   2.563
 2436TIP3   OH2 7271   6.910   1.662   5.579
 2436TIP3    H1 7272   6.947   1.577   5.602
 2436TIP3    H2 7273   6.824   1.664   5.621
 2437TIP3   OH2 7274   3.863   0.870   1.965
 2437TIP3    H1 7275   3.781   0.833   1.996
 2437TIP3    H2 7276   3.906   0.902   2.044
 2438TIP3   OH2 7277   4.313   5.556   4.412
 2438TIP3    H1 7278   4.268   5.482   4.455
 2438TIP3    H2 7279   4.288   5.548   4.320
 2439TIP3   OH2 7280   1.480   5.288   3.110
 2439TIP3    H1 7281   1.476   5.381   3.087
 2439TIP3    H2 7282   1.490   5.244   3.026
 2440TIP3   OH2 7283   4.167   1.417   5.098
 2440TIP3    H1 7284   4.175   1.503   5.058
 2440TIP3    H2 7285   4.159   1.434   5.192
 2441TIP3   OH2 7286   1.993   3.665   4.787
 2441TIP3    H1 7287   1.967   3.718   4.711
 2441TIP3    H2 7288   1.913   3.622   4.816
 2442TIP3   OH2 7289   6.903   2.046   4.713
 2442TIP3    H1 7290   6.971   2.082   4.656
 2442TIP3    H2 7291   6.897   1.954   4.689
 2443TIP3   OH2 7292   5.502   1.216   0.421
 2443TIP3    H1 7293   5.463   1.141   0.376
 2443TIP3    H2 7294   5.569   1.249   0.360
 2444TIP3   OH2 7295   1.894   4.310   1.581
 2444TIP3    H1 7296   1.854   4.385   1.536
 2444TIP3    H2 7297   1.822   4.249   1.595
 2445TIP3   OH2 7298   1.623   2.312   0.482
 2445TIP3    H1 7299   1.555   2.361   0.437
 2445TIP3    H2 7300   1.704   2.333   0.434
 2446TIP3   OH2 7301   6.255   3.206   5.149
 2446TIP3    H1 7302   6.312   3.260   5.094
 2446TIP3    H2 7303   6.168   3.214   5.109
 2447TIP3   OH2 7304   0.012   0.681   1.518
 2447TIP3    H1 7305   0.038   0.704   1.428
 2447TIP3    H2 7306  -0.069   0.633   1.509
 2448TIP3   OH2 7307   4.407   6.736   4.462
 2448TIP3    H1 7308   4.312   6.733   4.454
 2448TIP3    H2 7309   4.424   6.789   4.540
 2449TIP3   OH2 7310   4.020   0.149   3.341
 2449TIP3    H1 7311   4.092   0.106   3.294
 2449TIP3    H2 7312   4.058   0.229   3.377
 2450TIP3   OH2 7313   2.099   6.303   2.551
 2450TIP3    H1 7314   2.020   6.318   2.499
 2450TIP3    H2 7315   2.128   6.390   2.577
 2451TIP3   OH2 7316   1.712   1.426   3.369
 2451TIP3    H1 7317   1.727   1.376   3.449
 2451TIP3    H2 7318   1.682   1.512   3.399
 2452TIP3   OH2 7319   6.157   2.230   0.989
 2452TIP3    H1 7320   6.243   2.202   1.020
 2452TIP3    H2 7321   6.102   2.229   1.068
 2453TIP3   OH2 7322   6.943   3.067   0.855
 2453TIP3    H1 7323   7.032   3.100   0.868
 2453TIP3    H2 7324   6.889   3.121   0.912
 2454TIP3   OH2 7325   5.866   0.410   5.465
 2454TIP3    H1 7326   5.903   0.327   5.495
 2454TIP3    H2 7327   5.776   0.410   5.497
 2455TIP3   OH2 7328   4.972   0.007   0.516
 2455TIP3    H1 7329   4.913   0.008   0.441
 2455TIP3    H2 7330   4.917   0.031   0.591
 2456TIP3   OH2 7331   0.210   0.695   3.238
 2456TIP3    H1 7332   0.245   0.664   3.322
 2456TIP3    H2 7333   0.280   0.677   3.175
 2457TIP3   OH2 7334   3.643   0.601   4.573
 2457TIP3    H1 7335   3.594   0.599   4.491
 2457TIP3    H2 7336   3.614   0.680   4.617
 2458TIP3   OH2 7337   4.717   2.437   4.311
 2458TIP3    H1 7338   4.771   2.459   4.387
 2458TIP3    H2 7339   4.677   2.519   4.284
 2459TIP3   OH2 7340   3.197   6.482   3.225
 2459TIP3    H1 7341   3.140   6.534   3.169
 2459TIP3    H2 7342   3.163   6.393   3.217
 2460TIP3   OH2 7343   4.371   3.754   2.147
 2460TIP3    H1 7344   4.334   3.709   2.071
 2460TIP3    H2 7345   4.368   3.688   2.217
 2461TIP3   OH2 7346   6.397   6.058   2.072
 2461TIP3    H1 7347   6.307   6.043   2.102
 2461TIP3    H2 7348   6.452   6.025   2.142
 2462TIP3   OH2 7349   4.755   6.178   0.628
 2462TIP3    H1 7350   4.727   6.123   0.700
 2462TIP3    H2 7351   4.828   6.131   0.587
 2463TIP3   OH2 7352   3.427   1.049   0.208
 2463TIP3    H1 7353   3.488   0.975   0.203
 2463TIP3    H2 7354   3.483   1.126   0.215
 2464TIP3   OH2 7355   0.893   6.545   3.499
 2464TIP3    H1 7356   0.978   6.587   3.500
 2464TIP3    H2 7357   0.849   6.580   3.421
 2465TIP3   OH2 7358   0.526   6.519   3.982
 2465TIP3    H1 7359   0.540   6.572   4.060
 2465TIP3    H2 7360   0.563   6.571   3.910
 2466TIP3   OH2 7361   6.000   4.081   3.701
 2466TIP3    H1 7362   5.982   4.017   3.770
 2466TIP3    H2 7363   5.940   4.154   3.720
 2467TIP3   OH2 7364   1.199   3.483   1.106
 2467TIP3    H1 7365   1.273   3.544   1.112
 2467TIP3    H2 7366   1.229   3.404   1.151
 2468TIP3   OH2 7367   5.126   4.953   1.260
 2468TIP3    H1 7368   5.112   4.960   1.354
 2468TIP3    H2 7369   5.038   4.956   1.222
 2469TIP3   OH2 7370   3.379   3.236   3.224
 2469TIP3    H1 7371   3.325   3.223   3.301
 2469TIP3    H2 7372   3.419   3.151   3.207
 2470TIP3   OH2 7373   0.629   5.548   4.349
 2470TIP3    H1 7374   0.717   5.547   4.312
 2470TIP3    H2 7375   0.571   5.560   4.273
 2471TIP3   OH2 7376   6.124   2.783   2.249
 2471TIP3    H1 7377   6.063   2.768   2.177
 2471TIP3    H2 7378   6.190   2.714   2.239
 2472TIP3   OH2 7379   1.579   6.718   1.456
 2472TIP3    H1 7380   1.668   6.724   1.420
 2472TIP3    H2 7381   1.556   6.808   1.480
 2473TIP3   OH2 7382   6.170   2.464   2.424
 2473TIP3    H1 7383   6.243   2.494   2.371
 2473TIP3    H2 7384   6.167   2.524   2.498
 2474TIP3   OH2 7385   5.294   1.773   2.200
 2474TIP3    H1 7386   5.354   1.723   2.145
 2474TIP3    H2 7387   5.294   1.727   2.284
 2475TIP3   OH2 7388   4.239   3.355   2.079
 2475TIP3    H1 7389   4.229   3.270   2.036
 2475TIP3    H2 7390   4.273   3.333   2.166
 2476TIP3   OH2 7391   4.985   1.026   1.157
 2476TIP3    H1 7392   4.980   0.993   1.067
 2476TIP3    H2 7393   4.896   1.023   1.189
 2477TIP3   OH2 7394   7.084   0.752   4.177
 2477TIP3    H1 7395   7.047   0.693   4.112
 2477TIP3    H2 7396   7.027   0.829   4.176
 2478TIP3   OH2 7397   2.378   0.675   0.676
 2478TIP3    H1 7398   2.290   0.677   0.713
 2478TIP3    H2 7399   2.382   0.752   0.619
 2479TIP3   OH2 7400   1.194   4.350   1.709
 2479TIP3    H1 7401   1.207   4.405   1.786
 2479TIP3    H2 7402   1.100   4.355   1.691
 2480TIP3   OH2 7403   4.680   5.327   5.910
 2480TIP3    H1 7404   4.751   5.391   5.897
 2480TIP3    H2 7405   4.678   5.278   5.828
 2481TIP3   OH2 7406   2.802   5.193   4.690
 2481TIP3    H1 7407   2.883   5.235   4.660
 2481TIP3    H2 7408   2.743   5.265   4.710
 2482TIP3   OH2 7409   7.059   1.061   4.538
 2482TIP3    H1 7410   7.117   1.084   4.465
 2482TIP3    H2 7411   7.063   1.136   4.597
 2483TIP3   OH2 7412   2.465   0.835   5.150
 2483TIP3    H1 7413   2.394   0.851   5.088
 2483TIP3    H2 7414   2.540   0.882   5.112
 2484TIP3   OH2 7415   2.818   3.214   2.795
 2484TIP3    H1 7416   2.910   3.240   2.790
 2484TIP3    H2 7417   2.819   3.133   2.845
 2485TIP3   OH2 7418   6.547   1.141   0.878
 2485TIP3    H1 7419   6.497   1.061   0.858
 2485TIP3    H2 7420   6.495   1.186   0.945
 2486TIP3   OH2 7421   2.667   3.562   1.641
 2486TIP3    H1 7422   2.714   3.488   1.602
 2486TIP3    H2 7423   2.587   3.523   1.677
 2487TIP3   OH2 7424   5.685   2.534   2.664
 2487TIP3    H1 7425   5.638   2.478   2.726
 2487TIP3    H2 7426   5.775   2.534   2.696
 2488TIP3   OH2 7427   1.505   6.212   1.560
 2488TIP3    H1 7428   1.537   6.291   1.517
 2488TIP3    H2 7429   1.468   6.160   1.489
 2489TIP3   OH2 7430  -0.042   4.738   3.040
 2489TIP3    H1 7431  -0.073   4.746   3.130
 2489TIP3    H2 7432   0.046   4.702   3.048
 2490TIP3   OH2 7433   6.882   0.338   2.918
 2490TIP3    H1 7434   6.804   0.291   2.946
 2490TIP3    H2 7435   6.852   0.428   2.904
 2491TIP3   OH2 7436   3.045   4.273   4.818
 2491TIP3    H1 7437   3.046   4.189   4.863
 2491TIP3    H2 7438   3.043   4.338   4.888
 2492TIP3   OH2 7439   2.814   3.108   3.862
 2492TIP3    H1 7440   2.737   3.052   3.866
 2492TIP3    H2 7441   2.867   3.072   3.791
 2493TIP3   OH2 7442   3.704   5.638   0.559
 2493TIP3    H1 7443   3.754   5.595   0.627
 2493TIP3    H2 7444   3.725   5.589   0.479
 2494TIP3   OH2 7445   4.568   3.355   1.329
 2494TIP3    H1 7446   4.473   3.355   1.341
 2494TIP3    H2 7447   4.582   3.408   1.250
 2495TIP3   OH2 7448   1.900   3.389   2.363
 2495TIP3    H1 7449   1.831   3.455   2.363
 2495TIP3    H2 7450   1.910   3.365   2.271
 2496TIP3   OH2 7451   4.751   6.240   2.276
 2496TIP3    H1 7452   4.686   6.195   2.330
 2496TIP3    H2 7453   4.751   6.330   2.308
 2497TIP3   OH2 7454   6.288   4.556   2.906
 2497TIP3    H1 7455   6.318   4.474   2.945
 2497TIP3    H2 7456   6.363   4.587   2.854
 2498TIP3   OH2 7457   6.224   3.947   2.441
 2498TIP3    H1 7458   6.188   4.009   2.504
 2498TIP3    H2 7459   6.181   3.968   2.358
 2499TIP3   OH2 7460   5.852   6.355   4.872
 2499TIP3    H1 7461   5.907   6.388   4.943
 2499TIP3    H2 7462   5.778   6.416   4.869
 2500TIP3   OH2 7463   1.423   5.133   2.843
 2500TIP3    H1 7464   1.481   5.191   2.794
 2500TIP3    H2 7465   1.383   5.077   2.777
 2501TIP3   OH2 7466   0.417   4.774   5.424
 2501TIP3    H1 7467   0.487   4.840   5.425
 2501TIP3    H2 7468   0.355   4.806   5.359
 2502TIP3   OH2 7469   4.514   3.020   3.604
 2502TIP3    H1 7470   4.486   2.998   3.516
 2502TIP3    H2 7471   4.607   3.041   3.596
 2503TIP3   OH2 7472   6.680   1.681   4.959
 2503TIP3    H1 7473   6.727   1.666   4.877
 2503TIP3    H2 7474   6.716   1.764   4.992
 2504TIP3   OH2 7475   5.689   5.501   5.404
 2504TIP3    H1 7476   5.723   5.518   5.317
 2504TIP3    H2 7477   5.737   5.424   5.434
 2505TIP3   OH2 7478   0.469   3.820   5.111
 2505TIP3    H1 7479   0.512   3.835   5.195
 2505TIP3    H2 7480   0.385   3.866   5.118
 2506TIP3   OH2 7481   3.701   2.143   3.513
 2506TIP3    H1 7482   3.635   2.135   3.443
 2506TIP3    H2 7483   3.649   2.153   3.593
 2507TIP3   OH2 7484   2.446   4.679   5.806
 2507TIP3    H1 7485   2.534   4.716   5.812
 2507TIP3    H2 7486   2.428   4.648   5.895
 2508TIP3   OH2 7487   1.219   5.693   2.156
 2508TIP3    H1 7488   1.219   5.693   2.252
 2508TIP3    H2 7489   1.218   5.786   2.133
 2509TIP3   OH2 7490   3.347   3.906   4.047
 2509TIP3    H1 7491   3.410   3.948   3.988
 2509TIP3    H2 7492   3.268   3.959   4.039
 2510TIP3   OH2 7493   6.439   0.059   5.642
 2510TIP3    H1 7494   6.487   0.141   5.657
 2510TIP3    H2 7495   6.348   0.086   5.629
 2511TIP3   OH2 7496   1.978   5.606   2.055
 2511TIP3    H1 7497   1.894   5.573   2.024
 2511TIP3    H2 7498   1.967   5.701   2.057
 2512TIP3   OH2 7499   1.534   3.198   5.609
 2512TIP3    H1 7500   1.541   3.114   5.564
 2512TIP3    H2 7501   1.600   3.253   5.568
 2513TIP3   OH2 7502   6.275   0.187   4.392
 2513TIP3    H1 7503   6.285   0.208   4.300
 2513TIP3    H2 7504   6.237   0.265   4.431
 2514TIP3   OH2 7505   5.465   0.499   0.014
 2514TIP3    H1 7506   5.536   0.502   0.079
 2514TIP3    H2 7507   5.482   0.573  -0.044
 2515TIP3   OH2 7508   3.816   6.566   2.474
 2515TIP3    H1 7509   3.859   6.554   2.558
 2515TIP3    H2 7510   3.887   6.591   2.414
 2516TIP3   OH2 7511   4.257   4.171   3.616
 2516TIP3    H1 7512   4.216   4.095   3.657
 2516TIP3    H2 7513   4.200   4.192   3.542
 2517TIP3   OH2 7514   2.965   1.364   3.065
 2517TIP3    H1 7515   3.032   1.319   3.116
 2517TIP3    H2 7516   2.967   1.455   3.098
 2518TIP3   OH2 7517   3.941   5.275   1.480
 2518TIP3    H1 7518   3.975   5.311   1.399
 2518TIP3    H2 7519   3.997   5.199   1.498
 2519TIP3   OH2 7520   3.494   2.099   3.319
 2519TIP3    H1 7521   3.531   2.113   3.233
 2519TIP3    H2 7522   3.490   2.004   3.328
 2520TIP3   OH2 7523   5.957   1.538   4.253
 2520TIP3    H1 7524   6.047   1.555   4.226
 2520TIP3    H2 7525   5.965   1.482   4.330
 2521TIP3   OH2 7526   3.521   4.213   2.104
 2521TIP3    H1 7527   3.502   4.228   2.011
 2521TIP3    H2 7528   3.457   4.148   2.131
 2522TIP3   OH2 7529   4.839   4.123   4.891
 2522TIP3    H1 7530   4.880   4.094   4.973
 2522TIP3    H2 7531   4.753   4.155   4.919
 2523TIP3   OH2 7532   5.366   5.027   5.756
 2523TIP3    H1 7533   5.436   5.053   5.815
 2523TIP3    H2 7534   5.320   5.108   5.736
 2524TIP3   OH2 7535   6.941   4.207   2.472
 2524TIP3    H1 7536   7.011   4.216   2.536
 2524TIP3    H2 7537   6.860   4.214   2.523
 2525TIP3   OH2 7538   2.086   5.156   5.541
 2525TIP3    H1 7539   2.147   5.126   5.474
 2525TIP3    H2 7540   2.128   5.133   5.624
 2526TIP3   OH2 7541   0.119   3.907   4.071
 2526TIP3    H1 7542   0.060   3.834   4.086
 2526TIP3    H2 7543   0.069   3.967   4.016
 2527TIP3   OH2 7544   2.043   0.475   5.196
 2527TIP3    H1 7545   2.059   0.383   5.172
 2527TIP3    H2 7546   1.981   0.506   5.130
 2528TIP3   OH2 7547   0.853   0.221   2.918
 2528TIP3    H1 7548   0.908   0.292   2.950
 2528TIP3    H2 7549   0.913   0.165   2.868
 2529TIP3   OH2 7550   3.879   0.608   1.862
 2529TIP3    H1 7551   3.954   0.582   1.809
 2529TIP3    H2 7552   3.906   0.691   1.902
 2530TIP3   OH2 7553   0.338   3.449   5.459
 2530TIP3    H1 7554   0.305   3.514   5.396
 2530TIP3    H2 7555   0.342   3.496   5.542
 2531TIP3   OH2 7556   6.110   5.867   5.585
 2531TIP3    H1 7557   6.122   5.939   5.647
 2531TIP3    H2 7558   6.175   5.882   5.517
 2532TIP3   OH2 7559   4.356   4.014   3.233
 2532TIP3    H1 7560   4.404   4.052   3.306
 2532TIP3    H2 7561   4.406   3.935   3.210
 2533TIP3   OH2 7562   4.034   5.000   0.049
 2533TIP3    H1 7563   4.051   5.079   0.101
 2533TIP3    H2 7564   4.080   5.015  -0.033
 2534TIP3   OH2 7565   6.957   5.087   3.431
 2534TIP3    H1 7566   6.885   5.052   3.483
 2534TIP3    H2 7567   6.916   5.118   3.350
 2535TIP3   OH2 7568   1.752   1.252   3.585
 2535TIP3    H1 7569   1.747   1.166   3.544
 2535TIP3    H2 7570   1.832   1.250   3.637
 2536TIP3   OH2 7571   1.163   5.066   4.217
 2536TIP3    H1 7572   1.239   5.111   4.253
 2536TIP3    H2 7573   1.113   5.134   4.171
 2537TIP3   OH2 7574   1.907   2.634   1.680
 2537TIP3    H1 7575   1.812   2.641   1.674
 2537TIP3    H2 7576   1.938   2.725   1.688
 2538TIP3   OH2 7577   5.952   1.602   0.465
 2538TIP3    H1 7578   5.916   1.651   0.391
 2538TIP3    H2 7579   5.885   1.535   0.484
 2539TIP3   OH2 7580   6.691   3.310   5.608
 2539TIP3    H1 7581   6.710   3.327   5.700
 2539TIP3    H2 7582   6.597   3.293   5.605
 2540TIP3   OH2 7583   2.037   4.682   4.379
 2540TIP3    H1 7584   2.118   4.705   4.423
 2540TIP3    H2 7585   2.065   4.636   4.300
 2541TIP3   OH2 7586   3.011   0.987   3.074
 2541TIP3    H1 7587   2.971   1.044   3.139
 2541TIP3    H2 7588   3.104   0.986   3.097
 2542TIP3   OH2 7589   5.515   5.318   5.862
 2542TIP3    H1 7590   5.583   5.381   5.840
 2542TIP3    H2 7591   5.540   5.284   5.948
 2543TIP3   OH2 7592   4.749   3.483   0.682
 2543TIP3    H1 7593   4.663   3.492   0.642
 2543TIP3    H2 7594   4.751   3.393   0.715
 2544TIP3   OH2 7595   1.254   6.734   1.323
 2544TIP3    H1 7596   1.267   6.663   1.261
 2544TIP3    H2 7597   1.205   6.695   1.395
 2545TIP3   OH2 7598   2.145   3.327   1.464
 2545TIP3    H1 7599   2.150   3.364   1.552
 2545TIP3    H2 7600   2.143   3.403   1.406
 2546TIP3   OH2 7601   3.721   3.744   4.515
 2546TIP3    H1 7602   3.743   3.781   4.430
 2546TIP3    H2 7603   3.761   3.804   4.578
 2547TIP3   OH2 7604   3.930   5.336   1.801
 2547TIP3    H1 7605   4.010   5.289   1.823
 2547TIP3    H2 7606   3.953   5.388   1.724
 2548TIP3   OH2 7607   0.029   3.973   1.380
 2548TIP3    H1 7608   0.020   3.963   1.285
 2548TIP3    H2 7609   0.024   4.067   1.395
 2549TIP3   OH2 7610   6.254   2.059   4.591
 2549TIP3    H1 7611   6.342   2.088   4.565
 2549TIP3    H2 7612   6.270   1.980   4.643
 2550TIP3   OH2 7613   5.695   3.283   4.358
 2550TIP3    H1 7614   5.729   3.252   4.274
 2550TIP3    H2 7615   5.763   3.341   4.391
 2551TIP3   OH2 7616   3.700   6.610   1.007
 2551TIP3    H1 7617   3.688   6.522   0.971
 2551TIP3    H2 7618   3.792   6.631   0.991
 2552TIP3   OH2 7619   3.666   2.082   3.088
 2552TIP3    H1 7620   3.703   2.017   3.028
 2552TIP3    H2 7621   3.634   2.152   3.031
 2553TIP3   OH2 7622   3.219   3.725   2.215
 2553TIP3    H1 7623   3.144   3.675   2.248
 2553TIP3    H2 7624   3.187   3.815   2.207
 2554TIP3   OH2 7625   1.608   0.460   2.027
 2554TIP3    H1 7626   1.680   0.412   1.985
 2554TIP3    H2 7627   1.648   0.541   2.057
 2555TIP3   OH2 7628   5.103   1.616   4.564
 2555TIP3    H1 7629   5.035   1.617   4.630
 2555TIP3    H2 7630   5.151   1.699   4.577
 2556TIP3   OH2 7631   0.953   4.067   0.652
 2556TIP3    H1 7632   0.874   4.015   0.664
 2556TIP3    H2 7633   0.922   4.158   0.653
 2557TIP3   OH2 7634   2.844   0.897   1.225
 2557TIP3    H1 7635   2.937   0.914   1.214
 2557TIP3    H2 7636   2.823   0.933   1.311
 2558TIP3   OH2 7637   4.369   4.359   1.219
 2558TIP3    H1 7638   4.363   4.350   1.124
 2558TIP3    H2 7639   4.360   4.269   1.252
 2559TIP3   OH2 7640   5.024   4.299   3.487
 2559TIP3    H1 7641   4.948   4.314   3.544
 2559TIP3    H2 7642   5.015   4.366   3.419
 2560TIP3   OH2 7643   5.368   1.377   3.550
 2560TIP3    H1 7644   5.455   1.384   3.589
 2560TIP3    H2 7645   5.358   1.456   3.497
 2561TIP3   OH2 7646   6.070   6.455   0.427
 2561TIP3    H1 7647   6.131   6.475   0.357
 2561TIP3    H2 7648   5.984   6.452   0.384
 2562TIP3   OH2 7649   0.170   1.407   4.180
 2562TIP3    H1 7650   0.091   1.459   4.168
 2562TIP3    H2 7651   0.242   1.467   4.163
 2563TIP3   OH2 7652   6.123   2.027   4.886
 2563TIP3    H1 7653   6.171   2.095   4.839
 2563TIP3    H2 7654   6.067   2.074   4.947
 2564TIP3   OH2 7655   0.649   5.643   0.265
 2564TIP3    H1 7656   0.558   5.658   0.243
 2564TIP3    H2 7657   0.678   5.725   0.305
 2565TIP3   OH2 7658   2.919   5.079   0.924
 2565TIP3    H1 7659   2.942   5.171   0.913
 2565TIP3    H2 7660   2.824   5.080   0.938
 2566TIP3   OH2 7661   5.478   1.636   2.627
 2566TIP3    H1 7662   5.545   1.627   2.560
 2566TIP3    H2 7663   5.396   1.646   2.578
 2567TIP3   OH2 7664   6.802   6.845   4.387
 2567TIP3    H1 7665   6.758   6.912   4.335
 2567TIP3    H2 7666   6.741   6.824   4.457
 2568TIP3   OH2 7667   2.597   0.058   5.816
 2568TIP3    H1 7668   2.580   0.041   5.723
 2568TIP3    H2 7669   2.591  -0.028   5.857
 2569TIP3   OH2 7670   6.787   2.981   2.295
 2569TIP3    H1 7671   6.755   3.053   2.240
 2569TIP3    H2 7672   6.708   2.939   2.328
 2570TIP3   OH2 7673   6.175   2.985   0.784
 2570TIP3    H1 7674   6.158   3.019   0.696
 2570TIP3    H2 7675   6.168   2.890   0.776
 2571TIP3   OH2 7676   4.509   6.602   1.503
 2571TIP3    H1 7677   4.431   6.574   1.551
 2571TIP3    H2 7678   4.559   6.521   1.491
 2572TIP3   OH2 7679   1.353   2.493   3.876
 2572TIP3    H1 7680   1.287   2.543   3.829
 2572TIP3    H2 7681   1.373   2.547   3.953
 2573TIP3   OH2 7682   3.887   2.383   3.893
 2573TIP3    H1 7683   3.878   2.451   3.960
 2573TIP3    H2 7684   3.919   2.307   3.942
 2574TIP3   OH2 7685   3.956   3.787   0.620
 2574TIP3    H1 7686   3.938   3.748   0.534
 2574TIP3    H2 7687   3.925   3.877   0.613
 2575TIP3   OH2 7688   7.043   3.548   2.192
 2575TIP3    H1 7689   7.027   3.484   2.124
 2575TIP3    H2 7690   7.007   3.508   2.272
 2576TIP3   OH2 7691   0.432   6.693   0.620
 2576TIP3    H1 7692   0.454   6.748   0.695
 2576TIP3    H2 7693   0.386   6.618   0.658
 2577TIP3   OH2 7694   0.824   5.994   3.115
 2577TIP3    H1 7695   0.843   5.984   3.022
 2577TIP3    H2 7696   0.816   5.904   3.147
 2578TIP3   OH2 7697   0.880   3.398   3.112
 2578TIP3    H1 7698   0.822   3.439   3.048
 2578TIP3    H2 7699   0.883   3.459   3.185
 2579TIP3   OH2 7700   3.389   2.474   3.674
 2579TIP3    H1 7701   3.339   2.541   3.628
 2579TIP3    H2 7702   3.418   2.414   3.605
 2580TIP3   OH2 7703   0.816   4.588   0.490
 2580TIP3    H1 7704   0.769   4.640   0.425
 2580TIP3    H2 7705   0.843   4.651   0.556
 2581TIP3   OH2 7706   2.390   2.566   3.170
 2581TIP3    H1 7707   2.462   2.524   3.122
 2581TIP3    H2 7708   2.357   2.498   3.229
 2582TIP3   OH2 7709   6.124   5.585   5.250
 2582TIP3    H1 7710   6.081   5.625   5.326
 2582TIP3    H2 7711   6.159   5.659   5.201
 2583TIP3   OH2 7712   3.466   1.981   4.452
 2583TIP3    H1 7713   3.397   1.917   4.467
 2583TIP3    H2 7714   3.543   1.943   4.494
 2584TIP3   OH2 7715   5.317   0.190   1.556
 2584TIP3    H1 7716   5.344   0.098   1.545
 2584TIP3    H2 7717   5.280   0.193   1.644
 2585TIP3   OH2 7718   1.377   5.150   3.332
 2585TIP3    H1 7719   1.400   5.173   3.242
 2585TIP3    H2 7720   1.322   5.223   3.362
 2586TIP3   OH2 7721   2.917   3.946   5.421
 2586TIP3    H1 7722   2.868   4.028   5.422
 2586TIP3    H2 7723   2.908   3.912   5.509
 2587TIP3   OH2 7724   2.535   0.296   2.481
 2587TIP3    H1 7725   2.557   0.336   2.565
 2587TIP3    H2 7726   2.515   0.369   2.423
 2588TIP3   OH2 7727   4.290   1.267   1.285
 2588TIP3    H1 7728   4.278   1.179   1.252
 2588TIP3    H2 7729   4.302   1.321   1.207
 2589TIP3   OH2 7730   0.079   6.523   0.054
 2589TIP3    H1 7731   0.035   6.479  -0.019
 2589TIP3    H2 7732   0.164   6.479   0.061
 2590TIP3   OH2 7733   3.229   0.424   1.824
 2590TIP3    H1 7734   3.294   0.403   1.757
 2590TIP3    H2 7735   3.152   0.372   1.800
 2591TIP3   OH2 7736   0.036   3.746   1.175
 2591TIP3    H1 7737   0.101   3.755   1.245
 2591TIP3    H2 7738  -0.019   3.674   1.203
 2592TIP3   OH2 7739   4.744   3.973   3.839
 2592TIP3    H1 7740   4.689   3.902   3.873
 2592TIP3    H2 7741   4.759   4.030   3.915
 2593TIP3   OH2 7742   1.148   0.682   1.186
 2593TIP3    H1 7743   1.177   0.765   1.224
 2593TIP3    H2 7744   1.103   0.636   1.257
 2594TIP3   OH2 7745   5.141   1.069   5.795
 2594TIP3    H1 7746   5.231   1.058   5.825
 2594TIP3    H2 7747   5.087   1.046   5.870
 2595TIP3   OH2 7748   6.374   3.905   0.837
 2595TIP3    H1 7749   6.355   3.973   0.901
 2595TIP3    H2 7750   6.329   3.827   0.870
 2596TIP3   OH2 7751   5.033   3.207   5.373
 2596TIP3    H1 7752   5.011   3.300   5.371
 2596TIP3    H2 7753   4.951   3.164   5.397
 2597TIP3   OH2 7754   3.429   1.982   4.159
 2597TIP3    H1 7755   3.428   1.922   4.234
 2597TIP3    H2 7756   3.415   2.069   4.199
 2598TIP3   OH2 7757   3.036   2.554   5.064
 2598TIP3    H1 7758   3.087   2.548   4.984
 2598TIP3    H2 7759   2.953   2.511   5.043
 2599TIP3   OH2 7760   4.275   3.637   0.493
 2599TIP3    H1 7761   4.278   3.553   0.448
 2599TIP3    H2 7762   4.262   3.702   0.424
 2600TIP3   OH2 7763   3.085   4.118   0.923
 2600TIP3    H1 7764   2.991   4.133   0.921
 2600TIP3    H2 7765   3.116   4.149   0.838
 2601TIP3   OH2 7766   3.081   4.648   1.531
 2601TIP3    H1 7767   3.106   4.697   1.453
 2601TIP3    H2 7768   3.073   4.558   1.501
 2602TIP3   OH2 7769   3.295   0.178   4.347
 2602TIP3    H1 7770   3.319   0.193   4.256
 2602TIP3    H2 7771   3.282   0.265   4.383
 2603TIP3   OH2 7772   4.691   2.019   5.076
 2603TIP3    H1 7773   4.696   1.937   5.126
 2603TIP3    H2 7774   4.783   2.042   5.061
 2604TIP3   OH2 7775   2.462   0.589   1.914
 2604TIP3    H1 7776   2.538   0.646   1.904
 2604TIP3    H2 7777   2.455   0.543   1.831
 2605TIP3   OH2 7778   2.437   0.159   3.556
 2605TIP3    H1 7779   2.500   0.185   3.489
 2605TIP3    H2 7780   2.405   0.073   3.528
 2606TIP3   OH2 7781   6.311   5.831   0.874
 2606TIP3    H1 7782   6.243   5.836   0.942
 2606TIP3    H2 7783   6.391   5.858   0.919
 2607TIP3   OH2 7784   6.671   4.841   1.516
 2607TIP3    H1 7785   6.590   4.871   1.474
 2607TIP3    H2 7786   6.672   4.747   1.502
 2608TIP3   OH2 7787   0.853   5.068   0.825
 2608TIP3    H1 7788   0.775   5.124   0.827
 2608TIP3    H2 7789   0.906   5.098   0.899
 2609TIP3   OH2 7790   2.837   0.126   2.956
 2609TIP3    H1 7791   2.918   0.177   2.961
 2609TIP3    H2 7792   2.775   0.174   3.011
 2610TIP3   OH2 7793   3.415   2.283   2.979
 2610TIP3    H1 7794   3.450   2.356   3.030
 2610TIP3    H2 7795   3.339   2.254   3.029
 2611TIP3   OH2 7796   6.174   4.679   5.830
 2611TIP3    H1 7797   6.180   4.590   5.865
 2611TIP3    H2 7798   6.228   4.677   5.751
 2612TIP3   OH2 7799   4.541   3.332   1.759
 2612TIP3    H1 7800   4.520   3.389   1.684
 2612TIP3    H2 7801   4.600   3.385   1.812
 2613TIP3   OH2 7802   5.266   5.556   3.215
 2613TIP3    H1 7803   5.324   5.482   3.232
 2613TIP3    H2 7804   5.320   5.620   3.169
 2614TIP3   OH2 7805   2.819   0.702   3.551
 2614TIP3    H1 7806   2.871   0.694   3.471
 2614TIP3    H2 7807   2.787   0.792   3.550
 2615TIP3   OH2 7808   4.057   4.348   2.660
 2615TIP3    H1 7809   4.132   4.401   2.687
 2615TIP3    H2 7810   4.097   4.270   2.621
 2616TIP3   OH2 7811   6.725   0.819   4.752
 2616TIP3    H1 7812   6.735   0.901   4.801
 2616TIP3    H2 7813   6.807   0.810   4.703
 2617TIP3   OH2 7814   6.397   1.526   1.493
 2617TIP3    H1 7815   6.435   1.575   1.420
 2617TIP3    H2 7816   6.303   1.530   1.479
 2618TIP3   OH2 7817   5.817   3.664   4.624
 2618TIP3    H1 7818   5.900   3.646   4.580
 2618TIP3    H2 7819   5.768   3.583   4.617
 2619TIP3   OH2 7820   1.121   0.291   3.596
 2619TIP3    H1 7821   1.203   0.252   3.626
 2619TIP3    H2 7822   1.147   0.372   3.554
 2620TIP3   OH2 7823   6.020   2.049   0.803
 2620TIP3    H1 7824   6.103   2.050   0.757
 2620TIP3    H2 7825   6.043   2.063   0.895
 2621TIP3   OH2 7826   3.033   5.332   0.907
 2621TIP3    H1 7827   3.028   5.349   0.813
 2621TIP3    H2 7828   3.011   5.416   0.948
 2622TIP3   OH2 7829   5.887   3.713   4.303
 2622TIP3    H1 7830   5.869   3.805   4.317
 2622TIP3    H2 7831   5.824   3.686   4.235
 2623TIP3   OH2 7832   1.585   2.588   0.056
 2623TIP3    H1 7833   1.561   2.680   0.062
 2623TIP3    H2 7834   1.555   2.549   0.138
 2624TIP3   OH2 7835   2.743   5.484   4.306
 2624TIP3    H1 7836   2.653   5.515   4.307
 2624TIP3    H2 7837   2.774   5.501   4.218
 2625TIP3   OH2 7838   5.462   3.635   3.340
 2625TIP3    H1 7839   5.499   3.706   3.392
 2625TIP3    H2 7840   5.368   3.638   3.359
 2626TIP3   OH2 7841   5.671   3.363   0.517
 2626TIP3    H1 7842   5.745   3.345   0.458
 2626TIP3    H2 7843   5.624   3.436   0.475
 2627TIP3   OH2 7844   2.038   5.740   2.484
 2627TIP3    H1 7845   1.987   5.740   2.564
 2627TIP3    H2 7846   2.076   5.828   2.480
 2628TIP3   OH2 7847   0.838   6.163   1.103
 2628TIP3    H1 7848   0.773   6.132   1.167
 2628TIP3    H2 7849   0.817   6.256   1.092
 2629TIP3   OH2 7850   0.942   5.243   1.006
 2629TIP3    H1 7851   1.020   5.216   1.054
 2629TIP3    H2 7852   0.879   5.267   1.073
 2630TIP3   OH2 7853   3.646   3.341   5.027
 2630TIP3    H1 7854   3.559   3.331   5.066
 2630TIP3    H2 7855   3.629   3.368   4.937
 2631TIP3   OH2 7856   1.191   5.791   5.516
 2631TIP3    H1 7857   1.121   5.754   5.570
 2631TIP3    H2 7858   1.154   5.797   5.429
 2632TIP3   OH2 7859   5.367   0.931   4.162
 2632TIP3    H1 7860   5.405   0.849   4.131
 2632TIP3    H2 7861   5.411   0.949   4.245
 2633TIP3   OH2 7862   3.888   6.669   1.769
 2633TIP3    H1 7863   3.933   6.715   1.698
 2633TIP3    H2 7864   3.946   6.679   1.844
 2634TIP3   OH2 7865   4.025   4.134   3.890
 2634TIP3    H1 7866   4.000   4.046   3.917
 2634TIP3    H2 7867   4.055   4.176   3.971
 2635TIP3   OH2 7868   2.178   6.552   2.626
 2635TIP3    H1 7869   2.273   6.539   2.626
 2635TIP3    H2 7870   2.165   6.630   2.572
 2636TIP3   OH2 7871   1.029   2.180   2.172
 2636TIP3    H1 7872   1.068   2.106   2.219
 2636TIP3    H2 7873   0.964   2.215   2.232
 2637TIP3   OH2 7874   6.552   4.064   3.955
 2637TIP3    H1 7875   6.556   3.982   4.006
 2637TIP3    H2 7876   6.529   4.036   3.866
 2638TIP3   OH2 7877   6.173   6.133   3.595
 2638TIP3    H1 7878   6.233   6.207   3.597
 2638TIP3    H2 7879   6.163   6.111   3.503
 2639TIP3   OH2 7880   6.518   0.436   1.998
 2639TIP3    H1 7881   6.459   0.429   1.923
 2639TIP3    H2 7882   6.522   0.530   2.017
 2640TIP3   OH2 7883   7.006   3.355   4.939
 2640TIP3    H1 7884   6.917   3.323   4.952
 2640TIP3    H2 7885   7.015   3.427   5.001
 2641TIP3   OH2 7886   7.111   4.565   0.150
 2641TIP3    H1 7887   7.170   4.639   0.134
 2641TIP3    H2 7888   7.153   4.491   0.107
 2642TIP3   OH2 7889   2.831   4.103   5.865
 2642TIP3    H1 7890   2.845   4.025   5.811
 2642TIP3    H2 7891   2.885   4.170   5.823
 2643TIP3   OH2 7892   5.612   4.853   2.061
 2643TIP3    H1 7893   5.658   4.933   2.037
 2643TIP3    H2 7894   5.560   4.831   1.984
 2644TIP3   OH2 7895   5.447   1.990   3.590
 2644TIP3    H1 7896   5.378   1.934   3.625
 2644TIP3    H2 7897   5.415   2.016   3.504
 2645TIP3   OH2 7898   0.585   1.317   0.683
 2645TIP3    H1 7899   0.621   1.403   0.660
 2645TIP3    H2 7900   0.493   1.334   0.702
 2646TIP3   OH2 7901   3.347   2.786   1.340
 2646TIP3    H1 7902   3.327   2.875   1.308
 2646TIP3    H2 7903   3.378   2.740   1.262
 2647TIP3   OH2 7904   2.460   5.246   0.897
 2647TIP3    H1 7905   2.500   5.332   0.899
 2647TIP3    H2 7906   2.367   5.262   0.915
 2648TIP3   OH2 7907   1.147   0.064   1.414
 2648TIP3    H1 7908   1.215   0.015   1.460
 2648TIP3    H2 7909   1.178   0.069   1.323
 2649TIP3   OH2 7910   6.682   6.614   2.429
 2649TIP3    H1 7911   6.741   6.581   2.362
 2649TIP3    H2 7912   6.599   6.568   2.413
 2650TIP3   OH2 7913   2.937   4.757   5.178
 2650TIP3    H1 7914   2.959   4.819   5.247
 2650TIP3    H2 7915   2.848   4.782   5.152
 2651TIP3   OH2 7916   3.050   4.484   3.183
 2651TIP3    H1 7917   2.989   4.557   3.173
 2651TIP3    H2 7918   3.136   4.526   3.191
 2652TIP3   OH2 7919   3.934   1.459   4.950
 2652TIP3    H1 7920   3.895   1.416   4.874
 2652TIP3    H2 7921   3.932   1.393   5.020
 2653TIP3   OH2 7922   4.766   0.621   1.936
 2653TIP3    H1 7923   4.698   0.686   1.916
 2653TIP3    H2 7924   4.748   0.595   2.026
 2654TIP3   OH2 7925   1.249   0.041   0.304
 2654TIP3    H1 7926   1.260   0.128   0.341
 2654TIP3    H2 7927   1.317   0.035   0.237
 2655TIP3   OH2 7928   0.672   3.516   4.559
 2655TIP3    H1 7929   0.701   3.605   4.581
 2655TIP3    H2 7930   0.735   3.486   4.493
 2656TIP3   OH2 7931   1.036   5.241   1.874
 2656TIP3    H1 7932   1.115   5.209   1.918
 2656TIP3    H2 7933   0.963   5.199   1.921
 2657TIP3   OH2 7934   4.471   0.660   5.224
 2657TIP3    H1 7935   4.393   0.646   5.278
 2657TIP3    H2 7936   4.437   0.678   5.137
 2658TIP3   OH2 7937   6.899   0.871   2.745
 2658TIP3    H1 7938   6.862   0.855   2.832
 2658TIP3    H2 7939   6.975   0.927   2.762
 2659TIP3   OH2 7940   6.861   5.440   0.551
 2659TIP3    H1 7941   6.932   5.496   0.582
 2659TIP3    H2 7942   6.904   5.379   0.491
 2660TIP3   OH2 7943   5.767   2.744   4.579
 2660TIP3    H1 7944   5.715   2.744   4.498
 2660TIP3    H2 7945   5.842   2.800   4.559
 2661TIP3   OH2 7946   4.677   1.031   0.274
 2661TIP3    H1 7947   4.636   0.954   0.313
 2661TIP3    H2 7948   4.765   1.035   0.313
 2662TIP3   OH2 7949   5.452   0.663   2.739
 2662TIP3    H1 7950   5.471   0.757   2.737
 2662TIP3    H2 7951   5.449   0.641   2.832
 2663TIP3   OH2 7952   3.729   5.627   3.046
 2663TIP3    H1 7953   3.727   5.533   3.068
 2663TIP3    H2 7954   3.637   5.650   3.033
 2664TIP3   OH2 7955   5.624   2.750   0.449
 2664TIP3    H1 7956   5.542   2.750   0.498
 2664TIP3    H2 7957   5.692   2.756   0.515
 2665TIP3   OH2 7958   2.242   3.770   4.846
 2665TIP3    H1 7959   2.161   3.722   4.826
 2665TIP3    H2 7960   2.230   3.803   4.935
 2666TIP3   OH2 7961   3.665   6.151   5.010
 2666TIP3    H1 7962   3.587   6.200   5.035
 2666TIP3    H2 7963   3.691   6.104   5.089
 2667TIP3   OH2 7964   3.702   0.494   4.276
 2667TIP3    H1 7965   3.664   0.452   4.198
 2667TIP3    H2 7966   3.669   0.583   4.272
 2668TIP3   OH2 7967   6.141   3.792   2.895
 2668TIP3    H1 7968   6.111   3.705   2.922
 2668TIP3    H2 7969   6.061   3.843   2.887
 2669TIP3   OH2 7970   5.738   2.444   1.522
 2669TIP3    H1 7971   5.731   2.495   1.603
 2669TIP3    H2 7972   5.791   2.500   1.464
 2670TIP3   OH2 7973   2.766   5.353   1.039
 2670TIP3    H1 7974   2.828   5.425   1.048
 2670TIP3    H2 7975   2.711   5.377   0.965
 2671TIP3   OH2 7976   1.745   2.890   2.528
 2671TIP3    H1 7977   1.723   2.973   2.570
 2671TIP3    H2 7978   1.839   2.897   2.508
 2672TIP3   OH2 7979   3.445   1.358   4.852
 2672TIP3    H1 7980   3.374   1.422   4.843
 2672TIP3    H2 7981   3.410   1.291   4.911
 2673TIP3   OH2 7982   3.846   3.685   2.643
 2673TIP3    H1 7983   3.939   3.702   2.657
 2673TIP3    H2 7984   3.838   3.590   2.647
 2674TIP3   OH2 7985   2.121   6.380   4.399
 2674TIP3    H1 7986   2.091   6.468   4.421
 2674TIP3    H2 7987   2.115   6.332   4.482
 2675TIP3   OH2 7988   3.945   2.246   5.785
 2675TIP3    H1 7989   3.862   2.259   5.739
 2675TIP3    H2 7990   3.923   2.187   5.857
 2676TIP3   OH2 7991   6.555   6.305   0.512
 2676TIP3    H1 7992   6.616   6.355   0.566
 2676TIP3    H2 7993   6.479   6.362   0.503
 2677TIP3   OH2 7994   2.039   2.303   4.777
 2677TIP3    H1 7995   2.104   2.245   4.739
 2677TIP3    H2 7996   1.996   2.344   4.702
 2678TIP3   OH2 7997   6.706   5.478   2.968
 2678TIP3    H1 7998   6.635   5.542   2.967
 2678TIP3    H2 7999   6.772   5.515   2.911
 2679TIP3   OH2 8000   1.224   3.141   1.751
 2679TIP3    H1 8001   1.174   3.182   1.681
 2679TIP3    H2 8002   1.229   3.207   1.820
 2680TIP3   OH2 8003   7.150   5.764   2.411
 2680TIP3    H1 8004   7.120   5.855   2.419
 2680TIP3    H2 8005   7.069   5.712   2.416
 2681TIP3   OH2 8006   6.674   2.880   1.464
 2681TIP3    H1 8007   6.645   2.789   1.467
 2681TIP3    H2 8008   6.738   2.882   1.393
 2682TIP3   OH2 8009   0.248   3.793   0.680
 2682TIP3    H1 8010   0.241   3.705   0.642
 2682TIP3    H2 8011   0.211   3.784   0.768
 2683TIP3   OH2 8012   5.858   6.628   4.072
 2683TIP3    H1 8013   5.928   6.569   4.045
 2683TIP3    H2 8014   5.823   6.590   4.152
 2684TIP3   OH2 8015   6.903   0.041   5.747
 2684TIP3    H1 8016   6.879   0.132   5.761
 2684TIP3    H2 8017   6.958   0.018   5.821
 2685TIP3   OH2 8018   6.533   3.379   1.427
 2685TIP3    H1 8019   6.522   3.473   1.436
 2685TIP3    H2 8020   6.445   3.345   1.409
 2686TIP3   OH2 8021   1.784   6.463   3.784
 2686TIP3    H1 8022   1.845   6.486   3.854
 2686TIP3    H2 8023   1.785   6.367   3.781
 2687TIP3   OH2 8024   1.194   6.492   2.954
 2687TIP3    H1 8025   1.204   6.568   2.898
 2687TIP3    H2 8026   1.284   6.460   2.967
 2688TIP3   OH2 8027   0.134   1.708   1.083
 2688TIP3    H1 8028   0.135   1.779   1.018
 2688TIP3    H2 8029   0.152   1.751   1.166
 2689TIP3   OH2 8030   4.233   5.179   1.145
 2689TIP3    H1 8031   4.146   5.149   1.116
 2689TIP3    H2 8032   4.286   5.176   1.065
 2690TIP3   OH2 8033   5.271   5.644   0.926
 2690TIP3    H1 8034   5.209   5.666   0.995
 2690TIP3    H2 8035   5.348   5.610   0.972
 2691TIP3   OH2 8036   0.314   0.238   5.761
 2691TIP3    H1 8037   0.253   0.174   5.798
 2691TIP3    H2 8038   0.393   0.229   5.815
 2692TIP3   OH2 8039   5.637   3.537   2.643
 2692TIP3    H1 8040   5.551   3.512   2.676
 2692TIP3    H2 8041   5.647   3.487   2.562
 2693TIP3   OH2 8042   3.136   1.230   1.487
 2693TIP3    H1 8043   3.229   1.251   1.483
 2693TIP3    H2 8044   3.094   1.295   1.430
 2694TIP3   OH2 8045   5.025   4.673   5.212
 2694TIP3    H1 8046   4.961   4.621   5.163
 2694TIP3    H2 8047   5.006   4.653   5.304
 2695TIP3   OH2 8048   2.008   1.746   5.456
 2695TIP3    H1 8049   1.995   1.659   5.418
 2695TIP3    H2 8050   2.093   1.741   5.501
 2696TIP3   OH2 8051   4.106   1.851   0.286
 2696TIP3    H1 8052   4.034   1.908   0.261
 2696TIP3    H2 8053   4.134   1.884   0.372
 2697TIP3   OH2 8054   5.904   4.084   0.577
 2697TIP3    H1 8055   5.809   4.091   0.593
 2697TIP3    H2 8056   5.934   4.022   0.644
 2698TIP3   OH2 8057   2.676   2.617   4.279
 2698TIP3    H1 8058   2.765   2.586   4.262
 2698TIP3    H2 8059   2.630   2.542   4.317
 2699TIP3   OH2 8060   0.689   3.049   3.331
 2699TIP3    H1 8061   0.778   3.061   3.366
 2699TIP3    H2 8062   0.703   3.025   3.239
 2700TIP3   OH2 8063   3.564   3.484   0.733
 2700TIP3    H1 8064   3.643   3.522   0.696
 2700TIP3    H2 8065   3.525   3.554   0.785
 2701TIP3   OH2 8066   2.486   5.126   4.597
 2701TIP3    H1 8067   2.571   5.114   4.641
 2701TIP3    H2 8068   2.451   5.207   4.634
 2702TIP3   OH2 8069   6.435   4.956   5.793
 2702TIP3    H1 8070   6.474   4.924   5.875
 2702TIP3    H2 8071   6.342   4.969   5.815
 2703TIP3   OH2 8072   5.741   2.053   0.766
 2703TIP3    H1 8073   5.830   2.017   0.769
 2703TIP3    H2 8074   5.753   2.142   0.734
 2704TIP3   OH2 8075   0.195   5.570   0.403
 2704TIP3    H1 8076   0.231   5.524   0.327
 2704TIP3    H2 8077   0.110   5.603   0.373
 2705TIP3   OH2 8078   5.627   4.229   3.900
 2705TIP3    H1 8079   5.554   4.260   3.847
 2705TIP3    H2 8080   5.696   4.294   3.887
 2706TIP3   OH2 8081   2.195   0.726   5.149
 2706TIP3    H1 8082   2.178   0.636   5.178
 2706TIP3    H2 8083   2.108   0.768   5.149
 2707TIP3   OH2 8084   3.656   4.269   4.658
 2707TIP3    H1 8085   3.634   4.196   4.600
 2707TIP3    H2 8086   3.626   4.347   4.611
 2708TIP3   OH2 8087   1.014   4.910   2.868
 2708TIP3    H1 8088   0.921   4.920   2.850
 2708TIP3    H2 8089   1.021   4.829   2.918
 2709TIP3   OH2 8090   2.800   6.493   2.777
 2709TIP3    H1 8091   2.888   6.506   2.742
 2709TIP3    H2 8092   2.757   6.578   2.765
 2710TIP3   OH2 8093   4.861   0.748   5.219
 2710TIP3    H1 8094   4.878   0.671   5.164
 2710TIP3    H2 8095   4.835   0.712   5.304
 2711TIP3   OH2 8096   3.803   2.963   4.195
 2711TIP3    H1 8097   3.764   3.033   4.144
 2711TIP3    H2 8098   3.802   2.995   4.285
 2712TIP3   OH2 8099   1.777   6.445   3.475
 2712TIP3    H1 8100   1.750   6.523   3.426
 2712TIP3    H2 8101   1.812   6.479   3.557
 2713TIP3   OH2 8102   4.815   1.379   0.198
 2713TIP3    H1 8103   4.780   1.292   0.178
 2713TIP3    H2 8104   4.782   1.434   0.127
 2714TIP3   OH2 8105   2.874   6.782   3.187
 2714TIP3    H1 8106   2.881   6.709   3.125
 2714TIP3    H2 8107   2.781   6.803   3.189
 2715TIP3   OH2 8108   6.122   5.768   2.384
 2715TIP3    H1 8109   6.050   5.773   2.320
 2715TIP3    H2 8110   6.133   5.858   2.414
 2716TIP3   OH2 8111   0.768   2.404   5.454
 2716TIP3    H1 8112   0.862   2.423   5.452
 2716TIP3    H2 8113   0.738   2.422   5.364
 2717TIP3   OH2 8114   6.025   6.693   2.144
 2717TIP3    H1 8115   6.115   6.698   2.176
 2717TIP3    H2 8116   6.033   6.678   2.050
 2718TIP3   OH2 8117   2.725   5.093   1.855
 2718TIP3    H1 8118   2.662   5.023   1.869
 2718TIP3    H2 8119   2.793   5.078   1.921
 2719TIP3   OH2 8120   0.337   4.586   3.295
 2719TIP3    H1 8121   0.347   4.530   3.218
 2719TIP3    H2 8122   0.388   4.541   3.363
 2720TIP3   OH2 8123   5.176   2.699   3.098
 2720TIP3    H1 8124   5.099   2.648   3.073
 2720TIP3    H2 8125   5.213   2.653   3.172
 2721TIP3   OH2 8126   4.276   1.995   1.175
 2721TIP3    H1 8127   4.194   2.008   1.222
 2721TIP3    H2 8128   4.249   1.970   1.086
 2722TIP3   OH2 8129   2.775   3.214   2.221
 2722TIP3    H1 8130   2.696   3.267   2.214
 2722TIP3    H2 8131   2.780   3.191   2.314
 2723TIP3   OH2 8132   0.564   3.487   2.456
 2723TIP3    H1 8133   0.574   3.449   2.369
 2723TIP3    H2 8134   0.591   3.578   2.445
 2724TIP3   OH2 8135   2.638   1.210   5.709
 2724TIP3    H1 8136   2.655   1.173   5.795
 2724TIP3    H2 8137   2.561   1.163   5.677
 2725TIP3   OH2 8138   0.185   4.143   0.370
 2725TIP3    H1 8139   0.145   4.230   0.373
 2725TIP3    H2 8140   0.196   4.118   0.462
 2726TIP3   OH2 8141   2.391   3.311   4.475
 2726TIP3    H1 8142   2.343   3.323   4.393
 2726TIP3    H2 8143   2.470   3.264   4.450
 2727TIP3   OH2 8144   1.105   3.690   3.767
 2727TIP3    H1 8145   1.022   3.661   3.805
 2727TIP3    H2 8146   1.161   3.612   3.769
 2728TIP3   OH2 8147   5.708   3.885   4.691
 2728TIP3    H1 8148   5.711   3.873   4.786
 2728TIP3    H2 8149   5.744   3.803   4.656
 2729TIP3   OH2 8150   1.739   5.892   4.975
 2729TIP3    H1 8151   1.651   5.926   4.964
 2729TIP3    H2 8152   1.736   5.843   5.057
 2730TIP3   OH2 8153   7.188   4.653   1.746
 2730TIP3    H1 8154   7.126   4.697   1.804
 2730TIP3    H2 8155   7.198   4.713   1.672
 2731TIP3   OH2 8156   4.254   4.147   4.609
 2731TIP3    H1 8157   4.197   4.093   4.664
 2731TIP3    H2 8158   4.342   4.133   4.645
 2732TIP3   OH2 8159   6.233   0.699   2.242
 2732TIP3    H1 8160   6.321   0.732   2.263
 2732TIP3    H2 8161   6.184   0.713   2.323
 2733TIP3   OH2 8162   6.486   6.195   3.896
 2733TIP3    H1 8163   6.495   6.178   3.990
 2733TIP3    H2 8164   6.572   6.227   3.869
 2734TIP3   OH2 8165   5.084   1.395   0.325
 2734TIP3    H1 8166   5.026   1.399   0.249
 2734TIP3    H2 8167   5.159   1.343   0.296
 2735TIP3   OH2 8168   2.650   0.774   1.831
 2735TIP3    H1 8169   2.742   0.774   1.805
 2735TIP3    H2 8170   2.603   0.811   1.757
 2736TIP3   OH2 8171   2.715   4.579   2.283
 2736TIP3    H1 8172   2.786   4.549   2.226
 2736TIP3    H2 8173   2.642   4.520   2.263
 2737TIP3   OH2 8174   6.614   5.678   0.012
 2737TIP3    H1 8175   6.602   5.757   0.064
 2737TIP3    H2 8176   6.534   5.670  -0.040
 2738TIP3   OH2 8177   6.409   2.817   5.181
 2738TIP3    H1 8178   6.347   2.829   5.109
 2738TIP3    H2 8179   6.356   2.789   5.255
 2739TIP3   OH2 8180   5.526   4.955   2.703
 2739TIP3    H1 8181   5.501   5.023   2.766
 2739TIP3    H2 8182   5.617   4.975   2.682
 2740TIP3   OH2 8183   2.712   4.495   0.648
 2740TIP3    H1 8184   2.635   4.547   0.624
 2740TIP3    H2 8185   2.736   4.527   0.735
 2741TIP3   OH2 8186   5.259   1.139   3.418
 2741TIP3    H1 8187   5.319   1.190   3.473
 2741TIP3    H2 8188   5.261   1.184   3.333
 2742TIP3   OH2 8189   0.861   4.331   1.897
 2742TIP3    H1 8190   0.768   4.324   1.921
 2742TIP3    H2 8191   0.862   4.396   1.827
 2743TIP3   OH2 8192   3.077   3.584   0.799
 2743TIP3    H1 8193   3.122   3.642   0.861
 2743TIP3    H2 8194   3.146   3.556   0.739
 2744TIP3   OH2 8195   3.159   1.352   2.066
 2744TIP3    H1 8196   3.138   1.416   2.134
 2744TIP3    H2 8197   3.195   1.404   1.995
 2745TIP3   OH2 8198   2.779   5.454   0.744
 2745TIP3    H1 8199   2.716   5.527   0.745
 2745TIP3    H2 8200   2.864   5.496   0.731
 2746TIP3   OH2 8201   5.043   1.537   5.354
 2746TIP3    H1 8202   5.027   1.516   5.446
 2746TIP3    H2 8203   4.986   1.477   5.305
 2747TIP3   OH2 8204   3.859   0.383   2.886
 2747TIP3    H1 8205   3.910   0.363   2.807
 2747TIP3    H2 8206   3.830   0.298   2.918
 2748TIP3   OH2 8207   6.108   5.690   1.695
 2748TIP3    H1 8208   6.036   5.694   1.759
 2748TIP3    H2 8209   6.101   5.772   1.646
 2749TIP3   OH2 8210   0.605   1.214   1.329
 2749TIP3    H1 8211   0.569   1.145   1.274
 2749TIP3    H2 8212   0.619   1.288   1.270
 2750TIP3   OH2 8213   1.883   6.398   0.794
 2750TIP3    H1 8214   1.896   6.493   0.785
 2750TIP3    H2 8215   1.850   6.387   0.883
 2751TIP3   OH2 8216   5.181   0.736   5.100
 2751TIP3    H1 8217   5.217   0.701   5.182
 2751TIP3    H2 8218   5.119   0.668   5.071
 2752TIP3   OH2 8219   5.533   0.261   3.802
 2752TIP3    H1 8220   5.503   0.351   3.815
 2752TIP3    H2 8221   5.454   0.208   3.812
 2753TIP3   OH2 8222   2.054   0.775   3.975
 2753TIP3    H1 8223   1.961   0.766   3.996
 2753TIP3    H2 8224   2.058   0.848   3.914
 2754TIP3   OH2 8225   4.540   0.790   1.206
 2754TIP3    H1 8226   4.563   0.698   1.192
 2754TIP3    H2 8227   4.596   0.818   1.278
 2755TIP3   OH2 8228   5.443   5.314   1.431
 2755TIP3    H1 8229   5.359   5.361   1.424
 2755TIP3    H2 8230   5.469   5.298   1.341
 2756TIP3   OH2 8231   0.838   6.223   1.571
 2756TIP3    H1 8232   0.791   6.221   1.654
 2756TIP3    H2 8233   0.770   6.244   1.506
 2757TIP3   OH2 8234   3.588   1.763   4.285
 2757TIP3    H1 8235   3.575   1.695   4.351
 2757TIP3    H2 8236   3.560   1.723   4.203
 2758TIP3   OH2 8237   1.425   2.942   5.147
 2758TIP3    H1 8238   1.424   2.939   5.052
 2758TIP3    H2 8239   1.395   3.031   5.168
 2759TIP3   OH2 8240   0.913   3.222   4.913
 2759TIP3    H1 8241   0.934   3.315   4.903
 2759TIP3    H2 8242   0.819   3.219   4.926
 2760TIP3   OH2 8243   7.096   2.942   2.235
 2760TIP3    H1 8244   7.007   2.966   2.264
 2760TIP3    H2 8245   7.092   2.847   2.222
 2761TIP3   OH2 8246   5.631   1.422   3.630
 2761TIP3    H1 8247   5.697   1.490   3.645
 2761TIP3    H2 8248   5.638   1.364   3.706
 2762TIP3   OH2 8249   1.206   3.233   4.938
 2762TIP3    H1 8250   1.124   3.210   4.894
 2762TIP3    H2 8251   1.230   3.317   4.899
 2763TIP3   OH2 8252   2.131   4.217   2.783
 2763TIP3    H1 8253   2.144   4.213   2.688
 2763TIP3    H2 8254   2.165   4.302   2.809
 2764TIP3   OH2 8255   0.041   0.237   3.694
 2764TIP3    H1 8256   0.041   0.181   3.772
 2764TIP3    H2 8257  -0.002   0.318   3.722
 2765TIP3   OH2 8258   5.811   4.017   5.510
 2765TIP3    H1 8259   5.732   4.071   5.511
 2765TIP3    H2 8260   5.810   3.976   5.423
 2766TIP3   OH2 8261   7.063   0.310   4.067
 2766TIP3    H1 8262   7.043   0.400   4.092
 2766TIP3    H2 8263   7.156   0.300   4.085
 2767TIP3   OH2 8264   3.083   3.178   0.583
 2767TIP3    H1 8265   3.032   3.099   0.566
 2767TIP3    H2 8266   3.025   3.250   0.556
 2768TIP3   OH2 8267   3.776   2.449   4.904
 2768TIP3    H1 8268   3.856   2.465   4.853
 2768TIP3    H2 8269   3.711   2.423   4.839
 2769TIP3   OH2 8270   4.106   3.191   3.528
 2769TIP3    H1 8271   4.053   3.112   3.519
 2769TIP3    H2 8272   4.129   3.216   3.439
 2770TIP3   OH2 8273   6.020   4.481   3.035
 2770TIP3    H1 8274   6.085   4.532   3.083
 2770TIP3    H2 8275   6.066   4.401   3.010
 2771TIP3   OH2 8276   0.145   4.426   0.762
 2771TIP3    H1 8277   0.197   4.456   0.687
 2771TIP3    H2 8278   0.056   4.420   0.728
 2772TIP3   OH2 8279   4.837   3.409   4.087
 2772TIP3    H1 8280   4.896   3.408   4.012
 2772TIP3    H2 8281   4.870   3.480   4.142
 2773TIP3   OH2 8282   7.175   4.939   0.537
 2773TIP3    H1 8283   7.093   4.928   0.489
 2773TIP3    H2 8284   7.160   5.014   0.594
 2774TIP3   OH2 8285   4.683   1.431   5.818
 2774TIP3    H1 8286   4.613   1.407   5.758
 2774TIP3    H2 8287   4.742   1.355   5.816
 2775TIP3   OH2 8288   3.007   2.736   4.394
 2775TIP3    H1 8289   3.012   2.663   4.332
 2775TIP3    H2 8290   3.004   2.694   4.480
 2776TIP3   OH2 8291   2.278   6.104   2.167
 2776TIP3    H1 8292   2.371   6.084   2.158
 2776TIP3    H2 8293   2.240   6.083   2.082
 2777TIP3   OH2 8294   5.366   3.816   2.733
 2777TIP3    H1 8295   5.395   3.781   2.648
 2777TIP3    H2 8296   5.395   3.749   2.796
 2778TIP3   OH2 8297   4.855   6.368   3.684
 2778TIP3    H1 8298   4.867   6.436   3.750
 2778TIP3    H2 8299   4.760   6.364   3.671
 2779TIP3   OH2 8300   5.194   5.595   1.800
 2779TIP3    H1 8301   5.154   5.570   1.717
 2779TIP3    H2 8302   5.286   5.609   1.779
 2780TIP3   OH2 8303   2.443   1.212   2.926
 2780TIP3    H1 8304   2.373   1.153   2.899
 2780TIP3    H2 8305   2.470   1.179   3.012
 2781TIP3   OH2 8306   6.404   6.275   3.320
 2781TIP3    H1 8307   6.399   6.370   3.309
 2781TIP3    H2 8308   6.464   6.246   3.251
 2782TIP3   OH2 8309   0.336   2.699   3.209
 2782TIP3    H1 8310   0.355   2.788   3.238
 2782TIP3    H2 8311   0.340   2.704   3.113
 2783TIP3   OH2 8312   1.006   0.501   3.420
 2783TIP3    H1 8313   1.004   0.559   3.344
 2783TIP3    H2 8314   0.921   0.458   3.420
 2784TIP3   OH2 8315   1.045   4.610   2.697
 2784TIP3    H1 8316   0.980   4.651   2.640
 2784TIP3    H2 8317   1.028   4.649   2.783
 2785TIP3   OH2 8318   2.601   2.437   0.443
 2785TIP3    H1 8319   2.686   2.450   0.485
 2785TIP3    H2 8320   2.556   2.373   0.499
 2786TIP3   OH2 8321   4.055   5.212   4.975
 2786TIP3    H1 8322   4.083   5.226   4.884
 2786TIP3    H2 8323   4.100   5.132   5.002
 2787TIP3   OH2 8324   6.118   5.286   2.593
 2787TIP3    H1 8325   6.075   5.351   2.538
 2787TIP3    H2 8326   6.209   5.285   2.563
 2788TIP3   OH2 8327   5.772   0.088   5.277
 2788TIP3    H1 8328   5.831   0.115   5.347
 2788TIP3    H2 8329   5.689   0.070   5.321
 2789TIP3   OH2 8330   3.003   4.556   1.885
 2789TIP3    H1 8331   3.067   4.505   1.835
 2789TIP3    H2 8332   2.925   4.559   1.830
 2790TIP3   OH2 8333   4.294   1.203   2.496
 2790TIP3    H1 8334   4.210   1.242   2.470
 2790TIP3    H2 8335   4.302   1.222   2.590
 2791TIP3   OH2 8336   4.939   2.972   3.102
 2791TIP3    H1 8337   4.891   3.051   3.128
 2791TIP3    H2 8338   5.030   3.002   3.094
 2792TIP3   OH2 8339   3.667   3.198   2.074
 2792TIP3    H1 8340   3.704   3.110   2.083
 2792TIP3    H2 8341   3.703   3.246   2.149
 2793TIP3   OH2 8342   5.863   4.478   1.983
 2793TIP3    H1 8343   5.938   4.529   1.953
 2793TIP3    H2 8344   5.840   4.516   2.068
 2794TIP3   OH2 8345   5.462   5.338   3.259
 2794TIP3    H1 8346   5.513   5.258   3.246
 2794TIP3    H2 8347   5.519   5.408   3.227
 2795TIP3   OH2 8348   6.501   3.808   3.958
 2795TIP3    H1 8349   6.444   3.783   3.886
 2795TIP3    H2 8350   6.580   3.754   3.945
 2796TIP3   OH2 8351   1.985   6.816   5.515
 2796TIP3    H1 8352   1.986   6.720   5.521
 2796TIP3    H2 8353   1.963   6.834   5.424
 2797TIP3   OH2 8354   2.279   5.783   4.971
 2797TIP3    H1 8355   2.232   5.801   5.053
 2797TIP3    H2 8356   2.364   5.748   5.000
 2798TIP3   OH2 8357   3.673   5.841   3.482
 2798TIP3    H1 8358   3.624   5.885   3.552
 2798TIP3    H2 8359   3.637   5.753   3.479
 2799TIP3   OH2 8360   2.509   5.438   3.487
 2799TIP3    H1 8361   2.428   5.482   3.514
 2799TIP3    H2 8362   2.541   5.396   3.567
 2800TIP3   OH2 8363   6.028   1.309   2.259
 2800TIP3    H1 8364   6.037   1.321   2.353
 2800TIP3    H2 8365   6.096   1.246   2.236
 2801TIP3   OH2 8366   2.056   5.513   0.952
 2801TIP3    H1 8367   2.048   5.569   1.030
 2801TIP3    H2 8368   1.971   5.518   0.910
 2802TIP3   OH2 8369   2.288   4.521   3.454
 2802TIP3    H1 8370   2.357   4.543   3.516
 2802TIP3    H2 8371   2.247   4.605   3.434
 2803TIP3   OH2 8372   5.142   4.232   1.954
 2803TIP3    H1 8373   5.152   4.327   1.964
 2803TIP3    H2 8374   5.064   4.211   2.006
 2804TIP3   OH2 8375   3.006   2.655   3.223
 2804TIP3    H1 8376   3.062   2.724   3.189
 2804TIP3    H2 8377   3.017   2.582   3.161
 2805TIP3   OH2 8378   1.124   0.461   0.479
 2805TIP3    H1 8379   1.039   0.447   0.437
 2805TIP3    H2 8380   1.164   0.533   0.429
 2806TIP3   OH2 8381   6.908   0.114   0.066
 2806TIP3    H1 8382   6.826   0.096   0.111
 2806TIP3    H2 8383   6.914   0.046  -0.001
 2807TIP3   OH2 8384   3.584   4.140   2.724
 2807TIP3    H1 8385   3.545   4.217   2.765
 2807TIP3    H2 8386   3.534   4.066   2.758
 2808TIP3   OH2 8387   7.129   5.233   4.246
 2808TIP3    H1 8388   7.057   5.180   4.213
 2808TIP3    H2 8389   7.087   5.297   4.303
 2809TIP3   OH2 8390   6.709   1.496   3.333
 2809TIP3    H1 8391   6.742   1.407   3.317
 2809TIP3    H2 8392   6.722   1.542   3.249
 2810TIP3   OH2 8393   0.752   3.183   5.265
 2810TIP3    H1 8394   0.667   3.211   5.298
 2810TIP3    H2 8395   0.738   3.172   5.171
 2811TIP3   OH2 8396   0.851   2.406   2.769
 2811TIP3    H1 8397   0.763   2.400   2.732
 2811TIP3    H2 8398   0.845   2.359   2.852
 2812TIP3   OH2 8399   5.780   2.884   1.937
 2812TIP3    H1 8400   5.691   2.852   1.918
 2812TIP3    H2 8401   5.767   2.956   1.998
 2813TIP3   OH2 8402   3.934   3.053   5.400
 2813TIP3    H1 8403   3.867   3.063   5.333
 2813TIP3    H2 8404   3.976   2.969   5.380
 2814TIP3   OH2 8405   4.047   2.720   4.947
 2814TIP3    H1 8406   4.053   2.640   4.894
 2814TIP3    H2 8407   4.120   2.774   4.916
 2815TIP3   OH2 8408   3.736   3.686   5.124
 2815TIP3    H1 8409   3.704   3.693   5.214
 2815TIP3    H2 8410   3.662   3.650   5.075
 2816TIP3   OH2 8411   7.041   3.015   4.250
 2816TIP3    H1 8412   6.965   3.008   4.308
 2816TIP3    H2 8413   7.057   3.109   4.244
 2817TIP3   OH2 8414   0.579   1.515   3.692
 2817TIP3    H1 8415   0.551   1.480   3.777
 2817TIP3    H2 8416   0.668   1.546   3.708
 2818TIP3   OH2 8417   5.281   6.438   1.895
 2818TIP3    H1 8418   5.248   6.443   1.985
 2818TIP3    H2 8419   5.215   6.484   1.843
 2819TIP3   OH2 8420   2.990   5.779   1.573
 2819TIP3    H1 8421   2.998   5.856   1.630
 2819TIP3    H2 8422   3.039   5.711   1.618
 2820TIP3   OH2 8423   6.941   3.557   0.858
 2820TIP3    H1 8424   6.904   3.632   0.811
 2820TIP3    H2 8425   6.872   3.491   0.856
 2821TIP3   OH2 8426   6.551   1.841   5.452
 2821TIP3    H1 8427   6.481   1.905   5.438
 2821TIP3    H2 8428   6.613   1.857   5.381
 2822TIP3   OH2 8429   1.296   6.186   3.949
 2822TIP3    H1 8430   1.226   6.218   4.006
 2822TIP3    H2 8431   1.261   6.106   3.910
 2823TIP3   OH2 8432   1.536   3.039   0.592
 2823TIP3    H1 8433   1.594   2.966   0.614
 2823TIP3    H2 8434   1.486   3.008   0.516
 2824TIP3   OH2 8435   0.007   1.802   0.268
 2824TIP3    H1 8436  -0.071   1.838   0.312
 2824TIP3    H2 8437   0.020   1.859   0.192
 2825TIP3   OH2 8438   4.157   2.832   4.391
 2825TIP3    H1 8439   4.136   2.925   4.385
 2825TIP3    H2 8440   4.082   2.794   4.437
 2826TIP3   OH2 8441   7.019   0.140   1.753
 2826TIP3    H1 8442   6.938   0.091   1.764
 2826TIP3    H2 8443   7.019   0.203   1.825
 2827TIP3   OH2 8444   3.647   3.199   0.461
 2827TIP3    H1 8445   3.577   3.213   0.524
 2827TIP3    H2 8446   3.727   3.196   0.514
 2828TIP3   OH2 8447   4.242   0.364   0.583
 2828TIP3    H1 8448   4.198   0.285   0.550
 2828TIP3    H2 8449   4.310   0.331   0.642
 2829TIP3   OH2 8450   1.434   5.792   0.585
 2829TIP3    H1 8451   1.465   5.715   0.632
 2829TIP3    H2 8452   1.435   5.862   0.650
 2830TIP3   OH2 8453   3.823   4.583   4.527
 2830TIP3    H1 8454   3.796   4.611   4.440
 2830TIP3    H2 8455   3.900   4.638   4.546
 2831TIP3   OH2 8456   0.733   5.233   0.554
 2831TIP3    H1 8457   0.826   5.208   0.555
 2831TIP3    H2 8458   0.709   5.234   0.647
 2832TIP3   OH2 8459   3.079   4.938   4.841
 2832TIP3    H1 8460   3.136   4.900   4.774
 2832TIP3    H2 8461   3.036   4.862   4.881
 2833TIP3   OH2 8462   1.646   5.253   2.657
 2833TIP3    H1 8463   1.561   5.275   2.618
 2833TIP3    H2 8464   1.710   5.272   2.588
 2834TIP3   OH2 8465   5.246   3.424   2.105
 2834TIP3    H1 8466   5.270   3.459   2.191
 2834TIP3    H2 8467   5.279   3.489   2.043
 2835TIP3   OH2 8468   0.145   3.777   0.358
 2835TIP3    H1 8469   0.181   3.721   0.426
 2835TIP3    H2 8470   0.080   3.831   0.403
 2836TIP3   OH2 8471   5.710   1.097   4.756
 2836TIP3    H1 8472   5.665   1.131   4.834
 2836TIP3    H2 8473   5.642   1.050   4.707
 2837TIP3   OH2 8474   2.820   0.482   4.216
 2837TIP3    H1 8475   2.777   0.412   4.265
 2837TIP3    H2 8476   2.760   0.557   4.223
 2838TIP3   OH2 8477   3.177   5.915   1.139
 2838TIP3    H1 8478   3.166   5.915   1.234
 2838TIP3    H2 8479   3.213   5.828   1.119
 2839TIP3   OH2 8480   1.548   0.523   0.824
 2839TIP3    H1 8481   1.612   0.458   0.856
 2839TIP3    H2 8482   1.466   0.497   0.866
 2840TIP3   OH2 8483   2.603   5.375   2.917
 2840TIP3    H1 8484   2.648   5.456   2.894
 2840TIP3    H2 8485   2.570   5.341   2.834
 2841TIP3   OH2 8486   0.456   2.853   1.221
 2841TIP3    H1 8487   0.528   2.805   1.179
 2841TIP3    H2 8488   0.382   2.841   1.161
 2842TIP3   OH2 8489   1.770   3.098   5.750
 2842TIP3    H1 8490   1.797   3.013   5.716
 2842TIP3    H2 8491   1.733   3.143   5.675
 2843TIP3   OH2 8492   6.369   3.608   0.873
 2843TIP3    H1 8493   6.384   3.555   0.795
 2843TIP3    H2 8494   6.441   3.584   0.932
 2844TIP3   OH2 8495   3.478   4.030   0.637
 2844TIP3    H1 8496   3.395   3.984   0.629
 2844TIP3    H2 8497   3.498   4.028   0.731
 2845TIP3   OH2 8498   5.438   3.927   1.292
 2845TIP3    H1 8499   5.465   3.959   1.205
 2845TIP3    H2 8500   5.454   3.833   1.288
 2846TIP3   OH2 8501   6.469   1.871   5.772
 2846TIP3    H1 8502   6.486   1.960   5.741
 2846TIP3    H2 8503   6.472   1.878   5.867
 2847TIP3   OH2 8504   6.518   3.056   1.330
 2847TIP3    H1 8505   6.423   3.044   1.340
 2847TIP3    H2 8506   6.556   2.990   1.388
 2848TIP3   OH2 8507   5.500   6.775   3.428
 2848TIP3    H1 8508   5.564   6.714   3.391
 2848TIP3    H2 8509   5.458   6.815   3.352
 2849TIP3   OH2 8510   5.008   1.597   4.065
 2849TIP3    H1 8511   5.030   1.525   4.005
 2849TIP3    H2 8512   5.092   1.639   4.082
 2850TIP3   OH2 8513   2.370   2.179   2.004
 2850TIP3    H1 8514   2.289   2.226   2.025
 2850TIP3    H2 8515   2.369   2.103   2.061
 2851TIP3   OH2 8516   2.527   5.507   0.930
 2851TIP3    H1 8517   2.542   5.549   1.014
 2851TIP3    H2 8518   2.532   5.577   0.866
 2852TIP3   OH2 8519   0.514   1.612   0.023
 2852TIP3    H1 8520   0.551   1.698   0.007
 2852TIP3    H2 8521   0.424   1.628   0.049
 2853TIP3   OH2 8522   5.179   1.308   0.742
 2853TIP3    H1 8523   5.244   1.345   0.682
 2853TIP3    H2 8524   5.140   1.384   0.785
 2854TIP3   OH2 8525   0.826   2.103   5.418
 2854TIP3    H1 8526   0.783   2.146   5.492
 2854TIP3    H2 8527   0.757   2.049   5.378
 2855TIP3   OH2 8528   2.328   4.944   4.480
 2855TIP3    H1 8529   2.258   5.010   4.484
 2855TIP3    H2 8530   2.401   4.985   4.526
 2856TIP3   OH2 8531   4.973   3.568   5.629
 2856TIP3    H1 8532   5.059   3.554   5.667
 2856TIP3    H2 8533   4.916   3.587   5.703
 2857TIP3   OH2 8534   1.719   5.734   2.668
 2857TIP3    H1 8535   1.779   5.669   2.703
 2857TIP3    H2 8536   1.674   5.769   2.745
 2858TIP3   OH2 8537   3.975   6.134   2.495
 2858TIP3    H1 8538   3.910   6.164   2.431
 2858TIP3    H2 8539   4.035   6.080   2.444
 2859TIP3   OH2 8540   3.492   5.774   0.762
 2859TIP3    H1 8541   3.476   5.865   0.738
 2859TIP3    H2 8542   3.587   5.766   0.765
 2860TIP3   OH2 8543   2.748   5.752   2.020
 2860TIP3    H1 8544   2.684   5.699   2.067
 2860TIP3    H2 8545   2.817   5.691   1.994
 2861TIP3   OH2 8546   3.230   0.543   2.240
 2861TIP3    H1 8547   3.215   0.490   2.318
 2861TIP3    H2 8548   3.317   0.516   2.209
 2862TIP3   OH2 8549   6.698   0.324   4.179
 2862TIP3    H1 8550   6.748   0.400   4.151
 2862TIP3    H2 8551   6.758   0.276   4.237
 2863TIP3   OH2 8552   4.501   3.730   0.240
 2863TIP3    H1 8553   4.459   3.650   0.208
 2863TIP3    H2 8554   4.525   3.778   0.161
 2864TIP3   OH2 8555   0.327   1.788   4.855
 2864TIP3    H1 8556   0.361   1.707   4.816
 2864TIP3    H2 8557   0.243   1.802   4.811
 2865TIP3   OH2 8558   4.900   4.085   4.602
 2865TIP3    H1 8559   4.851   4.078   4.685
 2865TIP3    H2 8560   4.992   4.091   4.629
 2866TIP3   OH2 8561   0.279   1.736   5.743
 2866TIP3    H1 8562   0.359   1.746   5.692
 2866TIP3    H2 8563   0.275   1.643   5.764
 2867TIP3   OH2 8564   5.408   3.068   1.901
 2867TIP3    H1 8565   5.317   3.052   1.927
 2867TIP3    H2 8566   5.452   2.985   1.917
 2868TIP3   OH2 8567   1.144   4.929   4.539
 2868TIP3    H1 8568   1.202   4.911   4.465
 2868TIP3    H2 8569   1.131   5.024   4.538
 2869TIP3   OH2 8570   4.035   6.107   5.098
 2869TIP3    H1 8571   4.044   6.062   5.014
 2869TIP3    H2 8572   4.112   6.164   5.103
 2870TIP3   OH2 8573   4.671   5.912   0.377
 2870TIP3    H1 8574   4.724   5.964   0.318
 2870TIP3    H2 8575   4.711   5.924   0.463
 2871TIP3   OH2 8576   5.072   5.370   0.542
 2871TIP3    H1 8577   5.019   5.407   0.613
 2871TIP3    H2 8578   5.135   5.439   0.521
 2872TIP3   OH2 8579   3.502   3.735   0.844
 2872TIP3    H1 8580   3.413   3.728   0.877
 2872TIP3    H2 8581   3.528   3.825   0.863
 2873TIP3   OH2 8582   6.537   0.068   1.151
 2873TIP3    H1 8583   6.526  -0.023   1.180
 2873TIP3    H2 8584   6.631   0.077   1.136
 2874TIP3   OH2 8585   0.272   4.419   4.268
 2874TIP3    H1 8586   0.189   4.461   4.289
 2874TIP3    H2 8587   0.267   4.401   4.174
 2875TIP3   OH2 8588   3.188   3.118   3.381
 2875TIP3    H1 8589   3.160   3.122   3.473
 2875TIP3    H2 8590   3.154   3.034   3.350
 2876TIP3   OH2 8591   0.588   3.691   0.651
 2876TIP3    H1 8592   0.518   3.689   0.716
 2876TIP3    H2 8593   0.616   3.600   0.644
 2877TIP3   OH2 8594   4.333   4.328   0.014
 2877TIP3    H1 8595   4.293   4.346  -0.071
 2877TIP3    H2 8596   4.318   4.234   0.028
 2878TIP3   OH2 8597   4.821   3.370   3.477
 2878TIP3    H1 8598   4.732   3.341   3.458
 2878TIP3    H2 8599   4.810   3.458   3.515
 2879TIP3   OH2 8600   4.191   3.686   5.294
 2879TIP3    H1 8601   4.143   3.675   5.375
 2879TIP3    H2 8602   4.234   3.601   5.280
 2880TIP3   OH2 8603   6.326   2.783   0.082
 2880TIP3    H1 8604   6.398   2.815   0.027
 2880TIP3    H2 8605   6.266   2.857   0.087
 2881TIP3   OH2 8606   4.138   3.551   5.811
 2881TIP3    H1 8607   4.227   3.550   5.776
 2881TIP3    H2 8608   4.131   3.633   5.858
 2882TIP3   OH2 8609   6.754   1.086   4.854
 2882TIP3    H1 8610   6.829   1.145   4.855
 2882TIP3    H2 8611   6.679   1.142   4.836
 2883TIP3   OH2 8612   2.989   3.469   3.297
 2883TIP3    H1 8613   2.941   3.522   3.233
 2883TIP3    H2 8614   2.996   3.383   3.255
 2884TIP3   OH2 8615   1.524   4.259   2.003
 2884TIP3    H1 8616   1.540   4.319   1.929
 2884TIP3    H2 8617   1.575   4.296   2.075
 2885TIP3   OH2 8618   5.892   4.601   4.936
 2885TIP3    H1 8619   5.840   4.668   4.890
 2885TIP3    H2 8620   5.828   4.554   4.989
 2886TIP3   OH2 8621   5.570   5.732   2.806
 2886TIP3    H1 8622   5.537   5.746   2.895
 2886TIP3    H2 8623   5.544   5.811   2.759
 2887TIP3   OH2 8624   4.903   1.571   4.726
 2887TIP3    H1 8625   4.976   1.523   4.764
 2887TIP3    H2 8626   4.825   1.525   4.756
 2888TIP3   OH2 8627   4.599   1.809   0.627
 2888TIP3    H1 8628   4.538   1.881   0.610
 2888TIP3    H2 8629   4.547   1.730   0.611
 2889TIP3   OH2 8630   0.244   0.838   5.472
 2889TIP3    H1 8631   0.285   0.781   5.408
 2889TIP3    H2 8632   0.254   0.791   5.555
 2890TIP3   OH2 8633   3.391   4.450   2.396
 2890TIP3    H1 8634   3.444   4.464   2.474
 2890TIP3    H2 8635   3.368   4.358   2.398
 2891TIP3   OH2 8636   6.096   0.978   0.652
 2891TIP3    H1 8637   6.110   1.039   0.580
 2891TIP3    H2 8638   6.045   1.028   0.716
 2892TIP3   OH2 8639   2.114   0.558   0.909
 2892TIP3    H1 8640   2.122   0.634   0.851
 2892TIP3    H2 8641   2.165   0.581   0.986
 2893TIP3   OH2 8642   3.708   1.226   1.872
 2893TIP3    H1 8643   3.645   1.272   1.817
 2893TIP3    H2 8644   3.701   1.134   1.847
 2894TIP3   OH2 8645   0.540   1.546   1.725
 2894TIP3    H1 8646   0.537   1.576   1.816
 2894TIP3    H2 8647   0.571   1.621   1.676
 2895TIP3   OH2 8648   4.638   4.571   1.557
 2895TIP3    H1 8649   4.601   4.659   1.553
 2895TIP3    H2 8650   4.582   4.519   1.500
 2896TIP3   OH2 8651   5.376   2.179   3.904
 2896TIP3    H1 8652   5.379   2.273   3.886
 2896TIP3    H2 8653   5.320   2.172   3.981
 2897TIP3   OH2 8654   4.613   3.313   5.567
 2897TIP3    H1 8655   4.609   3.221   5.544
 2897TIP3    H2 8656   4.624   3.314   5.662
 2898TIP3   OH2 8657   1.388   3.803   3.811
 2898TIP3    H1 8658   1.366   3.859   3.885
 2898TIP3    H2 8659   1.375   3.714   3.843
 2899TIP3   OH2 8660   3.490   4.511   0.174
 2899TIP3    H1 8661   3.547   4.552   0.241
 2899TIP3    H2 8662   3.412   4.566   0.174
 2900TIP3   OH2 8663   5.841   6.610   3.365
 2900TIP3    H1 8664   5.862   6.643   3.277
 2900TIP3    H2 8665   5.860   6.684   3.423
 2901TIP3   OH2 8666   5.518   4.142   5.172
 2901TIP3    H1 8667   5.431   4.173   5.150
 2901TIP3    H2 8668   5.505   4.079   5.243
 2902TIP3   OH2 8669   4.025   3.714   4.834
 2902TIP3    H1 8670   4.028   3.732   4.927
 2902TIP3    H2 8671   4.053   3.623   4.826
 2903TIP3   OH2 8672   4.881   2.721   5.738
 2903TIP3    H1 8673   4.934   2.641   5.735
 2903TIP3    H2 8674   4.903   2.768   5.658
 2904TIP3   OH2 8675   6.687   4.974   0.544
 2904TIP3    H1 8676   6.628   5.048   0.529
 2904TIP3    H2 8677   6.663   4.941   0.631
 2905TIP3   OH2 8678   0.422   0.647   4.302
 2905TIP3    H1 8679   0.371   0.711   4.253
 2905TIP3    H2 8680   0.471   0.599   4.235
 2906TIP3   OH2 8681   2.028   3.505   1.230
 2906TIP3    H1 8682   2.013   3.576   1.291
 2906TIP3    H2 8683   1.941   3.478   1.201
 2907TIP3   OH2 8684   2.233   2.818   1.812
 2907TIP3    H1 8685   2.164   2.876   1.843
 2907TIP3    H2 8686   2.236   2.748   1.878
 2908TIP3   OH2 8687   0.675   0.674   0.814
 2908TIP3    H1 8688   0.636   0.589   0.791
 2908TIP3    H2 8689   0.765   0.668   0.781
 2909TIP3   OH2 8690   3.092   2.584   1.465
 2909TIP3    H1 8691   3.164   2.646   1.449
 2909TIP3    H2 8692   3.119   2.505   1.418
 2910TIP3   OH2 8693   0.462   0.523   3.370
 2910TIP3    H1 8694   0.457   0.472   3.289
 2910TIP3    H2 8695   0.379   0.506   3.414
 2911TIP3   OH2 8696   4.625   1.906   1.847
 2911TIP3    H1 8697   4.658   1.835   1.901
 2911TIP3    H2 8698   4.675   1.983   1.875
 2912TIP3   OH2 8699   2.503   1.535   0.740
 2912TIP3    H1 8700   2.534   1.565   0.654
 2912TIP3    H2 8701   2.418   1.577   0.752
 2913TIP3   OH2 8702   2.889   0.084   4.092
 2913TIP3    H1 8703   2.835   0.125   4.025
 2913TIP3    H2 8704   2.837   0.089   4.172
 2914TIP3   OH2 8705   0.998   5.180   0.576
 2914TIP3    H1 8706   1.051   5.223   0.644
 2914TIP3    H2 8707   1.020   5.087   0.585
 2915TIP3   OH2 8708   0.455   1.566   1.448
 2915TIP3    H1 8709   0.404   1.500   1.497
 2915TIP3    H2 8710   0.545   1.551   1.475
 2916TIP3   OH2 8711   2.879   0.878   5.503
 2916TIP3    H1 8712   2.854   0.823   5.578
 2916TIP3    H2 8713   2.967   0.849   5.480
 2917TIP3   OH2 8714   5.604   6.674   3.168
 2917TIP3    H1 8715   5.694   6.702   3.179
 2917TIP3    H2 8716   5.590   6.673   3.073
 2918TIP3   OH2 8717   5.123   5.267   3.957
 2918TIP3    H1 8718   5.117   5.296   4.048
 2918TIP3    H2 8719   5.062   5.323   3.910
 2919TIP3   OH2 8720   0.265   2.956   1.975
 2919TIP3    H1 8721   0.356   2.954   1.947
 2919TIP3    H2 8722   0.239   2.864   1.978
 2920TIP3   OH2 8723   6.347   2.922   2.321
 2920TIP3    H1 8724   6.256   2.895   2.311
 2920TIP3    H2 8725   6.352   3.007   2.279
 2921TIP3   OH2 8726   4.281   6.220   4.264
 2921TIP3    H1 8727   4.264   6.232   4.170
 2921TIP3    H2 8728   4.377   6.216   4.270
 2922TIP3   OH2 8729   4.363   4.735   5.331
 2922TIP3    H1 8730   4.389   4.750   5.241
 2922TIP3    H2 8731   4.443   4.744   5.382
 2923TIP3   OH2 8732   5.080   5.280   4.264
 2923TIP3    H1 8733   5.137   5.328   4.324
 2923TIP3    H2 8734   5.136   5.212   4.227
 2924TIP3   OH2 8735   4.536   6.488   0.052
 2924TIP3    H1 8736   4.515   6.399   0.022
 2924TIP3    H2 8737   4.618   6.509   0.008
 2925TIP3   OH2 8738   6.236   6.327   3.889
 2925TIP3    H1 8739   6.312   6.272   3.907
 2925TIP3    H2 8740   6.246   6.351   3.797
 2926TIP3   OH2 8741   2.169   5.127   4.667
 2926TIP3    H1 8742   2.142   5.206   4.715
 2926TIP3    H2 8743   2.111   5.123   4.591
 2927TIP3   OH2 8744   5.759   1.740   3.015
 2927TIP3    H1 8745   5.733   1.827   2.986
 2927TIP3    H2 8746   5.705   1.680   2.964
 2928TIP3   OH2 8747   5.460   5.602   3.808
 2928TIP3    H1 8748   5.418   5.683   3.835
 2928TIP3    H2 8749   5.528   5.629   3.746
 2929TIP3   OH2 8750   0.044   2.263   5.545
 2929TIP3    H1 8751   0.054   2.355   5.572
 2929TIP3    H2 8752  -0.018   2.267   5.472
 2930TIP3   OH2 8753   2.103   0.476   5.474
 2930TIP3    H1 8754   2.102   0.455   5.381
 2930TIP3    H2 8755   2.035   0.542   5.484
 2931TIP3   OH2 8756   3.266   0.578   1.446
 2931TIP3    H1 8757   3.183   0.584   1.494
 2931TIP3    H2 8758   3.329   0.546   1.511
 2932TIP3   OH2 8759   0.980   4.531   1.692
 2932TIP3    H1 8760   0.920   4.588   1.739
 2932TIP3    H2 8761   1.067   4.568   1.709
 2933TIP3   OH2 8762   5.625   1.177   4.999
 2933TIP3    H1 8763   5.609   1.093   5.042
 2933TIP3    H2 8764   5.633   1.239   5.071
 2934TIP3   OH2 8765   1.079   4.397   3.425
 2934TIP3    H1 8766   1.006   4.455   3.406
 2934TIP3    H2 8767   1.044   4.309   3.416
 2935TIP3   OH2 8768   6.809   1.703   4.727
 2935TIP3    H1 8769   6.774   1.774   4.672
 2935TIP3    H2 8770   6.759   1.626   4.701
 2936TIP3   OH2 8771   2.848   6.026   0.721
 2936TIP3    H1 8772   2.885   6.009   0.635
 2936TIP3    H2 8773   2.922   6.021   0.782
 2937TIP3   OH2 8774   5.284   6.218   0.147
 2937TIP3    H1 8775   5.330   6.139   0.177
 2937TIP3    H2 8776   5.199   6.186   0.117
 2938TIP3   OH2 8777   6.373   1.359   5.594
 2938TIP3    H1 8778   6.351   1.268   5.575
 2938TIP3    H2 8779   6.326   1.378   5.675
 2939TIP3   OH2 8780   2.458   0.527   0.398
 2939TIP3    H1 8781   2.530   0.478   0.360
 2939TIP3    H2 8782   2.499   0.581   0.466
 2940TIP3   OH2 8783   2.823   4.631   5.600
 2940TIP3    H1 8784   2.879   4.700   5.564
 2940TIP3    H2 8785   2.880   4.584   5.661
 2941TIP3   OH2 8786   2.455   2.959   2.827
 2941TIP3    H1 8787   2.536   2.927   2.865
 2941TIP3    H2 8788   2.386   2.911   2.873
 2942TIP3   OH2 8789   7.205   6.790   2.802
 2942TIP3    H1 8790   7.114   6.766   2.821
 2942TIP3    H2 8791   7.254   6.758   2.878
 2943TIP3   OH2 8792   1.145   1.343   3.084
 2943TIP3    H1 8793   1.153   1.334   3.179
 2943TIP3    H2 8794   1.227   1.385   3.056
 2944TIP3   OH2 8795   3.929   6.798   3.656
 2944TIP3    H1 8796   3.972   6.834   3.579
 2944TIP3    H2 8797   3.986   6.821   3.729
 2945TIP3   OH2 8798   4.142   5.576   4.890
 2945TIP3    H1 8799   4.060   5.591   4.936
 2945TIP3    H2 8800   4.194   5.655   4.905
 2946TIP3   OH2 8801   3.181   6.349   1.802
 2946TIP3    H1 8802   3.184   6.267   1.850
 2946TIP3    H2 8803   3.123   6.405   1.853
 2947TIP3   OH2 8804   0.767   5.740   4.512
 2947TIP3    H1 8805   0.811   5.674   4.566
 2947TIP3    H2 8806   0.769   5.704   4.424
 2948TIP3   OH2 8807   1.466   3.712   1.374
 2948TIP3    H1 8808   1.408   3.703   1.450
 2948TIP3    H2 8809   1.541   3.657   1.395
 2949TIP3   OH2 8810   1.076   6.433   1.291
 2949TIP3    H1 8811   1.035   6.491   1.356
 2949TIP3    H2 8812   1.061   6.477   1.208
 2950TIP3   OH2 8813   4.046   6.224   3.797
 2950TIP3    H1 8814   4.054   6.153   3.860
 2950TIP3    H2 8815   3.968   6.203   3.746
 2951TIP3   OH2 8816   4.158   1.627   1.032
 2951TIP3    H1 8817   4.211   1.551   1.054
 2951TIP3    H2 8818   4.081   1.619   1.089
 2952TIP3   OH2 8819   5.395   1.400   2.223
 2952TIP3    H1 8820   5.365   1.466   2.160
 2952TIP3    H2 8821   5.465   1.354   2.178
 2953TIP3   OH2 8822   6.742   4.524   0.846
 2953TIP3    H1 8823   6.802   4.553   0.778
 2953TIP3    H2 8824   6.763   4.578   0.922
 2954TIP3   OH2 8825   5.791   5.815   4.601
 2954TIP3    H1 8826   5.870   5.785   4.557
 2954TIP3    H2 8827   5.812   5.808   4.695
 2955TIP3   OH2 8828   3.425   4.284   1.828
 2955TIP3    H1 8829   3.418   4.375   1.799
 2955TIP3    H2 8830   3.446   4.235   1.749
 2956TIP3   OH2 8831   2.445   3.133   0.776
 2956TIP3    H1 8832   2.403   3.198   0.833
 2956TIP3    H2 8833   2.441   3.051   0.825
 2957TIP3   OH2 8834   5.875   2.890   5.176
 2957TIP3    H1 8835   5.832   2.857   5.255
 2957TIP3    H2 8836   5.872   2.985   5.184
 2958TIP3   OH2 8837   2.829   1.125   3.232
 2958TIP3    H1 8838   2.733   1.120   3.232
 2958TIP3    H2 8839   2.848   1.215   3.206
 2959TIP3   OH2 8840   0.927   6.600   4.051
 2959TIP3    H1 8841   0.844   6.633   4.086
 2959TIP3    H2 8842   0.903   6.561   3.967
 2960TIP3   OH2 8843   2.754   6.737   4.250
 2960TIP3    H1 8844   2.731   6.783   4.169
 2960TIP3    H2 8845   2.678   6.683   4.270
 2961TIP3   OH2 8846   5.297   3.616   3.572
 2961TIP3    H1 8847   5.279   3.531   3.612
 2961TIP3    H2 8848   5.342   3.666   3.640
 2962TIP3   OH2 8849   1.231   3.794   1.786
 2962TIP3    H1 8850   1.154   3.784   1.842
 2962TIP3    H2 8851   1.235   3.888   1.766
 2963TIP3   OH2 8852   3.192   1.704   3.057
 2963TIP3    H1 8853   3.282   1.719   3.086
 2963TIP3    H2 8854   3.144   1.780   3.091
 2964TIP3   OH2 8855   3.557   0.228   4.544
 2964TIP3    H1 8856   3.502   0.291   4.498
 2964TIP3    H2 8857   3.625   0.281   4.586
 2965TIP3   OH2 8858   3.435   0.367   1.643
 2965TIP3    H1 8859   3.459   0.341   1.554
 2965TIP3    H2 8860   3.518   0.390   1.685
 2966TIP3   OH2 8861   1.526   2.266   3.495
 2966TIP3    H1 8862   1.451   2.320   3.520
 2966TIP3    H2 8863   1.526   2.194   3.558
 2967TIP3   OH2 8864   2.903   2.483   4.223
 2967TIP3    H1 8865   2.966   2.508   4.155
 2967TIP3    H2 8866   2.870   2.398   4.194
 2968TIP3   OH2 8867   3.689   0.221   0.566
 2968TIP3    H1 8868   3.712   0.289   0.502
 2968TIP3    H2 8869   3.603   0.246   0.599
 2969TIP3   OH2 8870   0.668   1.667   4.202
 2969TIP3    H1 8871   0.667   1.717   4.284
 2969TIP3    H2 8872   0.663   1.733   4.133
 2970TIP3   OH2 8873   5.802   0.327   3.498
 2970TIP3    H1 8874   5.845   0.306   3.581
 2970TIP3    H2 8875   5.833   0.415   3.477
 2971TIP3   OH2 8876   4.955   0.940   4.063
 2971TIP3    H1 8877   4.878   0.994   4.041
 2971TIP3    H2 8878   5.018   0.959   3.993
 2972TIP3   OH2 8879   2.651   0.714   1.376
 2972TIP3    H1 8880   2.705   0.646   1.335
 2972TIP3    H2 8881   2.635   0.777   1.305
 2973TIP3   OH2 8882   4.230   0.977   2.329
 2973TIP3    H1 8883   4.257   1.056   2.375
 2973TIP3    H2 8884   4.290   0.909   2.359
 2974TIP3   OH2 8885   3.479   5.851   2.514
 2974TIP3    H1 8886   3.399   5.806   2.485
 2974TIP3    H2 8887   3.458   5.944   2.507
 2975TIP3   OH2 8888   4.708   3.526   4.747
 2975TIP3    H1 8889   4.642   3.458   4.751
 2975TIP3    H2 8890   4.687   3.576   4.668
 2976TIP3   OH2 8891   2.638   5.829   2.537
 2976TIP3    H1 8892   2.703   5.892   2.567
 2976TIP3    H2 8893   2.556   5.877   2.536
 2977TIP3   OH2 8894   1.471   3.156   1.246
 2977TIP3    H1 8895   1.435   3.068   1.259
 2977TIP3    H2 8896   1.554   3.155   1.293
 2978TIP3   OH2 8897   5.566   3.698   5.274
 2978TIP3    H1 8898   5.498   3.650   5.226
 2978TIP3    H2 8899   5.530   3.787   5.283
 2979TIP3   OH2 8900   6.491   5.710   5.186
 2979TIP3    H1 8901   6.479   5.627   5.140
 2979TIP3    H2 8902   6.412   5.760   5.167
 2980TIP3   OH2 8903   6.528   0.625   0.705
 2980TIP3    H1 8904   6.613   0.586   0.722
 2980TIP3    H2 8905   6.533   0.712   0.742
 2981TIP3   OH2 8906   3.568   2.800   1.012
 2981TIP3    H1 8907   3.552   2.869   1.076
 2981TIP3    H2 8908   3.505   2.817   0.942
 2982TIP3   OH2 8909   6.542   3.999   2.241
 2982TIP3    H1 8910   6.523   3.908   2.218
 2982TIP3    H2 8911   6.610   3.993   2.309
 2983TIP3   OH2 8912   6.186   2.777   4.593
 2983TIP3    H1 8913   6.157   2.693   4.556
 2983TIP3    H2 8914   6.171   2.767   4.687
 2984TIP3   OH2 8915   0.135   3.026   2.210
 2984TIP3    H1 8916   0.055   2.977   2.229
 2984TIP3    H2 8917   0.167   2.989   2.128
 2985TIP3   OH2 8918   2.922   0.808   1.762
 2985TIP3    H1 8919   2.946   0.894   1.727
 2985TIP3    H2 8920   3.001   0.755   1.750
 2986TIP3   OH2 8921   2.540   0.897   1.573
 2986TIP3    H1 8922   2.469   0.900   1.508
 2986TIP3    H2 8923   2.619   0.882   1.521
 2987TIP3   OH2 8924   0.478   0.497   5.398
 2987TIP3    H1 8925   0.403   0.497   5.457
 2987TIP3    H2 8926   0.500   0.404   5.387
 2988TIP3   OH2 8927   2.351   0.693   4.423
 2988TIP3    H1 8928   2.420   0.627   4.421
 2988TIP3    H2 8929   2.284   0.655   4.480
 2989TIP3   OH2 8930   4.534   1.635   1.873
 2989TIP3    H1 8931   4.594   1.594   1.810
 2989TIP3    H2 8932   4.494   1.562   1.919
 2990TIP3   OH2 8933   3.931   3.915   3.601
 2990TIP3    H1 8934   4.027   3.920   3.604
 2990TIP3    H2 8935   3.910   3.909   3.508
 2991TIP3   OH2 8936   6.437   2.290   0.658
 2991TIP3    H1 8937   6.366   2.342   0.696
 2991TIP3    H2 8938   6.408   2.200   0.666
 2992TIP3   OH2 8939   1.194   2.757   4.300
 2992TIP3    H1 8940   1.182   2.834   4.244
 2992TIP3    H2 8941   1.106   2.725   4.316
 2993TIP3   OH2 8942   3.155   6.508   0.067
 2993TIP3    H1 8943   3.125   6.437   0.125
 2993TIP3    H2 8944   3.198   6.463  -0.005
 2994TIP3   OH2 8945   3.483   4.051   0.374
 2994TIP3    H1 8946   3.443   4.137   0.362
 2994TIP3    H2 8947   3.506   4.047   0.466
 2995TIP3   OH2 8948   5.431   5.483   4.403
 2995TIP3    H1 8949   5.492   5.503   4.474
 2995TIP3    H2 8950   5.487   5.454   4.331
 2996TIP3   OH2 8951   0.071   0.697   3.889
 2996TIP3    H1 8952   0.101   0.642   3.817
 2996TIP3    H2 8953  -0.006   0.651   3.924
 2997TIP3   OH2 8954   1.351   2.391   2.087
 2997TIP3    H1 8955   1.435   2.348   2.104
 2997TIP3    H2 8956   1.365   2.482   2.114
 2998TIP3   OH2 8957   3.772   1.302   2.967
 2998TIP3    H1 8958   3.772   1.269   3.057
 2998TIP3    H2 8959   3.697   1.260   2.925
 2999TIP3   OH2 8960   0.544   4.947   3.708
 2999TIP3    H1 8961   0.544   4.875   3.771
 2999TIP3    H2 8962   0.464   4.936   3.658
 3000TIP3   OH2 8963   1.420   0.578   4.907
 3000TIP3    H1 8964   1.389   0.636   4.838
 3000TIP3    H2 8965   1.428   0.492   4.866
 3001TIP3   OH2 8966   0.264   1.389   0.171
 3001TIP3    H1 8967   0.178   1.424   0.192
 3001TIP3    H2 8968   0.268   1.389   0.076
 3002TIP3   OH2 8969   0.170   5.884   2.750
 3002TIP3    H1 8970   0.232   5.931   2.695
 3002TIP3    H2 8971   0.195   5.908   2.839
 3003TIP3   OH2 8972   0.570   0.141   0.809
 3003TIP3    H1 8973   0.612   0.131   0.724
 3003TIP3    H2 8974   0.599   0.065   0.859
 3004TIP3   OH2 8975   1.735   2.960   0.993
 3004TIP3    H1 8976   1.740   3.005   0.909
 3004TIP3    H2 8977   1.731   2.867   0.971
 3005TIP3   OH2 8978  -0.030   1.398   1.282
 3005TIP3    H1 8979   0.058   1.369   1.261
 3005TIP3    H2 8980  -0.081   1.380   1.203
 3006TIP3   OH2 8981   0.088   2.264   4.293
 3006TIP3    H1 8982   0.033   2.289   4.367
 3006TIP3    H2 8983   0.142   2.193   4.326
 3007TIP3   OH2 8984   1.399   4.524   0.499
 3007TIP3    H1 8985   1.313   4.557   0.473
 3007TIP3    H2 8986   1.428   4.472   0.424
 3008TIP3   OH2 8987   3.896   1.144   0.307
 3008TIP3    H1 8988   3.968   1.128   0.246
 3008TIP3    H2 8989   3.930   1.210   0.368
 3009TIP3   OH2 8990   6.853   0.078   1.220
 3009TIP3    H1 8991   6.838   0.005   1.279
 3009TIP3    H2 8992   6.926   0.050   1.164
 3010TIP3   OH2 8993   0.198   1.067   3.122
 3010TIP3    H1 8994   0.120   1.066   3.178
 3010TIP3    H2 8995   0.165   1.080   3.034
 3011TIP3   OH2 8996   0.118   3.656   2.765
 3011TIP3    H1 8997   0.195   3.602   2.748
 3011TIP3    H2 8998   0.083   3.677   2.679
 3012TIP3   OH2 8999   1.416   4.005   3.248
 3012TIP3    H1 9000   1.364   3.961   3.316
 3012TIP3    H2 9001   1.490   4.043   3.295
 3013TIP3   OH2 9002   3.109   0.522   0.721
 3013TIP3    H1 9003   3.149   0.600   0.682
 3013TIP3    H2 9004   3.016   0.544   0.729
 3014TIP3   OH2 9005   1.125   3.655   3.050
 3014TIP3    H1 9006   1.219   3.659   3.069
 3014TIP3    H2 9007   1.099   3.568   3.080
 3015TIP3   OH2 9008   2.449   0.914   0.512
 3015TIP3    H1 9009   2.464   0.935   0.420
 3015TIP3    H2 9010   2.474   0.993   0.560
 3016TIP3   OH2 9011   3.699   1.848   4.583
 3016TIP3    H1 9012   3.661   1.767   4.548
 3016TIP3    H2 9013   3.781   1.819   4.624
 3017TIP3   OH2 9014   2.770   5.544   0.369
 3017TIP3    H1 9015   2.769   5.463   0.420
 3017TIP3    H2 9016   2.742   5.518   0.281
 3018TIP3   OH2 9017   0.380   6.108   4.833
 3018TIP3    H1 9018   0.351   6.051   4.762
 3018TIP3    H2 9019   0.426   6.180   4.789
 3019TIP3   OH2 9020   3.599   2.481   4.474
 3019TIP3    H1 9021   3.504   2.472   4.469
 3019TIP3    H2 9022   3.630   2.465   4.384
 3020TIP3   OH2 9023   1.760   4.425   5.771
 3020TIP3    H1 9024   1.794   4.460   5.689
 3020TIP3    H2 9025   1.667   4.412   5.756
 3021TIP3   OH2 9026   3.529   2.422   0.653
 3021TIP3    H1 9027   3.460   2.376   0.605
 3021TIP3    H2 9028   3.610   2.384   0.620
 3022TIP3   OH2 9029   3.905   2.999   3.524
 3022TIP3    H1 9030   3.859   2.995   3.440
 3022TIP3    H2 9031   3.943   2.911   3.535
 3023TIP3   OH2 9032   6.658   6.576   4.789
 3023TIP3    H1 9033   6.581   6.627   4.762
 3023TIP3    H2 9034   6.722   6.592   4.720
 3024TIP3   OH2 9035   4.629   4.223   3.747
 3024TIP3    H1 9036   4.557   4.192   3.693
 3024TIP3    H2 9037   4.690   4.149   3.751
 3025TIP3   OH2 9038   4.419   3.841   4.203
 3025TIP3    H1 9039   4.384   3.752   4.199
 3025TIP3    H2 9040   4.342   3.897   4.205
 3026TIP3   OH2 9041   0.380   1.658   4.061
 3026TIP3    H1 9042   0.368   1.698   4.148
 3026TIP3    H2 9043   0.454   1.706   4.023
 3027TIP3   OH2 9044   4.100   6.448   1.038
 3027TIP3    H1 9045   4.053   6.504   0.976
 3027TIP3    H2 9046   4.148   6.508   1.094
 3028TIP3   OH2 9047   5.216   1.892   3.222
 3028TIP3    H1 9048   5.164   1.861   3.296
 3028TIP3    H2 9049   5.151   1.918   3.156
 3029TIP3   OH2 9050   5.071   0.591   1.173
 3029TIP3    H1 9051   4.998   0.605   1.234
 3029TIP3    H2 9052   5.029   0.579   1.088
 3030TIP3   OH2 9053   6.151   0.714   3.300
 3030TIP3    H1 9054   6.159   0.635   3.353
 3030TIP3    H2 9055   6.240   0.748   3.293
 3031TIP3   OH2 9056   1.072   6.287   2.670
 3031TIP3    H1 9057   0.979   6.271   2.652
 3031TIP3    H2 9058   1.115   6.206   2.643
 3032TIP3   OH2 9059   2.620   1.893   4.798
 3032TIP3    H1 9060   2.703   1.940   4.785
 3032TIP3    H2 9061   2.581   1.936   4.875
 3033TIP3   OH2 9062   2.065   4.774   2.379
 3033TIP3    H1 9063   2.081   4.812   2.293
 3033TIP3    H2 9064   1.986   4.817   2.411
 3034TIP3   OH2 9065   3.021   1.687   1.194
 3034TIP3    H1 9066   2.947   1.640   1.154
 3034TIP3    H2 9067   3.026   1.769   1.145
 3035TIP3   OH2 9068   6.839   3.775   4.505
 3035TIP3    H1 9069   6.845   3.866   4.533
 3035TIP3    H2 9070   6.828   3.779   4.410
 3036TIP3   OH2 9071   0.239   3.904   2.216
 3036TIP3    H1 9072   0.253   3.924   2.123
 3036TIP3    H2 9073   0.166   3.841   2.216
 3037TIP3   OH2 9074   7.088   1.586   1.972
 3037TIP3    H1 9075   7.162   1.585   1.911
 3037TIP3    H2 9076   7.024   1.527   1.933
 3038TIP3   OH2 9077   0.674   4.320   3.260
 3038TIP3    H1 9078   0.753   4.284   3.219
 3038TIP3    H2 9079   0.677   4.413   3.240
 3039TIP3   OH2 9080   2.134   4.486   0.049
 3039TIP3    H1 9081   2.123   4.396   0.080
 3039TIP3    H2 9082   2.074   4.494  -0.024
 3040TIP3   OH2 9083   5.320   1.579   0.971
 3040TIP3    H1 9084   5.271   1.606   0.893
 3040TIP3    H2 9085   5.384   1.649   0.984
 3041TIP3   OH2 9086   0.860   4.228   3.647
 3041TIP3    H1 9087   0.938   4.279   3.668
 3041TIP3    H2 9088   0.888   4.167   3.579
 3042TIP3   OH2 9089   4.388   0.672   0.701
 3042TIP3    H1 9090   4.463   0.727   0.722
 3042TIP3    H2 9091   4.401   0.592   0.751
 3043TIP3   OH2 9092   1.935   0.257   2.182
 3043TIP3    H1 9093   1.862   0.229   2.127
 3043TIP3    H2 9094   1.898   0.260   2.270
 3044TIP3   OH2 9095   6.260   0.899   1.889
 3044TIP3    H1 9096   6.225   0.812   1.905
 3044TIP3    H2 9097   6.296   0.927   1.974
 3045TIP3   OH2 9098   1.667   5.565   4.416
 3045TIP3    H1 9099   1.739   5.521   4.462
 3045TIP3    H2 9100   1.707   5.602   4.337
 3046TIP3   OH2 9101   1.028   6.819   3.243
 3046TIP3    H1 9102   1.008   6.766   3.166
 3046TIP3    H2 9103   1.121   6.803   3.259
 3047TIP3   OH2 9104   6.157   0.354   3.857
 3047TIP3    H1 9105   6.175   0.262   3.839
 3047TIP3    H2 9106   6.112   0.354   3.941
 3048TIP3   OH2 9107   4.579   3.046   4.269
 3048TIP3    H1 9108   4.671   3.067   4.284
 3048TIP3    H2 9109   4.566   2.962   4.313
 3049TIP3   OH2 9110   6.391   6.415   4.360
 3049TIP3    H1 9111   6.451   6.465   4.416
 3049TIP3    H2 9112   6.317   6.473   4.346
 3050TIP3   OH2 9113   2.254   2.195   4.632
 3050TIP3    H1 9114   2.227   2.116   4.585
 3050TIP3    H2 9115   2.299   2.248   4.567
 3051TIP3   OH2 9116   3.788   1.826   5.834
 3051TIP3    H1 9117   3.873   1.821   5.877
 3051TIP3    H2 9118   3.805   1.872   5.752
 3052TIP3   OH2 9119   5.834   3.254   4.677
 3052TIP3    H1 9120   5.908   3.274   4.621
 3052TIP3    H2 9121   5.776   3.330   4.670
 3053TIP3   OH2 9122   1.533   5.285   5.291
 3053TIP3    H1 9123   1.574   5.371   5.288
 3053TIP3    H2 9124   1.507   5.268   5.200
 3054TIP3   OH2 9125   6.483   6.539   2.156
 3054TIP3    H1 9126   6.454   6.622   2.195
 3054TIP3    H2 9127   6.460   6.473   2.221
 3055TIP3   OH2 9128   0.224   6.349   4.899
 3055TIP3    H1 9129   0.243   6.257   4.913
 3055TIP3    H2 9130   0.267   6.394   4.972
 3056TIP3   OH2 9131   6.187   5.365   3.518
 3056TIP3    H1 9132   6.147   5.395   3.600
 3056TIP3    H2 9133   6.119   5.311   3.477
 3057TIP3   OH2 9134   3.720   2.620   2.113
 3057TIP3    H1 9135   3.666   2.698   2.111
 3057TIP3    H2 9136   3.665   2.551   2.077
 3058TIP3   OH2 9137   5.165   6.751   3.325
 3058TIP3    H1 9138   5.107   6.788   3.259
 3058TIP3    H2 9139   5.250   6.792   3.309
 3059TIP3   OH2 9140   3.827   6.249   5.593
 3059TIP3    H1 9141   3.907   6.243   5.647
 3059TIP3    H2 9142   3.764   6.192   5.638
 3060TIP3   OH2 9143   2.704   4.872   3.047
 3060TIP3    H1 9144   2.771   4.834   3.104
 3060TIP3    H2 9145   2.729   4.964   3.039
 3061TIP3   OH2 9146   4.387   0.615   5.640
 3061TIP3    H1 9147   4.368   0.608   5.546
 3061TIP3    H2 9148   4.306   0.591   5.683
 3062TIP3   OH2 9149   4.766   3.116   3.700
 3062TIP3    H1 9150   4.729   3.177   3.764
 3062TIP3    H2 9151   4.843   3.161   3.666
 3063TIP3   OH2 9152   5.568   1.561   2.351
 3063TIP3    H1 9153   5.517   1.484   2.324
 3063TIP3    H2 9154   5.632   1.573   2.280
 3064TIP3   OH2 9155   5.136   2.600   2.402
 3064TIP3    H1 9156   5.104   2.685   2.433
 3064TIP3    H2 9157   5.057   2.549   2.387
 3065TIP3   OH2 9158   1.866   5.676   3.418
 3065TIP3    H1 9159   1.839   5.738   3.485
 3065TIP3    H2 9160   1.957   5.656   3.439
 3066TIP3   OH2 9161   6.358   6.507   0.491
 3066TIP3    H1 9162   6.377   6.549   0.407
 3066TIP3    H2 9163   6.264   6.491   0.489
 3067TIP3   OH2 9164   6.400   2.944   4.478
 3067TIP3    H1 9165   6.343   2.884   4.525
 3067TIP3    H2 9166   6.424   3.010   4.544
 3068TIP3   OH2 9167   1.778   2.025   1.750
 3068TIP3    H1 9168   1.790   1.945   1.697
 3068TIP3    H2 9169   1.841   2.016   1.821
 3069TIP3   OH2 9170   6.137   4.499   5.008
 3069TIP3    H1 9171   6.127   4.429   5.072
 3069TIP3    H2 9172   6.052   4.544   5.009
 3070TIP3   OH2 9173   7.108   0.873   0.354
 3070TIP3    H1 9174   7.140   0.813   0.422
 3070TIP3    H2 9175   7.170   0.946   0.357
 3071TIP3   OH2 9176   2.052   2.081   1.180
 3071TIP3    H1 9177   2.028   2.167   1.213
 3071TIP3    H2 9178   2.146   2.074   1.196
 3072TIP3   OH2 9179   5.656   2.649   0.188
 3072TIP3    H1 9180   5.668   2.728   0.136
 3072TIP3    H2 9181   5.642   2.681   0.277
 3073TIP3   OH2 9182   5.776   3.199   4.115
 3073TIP3    H1 9183   5.859   3.204   4.069
 3073TIP3    H2 9184   5.738   3.116   4.089
 3074TIP3   OH2 9185   0.532   4.924   1.104
 3074TIP3    H1 9186   0.442   4.915   1.135
 3074TIP3    H2 9187   0.524   4.965   1.018
 3075TIP3   OH2 9188   3.753   3.952   0.253
 3075TIP3    H1 9189   3.663   3.977   0.271
 3075TIP3    H2 9190   3.804   4.032   0.269
 3076TIP3   OH2 9191   4.926   0.575   5.025
 3076TIP3    H1 9192   4.921   0.609   4.936
 3076TIP3    H2 9193   4.962   0.486   5.015
 3077TIP3   OH2 9194   4.437   4.393   1.485
 3077TIP3    H1 9195   4.406   4.378   1.396
 3077TIP3    H2 9196   4.363   4.432   1.531
 3078TIP3   OH2 9197   2.211   3.295   4.234
 3078TIP3    H1 9198   2.155   3.230   4.276
 3078TIP3    H2 9199   2.262   3.246   4.170
 3079TIP3   OH2 9200   4.982   1.939   5.104
 3079TIP3    H1 9201   5.046   1.880   5.063
 3079TIP3    H2 9202   4.979   1.912   5.195
 3080TIP3   OH2 9203   2.273   3.696   3.737
 3080TIP3    H1 9204   2.275   3.609   3.776
 3080TIP3    H2 9205   2.333   3.691   3.663
 3081TIP3   OH2 9206   6.906   1.408   5.306
 3081TIP3    H1 9207   6.822   1.454   5.303
 3081TIP3    H2 9208   6.912   1.374   5.395
 3082TIP3   OH2 9209   5.311   1.073   2.148
 3082TIP3    H1 9210   5.260   1.005   2.105
 3082TIP3    H2 9211   5.402   1.049   2.131
 3083TIP3   OH2 9212   2.894   4.529   1.119
 3083TIP3    H1 9213   2.963   4.553   1.057
 3083TIP3    H2 9214   2.884   4.605   1.176
 3084TIP3   OH2 9215   4.327   2.927   4.850
 3084TIP3    H1 9216   4.315   3.013   4.810
 3084TIP3    H2 9217   4.306   2.865   4.780
 3085TIP3   OH2 9218   4.309   1.632   2.541
 3085TIP3    H1 9219   4.315   1.657   2.449
 3085TIP3    H2 9220   4.376   1.565   2.553
 3086TIP3   OH2 9221   5.891   2.202   5.323
 3086TIP3    H1 9222   5.851   2.289   5.323
 3086TIP3    H2 9223   5.912   2.186   5.415
 3087TIP3   OH2 9224   4.564   6.353   5.328
 3087TIP3    H1 9225   4.516   6.285   5.376
 3087TIP3    H2 9226   4.551   6.433   5.379
 3088TIP3   OH2 9227   3.143   0.542   1.191
 3088TIP3    H1 9228   3.199   0.492   1.132
 3088TIP3    H2 9229   3.195   0.551   1.271
 3089TIP3   OH2 9230   5.172   5.908   2.327
 3089TIP3    H1 9231   5.105   5.974   2.311
 3089TIP3    H2 9232   5.144   5.864   2.407
 3090TIP3   OH2 9233   6.384   4.165   1.793
 3090TIP3    H1 9234   6.334   4.246   1.809
 3090TIP3    H2 9235   6.454   4.167   1.857
 3091TIP3   OH2 9236   4.411   3.753   2.797
 3091TIP3    H1 9237   4.503   3.782   2.793
 3091TIP3    H2 9238   4.411   3.666   2.757
 3092TIP3   OH2 9239   2.602   6.611   3.202
 3092TIP3    H1 9240   2.623   6.631   3.293
 3092TIP3    H2 9241   2.649   6.529   3.185
 3093TIP3   OH2 9242   4.418   3.611   5.437
 3093TIP3    H1 9243   4.408   3.574   5.525
 3093TIP3    H2 9244   4.389   3.702   5.446
 3094TIP3   OH2 9245  -0.026   2.493   1.523
 3094TIP3    H1 9246   0.059   2.522   1.555
 3094TIP3    H2 9247  -0.012   2.473   1.431
 3095TIP3   OH2 9248   5.006   0.293   1.181
 3095TIP3    H1 9249   4.958   0.316   1.102
 3095TIP3    H2 9250   5.032   0.377   1.218
 3096TIP3   OH2 9251   6.727   6.150   1.859
 3096TIP3    H1 9252   6.749   6.078   1.917
 3096TIP3    H2 9253   6.785   6.137   1.783
 3097TIP3   OH2 9254   3.453   5.029   4.307
 3097TIP3    H1 9255   3.381   5.089   4.330
 3097TIP3    H2 9256   3.411   4.962   4.253
 3098TIP3   OH2 9257   5.502   2.642   2.474
 3098TIP3    H1 9258   5.543   2.597   2.548
 3098TIP3    H2 9259   5.569   2.642   2.405
 3099TIP3   OH2 9260   4.382   2.055   5.502
 3099TIP3    H1 9261   4.403   1.968   5.467
 3099TIP3    H2 9262   4.332   2.037   5.581
 3100TIP3   OH2 9263   6.061   4.410   2.326
 3100TIP3    H1 9264   6.030   4.500   2.314
 3100TIP3    H2 9265   6.152   4.419   2.353
 3101TIP3   OH2 9266   3.885   2.577   3.255
 3101TIP3    H1 9267   3.858   2.664   3.223
 3101TIP3    H2 9268   3.974   2.566   3.223
 3102TIP3   OH2 9269   5.330   2.413   0.789
 3102TIP3    H1 9270   5.411   2.364   0.804
 3102TIP3    H2 9271   5.288   2.418   0.875
 3103TIP3   OH2 9272   4.987   2.848   4.195
 3103TIP3    H1 9273   4.997   2.864   4.102
 3103TIP3    H2 9274   4.897   2.816   4.204
 3104TIP3   OH2 9275   1.012   2.012   1.601
 3104TIP3    H1 9276   1.016   1.951   1.527
 3104TIP3    H2 9277   0.924   2.002   1.636
 3105TIP3   OH2 9278   0.853   4.937   4.390
 3105TIP3    H1 9279   0.804   5.014   4.361
 3105TIP3    H2 9280   0.787   4.870   4.403
 3106TIP3   OH2 9281   2.277   3.616   1.250
 3106TIP3    H1 9282   2.189   3.579   1.257
 3106TIP3    H2 9283   2.306   3.625   1.341
 3107TIP3   OH2 9284   5.287   5.777   5.644
 3107TIP3    H1 9285   5.306   5.696   5.597
 3107TIP3    H2 9286   5.332   5.845   5.593
 3108TIP3   OH2 9287   3.598   5.282   5.768
 3108TIP3    H1 9288   3.664   5.332   5.721
 3108TIP3    H2 9289   3.567   5.217   5.704
 3109TIP3   OH2 9290   0.076   6.704   3.294
 3109TIP3    H1 9291   0.148   6.673   3.349
 3109TIP3    H2 9292   0.014   6.631   3.292
 3110TIP3   OH2 9293   6.277   0.385   4.814
 3110TIP3    H1 9294   6.215   0.312   4.811
 3110TIP3    H2 9295   6.363   0.344   4.814
 3111TIP3   OH2 9296   0.599   2.655   0.631
 3111TIP3    H1 9297   0.678   2.604   0.648
 3111TIP3    H2 9298   0.528   2.591   0.632
 3112TIP3   OH2 9299   0.423   5.622   2.768
 3112TIP3    H1 9300   0.333   5.596   2.749
 3112TIP3    H2 9301   0.420   5.655   2.857
 3113TIP3   OH2 9302   6.773   6.538   3.624
 3113TIP3    H1 9303   6.680   6.558   3.628
 3113TIP3    H2 9304   6.812   6.614   3.581
 3114TIP3   OH2 9305   4.180   1.695   5.145
 3114TIP3    H1 9306   4.220   1.643   5.215
 3114TIP3    H2 9307   4.250   1.751   5.113
 3115TIP3   OH2 9308   1.737   0.320   0.835
 3115TIP3    H1 9309   1.713   0.243   0.887
 3115TIP3    H2 9310   1.833   0.317   0.830
 3116TIP3   OH2 9311   5.947   2.279   2.363
 3116TIP3    H1 9312   6.023   2.336   2.374
 3116TIP3    H2 9313   5.957   2.241   2.276
 3117TIP3   OH2 9314   2.129   1.137   0.643
 3117TIP3    H1 9315   2.159   1.064   0.589
 3117TIP3    H2 9316   2.090   1.096   0.719
 3118TIP3   OH2 9317   5.044   3.170   0.753
 3118TIP3    H1 9318   5.067   3.250   0.706
 3118TIP3    H2 9319   4.957   3.187   0.789
 3119TIP3   OH2 9320   4.290   0.502   1.138
 3119TIP3    H1 9321   4.261   0.593   1.142
 3119TIP3    H2 9322   4.308   0.479   1.229
 3120TIP3   OH2 9323   3.216   2.901   4.415
 3120TIP3    H1 9324   3.138   2.855   4.446
 3120TIP3    H2 9325   3.279   2.892   4.486
 3121TIP3   OH2 9326   2.680   6.453   1.396
 3121TIP3    H1 9327   2.694   6.363   1.425
 3121TIP3    H2 9328   2.769   6.485   1.377
 3122TIP3   OH2 9329   0.397   5.190   4.196
 3122TIP3    H1 9330   0.332   5.213   4.263
 3122TIP3    H2 9331   0.358   5.222   4.115
 3123TIP3   OH2 9332   4.816   5.379   0.938
 3123TIP3    H1 9333   4.899   5.372   0.890
 3123TIP3    H2 9334   4.841   5.416   1.023
 3124TIP3   OH2 9335   4.785   2.975   5.086
 3124TIP3    H1 9336   4.786   2.965   4.991
 3124TIP3    H2 9337   4.725   3.048   5.102
 3125TIP3   OH2 9338   0.601   0.985   2.686
 3125TIP3    H1 9339   0.512   0.953   2.668
 3125TIP3    H2 9340   0.587   1.062   2.741
 3126TIP3   OH2 9341   3.648   2.428   4.214
 3126TIP3    H1 9342   3.602   2.384   4.142
 3126TIP3    H2 9343   3.639   2.521   4.195
 3127TIP3   OH2 9344   2.314   2.538   4.221
 3127TIP3    H1 9345   2.396   2.583   4.240
 3127TIP3    H2 9346   2.338   2.461   4.170
 3128TIP3   OH2 9347   0.038   6.346   4.043
 3128TIP3    H1 9348   0.127   6.327   4.071
 3128TIP3    H2 9349  -0.011   6.266   4.063
 3129TIP3   OH2 9350   5.561   3.988   2.397
 3129TIP3    H1 9351   5.547   3.897   2.426
 3129TIP3    H2 9352   5.621   4.024   2.462
 3130TIP3   OH2 9353   2.598   4.164  -0.018
 3130TIP3    H1 9354   2.594   4.154   0.077
 3130TIP3    H2 9355   2.557   4.248  -0.035
 3131TIP3   OH2 9356   6.366   0.798   0.325
 3131TIP3    H1 9357   6.369   0.715   0.373
 3131TIP3    H2 9358   6.458   0.822   0.315
 3132TIP3   OH2 9359   5.805   2.449   0.071
 3132TIP3    H1 9360   5.780   2.358   0.091
 3132TIP3    H2 9361   5.751   2.502   0.130
 3133TIP3   OH2 9362   0.985   1.024   0.115
 3133TIP3    H1 9363   1.018   1.101   0.069
 3133TIP3    H2 9364   0.941   1.058   0.193
 3134TIP3   OH2 9365   1.862   4.500   1.150
 3134TIP3    H1 9366   1.884   4.446   1.074
 3134TIP3    H2 9367   1.801   4.447   1.201
 3135TIP3   OH2 9368   6.007   4.189   1.746
 3135TIP3    H1 9369   6.034   4.260   1.687
 3135TIP3    H2 9370   5.928   4.154   1.707
 3136TIP3   OH2 9371   1.008   4.158   2.065
 3136TIP3    H1 9372   0.952   4.222   2.021
 3136TIP3    H2 9373   1.096   4.196   2.060
 3137TIP3   OH2 9374   1.615   4.698   2.502
 3137TIP3    H1 9375   1.661   4.782   2.499
 3137TIP3    H2 9376   1.653   4.647   2.430
 3138TIP3   OH2 9377   0.890   5.169   0.258
 3138TIP3    H1 9378   0.812   5.182   0.311
 3138TIP3    H2 9379   0.888   5.240   0.195
 3139TIP3   OH2 9380   5.305   1.292   0.210
 3139TIP3    H1 9381   5.373   1.359   0.214
 3139TIP3    H2 9382   5.296   1.273   0.116
 3140TIP3   OH2 9383   5.494   4.624   3.245
 3140TIP3    H1 9384   5.489   4.640   3.151
 3140TIP3    H2 9385   5.404   4.601   3.269
 3141TIP3   OH2 9386   1.917   3.793   2.056
 3141TIP3    H1 9387   1.932   3.871   2.110
 3141TIP3    H2 9388   1.821   3.783   2.056
 3142TIP3   OH2 9389   2.383   6.003   0.034
 3142TIP3    H1 9390   2.388   5.928   0.093
 3142TIP3    H2 9391   2.302   5.989  -0.015
 3143TIP3   OH2 9392   2.384   2.108   0.915
 3143TIP3    H1 9393   2.324   2.055   0.862
 3143TIP3    H2 9394   2.355   2.198   0.900
 3144TIP3   OH2 9395   5.518   0.434   1.874
 3144TIP3    H1 9396   5.548   0.483   1.797
 3144TIP3    H2 9397   5.560   0.349   1.865
 3145TIP3   OH2 9398   6.002   2.642   1.602
 3145TIP3    H1 9399   5.956   2.603   1.676
 3145TIP3    H2 9400   6.027   2.729   1.632
 3146TIP3   OH2 9401   3.349   1.512   1.135
 3146TIP3    H1 9402   3.261   1.487   1.106
 3146TIP3    H2 9403   3.393   1.428   1.152
 3147TIP3   OH2 9404   0.187   5.928   3.391
 3147TIP3    H1 9405   0.116   5.921   3.327
 3147TIP3    H2 9406   0.190   5.841   3.431
 3148TIP3   OH2 9407   4.376   4.004   3.911
 3148TIP3    H1 9408   4.403   3.964   3.994
 3148TIP3    H2 9409   4.374   4.098   3.930
 3149TIP3   OH2 9410   3.729   0.651  -0.015
 3149TIP3    H1 9411   3.787   0.673   0.057
 3149TIP3    H2 9412   3.658   0.601   0.026
 3150TIP3   OH2 9413   5.824   5.074   3.867
 3150TIP3    H1 9414   5.831   4.982   3.841
 3150TIP3    H2 9415   5.747   5.107   3.821
 3151TIP3   OH2 9416   5.050   3.899   5.695
 3151TIP3    H1 9417   5.106   3.968   5.661
 3151TIP3    H2 9418   4.998   3.870   5.620
 3152TIP3   OH2 9419   1.842   2.291   0.982
 3152TIP3    H1 9420   1.906   2.245   0.928
 3152TIP3    H2 9421   1.884   2.299   1.067
 3153TIP3   OH2 9422   3.956   3.043   5.689
 3153TIP3    H1 9423   3.990   2.954   5.694
 3153TIP3    H2 9424   3.940   3.057   5.595
 3154TIP3   OH2 9425   3.838   5.096   5.562
 3154TIP3    H1 9426   3.931   5.079   5.551
 3154TIP3    H2 9427   3.816   5.056   5.647
 3155TIP3   OH2 9428   3.017   2.184   5.239
 3155TIP3    H1 9429   2.936   2.184   5.188
 3155TIP3    H2 9430   3.082   2.222   5.180
 3156TIP3   OH2 9431   1.660   0.061   2.881
 3156TIP3    H1 9432   1.613   0.103   2.809
 3156TIP3    H2 9433   1.621   0.097   2.960
 3157TIP3   OH2 9434   2.697   6.243   5.353
 3157TIP3    H1 9435   2.673   6.152   5.335
 3157TIP3    H2 9436   2.698   6.285   5.267
 3158TIP3   OH2 9437   5.567   2.992   2.261
 3158TIP3    H1 9438   5.556   3.005   2.355
 3158TIP3    H2 9439   5.498   3.046   2.221
 3159TIP3   OH2 9440   1.534   2.658   4.606
 3159TIP3    H1 9441   1.492   2.723   4.549
 3159TIP3    H2 9442   1.487   2.577   4.588
 3160TIP3   OH2 9443   0.854   0.284   1.799
 3160TIP3    H1 9444   0.771   0.264   1.756
 3160TIP3    H2 9445   0.831   0.297   1.891
 3161TIP3   OH2 9446   5.094   3.970   4.091
 3161TIP3    H1 9447   5.113   4.022   4.013
 3161TIP3    H2 9448   5.180   3.949   4.127
 3162TIP3   OH2 9449   2.507   1.007   3.525
 3162TIP3    H1 9450   2.471   0.921   3.545
 3162TIP3    H2 9451   2.445   1.070   3.562
 3163TIP3   OH2 9452   4.034   3.758   0.893
 3163TIP3    H1 9453   4.000   3.761   0.803
 3163TIP3    H2 9454   4.093   3.682   0.894
 3164TIP3   OH2 9455   0.967   2.447   1.797
 3164TIP3    H1 9456   1.044   2.412   1.843
 3164TIP3    H2 9457   0.968   2.540   1.817
 3165TIP3   OH2 9458   5.848   4.811   3.882
 3165TIP3    H1 9459   5.858   4.790   3.975
 3165TIP3    H2 9460   5.837   4.727   3.839
 3166TIP3   OH2 9461   2.871   0.412   3.795
 3166TIP3    H1 9462   2.801   0.475   3.811
 3166TIP3    H2 9463   2.870   0.399   3.700
 3167TIP3   OH2 9464   1.059   0.399   2.158
 3167TIP3    H1 9465   1.150   0.428   2.159
 3167TIP3    H2 9466   1.064   0.304   2.166
 3168TIP3   OH2 9467   1.413   4.880   1.358
 3168TIP3    H1 9468   1.331   4.831   1.365
 3168TIP3    H2 9469   1.457   4.843   1.282
 3169TIP3   OH2 9470   5.996   5.944   5.237
 3169TIP3    H1 9471   5.935   5.876   5.209
 3169TIP3    H2 9472   5.953   5.984   5.313
 3170TIP3   OH2 9473   2.781   4.768   1.217
 3170TIP3    H1 9474   2.707   4.711   1.198
 3170TIP3    H2 9475   2.743   4.856   1.223
 3171TIP3   OH2 9476   0.940   0.160   3.794
 3171TIP3    H1 9477   0.864   0.185   3.743
 3171TIP3    H2 9478   1.002   0.233   3.783
 3172TIP3   OH2 9479   2.915   2.550   2.267
 3172TIP3    H1 9480   2.969   2.579   2.193
 3172TIP3    H2 9481   2.830   2.531   2.229
 3173TIP3   OH2 9482   3.669   3.210   1.119
 3173TIP3    H1 9483   3.635   3.292   1.152
 3173TIP3    H2 9484   3.628   3.200   1.033
 3174TIP3   OH2 9485   5.444   2.359   4.882
 3174TIP3    H1 9486   5.497   2.284   4.857
 3174TIP3    H2 9487   5.484   2.391   4.963
 3175TIP3   OH2 9488   1.445   0.121   3.371
 3175TIP3    H1 9489   1.535   0.087   3.380
 3175TIP3    H2 9490   1.456   0.216   3.368
 3176TIP3   OH2 9491   0.809   3.765   0.966
 3176TIP3    H1 9492   0.809   3.680   0.922
 3176TIP3    H2 9493   0.878   3.758   1.032
 3177TIP3   OH2 9494   4.053   1.292   3.027
 3177TIP3    H1 9495   3.967   1.315   2.992
 3177TIP3    H2 9496   4.065   1.349   3.102
 3178TIP3   OH2 9497   3.402   3.345   0.542
 3178TIP3    H1 9498   3.319   3.393   0.546
 3178TIP3    H2 9499   3.466   3.402   0.584
 3179TIP3   OH2 9500   0.609   4.258   1.937
 3179TIP3    H1 9501   0.551   4.269   1.861
 3179TIP3    H2 9502   0.554   4.214   2.002
 3180TIP3   OH2 9503   5.047   1.252   3.580
 3180TIP3    H1 9504   4.966   1.215   3.544
 3180TIP3    H2 9505   5.117   1.208   3.531
 3181TIP3   OH2 9506   6.564   2.801   2.230
 3181TIP3    H1 9507   6.485   2.846   2.260
 3181TIP3    H2 9508   6.581   2.838   2.144
 3182TIP3   OH2 9509   4.376   5.605   1.161
 3182TIP3    H1 9510   4.303   5.597   1.099
 3182TIP3    H2 9511   4.426   5.680   1.129
 3183TIP3   OH2 9512   1.049   1.564   5.893
 3183TIP3    H1 9513   0.969   1.596   5.853
 3183TIP3    H2 9514   1.112   1.558   5.821
 3184TIP3   OH2 9515   1.148   3.268   0.464
 3184TIP3    H1 9516   1.230   3.254   0.416
 3184TIP3    H2 9517   1.152   3.360   0.492
 3185TIP3   OH2 9518   5.118   4.875   5.013
 3185TIP3    H1 9519   5.205   4.861   4.975
 3185TIP3    H2 9520   5.117   4.817   5.090
 3186TIP3   OH2 9521   2.577   2.197   4.771
 3186TIP3    H1 9522   2.502   2.202   4.830
 3186TIP3    H2 9523   2.538   2.181   4.685
 3187TIP3   OH2 9524   3.565   0.885   2.024
 3187TIP3    H1 9525   3.472   0.893   2.004
 3187TIP3    H2 9526   3.582   0.791   2.020
 3188TIP3   OH2 9527   0.542   0.063   4.635
 3188TIP3    H1 9528   0.577  -0.011   4.585
 3188TIP3    H2 9529   0.614   0.125   4.639
 3189TIP3   OH2 9530   1.082   0.731   3.625
 3189TIP3    H1 9531   1.164   0.689   3.600
 3189TIP3    H2 9532   1.059   0.784   3.549
 3190TIP3   OH2 9533   3.138   3.695   5.646
 3190TIP3    H1 9534   3.166   3.647   5.568
 3190TIP3    H2 9535   3.157   3.635   5.718
 3191TIP3   OH2 9536   1.308   6.447   2.604
 3191TIP3    H1 9537   1.309   6.542   2.605
 3191TIP3    H2 9538   1.219   6.424   2.631
 3192TIP3   OH2 9539   4.810   0.449   5.823
 3192TIP3    H1 9540   4.785   0.392   5.895
 3192TIP3    H2 9541   4.728   0.470   5.779
 3193TIP3   OH2 9542   3.920   3.135   4.569
 3193TIP3    H1 9543   3.833   3.141   4.529
 3193TIP3    H2 9544   3.912   3.186   4.650
 3194TIP3   OH2 9545   3.893   2.607   0.871
 3194TIP3    H1 9546   3.969   2.570   0.916
 3194TIP3    H2 9547   3.927   2.641   0.789
 3195TIP3   OH2 9548   6.614   3.832   5.775
 3195TIP3    H1 9549   6.705   3.813   5.796
 3195TIP3    H2 9550   6.574   3.746   5.764
 3196TIP3   OH2 9551   4.341   0.733   3.941
 3196TIP3    H1 9552   4.291   0.744   4.021
 3196TIP3    H2 9553   4.432   0.730   3.969
 3197TIP3   OH2 9554   2.001   6.751   1.937
 3197TIP3    H1 9555   2.070   6.717   1.994
 3197TIP3    H2 9556   1.998   6.845   1.956
 3198TIP3   OH2 9557   1.756   3.342   5.522
 3198TIP3    H1 9558   1.749   3.410   5.455
 3198TIP3    H2 9559   1.826   3.285   5.491
 3199TIP3   OH2 9560   3.520   3.029   3.421
 3199TIP3    H1 9561   3.442   3.063   3.463
 3199TIP3    H2 9562   3.581   3.102   3.420
 3200TIP3   OH2 9563   3.821   1.728   0.409
 3200TIP3    H1 9564   3.831   1.822   0.393
 3200TIP3    H2 9565   3.744   1.722   0.466
 3201TIP3   OH2 9566   5.442   4.233   2.492
 3201TIP3    H1 9567   5.499   4.192   2.428
 3201TIP3    H2 9568   5.354   4.227   2.454
 3202TIP3   OH2 9569   2.353   0.270   4.352
 3202TIP3    H1 9570   2.281   0.327   4.379
 3202TIP3    H2 9571   2.395   0.316   4.280
 3203TIP3   OH2 9572   0.267   2.846   2.421
 3203TIP3    H1 9573   0.196   2.783   2.435
 3203TIP3    H2 9574   0.229   2.912   2.364
 3204TIP3   OH2 9575   3.738   0.892   3.141
 3204TIP3    H1 9576   3.799   0.820   3.158
 3204TIP3    H2 9577   3.694   0.866   3.060
 3205TIP3   OH2 9578   3.324   4.555   5.546
 3205TIP3    H1 9579   3.236   4.583   5.522
 3205TIP3    H2 9580   3.366   4.634   5.581
 3206TIP3   OH2 9581   1.663   4.044   5.378
 3206TIP3    H1 9582   1.655   3.992   5.457
 3206TIP3    H2 9583   1.746   4.017   5.339
 3207TIP3   OH2 9584   0.685   2.930   2.298
 3207TIP3    H1 9585   0.671   2.899   2.209
 3207TIP3    H2 9586   0.716   3.020   2.288
 3208TIP3   OH2 9587   1.310   4.355   1.112
 3208TIP3    H1 9588   1.330   4.436   1.064
 3208TIP3    H2 9589   1.216   4.359   1.127
 3209TIP3   OH2 9590   2.652   6.263   0.582
 3209TIP3    H1 9591   2.676   6.185   0.631
 3209TIP3    H2 9592   2.668   6.241   0.490
 3210TIP3   OH2 9593   2.497   4.312   0.445
 3210TIP3    H1 9594   2.556   4.280   0.513
 3210TIP3    H2 9595   2.449   4.384   0.486
 3211TIP3   OH2 9596   5.620   5.721   1.264
 3211TIP3    H1 9597   5.525   5.725   1.260
 3211TIP3    H2 9598   5.650   5.802   1.223
 3212TIP3   OH2 9599   1.091   5.372   3.656
 3212TIP3    H1 9600   1.054   5.289   3.626
 3212TIP3    H2 9601   1.148   5.348   3.729
 3213TIP3   OH2 9602   2.613   2.858   0.168
 3213TIP3    H1 9603   2.685   2.913   0.199
 3213TIP3    H2 9604   2.536   2.889   0.216
 3214TIP3   OH2 9605   6.040   1.371   4.468
 3214TIP3    H1 9606   6.092   1.381   4.548
 3214TIP3    H2 9607   5.972   1.307   4.490
 3215TIP3   OH2 9608   1.160   1.064   5.799
 3215TIP3    H1 9609   1.141   1.138   5.741
 3215TIP3    H2 9610   1.152   1.101   5.887
 3216TIP3   OH2 9611   6.250   3.604   2.703
 3216TIP3    H1 9612   6.185   3.638   2.641
 3216TIP3    H2 9613   6.325   3.663   2.694
 3217TIP3   OH2 9614   4.631   5.633   5.942
 3217TIP3    H1 9615   4.592   5.608   5.859
 3217TIP3    H2 9616   4.685   5.709   5.922
 3218TIP3   OH2 9617   1.228   6.776   2.113
 3218TIP3    H1 9618   1.220   6.689   2.154
 3218TIP3    H2 9619   1.264   6.832   2.183
 3219TIP3   OH2 9620   4.377   0.171   2.162
 3219TIP3    H1 9621   4.469   0.188   2.184
 3219TIP3    H2 9622   4.353   0.243   2.104
 3220TIP3   OH2 9623   1.493   1.531   4.872
 3220TIP3    H1 9624   1.433   1.524   4.797
 3220TIP3    H2 9625   1.437   1.562   4.944
 3221TIP3   OH2 9626   5.773   4.389   4.358
 3221TIP3    H1 9627   5.818   4.311   4.325
 3221TIP3    H2 9628   5.793   4.390   4.452
 3222TIP3   OH2 9629   5.838   5.774   1.529
 3222TIP3    H1 9630   5.902   5.832   1.488
 3222TIP3    H2 9631   5.811   5.714   1.459
 3223TIP3   OH2 9632   0.774   3.261   2.808
 3223TIP3    H1 9633   0.774   3.179   2.857
 3223TIP3    H2 9634   0.741   3.237   2.721
 3224TIP3   OH2 9635   5.555   3.064   3.947
 3224TIP3    H1 9636   5.526   3.102   4.030
 3224TIP3    H2 9637   5.501   3.107   3.881
 3225TIP3   OH2 9638   6.096   4.596   4.239
 3225TIP3    H1 9639   6.184   4.618   4.271
 3225TIP3    H2 9640   6.091   4.501   4.244
 3226TIP3   OH2 9641   7.142   0.807   2.461
 3226TIP3    H1 9642   7.146   0.827   2.368
 3226TIP3    H2 9643   7.077   0.737   2.468
 3227TIP3   OH2 9644   4.452   4.701   5.057
 3227TIP3    H1 9645   4.507   4.763   5.010
 3227TIP3    H2 9646   4.460   4.620   5.008
 3228TIP3   OH2 9647   4.246   5.217   3.377
 3228TIP3    H1 9648   4.318   5.209   3.314
 3228TIP3    H2 9649   4.289   5.238   3.460
 3229TIP3   OH2 9650   6.512   2.485   2.051
 3229TIP3    H1 9651   6.486   2.558   1.995
 3229TIP3    H2 9652   6.582   2.441   2.002
 3230TIP3   OH2 9653   3.420   0.196   0.923
 3230TIP3    H1 9654   3.365   0.263   0.965
 3230TIP3    H2 9655   3.429   0.225   0.833
 3231TIP3   OH2 9656   2.785   2.126   2.895
 3231TIP3    H1 9657   2.809   2.219   2.888
 3231TIP3    H2 9658   2.756   2.102   2.807
 3232TIP3   OH2 9659   6.661   3.367   0.378
 3232TIP3    H1 9660   6.609   3.292   0.351
 3232TIP3    H2 9661   6.599   3.440   0.381
 3233TIP3   OH2 9662   4.005   4.347   3.723
 3233TIP3    H1 9663   3.989   4.265   3.768
 3233TIP3    H2 9664   3.992   4.327   3.631
 3234TIP3   OH2 9665   2.594   0.860   1.130
 3234TIP3    H1 9666   2.688   0.865   1.149
 3234TIP3    H2 9667   2.559   0.944   1.158
 3235TIP3   OH2 9668   1.481   6.638   4.223
 3235TIP3    H1 9669   1.521   6.632   4.309
 3235TIP3    H2 9670   1.425   6.561   4.216
 3236TIP3   OH2 9671   1.783   1.781   2.780
 3236TIP3    H1 9672   1.868   1.782   2.824
 3236TIP3    H2 9673   1.734   1.713   2.825
 3237TIP3   OH2 9674   4.392   5.070   1.826
 3237TIP3    H1 9675   4.404   4.976   1.807
 3237TIP3    H2 9676   4.435   5.082   1.911
 3238TIP3   OH2 9677   3.156   5.492   5.581
 3238TIP3    H1 9678   3.183   5.562   5.522
 3238TIP3    H2 9679   3.232   5.477   5.637
 3239TIP3   OH2 9680   0.751   3.640   2.228
 3239TIP3    H1 9681   0.720   3.556   2.196
 3239TIP3    H2 9682   0.847   3.634   2.223
 3240TIP3   OH2 9683   3.222   3.129   0.816
 3240TIP3    H1 9684   3.180   3.148   0.732
 3240TIP3    H2 9685   3.156   3.083   0.867
 3241TIP3   OH2 9686   4.235   0.392   4.887
 3241TIP3    H1 9687   4.296   0.431   4.824
 3241TIP3    H2 9688   4.174   0.463   4.908
 3242TIP3   OH2 9689   3.665   6.650   0.019
 3242TIP3    H1 9690   3.705   6.736   0.004
 3242TIP3    H2 9691   3.620   6.659   0.104
 3243TIP3   OH2 9692   6.080   1.113   5.799
 3243TIP3    H1 9693   6.038   1.122   5.713
 3243TIP3    H2 9694   6.082   1.202   5.834
 3244TIP3   OH2 9695   5.448   1.595   5.414
 3244TIP3    H1 9696   5.538   1.628   5.422
 3244TIP3    H2 9697   5.426   1.610   5.321
 3245TIP3   OH2 9698   5.521   4.759   3.002
 3245TIP3    H1 9699   5.524   4.715   2.917
 3245TIP3    H2 9700   5.447   4.820   2.995
 3246TIP3   OH2 9701   4.565   5.632   4.890
 3246TIP3    H1 9702   4.552   5.687   4.967
 3246TIP3    H2 9703   4.489   5.650   4.834
 3247TIP3   OH2 9704   1.080   5.620   0.106
 3247TIP3    H1 9705   1.153   5.570   0.069
 3247TIP3    H2 9706   1.120   5.676   0.172
 3248TIP3   OH2 9707   7.069   2.725   2.099
 3248TIP3    H1 9708   6.977   2.729   2.124
 3248TIP3    H2 9709   7.067   2.701   2.006
 3249TIP3   OH2 9710   2.685   3.643   3.371
 3249TIP3    H1 9711   2.622   3.648   3.299
 3249TIP3    H2 9712   2.740   3.720   3.361
 3250TIP3   OH2 9713   7.203   5.878   3.231
 3250TIP3    H1 9714   7.149   5.948   3.268
 3250TIP3    H2 9715   7.150   5.799   3.239
 3251TIP3   OH2 9716   7.067   6.611   0.499
 3251TIP3    H1 9717   7.118   6.691   0.513
 3251TIP3    H2 9718   7.129   6.551   0.458
 3252TIP3   OH2 9719   5.713   0.192   4.210
 3252TIP3    H1 9720   5.787   0.148   4.251
 3252TIP3    H2 9721   5.641   0.181   4.273
 3253TIP3   OH2 9722   1.246   4.819   4.013
 3253TIP3    H1 9723   1.211   4.793   4.098
 3253TIP3    H2 9724   1.194   4.770   3.950
 3254TIP3   OH2 9725   4.497   6.279   1.241
 3254TIP3    H1 9726   4.541   6.215   1.297
 3254TIP3    H2 9727   4.410   6.289   1.280
 3255TIP3   OH2 9728   3.833   4.838   5.221
 3255TIP3    H1 9729   3.902   4.847   5.287
 3255TIP3    H2 9730   3.787   4.758   5.246
 3256TIP3   OH2 9731   5.773   3.813   0.785
 3256TIP3    H1 9732   5.744   3.904   0.774
 3256TIP3    H2 9733   5.698   3.768   0.823
 3257TIP3   OH2 9734   3.561   1.916   5.368
 3257TIP3    H1 9735   3.601   1.846   5.420
 3257TIP3    H2 9736   3.632   1.978   5.353
 3258TIP3   OH2 9737   5.062   4.660   2.227
 3258TIP3    H1 9738   5.082   4.607   2.304
 3258TIP3    H2 9739   5.103   4.612   2.154
 3259TIP3   OH2 9740   5.414   1.665   3.572
 3259TIP3    H1 9741   5.448   1.648   3.660
 3259TIP3    H2 9742   5.485   1.713   3.528
 3260TIP3   OH2 9743   5.732   5.391   0.284
 3260TIP3    H1 9744   5.730   5.376   0.190
 3260TIP3    H2 9745   5.797   5.460   0.296
 3261TIP3   OH2 9746   2.878   1.040   1.457
 3261TIP3    H1 9747   2.815   1.099   1.498
 3261TIP3    H2 9748   2.963   1.080   1.474
 3262TIP3   OH2 9749   5.149   4.977   3.564
 3262TIP3    H1 9750   5.104   4.893   3.569
 3262TIP3    H2 9751   5.234   4.962   3.606
 3263TIP3   OH2 9752   3.613   0.527   2.848
 3263TIP3    H1 9753   3.645   0.612   2.819
 3263TIP3    H2 9754   3.691   0.479   2.873
 3264TIP3   OH2 9755   5.675   5.631   3.619
 3264TIP3    H1 9756   5.710   5.549   3.585
 3264TIP3    H2 9757   5.740   5.696   3.596
 3265TIP3   OH2 9758   5.793   5.795   5.447
 3265TIP3    H1 9759   5.805   5.752   5.362
 3265TIP3    H2 9760   5.705   5.833   5.442
 3266TIP3   OH2 9761   4.335   2.437   4.209
 3266TIP3    H1 9762   4.239   2.428   4.209
 3266TIP3    H2 9763   4.366   2.360   4.162
 3267TIP3   OH2 9764   1.922   5.737   3.050
 3267TIP3    H1 9765   1.938   5.803   2.983
 3267TIP3    H2 9766   1.929   5.784   3.133
 3268TIP3   OH2 9767   3.680   5.251   1.579
 3268TIP3    H1 9768   3.632   5.324   1.540
 3268TIP3    H2 9769   3.772   5.276   1.571
 3269TIP3   OH2 9770   4.769   3.285   2.903
 3269TIP3    H1 9771   4.728   3.347   2.843
 3269TIP3    H2 9772   4.759   3.326   2.989
 3270TIP3   OH2 9773   5.969   5.582   3.389
 3270TIP3    H1 9774   5.968   5.613   3.479
 3270TIP3    H2 9775   6.010   5.653   3.339
 3271TIP3   OH2 9776   6.973   0.256   2.675
 3271TIP3    H1 9777   6.954   0.299   2.758
 3271TIP3    H2 9778   6.906   0.189   2.666
 3272TIP3   OH2 9779   0.903   3.563   0.024
 3272TIP3    H1 9780   0.981   3.542  -0.026
 3272TIP3    H2 9781   0.931   3.560   0.116
 3273TIP3   OH2 9782   6.244   5.858   5.196
 3273TIP3    H1 9783   6.177   5.911   5.238
 3273TIP3    H2 9784   6.222   5.861   5.103
 3274TIP3   OH2 9785   1.353   6.738   5.691
 3274TIP3    H1 9786   1.377   6.647   5.677
 3274TIP3    H2 9787   1.356   6.778   5.604
 3275TIP3   OH2 9788   5.194   3.080   4.552
 3275TIP3    H1 9789   5.132   3.063   4.480
 3275TIP3    H2 9790   5.200   2.997   4.598
 3276TIP3   OH2 9791   2.269   4.635   0.833
 3276TIP3    H1 9792   2.195   4.641   0.894
 3276TIP3    H2 9793   2.290   4.726   0.812
 3277TIP3   OH2 9794   2.273   4.903   4.804
 3277TIP3    H1 9795   2.358   4.896   4.761
 3277TIP3    H2 9796   2.224   4.967   4.753
 3278TIP3   OH2 9797   0.188   6.151   5.117
 3278TIP3    H1 9798   0.119   6.135   5.052
 3278TIP3    H2 9799   0.230   6.066   5.129
 3279TIP3   OH2 9800   2.754   2.408   3.091
 3279TIP3    H1 9801   2.665   2.373   3.090
 3279TIP3    H2 9802   2.758   2.466   3.015
 3280TIP3   OH2 9803   4.077   1.112   5.405
 3280TIP3    H1 9804   4.096   1.124   5.312
 3280TIP3    H2 9805   3.996   1.063   5.408
 3281TIP3   OH2 9806   4.082   4.272   1.843
 3281TIP3    H1 9807   3.990   4.249   1.842
 3281TIP3    H2 9808   4.089   4.350   1.788
 3282TIP3   OH2 9809   1.046   2.717   1.869
 3282TIP3    H1 9810   1.031   2.766   1.950
 3282TIP3    H2 9811   1.011   2.773   1.800
 3283TIP3   OH2 9812   6.686   6.012   3.592
 3283TIP3    H1 9813   6.682   6.083   3.529
 3283TIP3    H2 9814   6.645   5.938   3.547
 3284TIP3   OH2 9815   3.937   5.232   5.885
 3284TIP3    H1 9816   3.972   5.318   5.861
 3284TIP3    H2 9817   3.988   5.170   5.834
 3285TIP3   OH2 9818   3.064   0.920   0.881
 3285TIP3    H1 9819   3.009   0.843   0.894
 3285TIP3    H2 9820   3.143   0.902   0.931
 3286TIP3   OH2 9821   5.469   3.189   4.172
 3286TIP3    H1 9822   5.491   3.135   4.248
 3286TIP3    H2 9823   5.474   3.279   4.205
 3287TIP3   OH2 9824   5.771   3.748   2.213
 3287TIP3    H1 9825   5.783   3.794   2.296
 3287TIP3    H2 9826   5.679   3.723   2.213
 3288TIP3   OH2 9827   1.163   4.329   5.631
 3288TIP3    H1 9828   1.097   4.392   5.662
 3288TIP3    H2 9829   1.111   4.259   5.590
 3289TIP3   OH2 9830   5.001   4.055   5.123
 3289TIP3    H1 9831   4.926   4.020   5.171
 3289TIP3    H2 9832   5.013   4.143   5.158
 3290TIP3   OH2 9833   0.413   1.739   3.030
 3290TIP3    H1 9834   0.438   1.664   2.976
 3290TIP3    H2 9835   0.370   1.701   3.106
 3291TIP3   OH2 9836   2.313   0.085   0.540
 3291TIP3    H1 9837   2.228   0.128   0.526
 3291TIP3    H2 9838   2.349   0.128   0.618
 3292TIP3   OH2 9839   4.708   1.353   3.270
 3292TIP3    H1 9840   4.703   1.431   3.324
 3292TIP3    H2 9841   4.750   1.288   3.325
 3293TIP3   OH2 9842   3.472   3.174   0.912
 3293TIP3    H1 9843   3.531   3.111   0.870
 3293TIP3    H2 9844   3.386   3.155   0.876
 3294TIP3   OH2 9845   6.815   0.008   2.823
 3294TIP3    H1 9846   6.780   0.067   2.889
 3294TIP3    H2 9847   6.761   0.024   2.745
 3295TIP3   OH2 9848   6.276   5.465   1.831
 3295TIP3    H1 9849   6.347   5.453   1.768
 3295TIP3    H2 9850   6.243   5.553   1.814
 3296TIP3   OH2 9851   5.997   3.625   2.085
 3296TIP3    H1 9852   6.073   3.679   2.104
 3296TIP3    H2 9853   5.924   3.671   2.125
 3297TIP3   OH2 9854   3.126   0.534   0.309
 3297TIP3    H1 9855   3.186   0.585   0.363
 3297TIP3    H2 9856   3.040   0.547   0.349
 3298TIP3   OH2 9857   3.073   3.543   4.681
 3298TIP3    H1 9858   3.147   3.579   4.730
 3298TIP3    H2 9859   3.113   3.482   4.619
 3299TIP3   OH2 9860   1.181   5.144   2.968
 3299TIP3    H1 9861   1.276   5.134   2.959
 3299TIP3    H2 9862   1.145   5.066   2.925
 3300TIP3   OH2 9863   6.691   1.172   4.580
 3300TIP3    H1 9864   6.749   1.235   4.623
 3300TIP3    H2 9865   6.740   1.089   4.583
 3301TIP3   OH2 9866   1.095   1.076   4.756
 3301TIP3    H1 9867   1.134   1.076   4.669
 3301TIP3    H2 9868   1.117   0.990   4.792
 3302TIP3   OH2 9869   4.317   5.774   4.124
 3302TIP3    H1 9870   4.245   5.729   4.081
 3302TIP3    H2 9871   4.319   5.861   4.084
 3303TIP3   OH2 9872   6.081   1.226   1.279
 3303TIP3    H1 9873   6.112   1.291   1.216
 3303TIP3    H2 9874   6.159   1.203   1.329
 3304TIP3   OH2 9875   1.214   0.368   1.259
 3304TIP3    H1 9876   1.222   0.368   1.163
 3304TIP3    H2 9877   1.274   0.299   1.288
 3305TIP3   OH2 9878   0.741   0.411   5.595
 3305TIP3    H1 9879   0.730   0.431   5.502
 3305TIP3    H2 9880   0.826   0.449   5.618
 3306TIP3   OH2 9881   2.496   2.223   1.729
 3306TIP3    H1 9882   2.437   2.230   1.804
 3306TIP3    H2 9883   2.439   2.234   1.653
 3307TIP3   OH2 9884   2.010   4.743   0.531
 3307TIP3    H1 9885   1.961   4.761   0.451
 3307TIP3    H2 9886   2.021   4.647   0.531
 3308TIP3   OH2 9887   4.751   5.897   2.901
 3308TIP3    H1 9888   4.760   5.830   2.833
 3308TIP3    H2 9889   4.740   5.979   2.854
 3309TIP3   OH2 9890   2.229   6.670   2.110
 3309TIP3    H1 9891   2.247   6.604   2.044
 3309TIP3    H2 9892   2.289   6.650   2.181
 3310TIP3   OH2 9893   1.339   5.769   4.130
 3310TIP3    H1 9894   1.250   5.755   4.163
 3310TIP3    H2 9895   1.396   5.728   4.195
 3311TIP3   OH2 9896   6.642   5.177   2.493
 3311TIP3    H1 9897   6.669   5.185   2.585
 3311TIP3    H2 9898   6.647   5.266   2.459
 3312TIP3   OH2 9899   2.827   2.915   2.616
 3312TIP3    H1 9900   2.780   2.925   2.699
 3312TIP3    H2 9901   2.854   2.823   2.615
 3313TIP3   OH2 9902   5.889   0.657   1.394
 3313TIP3    H1 9903   5.845   0.658   1.480
 3313TIP3    H2 9904   5.842   0.590   1.345
 3314TIP3   OH2 9905   7.109   5.034   1.979
 3314TIP3    H1 9906   7.162   5.052   2.057
 3314TIP3    H2 9907   7.019   5.033   2.012
 3315TIP3   OH2 9908   6.625   6.063   0.658
 3315TIP3    H1 9909   6.573   6.125   0.607
 3315TIP3    H2 9910   6.560   6.000   0.691
 3316TIP3   OH2 9911   5.602   5.258   1.648
 3316TIP3    H1 9912   5.691   5.283   1.626
 3316TIP3    H2 9913   5.548   5.297   1.579
 3317TIP3   OH2 9914   1.668   1.494   2.556
 3317TIP3    H1 9915   1.626   1.579   2.571
 3317TIP3    H2 9916   1.659   1.479   2.462
 3318TIP3   OH2 9917   2.275   0.367   2.996
 3318TIP3    H1 9918   2.273   0.337   2.905
 3318TIP3    H2 9919   2.227   0.300   3.045
 3319TIP3   OH2 9920   1.727   1.234   1.456
 3319TIP3    H1 9921   1.796   1.191   1.507
 3319TIP3    H2 9922   1.653   1.242   1.516
 3320TIP3   OH2 9923   0.327   4.397   2.160
 3320TIP3    H1 9924   0.342   4.462   2.228
 3320TIP3    H2 9925   0.267   4.334   2.200
 3321TIP3   OH2 9926   4.649   3.747   2.174
 3321TIP3    H1 9927   4.641   3.734   2.079
 3321TIP3    H2 9928   4.571   3.797   2.198
 3322TIP3   OH2 9929   2.285   6.315   1.600
 3322TIP3    H1 9930   2.277   6.255   1.526
 3322TIP3    H2 9931   2.294   6.402   1.560
 3323TIP3   OH2 9932   1.280   3.326   5.423
 3323TIP3    H1 9933   1.364   3.297   5.457
 3323TIP3    H2 9934   1.223   3.250   5.430
 3324TIP3   OH2 9935   1.778   5.106   1.456
 3324TIP3    H1 9936   1.794   5.029   1.511
 3324TIP3    H2 9937   1.862   5.151   1.452
 3325TIP3   OH2 9938   4.463   3.875   0.485
 3325TIP3    H1 9939   4.454   3.962   0.447
 3325TIP3    H2 9940   4.495   3.820   0.413
 3326TIP3   OH2 9941   2.794   0.955   4.879
 3326TIP3    H1 9942   2.843   0.875   4.857
 3326TIP3    H2 9943   2.753   0.935   4.963
 3327TIP3   OH2 9944   2.816   0.104   1.615
 3327TIP3    H1 9945   2.897   0.109   1.563
 3327TIP3    H2 9946   2.755   0.162   1.569
 3328TIP3   OH2 9947   3.298   1.522   3.838
 3328TIP3    H1 9948   3.250   1.567   3.907
 3328TIP3    H2 9949   3.248   1.442   3.822
 3329TIP3   OH2 9950   4.523   1.183   4.397
 3329TIP3    H1 9951   4.560   1.257   4.351
 3329TIP3    H2 9952   4.564   1.185   4.483
 3330TIP3   OH2 9953   4.342   3.727   4.893
 3330TIP3    H1 9954   4.295   3.664   4.839
 3330TIP3    H2 9955   4.425   3.683   4.914
 3331TIP3   OH2 9956   6.313   4.499   1.245
 3331TIP3    H1 9957   6.259   4.566   1.203
 3331TIP3    H2 9958   6.391   4.492   1.190
 3332TIP3   OH2 9959   4.108   6.469   1.571
 3332TIP3    H1 9960   4.016   6.464   1.597
 3332TIP3    H2 9961   4.154   6.495   1.651
 3333TIP3   OH2 9962   6.302   3.555   1.920
 3333TIP3    H1 9963   6.280   3.648   1.926
 3333TIP3    H2 9964   6.361   3.540   1.994
 3334TIP3   OH2 9965   4.306   5.255   4.294
 3334TIP3    H1 9966   4.312   5.322   4.226
 3334TIP3    H2 9967   4.214   5.230   4.294
 3335TIP3   OH2 9968   7.089   4.423   1.628
 3335TIP3    H1 9969   7.119   4.504   1.670
 3335TIP3    H2 9970   7.010   4.399   1.677
 3336TIP3   OH2 9971   1.408   0.722   0.140
 3336TIP3    H1 9972   1.316   0.749   0.137
 3336TIP3    H2 9973   1.417   0.660   0.067
 3337TIP3   OH2 9974   4.977   1.010   0.435
 3337TIP3    H1 9975   4.937   1.084   0.481
 3337TIP3    H2 9976   5.067   1.037   0.418
 3338TIP3   OH2 9977   0.183   6.503   1.491
 3338TIP3    H1 9978   0.115   6.510   1.557
 3338TIP3    H2 9979   0.205   6.410   1.489
 3339TIP3   OH2 9980   2.306   6.121   2.691
 3339TIP3    H1 9981   2.257   6.184   2.637
 3339TIP3    H2 9982   2.283   6.144   2.781
 3340TIP3   OH2 9983   4.015   0.534   1.325
 3340TIP3    H1 9984   3.998   0.606   1.386
 3340TIP3    H2 9985   3.928   0.498   1.307
 3341TIP3   OH2 9986   0.789   6.830   5.590
 3341TIP3    H1 9987   0.837   6.797   5.514
 3341TIP3    H2 9988   0.778   6.754   5.647
 3342TIP3   OH2 9989   2.173   4.505   1.167
 3342TIP3    H1 9990   2.197   4.418   1.134
 3342TIP3    H2 9991   2.112   4.488   1.238
 3343TIP3   OH2 9992   5.237   6.223   0.490
 3343TIP3    H1 9993   5.163   6.279   0.466
 3343TIP3    H2 9994   5.206   6.134   0.474
 3344TIP3   OH2 9995   3.539   3.779   5.674
 3344TIP3    H1 9996   3.585   3.820   5.747
 3344TIP3    H2 9997   3.506   3.852   5.623
 3345TIP3   OH2 9998   2.039   0.315   0.807
 3345TIP3    H1 9999   2.129   0.283   0.814
 3345TIP3    H210000   2.040   0.399   0.852
 3346TIP3   OH210001   5.913   3.459   4.468
 3346TIP3    H110002   6.004   3.473   4.492
 3346TIP3    H210003   5.890   3.536   4.415
 3347TIP3   OH210004   2.438   6.374   2.926
 3347TIP3    H110005   2.431   6.469   2.936
 3347TIP3    H210006   2.484   6.362   2.843
 3348TIP3   OH210007   2.833   5.089   3.427
 3348TIP3    H110008   2.759   5.036   3.397
 3348TIP3    H210009   2.867   5.042   3.503
 3349TIP3   OH210010   1.886   2.782   1.267
 3349TIP3    H110011   1.841   2.808   1.347
 3349TIP3    H210012   1.819   2.785   1.199
 3350TIP3   OH210013   1.090   1.174   1.449
 3350TIP3    H110014   1.176   1.212   1.464
 3350TIP3    H210015   1.057   1.154   1.537
 3351TIP3   OH210016   0.650   3.773   2.466
 3351TIP3    H110017   0.727   3.823   2.494
 3351TIP3    H210018   0.666   3.751   2.375
 3352TIP3   OH210019   1.398   3.175   3.507
 3352TIP3    H110020   1.428   3.150   3.594
 3352TIP3    H210021   1.385   3.270   3.512
 3353TIP3   OH210022   2.508   2.202   3.435
 3353TIP3    H110023   2.500   2.222   3.529
 3353TIP3    H210024   2.598   2.171   3.424
 3354TIP3   OH210025   7.156   2.797   1.218
 3354TIP3    H110026   7.169   2.735   1.290
 3354TIP3    H210027   7.196   2.754   1.142
 3355TIP3   OH210028   2.788   4.624   3.431
 3355TIP3    H110029   2.878   4.624   3.462
 3355TIP3    H210030   2.737   4.662   3.502
 3356TIP3   OH210031   0.263   2.996   5.195
 3356TIP3    H110032   0.224   2.955   5.117
 3356TIP3    H210033   0.254   2.930   5.264
 3357TIP3   OH210034   5.456   0.340   2.892
 3357TIP3    H110035   5.544   0.325   2.929
 3357TIP3    H210036   5.473   0.365   2.801
 3358TIP3   OH210037   3.685   4.439   4.076
 3358TIP3    H110038   3.747   4.444   4.003
 3358TIP3    H210039   3.605   4.404   4.037
 3359TIP3   OH210040   6.210   1.890   2.207
 3359TIP3    H110041   6.173   1.803   2.220
 3359TIP3    H210042   6.153   1.948   2.257
 3360TIP3   OH210043   3.234   4.426   1.131
 3360TIP3    H110044   3.228   4.359   1.063
 3360TIP3    H210045   3.273   4.501   1.087
 3361TIP3   OH210046   5.529   0.972   0.262
 3361TIP3    H110047   5.605   0.971   0.319
 3361TIP3    H210048   5.544   1.046   0.203
 3362TIP3   OH210049   0.570   4.022   2.735
 3362TIP3    H110050   0.487   3.988   2.702
 3362TIP3    H210051   0.578   3.985   2.823
 3363TIP3   OH210052   0.115   1.056   0.371
 3363TIP3    H110053   0.113   1.142   0.415
 3363TIP3    H210054   0.194   1.015   0.403
 3364TIP3   OH210055   4.113   5.125   5.575
 3364TIP3    H110056   4.184   5.137   5.512
 3364TIP3    H210057   4.145   5.166   5.655
 3365TIP3   OH210058   5.680   0.891   0.493
 3365TIP3    H110059   5.597   0.843   0.489
 3365TIP3    H210060   5.746   0.822   0.500
 3366TIP3   OH210061   2.167   6.001   2.390
 3366TIP3    H110062   2.119   6.075   2.427
 3366TIP3    H210063   2.224   6.040   2.323
 3367TIP3   OH210064   1.656   4.799   4.017
 3367TIP3    H110065   1.659   4.862   4.090
 3367TIP3    H210066   1.605   4.843   3.950
 3368TIP3   OH210067   6.233   4.645   3.173
 3368TIP3    H110068   6.270   4.568   3.130
 3368TIP3    H210069   6.285   4.718   3.141
 3369TIP3   OH210070   2.922   6.669   0.798
 3369TIP3    H110071   3.016   6.652   0.805
 3369TIP3    H210072   2.905   6.740   0.860
 3370TIP3   OH210073   6.200   5.799   3.539
 3370TIP3    H110074   6.151   5.772   3.461
 3370TIP3    H210075   6.258   5.869   3.509
 3371TIP3   OH210076   3.896   0.366   3.201
 3371TIP3    H110077   3.941   0.305   3.259
 3371TIP3    H210078   3.934   0.349   3.115
 3372TIP3   OH210079   1.734   3.473   2.816
 3372TIP3    H110080   1.783   3.516   2.746
 3372TIP3    H210081   1.793   3.405   2.849
 3373TIP3   OH210082   1.606   2.349   3.812
 3373TIP3    H110083   1.527   2.399   3.834
 3373TIP3    H210084   1.674   2.416   3.799
 3374TIP3   OH210085   7.185   4.986   3.903
 3374TIP3    H110086   7.186   4.920   3.834
 3374TIP3    H210087   7.105   5.036   3.887
 3375TIP3   OH210088   5.253   6.268   1.381
 3375TIP3    H110089   5.274   6.311   1.464
 3375TIP3    H210090   5.271   6.335   1.314
 3376TIP3   OH210091   2.950   3.922   1.435
 3376TIP3    H110092   2.919   3.984   1.502
 3376TIP3    H210093   2.874   3.907   1.379
 3377TIP3   OH210094   2.562   2.720   5.226
 3377TIP3    H110095   2.613   2.707   5.146
 3377TIP3    H210096   2.624   2.759   5.288
 3378TIP3   OH210097   1.141   1.340   5.295
 3378TIP3    H110098   1.176   1.331   5.383
 3378TIP3    H210099   1.117   1.251   5.269
 3379TIP3   OH210100   3.593   5.978   2.797
 3379TIP3    H110101   3.563   5.936   2.717
 3379TIP3    H210102   3.686   5.998   2.781
 3380TIP3   OH210103   5.247   0.586   5.318
 3380TIP3    H110104   5.252   0.491   5.310
 3380TIP3    H210105   5.246   0.602   5.413
 3381TIP3   OH210106   1.311   1.331   1.430
 3381TIP3    H110107   1.370   1.308   1.359
 3381TIP3    H210108   1.361   1.392   1.484
 3382TIP3   OH210109   5.699   5.696   0.786
 3382TIP3    H110110   5.606   5.688   0.767
 3382TIP3    H210111   5.739   5.716   0.701
 3383TIP3   OH210112   3.505   4.591   2.945
 3383TIP3    H110113   3.487   4.498   2.935
 3383TIP3    H210114   3.587   4.594   2.996
 3384TIP3   OH210115   5.471   3.112   5.598
 3384TIP3    H110116   5.514   3.070   5.672
 3384TIP3    H210117   5.539   3.169   5.561
 3385TIP3   OH210118   1.369   3.697   1.110
 3385TIP3    H110119   1.351   3.791   1.100
 3385TIP3    H210120   1.404   3.689   1.199
 3386TIP3   OH210121   6.291   2.430   5.463
 3386TIP3    H110122   6.219   2.486   5.434
 3386TIP3    H210123   6.300   2.365   5.393
 3387TIP3   OH210124   5.203   1.177   0.982
 3387TIP3    H110125   5.171   1.088   0.965
 3387TIP3    H210126   5.178   1.226   0.903
 3388TIP3   OH210127   1.647   5.623   1.319
 3388TIP3    H110128   1.721   5.635   1.379
 3388TIP3    H210129   1.630   5.529   1.321
 3389TIP3   OH210130   1.507   6.155   0.967
 3389TIP3    H110131   1.432   6.213   0.979
 3389TIP3    H210132   1.583   6.212   0.978
 3390TIP3   OH210133   0.114   1.365   2.205
 3390TIP3    H110134   0.109   1.417   2.285
 3390TIP3    H210135   0.205   1.335   2.202
 3391TIP3   OH210136   3.199   4.675   4.503
 3391TIP3    H110137   3.103   4.670   4.505
 3391TIP3    H210138   3.219   4.752   4.556
 3392TIP3   OH210139   1.919   0.391   3.944
 3392TIP3    H110140   1.980   0.453   3.903
 3392TIP3    H210141   1.903   0.325   3.876
 3393TIP3   OH210142   0.612   3.117   5.610
 3393TIP3    H110143   0.524   3.082   5.595
 3393TIP3    H210144   0.604   3.165   5.692
 3394TIP3   OH210145   2.134   4.621   1.512
 3394TIP3    H110146   2.059   4.639   1.456
 3394TIP3    H210147   2.170   4.707   1.533
 3395TIP3   OH210148   2.669   2.551   2.156
 3395TIP3    H110149   2.594   2.573   2.211
 3395TIP3    H210150   2.645   2.468   2.115
 3396TIP3   OH210151   1.134   5.213   1.300
 3396TIP3    H110152   1.066   5.281   1.297
 3396TIP3    H210153   1.138   5.187   1.392
 3397TIP3   OH210154   2.923   4.999   2.033
 3397TIP3    H110155   2.882   4.927   2.080
 3397TIP3    H210156   3.014   4.998   2.061
 3398TIP3   OH210157   5.867   5.427   5.198
 3398TIP3    H110158   5.901   5.339   5.179
 3398TIP3    H210159   5.945   5.477   5.223
 3399TIP3   OH210160   2.827   3.460   0.805
 3399TIP3    H110161   2.800   3.466   0.897
 3399TIP3    H210162   2.910   3.508   0.802
 3400TIP3   OH210163   0.814   2.310   3.035
 3400TIP3    H110164   0.907   2.313   3.058
 3400TIP3    H210165   0.771   2.363   3.103
 3401TIP3   OH210166   1.744   3.061   3.173
 3401TIP3    H110167   1.702   2.990   3.221
 3401TIP3    H210168   1.678   3.090   3.110
 3402TIP3   OH210169   6.563   3.522   4.501
 3402TIP3    H110170   6.641   3.516   4.556
 3402TIP3    H210171   6.524   3.606   4.525
 3403TIP3   OH210172   0.942   1.891   4.233
 3403TIP3    H110173   0.892   1.816   4.202
 3403TIP3    H210174   1.026   1.855   4.261
 3404TIP3   OH210175   6.037   6.392   2.279
 3404TIP3    H110176   6.061   6.484   2.286
 3404TIP3    H210177   5.962   6.391   2.220
 3405TIP3   OH210178   3.658   6.676   1.943
 3405TIP3    H110179   3.699   6.666   1.857
 3405TIP3    H210180   3.701   6.612   1.999
 3406TIP3   OH210181   1.021   2.407   3.329
 3406TIP3    H110182   0.970   2.356   3.392
 3406TIP3    H210183   1.038   2.346   3.257
 3407TIP3   OH210184   4.654   5.439   2.502
 3407TIP3    H110185   4.711   5.372   2.465
 3407TIP3    H210186   4.576   5.439   2.447
 3408TIP3   OH210187   6.358   3.457   1.675
 3408TIP3    H110188   6.276   3.430   1.634
 3408TIP3    H210189   6.336   3.466   1.768
 3409TIP3   OH210190   3.499   5.771   1.848
 3409TIP3    H110191   3.558   5.779   1.772
 3409TIP3    H210192   3.528   5.841   1.907
 3410TIP3   OH210193   6.880   1.200   2.750
 3410TIP3    H110194   6.916   1.252   2.677
 3410TIP3    H210195   6.803   1.158   2.713
 3411TIP3   OH210196   5.550   5.566   3.168
 3411TIP3    H110197   5.510   5.601   3.247
 3411TIP3    H210198   5.587   5.642   3.123
 3412TIP3   OH210199   0.705   3.058   1.232
 3412TIP3    H110200   0.635   3.031   1.291
 3412TIP3    H210201   0.754   2.977   1.214
 3413TIP3   OH210202   7.224   6.428   0.726
 3413TIP3    H110203   7.242   6.522   0.722
 3413TIP3    H210204   7.284   6.395   0.792
 3414TIP3   OH210205   2.686   0.710   4.478
 3414TIP3    H110206   2.696   0.760   4.398
 3414TIP3    H210207   2.624   0.760   4.531
 3415TIP3   OH210208   0.871   1.311   3.184
 3415TIP3    H110209   0.948   1.294   3.130
 3415TIP3    H210210   0.891   1.392   3.230
 3416TIP3   OH210211   1.330   5.427   5.641
 3416TIP3    H110212   1.349   5.517   5.615
 3416TIP3    H210213   1.401   5.376   5.601
 3417TIP3   OH210214   4.295   2.806   4.054
 3417TIP3    H110215   4.310   2.861   3.977
 3417TIP3    H210216   4.377   2.813   4.104
 3418TIP3   OH210217   4.964   0.349   5.562
 3418TIP3    H110218   4.882   0.376   5.603
 3418TIP3    H210219   5.031   0.400   5.608
 3419TIP3   OH210220   5.611   2.679   2.981
 3419TIP3    H110221   5.535   2.635   2.943
 3419TIP3    H210222   5.654   2.721   2.907
 3420TIP3   OH210223   6.631   2.365   1.665
 3420TIP3    H110224   6.563   2.301   1.684
 3420TIP3    H210225   6.667   2.338   1.580
 3421TIP3   OH210226   3.423   0.220   3.913
 3421TIP3    H110227   3.469   0.172   3.845
 3421TIP3    H210228   3.332   0.190   3.907
 3422TIP3   OH210229   3.803   3.584   1.330
 3422TIP3    H110230   3.805   3.641   1.253
 3422TIP3    H210231   3.712   3.587   1.359
 3423TIP3   OH210232   6.367   6.701   0.692
 3423TIP3    H110233   6.381   6.620   0.643
 3423TIP3    H210234   6.277   6.694   0.724
 3424TIP3   OH210235   4.345   3.409   5.061
 3424TIP3    H110236   4.426   3.460   5.064
 3424TIP3    H210237   4.310   3.414   5.149
 3425TIP3   OH210238   3.778   4.950   0.570
 3425TIP3    H110239   3.720   4.875   0.579
 3425TIP3    H210240   3.751   4.991   0.488
 3426TIP3   OH210241   0.673   1.894   5.228
 3426TIP3    H110242   0.589   1.892   5.183
 3426TIP3    H210243   0.682   1.806   5.265
 3427TIP3   OH210244   4.803   6.465   3.930
 3427TIP3    H110245   4.792   6.372   3.954
 3427TIP3    H210246   4.731   6.509   3.975
 3428TIP3   OH210247   1.286   3.983   1.118
 3428TIP3    H110248   1.267   4.058   1.061
 3428TIP3    H210249   1.283   4.020   1.207
 3429TIP3   OH210250   1.511   3.280   1.722
 3429TIP3    H110251   1.590   3.287   1.669
 3429TIP3    H210252   1.526   3.204   1.778
 3430TIP3   OH210253   1.816   5.554   0.850
 3430TIP3    H110254   1.787   5.575   0.761
 3430TIP3    H210255   1.791   5.630   0.902
 3431TIP3   OH210256   2.477   3.384   0.114
 3431TIP3    H110257   2.567   3.381   0.146
 3431TIP3    H210258   2.452   3.292   0.103
 3432TIP3   OH210259   4.569   2.725   0.759
 3432TIP3    H110260   4.663   2.742   0.773
 3432TIP3    H210261   4.531   2.730   0.847
 3433TIP3   OH210262   2.421   1.327   3.364
 3433TIP3    H110263   2.386   1.310   3.451
 3433TIP3    H210264   2.387   1.413   3.340
 3434TIP3   OH210265   2.850   0.384   5.495
 3434TIP3    H110266   2.816   0.384   5.584
 3434TIP3    H210267   2.794   0.446   5.448
 3435TIP3   OH210268   3.862   2.224   2.208
 3435TIP3    H110269   3.910   2.302   2.181
 3435TIP3    H210270   3.924   2.174   2.260
 3436TIP3   OH210271   3.095   0.391   5.366
 3436TIP3    H110272   3.008   0.380   5.405
 3436TIP3    H210273   3.155   0.389   5.440
 3437TIP3   OH210274   6.117   5.415   0.882
 3437TIP3    H110275   6.166   5.465   0.948
 3437TIP3    H210276   6.147   5.450   0.798
 3438TIP3   OH210277   2.040   5.177   3.811
 3438TIP3    H110278   1.982   5.101   3.813
 3438TIP3    H210279   1.981   5.253   3.808
 3439TIP3   OH210280   1.261   2.339   1.436
 3439TIP3    H110281   1.175   2.312   1.469
 3439TIP3    H210282   1.248   2.429   1.407
 3440TIP3   OH210283   3.834   1.924   4.268
 3440TIP3    H110284   3.748   1.890   4.294
 3440TIP3    H210285   3.831   2.017   4.291
 3441TIP3   OH210286   1.049   6.693   5.534
 3441TIP3    H110287   1.081   6.759   5.472
 3441TIP3    H210288   1.074   6.610   5.495
 3442TIP3   OH210289   5.581   6.008   5.407
 3442TIP3    H110290   5.508   6.028   5.466
 3442TIP3    H210291   5.649   6.070   5.431
 3443TIP3   OH210292   0.051   5.113   5.513
 3443TIP3    H110293   0.017   5.196   5.481
 3443TIP3    H210294   0.082   5.132   5.602
 3444TIP3   OH210295   6.884   0.961   0.218
 3444TIP3    H110296   6.961   0.912   0.247
 3444TIP3    H210297   6.898   0.975   0.124
 3445TIP3   OH210298   4.191  -0.025   2.171
 3445TIP3    H110299   4.127   0.014   2.111
 3445TIP3    H210300   4.268   0.031   2.163
 3446TIP3   OH210301   0.170   6.435   0.941
 3446TIP3    H110302   0.096   6.410   0.996
 3446TIP3    H210303   0.210   6.509   0.987
 3447TIP3   OH210304   1.789   0.081   4.593
 3447TIP3    H110305   1.761   0.129   4.515
 3447TIP3    H210306   1.716   0.091   4.655
 3448TIP3   OH210307   2.538   4.127   3.003
 3448TIP3    H110308   2.532   4.094   2.913
 3448TIP3    H210309   2.455   4.101   3.043
 3449TIP3   OH210310   5.220   0.232   4.328
 3449TIP3    H110311   5.212   0.318   4.287
 3449TIP3    H210312   5.283   0.185   4.273
 3450TIP3   OH210313   2.056   3.907   0.374
 3450TIP3    H110314   2.092   3.994   0.388
 3450TIP3    H210315   2.120   3.864   0.317
 3451TIP3   OH210316   0.072   4.249   5.432
 3451TIP3    H110317   0.086   4.240   5.338
 3451TIP3    H210318   0.148   4.298   5.463
 3452TIP3   OH210319   0.215   4.813   3.398
 3452TIP3    H110320   0.120   4.806   3.388
 3452TIP3    H210321   0.249   4.732   3.360
 3453TIP3   OH210322   5.286   2.142   3.347
 3453TIP3    H110323   5.209   2.194   3.324
 3453TIP3    H210324   5.266   2.055   3.312
 3454TIP3   OH210325   2.784   3.554   4.427
 3454TIP3    H110326   2.758   3.610   4.353
 3454TIP3    H210327   2.808   3.615   4.496
 3455TIP3   OH210328   0.391   6.293   0.855
 3455TIP3    H110329   0.370   6.233   0.783
 3455TIP3    H210330   0.307   6.333   0.878
 3456TIP3   OH210331   5.597   2.944   5.773
 3456TIP3    H110332   5.573   2.883   5.842
 3456TIP3    H210333   5.666   2.900   5.724
 3457TIP3   OH210334   3.568   3.658   1.430
 3457TIP3    H110335   3.554   3.603   1.507
 3457TIP3    H210336   3.583   3.746   1.465
 3458TIP3   OH210337   3.916   2.504   5.154
 3458TIP3    H110338   3.893   2.439   5.088
 3458TIP3    H210339   3.948   2.579   5.104
 3459TIP3   OH210340   3.010   1.480   1.414
 3459TIP3    H110341   3.051   1.526   1.488
 3459TIP3    H210342   3.038   1.530   1.337
 3460TIP3   OH210343   5.861   2.001   0.492
 3460TIP3    H110344   5.824   2.086   0.516
 3460TIP3    H210345   5.949   2.021   0.459
 3461TIP3   OH210346   5.822   2.382   3.163
 3461TIP3    H110347   5.828   2.469   3.203
 3461TIP3    H210348   5.783   2.327   3.232
 3462TIP3   OH210349   5.323   0.771   4.546
 3462TIP3    H110350   5.293   0.699   4.491
 3462TIP3    H210351   5.256   0.779   4.614
 3463TIP3   OH210352   5.251   1.744   0.371
 3463TIP3    H110353   5.248   1.703   0.458
 3463TIP3    H210354   5.192   1.818   0.378
 3464TIP3   OH210355   1.830   4.857   4.421
 3464TIP3    H110356   1.779   4.811   4.488
 3464TIP3    H210357   1.894   4.793   4.391
 3465TIP3   OH210358   2.758   2.547   0.944
 3465TIP3    H110359   2.780   2.621   0.999
 3465TIP3    H210360   2.764   2.471   1.002
 3466TIP3   OH210361   4.152   3.102   4.444
 3466TIP3    H110362   4.157   3.196   4.431
 3466TIP3    H210363   4.075   3.089   4.498
 3467TIP3   OH210364   1.649   4.791   0.368
 3467TIP3    H110365   1.617   4.823   0.284
 3467TIP3    H210366   1.666   4.870   0.419
 3468TIP3   OH210367   4.050   6.830   4.771
 3468TIP3    H110368   4.131   6.798   4.731
 3468TIP3    H210369   3.984   6.822   4.701
 3469TIP3   OH210370   4.856   3.667   1.576
 3469TIP3    H110371   4.761   3.655   1.572
 3469TIP3    H210372   4.869   3.761   1.562
 3470TIP3   OH210373   2.693   5.580   2.491
 3470TIP3    H110374   2.695   5.674   2.510
 3470TIP3    H210375   2.651   5.574   2.405
 3471TIP3   OH210376   1.437   4.747   5.739
 3471TIP3    H110377   1.390   4.736   5.657
 3471TIP3    H210378   1.461   4.658   5.765
 3472TIP3   OH210379   0.592   2.907   1.615
 3472TIP3    H110380   0.581   2.812   1.619
 3472TIP3    H210381   0.528   2.936   1.551
 3473TIP3   OH210382   5.861   4.575   1.112
 3473TIP3    H110383   5.838   4.513   1.043
 3473TIP3    H210384   5.851   4.525   1.193
 3474TIP3   OH210385   0.374   1.209   3.625
 3474TIP3    H110386   0.385   1.134   3.566
 3474TIP3    H210387   0.439   1.196   3.694
 3475TIP3   OH210388   0.386   2.436   4.832
 3475TIP3    H110389   0.372   2.488   4.912
 3475TIP3    H210390   0.433   2.358   4.861
 3476TIP3   OH210391   1.612   1.338   0.323
 3476TIP3    H110392   1.650   1.360   0.238
 3476TIP3    H210393   1.607   1.242   0.322
 3477TIP3   OH210394   4.237   0.933   1.707
 3477TIP3    H110395   4.200   0.891   1.785
 3477TIP3    H210396   4.161   0.953   1.652
 3478TIP3   OH210397   6.680   3.329   3.608
 3478TIP3    H110398   6.683   3.303   3.516
 3478TIP3    H210399   6.705   3.250   3.656
 3479TIP3   OH210400   3.885   4.518   1.730
 3479TIP3    H110401   3.912   4.576   1.802
 3479TIP3    H210402   3.909   4.565   1.651
 3480TIP3   OH210403   7.147   5.309   3.134
 3480TIP3    H110404   7.195   5.231   3.107
 3480TIP3    H210405   7.158   5.370   3.062
 3481TIP3   OH210406   1.908   0.423   4.194
 3481TIP3    H110407   1.918   0.394   4.103
 3481TIP3    H210408   1.834   0.483   4.192
 3482TIP3   OH210409   2.294   3.861   1.123
 3482TIP3    H110410   2.209   3.903   1.137
 3482TIP3    H210411   2.285   3.775   1.164
 3483TIP3   OH210412   0.985   2.029   1.882
 3483TIP3    H110413   1.045   2.049   1.811
 3483TIP3    H210414   1.005   2.094   1.949
 3484TIP3   OH210415   0.797   5.426   1.862
 3484TIP3    H110416   0.713   5.466   1.884
 3484TIP3    H210417   0.858   5.460   1.927
 3485TIP3   OH210418   5.658   3.718   2.996
 3485TIP3    H110419   5.564   3.701   3.001
 3485TIP3    H210420   5.698   3.632   2.993
 3486TIP3   OH210421   1.633   4.356   0.027
 3486TIP3    H110422   1.707   4.296   0.027
 3486TIP3    H210423   1.580   4.330  -0.048
 3487TIP3   OH210424   4.472   2.228   3.572
 3487TIP3    H110425   4.479   2.216   3.667
 3487TIP3    H210426   4.524   2.306   3.554
 3488TIP3   OH210427   5.989   2.871   3.902
 3488TIP3    H110428   5.955   2.857   3.990
 3488TIP3    H210429   6.046   2.796   3.885
 3489TIP3   OH210430   5.205   5.176   2.108
 3489TIP3    H110431   5.216   5.183   2.203
 3489TIP3    H210432   5.204   5.266   2.077
 3490TIP3   OH210433   3.105   2.415   1.242
 3490TIP3    H110434   3.167   2.358   1.195
 3490TIP3    H210435   3.038   2.356   1.275
 3491TIP3   OH210436   5.338   4.835   0.551
 3491TIP3    H110437   5.355   4.754   0.504
 3491TIP3    H210438   5.414   4.845   0.610
 3492TIP3   OH210439   3.418   2.201   5.498
 3492TIP3    H110440   3.340   2.165   5.456
 3492TIP3    H210441   3.457   2.126   5.542
 3493TIP3   OH210442   3.544   4.822   4.658
 3493TIP3    H110443   3.461   4.866   4.638
 3493TIP3    H210444   3.564   4.771   4.580
 3494TIP3   OH210445   5.484   6.560   5.662
 3494TIP3    H110446   5.428   6.595   5.593
 3494TIP3    H210447   5.572   6.592   5.641
 3495TIP3   OH210448   1.507   6.502   4.634
 3495TIP3    H110449   1.478   6.590   4.610
 3495TIP3    H210450   1.567   6.476   4.564
 3496TIP3   OH210451   6.075   1.617   5.576
 3496TIP3    H110452   6.150   1.602   5.633
 3496TIP3    H210453   6.113   1.634   5.490
 3497TIP3   OH210454   5.018   2.309   1.362
 3497TIP3    H110455   5.102   2.352   1.381
 3497TIP3    H210456   4.980   2.362   1.292
 3498TIP3   OH210457   6.911   6.478   2.939
 3498TIP3    H110458   6.861   6.398   2.958
 3498TIP3    H210459   6.894   6.495   2.847
 3499TIP3   OH210460   4.293   2.940   0.621
 3499TIP3    H110461   4.239   3.014   0.650
 3499TIP3    H210462   4.327   2.902   0.703
 3500TIP3   OH210463   5.951   1.063   5.510
 3500TIP3    H110464   5.890   0.994   5.535
 3500TIP3    H210465   6.005   1.023   5.441
 3501TIP3   OH210466   2.441   5.233   0.380
 3501TIP3    H110467   2.399   5.212   0.296
 3501TIP3    H210468   2.380   5.293   0.423
 3502TIP3   OH210469   5.490   6.736   4.405
 3502TIP3    H110470   5.485   6.723   4.310
 3502TIP3    H210471   5.514   6.650   4.439
 3503TIP3   OH210472   3.780   4.034   1.082
 3503TIP3    H110473   3.753   4.068   0.997
 3503TIP3    H210474   3.786   4.111   1.139
 3504TIP3   OH210475   2.053   0.519   3.738
 3504TIP3    H110476   2.058   0.610   3.708
 3504TIP3    H210477   2.144   0.488   3.736
 3505TIP3   OH210478   5.028   6.551   4.068
 3505TIP3    H110479   5.106   6.528   4.017
 3505TIP3    H210480   4.955   6.523   4.012
 3506TIP3   OH210481   2.453   6.127   3.382
 3506TIP3    H110482   2.486   6.217   3.390
 3506TIP3    H210483   2.388   6.132   3.312
 3507TIP3   OH210484   1.473   3.885   4.439
 3507TIP3    H110485   1.560   3.905   4.403
 3507TIP3    H210486   1.412   3.904   4.368
 3508TIP3   OH210487   6.544   6.216   4.168
 3508TIP3    H110488   6.480   6.265   4.220
 3508TIP3    H210489   6.629   6.244   4.203
 3509TIP3   OH210490   4.118   3.692   3.923
 3509TIP3    H110491   4.205   3.679   3.962
 3509TIP3    H210492   4.083   3.604   3.913
 3510TIP3   OH210493   3.407   3.205   2.366
 3510TIP3    H110494   3.352   3.205   2.288
 3510TIP3    H210495   3.458   3.124   2.359
 3511TIP3   OH210496   6.544   5.686   2.930
 3511TIP3    H110497   6.597   5.765   2.931
 3511TIP3    H210498   6.464   5.710   2.978
 3512TIP3   OH210499  -0.004   6.053   0.347
 3512TIP3    H110500   0.033   5.993   0.413
 3512TIP3    H210501   0.072   6.093   0.305
 3513TIP3   OH210502   4.636   2.492   3.445
 3513TIP3    H110503   4.599   2.557   3.504
 3513TIP3    H210504   4.597   2.510   3.360
 3514TIP3   OH210505   2.967   2.313   2.766
 3514TIP3    H110506   2.962   2.350   2.678
 3514TIP3    H210507   3.011   2.229   2.754
 3515TIP3   OH210508   3.755   0.437   1.502
 3515TIP3    H110509   3.767   0.343   1.487
 3515TIP3    H210510   3.697   0.441   1.578
 3516TIP3   OH210511   6.536   3.293   3.106
 3516TIP3    H110512   6.562   3.280   3.197
 3516TIP3    H210513   6.618   3.307   3.059
 3517TIP3   OH210514   3.458   1.674   5.143
 3517TIP3    H110515   3.393   1.609   5.167
 3517TIP3    H210516   3.495   1.703   5.226
 3518TIP3   OH210517   3.869   3.665   5.821
 3518TIP3    H110518   3.935   3.596   5.817
 3518TIP3    H210519   3.786   3.618   5.815
 3519TIP3   OH210520   6.116   6.205   1.078
 3519TIP3    H110521   6.210   6.196   1.095
 3519TIP3    H210522   6.100   6.145   1.005
 3520TIP3   OH210523   5.489   0.337   2.202
 3520TIP3    H110524   5.527   0.249   2.209
 3520TIP3    H210525   5.518   0.368   2.116
 3521TIP3   OH210526   3.323   6.441   2.443
 3521TIP3    H110527   3.253   6.380   2.467
 3521TIP3    H210528   3.391   6.427   2.509
 3522TIP3   OH210529   0.088   3.045   2.971
 3522TIP3    H110530   0.012   3.044   2.913
 3522TIP3    H210531   0.127   2.958   2.962
 3523TIP3   OH210532   3.617   6.762   1.213
 3523TIP3    H110533   3.632   6.698   1.144
 3523TIP3    H210534   3.569   6.713   1.280
 3524TIP3   OH210535   6.998   4.866   4.712
 3524TIP3    H110536   6.917   4.910   4.689
 3524TIP3    H210537   7.067   4.926   4.683
 3525TIP3   OH210538   3.914   3.024   4.845
 3525TIP3    H110539   3.892   2.942   4.800
 3525TIP3    H210540   3.976   2.998   4.913
 3526TIP3   OH210541   4.434   1.840   5.319
 3526TIP3    H110542   4.449   1.822   5.226
 3526TIP3    H210543   4.410   1.755   5.356
 3527TIP3   OH210544   6.175   2.367   4.789
 3527TIP3    H110545   6.264   2.342   4.767
 3527TIP3    H210546   6.179   2.394   4.881
 3528TIP3   OH210547   3.158   1.410   2.855
 3528TIP3    H110548   3.088   1.399   2.919
 3528TIP3    H210549   3.222   1.467   2.899
 3529TIP3   OH210550   0.458   2.985   0.114
 3529TIP3    H110551   0.382   2.933   0.088
 3529TIP3    H210552   0.508   2.996   0.034
 3530TIP3   OH210553   0.074   2.610   3.168
 3530TIP3    H110554   0.079   2.516   3.186
 3530TIP3    H210555   0.165   2.639   3.166
 3531TIP3   OH210556   3.290   4.693   3.709
 3531TIP3    H110557   3.318   4.657   3.625
 3531TIP3    H210558   3.277   4.786   3.693
 3532TIP3   OH210559   4.531   3.297   5.842
 3532TIP3    H110560   4.602   3.263   5.896
 3532TIP3    H210561   4.468   3.225   5.836
 3533TIP3   OH210562   4.843   4.069   4.089
 3533TIP3    H110563   4.833   3.996   4.149
 3533TIP3    H210564   4.938   4.077   4.077
 3534TIP3   OH210565   5.238   3.306   0.593
 3534TIP3    H110566   5.212   3.268   0.510
 3534TIP3    H210567   5.231   3.400   0.581
 3535TIP3   OH210568   2.458   2.987   2.164
 3535TIP3    H110569   2.500   2.993   2.250
 3535TIP3    H210570   2.495   2.909   2.124
 3536TIP3   OH210571   6.222   4.727   3.983
 3536TIP3    H110572   6.282   4.797   3.958
 3536TIP3    H210573   6.209   4.739   4.077
 3537TIP3   OH210574   4.198   0.706   0.948
 3537TIP3    H110575   4.139   0.748   0.886
 3537TIP3    H210576   4.268   0.670   0.894
 3538TIP3   OH210577   1.992   0.408   0.158
 3538TIP3    H110578   2.051   0.333   0.169
 3538TIP3    H210579   1.926   0.396   0.226
 3539TIP3   OH210580   6.464   6.445   2.417
 3539TIP3    H110581   6.487   6.353   2.428
 3539TIP3    H210582   6.380   6.454   2.461
 3540TIP3   OH210583   0.692   5.200   4.342
 3540TIP3    H110584   0.743   5.270   4.301
 3540TIP3    H210585   0.609   5.199   4.294
 3541TIP3   OH210586   5.782   2.038   1.885
 3541TIP3    H110587   5.857   1.992   1.923
 3541TIP3    H210588   5.736   1.971   1.835
 3542TIP3   OH210589   0.805   6.447   4.326
 3542TIP3    H110590   0.757   6.513   4.275
 3542TIP3    H210591   0.897   6.461   4.302
 3543TIP3   OH210592   3.319   3.354   1.337
 3543TIP3    H110593   3.231   3.379   1.312
 3543TIP3    H210594   3.376   3.404   1.278
 3544TIP3   OH210595   2.194   6.018   0.700
 3544TIP3    H110596   2.159   6.048   0.784
 3544TIP3    H210597   2.164   5.928   0.692
 3545TIP3   OH210598   2.379   0.875   2.052
 3545TIP3    H110599   2.312   0.890   1.985
 3545TIP3    H210600   2.404   0.783   2.042
 3546TIP3   OH210601   0.473   2.890   4.398
 3546TIP3    H110602   0.425   2.906   4.479
 3546TIP3    H210603   0.483   2.977   4.358
 3547TIP3   OH210604   1.643   5.317   1.658
 3547TIP3    H110605   1.622   5.325   1.565
 3547TIP3    H210606   1.576   5.370   1.702
 3548TIP3   OH210607   3.391   6.429   0.836
 3548TIP3    H110608   3.445   6.455   0.761
 3548TIP3    H210609   3.453   6.428   0.910
 3549TIP3   OH210610   1.474   2.652   1.306
 3549TIP3    H110611   1.543   2.603   1.350
 3549TIP3    H210612   1.445   2.594   1.235
 3550TIP3   OH210613   1.874   6.287   1.763
 3550TIP3    H110614   1.780   6.278   1.753
 3550TIP3    H210615   1.902   6.206   1.804
 3551TIP3   OH210616   6.961   5.962   4.929
 3551TIP3    H110617   6.875   6.005   4.935
 3551TIP3    H210618   6.963   5.923   4.842
 3552TIP3   OH210619   4.487   4.655   2.590
 3552TIP3    H110620   4.533   4.701   2.661
 3552TIP3    H210621   4.541   4.578   2.573
 3553TIP3   OH210622   6.313   1.992   5.143
 3553TIP3    H110623   6.330   1.976   5.051
 3553TIP3    H210624   6.225   1.958   5.158
 3554TIP3   OH210625   0.422   1.320   2.449
 3554TIP3    H110626   0.350   1.260   2.467
 3554TIP3    H210627   0.402   1.356   2.362
 3555TIP3   OH210628   3.978   5.638   2.912
 3555TIP3    H110629   3.884   5.624   2.923
 3555TIP3    H210630   3.993   5.624   2.818
 3556TIP3   OH210631   4.524   1.632   1.457
 3556TIP3    H110632   4.583   1.582   1.402
 3556TIP3    H210633   4.457   1.665   1.397
 3557TIP3   OH210634   2.265   2.126   0.308
 3557TIP3    H110635   2.225   2.039   0.301
 3557TIP3    H210636   2.266   2.160   0.218
 3558TIP3   OH210637   5.059   4.473   3.258
 3558TIP3    H110638   5.134   4.435   3.213
 3558TIP3    H210639   5.092   4.556   3.294
 3559TIP3   OH210640   7.064   5.616   1.659
 3559TIP3    H110641   7.086   5.625   1.752
 3559TIP3    H210642   7.081   5.703   1.622
 3560TIP3   OH210643   3.852   6.402   2.030
 3560TIP3    H110644   3.905   6.473   1.994
 3560TIP3    H210645   3.916   6.341   2.067
 3561TIP3   OH210646   1.050   3.802   1.078
 3561TIP3    H110647   1.137   3.843   1.075
 3561TIP3    H210648   1.030   3.796   1.172
 3562TIP3   OH210649   0.095   5.172   1.051
 3562TIP3    H110650   0.173   5.198   1.100
 3562TIP3    H210651   0.033   5.143   1.119
 3563TIP3   OH210652   7.034   3.131   0.582
 3563TIP3    H110653   7.038   3.129   0.677
 3563TIP3    H210654   7.046   3.039   0.555
 3564TIP3   OH210655   5.638   0.349   0.762
 3564TIP3    H110656   5.603   0.405   0.694
 3564TIP3    H210657   5.691   0.407   0.816
 3565TIP3   OH210658   1.306   0.700   4.698
 3565TIP3    H110659   1.285   0.686   4.606
 3565TIP3    H210660   1.222   0.704   4.742
 3566TIP3   OH210661   4.516   3.830   3.123
 3566TIP3    H110662   4.565   3.804   3.201
 3566TIP3    H210663   4.506   3.749   3.073
 3567TIP3   OH210664   1.780   3.422   1.158
 3567TIP3    H110665   1.781   3.329   1.133
 3567TIP3    H210666   1.695   3.435   1.199
 3568TIP3   OH210667   3.899   2.038   0.217
 3568TIP3    H110668   3.865   2.080   0.296
 3568TIP3    H210669   3.837   2.063   0.149
 3569TIP3   OH210670   2.615   1.228   0.570
 3569TIP3    H110671   2.543   1.232   0.507
 3569TIP3    H210672   2.573   1.233   0.655
 3570TIP3   OH210673   1.510   2.024   3.192
 3570TIP3    H110674   1.431   2.051   3.239
 3570TIP3    H210675   1.499   2.059   3.104
 3571TIP3   OH210676   2.947   0.852   2.022
 3571TIP3    H110677   3.026   0.808   2.055
 3571TIP3    H210678   2.941   0.826   1.931
 3572TIP3   OH210679   3.137   0.031   0.004
 3572TIP3    H110680   3.186  -0.046  -0.025
 3572TIP3    H210681   3.133   0.022   0.099
 3573TIP3   OH210682   3.452   6.726   1.731
 3573TIP3    H110683   3.448   6.696   1.822
 3573TIP3    H210684   3.509   6.663   1.687
 3574TIP3   OH210685   4.812   4.480   2.613
 3574TIP3    H110686   4.794   4.442   2.699
 3574TIP3    H210687   4.804   4.574   2.627
 3575TIP3   OH210688   0.511   2.670   5.694
 3575TIP3    H110689   0.504   2.579   5.663
 3575TIP3    H210690   0.602   2.680   5.721
 3576TIP3   OH210691   1.604   6.516   3.192
 3576TIP3    H110692   1.566   6.477   3.114
 3576TIP3    H210693   1.550   6.483   3.264
 3577TIP3   OH210694   6.041   1.121   3.887
 3577TIP3    H110695   6.027   1.213   3.907
 3577TIP3    H210696   5.963   1.077   3.919
 3578TIP3   OH210697   3.452   6.053   3.201
 3578TIP3    H110698   3.418   6.098   3.278
 3578TIP3    H210699   3.542   6.032   3.222
 3579TIP3   OH210700   5.473   3.597   0.696
 3579TIP3    H110701   5.414   3.582   0.622
 3579TIP3    H210702   5.510   3.510   0.715
 3580TIP3   OH210703   0.999   4.830   1.313
 3580TIP3    H110704   0.906   4.844   1.300
 3580TIP3    H210705   1.015   4.861   1.402
 3581TIP3   OH210706   3.592   4.793   5.619
 3581TIP3    H110707   3.553   4.873   5.652
 3581TIP3    H210708   3.559   4.785   5.529
 3582TIP3   OH210709   0.859   4.775   2.544
 3582TIP3    H110710   0.833   4.768   2.453
 3582TIP3    H210711   0.925   4.844   2.545
 3583TIP3   OH210712   6.642   1.398   2.965
 3583TIP3    H110713   6.641   1.489   2.992
 3583TIP3    H210714   6.730   1.367   2.988
 3584TIP3   OH210715   2.090   6.386   0.452
 3584TIP3    H110716   2.058   6.302   0.484
 3584TIP3    H210717   2.088   6.379   0.357
 3585TIP3   OH210718   0.073   2.875   5.047
 3585TIP3    H110719   0.013   2.947   5.066
 3585TIP3    H210720   0.019   2.796   5.055
 3586TIP3   OH210721   6.384   2.626   3.389
 3586TIP3    H110722   6.293   2.599   3.397
 3586TIP3    H210723   6.429   2.550   3.353
 3587TIP3   OH210724   4.391   5.115   5.429
 3587TIP3    H110725   4.457   5.078   5.370
 3587TIP3    H210726   4.399   5.064   5.510
 3588TIP3   OH210727   3.414   4.827   3.042
 3588TIP3    H110728   3.468   4.774   2.983
 3588TIP3    H210729   3.337   4.850   2.990
 3589TIP3   OH210730   1.392  -0.025   1.460
 3589TIP3    H110731   1.401   0.011   1.549
 3589TIP3    H210732   1.443   0.034   1.405
 3590TIP3   OH210733   3.310   3.232   4.071
 3590TIP3    H110734   3.255   3.199   4.143
 3590TIP3    H210735   3.265   3.310   4.040
 3591TIP3   OH210736   3.012   4.932   5.384
 3591TIP3    H110737   2.959   4.989   5.439
 3591TIP3    H210738   3.081   4.990   5.349
 3592TIP3   OH210739   0.752   2.009   1.706
 3592TIP3    H110740   0.678   2.069   1.697
 3592TIP3    H210741   0.800   2.041   1.782
 3593TIP3   OH210742   1.329   2.793   2.623
 3593TIP3    H110743   1.278   2.873   2.639
 3593TIP3    H210744   1.354   2.763   2.710
 3594TIP3   OH210745   0.615   0.075   0.546
 3594TIP3    H110746   0.622   0.067   0.451
 3594TIP3    H210747   0.581  -0.010   0.575
 3595TIP3   OH210748   0.206   1.556   3.865
 3595TIP3    H110749   0.271   1.568   3.934
 3595TIP3    H210750   0.176   1.645   3.845
 3596TIP3   OH210751   3.458   2.561   1.142
 3596TIP3    H110752   3.470   2.618   1.066
 3596TIP3    H210753   3.545   2.528   1.161
 3597TIP3   OH210754   1.525   0.867   3.141
 3597TIP3    H110755   1.525   0.916   3.224
 3597TIP3    H210756   1.598   0.807   3.148
 3598TIP3   OH210757   3.858   1.798   2.602
 3598TIP3    H110758   3.809   1.715   2.608
 3598TIP3    H210759   3.949   1.772   2.613
 3599TIP3   OH210760   3.202   0.348   0.998
 3599TIP3    H110761   3.115   0.310   1.011
 3599TIP3    H210762   3.189   0.415   0.931
 3600TIP3   OH210763   2.492   2.516   0.820
 3600TIP3    H110764   2.560   2.556   0.875
 3600TIP3    H210765   2.540   2.463   0.757
 3601TIP3   OH210766   1.379   2.066   4.692
 3601TIP3    H110767   1.335   2.089   4.773
 3601TIP3    H210768   1.390   1.971   4.696
 3602TIP3   OH210769   1.152   4.485   1.957
 3602TIP3    H110770   1.070   4.520   1.992
 3602TIP3    H210771   1.175   4.413   2.015
 3603TIP3   OH210772   4.864   6.736   5.357
 3603TIP3    H110773   4.776   6.732   5.319
 3603TIP3    H210774   4.850   6.722   5.450
 3604TIP3   OH210775   0.845   4.533   4.260
 3604TIP3    H110776   0.873   4.568   4.175
 3604TIP3    H210777   0.901   4.457   4.275
 3605TIP3   OH210778   4.177   0.619   5.800
 3605TIP3    H110779   4.099   0.582   5.759
 3605TIP3    H210780   4.147   0.645   5.888
 3606TIP3   OH210781   0.482   2.902   0.684
 3606TIP3    H110782   0.388   2.901   0.668
 3606TIP3    H210783   0.517   2.833   0.627
 3607TIP3   OH210784   1.567   5.933   0.822
 3607TIP3    H110785   1.651   5.980   0.814
 3607TIP3    H210786   1.514   5.988   0.880
 3608TIP3   OH210787   2.763   0.850   5.124
 3608TIP3    H110788   2.806   0.872   5.206
 3608TIP3    H210789   2.796   0.763   5.102
 3609TIP3   OH210790   5.627   4.729   1.447
 3609TIP3    H110791   5.570   4.681   1.387
 3609TIP3    H210792   5.606   4.821   1.431
 3610TIP3   OH210793   2.636   2.570   4.692
 3610TIP3    H110794   2.678   2.620   4.622
 3610TIP3    H210795   2.625   2.483   4.655
 3611TIP3   OH210796   2.766   3.801   5.240
 3611TIP3    H110797   2.673   3.808   5.261
 3611TIP3    H210798   2.809   3.857   5.304
 3612TIP3   OH210799   5.709   3.696   4.088
 3612TIP3    H110800   5.681   3.739   4.008
 3612TIP3    H210801   5.628   3.679   4.136
 3613TIP3   OH210802   5.377   1.746   0.639
 3613TIP3    H110803   5.471   1.762   0.626
 3613TIP3    H210804   5.372   1.655   0.666
 3614TIP3   OH210805   1.813   3.317   1.770
 3614TIP3    H110806   1.855   3.252   1.714
 3614TIP3    H210807   1.799   3.272   1.853
 3615TIP3   OH210808   5.204   5.230   5.613
 3615TIP3    H110809   5.120   5.258   5.649
 3615TIP3    H210810   5.254   5.311   5.603
 3616TIP3   OH210811   1.984   0.311   0.519
 3616TIP3    H110812   1.981   0.322   0.614
 3616TIP3    H210813   2.052   0.372   0.490
 3617TIP3   OH210814   6.573   1.665   3.520
 3617TIP3    H110815   6.604   1.583   3.482
 3617TIP3    H210816   6.579   1.652   3.615
 3618TIP3   OH210817   2.576   3.496   4.777
 3618TIP3    H110818   2.578   3.470   4.869
 3618TIP3    H210819   2.488   3.472   4.747
 3619TIP3   OH210820   5.295   1.494   1.235
 3619TIP3    H110821   5.353   1.562   1.270
 3619TIP3    H210822   5.289   1.514   1.141
 3620TIP3   OH210823   4.894   0.265   1.710
 3620TIP3    H110824   4.931   0.353   1.718
 3620TIP3    H210825   4.832   0.272   1.638
 3621TIP3   OH210826   6.439   6.177   1.501
 3621TIP3    H110827   6.527   6.180   1.462
 3621TIP3    H210828   6.442   6.104   1.562
 3622TIP3   OH210829   0.720   0.208   2.676
 3622TIP3    H110830   0.630   0.206   2.708
 3622TIP3    H210831   0.774   0.213   2.755
 3623TIP3   OH210832   2.424   0.475   0.836
 3623TIP3    H110833   2.413   0.513   0.923
 3623TIP3    H210834   2.391   0.543   0.777
 3624TIP3   OH210835   1.982   1.124   2.285
 3624TIP3    H110836   1.981   1.212   2.321
 3624TIP3    H210837   2.075   1.101   2.279
 3625TIP3   OH210838   4.794   0.674   5.505
 3625TIP3    H110839   4.824   0.753   5.549
 3625TIP3    H210840   4.708   0.656   5.543
 3626TIP3   OH210841   6.517   1.232   3.719
 3626TIP3    H110842   6.537   1.194   3.634
 3626TIP3    H210843   6.597   1.279   3.744
 3627TIP3   OH210844   1.464   3.159   2.488
 3627TIP3    H110845   1.492   3.239   2.532
 3627TIP3    H210846   1.390   3.128   2.540
 3628TIP3   OH210847   6.569   5.786   3.442
 3628TIP3    H110848   6.660   5.756   3.452
 3628TIP3    H210849   6.521   5.738   3.510
 3629TIP3   OH210850   6.204   4.716   2.651
 3629TIP3    H110851   6.184   4.803   2.616
 3629TIP3    H210852   6.194   4.658   2.576
 3630TIP3   OH210853   3.594   3.084   1.605
 3630TIP3    H110854   3.560   2.994   1.613
 3630TIP3    H210855   3.517   3.136   1.582
 3631TIP3   OH210856   0.941   0.572   2.760
 3631TIP3    H110857   0.921   0.510   2.690
 3631TIP3    H210858   1.036   0.569   2.770
 3632TIP3   OH210859   5.525   5.323   5.251
 3632TIP3    H110860   5.579   5.376   5.309
 3632TIP3    H210861   5.468   5.386   5.208
 3633TIP3   OH210862   1.033   5.568   5.297
 3633TIP3    H110863   0.969   5.638   5.305
 3633TIP3    H210864   0.983   5.494   5.262
 3634TIP3   OH210865   3.040   2.309   0.416
 3634TIP3    H110866   2.984   2.386   0.412
 3634TIP3    H210867   3.047   2.280   0.325
 3635TIP3   OH210868   6.734   0.944   5.121
 3635TIP3    H110869   6.763   1.003   5.051
 3635TIP3    H210870   6.755   0.991   5.202
 3636TIP3   OH210871   6.472   4.025   0.407
 3636TIP3    H110872   6.486   3.936   0.440
 3636TIP3    H210873   6.456   4.078   0.485
 3637TIP3   OH210874   5.558   6.417   3.366
 3637TIP3    H110875   5.546   6.334   3.320
 3637TIP3    H210876   5.492   6.475   3.328
 3638TIP3   OH210877   2.693   2.208   0.751
 3638TIP3    H110878   2.651   2.174   0.671
 3638TIP3    H210879   2.640   2.172   0.822
 3639TIP3   OH210880   6.343   0.613   5.880
 3639TIP3    H110881   6.437   0.627   5.891
 3639TIP3    H210882   6.307   0.701   5.867
 3640TIP3   OH210883   0.910   2.252   0.789
 3640TIP3    H110884   0.959   2.200   0.725
 3640TIP3    H210885   0.826   2.206   0.798
 3641TIP3   OH210886   2.511   6.395   3.466
 3641TIP3    H110887   2.489   6.470   3.520
 3641TIP3    H210888   2.606   6.396   3.461
 3642TIP3   OH210889   4.808   6.664   3.136
 3642TIP3    H110890   4.752   6.678   3.060
 3642TIP3    H210891   4.754   6.617   3.199
 3643TIP3   OH210892   4.156   1.035   5.701
 3643TIP3    H110893   4.124   1.034   5.610
 3643TIP3    H210894   4.232   0.977   5.699
 3644TIP3   OH210895   3.601   6.320   1.923
 3644TIP3    H110896   3.636   6.290   1.839
 3644TIP3    H210897   3.677   6.350   1.972
 3645TIP3   OH210898   0.262   6.428   5.313
 3645TIP3    H110899   0.171   6.404   5.327
 3645TIP3    H210900   0.311   6.346   5.322
 3646TIP3   OH210901   6.820   0.592   1.015
 3646TIP3    H110902   6.741   0.580   1.068
 3646TIP3    H210903   6.796   0.559   0.928
 3647TIP3   OH210904   6.033   4.632   1.356
 3647TIP3    H110905   5.979   4.660   1.430
 3647TIP3    H210906   5.999   4.546   1.333
 3648TIP3   OH210907   4.563   2.258   5.440
 3648TIP3    H110908   4.520   2.173   5.451
 3648TIP3    H210909   4.641   2.252   5.495
 3649TIP3   OH210910   5.991   4.678   2.362
 3649TIP3    H110911   6.083   4.701   2.375
 3649TIP3    H210912   5.943   4.744   2.411
 3650TIP3   OH210913   4.792   5.512   4.068
 3650TIP3    H110914   4.718   5.555   4.025
 3650TIP3    H210915   4.790   5.545   4.157
 3651TIP3   OH210916   7.079   5.268   3.675
 3651TIP3    H110917   7.150   5.228   3.626
 3651TIP3    H210918   7.024   5.309   3.608
 3652TIP3   OH210919   2.665   2.005   3.119
 3652TIP3    H110920   2.702   2.056   3.047
 3652TIP3    H210921   2.703   1.917   3.107
 3653TIP3   OH210922   6.072   3.881   1.054
 3653TIP3    H110923   6.002   3.817   1.065
 3653TIP3    H210924   6.150   3.839   1.090
 3654TIP3   OH210925   0.997   3.606   2.766
 3654TIP3    H110926   1.035   3.631   2.850
 3654TIP3    H210927   1.055   3.537   2.733
 3655TIP3   OH210928   6.767   5.510   4.041
 3655TIP3    H110929   6.759   5.551   3.955
 3655TIP3    H210930   6.715   5.565   4.099
 3656TIP3   OH210931   0.923   1.307   1.764
 3656TIP3    H110932   0.941   1.233   1.705
 3656TIP3    H210933   0.946   1.385   1.712
 3657TIP3   OH210934   2.027   5.314   2.043
 3657TIP3    H110935   2.121   5.299   2.035
 3657TIP3    H210936   2.018   5.410   2.039
 3658TIP3   OH210937   7.054   2.739   5.058
 3658TIP3    H110938   7.055   2.646   5.036
 3658TIP3    H210939   6.997   2.778   4.991
 3659TIP3   OH210940   5.710   4.509   5.159
 3659TIP3    H110941   5.622   4.542   5.140
 3659TIP3    H210942   5.718   4.515   5.254
 3660TIP3   OH210943   1.083   6.568   4.275
 3660TIP3    H110944   1.146   6.640   4.280
 3660TIP3    H210945   1.039   6.581   4.191
 3661TIP3   OH210946   3.303   5.617   4.801
 3661TIP3    H110947   3.362   5.545   4.823
 3661TIP3    H210948   3.249   5.629   4.879
 3662TIP3   OH210949   4.599   0.882   0.692
 3662TIP3    H110950   4.560   0.969   0.694
 3662TIP3    H210951   4.651   0.877   0.772
 3663TIP3   OH210952   6.390   0.938   0.767
 3663TIP3    H110953   6.340   0.967   0.690
 3663TIP3    H210954   6.333   0.874   0.809
 3664TIP3   OH210955   3.571   0.404   4.067
 3664TIP3    H110956   3.521   0.338   4.020
 3664TIP3    H210957   3.510   0.477   4.078
 3665TIP3   OH210958   5.322   2.214   2.407
 3665TIP3    H110959   5.372   2.253   2.335
 3665TIP3    H210960   5.385   2.209   2.479
 3666TIP3   OH210961   1.728   4.111   1.684
 3666TIP3    H110962   1.792   4.096   1.754
 3666TIP3    H210963   1.648   4.069   1.716
 3667TIP3   OH210964   0.378   4.926   4.310
 3667TIP3    H110965   0.435   5.000   4.289
 3667TIP3    H210966   0.412   4.892   4.393
 3668TIP3   OH210967   5.182   2.938   0.285
 3668TIP3    H110968   5.278   2.940   0.287
 3668TIP3    H210969   5.158   2.864   0.341
 3669TIP3   OH210970   5.568   2.011   0.538
 3669TIP3    H110971   5.654   1.986   0.505
 3669TIP3    H210972   5.577   2.007   0.634
 3670TIP3   OH210973   4.573   3.552   4.273
 3670TIP3    H110974   4.665   3.580   4.265
 3670TIP3    H210975   4.547   3.581   4.361
 3671TIP3   OH210976   5.020   2.854   2.443
 3671TIP3    H110977   4.936   2.898   2.452
 3671TIP3    H210978   5.072   2.912   2.387
 3672TIP3   OH210979   2.450   4.837   0.488
 3672TIP3    H110980   2.511   4.871   0.554
 3672TIP3    H210981   2.499   4.843   0.406
 3673TIP3   OH210982   1.494   1.520   5.241
 3673TIP3    H110983   1.561   1.577   5.278
 3673TIP3    H210984   1.415   1.576   5.238
 3674TIP3   OH210985   6.383   5.936   5.797
 3674TIP3    H110986   6.370   5.950   5.891
 3674TIP3    H210987   6.438   5.858   5.792
 3675TIP3   OH210988   1.151   5.152   0.033
 3675TIP3    H110989   1.226   5.114   0.079
 3675TIP3    H210990   1.103   5.201   0.100
 3676TIP3   OH210991   1.746   0.713   3.134
 3676TIP3    H110992   1.752   0.655   3.058
 3676TIP3    H210993   1.798   0.789   3.109
 3677TIP3   OH210994   1.972   6.139   0.551
 3677TIP3    H110995   2.045   6.086   0.581
 3677TIP3    H210996   1.938   6.093   0.475
 3678TIP3   OH210997   3.876   1.179   1.499
 3678TIP3    H110998   3.898   1.088   1.515
 3678TIP3    H210999   3.914   1.227   1.572
 3679TIP3   OH211000   0.287   1.474   5.817
 3679TIP3    H111001   0.208   1.441   5.859
 3679TIP3    H211002   0.299   1.417   5.741
 3680TIP3   OH211003   7.101   3.938   0.813
 3680TIP3    H111004   7.028   3.980   0.859
 3680TIP3    H211005   7.120   3.997   0.740
 3681TIP3   OH211006   2.403   5.692   5.629
 3681TIP3    H111007   2.354   5.625   5.582
 3681TIP3    H211008   2.408   5.765   5.568
 3682TIP3   OH211009   7.027   0.234   0.285
 3682TIP3    H111010   6.988   0.213   0.200
 3682TIP3    H211011   6.994   0.167   0.345
 3683TIP3   OH211012   0.143   1.371   1.909
 3683TIP3    H111013   0.094   1.358   1.991
 3683TIP3    H211014   0.142   1.285   1.867
 3684TIP3   OH211015   0.797   6.485   0.607
 3684TIP3    H111016   0.728   6.461   0.669
 3684TIP3    H211017   0.852   6.548   0.655
 3685TIP3   OH211018   3.487   1.196   3.276
 3685TIP3    H111019   3.444   1.129   3.222
 3685TIP3    H211020   3.419   1.261   3.291
 3686TIP3   OH211021   5.257   2.831   0.878
 3686TIP3    H111022   5.165   2.811   0.893
 3686TIP3    H211023   5.305   2.776   0.940
 3687TIP3   OH211024   1.665   4.242   2.526
 3687TIP3    H111025   1.611   4.238   2.605
 3687TIP3    H211026   1.752   4.266   2.557
 3688TIP3   OH211027   6.505   3.591   3.434
 3688TIP3    H111028   6.527   3.645   3.510
 3688TIP3    H211029   6.572   3.522   3.435
 3689TIP3   OH211030   5.116   4.347   4.402
 3689TIP3    H111031   5.127   4.269   4.456
 3689TIP3    H211032   5.022   4.364   4.404
 3690TIP3   OH211033   5.178   1.775   0.042
 3690TIP3    H111034   5.155   1.756   0.133
 3690TIP3    H211035   5.250   1.839   0.049
 3691TIP3   OH211036   1.886   4.058   1.896
 3691TIP3    H111037   1.952   3.995   1.869
 3691TIP3    H211038   1.883   4.051   1.992
 3692TIP3   OH211039   0.263   5.797   1.184
 3692TIP3    H111040   0.187   5.777   1.129
 3692TIP3    H211041   0.281   5.889   1.167
 3693TIP3   OH211042   2.273   1.647   2.983
 3693TIP3    H111043   2.192   1.596   2.989
 3693TIP3    H211044   2.338   1.584   2.951
 3694TIP3   OH211045   3.074   1.953   1.057
 3694TIP3    H111046   3.027   2.027   1.018
 3694TIP3    H211047   3.145   1.934   0.996
 3695TIP3   OH211048   6.392   1.357   2.293
 3695TIP3    H111049   6.399   1.349   2.198
 3695TIP3    H211050   6.328   1.427   2.306
 3696TIP3   OH211051   3.431   5.220   4.065
 3696TIP3    H111052   3.426   5.265   4.149
 3696TIP3    H211053   3.403   5.131   4.083
 3697TIP3   OH211054   4.578   6.708   2.457
 3697TIP3    H111055   4.533   6.792   2.467
 3697TIP3    H211056   4.655   6.715   2.513
 3698TIP3   OH211057   6.591   3.643   3.039
 3698TIP3    H111058   6.540   3.678   2.966
 3698TIP3    H211059   6.526   3.601   3.095
 3699TIP3   OH211060   0.393   5.262   0.591
 3699TIP3    H111061   0.330   5.332   0.602
 3699TIP3    H211062   0.364   5.193   0.651
 3700TIP3   OH211063   6.959   4.160   4.971
 3700TIP3    H111064   6.976   4.252   4.954
 3700TIP3    H211065   6.933   4.157   5.063
 3701TIP3   OH211066   1.907   5.411   1.710
 3701TIP3    H111067   1.816   5.390   1.689
 3701TIP3    H211068   1.902   5.494   1.758
 3702TIP3   OH211069   4.163   2.159   0.173
 3702TIP3    H111070   4.132   2.092   0.233
 3702TIP3    H211071   4.091   2.172   0.111
 3703TIP3   OH211072   2.721   4.137   2.597
 3703TIP3    H111073   2.803   4.180   2.571
 3703TIP3    H211074   2.655   4.174   2.538
 3704TIP3   OH211075   5.512   1.017   5.210
 3704TIP3    H111076   5.586   0.955   5.203
 3704TIP3    H211077   5.464   0.987   5.287
 3705TIP3   OH211078   6.393   1.786   1.842
 3705TIP3    H111079   6.474   1.830   1.868
 3705TIP3    H211080   6.337   1.856   1.809
 3706TIP3   OH211081   1.723   6.746   0.698
 3706TIP3    H111082   1.813   6.730   0.724
 3706TIP3    H211083   1.674   6.671   0.732
 3707TIP3   OH211084   0.198   2.010   4.141
 3707TIP3    H111085   0.267   2.025   4.077
 3707TIP3    H211086   0.116   2.019   4.092
 3708TIP3   OH211087   0.508   0.019   2.215
 3708TIP3    H111088   0.560  -0.017   2.286
 3708TIP3    H211089   0.426   0.046   2.256
 3709TIP3   OH211090   6.469   3.760   2.143
 3709TIP3    H111091   6.449   3.792   2.054
 3709TIP3    H211092   6.466   3.665   2.136
 3710TIP3   OH211093   2.294   5.885   3.538
 3710TIP3    H111094   2.280   5.980   3.534
 3710TIP3    H211095   2.263   5.853   3.454
 3711TIP3   OH211096   0.792   2.832   2.552
 3711TIP3    H111097   0.759   2.840   2.463
 3711TIP3    H211098   0.876   2.786   2.543
 3712TIP3   OH211099   1.572   4.301   5.203
 3712TIP3    H111100   1.502   4.304   5.269
 3712TIP3    H211101   1.622   4.222   5.225
 3713TIP3   OH211102   4.625   1.624   2.444
 3713TIP3    H111103   4.601   1.561   2.377
 3713TIP3    H211104   4.605   1.581   2.527
 3714TIP3   OH211105   1.187   3.635   1.566
 3714TIP3    H111106   1.195   3.691   1.644
 3714TIP3    H211107   1.242   3.559   1.584
 3715TIP3   OH211108   2.221   2.763   5.101
 3715TIP3    H111109   2.160   2.699   5.064
 3715TIP3    H211110   2.293   2.765   5.038
 3716TIP3   OH211111   2.597   0.729   0.885
 3716TIP3    H111112   2.598   0.782   0.965
 3716TIP3    H211113   2.520   0.759   0.837
 3717TIP3   OH211114   0.913   3.222   3.993
 3717TIP3    H111115   0.953   3.305   4.018
 3717TIP3    H211116   0.969   3.156   4.034
 3718TIP3   OH211117   2.524   3.903   3.908
 3718TIP3    H111118   2.470   3.826   3.893
 3718TIP3    H211119   2.517   3.920   4.001
 3719TIP3   OH211120   3.751   4.618   5.363
 3719TIP3    H111121   3.770   4.657   5.449
 3719TIP3    H211122   3.668   4.573   5.375
 3720TIP3   OH211123   6.215   0.269   2.577
 3720TIP3    H111124   6.189   0.342   2.520
 3720TIP3    H211125   6.309   0.260   2.562
 3721TIP3   OH211126   2.741   1.418   4.873
 3721TIP3    H111127   2.742   1.352   4.942
 3721TIP3    H211128   2.711   1.498   4.916
 3722TIP3   OH211129   7.019   2.508   4.914
 3722TIP3    H111130   7.040   2.562   4.838
 3722TIP3    H211131   7.097   2.456   4.929
 3723TIP3   OH211132   6.453   1.415   2.762
 3723TIP3    H111133   6.484   1.501   2.733
 3723TIP3    H211134   6.522   1.382   2.819
 3724TIP3   OH211135   6.271   2.241   0.162
 3724TIP3    H111136   6.236   2.297   0.093
 3724TIP3    H211137   6.366   2.242   0.149
 3725TIP3   OH211138   5.978   6.105   5.498
 3725TIP3    H111139   6.018   6.109   5.585
 3725TIP3    H211140   6.052   6.112   5.437
 3726TIP3   OH211141   3.327   4.702   5.145
 3726TIP3    H111142   3.300   4.630   5.089
 3726TIP3    H211143   3.398   4.744   5.097
 3727TIP3   OH211144   6.202   0.745   4.575
 3727TIP3    H111145   6.291   0.775   4.594
 3727TIP3    H211146   6.172   0.707   4.658
 3728TIP3   OH211147   1.206   0.566   4.475
 3728TIP3    H111148   1.200   0.490   4.533
 3728TIP3    H211149   1.121   0.569   4.431
 3729TIP3   OH211150   0.692   6.310   0.425
 3729TIP3    H111151   0.705   6.232   0.478
 3729TIP3    H211152   0.741   6.378   0.471
 3730TIP3   OH211153   5.461   4.286   3.183
 3730TIP3    H111154   5.413   4.340   3.246
 3730TIP3    H211155   5.553   4.298   3.207
 3731TIP3   OH211156   6.565   4.675   5.355
 3731TIP3    H111157   6.604   4.650   5.271
 3731TIP3    H211158   6.593   4.766   5.368
 3732TIP3   OH211159   4.385   4.755   3.243
 3732TIP3    H111160   4.468   4.744   3.290
 3732TIP3    H211161   4.331   4.808   3.302
 3733TIP3   OH211162   1.140   1.980   1.250
 3733TIP3    H111163   1.093   2.056   1.215
 3733TIP3    H211164   1.071   1.918   1.273
 3734TIP3   OH211165   2.875   2.662   3.571
 3734TIP3    H111166   2.961   2.673   3.613
 3734TIP3    H211167   2.814   2.653   3.643
 3735TIP3   OH211168   2.950   4.454   5.766
 3735TIP3    H111169   2.936   4.522   5.832
 3735TIP3    H211170   3.022   4.401   5.800
 3736TIP3   OH211171   1.060   0.315   1.568
 3736TIP3    H111172   1.058   0.289   1.660
 3736TIP3    H211173   1.130   0.380   1.563
 3737TIP3   OH211174   0.072   5.394   3.879
 3737TIP3    H111175   0.017   5.470   3.898
 3737TIP3    H211176   0.032   5.354   3.802
 3738TIP3   OH211177   4.723   2.847   4.552
 3738TIP3    H111178   4.729   2.832   4.647
 3738TIP3    H211179   4.632   2.825   4.530
 3739TIP3   OH211180   6.238   4.223   3.271
 3739TIP3    H111181   6.200   4.160   3.332
 3739TIP3    H211182   6.180   4.221   3.195
 3740TIP3   OH211183   3.755   5.454   0.362
 3740TIP3    H111184   3.809   5.382   0.395
 3740TIP3    H211185   3.803   5.487   0.286
 3741TIP3   OH211186   1.247   4.489   5.293
 3741TIP3    H111187   1.200   4.554   5.346
 3741TIP3    H211188   1.199   4.487   5.210
 3742TIP3   OH211189   2.904   5.754   2.286
 3742TIP3    H111190   2.959   5.737   2.210
 3742TIP3    H211191   2.861   5.670   2.303
 3743TIP3   OH211192   6.196   0.242   1.909
 3743TIP3    H111193   6.261   0.269   1.844
 3743TIP3    H211194   6.132   0.191   1.860
 3744TIP3   OH211195   0.866   5.478   0.171
 3744TIP3    H111196   0.804   5.537   0.214
 3744TIP3    H211197   0.933   5.535   0.135
 3745TIP3   OH211198   1.343   1.032   0.191
 3745TIP3    H111199   1.361   0.949   0.147
 3745TIP3    H211200   1.301   1.006   0.273
 3746TIP3   OH211201   6.981   0.737   5.104
 3746TIP3    H111202   7.070   0.702   5.096
 3746TIP3    H211203   6.993   0.830   5.121
 3747TIP3   OH211204   3.957   3.298   2.585
 3747TIP3    H111205   3.867   3.326   2.602
 3747TIP3    H211206   3.969   3.312   2.491
 3748TIP3   OH211207   2.916   2.165   4.501
 3748TIP3    H111208   2.891   2.073   4.493
 3748TIP3    H211209   2.890   2.205   4.418
 3749TIP3   OH211210   2.566   1.633   1.790
 3749TIP3    H111211   2.612   1.555   1.821
 3749TIP3    H211212   2.614   1.706   1.830
 3750TIP3   OH211213   5.227   3.574   0.553
 3750TIP3    H111214   5.250   3.651   0.500
 3750TIP3    H211215   5.138   3.593   0.583
 3751TIP3   OH211216   3.372   3.086   3.669
 3751TIP3    H111217   3.434   3.013   3.675
 3751TIP3    H211218   3.311   3.071   3.741
 3752TIP3   OH211219   1.834   0.435   1.188
 3752TIP3    H111220   1.746   0.455   1.157
 3752TIP3    H211221   1.844   0.341   1.174
 3753TIP3   OH211222   1.298   2.783   5.323
 3753TIP3    H111223   1.257   2.861   5.359
 3753TIP3    H211224   1.347   2.814   5.247
 3754TIP3   OH211225   5.769   1.011   2.895
 3754TIP3    H111226   5.770   1.101   2.865
 3754TIP3    H211227   5.775   0.959   2.815
 3755TIP3   OH211228   0.341   3.579   4.117
 3755TIP3    H111229   0.340   3.583   4.213
 3755TIP3    H211230   0.395   3.502   4.097
 3756TIP3   OH211231   4.165   0.785   4.200
 3756TIP3    H111232   4.105   0.848   4.160
 3756TIP3    H211233   4.117   0.749   4.274
 3757TIP3   OH211234   1.515   3.553   3.632
 3757TIP3    H111235   1.575   3.488   3.595
 3757TIP3    H211236   1.433   3.506   3.644
 3758TIP3   OH211237   7.082   2.263   2.016
 3758TIP3    H111238   7.054   2.174   2.040
 3758TIP3    H211239   7.019   2.320   2.059
 3759TIP3   OH211240   5.048   5.950   1.527
 3759TIP3    H111241   5.014   6.039   1.514
 3759TIP3    H211242   5.124   5.962   1.584
 3760TIP3   OH211243   4.723   4.598   0.399
 3760TIP3    H111244   4.758   4.611   0.310
 3760TIP3    H211245   4.667   4.520   0.391
 3761TIP3   OH211246   6.574   2.425   1.307
 3761TIP3    H111247   6.484   2.412   1.334
 3761TIP3    H211248   6.588   2.362   1.237
 3762TIP3   OH211249   6.234   2.408   5.769
 3762TIP3    H111250   6.304   2.406   5.704
 3762TIP3    H211251   6.154   2.397   5.718
 3763TIP3   OH211252   4.458   3.502   2.318
 3763TIP3    H111253   4.392   3.438   2.347
 3763TIP3    H211254   4.521   3.450   2.268
 3764TIP3   OH211255   6.387   3.363   0.760
 3764TIP3    H111256   6.356   3.314   0.837
 3764TIP3    H211257   6.448   3.303   0.717
 3765TIP3   OH211258   5.215   5.911   1.986
 3765TIP3    H111259   5.167   5.984   2.025
 3765TIP3    H211260   5.261   5.950   1.912
 3766TIP3   OH211261   7.230   2.038   5.805
 3766TIP3    H111262   7.233   2.117   5.752
 3766TIP3    H211263   7.148   2.045   5.855
 3767TIP3   OH211264   3.052   0.309   0.184
 3767TIP3    H111265   2.961   0.338   0.187
 3767TIP3    H211266   3.098   0.368   0.244
 3768TIP3   OH211267   2.799   1.028   2.903
 3768TIP3    H111268   2.808   0.984   2.818
 3768TIP3    H211269   2.888   1.031   2.938
 3769TIP3   OH211270   5.667   0.537   4.039
 3769TIP3    H111271   5.732   0.539   4.110
 3769TIP3    H211272   5.713   0.573   3.963
 3770TIP3   OH211273   7.000   0.026   5.291
 3770TIP3    H111274   7.007   0.068   5.377
 3770TIP3    H211275   7.033   0.091   5.230
 3771TIP3   OH211276   3.544   1.610   4.526
 3771TIP3    H111277   3.583   1.523   4.536
 3771TIP3    H211278   3.450   1.596   4.540
 3772TIP3   OH211279   2.390   4.141   3.892
 3772TIP3    H111280   2.469   4.098   3.858
 3772TIP3    H211281   2.327   4.070   3.903
 3773TIP3   OH211282   1.505   3.739   4.904
 3773TIP3    H111283   1.520   3.801   4.976
 3773TIP3    H211284   1.426   3.771   4.862
 3774TIP3   OH211285   2.183   3.121   5.474
 3774TIP3    H111286   2.239   3.172   5.416
 3774TIP3    H211287   2.198   3.030   5.448
 3775TIP3   OH211288   4.573   6.113   2.456
 3775TIP3    H111289   4.491   6.162   2.466
 3775TIP3    H211290   4.547   6.031   2.414
 3776TIP3   OH211291   2.167   4.665   5.670
 3776TIP3    H111292   2.126   4.581   5.653
 3776TIP3    H211293   2.242   4.645   5.727
 3777TIP3   OH211294   0.048   0.394   4.281
 3777TIP3    H111295   0.126   0.402   4.226
 3777TIP3    H211296   0.026   0.484   4.304
 3778TIP3   OH211297   2.761   5.644   3.620
 3778TIP3    H111298   2.715   5.697   3.554
 3778TIP3    H211299   2.694   5.627   3.686
 3779TIP3   OH211300   4.184   2.306   3.773
 3779TIP3    H111301   4.230   2.332   3.693
 3779TIP3    H211302   4.188   2.384   3.829
 3780TIP3   OH211303   1.124   6.047   5.455
 3780TIP3    H111304   1.207   6.090   5.433
 3780TIP3    H211305   1.150   5.962   5.491
 3781TIP3   OH211306   6.731   2.401   4.960
 3781TIP3    H111307   6.822   2.429   4.966
 3781TIP3    H211308   6.701   2.431   4.875
 3782TIP3   OH211309   1.669   2.485   5.658
 3782TIP3    H111310   1.639   2.399   5.628
 3782TIP3    H211311   1.591   2.526   5.696
 3783TIP3   OH211312   1.860   6.738   1.361
 3783TIP3    H111313   1.881   6.645   1.366
 3783TIP3    H211314   1.831   6.752   1.271
 3784TIP3   OH211315   7.142   4.796   3.292
 3784TIP3    H111316   7.079   4.866   3.274
 3784TIP3    H211317   7.091   4.729   3.337
 3785TIP3   OH211318   2.186   3.313   2.263
 3785TIP3    H111319   2.193   3.402   2.296
 3785TIP3    H211320   2.137   3.321   2.181
 3786TIP3   OH211321   4.025   6.055   4.033
 3786TIP3    H111322   3.988   6.134   4.074
 3786TIP3    H211323   3.973   5.983   4.068
 3787TIP3   OH211324   0.500   1.529   1.024
 3787TIP3    H111325   0.555   1.607   1.012
 3787TIP3    H211326   0.562   1.457   1.032
 3788TIP3   OH211327   3.927   6.116   1.212
 3788TIP3    H111328   3.986   6.087   1.281
 3788TIP3    H211329   3.855   6.159   1.259
 3789TIP3   OH211330   6.163   1.400   4.745
 3789TIP3    H111331   6.214   1.328   4.709
 3789TIP3    H211332   6.087   1.358   4.785
 3790TIP3   OH211333   6.622   3.808   1.629
 3790TIP3    H111334   6.618   3.883   1.570
 3790TIP3    H211335   6.701   3.824   1.682
 3791TIP3   OH211336   4.026   5.528   1.629
 3791TIP3    H111337   4.103   5.573   1.595
 3791TIP3    H211338   4.008   5.459   1.564
 3792TIP3   OH211339   6.171   6.756   4.116
 3792TIP3    H111340   6.094   6.698   4.115
 3792TIP3    H211341   6.225   6.722   4.188
 3793TIP3   OH211342   4.270   5.789   4.547
 3793TIP3    H111343   4.291   5.709   4.500
 3793TIP3    H211344   4.342   5.802   4.608
 3794TIP3   OH211345   1.912   4.689   1.338
 3794TIP3    H111346   1.933   4.767   1.286
 3794TIP3    H211347   1.872   4.628   1.276
 3795TIP3   OH211348   6.492   1.226   2.512
 3795TIP3    H111349   6.451   1.256   2.430
 3795TIP3    H211350   6.464   1.290   2.577
 3796TIP3   OH211351   0.702   3.594   1.881
 3796TIP3    H111352   0.679   3.501   1.892
 3796TIP3    H211353   0.707   3.607   1.787
 3797TIP3   OH211354   5.832   0.680   3.268
 3797TIP3    H111355   5.900   0.680   3.335
 3797TIP3    H211356   5.840   0.765   3.225
 3798TIP3   OH211357   4.811   0.737   4.202
 3798TIP3    H111358   4.889   0.781   4.168
 3798TIP3    H211359   4.804   0.767   4.293
 3799TIP3   OH211360   7.134   3.856   2.308
 3799TIP3    H111361   7.145   3.840   2.215
 3799TIP3    H211362   7.104   3.947   2.314
 3800TIP3   OH211363   6.902   4.909   2.925
 3800TIP3    H111364   6.868   4.820   2.919
 3800TIP3    H211365   6.971   4.913   2.859
 3801TIP3   OH211366   6.992   6.373   3.663
 3801TIP3    H111367   6.924   6.436   3.639
 3801TIP3    H211368   6.948   6.311   3.721
 3802TIP3   OH211369   0.923   6.435   1.033
 3802TIP3    H111370   0.962   6.382   0.964
 3802TIP3    H211371   0.960   6.523   1.019
 3803TIP3   OH211372   0.199   2.557   2.692
 3803TIP3    H111373   0.276   2.609   2.670
 3803TIP3    H211374   0.207   2.479   2.636
 3804TIP3   OH211375   3.984   5.172   0.906
 3804TIP3    H111376   3.925   5.098   0.890
 3804TIP3    H211377   3.935   5.229   0.966
 3805TIP3   OH211378   0.711   6.018   0.878
 3805TIP3    H111379   0.774   5.959   0.836
 3805TIP3    H211380   0.766   6.075   0.932
 3806TIP3   OH211381   0.150   3.460   1.191
 3806TIP3    H111382   0.148   3.430   1.282
 3806TIP3    H211383   0.058   3.469   1.167
 3807TIP3   OH211384   5.033   6.172   4.487
 3807TIP3    H111385   5.059   6.249   4.538
 3807TIP3    H211386   5.004   6.208   4.403
 3808TIP3   OH211387   6.638   2.694   1.157
 3808TIP3    H111388   6.562   2.666   1.106
 3808TIP3    H211389   6.634   2.642   1.237
 3809TIP3   OH211390   6.812   4.061   0.096
 3809TIP3    H111391   6.818   3.981   0.044
 3809TIP3    H211392   6.771   4.125   0.038
 3810TIP3   OH211393   1.777   1.558   5.107
 3810TIP3    H111394   1.772   1.610   5.188
 3810TIP3    H211395   1.699   1.504   5.108
 3811TIP3   OH211396   4.856   1.375   1.781
 3811TIP3    H111397   4.777   1.391   1.730
 3811TIP3    H211398   4.836   1.410   1.868
 3812TIP3   OH211399   0.155   1.184   1.459
 3812TIP3    H111400   0.172   1.272   1.494
 3812TIP3    H211401   0.237   1.137   1.473
 3813TIP3   OH211402   3.465   4.324   3.932
 3813TIP3    H111403   3.467   4.342   3.838
 3813TIP3    H211404   3.373   4.330   3.956
 3814TIP3   OH211405   5.913   6.386   3.607
 3814TIP3    H111406   5.990   6.366   3.554
 3814TIP3    H211407   5.894   6.478   3.588
 3815TIP3   OH211408   4.753   2.818   1.470
 3815TIP3    H111409   4.829   2.864   1.507
 3815TIP3    H211410   4.685   2.884   1.464
 3816TIP3   OH211411   4.294   0.269   5.672
 3816TIP3    H111412   4.261   0.286   5.584
 3816TIP3    H211413   4.353   0.194   5.662
 3817TIP3   OH211414   1.163   4.422   4.119
 3817TIP3    H111415   1.126   4.442   4.205
 3817TIP3    H211416   1.096   4.370   4.075
 3818TIP3   OH211417   3.095   2.989   2.192
 3818TIP3    H111418   3.179   3.035   2.201
 3818TIP3    H211419   3.036   3.054   2.155
 3819TIP3   OH211420   4.776   6.695   1.700
 3819TIP3    H111421   4.797   6.652   1.783
 3819TIP3    H211422   4.738   6.779   1.726
 3820TIP3   OH211423   3.433   3.870   5.298
 3820TIP3    H111424   3.360   3.811   5.279
 3820TIP3    H211425   3.429   3.937   5.230
 3821TIP3   OH211426   6.598   6.427   1.719
 3821TIP3    H111427   6.587   6.400   1.627
 3821TIP3    H211428   6.543   6.504   1.728
 3822TIP3   OH211429   3.260   4.723   1.758
 3822TIP3    H111430   3.240   4.665   1.684
 3822TIP3    H211431   3.317   4.671   1.815
 3823TIP3   OH211432   2.645   5.056   0.944
 3823TIP3    H111433   2.593   4.975   0.952
 3823TIP3    H211434   2.581   5.123   0.922
 3824TIP3   OH211435   3.926   3.542   5.432
 3824TIP3    H111436   3.886   3.490   5.363
 3824TIP3    H211437   3.892   3.631   5.419
 3825TIP3   OH211438   1.573   4.042   2.333
 3825TIP3    H111439   1.481   4.025   2.313
 3825TIP3    H211440   1.571   4.106   2.404
 3826TIP3   OH211441   0.746   4.045   5.377
 3826TIP3    H111442   0.753   4.112   5.309
 3826TIP3    H211443   0.837   4.023   5.398
 3827TIP3   OH211444   4.320   0.714   3.407
 3827TIP3    H111445   4.253   0.756   3.353
 3827TIP3    H211446   4.279   0.704   3.493
 3828TIP3   OH211447   5.929   1.792   4.837
 3828TIP3    H111448   5.866   1.802   4.908
 3828TIP3    H211449   5.957   1.881   4.817
 3829TIP3   OH211450   1.956   3.177   3.921
 3829TIP3    H111451   2.050   3.157   3.921
 3829TIP3    H211452   1.915   3.093   3.899
 3830TIP3   OH211453   1.535   1.749   1.421
 3830TIP3    H111454   1.479   1.806   1.369
 3830TIP3    H211455   1.585   1.699   1.357
 3831TIP3   OH211456   3.720   6.238   1.347
 3831TIP3    H111457   3.642   6.281   1.312
 3831TIP3    H211458   3.697   6.215   1.437
 3832TIP3   OH211459   1.267   6.411   3.691
 3832TIP3    H111460   1.362   6.423   3.694
 3832TIP3    H211461   1.239   6.418   3.782
 3833TIP3   OH211462   3.491   1.693   3.103
 3833TIP3    H111463   3.562   1.717   3.044
 3833TIP3    H211464   3.466   1.605   3.076
 3834TIP3   OH211465   1.016   4.284   0.232
 3834TIP3    H111466   1.017   4.302   0.326
 3834TIP3    H211467   1.050   4.195   0.225
 3835TIP3   OH211468   0.476   2.801   4.952
 3835TIP3    H111469   0.543   2.808   5.020
 3835TIP3    H211470   0.523   2.810   4.869
 3836TIP3   OH211471   4.409   4.928   0.066
 3836TIP3    H111472   4.429   4.920   0.159
 3836TIP3    H211473   4.447   5.012   0.041
 3837TIP3   OH211474   2.784   3.942  -0.056
 3837TIP3    H111475   2.726   4.009  -0.095
 3837TIP3    H211476   2.725   3.887  -0.005
 3838TIP3   OH211477   4.848   1.954   5.901
 3838TIP3    H111478   4.763   1.920   5.874
 3838TIP3    H211479   4.905   1.939   5.826
 3839TIP3   OH211480   2.630   4.510   5.435
 3839TIP3    H111481   2.621   4.604   5.452
 3839TIP3    H211482   2.690   4.479   5.503
 3840TIP3   OH211483   7.131   1.055   1.406
 3840TIP3    H111484   7.134   0.996   1.481
 3840TIP3    H211485   7.212   1.106   1.412
 3841TIP3   OH211486   3.215   4.416   3.993
 3841TIP3    H111487   3.187   4.433   3.903
 3841TIP3    H211488   3.134   4.408   4.043
 3842TIP3   OH211489   0.045   6.260   3.328
 3842TIP3    H111490   0.123   6.208   3.347
 3842TIP3    H211491   0.043   6.326   3.398
 3843TIP3   OH211492   5.753   5.334   2.042
 3843TIP3    H111493   5.779   5.341   2.134
 3843TIP3    H211494   5.667   5.377   2.038
 3844TIP3   OH211495   1.792   4.467   2.405
 3844TIP3    H111496   1.727   4.408   2.441
 3844TIP3    H211497   1.785   4.457   2.310
 3845TIP3   OH211498   0.831   2.523   0.679
 3845TIP3    H111499   0.887   2.469   0.735
 3845TIP3    H211500   0.793   2.462   0.616
 3846TIP3   OH211501   5.577   4.552   3.875
 3846TIP3    H111502   5.608   4.601   3.951
 3846TIP3    H211503   5.618   4.596   3.800
 3847TIP3   OH211504   7.047   2.440   3.723
 3847TIP3    H111505   7.074   2.419   3.634
 3847TIP3    H211506   7.074   2.365   3.776
 3848TIP3   OH211507   1.059   1.560   0.808
 3848TIP3    H111508   1.024   1.630   0.753
 3848TIP3    H211509   1.144   1.593   0.838
 3849TIP3   OH211510   2.317   0.215   5.587
 3849TIP3    H111511   2.347   0.194   5.676
 3849TIP3    H211512   2.252   0.284   5.599
 3850TIP3   OH211513   3.795   3.518   1.614
 3850TIP3    H111514   3.809   3.574   1.538
 3850TIP3    H211515   3.779   3.431   1.577
 3851TIP3   OH211516   2.680   3.835   1.592
 3851TIP3    H111517   2.685   3.740   1.580
 3851TIP3    H211518   2.587   3.855   1.588
 3852TIP3   OH211519   0.452   4.556   5.841
 3852TIP3    H111520   0.404   4.552   5.759
 3852TIP3    H211521   0.540   4.525   5.820
 3853TIP3   OH211522   0.904   3.153   1.617
 3853TIP3    H111523   0.938   3.242   1.609
 3853TIP3    H211524   0.809   3.163   1.618
 3854TIP3   OH211525   5.674   1.373   1.060
 3854TIP3    H111526   5.665   1.455   1.108
 3854TIP3    H211527   5.584   1.343   1.046
 3855TIP3   OH211528   5.569   0.099   5.456
 3855TIP3    H111529   5.589   0.038   5.528
 3855TIP3    H211530   5.594   0.185   5.490
 3856TIP3   OH211531   6.565   0.412   4.647
 3856TIP3    H111532   6.614   0.338   4.683
 3856TIP3    H211533   6.612   0.436   4.567
 3857TIP3   OH211534   6.430   4.150   2.996
 3857TIP3    H111535   6.377   4.133   2.918
 3857TIP3    H211536   6.402   4.236   3.026
 3858TIP3   OH211537   4.065   0.332   4.682
 3858TIP3    H111538   4.115   0.341   4.763
 3858TIP3    H211539   3.979   0.370   4.702
 3859TIP3   OH211540   2.689   6.254   0.289
 3859TIP3    H111541   2.658   6.165   0.303
 3859TIP3    H211542   2.703   6.261   0.195
 3860TIP3   OH211543   5.229   2.203   0.149
 3860TIP3    H111544   5.177   2.175   0.224
 3860TIP3    H211545   5.283   2.127   0.128
 3861TIP3   OH211546   0.234   2.846   0.007
 3861TIP3    H111547   0.198   2.852   0.095
 3861TIP3    H211548   0.190   2.915  -0.042
 3862TIP3   OH211549   2.610   0.334   0.262
 3862TIP3    H111550   2.693   0.379   0.280
 3862TIP3    H211551   2.585   0.363   0.175
 3863TIP3   OH211552   2.661   4.294   1.030
 3863TIP3    H111553   2.612   4.374   1.009
 3863TIP3    H211554   2.596   4.235   1.067
 3864TIP3   OH211555   1.965   3.320   5.812
 3864TIP3    H111556   2.032   3.318   5.743
 3864TIP3    H211557   1.926   3.233   5.811
 3865TIP3   OH211558   2.892   2.314   3.611
 3865TIP3    H111559   2.890   2.388   3.671
 3865TIP3    H211560   2.942   2.344   3.535
 3866TIP3   OH211561   3.226   2.289   2.527
 3866TIP3    H111562   3.281   2.314   2.452
 3866TIP3    H211563   3.159   2.231   2.490
 3867TIP3   OH211564   3.303   4.706   0.724
 3867TIP3    H111565   3.266   4.757   0.652
 3867TIP3    H211566   3.303   4.766   0.799
 3868TIP3   OH211567   2.688   4.732   4.913
 3868TIP3    H111568   2.710   4.824   4.931
 3868TIP3    H211569   2.671   4.695   5.000
 3869TIP3   OH211570   1.271   3.406   3.687
 3869TIP3    H111571   1.255   3.376   3.777
 3869TIP3    H211572   1.185   3.405   3.645
 3870TIP3   OH211573   1.711   0.395   0.035
 3870TIP3    H111574   1.758   0.419   0.114
 3870TIP3    H211575   1.631   0.352   0.066
 3871TIP3   OH211576   3.019   4.910   2.814
 3871TIP3    H111577   2.952   4.975   2.835
 3871TIP3    H211578   3.043   4.928   2.723
 3872TIP3   OH211579   2.703   3.106   5.666
 3872TIP3    H111580   2.673   3.188   5.627
 3872TIP3    H211581   2.782   3.084   5.617
 3873TIP3   OH211582   1.036   4.106   4.910
 3873TIP3    H111583   1.099   4.166   4.951
 3873TIP3    H211584   0.969   4.164   4.874
 3874TIP3   OH211585   1.547   4.152   5.860
 3874TIP3    H111586   1.576   4.173   5.771
 3874TIP3    H211587   1.574   4.227   5.912
 3875TIP3   OH211588   2.590   1.945   0.218
 3875TIP3    H111589   2.612   2.031   0.254
 3875TIP3    H211590   2.670   1.894   0.228
 3876TIP3   OH211591   1.556   4.726   1.180
 3876TIP3    H111592   1.627   4.662   1.178
 3876TIP3    H211593   1.587   4.799   1.127
 3877TIP3   OH211594   5.123   0.353   1.984
 3877TIP3    H111595   5.077   0.273   2.010
 3877TIP3    H211596   5.090   0.373   1.897
 3878TIP3   OH211597   3.762   5.679   0.908
 3878TIP3    H111598   3.784   5.680   1.001
 3878TIP3    H211599   3.730   5.590   0.892
 3879TIP3   OH211600   5.871   2.144   3.395
 3879TIP3    H111601   5.809   2.215   3.377
 3879TIP3    H211602   5.817   2.066   3.401
 3880TIP3   OH211603   0.559   1.961   3.055
 3880TIP3    H111604   0.489   2.025   3.068
 3880TIP3    H211605   0.513   1.878   3.045
 3881TIP3   OH211606   1.763   1.811   1.597
 3881TIP3    H111607   1.697   1.790   1.531
 3881TIP3    H211608   1.775   1.730   1.646
 3882TIP3   OH211609   3.397   1.350   1.450
 3882TIP3    H111610   3.454   1.328   1.375
 3882TIP3    H211611   3.419   1.441   1.470
 3883TIP3   OH211612   6.827   6.014   1.052
 3883TIP3    H111613   6.916   6.043   1.071
 3883TIP3    H211614   6.815   5.934   1.103
 3884TIP3   OH211615   3.502   5.573   4.292
 3884TIP3    H111616   3.467   5.605   4.376
 3884TIP3    H211617   3.545   5.490   4.315
 3885TIP3   OH211618   1.336   1.635   0.612
 3885TIP3    H111619   1.293   1.670   0.691
 3885TIP3    H211620   1.274   1.654   0.541
 3886TIP3   OH211621   1.757   1.539   3.689
 3886TIP3    H111622   1.697   1.578   3.626
 3886TIP3    H211623   1.760   1.446   3.666
 3887TIP3   OH211624   5.066   4.299   4.131
 3887TIP3    H111625   4.991   4.355   4.151
 3887TIP3    H211626   5.120   4.303   4.211
 3888TIP3   OH211627   5.690   6.689   5.523
 3888TIP3    H111628   5.748   6.716   5.594
 3888TIP3    H211629   5.680   6.767   5.468
 3889TIP3   OH211630   3.735   4.221   4.238
 3889TIP3    H111631   3.699   4.286   4.177
 3889TIP3    H211632   3.827   4.246   4.248
 3890TIP3   OH211633   6.337   0.652   5.513
 3890TIP3    H111634   6.405   0.588   5.531
 3890TIP3    H211635   6.255   0.603   5.519
 3891TIP3   OH211636   1.796   3.261   5.055
 3891TIP3    H111637   1.743   3.339   5.068
 3891TIP3    H211638   1.733   3.193   5.031
 3892TIP3   OH211639   2.049   6.268   1.142
 3892TIP3    H111640   2.082   6.355   1.122
 3892TIP3    H211641   1.957   6.270   1.116
 3893TIP3   OH211642   5.343   0.582   2.033
 3893TIP3    H111643   5.271   0.519   2.025
 3893TIP3    H211644   5.409   0.552   1.971
 3894TIP3   OH211645   1.956   1.281   1.038
 3894TIP3    H111646   1.948   1.333   0.959
 3894TIP3    H211647   2.014   1.209   1.014
 3895TIP3   OH211648   5.472   3.740   2.484
 3895TIP3    H111649   5.430   3.698   2.409
 3895TIP3    H211650   5.523   3.670   2.525
 3896TIP3   OH211651   4.612   4.743   2.157
 3896TIP3    H111652   4.649   4.770   2.073
 3896TIP3    H211653   4.565   4.662   2.137
 3897TIP3   OH211654   3.148   5.104   4.148
 3897TIP3    H111655   3.137   5.199   4.144
 3897TIP3    H211656   3.071   5.069   4.104
 3898TIP3   OH211657   6.076   1.581   3.981
 3898TIP3    H111658   5.998   1.636   3.987
 3898TIP3    H211659   6.059   1.525   3.905
 3899TIP3   OH211660   2.014   5.175   2.600
 3899TIP3    H111661   2.087   5.231   2.624
 3899TIP3    H211662   2.051   5.086   2.602
 3900TIP3   OH211663   1.022   1.801   0.662
 3900TIP3    H111664   0.958   1.834   0.599
 3900TIP3    H211665   1.093   1.865   0.661
 3901TIP3   OH211666   6.306   4.466   2.445
 3901TIP3    H111667   6.315   4.371   2.456
 3901TIP3    H211668   6.386   4.502   2.482
 3902TIP3   OH211669   4.072   0.710   2.475
 3902TIP3    H111670   4.047   0.798   2.501
 3902TIP3    H211671   3.995   0.656   2.494
 3903TIP3   OH211672   3.703   2.363   0.424
 3903TIP3    H111673   3.691   2.292   0.361
 3903TIP3    H211674   3.686   2.443   0.375
 3904TIP3   OH211675   2.417   6.806   0.273
 3904TIP3    H111676   2.489   6.748   0.249
 3904TIP3    H211677   2.339   6.761   0.240
 3905TIP3   OH211678   7.106   1.669   0.683
 3905TIP3    H111679   7.073   1.582   0.662
 3905TIP3    H211680   7.069   1.688   0.770
 3906TIP3   OH211681   0.927   2.813   0.093
 3906TIP3    H111682   1.021   2.805   0.076
 3906TIP3    H211683   0.889   2.840   0.009
 3907TIP3   OH211684   6.198   2.658   3.841
 3907TIP3    H111685   6.248   2.675   3.921
 3907TIP3    H211686   6.261   2.618   3.781
 3908TIP3   OH211687   0.016   2.224   5.114
 3908TIP3    H111688  -0.006   2.178   5.033
 3908TIP3    H211689   0.047   2.310   5.084
 3909TIP3   OH211690   3.391   4.912   1.175
 3909TIP3    H111691   3.408   5.005   1.160
 3909TIP3    H211692   3.453   4.867   1.117
 3910TIP3   OH211693   2.679   3.852   4.468
 3910TIP3    H111694   2.652   3.855   4.376
 3910TIP3    H211695   2.597   3.846   4.517
 3911TIP3   OH211696   3.998   6.239   0.330
 3911TIP3    H111697   3.923   6.285   0.366
 3911TIP3    H211698   4.007   6.161   0.384
 3912TIP3   OH211699   5.510   3.597   2.077
 3912TIP3    H111700   5.572   3.525   2.075
 3912TIP3    H211701   5.471   3.600   1.989
 3913TIP3   OH211702   2.530   5.581   1.908
 3913TIP3    H111703   2.558   5.664   1.870
 3913TIP3    H211704   2.516   5.523   1.833
 3914TIP3   OH211705   6.472   4.128   0.147
 3914TIP3    H111706   6.476   4.041   0.186
 3914TIP3    H211707   6.469   4.188   0.222
 3915TIP3   OH211708   1.183   0.912   3.268
 3915TIP3    H111709   1.138   0.915   3.183
 3915TIP3    H211710   1.113   0.904   3.332
 3916TIP3   OH211711   5.142   3.560   0.150
 3916TIP3    H111712   5.232   3.529   0.157
 3916TIP3    H211713   5.118   3.542   0.058
 3917TIP3   OH211714   4.843   4.569   5.448
 3917TIP3    H111715   4.855   4.596   5.539
 3917TIP3    H211716   4.789   4.490   5.453
 3918TIP3   OH211717   5.892   5.534   5.928
 3918TIP3    H111718   5.811   5.529   5.876
 3918TIP3    H211719   5.905   5.628   5.943
 3919TIP3   OH211720   5.503   2.305   4.533
 3919TIP3    H111721   5.426   2.350   4.568
 3919TIP3    H211722   5.505   2.329   4.440
 3920TIP3   OH211723   0.563   0.996   4.283
 3920TIP3    H111724   0.539   0.970   4.195
 3920TIP3    H211725   0.504   1.068   4.305
 3921TIP3   OH211726   3.996   1.545   2.360
 3921TIP3    H111727   4.042   1.614   2.409
 3921TIP3    H211728   3.914   1.585   2.334
 3922TIP3   OH211729   2.598   3.069   5.900
 3922TIP3    H111730   2.507   3.071   5.872
 3922TIP3    H211731   2.648   3.067   5.818
 3923TIP3   OH211732   0.252   0.502   3.808
 3923TIP3    H111733   0.284   0.431   3.752
 3923TIP3    H211734   0.329   0.556   3.826
 3924TIP3   OH211735   4.425   3.035   3.345
 3924TIP3    H111736   4.336   3.018   3.313
 3924TIP3    H211737   4.478   2.964   3.308
 3925TIP3   OH211738   5.515   0.161   4.431
 3925TIP3    H111739   5.530   0.150   4.525
 3925TIP3    H211740   5.484   0.076   4.401
 3926TIP3   OH211741   4.956   0.551   3.653
 3926TIP3    H111742   5.051   0.560   3.659
 3926TIP3    H211743   4.939   0.536   3.560
 3927TIP3   OH211744   1.151   3.655   4.357
 3927TIP3    H111745   1.072   3.696   4.321
 3927TIP3    H211746   1.223   3.701   4.314
 3928TIP3   OH211747   5.965   0.395   4.100
 3928TIP3    H111748   5.932   0.484   4.116
 3928TIP3    H211749   5.886   0.344   4.082
 3929TIP3   OH211750   6.757   3.599   2.001
 3929TIP3    H111751   6.824   3.549   2.048
 3929TIP3    H211752   6.674   3.568   2.037
 3930TIP3   OH211753   4.563   5.520   3.486
 3930TIP3    H111754   4.648   5.522   3.530
 3930TIP3    H211755   4.585   5.510   3.393
 3931TIP3   OH211756   1.659   3.024   5.006
 3931TIP3    H111757   1.621   2.969   5.075
 3931TIP3    H211758   1.659   2.968   4.929
 3932TIP3   OH211759   4.415   6.772   4.176
 3932TIP3    H111760   4.320   6.784   4.182
 3932TIP3    H211761   4.449   6.808   4.257
 3933TIP3   OH211762   5.280   3.470   4.140
 3933TIP3    H111763   5.334   3.454   4.217
 3933TIP3    H211764   5.340   3.506   4.075
 3934TIP3   OH211765   3.263   6.585   4.208
 3934TIP3    H111766   3.265   6.638   4.128
 3934TIP3    H211767   3.176   6.547   4.209
 3935TIP3   OH211768   1.014   1.147   4.017
 3935TIP3    H111769   1.106   1.173   4.016
 3935TIP3    H211770   0.998   1.119   4.107
 3936TIP3   OH211771   1.759   5.733   2.170
 3936TIP3    H111772   1.669   5.702   2.158
 3936TIP3    H211773   1.755   5.792   2.245
 3937TIP3   OH211774   3.812   2.866   0.408
 3937TIP3    H111775   3.754   2.808   0.458
 3937TIP3    H211776   3.842   2.931   0.471
 3938TIP3   OH211777   2.208   4.063   3.618
 3938TIP3    H111778   2.198   4.049   3.712
 3938TIP3    H211779   2.160   3.991   3.577
 3939TIP3   OH211780   4.586   6.602   4.000
 3939TIP3    H111781   4.525   6.646   4.059
 3939TIP3    H211782   4.532   6.571   3.928
 3940TIP3   OH211783   3.352   0.047   1.542
 3940TIP3    H111784   3.351   0.116   1.477
 3940TIP3    H211785   3.422  -0.012   1.514
 3941TIP3   OH211786   2.191   1.488   5.605
 3941TIP3    H111787   2.116   1.451   5.652
 3941TIP3    H211788   2.247   1.413   5.586
 3942TIP3   OH211789   1.086   2.486   2.220
 3942TIP3    H111790   1.075   2.394   2.196
 3942TIP3    H211791   1.181   2.500   2.218
 3943TIP3   OH211792   5.733   6.356   1.503
 3943TIP3    H111793   5.639   6.366   1.486
 3943TIP3    H211794   5.775   6.412   1.438
 3944TIP3   OH211795   0.653   2.080   0.839
 3944TIP3    H111796   0.613   2.019   0.901
 3944TIP3    H211797   0.670   2.026   0.761
 3945TIP3   OH211798   0.497   0.357   4.899
 3945TIP3    H111799   0.513   0.422   4.830
 3945TIP3    H211800   0.575   0.302   4.899
 3946TIP3   OH211801   6.753   3.179   1.429
 3946TIP3    H111802   6.702   3.260   1.428
 3946TIP3    H211803   6.692   3.112   1.397
 3947TIP3   OH211804   0.982   4.862   4.168
 3947TIP3    H111805   0.916   4.889   4.233
 3947TIP3    H211806   1.057   4.920   4.186
 3948TIP3   OH211807   4.268   1.106   4.314
 3948TIP3    H111808   4.339   1.151   4.361
 3948TIP3    H211809   4.294   1.112   4.222
 3949TIP3   OH211810   0.314   5.799   1.606
 3949TIP3    H111811   0.387   5.840   1.560
 3949TIP3    H211812   0.328   5.820   1.698
 3950TIP3   OH211813   0.255   0.804   4.105
 3950TIP3    H111814   0.305   0.866   4.052
 3950TIP3    H211815   0.188   0.770   4.046
 3951TIP3   OH211816   6.012   5.859   0.734
 3951TIP3    H111817   5.965   5.793   0.683
 3951TIP3    H211818   5.993   5.836   0.826
 3952TIP3   OH211819   0.980   4.611   1.018
 3952TIP3    H111820   0.989   4.528   1.065
 3952TIP3    H211821   0.894   4.644   1.045
 3953TIP3   OH211822   2.276   5.088   3.660
 3953TIP3    H111823   2.212   5.130   3.717
 3953TIP3    H211824   2.243   4.999   3.647
 3954TIP3   OH211825   2.491   4.126   4.716
 3954TIP3    H111826   2.400   4.099   4.722
 3954TIP3    H211827   2.500   4.194   4.784
 3955TIP3   OH211828   0.030  -0.003   4.850
 3955TIP3    H111829  -0.002  -0.047   4.771
 3955TIP3    H211830   0.113   0.037   4.824
 3956TIP3   OH211831   1.910   4.813   4.994
 3956TIP3    H111832   1.857   4.891   5.013
 3956TIP3    H211833   1.900   4.800   4.900
 3957TIP3   OH211834   2.543   4.308   2.456
 3957TIP3    H111835   2.535   4.342   2.367
 3957TIP3    H211836   2.481   4.359   2.507
 3958TIP3   OH211837   2.782   4.096   1.671
 3958TIP3    H111838   2.760   4.009   1.638
 3958TIP3    H211839   2.697   4.141   1.677
 3959TIP3   OH211840   3.889   2.236   1.689
 3959TIP3    H111841   3.860   2.296   1.757
 3959TIP3    H211842   3.871   2.149   1.725
 3960TIP3   OH211843   2.965   1.538   4.199
 3960TIP3    H111844   2.875   1.555   4.225
 3960TIP3    H211845   3.015   1.545   4.281
 3961TIP3   OH211846   5.311   4.423   3.389
 3961TIP3    H111847   5.315   4.424   3.484
 3961TIP3    H211848   5.253   4.350   3.367
 3962TIP3   OH211849   4.194   3.299   3.283
 3962TIP3    H111850   4.198   3.372   3.345
 3962TIP3    H211851   4.285   3.282   3.260
 3963TIP3   OH211852   6.174   5.541   5.865
 3963TIP3    H111853   6.081   5.539   5.889
 3963TIP3    H211854   6.194   5.451   5.839
 3964TIP3   OH211855   1.268   0.283   2.729
 3964TIP3    H111856   1.230   0.313   2.812
 3964TIP3    H211857   1.361   0.274   2.747
 3965TIP3   OH211858   0.108   4.923   0.926
 3965TIP3    H111859   0.121   5.017   0.937
 3965TIP3    H211860   0.169   4.882   0.987
 3966TIP3   OH211861   3.958   5.836   1.961
 3966TIP3    H111862   3.913   5.906   1.914
 3966TIP3    H211863   3.907   5.758   1.941
 3967TIP3   OH211864   4.313   5.923   5.582
 3967TIP3    H111865   4.219   5.941   5.593
 3967TIP3    H211866   4.339   5.881   5.664
 3968TIP3   OH211867   3.043   4.644   2.363
 3968TIP3    H111868   3.107   4.709   2.394
 3968TIP3    H211869   3.033   4.662   2.270
 3969TIP3   OH211870   0.322   3.656   5.304
 3969TIP3    H111871   0.317   3.674   5.210
 3969TIP3    H211872   0.386   3.720   5.337
 3970TIP3   OH211873   3.236   0.557   5.190
 3970TIP3    H111874   3.217   0.521   5.103
 3970TIP3    H211875   3.204   0.491   5.251
 3971TIP3   OH211876   3.490   5.052   5.311
 3971TIP3    H111877   3.448   5.130   5.348
 3971TIP3    H211878   3.578   5.082   5.287
 3972TIP3   OH211879   3.687   0.977   0.497
 3972TIP3    H111880   3.746   1.048   0.522
 3972TIP3    H211881   3.599   1.017   0.499
 3973TIP3   OH211882   2.764   2.721   0.356
 3973TIP3    H111883   2.697   2.754   0.296
 3973TIP3    H211884   2.717   2.659   0.413
 3974TIP3   OH211885   3.832   4.016   5.053
 3974TIP3    H111886   3.755   4.022   4.996
 3974TIP3    H211887   3.849   3.922   5.060
 3975TIP3   OH211888   6.686   5.197   5.276
 3975TIP3    H111889   6.668   5.187   5.183
 3975TIP3    H211890   6.769   5.244   5.279
 3976TIP3   OH211891   1.626   0.105   4.805
 3976TIP3    H111892   1.665   0.060   4.880
 3976TIP3    H211893   1.610   0.194   4.836
 3977TIP3   OH211894   2.964   4.676   4.819
 3977TIP3    H111895   2.873   4.683   4.849
 3977TIP3    H211896   2.962   4.609   4.751
 3978TIP3   OH211897   0.329   1.901   5.407
 3978TIP3    H111898   0.253   1.845   5.417
 3978TIP3    H211899   0.302   1.969   5.346
 3979TIP3   OH211900   0.397   2.197   2.691
 3979TIP3    H111901   0.321   2.229   2.643
 3979TIP3    H211902   0.384   2.102   2.697
 3980TIP3   OH211903   6.847   5.550   5.183
 3980TIP3    H111904   6.807   5.629   5.220
 3980TIP3    H211905   6.776   5.508   5.135
 3981TIP3   OH211906   3.843   5.952   0.394
 3981TIP3    H111907   3.765   5.916   0.351
 3981TIP3    H211908   3.833   5.928   0.486
 3982TIP3   OH211909   6.186   5.613   0.659
 3982TIP3    H111910   6.280   5.597   0.666
 3982TIP3    H211911   6.173   5.698   0.701
 3983TIP3   OH211912   5.982   4.797   5.679
 3983TIP3    H111913   5.927   4.721   5.663
 3983TIP3    H211914   6.035   4.772   5.755
 3984TIP3   OH211915   2.321   5.441   0.556
 3984TIP3    H111916   2.301   5.354   0.590
 3984TIP3    H211917   2.344   5.492   0.633
 3985TIP3   OH211918   6.252   2.895   1.940
 3985TIP3    H111919   6.194   2.952   1.990
 3985TIP3    H211920   6.340   2.916   1.972
 3986TIP3   OH211921   0.169   2.714   0.420
 3986TIP3    H111922   0.149   2.801   0.386
 3986TIP3    H211923   0.088   2.664   0.409
 3987TIP3   OH211924   0.356   5.146   1.252
 3987TIP3    H111925   0.451   5.154   1.258
 3987TIP3    H211926   0.327   5.125   1.341
 3988TIP3   OH211927   3.480   3.272   5.373
 3988TIP3    H111928   3.453   3.287   5.283
 3988TIP3    H211929   3.456   3.352   5.419
 3989TIP3   OH211930   0.239   3.651   1.396
 3989TIP3    H111931   0.271   3.562   1.405
 3989TIP3    H211932   0.298   3.692   1.332
 3990TIP3   OH211933   1.516   0.020   5.456
 3990TIP3    H111934   1.443   0.078   5.435
 3990TIP3    H211935   1.474  -0.063   5.481
 3991TIP3   OH211936   5.407   6.655   1.768
 3991TIP3    H111937   5.316   6.629   1.759
 3991TIP3    H211938   5.431   6.633   1.858
 3992TIP3   OH211939   5.766   4.611   2.192
 3992TIP3    H111940   5.827   4.637   2.261
 3992TIP3    H211941   5.709   4.687   2.180
 3993TIP3   OH211942   2.668   2.638   2.962
 3993TIP3    H111943   2.585   2.628   2.917
 3993TIP3    H211944   2.703   2.722   2.932
 3994TIP3   OH211945   3.089   2.723   2.842
 3994TIP3    H111946   3.142   2.762   2.911
 3994TIP3    H211947   3.039   2.796   2.806
 3995TIP3   OH211948   0.963   0.827   2.407
 3995TIP3    H111949   0.931   0.884   2.476
 3995TIP3    H211950   1.051   0.802   2.435
 3996TIP3   OH211951   6.590   1.942   3.080
 3996TIP3    H111952   6.503   1.958   3.116
 3996TIP3    H211953   6.590   1.988   2.996
 3997TIP3   OH211954   5.851   6.404   4.561
 3997TIP3    H111955   5.839   6.420   4.654
 3997TIP3    H211956   5.837   6.310   4.550
 3998TIP3   OH211957   3.139   3.043   1.475
 3998TIP3    H111958   3.045   3.026   1.466
 3998TIP3    H211959   3.146   3.095   1.555
 3999TIP3   OH211960   6.075   4.194   5.432
 3999TIP3    H111961   5.983   4.168   5.441
 3999TIP3    H211962   6.097   4.175   5.341
 4000TIP3   OH211963   3.104   1.199   2.669
 4000TIP3    H111964   3.110   1.254   2.747
 4000TIP3    H211965   3.059   1.120   2.698
 4001TIP3   OH211966   3.790   1.012   5.690
 4001TIP3    H111967   3.705   0.968   5.685
 4001TIP3    H211968   3.835   0.971   5.763
 4002TIP3   OH211969   1.688   2.810   1.442
 4002TIP3    H111970   1.662   2.719   1.456
 4002TIP3    H211971   1.681   2.851   1.528
 4003TIP3   OH211972   7.019   0.342   0.994
 4003TIP3    H111973   7.000   0.309   1.082
 4003TIP3    H211974   6.991   0.433   0.996
 4004TIP3   OH211975   5.166   2.708   5.522
 4004TIP3    H111976   5.081   2.749   5.505
 4004TIP3    H211977   5.229   2.778   5.511
 4005TIP3   OH211978   5.196   0.642   2.277
 4005TIP3    H111979   5.115   0.692   2.268
 4005TIP3    H211980   5.247   0.663   2.199
 4006TIP3   OH211981   4.488   6.109   5.186
 4006TIP3    H111982   4.535   6.187   5.214
 4006TIP3    H211983   4.415   6.142   5.135
 4007TIP3   OH211984   7.164   0.439   0.753
 4007TIP3    H111985   7.093   0.416   0.813
 4007TIP3    H211986   7.121   0.472   0.675
 4008TIP3   OH211987   3.823   2.544   0.144
 4008TIP3    H111988   3.877   2.488   0.200
 4008TIP3    H211989   3.843   2.633   0.174
 4009TIP3   OH211990   3.254   5.163   0.982
 4009TIP3    H111991   3.311   5.240   0.977
 4009TIP3    H211992   3.174   5.189   0.938
 4010TIP3   OH211993   2.992   1.974   1.446
 4010TIP3    H111994   3.078   1.982   1.406
 4010TIP3    H211995   2.935   1.945   1.374
 4011TIP3   OH211996   6.899   2.417   2.174
 4011TIP3    H111997   6.852   2.488   2.218
 4011TIP3    H211998   6.950   2.375   2.243
 4012TIP3   OH211999   0.119   5.508   3.315
 4012TIP3    H112000   0.100   5.450   3.242
 4012TIP3    H212001   0.156   5.450   3.382
 4013TIP3   OH212002   0.510   5.182   5.187
 4013TIP3    H112003   0.541   5.187   5.096
 4013TIP3    H212004   0.453   5.259   5.196
 4014TIP3   OH212005   5.067   6.725   0.883
 4014TIP3    H112006   5.037   6.814   0.864
 4014TIP3    H212007   5.003   6.691   0.947
 4015TIP3   OH212008   3.494   1.383   0.900
 4015TIP3    H112009   3.474   1.290   0.911
 4015TIP3    H212010   3.503   1.417   0.989
 4016TIP3   OH212011   1.821   4.232   3.906
 4016TIP3    H112012   1.817   4.199   3.816
 4016TIP3    H212013   1.805   4.326   3.897
 4017TIP3   OH212014   1.169   2.828   2.244
 4017TIP3    H112015   1.228   2.904   2.250
 4017TIP3    H212016   1.099   2.858   2.186
 4018TIP3   OH212017   5.595   0.355   5.541
 4018TIP3    H112018   5.538   0.417   5.495
 4018TIP3    H212019   5.594   0.385   5.632
 4019TIP3   OH212020   0.501   1.700   2.563
 4019TIP3    H112021   0.590   1.671   2.577
 4019TIP3    H212022   0.505   1.751   2.482
 4020TIP3   OH212023   0.738   4.837   0.673
 4020TIP3    H112024   0.645   4.841   0.698
 4020TIP3    H212025   0.776   4.916   0.710
 4021TIP3   OH212026   6.989   0.654   0.115
 4021TIP3    H112027   7.053   0.586   0.138
 4021TIP3    H212028   7.040   0.720   0.069
 4022TIP3   OH212029   0.447   0.672   3.855
 4022TIP3    H112030   0.540   0.682   3.875
 4022TIP3    H212031   0.403   0.731   3.916
 4023TIP3   OH212032   0.743   5.865   0.417
 4023TIP3    H112033   0.836   5.856   0.396
 4023TIP3    H212034   0.738   5.935   0.482
 4024TIP3   OH212035   5.402   1.893   4.105
 4024TIP3    H112036   5.464   1.897   4.032
 4024TIP3    H212037   5.401   1.983   4.140
 4025TIP3   OH212038   1.502   6.046   4.999
 4025TIP3    H112039   1.502   6.142   4.993
 4025TIP3    H212040   1.429   6.025   5.057
 4026TIP3   OH212041   5.612   1.230   3.373
 4026TIP3    H112042   5.685   1.174   3.349
 4026TIP3    H212043   5.635   1.263   3.460
 4027TIP3   OH212044   3.959   1.680   4.334
 4027TIP3    H112045   4.053   1.697   4.321
 4027TIP3    H212046   3.918   1.766   4.329
 4028TIP3   OH212047   1.205   2.992   3.202
 4028TIP3    H112048   1.197   2.948   3.287
 4028TIP3    H212049   1.163   2.932   3.140
 4029TIP3   OH212050   2.593   4.874   0.259
 4029TIP3    H112051   2.642   4.957   0.250
 4029TIP3    H212052   2.650   4.809   0.219
 4030TIP3   OH212053   4.114   2.149   2.351
 4030TIP3    H112054   4.187   2.154   2.413
 4030TIP3    H212055   4.098   2.055   2.340
 4031TIP3   OH212056   5.090   0.416   0.710
 4031TIP3    H112057   5.120   0.504   0.686
 4031TIP3    H212058   5.070   0.422   0.803
 4032TIP3   OH212059   2.726   1.074   0.339
 4032TIP3    H112060   2.668   1.125   0.397
 4032TIP3    H212061   2.790   1.138   0.308
 4033TIP3   OH212062   6.965   5.814   4.455
 4033TIP3    H112063   6.918   5.825   4.372
 4033TIP3    H212064   6.999   5.725   4.451
 4034TIP3   OH212065   4.634   0.045   3.145
 4034TIP3    H112066   4.706   0.107   3.145
 4034TIP3    H212067   4.579   0.072   3.219
 4035TIP3   OH212068   3.663   5.287   3.033
 4035TIP3    H112069   3.632   5.306   2.944
 4035TIP3    H212070   3.602   5.334   3.090
 4036TIP3   OH212071   4.326   0.232   2.859
 4036TIP3    H112072   4.340   0.318   2.820
 4036TIP3    H212073   4.349   0.171   2.789
 4037TIP3   OH212074   1.262   4.080   3.030
 4037TIP3    H112075   1.324   4.054   3.098
 4037TIP3    H212076   1.177   4.049   3.062
 4038TIP3   OH212077   6.909   3.999   5.608
 4038TIP3    H112078   7.001   4.000   5.582
 4038TIP3    H212079   6.873   3.920   5.569
 4039TIP3   OH212080   5.443   5.669   1.741
 4039TIP3    H112081   5.440   5.615   1.662
 4039TIP3    H212082   5.525   5.717   1.734
 4040TIP3   OH212083   1.381   2.801   2.877
 4040TIP3    H112084   1.291   2.834   2.877
 4040TIP3    H212085   1.386   2.746   2.955
 4041TIP3   OH212086   1.180   6.332   5.758
 4041TIP3    H112087   1.168   6.250   5.807
 4041TIP3    H212088   1.112   6.331   5.691
 4042TIP3   OH212089   4.963   0.757   2.295
 4042TIP3    H112090   4.895   0.710   2.343
 4042TIP3    H212091   4.916   0.802   2.225
 4043TIP3   OH212092   1.931   2.334   1.232
 4043TIP3    H112093   1.993   2.405   1.250
 4043TIP3    H212094   1.887   2.319   1.316
 4044TIP3   OH212095   1.586   6.235   5.250
 4044TIP3    H112096   1.573   6.283   5.168
 4044TIP3    H212097   1.680   6.213   5.250
 4045TIP3   OH212098   3.489   6.561   3.705
 4045TIP3    H112099   3.447   6.597   3.783
 4045TIP3    H212100   3.435   6.593   3.632
 4046TIP3   OH212101   5.930   3.601   1.598
 4046TIP3    H112102   5.960   3.675   1.651
 4046TIP3    H212103   5.922   3.637   1.510
 4047TIP3   OH212104   1.624   4.886   2.071
 4047TIP3    H112105   1.692   4.949   2.047
 4047TIP3    H212106   1.587   4.858   1.988
 4048TIP3   OH212107   6.472   6.205   2.581
 4048TIP3    H112108   6.402   6.141   2.595
 4048TIP3    H212109   6.552   6.153   2.584
 4049TIP3   OH212110   6.445   1.910   3.423
 4049TIP3    H112111   6.527   1.951   3.394
 4049TIP3    H212112   6.472   1.824   3.456
 4050TIP3   OH212113   3.144   3.320   5.269
 4050TIP3    H112114   3.132   3.278   5.354
 4050TIP3    H212115   3.066   3.296   5.219
 4051TIP3   OH212116   2.971   5.914   0.143
 4051TIP3    H112117   2.887   5.952   0.168
 4051TIP3    H212118   3.014   5.983   0.090
 4052TIP3   OH212119   0.337   2.288   1.364
 4052TIP3    H112120   0.375   2.358   1.311
 4052TIP3    H212121   0.395   2.281   1.441
 4053TIP3   OH212122   5.018   5.498   4.582
 4053TIP3    H112123   4.927   5.473   4.565
 4053TIP3    H212124   5.015   5.547   4.664
 4054TIP3   OH212125   1.754   3.557   5.292
 4054TIP3    H112126   1.833   3.552   5.238
 4054TIP3    H212127   1.683   3.542   5.231
 4055TIP3   OH212128   3.982   5.672   2.633
 4055TIP3    H112129   4.020   5.755   2.663
 4055TIP3    H212130   3.892   5.694   2.610
 4056TIP3   OH212131   5.775   3.060   2.978
 4056TIP3    H112132   5.737   3.142   2.947
 4056TIP3    H212133   5.737   2.993   2.920
 4057TIP3   OH212134   6.052   3.950   0.358
 4057TIP3    H112135   6.007   4.002   0.424
 4057TIP3    H212136   6.007   3.970   0.276
 4058TIP3   OH212137   2.149   5.519   3.186
 4058TIP3    H112138   2.240   5.494   3.170
 4058TIP3    H212139   2.122   5.564   3.106
 4059TIP3   OH212140   0.629   0.732   5.450
 4059TIP3    H112141   0.575   0.654   5.437
 4059TIP3    H212142   0.703   0.720   5.390
 4060TIP3   OH212143   0.247   0.493   4.685
 4060TIP3    H112144   0.155   0.473   4.663
 4060TIP3    H212145   0.278   0.416   4.731
 4061TIP3   OH212146   4.519   3.708   2.513
 4061TIP3    H112147   4.510   3.631   2.457
 4061TIP3    H212148   4.613   3.725   2.516
 4062TIP3   OH212149   2.420   2.787   4.600
 4062TIP3    H112150   2.492   2.725   4.592
 4062TIP3    H212151   2.344   2.733   4.621
 4063TIP3   OH212152   4.018   0.509   4.012
 4063TIP3    H112153   4.097   0.538   4.056
 4063TIP3    H212154   3.988   0.433   4.062
 4064TIP3   OH212155   1.871   4.075   0.761
 4064TIP3    H112156   1.805   4.145   0.756
 4064TIP3    H212157   1.821   3.994   0.748
 4065TIP3   OH212158   6.528   1.129   0.154
 4065TIP3    H112159   6.527   1.224   0.139
 4065TIP3    H212160   6.545   1.091   0.068
 4066TIP3   OH212161   1.337   0.448   2.071
 4066TIP3    H112162   1.316   0.536   2.041
 4066TIP3    H212163   1.432   0.441   2.060
 4067TIP3   OH212164   3.710   0.060   3.359
 4067TIP3    H112165   3.798   0.077   3.393
 4067TIP3    H212166   3.673   0.147   3.342
 4068TIP3   OH212167   3.481   1.690   1.935
 4068TIP3    H112168   3.539   1.637   1.989
 4068TIP3    H212169   3.486   1.778   1.973
 4069TIP3   OH212170   4.965   1.814   3.314
 4069TIP3    H112171   4.877   1.827   3.278
 4069TIP3    H212172   4.956   1.837   3.407
 4070TIP3   OH212173   4.239   6.832   2.605
 4070TIP3    H112174   4.172   6.804   2.542
 4070TIP3    H212175   4.292   6.894   2.556
 4071TIP3   OH212176   0.113   6.610   0.355
 4071TIP3    H112177   0.106   6.549   0.281
 4071TIP3    H212178   0.172   6.567   0.416
 4072TIP3   OH212179   1.982   4.209   2.347
 4072TIP3    H112180   2.069   4.244   2.326
 4072TIP3    H212181   1.962   4.243   2.434
 4073TIP3   OH212182   5.572   3.093   0.446
 4073TIP3    H112183   5.501   3.036   0.476
 4073TIP3    H212184   5.591   3.061   0.358
 4074TIP3   OH212185   3.818   1.815   4.019
 4074TIP3    H112186   3.845   1.830   4.109
 4074TIP3    H212187   3.794   1.722   4.017
 4075TIP3   OH212188   5.680   5.695   4.347
 4075TIP3    H112189   5.732   5.635   4.401
 4075TIP3    H212190   5.626   5.637   4.293
 4076TIP3   OH212191   5.615   6.447   0.987
 4076TIP3    H112192   5.616   6.357   1.021
 4076TIP3    H212193   5.528   6.480   1.008
 4077TIP3   OH212194   0.206   4.062   0.968
 4077TIP3    H112195   0.217   3.974   0.932
 4077TIP3    H212196   0.135   4.053   1.032
 4078TIP3   OH212197   4.471   3.612   1.225
 4078TIP3    H112198   4.393   3.640   1.273
 4078TIP3    H212199   4.535   3.681   1.242
 4079TIP3   OH212200   6.311   3.600   4.935
 4079TIP3    H112201   6.217   3.601   4.921
 4079TIP3    H212202   6.339   3.691   4.923
 4080TIP3   OH212203   1.867   1.050   4.173
 4080TIP3    H112204   1.890   1.028   4.263
 4080TIP3    H212205   1.934   1.112   4.145
 4081TIP3   OH212206   4.177   5.552   1.858
 4081TIP3    H112207   4.104   5.549   1.795
 4081TIP3    H212208   4.250   5.589   1.808
 4082TIP3   OH212209   0.493   6.229   4.178
 4082TIP3    H112210   0.478   6.167   4.249
 4082TIP3    H212211   0.504   6.314   4.223
 4083TIP3   OH212212   0.716   0.176   4.908
 4083TIP3    H112213   0.695   0.083   4.913
 4083TIP3    H212214   0.744   0.191   4.818
 4084TIP3   OH212215   6.779   3.095   4.760
 4084TIP3    H112216   6.706   3.037   4.781
 4084TIP3    H212217   6.745   3.183   4.777
 4085TIP3   OH212218   3.300   5.606   1.415
 4085TIP3    H112219   3.319   5.640   1.327
 4085TIP3    H212220   3.248   5.527   1.399
 4086TIP3   OH212221   5.689   5.157   3.212
 4086TIP3    H112222   5.719   5.199   3.293
 4086TIP3    H212223   5.759   5.174   3.149
 4087TIP3   OH212224   4.348   5.348   5.570
 4087TIP3    H112225   4.299   5.417   5.525
 4087TIP3    H212226   4.399   5.305   5.502
 4088TIP3   OH212227   2.133   6.737   4.448
 4088TIP3    H112228   2.087   6.785   4.517
 4088TIP3    H212229   2.223   6.728   4.481
 4089TIP3   OH212230   6.604   0.488   1.207
 4089TIP3    H112231   6.548   0.419   1.242
 4089TIP3    H212232   6.544   0.559   1.184
 4090TIP3   OH212233   1.313   0.530   1.003
 4090TIP3    H112234   1.274   0.540   0.916
 4090TIP3    H212235   1.244   0.559   1.063
 4091TIP3   OH212236   6.661   5.472   3.618
 4091TIP3    H112237   6.589   5.409   3.606
 4091TIP3    H212238   6.729   5.442   3.557
 4092TIP3   OH212239   3.222   3.567   3.478
 4092TIP3    H112240   3.144   3.519   3.451
 4092TIP3    H212241   3.280   3.562   3.402
 4093TIP3   OH212242   5.326   6.419   5.853
 4093TIP3    H112243   5.377   6.441   5.931
 4093TIP3    H212244   5.369   6.466   5.782
 4094TIP3   OH212245   0.891   4.217   3.086
 4094TIP3    H112246   0.829   4.236   3.016
 4094TIP3    H212247   0.934   4.136   3.060
 4095TIP3   OH212248   0.282   1.372   1.594
 4095TIP3    H112249   0.349   1.313   1.629
 4095TIP3    H212250   0.295   1.454   1.642
 4096TIP3   OH212251   6.159   5.022   4.640
 4096TIP3    H112252   6.141   4.929   4.653
 4096TIP3    H212253   6.183   5.029   4.547
 4097TIP3   OH212254   1.420   6.612   1.026
 4097TIP3    H112255   1.365   6.688   1.010
 4097TIP3    H212256   1.483   6.642   1.092
 4098TIP3   OH212257   3.508   2.061   1.022
 4098TIP3    H112258   3.505   2.132   0.958
 4098TIP3    H212259   3.487   2.103   1.105
 4099TIP3   OH212260   4.195   6.196   1.842
 4099TIP3    H112261   4.278   6.150   1.830
 4099TIP3    H212262   4.210   6.282   1.804
 4100TIP3   OH212263   2.603   3.891   2.065
 4100TIP3    H112264   2.680   3.938   2.031
 4100TIP3    H212265   2.621   3.881   2.159
 4101TIP3   OH212266   1.806   6.254   4.676
 4101TIP3    H112267   1.756   6.269   4.596
 4101TIP3    H212268   1.801   6.160   4.691
 4102TIP3   OH212269   2.207   2.694   3.991
 4102TIP3    H112270   2.260   2.710   4.070
 4102TIP3    H212271   2.125   2.740   4.007
 4103TIP3   OH212272   4.780   4.315   1.426
 4103TIP3    H112273   4.747   4.395   1.468
 4103TIP3    H212274   4.868   4.305   1.461
 4104TIP3   OH212275   0.060   1.942   4.776
 4104TIP3    H112276   0.023   1.960   4.862
 4104TIP3    H212277  -0.013   1.907   4.725
 4105TIP3   OH212278   4.453   4.282   4.023
 4105TIP3    H112279   4.540   4.324   4.023
 4105TIP3    H212280   4.401   4.333   3.961
 4106TIP3   OH212281   2.762   2.605   5.482
 4106TIP3    H112282   2.816   2.540   5.436
 4106TIP3    H212283   2.756   2.573   5.572
 4107TIP3   OH212284   4.893   4.768   2.735
 4107TIP3    H112285   4.983   4.746   2.759
 4107TIP3    H212286   4.900   4.857   2.698
 4108TIP3   OH212287   1.093   1.416   4.464
 4108TIP3    H112288   0.999   1.400   4.475
 4108TIP3    H212289   1.123   1.345   4.407
 4109TIP3   OH212290   6.898   6.266   4.698
 4109TIP3    H112291   6.869   6.177   4.678
 4109TIP3    H212292   6.835   6.298   4.763
 4110TIP3   OH212293   2.787   3.487   1.066
 4110TIP3    H112294   2.874   3.518   1.090
 4110TIP3    H212295   2.728   3.556   1.096
 4111TIP3   OH212296   3.724   3.381   5.594
 4111TIP3    H112297   3.748   3.417   5.680
 4111TIP3    H212298   3.788   3.417   5.534
 4112TIP3   OH212299   4.585   2.193   2.958
 4112TIP3    H112300   4.681   2.190   2.962
 4112TIP3    H212301   4.557   2.192   3.049
 4113TIP3   OH212302   7.227   5.307   2.831
 4113TIP3    H112303   7.276   5.361   2.894
 4113TIP3    H212304   7.232   5.218   2.867
 4114TIP3   OH212305   7.098   1.965   3.542
 4114TIP3    H112306   7.183   1.922   3.552
 4114TIP3    H212307   7.035   1.893   3.536
 4115TIP3   OH212308   5.386   6.085   3.764
 4115TIP3    H112309   5.358   6.079   3.855
 4115TIP3    H212310   5.359   6.172   3.735
 4116TIP3   OH212311   4.746   6.537   4.915
 4116TIP3    H112312   4.828   6.504   4.952
 4116TIP3    H212313   4.766   6.627   4.889
 4117TIP3   OH212314   4.100   2.776   1.506
 4117TIP3    H112315   4.120   2.763   1.413
 4117TIP3    H212316   4.186   2.787   1.548
 4118TIP3   OH212317   3.963   3.937   2.871
 4118TIP3    H112318   4.058   3.947   2.871
 4118TIP3    H212319   3.936   3.975   2.787
 4119TIP3   OH212320   4.924   2.471   4.507
 4119TIP3    H112321   5.017   2.493   4.498
 4119TIP3    H212322   4.908   2.475   4.601
 4120TIP3   OH212323   5.005   5.886   5.164
 4120TIP3    H112324   5.073   5.859   5.101
 4120TIP3    H212325   4.923   5.861   5.122
 4121TIP3   OH212326   2.797   2.324   1.115
 4121TIP3    H112327   2.702   2.324   1.121
 4121TIP3    H212328   2.827   2.306   1.204
 4122TIP3   OH212329   4.078   4.799   1.907
 4122TIP3    H112330   4.050   4.843   1.987
 4122TIP3    H212331   4.004   4.808   1.847
 4123TIP3   OH212332   6.050   0.838   2.820
 4123TIP3    H112333   6.031   0.915   2.767
 4123TIP3    H212334   5.997   0.851   2.899
 4124TIP3   OH212335   5.928   4.237   4.000
 4124TIP3    H112336   5.925   4.172   4.070
 4124TIP3    H212337   5.876   4.310   4.031
 4125TIP3   OH212338   2.675   4.908   0.628
 4125TIP3    H112339   2.678   5.003   0.641
 4125TIP3    H212340   2.766   4.882   0.619
 4126TIP3   OH212341   2.081   6.012   0.184
 4126TIP3    H112342   2.071   5.944   0.117
 4126TIP3    H212343   2.109   5.964   0.262
 4127TIP3   OH212344   6.453   3.295   0.155
 4127TIP3    H112345   6.364   3.293   0.191
 4127TIP3    H212346   6.441   3.323   0.064
 4128TIP3   OH212347   1.564   0.767   5.699
 4128TIP3    H112348   1.515   0.690   5.727
 4128TIP3    H212349   1.521   0.841   5.743
 4129TIP3   OH212350   4.429   5.202   3.168
 4129TIP3    H112351   4.407   5.263   3.097
 4129TIP3    H212352   4.525   5.201   3.170
 4130TIP3   OH212353   2.439   6.169   0.806
 4130TIP3    H112354   2.495   6.247   0.809
 4130TIP3    H212355   2.445   6.132   0.895
 4131TIP3   OH212356   0.488   3.696   2.684
 4131TIP3    H112357   0.449   3.609   2.678
 4131TIP3    H212358   0.545   3.702   2.607
 4132TIP3   OH212359   2.709   3.551   3.807
 4132TIP3    H112360   2.747   3.624   3.856
 4132TIP3    H212361   2.763   3.545   3.728
 4133TIP3   OH212362   2.517   0.577   5.200
 4133TIP3    H112363   2.460   0.528   5.142
 4133TIP3    H212364   2.503   0.669   5.175
 4134TIP3   OH212365   2.628   1.748   2.299
 4134TIP3    H112366   2.600   1.662   2.331
 4134TIP3    H212367   2.708   1.767   2.348
 4135TIP3   OH212368   2.016   3.375   5.133
 4135TIP3    H112369   1.932   3.330   5.140
 4135TIP3    H212370   1.994   3.462   5.101
 4136TIP3   OH212371   4.947   3.014   1.500
 4136TIP3    H112372   5.017   2.990   1.439
 4136TIP3    H212373   4.991   3.061   1.570
 4137TIP3   OH212374   0.373   2.901   3.526
 4137TIP3    H112375   0.296   2.912   3.582
 4137TIP3    H212376   0.433   2.970   3.553
 4138TIP3   OH212377   2.395   4.116   5.489
 4138TIP3    H112378   2.459   4.053   5.522
 4138TIP3    H212379   2.414   4.197   5.538
 4139TIP3   OH212380   0.306   4.070   0.608
 4139TIP3    H112381   0.324   3.979   0.629
 4139TIP3    H212382   0.345   4.119   0.680
 4140TIP3   OH212383   5.505   0.146   3.118
 4140TIP3    H112384   5.546   0.107   3.041
 4140TIP3    H212385   5.436   0.085   3.142
 4141TIP3   OH212386   4.113   0.703   4.444
 4141TIP3    H112387   4.180   0.734   4.506
 4141TIP3    H212388   4.043   0.670   4.500
 4142TIP3   OH212389   6.013   2.118   2.853
 4142TIP3    H112390   6.092   2.108   2.906
 4142TIP3    H212391   6.046   2.132   2.764
 4143TIP3   OH212392   2.893   1.815   0.837
 4143TIP3    H112393   2.863   1.756   0.906
 4143TIP3    H212394   2.857   1.901   0.862
 4144TIP3   OH212395   3.217   1.939   4.937
 4144TIP3    H112396   3.198   2.008   4.873
 4144TIP3    H212397   3.267   1.983   5.005
 4145TIP3   OH212398   6.878   3.837   1.741
 4145TIP3    H112399   6.860   3.846   1.835
 4145TIP3    H212400   6.893   3.926   1.711
 4146TIP3   OH212401   6.043   2.558   5.382
 4146TIP3    H112402   6.044   2.502   5.459
 4146TIP3    H212403   5.954   2.551   5.348
 4147TIP3   OH212404   3.360   0.141   3.506
 4147TIP3    H112405   3.399   0.086   3.438
 4147TIP3    H212406   3.431   0.159   3.567
 4148TIP3   OH212407   3.170   1.063   3.794
 4148TIP3    H112408   3.229   0.997   3.756
 4148TIP3    H212409   3.142   1.026   3.877
 4149TIP3   OH212410   4.258   5.636   1.561
 4149TIP3    H112411   4.301   5.561   1.519
 4149TIP3    H212412   4.328   5.700   1.574
 4150TIP3   OH212413   6.279   3.810   3.513
 4150TIP3    H112414   6.330   3.749   3.566
 4150TIP3    H212415   6.257   3.760   3.434
 4151TIP3   OH212416   3.507   3.121   4.216
 4151TIP3    H112417   3.432   3.174   4.191
 4151TIP3    H212418   3.548   3.096   4.133
 4152TIP3   OH212419   5.209   1.509   4.340
 4152TIP3    H112420   5.175   1.570   4.274
 4152TIP3    H212421   5.178   1.545   4.423
 4153TIP3   OH212422   4.942   4.608   1.801
 4153TIP3    H112423   4.941   4.528   1.749
 4153TIP3    H212424   4.963   4.677   1.738
 4154TIP3   OH212425   6.775   5.864   1.269
 4154TIP3    H112426   6.823   5.787   1.238
 4154TIP3    H212427   6.817   5.888   1.351
 4155TIP3   OH212428   1.603   3.511   5.092
 4155TIP3    H112429   1.632   3.587   5.042
 4155TIP3    H212430   1.508   3.522   5.099
 4156TIP3   OH212431   3.476   0.208   2.010
 4156TIP3    H112432   3.434   0.195   1.925
 4156TIP3    H212433   3.538   0.136   2.017
 4157TIP3   OH212434   6.079   6.056   2.589
 4157TIP3    H112435   6.058   6.090   2.502
 4157TIP3    H212436   6.169   6.026   2.582
 4158TIP3   OH212437   4.282   4.345   0.710
 4158TIP3    H112438   4.242   4.431   0.719
 4158TIP3    H212439   4.229   4.301   0.643
 4159TIP3   OH212440   6.818   3.186   1.075
 4159TIP3    H112441   6.875   3.219   1.144
 4159TIP3    H212442   6.758   3.126   1.119
 4160TIP3   OH212443   2.779   0.366   1.323
 4160TIP3    H112444   2.801   0.274   1.308
 4160TIP3    H212445   2.727   0.365   1.404
 4161TIP3   OH212446   4.113   4.507   5.114
 4161TIP3    H112447   4.082   4.476   5.199
 4161TIP3    H212448   4.033   4.528   5.066
 4162TIP3   OH212449   6.860   1.781   3.410
 4162TIP3    H112450   6.818   1.724   3.474
 4162TIP3    H212451   6.918   1.723   3.360
 4163TIP3   OH212452   7.194   2.945   4.591
 4163TIP3    H112453   7.245   3.013   4.548
 4163TIP3    H212454   7.104   2.977   4.589
 4164TIP3   OH212455   7.187   3.678   0.159
 4164TIP3    H112456   7.269   3.709   0.198
 4164TIP3    H212457   7.129   3.664   0.233
 4165TIP3   OH212458   2.914   5.568   1.017
 4165TIP3    H112459   2.858   5.612   0.953
 4165TIP3    H212460   2.923   5.632   1.088
 4166TIP3   OH212461   3.699   2.300   4.658
 4166TIP3    H112462   3.653   2.359   4.598
 4166TIP3    H212463   3.756   2.248   4.601
 4167TIP3   OH212464   3.961   6.350   4.089
 4167TIP3    H112465   4.048   6.384   4.068
 4167TIP3    H212466   3.900   6.409   4.045
 4168TIP3   OH212467   6.615   5.412   5.097
 4168TIP3    H112468   6.560   5.373   5.166
 4168TIP3    H212469   6.622   5.344   5.030
 4169TIP3   OH212470   1.471   2.919   1.821
 4169TIP3    H112471   1.390   2.876   1.794
 4169TIP3    H212472   1.446   2.969   1.899
 4170TIP3   OH212473   0.071   2.877   4.237
 4170TIP3    H112474  -0.005   2.934   4.233
 4170TIP3    H212475   0.075   2.848   4.328
 4171TIP3   OH212476   0.424   4.295   3.823
 4171TIP3    H112477   0.412   4.255   3.909
 4171TIP3    H212478   0.498   4.248   3.785
 4172TIP3   OH212479   6.948   5.444   0.921
 4172TIP3    H112480   6.965   5.352   0.900
 4172TIP3    H212481   7.031   5.488   0.903
 4173TIP3   OH212482   1.585   1.322   3.987
 4173TIP3    H112483   1.614   1.239   4.025
 4173TIP3    H212484   1.546   1.298   3.903
 4174TIP3   OH212485   2.553   6.782   4.839
 4174TIP3    H112486   2.536   6.727   4.915
 4174TIP3    H212487   2.638   6.822   4.856
 4175TIP3   OH212488   4.529   1.089   2.474
 4175TIP3    H112489   4.538   1.021   2.540
 4175TIP3    H212490   4.457   1.144   2.505
 4176TIP3   OH212491   4.487   5.540   2.005
 4176TIP3    H112492   4.492   5.458   2.055
 4176TIP3    H212493   4.456   5.513   1.918
 4177TIP3   OH212494   0.418   2.440   2.019
 4177TIP3    H112495   0.436   2.522   2.065
 4177TIP3    H212496   0.339   2.406   2.060
 4178TIP3   OH212497   3.704   1.521   2.425
 4178TIP3    H112498   3.731   1.518   2.517
 4178TIP3    H212499   3.663   1.436   2.409
 4179TIP3   OH212500   1.195   3.268   1.305
 4179TIP3    H112501   1.206   3.173   1.312
 4179TIP3    H212502   1.101   3.282   1.315
 4180TIP3   OH212503   2.103   5.329   4.824
 4180TIP3    H112504   2.163   5.398   4.794
 4180TIP3    H212505   2.018   5.372   4.830
 4181TIP3   OH212506   7.129   3.270   4.213
 4181TIP3    H112507   7.197   3.336   4.213
 4181TIP3    H212508   7.060   3.307   4.157
 4182TIP3   OH212509   0.956   1.448   2.014
 4182TIP3    H112510   0.909   1.528   1.990
 4182TIP3    H212511   0.967   1.400   1.932
 4183TIP3   OH212512   0.916   6.462   0.155
 4183TIP3    H112513   0.895   6.528   0.090
 4183TIP3    H212514   0.902   6.506   0.239
 4184TIP3   OH212515   6.913   0.428   4.687
 4184TIP3    H112516   6.851   0.437   4.615
 4184TIP3    H212517   6.883   0.490   4.754
 4185TIP3   OH212518   0.720   5.944   5.628
 4185TIP3    H112519   0.669   5.993   5.692
 4185TIP3    H212520   0.706   5.992   5.545
 4186TIP3   OH212521   0.318   1.571   2.375
 4186TIP3    H112522   0.332   1.554   2.469
 4186TIP3    H212523   0.366   1.653   2.359
 4187TIP3   OH212524   5.334   5.892   1.522
 4187TIP3    H112525   5.300   5.849   1.444
 4187TIP3    H212526   5.331   5.825   1.590
 4188TIP3   OH212527   5.776   5.055   4.494
 4188TIP3    H112528   5.813   4.967   4.484
 4188TIP3    H212529   5.841   5.113   4.453
 4189TIP3   OH212530   5.813   3.833   5.298
 4189TIP3    H112531   5.888   3.774   5.301
 4189TIP3    H212532   5.739   3.776   5.274
 4190TIP3   OH212533   4.438   6.075   2.742
 4190TIP3    H112534   4.375   6.050   2.809
 4190TIP3    H212535   4.394   6.145   2.693
 4191TIP3   OH212536   0.867   3.524   4.379
 4191TIP3    H112537   0.963   3.520   4.386
 4191TIP3    H212538   0.850   3.609   4.338
 4192TIP3   OH212539   6.000   3.785   1.353
 4192TIP3    H112540   6.022   3.871   1.387
 4192TIP3    H212541   6.083   3.751   1.318
 4193TIP3   OH212542   1.517   5.629   0.114
 4193TIP3    H112543   1.496   5.707   0.166
 4193TIP3    H212544   1.585   5.658   0.053
 4194TIP3   OH212545   6.287   4.035   1.367
 4194TIP3    H112546   6.354   4.076   1.423
 4194TIP3    H212547   6.214   4.018   1.426
 4195TIP3   OH212548   6.154   0.696   1.317
 4195TIP3    H112549   6.145   0.611   1.275
 4195TIP3    H212550   6.064   0.722   1.339
 4196TIP3   OH212551   0.280   4.444   0.188
 4196TIP3    H112552   0.314   4.374   0.244
 4196TIP3    H212553   0.208   4.482   0.238
 4197TIP3   OH212554   3.260   4.956   5.221
 4197TIP3    H112555   3.350   4.987   5.232
 4197TIP3    H212556   3.269   4.861   5.209
 4198TIP3   OH212557   0.952   3.828   5.517
 4198TIP3    H112558   0.953   3.770   5.441
 4198TIP3    H212559   0.934   3.770   5.591
 4199TIP3   OH212560   5.362   0.945   2.428
 4199TIP3    H112561   5.275   0.927   2.394
 4199TIP3    H212562   5.419   0.881   2.385
 4200TIP3   OH212563   3.615   1.463   2.087
 4200TIP3    H112564   3.568   1.404   2.028
 4200TIP3    H212565   3.568   1.456   2.170
 4201TIP3   OH212566   5.254   5.526   5.535
 4201TIP3    H112567   5.169   5.563   5.513
 4201TIP3    H212568   5.311   5.552   5.462
 4202TIP3   OH212569   6.402   5.109   0.073
 4202TIP3    H112570   6.482   5.075   0.111
 4202TIP3    H212571   6.334   5.046   0.097
 4203TIP3   OH212572   0.378   4.467   1.885
 4203TIP3    H112573   0.353   4.446   1.975
 4203TIP3    H212574   0.367   4.385   1.837
 4204TIP3   OH212575   2.105   0.227   4.143
 4204TIP3    H112576   2.053   0.282   4.202
 4204TIP3    H212577   2.040   0.176   4.094
 4205TIP3   OH212578   0.120   4.272   1.700
 4205TIP3    H112579   0.095   4.347   1.647
 4205TIP3    H212580   0.117   4.305   1.790
 4206TIP3   OH212581   3.745   4.011   2.401
 4206TIP3    H112582   3.815   3.991   2.339
 4206TIP3    H212583   3.789   4.026   2.484
 4207TIP3   OH212584   0.350   1.153   1.193
 4207TIP3    H112585   0.322   1.081   1.136
 4207TIP3    H212586   0.376   1.109   1.274
 4208TIP3   OH212587   1.991   2.585   4.699
 4208TIP3    H112588   1.972   2.616   4.788
 4208TIP3    H212589   2.030   2.661   4.656
 4209TIP3   OH212590   5.439   5.933   2.704
 4209TIP3    H112591   5.358   5.968   2.741
 4209TIP3    H212592   5.420   5.922   2.611
 4210TIP3   OH212593   0.525   3.130   4.318
 4210TIP3    H112594   0.454   3.188   4.293
 4210TIP3    H212595   0.597   3.189   4.341
 4211TIP3   OH212596   4.709   5.233   4.967
 4211TIP3    H112597   4.633   5.183   4.938
 4211TIP3    H212598   4.683   5.269   5.052
 4212TIP3   OH212599   2.746   2.334   3.899
 4212TIP3    H112600   2.724   2.319   3.991
 4212TIP3    H212601   2.771   2.427   3.895
 4213TIP3   OH212602   4.465   1.638   3.424
 4213TIP3    H112603   4.532   1.612   3.487
 4213TIP3    H212604   4.472   1.574   3.353
 4214TIP3   OH212605   3.181   5.065   5.681
 4214TIP3    H112606   3.158   4.999   5.747
 4214TIP3    H212607   3.161   5.149   5.722
 4215TIP3   OH212608   0.189   2.238   0.326
 4215TIP3    H112609   0.172   2.154   0.368
 4215TIP3    H212610   0.272   2.226   0.280
 4216TIP3   OH212611   2.604   5.703   4.623
 4216TIP3    H112612   2.559   5.767   4.568
 4216TIP3    H212613   2.630   5.752   4.701
 4217TIP3   OH212614   4.619   3.707   3.376
 4217TIP3    H112615   4.558   3.634   3.371
 4217TIP3    H212616   4.597   3.751   3.458
 4218TIP3   OH212617   1.166   5.310   4.730
 4218TIP3    H112618   1.259   5.332   4.730
 4218TIP3    H212619   1.123   5.385   4.771
 4219TIP3   OH212620   0.765   6.538   3.247
 4219TIP3    H112621   0.826   6.598   3.202
 4219TIP3    H212622   0.782   6.453   3.207
 4220TIP3   OH212623   5.608   0.182   1.284
 4220TIP3    H112624   5.538   0.169   1.220
 4220TIP3    H212625   5.633   0.093   1.309
 4221TIP3   OH212626   3.296   2.483   2.731
 4221TIP3    H112627   3.214   2.516   2.765
 4221TIP3    H212628   3.271   2.421   2.662
 4222TIP3   OH212629   2.163   0.522   5.902
 4222TIP3    H112630   2.142   0.475   5.821
 4222TIP3    H212631   2.208   0.601   5.872
 4223TIP3   OH212632   0.808   2.262   2.348
 4223TIP3    H112633   0.795   2.198   2.417
 4223TIP3    H212634   0.830   2.343   2.394
 4224TIP3   OH212635   6.737   1.044   5.757
 4224TIP3    H112636   6.673   1.115   5.750
 4224TIP3    H212637   6.696   0.970   5.713
 4225TIP3   OH212638   5.415   1.532   3.888
 4225TIP3    H112639   5.505   1.554   3.865
 4225TIP3    H212640   5.423   1.475   3.964
 4226TIP3   OH212641   3.670   1.439   0.655
 4226TIP3    H112642   3.763   1.423   0.667
 4226TIP3    H212643   3.631   1.421   0.740
 4227TIP3   OH212644   4.577   3.018   3.982
 4227TIP3    H112645   4.557   3.085   3.917
 4227TIP3    H212646   4.544   3.053   4.064
 4228TIP3   OH212647   1.330   2.557   0.653
 4228TIP3    H112648   1.407   2.584   0.604
 4228TIP3    H212649   1.282   2.638   0.669
 4229TIP3   OH212650   5.762   0.143   0.641
 4229TIP3    H112651   5.694   0.116   0.581
 4229TIP3    H212652   5.722   0.214   0.692
 4230TIP3   OH212653   6.299   1.031   4.384
 4230TIP3    H112654   6.312   1.020   4.290
 4230TIP3    H212655   6.357   0.967   4.424
 4231TIP3   OH212656   1.960   0.799   3.275
 4231TIP3    H112657   2.027   0.769   3.214
 4231TIP3    H212658   1.894   0.730   3.275
 4232TIP3   OH212659   4.819   1.025   5.308
 4232TIP3    H112660   4.737   0.982   5.334
 4232TIP3    H212661   4.865   0.959   5.256
 4233TIP3   OH212662   5.153   2.830   4.720
 4233TIP3    H112663   5.128   2.751   4.767
 4233TIP3    H212664   5.100   2.829   4.640
 4234TIP3   OH212665   6.934   0.512   2.073
 4234TIP3    H112666   7.025   0.524   2.103
 4234TIP3    H212667   6.891   0.595   2.092
 4235TIP3   OH212668   5.360   2.985   0.555
 4235TIP3    H112669   5.380   2.901   0.597
 4235TIP3    H212670   5.301   3.029   0.616
 4236TIP3   OH212671   1.283   1.755   2.061
 4236TIP3    H112672   1.340   1.683   2.089
 4236TIP3    H212673   1.211   1.754   2.124
 4237TIP3   OH212674   2.916   0.324   2.239
 4237TIP3    H112675   3.004   0.344   2.270
 4237TIP3    H212676   2.891   0.244   2.285
 4238TIP3   OH212677   2.307   2.101   5.473
 4238TIP3    H112678   2.254   2.073   5.399
 4238TIP3    H212679   2.246   2.148   5.530
 4239TIP3   OH212680   6.898   3.599   3.647
 4239TIP3    H112681   6.919   3.610   3.554
 4239TIP3    H212682   6.965   3.649   3.694
 4240TIP3   OH212683   2.542   0.267   5.459
 4240TIP3    H112684   2.507   0.244   5.373
 4240TIP3    H212685   2.492   0.213   5.521
 4241TIP3   OH212686   0.481   0.388   2.783
 4241TIP3    H112687   0.414   0.340   2.734
 4241TIP3    H212688   0.494   0.468   2.733
 4242TIP3   OH212689   1.977   0.905   2.697
 4242TIP3    H112690   2.058   0.854   2.686
 4242TIP3    H212691   1.908   0.839   2.703
 4243TIP3   OH212692   5.654   2.301   3.362
 4243TIP3    H112693   5.575   2.309   3.309
 4243TIP3    H212694   5.622   2.269   3.447
 4244TIP3   OH212695   6.542   4.394   0.260
 4244TIP3    H112696   6.567   4.376   0.350
 4244TIP3    H212697   6.623   4.418   0.216
 4245TIP3   OH212698   1.014   5.939   4.734
 4245TIP3    H112699   0.978   5.918   4.819
 4245TIP3    H212700   0.939   5.970   4.683
 4246TIP3   OH212701   2.762   4.181   5.057
 4246TIP3    H112702   2.776   4.092   5.024
 4246TIP3    H212703   2.843   4.227   5.036
 4247TIP3   OH212704   2.842   3.039   0.535
 4247TIP3    H112705   2.796   3.048   0.618
 4247TIP3    H212706   2.842   2.945   0.518
 4248TIP3   OH212707   4.717   5.020   2.606
 4248TIP3    H112708   4.716   5.091   2.541
 4248TIP3    H212709   4.670   4.948   2.564
 4249TIP3   OH212710   0.030   4.343   4.000
 4249TIP3    H112711  -0.035   4.345   4.070
 4249TIP3    H212712   0.058   4.434   3.990
 4250TIP3   OH212713   3.588   0.722   0.504
 4250TIP3    H112714   3.672   0.676   0.504
 4250TIP3    H212715   3.611   0.813   0.523
 4251TIP3   OH212716   1.354   2.201   3.964
 4251TIP3    H112717   1.401   2.194   3.881
 4251TIP3    H212718   1.323   2.112   3.982
 4252TIP3   OH212719   0.157   5.163   3.984
 4252TIP3    H112720   0.129   5.245   3.943
 4252TIP3    H212721   0.083   5.103   3.971
 4253TIP3   OH212722   0.528   5.751   3.001
 4253TIP3    H112723   0.552   5.726   3.091
 4253TIP3    H212724   0.547   5.845   2.996
 4254TIP3   OH212725   4.251   4.399   2.239
 4254TIP3    H112726   4.162   4.365   2.251
 4254TIP3    H212727   4.293   4.388   2.325
 4255TIP3   OH212728   4.436   5.480   2.304
 4255TIP3    H112729   4.378   5.411   2.271
 4255TIP3    H212730   4.378   5.554   2.321
 4256TIP3   OH212731   3.259   5.122   3.049
 4256TIP3    H112732   3.309   5.164   3.119
 4256TIP3    H212733   3.305   5.147   2.968
 4257TIP3   OH212734   2.089   2.550   0.326
 4257TIP3    H112735   2.176   2.512   0.338
 4257TIP3    H212736   2.093   2.595   0.242
 4258TIP3   OH212737   6.408   0.717   5.035
 4258TIP3    H112738   6.430   0.727   4.942
 4258TIP3    H212739   6.339   0.651   5.037
 4259TIP3   OH212740   0.346   1.098   0.880
 4259TIP3    H112741   0.392   1.018   0.852
 4259TIP3    H212742   0.288   1.069   0.950
 4260TIP3   OH212743   4.240   3.390   4.421
 4260TIP3    H112744   4.187   3.419   4.347
 4260TIP3    H212745   4.186   3.409   4.498
 4261TIP3   OH212746   0.527   3.649   2.977
 4261TIP3    H112747   0.520   3.682   2.887
 4261TIP3    H212748   0.616   3.615   2.983
 4262TIP3   OH212749   4.606   0.674   4.904
 4262TIP3    H112750   4.603   0.744   4.838
 4262TIP3    H212751   4.659   0.711   4.975
 4263TIP3   OH212752   4.882   0.309   0.299
 4263TIP3    H112753   4.806   0.255   0.277
 4263TIP3    H212754   4.947   0.288   0.232
 4264TIP3   OH212755   0.504   2.696   2.604
 4264TIP3    H112756   0.431   2.751   2.574
 4264TIP3    H212757   0.568   2.701   2.533
 4265TIP3   OH212758   3.638   1.122   2.218
 4265TIP3    H112759   3.614   1.141   2.128
 4265TIP3    H212760   3.631   1.027   2.226
 4266TIP3   OH212761   5.765   1.633   1.187
 4266TIP3    H112762   5.843   1.597   1.228
 4266TIP3    H212763   5.796   1.708   1.136
 4267TIP3   OH212764   1.751   4.568   0.489
 4267TIP3    H112765   1.731   4.582   0.582
 4267TIP3    H212766   1.716   4.646   0.445
 4268TIP3   OH212767   6.037   1.648   1.835
 4268TIP3    H112768   6.094   1.606   1.771
 4268TIP3    H212769   6.044   1.593   1.913
 4269TIP3   OH212770   0.304   2.605   5.032
 4269TIP3    H112771   0.374   2.671   5.030
 4269TIP3    H212772   0.303   2.574   5.122
 4270TIP3   OH212773   4.284   3.997   5.742
 4270TIP3    H112774   4.213   3.955   5.791
 4270TIP3    H212775   4.348   4.021   5.810
 4271TIP3   OH212776   1.856   0.166   3.789
 4271TIP3    H112777   1.827   0.099   3.726
 4271TIP3    H212778   1.868   0.119   3.871
 4272TIP3   OH212779   7.146   1.080   2.005
 4272TIP3    H112780   7.240   1.076   1.986
 4272TIP3    H212781   7.104   1.087   1.919
 4273TIP3   OH212782   0.835   6.161   3.942
 4273TIP3    H112783   0.837   6.163   4.037
 4273TIP3    H212784   0.743   6.179   3.920
 4274TIP3   OH212785   1.093   2.213   5.340
 4274TIP3    H112786   1.003   2.180   5.337
 4274TIP3    H212787   1.092   2.290   5.283
 4275TIP3   OH212788   5.208   6.251   5.439
 4275TIP3    H112789   5.130   6.282   5.486
 4275TIP3    H212790   5.176   6.227   5.352
 4276TIP3   OH212791   1.381   1.407   2.938
 4276TIP3    H112792   1.454   1.409   2.999
 4276TIP3    H212793   1.422   1.387   2.853
 4277TIP3   OH212794   5.600   1.335   5.228
 4277TIP3    H112795   5.655   1.306   5.300
 4277TIP3    H212796   5.516   1.292   5.242
 4278TIP3   OH212797   0.677   4.244   2.915
 4278TIP3    H112798   0.643   4.233   2.826
 4278TIP3    H212799   0.660   4.160   2.958
 4279TIP3   OH212800   0.102   0.503   3.002
 4279TIP3    H112801   0.053   0.455   3.069
 4279TIP3    H212802   0.128   0.584   3.046
 4280TIP3   OH212803   3.247   2.765   4.664
 4280TIP3    H112804   3.327   2.812   4.685
 4280TIP3    H212805   3.234   2.705   4.737
 4281TIP3   OH212806   4.829   1.151   3.406
 4281TIP3    H112807   4.765   1.096   3.451
 4281TIP3    H212808   4.879   1.091   3.351
 4282TIP3   OH212809   0.726   1.237   2.747
 4282TIP3    H112810   0.782   1.287   2.807
 4282TIP3    H212811   0.661   1.300   2.717
 4283TIP3   OH212812   3.125   1.016   5.112
 4283TIP3    H112813   3.153   1.007   5.203
 4283TIP3    H212814   3.068   0.940   5.097
 4284TIP3   OH212815   3.933   4.270   5.076
 4284TIP3    H112816   3.881   4.336   5.121
 4284TIP3    H212817   3.880   4.190   5.082
 4285TIP3   OH212818   2.893   1.319   0.573
 4285TIP3    H112819   2.800   1.298   0.585
 4285TIP3    H212820   2.939   1.251   0.622
 4286TIP3   OH212821   5.733   4.379   0.876
 4286TIP3    H112822   5.810   4.379   0.820
 4286TIP3    H212823   5.736   4.295   0.921
 4287TIP3   OH212824   5.368   3.147   2.164
 4287TIP3    H112825   5.316   3.228   2.159
 4287TIP3    H212826   5.396   3.131   2.074
 4288TIP3   OH212827   5.358   5.327   3.824
 4288TIP3    H112828   5.263   5.323   3.838
 4288TIP3    H212829   5.375   5.419   3.804
 4289TIP3   OH212830   5.521   1.930   3.185
 4289TIP3    H112831   5.429   1.906   3.182
 4289TIP3    H212832   5.566   1.849   3.208
 4290TIP3   OH212833   1.466   3.586   3.966
 4290TIP3    H112834   1.461   3.587   4.061
 4290TIP3    H212835   1.498   3.498   3.945
 4291TIP3   OH212836   4.441   1.596   3.022
 4291TIP3    H112837   4.436   1.543   3.102
 4291TIP3    H212838   4.483   1.539   2.958
 4292TIP3   OH212839   3.031   3.184   1.706
 4292TIP3    H112840   3.014   3.097   1.741
 4292TIP3    H212841   3.092   3.224   1.768
 4293TIP3   OH212842   3.401   0.906   4.911
 4293TIP3    H112843   3.348   0.826   4.906
 4293TIP3    H212844   3.480   0.885   4.862
 4294TIP3   OH212845   3.140   3.737   1.381
 4294TIP3    H112846   3.167   3.713   1.470
 4294TIP3    H212847   3.062   3.791   1.394
 4295TIP3   OH212848   5.660   3.313   5.570
 4295TIP3    H112849   5.577   3.357   5.552
 4295TIP3    H212850   5.725   3.384   5.572
 4296TIP3   OH212851   6.418   3.810   2.581
 4296TIP3    H112852   6.335   3.843   2.545
 4296TIP3    H212853   6.473   3.888   2.588
 4297TIP3   OH212854   4.859   2.455   3.267
 4297TIP3    H112855   4.849   2.529   3.208
 4297TIP3    H212856   4.782   2.458   3.323
 4298TIP3   OH212857   3.567   4.780   0.704
 4298TIP3    H112858   3.609   4.694   0.700
 4298TIP3    H212859   3.475   4.762   0.720
 4299TIP3   OH212860   3.475   4.667   5.845
 4299TIP3    H112861   3.504   4.704   5.762
 4299TIP3    H212862   3.555   4.662   5.898
 4300TIP3   OH212863   2.399   3.050   3.228
 4300TIP3    H112864   2.484   3.006   3.232
 4300TIP3    H212865   2.339   2.984   3.192
 4301TIP3   OH212866   4.773   6.261   4.775
 4301TIP3    H112867   4.784   6.306   4.858
 4301TIP3    H212868   4.786   6.330   4.709
 4302TIP3   OH212869   1.451   5.686   5.537
 4302TIP3    H112870   1.358   5.709   5.541
 4302TIP3    H212871   1.474   5.696   5.444
 4303TIP3   OH212872   5.897   4.642   2.668
 4303TIP3    H112873   5.833   4.578   2.701
 4303TIP3    H212874   5.854   4.681   2.591
 4304TIP3   OH212875   7.071   6.545   4.075
 4304TIP3    H112876   7.145   6.493   4.045
 4304TIP3    H212877   7.084   6.554   4.170
 4305TIP3   OH212878   6.961   1.505   2.777
 4305TIP3    H112879   7.050   1.509   2.745
 4305TIP3    H212880   6.961   1.433   2.840
 4306TIP3   OH212881   3.062   5.270   4.602
 4306TIP3    H112882   3.085   5.187   4.561
 4306TIP3    H212883   3.106   5.336   4.549
 4307TIP3   OH212884   7.206   5.130   1.339
 4307TIP3    H112885   7.277   5.073   1.368
 4307TIP3    H212886   7.230   5.217   1.371
 4308TIP3   OH212887   0.311   5.007   1.492
 4308TIP3    H112888   0.251   5.039   1.560
 4308TIP3    H212889   0.354   4.932   1.533
 4309TIP3   OH212890   1.373   4.130   0.485
 4309TIP3    H112891   1.293   4.084   0.459
 4309TIP3    H212892   1.403   4.085   0.564
 4310TIP3   OH212893   1.010   3.834   5.882
 4310TIP3    H112894   1.084   3.785   5.917
 4310TIP3    H212895   0.971   3.776   5.817
 4311TIP3   OH212896   1.938   0.772   3.623
 4311TIP3    H112897   1.959   0.798   3.713
 4311TIP3    H212898   2.007   0.811   3.570
 4312TIP3   OH212899   2.559   2.896   0.953
 4312TIP3    H112900   2.611   2.902   0.874
 4312TIP3    H212901   2.616   2.928   1.023
 4313TIP3   OH212902   5.478   2.050   1.604
 4313TIP3    H112903   5.432   2.134   1.599
 4313TIP3    H212904   5.492   2.025   1.512
 4314TIP3   OH212905   2.016   1.931   4.913
 4314TIP3    H112906   2.056   1.903   4.995
 4314TIP3    H212907   1.952   1.862   4.892
 4315TIP3   OH212908   0.144   0.392   1.438
 4315TIP3    H112909   0.086   0.402   1.514
 4315TIP3    H212910   0.225   0.355   1.474
 4316TIP3   OH212911   1.242   3.334   3.959
 4316TIP3    H112912   1.190   3.398   4.007
 4316TIP3    H212913   1.311   3.307   4.021
 4317TIP3   OH212914   6.857   6.497   5.612
 4317TIP3    H112915   6.933   6.548   5.584
 4317TIP3    H212916   6.790   6.563   5.631
 4318TIP3   OH212917   1.407   2.957   0.341
 4318TIP3    H112918   1.378   2.894   0.275
 4318TIP3    H212919   1.382   3.042   0.307
 4319TIP3   OH212920   3.477   5.220   3.709
 4319TIP3    H112921   3.439   5.289   3.654
 4319TIP3    H212922   3.500   5.150   3.648
 4320TIP3   OH212923   5.191   6.781   4.311
 4320TIP3    H112924   5.195   6.868   4.272
 4320TIP3    H212925   5.270   6.737   4.280
 4321TIP3   OH212926   6.364   6.096   1.133
 4321TIP3    H112927   6.418   6.022   1.160
 4321TIP3    H212928   6.423   6.172   1.138
 4322TIP3   OH212929   3.921   1.602   3.238
 4322TIP3    H112930   3.875   1.617   3.155
 4322TIP3    H212931   3.970   1.683   3.254
 4323TIP3   OH212932   4.606   3.811   5.323
 4323TIP3    H112933   4.531   3.791   5.267
 4323TIP3    H212934   4.587   3.768   5.406
 4324TIP3   OH212935   2.563   0.481   2.710
 4324TIP3    H112936   2.638   0.539   2.697
 4324TIP3    H212937   2.510   0.525   2.776
 4325TIP3   OH212938   5.450   0.415   4.706
 4325TIP3    H112939   5.416   0.363   4.779
 4325TIP3    H212940   5.493   0.490   4.748
 4326TIP3   OH212941   1.326   4.079   4.618
 4326TIP3    H112942   1.386   4.053   4.548
 4326TIP3    H212943   1.378   4.073   4.697
 4327TIP3   OH212944   3.873   3.082   1.678
 4327TIP3    H112945   3.874   2.989   1.657
 4327TIP3    H212946   3.782   3.102   1.700
 4328TIP3   OH212947   5.943   0.197   1.430
 4328TIP3    H112948   5.892   0.264   1.385
 4328TIP3    H212949   6.018   0.181   1.373
 4329TIP3   OH212950   6.743   4.698   0.242
 4329TIP3    H112951   6.666   4.649   0.211
 4329TIP3    H212952   6.725   4.789   0.218
 4330TIP3   OH212953   3.063   5.182   3.221
 4330TIP3    H112954   3.079   5.099   3.265
 4330TIP3    H212955   3.099   5.170   3.133
 4331TIP3   OH212956   2.072   4.714   1.028
 4331TIP3    H112957   2.112   4.640   1.073
 4331TIP3    H212958   2.101   4.791   1.077
 4332TIP3   OH212959   4.609   2.488   2.022
 4332TIP3    H112960   4.631   2.469   2.113
 4332TIP3    H212961   4.534   2.432   2.003
 4333TIP3   OH212962   4.653   5.138   1.249
 4333TIP3    H112963   4.580   5.101   1.299
 4333TIP3    H212964   4.651   5.093   1.165
 4334TIP3   OH212965   0.632   1.315   5.753
 4334TIP3    H112966   0.695   1.343   5.819
 4334TIP3    H212967   0.602   1.229   5.783
 4335TIP3   OH212968   6.554   5.789   0.699
 4335TIP3    H112969   6.507   5.814   0.778
 4335TIP3    H212970   6.570   5.695   0.710
 4336TIP3   OH212971   5.285   0.533   0.988
 4336TIP3    H112972   5.246   0.588   1.056
 4336TIP3    H212973   5.328   0.462   1.036
 4337TIP3   OH212974   3.069   4.654   3.422
 4337TIP3    H112975   3.128   4.722   3.393
 4337TIP3    H212976   3.112   4.572   3.398
 4338TIP3   OH212977   4.472   4.107   4.785
 4338TIP3    H112978   4.500   4.148   4.866
 4338TIP3    H212979   4.408   4.041   4.812
 4339TIP3   OH212980   2.966   4.925   3.621
 4339TIP3    H112981   2.894   4.862   3.619
 4339TIP3    H212982   3.035   4.880   3.670
 4340TIP3   OH212983   4.605   3.010   0.126
 4340TIP3    H112984   4.685   2.969   0.094
 4340TIP3    H212985   4.606   2.993   0.220
 4341TIP3   OH212986   4.947   0.358   5.234
 4341TIP3    H112987   4.962   0.442   5.277
 4341TIP3    H212988   5.031   0.336   5.194
 4342TIP3   OH212989   0.860   5.945   1.453
 4342TIP3    H112990   0.819   6.021   1.413
 4342TIP3    H212991   0.954   5.964   1.451
 4343TIP3   OH212992   2.760   3.865   1.247
 4343TIP3    H112993   2.698   3.936   1.263
 4343TIP3    H212994   2.705   3.790   1.226
 4344TIP3   OH212995   6.772   0.793   1.790
 4344TIP3    H112996   6.734   0.720   1.741
 4344TIP3    H212997   6.786   0.861   1.724
 4345TIP3   OH212998   3.751   3.600   4.093
 4345TIP3    H112999   3.663   3.563   4.092
 4345TIP3    H213000   3.802   3.543   4.034
 4346TIP3   OH213001   5.857   5.597   1.293
 4346TIP3    H113002   5.885   5.536   1.226
 4346TIP3    H213003   5.775   5.633   1.261
 4347TIP3   OH213004   1.572   6.443   2.798
 4347TIP3    H113005   1.610   6.376   2.854
 4347TIP3    H213006   1.507   6.397   2.746
 4348TIP3   OH213007   2.227   6.169   1.377
 4348TIP3    H113008   2.275   6.242   1.339
 4348TIP3    H213009   2.178   6.131   1.304
 4349TIP3   OH213010   2.329   2.371   3.324
 4349TIP3    H113011   2.402   2.310   3.335
 4349TIP3    H213012   2.258   2.334   3.377
 4350TIP3   OH213013   2.265   2.364   0.876
 4350TIP3    H113014   2.324   2.434   0.849
 4350TIP3    H213015   2.266   2.368   0.972
 4351TIP3   OH213016   2.373   4.771   4.119
 4351TIP3    H113017   2.339   4.756   4.207
 4351TIP3    H213018   2.386   4.865   4.113
 4352TIP3   OH213019   6.079   6.640   4.776
 4352TIP3    H113020   6.020   6.643   4.851
 4352TIP3    H213021   6.060   6.720   4.727
 4353TIP3   OH213022   4.974   0.956   0.105
 4353TIP3    H113023   4.950   1.048   0.092
 4353TIP3    H213024   4.976   0.919   0.017
 4354TIP3   OH213025   3.130   5.395   1.458
 4354TIP3    H113026   3.102   5.337   1.530
 4354TIP3    H213027   3.152   5.335   1.387
 4355TIP3   OH213028   5.583   5.185   4.988
 4355TIP3    H113029   5.566   5.222   5.075
 4355TIP3    H213030   5.542   5.247   4.928
 4356TIP3   OH213031   1.637   2.278   4.162
 4356TIP3    H113032   1.617   2.355   4.110
 4356TIP3    H213033   1.666   2.312   4.246
 4357TIP3   OH213034   1.069   4.968   0.340
 4357TIP3    H113035   1.072   4.989   0.433
 4357TIP3    H213036   1.021   5.040   0.300
 4358TIP3   OH213037   1.879   4.498   4.488
 4358TIP3    H113038   1.907   4.461   4.572
 4358TIP3    H213039   1.946   4.562   4.467
 4359TIP3   OH213040   6.634   4.319   2.343
 4359TIP3    H113041   6.648   4.280   2.257
 4359TIP3    H213042   6.716   4.363   2.364
 4360TIP3   OH213043   3.475   6.083   0.377
 4360TIP3    H113044   3.428   6.000   0.372
 4360TIP3    H213045   3.562   6.060   0.409
 4361TIP3   OH213046   3.351   6.003   4.897
 4361TIP3    H113047   3.311   5.947   4.830
 4361TIP3    H213048   3.438   5.966   4.909
 4362TIP3   OH213049   5.639   2.296   2.432
 4362TIP3    H113050   5.717   2.351   2.439
 4362TIP3    H213051   5.616   2.276   2.523
 4363TIP3   OH213052   3.618   3.678   5.378
 4363TIP3    H113053   3.559   3.753   5.381
 4363TIP3    H213054   3.576   3.612   5.433
 4364TIP3   OH213055   6.544   0.081   1.791
 4364TIP3    H113056   6.458   0.121   1.774
 4364TIP3    H213057   6.577   0.128   1.868
 4365TIP3   OH213058   1.654   3.773   2.016
 4365TIP3    H113059   1.667   3.736   1.929
 4365TIP3    H213060   1.598   3.849   2.002
 4366TIP3   OH213061   0.664   0.561   5.060
 4366TIP3    H113062   0.642   0.468   5.063
 4366TIP3    H213063   0.759   0.564   5.058
 4367TIP3   OH213064   0.542   2.894   0.360
 4367TIP3    H113065   0.501   2.947   0.428
 4367TIP3    H213066   0.499   2.920   0.279
 4368TIP3   OH213067   3.140   5.096   0.201
 4368TIP3    H113068   3.097   5.023   0.157
 4368TIP3    H213069   3.158   5.159   0.131
 4369TIP3   OH213070   1.613   4.218   5.595
 4369TIP3    H113071   1.666   4.284   5.551
 4369TIP3    H213072   1.604   4.147   5.531
 4370TIP3   OH213073   0.943   2.125   4.714
 4370TIP3    H113074   0.908   2.140   4.801
 4370TIP3    H213075   0.908   2.198   4.661
 4371TIP3   OH213076   0.896   5.214   4.840
 4371TIP3    H113077   0.981   5.251   4.816
 4371TIP3    H213078   0.834   5.256   4.780
 4372TIP3   OH213079   1.616   5.983   1.905
 4372TIP3    H113080   1.591   5.909   1.849
 4372TIP3    H213081   1.704   6.006   1.876
 4373TIP3   OH213082   1.184   3.283   2.234
 4373TIP3    H113083   1.213   3.369   2.263
 4373TIP3    H213084   1.241   3.221   2.280
 4374TIP3   OH213085   4.593   1.750   0.922
 4374TIP3    H113086   4.631   1.833   0.952
 4374TIP3    H213087   4.516   1.776   0.872
 4375TIP3   OH213088   5.165   6.483   3.396
 4375TIP3    H113089   5.244   6.504   3.346
 4375TIP3    H213090   5.106   6.557   3.379
 4376TIP3   OH213091   3.549   2.474   3.212
 4376TIP3    H113092   3.564   2.565   3.235
 4376TIP3    H213093   3.521   2.432   3.293
 4377TIP3   OH213094   1.669   1.842   2.275
 4377TIP3    H113095   1.736   1.797   2.327
 4377TIP3    H213096   1.603   1.869   2.339
 4378TIP3   OH213097   4.929   4.904   2.280
 4378TIP3    H113098   4.963   4.817   2.261
 4378TIP3    H213099   4.845   4.888   2.322
 4379TIP3   OH213100   0.165   4.178   2.293
 4379TIP3    H113101   0.070   4.165   2.283
 4379TIP3    H213102   0.202   4.091   2.277
 4380TIP3   OH213103   2.688   2.082   4.380
 4380TIP3    H113104   2.628   2.065   4.453
 4380TIP3    H213105   2.740   2.002   4.373
 4381TIP3   OH213106   3.095   2.940   1.832
 4381TIP3    H113107   3.077   2.848   1.811
 4381TIP3    H213108   3.080   2.947   1.926
 4382TIP3   OH213109   0.775   4.195   0.381
 4382TIP3    H113110   0.706   4.260   0.364
 4382TIP3    H213111   0.834   4.239   0.442
 4383TIP3   OH213112   6.269   2.007   3.861
 4383TIP3    H113113   6.319   2.015   3.942
 4383TIP3    H213114   6.195   2.066   3.873
 4384TIP3   OH213115   1.081   4.108   1.457
 4384TIP3    H113116   1.006   4.164   1.476
 4384TIP3    H213117   1.135   4.160   1.397
 4385TIP3   OH213118   2.635   6.706   2.761
 4385TIP3    H113119   2.596   6.774   2.706
 4385TIP3    H213120   2.594   6.717   2.846
 4386TIP3   OH213121   4.686   5.685   1.246
 4386TIP3    H113122   4.716   5.720   1.330
 4386TIP3    H213123   4.614   5.742   1.220
 4387TIP3   OH213124   3.756   4.598   2.009
 4387TIP3    H113125   3.811   4.623   2.083
 4387TIP3    H213126   3.689   4.540   2.046
 4388TIP3   OH213127   1.455   5.264   4.377
 4388TIP3    H113128   1.499   5.315   4.308
 4388TIP3    H213129   1.520   5.199   4.404
 4389TIP3   OH213130   4.455   4.484   4.899
 4389TIP3    H113131   4.361   4.485   4.884
 4389TIP3    H213132   4.493   4.473   4.811
 4390TIP3   OH213133   2.294   1.056   3.768
 4390TIP3    H113134   2.296   1.049   3.863
 4390TIP3    H213135   2.359   0.992   3.738
 4391TIP3   OH213136   3.554   0.194   0.091
 4391TIP3    H113137   3.634   0.244   0.098
 4391TIP3    H213138   3.577   0.107   0.125
 4392TIP3   OH213139   4.887   2.112   3.765
 4392TIP3    H113140   4.854   2.202   3.766
 4392TIP3    H213141   4.843   2.071   3.691
 4393TIP3   OH213142   4.336   0.088   3.297
 4393TIP3    H113143   4.412   0.099   3.354
 4393TIP3    H213144   4.311   0.176   3.271
 4394TIP3   OH213145   4.145   6.722   4.134
 4394TIP3    H113146   4.079   6.760   4.076
 4394TIP3    H213147   4.161   6.635   4.100
 4395TIP3   OH213148   6.540   0.896   5.603
 4395TIP3    H113149   6.579   0.812   5.578
 4395TIP3    H213150   6.447   0.876   5.619
 4396TIP3   OH213151   5.953   3.278   3.539
 4396TIP3    H113152   5.903   3.305   3.616
 4396TIP3    H213153   6.033   3.239   3.574
 4397TIP3   OH213154   6.171   3.045   3.166
 4397TIP3    H113155   6.096   3.095   3.195
 4397TIP3    H213156   6.156   3.032   3.072
 4398TIP3   OH213157  -0.031   3.183   0.863
 4398TIP3    H113158  -0.030   3.279   0.866
 4398TIP3    H213159   0.060   3.158   0.879
 4399TIP3   OH213160   0.361   3.133   1.692
 4399TIP3    H113161   0.271   3.101   1.686
 4399TIP3    H213162   0.397   3.120   1.604
 4400TIP3   OH213163   4.878   3.124   2.712
 4400TIP3    H113164   4.867   3.188   2.782
 4400TIP3    H213165   4.973   3.108   2.709
 4401TIP3   OH213166   5.957   6.414   5.753
 4401TIP3    H113167   5.917   6.347   5.809
 4401TIP3    H213168   5.937   6.497   5.796
 4402TIP3   OH213169   0.720   5.834   3.897
 4402TIP3    H113170   0.725   5.852   3.804
 4402TIP3    H213171   0.807   5.802   3.920
 4403TIP3   OH213172   0.450   5.415   5.707
 4403TIP3    H113173   0.402   5.497   5.693
 4403TIP3    H213174   0.536   5.443   5.738
 4404TIP3   OH213175   3.804   6.177   0.719
 4404TIP3    H113176   3.781   6.099   0.668
 4404TIP3    H213177   3.891   6.158   0.754
 4405TIP3   OH213178   0.431   0.352   2.410
 4405TIP3    H113179   0.523   0.336   2.389
 4405TIP3    H213180   0.400   0.269   2.445
 4406TIP3   OH213181   2.521   0.946   5.490
 4406TIP3    H113182   2.527   0.914   5.400
 4406TIP3    H213183   2.576   0.886   5.540
 4407TIP3   OH213184   6.272   4.106   0.991
 4407TIP3    H113185   6.290   4.200   0.993
 4407TIP3    H213186   6.189   4.097   1.038
 4408TIP3   OH213187   4.247   6.643   5.792
 4408TIP3    H113188   4.217   6.683   5.710
 4408TIP3    H213189   4.341   6.661   5.795
 4409TIP3   OH213190   6.354   3.001   4.214
 4409TIP3    H113191   6.447   3.021   4.202
 4409TIP3    H213192   6.349   2.959   4.300
 4410TIP3   OH213193   0.850   1.282   3.829
 4410TIP3    H113194   0.918   1.223   3.862
 4410TIP3    H213195   0.850   1.355   3.891
 4411TIP3   OH213196   2.299   6.165   0.462
 4411TIP3    H113197   2.256   6.080   0.454
 4411TIP3    H213198   2.365   6.166   0.392
 4412TIP3   OH213199   5.590   4.231   5.485
 4412TIP3    H113200   5.532   4.307   5.492
 4412TIP3    H213201   5.678   4.266   5.494
 4413TIP3   OH213202   5.592   3.651   1.237
 4413TIP3    H113203   5.519   3.638   1.297
 4413TIP3    H213204   5.641   3.568   1.241
 4414TIP3   OH213205   6.873   5.361   3.234
 4414TIP3    H113206   6.805   5.364   3.167
 4414TIP3    H213207   6.955   5.349   3.185
 4415TIP3   OH213208   3.144   2.190   3.551
 4415TIP3    H113209   3.070   2.223   3.603
 4415TIP3    H213210   3.110   2.111   3.509
 4416TIP3   OH213211   2.293   6.584   5.745
 4416TIP3    H113212   2.304   6.648   5.815
 4416TIP3    H213213   2.371   6.529   5.750
 4417TIP3   OH213214   4.997   1.503   3.488
 4417TIP3    H113215   5.034   1.422   3.523
 4417TIP3    H213216   5.070   1.547   3.445
 4418TIP3   OH213217   3.391   5.081   2.539
 4418TIP3    H113218   3.484   5.092   2.560
 4418TIP3    H213219   3.390   5.038   2.454
 4419TIP3   OH213220   3.598   5.847   0.296
 4419TIP3    H113221   3.565   5.775   0.350
 4419TIP3    H213222   3.554   5.834   0.211
 4420TIP3   OH213223   3.005   3.971   0.422
 4420TIP3    H113224   3.086   3.962   0.372
 4420TIP3    H213225   3.003   3.896   0.480
 4421TIP3   OH213226   6.101   6.184   4.761
 4421TIP3    H113227   6.009   6.180   4.733
 4421TIP3    H213228   6.142   6.245   4.699
 4422TIP3   OH213229   0.770   3.624   3.602
 4422TIP3    H113230   0.741   3.535   3.585
 4422TIP3    H213231   0.713   3.654   3.673
 4423TIP3   OH213232   4.609   3.568   1.510
 4423TIP3    H113233   4.591   3.512   1.434
 4423TIP3    H213234   4.533   3.555   1.567
 4424TIP3   OH213235   4.616   2.110   1.294
 4424TIP3    H113236   4.555   2.183   1.302
 4424TIP3    H213237   4.675   2.119   1.369
 4425TIP3   OH213238   4.177   2.050   4.227
 4425TIP3    H113239   4.155   1.973   4.174
 4425TIP3    H213240   4.260   2.081   4.189
 4426TIP3   OH213241   6.516   0.769   2.215
 4426TIP3    H113242   6.595   0.822   2.221
 4426TIP3    H213243   6.504   0.753   2.122
 4427TIP3   OH213244   2.829   5.131   3.814
 4427TIP3    H113245   2.760   5.090   3.761
 4427TIP3    H213246   2.884   5.176   3.751
 4428TIP3   OH213247   5.238   5.878   5.892
 4428TIP3    H113248   5.227   5.969   5.867
 4428TIP3    H213249   5.268   5.834   5.813
 4429TIP3   OH213250   5.717   6.063   0.868
 4429TIP3    H113251   5.690   6.155   0.870
 4429TIP3    H213252   5.807   6.065   0.836
 4430TIP3   OH213253  -0.022   4.125   5.778
 4430TIP3    H113254  -0.027   4.080   5.694
 4430TIP3    H213255   0.022   4.208   5.758
 4431TIP3   OH213256   3.605   5.872   4.916
 4431TIP3    H113257   3.634   5.784   4.891
 4431TIP3    H213258   3.673   5.903   4.976
 4432TIP3   OH213259   1.864   3.208   4.211
 4432TIP3    H113260   1.938   3.223   4.152
 4432TIP3    H213261   1.809   3.144   4.165
 4433TIP3   OH213262   1.972   0.066   5.194
 4433TIP3    H113263   2.056   0.090   5.232
 4433TIP3    H213264   1.979   0.091   5.102
 4434TIP3   OH213265   3.679   3.766   2.877
 4434TIP3    H113266   3.725   3.830   2.931
 4434TIP3    H213267   3.744   3.739   2.812
 4435TIP3   OH213268   5.511   0.779   2.298
 4435TIP3    H113269   5.531   0.784   2.205
 4435TIP3    H213270   5.523   0.687   2.321
 4436TIP3   OH213271   4.838   0.962   5.836
 4436TIP3    H113272   4.879   0.902   5.774
 4436TIP3    H213273   4.837   0.913   5.919
 4437TIP3   OH213274   3.247   5.231   5.132
 4437TIP3    H113275   3.233   5.143   5.169
 4437TIP3    H213276   3.205   5.227   5.046
 4438TIP3   OH213277   5.349   1.994   4.919
 4438TIP3    H113278   5.283   2.054   4.883
 4438TIP3    H213279   5.411   2.051   4.963
 4439TIP3   OH213280   5.259   2.176   1.947
 4439TIP3    H113281   5.309   2.094   1.945
 4439TIP3    H213282   5.211   2.172   2.030
 4440TIP3   OH213283   7.093   4.410   5.873
 4440TIP3    H113284   7.094   4.414   5.968
 4440TIP3    H213285   7.144   4.486   5.845
 4441TIP3   OH213286   1.785   3.399   4.397
 4441TIP3    H113287   1.820   3.339   4.330
 4441TIP3    H213288   1.817   3.485   4.371
 4442TIP3   OH213289   1.081   2.677   3.174
 4442TIP3    H113290   1.083   2.589   3.211
 4442TIP3    H213291   1.014   2.673   3.106
 4443TIP3   OH213292   5.247   4.791   2.880
 4443TIP3    H113293   5.270   4.781   2.788
 4443TIP3    H213294   5.195   4.872   2.883
 4444TIP3   OH213295   4.886   4.490   4.108
 4444TIP3    H113296   4.872   4.575   4.151
 4444TIP3    H213297   4.928   4.512   4.025
 4445TIP3   OH213298   3.576   0.090   3.718
 4445TIP3    H113299   3.587   0.010   3.667
 4445TIP3    H213300   3.658   0.137   3.706
 4446TIP3   OH213301   5.495   1.091   1.657
 4446TIP3    H113302   5.411   1.082   1.612
 4446TIP3    H213303   5.496   1.018   1.720
 4447TIP3   OH213304   6.701   6.196   3.405
 4447TIP3    H113305   6.784   6.238   3.380
 4447TIP3    H213306   6.639   6.226   3.339
 4448TIP3   OH213307   0.886   6.405   3.849
 4448TIP3    H113308   0.822   6.402   3.777
 4448TIP3    H213309   0.896   6.314   3.877
 4449TIP3   OH213310   3.754   6.664   2.743
 4449TIP3    H113311   3.794   6.751   2.752
 4449TIP3    H213312   3.669   6.672   2.785
 4450TIP3   OH213313   0.786   5.881   2.505
 4450TIP3    H113314   0.790   5.850   2.414
 4450TIP3    H213315   0.754   5.805   2.554
 4451TIP3   OH213316   6.856   2.457   0.902
 4451TIP3    H113317   6.859   2.474   0.996
 4451TIP3    H213318   6.800   2.526   0.867
 4452TIP3   OH213319   0.583   2.084   5.698
 4452TIP3    H113320   0.571   2.166   5.745
 4452TIP3    H213321   0.677   2.067   5.701
 4453TIP3   OH213322   4.974   2.382   2.786
 4453TIP3    H113323   4.917   2.373   2.862
 4453TIP3    H213324   4.991   2.292   2.758
 4454TIP3   OH213325   0.321   0.169   4.812
 4454TIP3    H113326   0.397   0.217   4.844
 4454TIP3    H213327   0.309   0.098   4.875
 4455TIP3   OH213328   2.138   5.894   0.414
 4455TIP3    H113329   2.210   5.833   0.400
 4455TIP3    H213330   2.096   5.864   0.495
 4456TIP3   OH213331   5.281   2.402   5.836
 4456TIP3    H113332   5.277   2.373   5.927
 4456TIP3    H213333   5.350   2.468   5.835
 4457TIP3   OH213334   5.138   0.787   4.217
 4457TIP3    H113335   5.209   0.849   4.232
 4457TIP3    H213336   5.066   0.841   4.182
 4458TIP3   OH213337   6.566   4.696   0.526
 4458TIP3    H113338   6.588   4.786   0.500
 4458TIP3    H213339   6.471   4.690   0.517
 4459TIP3   OH213340   5.676   3.097   0.180
 4459TIP3    H113341   5.650   3.046   0.103
 4459TIP3    H213342   5.759   3.059   0.207
 4460TIP3   OH213343   7.037   3.315   2.915
 4460TIP3    H113344   7.103   3.373   2.951
 4460TIP3    H213345   7.086   3.250   2.864
 4461TIP3   OH213346   3.254   6.704   1.129
 4461TIP3    H113347   3.317   6.681   1.197
 4461TIP3    H213348   3.307   6.739   1.057
 4462TIP3   OH213349   4.627   4.768   5.411
 4462TIP3    H113350   4.700   4.715   5.380
 4462TIP3    H213351   4.640   4.773   5.506
 4463TIP3   OH213352   4.775   4.063   3.341
 4463TIP3    H113353   4.749   4.043   3.251
 4463TIP3    H213354   4.773   4.158   3.346
 4464TIP3   OH213355   3.348   1.404   4.546
 4464TIP3    H113356   3.320   1.324   4.501
 4464TIP3    H213357   3.341   1.383   4.639
 4465TIP3   OH213358   1.044   4.366   0.773
 4465TIP3    H113359   0.971   4.346   0.715
 4465TIP3    H213360   1.022   4.451   0.812
 4466TIP3   OH213361   6.791   2.866   5.843
 4466TIP3    H113362   6.814   2.906   5.759
 4466TIP3    H213363   6.757   2.780   5.820
 4467TIP3   OH213364   1.888   5.599   1.480
 4467TIP3    H113365   1.970   5.649   1.481
 4467TIP3    H213366   1.899   5.535   1.551
 4468TIP3   OH213367   0.826   5.188   3.318
 4468TIP3    H113368   0.877   5.146   3.387
 4468TIP3    H213369   0.892   5.220   3.256
 4469TIP3   OH213370   3.386   3.297   1.588
 4469TIP3    H113371   3.364   3.308   1.496
 4469TIP3    H213372   3.423   3.381   1.615
 4470TIP3   OH213373   4.941   0.383   4.316
 4470TIP3    H113374   5.019   0.433   4.292
 4470TIP3    H213375   4.949   0.300   4.269
 4471TIP3   OH213376   0.851   6.463   4.632
 4471TIP3    H113377   0.833   6.412   4.553
 4471TIP3    H213378   0.873   6.551   4.599
 4472TIP3   OH213379   5.365   1.794   2.919
 4472TIP3    H113380   5.337   1.741   2.844
 4472TIP3    H213381   5.331   1.882   2.901
 4473TIP3   OH213382   0.151   1.797   1.913
 4473TIP3    H113383   0.101   1.873   1.943
 4473TIP3    H213384   0.174   1.750   1.993
 4474TIP3   OH213385   1.435   2.238   1.262
 4474TIP3    H113386   1.388   2.281   1.334
 4474TIP3    H213387   1.412   2.145   1.271
 4475TIP3   OH213388   4.953   1.368   5.027
 4475TIP3    H113389   5.037   1.402   5.059
 4475TIP3    H213390   4.962   1.367   4.932
 4476TIP3   OH213391   5.758   4.951   2.976
 4476TIP3    H113392   5.848   4.982   2.961
 4476TIP3    H213393   5.761   4.858   2.955
 4477TIP3   OH213394   6.877   3.803   5.827
 4477TIP3    H113395   6.860   3.896   5.839
 4477TIP3    H213396   6.948   3.783   5.888
 4478TIP3   OH213397   2.891   2.653   2.666
 4478TIP3    H113398   2.962   2.657   2.730
 4478TIP3    H213399   2.900   2.566   2.626
 4479TIP3   OH213400   3.506   3.742   3.151
 4479TIP3    H113401   3.597   3.721   3.174
 4479TIP3    H213402   3.483   3.814   3.209
 4480TIP3   OH213403   2.087   2.605   1.218
 4480TIP3    H113404   2.000   2.646   1.215
 4480TIP3    H213405   2.120   2.625   1.305
 4481TIP3   OH213406   6.430   2.660   4.777
 4481TIP3    H113407   6.376   2.586   4.752
 4481TIP3    H213408   6.511   2.648   4.727
 4482TIP3   OH213409   3.720   1.917   0.735
 4482TIP3    H113410   3.675   1.845   0.691
 4482TIP3    H213411   3.793   1.875   0.781
 4483TIP3   OH213412   0.816   4.716   0.226
 4483TIP3    H113413   0.887   4.779   0.232
 4483TIP3    H213414   0.815   4.689   0.135
 4484TIP3   OH213415   7.010   6.343   1.722
 4484TIP3    H113416   6.975   6.304   1.643
 4484TIP3    H213417   7.057   6.421   1.692
 4485TIP3   OH213418   4.682   6.052   0.884
 4485TIP3    H113419   4.629   6.125   0.915
 4485TIP3    H213420   4.752   6.043   0.949
 4486TIP3   OH213421   6.699   1.485   0.936
 4486TIP3    H113422   6.676   1.576   0.954
 4486TIP3    H213423   6.631   1.456   0.874
 4487TIP3   OH213424   0.137   3.262   2.081
 4487TIP3    H113425   0.118   3.185   2.136
 4487TIP3    H213426   0.212   3.304   2.123
 4488TIP3   OH213427   3.603   3.887   2.118
 4488TIP3    H113428   3.577   3.797   2.139
 4488TIP3    H213429   3.549   3.910   2.042
 4489TIP3   OH213430   4.101   2.087   5.472
 4489TIP3    H113431   4.070   2.177   5.486
 4489TIP3    H213432   4.197   2.096   5.466
 4490TIP3   OH213433   4.884   5.640   4.340
 4490TIP3    H113434   4.818   5.704   4.316
 4490TIP3    H213435   4.836   5.569   4.383
 4491TIP3   OH213436   0.993   3.211   3.291
 4491TIP3    H113437   0.926   3.268   3.253
 4491TIP3    H213438   1.033   3.168   3.216
 4492TIP3   OH213439   3.048   3.632   1.143
 4492TIP3    H113440   3.011   3.715   1.114
 4492TIP3    H213441   3.112   3.657   1.210
 4493TIP3   OH213442   4.615   3.073   1.503
 4493TIP3    H113443   4.525   3.104   1.498
 4493TIP3    H213444   4.624   3.038   1.592
 4494TIP3   OH213445   1.893   0.935   1.703
 4494TIP3    H113446   1.945   0.981   1.770
 4494TIP3    H213447   1.947   0.940   1.624
 4495TIP3   OH213448   5.505   0.503   0.360
 4495TIP3    H113449   5.450   0.484   0.436
 4495TIP3    H213450   5.540   0.418   0.333
 4496TIP3   OH213451   2.991   6.755   2.152
 4496TIP3    H113452   2.896   6.752   2.162
 4496TIP3    H213453   3.007   6.718   2.065
 4497TIP3   OH213454   4.495   4.791   1.479
 4497TIP3    H113455   4.494   4.836   1.564
 4497TIP3    H213456   4.431   4.838   1.426
 4498TIP3   OH213457   3.845   3.007   3.780
 4498TIP3    H113458   3.881   3.017   3.691
 4498TIP3    H213459   3.909   3.051   3.836
 4499TIP3   OH213460   3.255   5.733   0.890
 4499TIP3    H113461   3.286   5.671   0.956
 4499TIP3    H213462   3.330   5.746   0.833
 4500TIP3   OH213463   5.340   5.735  -0.014
 4500TIP3    H113464   5.406   5.670   0.010
 4500TIP3    H213465   5.264   5.684  -0.041
 4501TIP3   OH213466   6.487   1.577   4.563
 4501TIP3    H113467   6.520   1.542   4.646
 4501TIP3    H213468   6.539   1.532   4.496
 4502TIP3   OH213469   2.500   3.431   5.848
 4502TIP3    H113470   2.462   3.515   5.824
 4502TIP3    H213471   2.516   3.387   5.765
 4503TIP3   OH213472   6.199   2.222   2.556
 4503TIP3    H113473   6.205   2.297   2.497
 4503TIP3    H213474   6.177   2.260   2.641
 4504TIP3   OH213475   2.673   3.812   2.496
 4504TIP3    H113476   2.618   3.890   2.497
 4504TIP3    H213477   2.644   3.763   2.419
 4505TIP3   OH213478   1.529   4.980   5.308
 4505TIP3    H113479   1.523   5.072   5.283
 4505TIP3    H213480   1.485   4.933   5.237
 4506TIP3   OH213481   2.007   2.618   2.185
 4506TIP3    H113482   1.965   2.590   2.266
 4506TIP3    H213483   1.959   2.573   2.116
 4507TIP3   OH213484   2.563   0.556   3.597
 4507TIP3    H113485   2.643   0.600   3.567
 4507TIP3    H213486   2.526   0.517   3.518
 4508TIP3   OH213487   1.607   6.027   2.159
 4508TIP3    H113488   1.602   6.025   2.063
 4508TIP3    H213489   1.699   6.045   2.178
 4509TIP3   OH213490   4.905   2.806   5.471
 4509TIP3    H113491   4.896   2.780   5.379
 4509TIP3    H213492   4.864   2.892   5.475
 4510TIP3   OH213493   6.178   2.574   0.258
 4510TIP3    H113494   6.214   2.651   0.215
 4510TIP3    H213495   6.250   2.538   0.308
 4511TIP3   OH213496   4.781   1.505   2.023
 4511TIP3    H113497   4.742   1.459   2.097
 4511TIP3    H213498   4.851   1.557   2.062
 4512TIP3   OH213499   2.341   6.844   1.165
 4512TIP3    H113500   2.314   6.872   1.077
 4512TIP3    H213501   2.349   6.749   1.158
 4513TIP3   OH213502   1.691   5.140   3.206
 4513TIP3    H113503   1.739   5.200   3.149
 4513TIP3    H213504   1.601   5.173   3.206
 4514TIP3   OH213505   6.377   5.017   2.789
 4514TIP3    H113506   6.292   4.996   2.750
 4514TIP3    H213507   6.441   4.991   2.723
 4515TIP3   OH213508   3.312   4.702   2.552
 4515TIP3    H113509   3.391   4.730   2.600
 4515TIP3    H213510   3.332   4.612   2.524
 4516TIP3   OH213511   3.398   2.343   3.420
 4516TIP3    H113512   3.421   2.250   3.417
 4516TIP3    H213513   3.329   2.353   3.354
 4517TIP3   OH213514   1.123   1.706   5.469
 4517TIP3    H113515   1.161   1.686   5.384
 4517TIP3    H213516   1.125   1.802   5.475
 4518TIP3   OH213517   6.129   1.452   2.491
 4518TIP3    H113518   6.066   1.421   2.557
 4518TIP3    H213519   6.175   1.524   2.534
 4519TIP3   OH213520   1.278   2.347   3.578
 4519TIP3    H113521   1.204   2.383   3.529
 4519TIP3    H213522   1.245   2.333   3.667
 4520TIP3   OH213523   0.660   6.611   2.367
 4520TIP3    H113524   0.718   6.674   2.323
 4520TIP3    H213525   0.626   6.556   2.297
 4521TIP3   OH213526   6.846   2.863   1.903
 4521TIP3    H113527   6.848   2.898   1.814
 4521TIP3    H213528   6.833   2.769   1.892
 4522TIP3   OH213529   3.636   2.008   5.070
 4522TIP3    H113530   3.597   1.921   5.057
 4522TIP3    H213531   3.563   2.069   5.057
 4523TIP3   OH213532   3.197   4.801   5.832
 4523TIP3    H113533   3.280   4.753   5.829
 4523TIP3    H213534   3.203   4.856   5.910
 4524TIP3   OH213535   5.582   2.147   3.056
 4524TIP3    H113536   5.503   2.200   3.073
 4524TIP3    H213537   5.578   2.078   3.122
 4525TIP3   OH213538   1.614   3.037   2.771
 4525TIP3    H113539   1.536   3.086   2.743
 4525TIP3    H213540   1.581   2.952   2.799
 4526TIP3   OH213541   3.608   3.807   2.541
 4526TIP3    H113542   3.700   3.793   2.567
 4526TIP3    H213543   3.610   3.888   2.490
 4527TIP3   OH213544   3.975   4.147   4.767
 4527TIP3    H113545   4.019   4.177   4.847
 4527TIP3    H213546   3.953   4.228   4.720
 4528TIP3   OH213547   4.927   3.272   5.654
 4528TIP3    H113548   4.965   3.353   5.622
 4528TIP3    H213549   4.976   3.252   5.734
 4529TIP3   OH213550   2.164   6.175   3.983
 4529TIP3    H113551   2.182   6.178   4.077
 4529TIP3    H213552   2.251   6.177   3.943
 4530TIP3   OH213553   1.573   4.481   3.758
 4530TIP3    H113554   1.491   4.524   3.784
 4530TIP3    H213555   1.634   4.499   3.829
 4531TIP3   OH213556   5.281   3.736   2.146
 4531TIP3    H113557   5.347   3.668   2.135
 4531TIP3    H213558   5.330   3.818   2.146
 4532TIP3   OH213559   0.839   1.390   4.600
 4532TIP3    H113560   0.892   1.358   4.673
 4532TIP3    H213561   0.812   1.478   4.626
 4533TIP3   OH213562   6.769   4.236   5.201
 4533TIP3    H113563   6.859   4.245   5.233
 4533TIP3    H213564   6.728   4.173   5.261
 4534TIP3   OH213565   2.281   1.542   3.304
 4534TIP3    H113566   2.270   1.635   3.287
 4534TIP3    H213567   2.195   1.511   3.331
 4535TIP3   OH213568   3.787   6.453   0.725
 4535TIP3    H113569   3.694   6.461   0.705
 4535TIP3    H213570   3.798   6.361   0.751
 4536TIP3   OH213571   3.240   5.821   1.947
 4536TIP3    H113572   3.262   5.909   1.975
 4536TIP3    H213573   3.316   5.791   1.896
 4537TIP3   OH213574   3.376   0.662   4.477
 4537TIP3    H113575   3.332   0.578   4.461
 4537TIP3    H213576   3.400   0.694   4.390
 4538TIP3   OH213577   4.213   5.143   0.745
 4538TIP3    H113578   4.126   5.156   0.783
 4538TIP3    H213579   4.202   5.067   0.687
 4539TIP3   OH213580   6.571   5.718   4.872
 4539TIP3    H113581   6.587   5.624   4.882
 4539TIP3    H213582   6.525   5.725   4.788
 4540TIP3   OH213583   3.382   1.445   3.024
 4540TIP3    H113584   3.374   1.358   2.983
 4540TIP3    H213585   3.387   1.426   3.118
 4541TIP3   OH213586   5.531   3.964   0.397
 4541TIP3    H113587   5.545   3.990   0.306
 4541TIP3    H213588   5.491   4.041   0.438
 4542TIP3   OH213589   0.809   5.801   0.738
 4542TIP3    H113590   0.874   5.793   0.668
 4542TIP3    H213591   0.794   5.711   0.767
 4543TIP3   OH213592   4.741   4.025   5.217
 4543TIP3    H113593   4.690   4.103   5.241
 4543TIP3    H213594   4.694   3.953   5.259
 4544TIP3   OH213595   0.806   2.784   3.619
 4544TIP3    H113596   0.859   2.852   3.577
 4544TIP3    H213597   0.815   2.801   3.713
 4545TIP3   OH213598   2.224   3.511   0.958
 4545TIP3    H113599   2.142   3.532   0.915
 4545TIP3    H213600   2.223   3.560   1.040
 4546TIP3   OH213601   1.638   1.978   5.110
 4546TIP3    H113602   1.582   2.031   5.167
 4546TIP3    H213603   1.724   1.979   5.152
 4547TIP3   OH213604   6.946   4.635   4.584
 4547TIP3    H113605   6.980   4.711   4.631
 4547TIP3    H213606   7.018   4.607   4.528
 4548TIP3   OH213607   2.401   1.350   5.357
 4548TIP3    H113608   2.343   1.313   5.290
 4548TIP3    H213609   2.414   1.278   5.419
 4549TIP3   OH213610   5.626   2.304   5.711
 4549TIP3    H113611   5.620   2.327   5.618
 4549TIP3    H213612   5.631   2.209   5.712
 4550TIP3   OH213613   4.934   5.669   2.212
 4550TIP3    H113614   4.914   5.576   2.204
 4550TIP3    H213615   5.029   5.672   2.221
 4551TIP3   OH213616   4.328   5.296   1.587
 4551TIP3    H113617   4.349   5.360   1.520
 4551TIP3    H213618   4.354   5.212   1.550
 4552TIP3   OH213619   0.598   5.687   2.294
 4552TIP3    H113620   0.614   5.757   2.231
 4552TIP3    H213621   0.684   5.650   2.311
 4553TIP3   OH213622   6.154   1.792   4.461
 4553TIP3    H113623   6.099   1.744   4.523
 4553TIP3    H213624   6.167   1.878   4.501
 4554TIP3   OH213625   3.261   3.994   5.754
 4554TIP3    H113626   3.316   3.968   5.681
 4554TIP3    H213627   3.173   4.002   5.716
 4555TIP3   OH213628   1.751   0.404   3.212
 4555TIP3    H113629   1.689   0.442   3.274
 4555TIP3    H213630   1.716   0.426   3.126
 4556TIP3   OH213631   4.369   1.698   2.279
 4556TIP3    H113632   4.410   1.634   2.221
 4556TIP3    H213633   4.426   1.775   2.274
 4557TIP3   OH213634   4.942   4.172   2.115
 4557TIP3    H113635   4.857   4.200   2.080
 4557TIP3    H213636   4.922   4.101   2.176
 4558TIP3   OH213637   4.495   6.142   0.551
 4558TIP3    H113638   4.588   6.161   0.569
 4558TIP3    H213639   4.447   6.201   0.609
 4559TIP3   OH213640   3.053   4.189   2.982
 4559TIP3    H113641   3.096   4.213   3.064
 4559TIP3    H213642   3.090   4.248   2.917
 4560TIP3   OH213643   0.937   3.013   5.131
 4560TIP3    H113644   0.920   3.065   5.052
 4560TIP3    H213645   0.891   3.060   5.201
 4561TIP3   OH213646   1.584   1.814   3.997
 4561TIP3    H113647   1.596   1.863   3.916
 4561TIP3    H213648   1.499   1.772   3.989
 4562TIP3   OH213649   4.724   2.938   5.788
 4562TIP3    H113650   4.782   2.862   5.797
 4562TIP3    H213651   4.638   2.900   5.769
 4563TIP3   OH213652   6.908   4.149   3.403
 4563TIP3    H113653   6.977   4.136   3.338
 4563TIP3    H213654   6.956   4.161   3.485
 4564TIP3   OH213655   5.424   6.429   0.747
 4564TIP3    H113656   5.425   6.496   0.815
 4564TIP3    H213657   5.403   6.348   0.793
 4565TIP3   OH213658   6.235   0.160   1.284
 4565TIP3    H113659   6.182   0.204   1.218
 4565TIP3    H213660   6.209   0.068   1.278
 4566TIP3   OH213661   6.947   2.073   1.098
 4566TIP3    H113662   6.973   2.048   1.186
 4566TIP3    H213663   7.030   2.083   1.050
 4567TIP3   OH213664   1.408   6.334   0.206
 4567TIP3    H113665   1.478   6.389   0.242
 4567TIP3    H213666   1.361   6.392   0.147
 4568TIP3   OH213667   3.674   5.389   3.868
 4568TIP3    H113668   3.746   5.380   3.930
 4568TIP3    H213669   3.716   5.398   3.783
 4569TIP3   OH213670   6.390   3.134   3.321
 4569TIP3    H113671   6.329   3.098   3.257
 4569TIP3    H213672   6.404   3.064   3.384
 4570TIP3   OH213673   4.802   6.383   4.514
 4570TIP3    H113674   4.734   6.320   4.490
 4570TIP3    H213675   4.848   6.400   4.432
 4571TIP3   OH213676   3.634   1.115   5.100
 4571TIP3    H113677   3.541   1.096   5.083
 4571TIP3    H213678   3.652   1.067   5.181
 4572TIP3   OH213679   6.448   0.726   4.372
 4572TIP3    H113680   6.478   0.638   4.352
 4572TIP3    H213681   6.528   0.772   4.400
 4573TIP3   OH213682   4.024   3.671   4.496
 4573TIP3    H113683   4.003   3.712   4.580
 4573TIP3    H213684   3.979   3.586   4.499
 4574TIP3   OH213685   6.314   5.594   1.077
 4574TIP3    H113686   6.286   5.686   1.074
 4574TIP3    H213687   6.408   5.598   1.097
 4575TIP3   OH213688   5.393   2.323   0.445
 4575TIP3    H113689   5.316   2.372   0.416
 4575TIP3    H213690   5.362   2.233   0.455
 4576TIP3   OH213691   2.997   5.940   5.723
 4576TIP3    H113692   3.075   5.907   5.769
 4576TIP3    H213693   2.957   6.000   5.785
 4577TIP3   OH213694   6.921   2.894   0.530
 4577TIP3    H113695   6.861   2.822   0.548
 4577TIP3    H213696   6.875   2.949   0.466
 4578TIP3   OH213697   2.137   3.261   0.086
 4578TIP3    H113698   2.146   3.351   0.118
 4578TIP3    H213699   2.099   3.213   0.160
 4579TIP3   OH213700   0.991   0.296   0.138
 4579TIP3    H113701   1.058   0.361   0.115
 4579TIP3    H213702   0.953   0.270   0.054
 4580TIP3   OH213703   6.671   3.030   3.229
 4580TIP3    H113704   6.741   3.004   3.169
 4580TIP3    H213705   6.697   3.115   3.262
 4581TIP3   OH213706   0.598   6.500   2.650
 4581TIP3    H113707   0.510   6.536   2.662
 4581TIP3    H213708   0.617   6.512   2.557
 4582TIP3   OH213709   4.402   2.696   1.923
 4582TIP3    H113710   4.358   2.737   1.998
 4582TIP3    H213711   4.457   2.628   1.962
 4583TIP3   OH213712   1.351   1.605   3.478
 4583TIP3    H113713   1.288   1.665   3.518
 4583TIP3    H213714   1.305   1.569   3.402
 4584TIP3   OH213715   4.794   2.855   3.744
 4584TIP3    H113716   4.720   2.813   3.787
 4584TIP3    H213717   4.765   2.946   3.731
 4585TIP3   OH213718   5.071   2.912   0.045
 4585TIP3    H113719   5.110   2.825   0.037
 4585TIP3    H213720   5.095   2.941   0.133
 4586TIP3   OH213721   3.216   4.415   4.398
 4586TIP3    H113722   3.234   4.506   4.419
 4586TIP3    H213723   3.276   4.395   4.326
 4587TIP3   OH213724   7.045   6.497   3.193
 4587TIP3    H113725   6.966   6.491   3.139
 4587TIP3    H213726   7.116   6.471   3.135
 4588TIP3   OH213727   2.884   4.784   3.226
 4588TIP3    H113728   2.969   4.814   3.194
 4588TIP3    H213729   2.904   4.739   3.308
 4589TIP3   OH213730   0.185   1.963   0.930
 4589TIP3    H113731   0.206   2.022   1.003
 4589TIP3    H213732   0.144   2.019   0.865
 4590TIP3   OH213733   6.082   5.998   4.308
 4590TIP3    H113734   6.075   6.077   4.254
 4590TIP3    H213735   6.117   5.932   4.248
 4591TIP3   OH213736   5.041   1.607   0.502
 4591TIP3    H113737   4.949   1.633   0.503
 4591TIP3    H213738   5.049   1.554   0.422
 4592TIP3   OH213739   4.195   4.255   4.953
 4592TIP3    H113740   4.112   4.271   4.998
 4592TIP3    H213741   4.211   4.162   4.966
 4593TIP3   OH213742   6.701   2.229   0.281
 4593TIP3    H113743   6.734   2.165   0.344
 4593TIP3    H213744   6.687   2.178   0.201
 4594TIP3   OH213745   2.481   2.771   4.153
 4594TIP3    H113746   2.502   2.805   4.067
 4594TIP3    H213747   2.562   2.729   4.183
 4595TIP3   OH213748   3.849   1.368   2.046
 4595TIP3    H113749   3.802   1.302   1.995
 4595TIP3    H213750   3.780   1.426   2.079
 4596TIP3   OH213751   2.620   3.694   0.732
 4596TIP3    H113752   2.675   3.615   0.729
 4596TIP3    H213753   2.670   3.756   0.785
 4597TIP3   OH213754   5.916   4.624   3.483
 4597TIP3    H113755   6.002   4.583   3.494
 4597TIP3    H213756   5.921   4.667   3.398
 4598TIP3   OH213757   0.364   6.137   0.631
 4598TIP3    H113758   0.399   6.114   0.545
 4598TIP3    H213759   0.340   6.053   0.670
 4599TIP3   OH213760   6.471   6.290   5.534
 4599TIP3    H113761   6.464   6.202   5.498
 4599TIP3    H213762   6.543   6.330   5.486
 4600TIP3   OH213763   5.889   4.521   5.687
 4600TIP3    H113764   5.815   4.480   5.733
 4600TIP3    H213765   5.961   4.518   5.750
 4601TIP3   OH213766   3.830   4.555   0.977
 4601TIP3    H113767   3.917   4.589   0.958
 4601TIP3    H213768   3.811   4.495   0.905
 4602TIP3   OH213769   5.724   2.762   5.389
 4602TIP3    H113770   5.744   2.733   5.478
 4602TIP3    H213771   5.696   2.853   5.400
 4603TIP3   OH213772   1.817   1.376   1.902
 4603TIP3    H113773   1.770   1.293   1.892
 4603TIP3    H213774   1.802   1.402   1.993
 4604TIP3   OH213775   5.854   0.660   1.892
 4604TIP3    H113776   5.856   0.609   1.811
 4604TIP3    H213777   5.946   0.671   1.916
 4605TIP3   OH213778   3.890   5.495   0.687
 4605TIP3    H113779   3.967   5.492   0.745
 4605TIP3    H213780   3.857   5.405   0.689
 4606TIP3   OH213781   2.839   0.401   3.521
 4606TIP3    H113782   2.764   0.367   3.474
 4606TIP3    H213783   2.859   0.485   3.479
 4607TIP3   OH213784   1.973   3.765   2.654
 4607TIP3    H113785   1.957   3.671   2.660
 4607TIP3    H213786   1.929   3.802   2.730
 4608TIP3   OH213787   5.788   2.454   5.347
 4608TIP3    H113788   5.756   2.542   5.326
 4608TIP3    H213789   5.712   2.408   5.381
 4609TIP3   OH213790   1.969   4.819   5.809
 4609TIP3    H113791   1.977   4.862   5.893
 4609TIP3    H213792   2.055   4.778   5.795
 4610TIP3   OH213793   1.454   4.443   1.594
 4610TIP3    H113794   1.367   4.404   1.588
 4610TIP3    H213795   1.461   4.473   1.685
 4611TIP3   OH213796   0.400   3.425   1.741
 4611TIP3    H113797   0.390   3.330   1.737
 4611TIP3    H213798   0.444   3.448   1.659
 4612TIP3   OH213799   6.246   4.774   2.311
 4612TIP3    H113800   6.309   4.845   2.320
 4612TIP3    H213801   6.277   4.723   2.237
 4613TIP3   OH213802   5.079   4.361   5.815
 4613TIP3    H113803   5.121   4.328   5.895
 4613TIP3    H213804   5.008   4.299   5.798
 4614TIP3   OH213805   1.601   3.664   5.675
 4614TIP3    H113806   1.516   3.680   5.717
 4614TIP3    H213807   1.632   3.582   5.714
 4615TIP3   OH213808   1.616   6.268   1.826
 4615TIP3    H113809   1.549   6.231   1.770
 4615TIP3    H213810   1.580   6.263   1.914
 4616TIP3   OH213811   1.524   5.638   2.091
 4616TIP3    H113812   1.480   5.616   2.010
 4616TIP3    H213813   1.455   5.642   2.157
 4617TIP3   OH213814   4.765   6.057   5.032
 4617TIP3    H113815   4.742   6.150   5.034
 4617TIP3    H213816   4.794   6.037   5.120
 4618TIP3   OH213817   3.440   6.072   4.061
 4618TIP3    H113818   3.374   6.135   4.091
 4618TIP3    H213819   3.519   6.124   4.049
 4619TIP3   OH213820   6.494   2.606   5.550
 4619TIP3    H113821   6.440   2.529   5.531
 4619TIP3    H213822   6.569   2.597   5.491
 4620TIP3   OH213823   0.156   3.315   0.476
 4620TIP3    H113824   0.201   3.315   0.391
 4620TIP3    H213825   0.184   3.234   0.518
 4621TIP3   OH213826   1.151   0.639   5.834
 4621TIP3    H113827   1.086   0.701   5.865
 4621TIP3    H213828   1.124   0.555   5.871
 4622TIP3   OH213829   2.335   3.932   1.933
 4622TIP3    H113830   2.418   3.892   1.961
 4622TIP3    H213831   2.271   3.901   1.998
 4623TIP3   OH213832   1.732   5.633   4.162
 4623TIP3    H113833   1.798   5.584   4.114
 4623TIP3    H213834   1.723   5.715   4.114
 4624TIP3   OH213835   5.725   1.737   4.533
 4624TIP3    H113836   5.813   1.702   4.549
 4624TIP3    H213837   5.667   1.663   4.549
 4625TIP3   OH213838   2.757   5.118   5.141
 4625TIP3    H113839   2.766   5.197   5.088
 4625TIP3    H213840   2.769   5.147   5.231
 4626TIP3   OH213841   1.931   2.236   5.040
 4626TIP3    H113842   2.012   2.218   5.089
 4626TIP3    H213843   1.956   2.229   4.948
 4627TIP3   OH213844   3.645   4.649   3.568
 4627TIP3    H113845   3.656   4.744   3.571
 4627TIP3    H213846   3.681   4.618   3.651
 4628TIP3   OH213847   5.211   4.539   0.822
 4628TIP3    H113848   5.170   4.546   0.908
 4628TIP3    H213849   5.171   4.608   0.770
 4629TIP3   OH213850   6.450   6.277   1.927
 4629TIP3    H113851   6.437   6.191   1.965
 4629TIP3    H213852   6.366   6.321   1.937
 4630TIP3   OH213853   1.765   6.460   4.182
 4630TIP3    H113854   1.693   6.406   4.151
 4630TIP3    H213855   1.785   6.425   4.269
 4631TIP3   OH213856   7.064   2.769   3.078
 4631TIP3    H113857   7.059   2.749   2.984
 4631TIP3    H213858   7.152   2.741   3.103
 4632TIP3   OH213859   3.173   3.848   2.749
 4632TIP3    H113860   3.084   3.824   2.723
 4632TIP3    H213861   3.167   3.865   2.843
 4633TIP3   OH213862   5.381   4.850   3.410
 4633TIP3    H113863   5.460   4.868   3.360
 4633TIP3    H213864   5.397   4.890   3.496
 4634TIP3   OH213865   5.406   2.618   5.263
 4634TIP3    H113866   5.411   2.713   5.252
 4634TIP3    H213867   5.441   2.602   5.351
 4635TIP3   OH213868   4.056   5.042   1.609
 4635TIP3    H113869   4.018   5.106   1.669
 4635TIP3    H213870   4.103   4.981   1.666
 4636TIP3   OH213871   0.532   1.990   4.645
 4636TIP3    H113872   0.461   2.009   4.705
 4636TIP3    H213873   0.596   1.941   4.697
 4637TIP3   OH213874   2.536   5.622   3.284
 4637TIP3    H113875   2.520   5.570   3.363
 4637TIP3    H213876   2.489   5.577   3.215
 4638TIP3   OH213877   1.255   6.729   1.838
 4638TIP3    H113878   1.247   6.710   1.931
 4638TIP3    H213879   1.341   6.696   1.814
 4639TIP3   OH213880   4.490   0.105   4.701
 4639TIP3    H113881   4.560   0.161   4.735
 4639TIP3    H213882   4.424   0.167   4.669
 4640TIP3   OH213883   2.643   2.204   0.263
 4640TIP3    H113884   2.723   2.241   0.300
 4640TIP3    H213885   2.579   2.209   0.333
 4641TIP3   OH213886   4.401   2.569   5.789
 4641TIP3    H113887   4.351   2.499   5.746
 4641TIP3    H213888   4.472   2.590   5.728
 4642TIP3   OH213889   2.921   0.065   5.598
 4642TIP3    H113890   3.014   0.072   5.621
 4642TIP3    H213891   2.897  -0.024   5.624
 4643TIP3   OH213892   4.988   5.376   1.826
 4643TIP3    H113893   4.923   5.443   1.808
 4643TIP3    H213894   5.059   5.422   1.871
 4644TIP3   OH213895   5.955   6.149   0.263
 4644TIP3    H113896   5.971   6.177   0.173
 4644TIP3    H213897   6.007   6.069   0.272
 4645TIP3   OH213898   3.107   0.743  -0.016
 4645TIP3    H113899   3.172   0.731   0.053
 4645TIP3    H213900   3.066   0.657  -0.026
 4646TIP3   OH213901   2.354   3.150   5.728
 4646TIP3    H113902   2.320   3.236   5.702
 4646TIP3    H213903   2.328   3.091   5.657
 4647TIP3   OH213904   1.202   0.919   1.309
 4647TIP3    H113905   1.113   0.944   1.333
 4647TIP3    H213906   1.236   0.993   1.259
 4648TIP3   OH213907   6.979   5.447   2.049
 4648TIP3    H113908   6.909   5.457   1.984
 4648TIP3    H213909   6.945   5.383   2.111
 4649TIP3   OH213910   5.447   6.433   2.443
 4649TIP3    H113911   5.379   6.434   2.510
 4649TIP3    H213912   5.459   6.524   2.418
 4650TIP3   OH213913   0.804   0.324   3.183
 4650TIP3    H113914   0.830   0.385   3.114
 4650TIP3    H213915   0.861   0.249   3.171
 4651TIP3   OH213916   4.479   6.374   2.863
 4651TIP3    H113917   4.516   6.288   2.886
 4651TIP3    H213918   4.440   6.406   2.944
 4652TIP3   OH213919   5.451   5.970   5.168
 4652TIP3    H113920   5.480   5.995   5.256
 4652TIP3    H213921   5.381   6.032   5.148
 4653TIP3   OH213922   3.167   0.069   2.838
 4653TIP3    H113923   3.154  -0.025   2.848
 4653TIP3    H213924   3.134   0.107   2.920
 4654TIP3   OH213925   5.787   6.511   4.325
 4654TIP3    H113926   5.693   6.494   4.334
 4654TIP3    H213927   5.826   6.474   4.404
 4655TIP3   OH213928   3.188   1.858   2.442
 4655TIP3    H113929   3.214   1.814   2.361
 4655TIP3    H213930   3.162   1.787   2.501
 4656TIP3   OH213931   3.789   5.815   4.419
 4656TIP3    H113932   3.711   5.853   4.459
 4656TIP3    H213933   3.859   5.875   4.441
 4657TIP3   OH213934   3.103   1.518   4.451
 4657TIP3    H113935   3.058   1.555   4.526
 4657TIP3    H213936   3.191   1.500   4.483
 4658TIP3   OH213937   6.671   3.923   5.278
 4658TIP3    H113938   6.726   3.904   5.354
 4658TIP3    H213939   6.607   3.986   5.310
 4659TIP3   OH213940   2.918   0.912   2.341
 4659TIP3    H113941   2.868   0.885   2.264
 4659TIP3    H213942   2.947   0.830   2.381
 4660TIP3   OH213943   0.249   1.712   0.009
 4660TIP3    H113944   0.175   1.696  -0.049
 4660TIP3    H213945   0.214   1.768   0.078
 4661TIP3   OH213946   5.597   3.793   1.597
 4661TIP3    H113947   5.610   3.705   1.632
 4661TIP3    H213948   5.546   3.780   1.517
 4662TIP3   OH213949   5.625   0.090   2.190
 4662TIP3    H113950   5.543   0.051   2.159
 4662TIP3    H213951   5.693   0.029   2.164
 4663TIP3   OH213952   4.078   6.318   0.698
 4663TIP3    H113953   4.170   6.321   0.725
 4663TIP3    H213954   4.062   6.405   0.660
 4664TIP3   OH213955   2.817   6.286   1.153
 4664TIP3    H113956   2.790   6.360   1.099
 4664TIP3    H213957   2.912   6.279   1.138
 4665TIP3   OH213958   5.356   1.967   0.152
 4665TIP3    H113959   5.433   1.935   0.104
 4665TIP3    H213960   5.363   1.927   0.238
 4666TIP3   OH213961   3.418   1.629   0.805
 4666TIP3    H113962   3.322   1.619   0.802
 4666TIP3    H213963   3.450   1.549   0.846
 4667TIP3   OH213964   5.415   6.465   1.493
 4667TIP3    H113965   5.429   6.488   1.585
 4667TIP3    H213966   5.408   6.549   1.448
 4668TIP3   OH213967   4.356   1.822   0.804
 4668TIP3    H113968   4.383   1.881   0.734
 4668TIP3    H213969   4.264   1.842   0.819
 4669TIP3   OH213970   6.826   0.564   2.719
 4669TIP3    H113971   6.920   0.573   2.736
 4669TIP3    H213972   6.793   0.654   2.718
 4670TIP3   OH213973   3.606   2.227   3.753
 4670TIP3    H113974   3.513   2.212   3.773
 4670TIP3    H213975   3.651   2.206   3.835
 4671TIP3   OH213976   6.763   5.566   0.336
 4671TIP3    H113977   6.794   5.657   0.345
 4671TIP3    H213978   6.806   5.520   0.407
 4672TIP3   OH213979   5.459   0.402   2.576
 4672TIP3    H113980   5.525   0.408   2.507
 4672TIP3    H213981   5.422   0.491   2.581
 4673TIP3   OH213982   6.658   1.054   3.932
 4673TIP3    H113983   6.601   1.056   3.855
 4673TIP3    H213984   6.626   1.123   3.989
 4674TIP3   OH213985   6.897   4.104   0.350
 4674TIP3    H113986   6.886   4.193   0.383
 4674TIP3    H213987   6.865   4.107   0.260
 4675TIP3   OH213988   4.728   0.612   2.279
 4675TIP3    H113989   4.703   0.520   2.278
 4675TIP3    H213990   4.658   0.655   2.328
 4676TIP3   OH213991   2.399   1.735   5.809
 4676TIP3    H113992   2.367   1.650   5.778
 4676TIP3    H213993   2.485   1.716   5.847
 4677TIP3   OH213994   5.027   4.442   0.470
 4677TIP3    H113995   4.983   4.372   0.422
 4677TIP3    H213996   4.967   4.516   0.465
 4678TIP3   OH213997   3.399   6.241   4.743
 4678TIP3    H113998   3.372   6.163   4.791
 4678TIP3    H213999   3.490   6.222   4.718
 4679TIP3   OH214000   1.407   1.146   0.882
 4679TIP3    H114001   1.487   1.197   0.867
 4679TIP3    H214002   1.432   1.057   0.856
 4680TIP3   OH214003   3.159   2.410   0.888
 4680TIP3    H114004   3.184   2.411   0.795
 4680TIP3    H214005   3.142   2.502   0.909
 4681TIP3   OH214006   6.848   3.116   0.052
 4681TIP3    H114007   6.885   3.185   0.108
 4681TIP3    H214008   6.924   3.066   0.023
 4682TIP3   OH214009   5.861   3.121   5.487
 4682TIP3    H114010   5.798   3.184   5.523
 4682TIP3    H214011   5.807   3.052   5.449
 4683TIP3   OH214012   6.991   1.832   4.161
 4683TIP3    H114013   7.033   1.821   4.246
 4683TIP3    H214014   7.055   1.880   4.108
 4684TIP3   OH214015   6.127   2.697   3.110
 4684TIP3    H114016   6.070   2.620   3.110
 4684TIP3    H214017   6.095   2.750   3.184
 4685TIP3   OH214018   5.797   3.494   2.973
 4685TIP3    H114019   5.871   3.500   2.911
 4685TIP3    H214020   5.838   3.472   3.056
 4686TIP3   OH214021   0.324   2.995   4.637
 4686TIP3    H114022   0.275   2.966   4.714
 4686TIP3    H214023   0.256   3.023   4.575
 4687TIP3   OH214024   0.942   1.510   2.437
 4687TIP3    H114025   1.032   1.483   2.456
 4687TIP3    H214026   0.900   1.431   2.403
 4688TIP3   OH214027   6.796   4.415   5.756
 4688TIP3    H114028   6.878   4.381   5.721
 4688TIP3    H214029   6.822   4.485   5.815
 4689TIP3   OH214030   6.425   5.709   3.643
 4689TIP3    H114031   6.452   5.787   3.692
 4689TIP3    H214032   6.330   5.720   3.633
 4690TIP3   OH214033   1.968   5.106   4.180
 4690TIP3    H114034   1.966   5.011   4.175
 4690TIP3    H214035   1.890   5.134   4.132
 4691TIP3   OH214036   4.557   3.562   3.817
 4691TIP3    H114037   4.581   3.643   3.862
 4691TIP3    H214038   4.482   3.529   3.866
 4692TIP3   OH214039   5.479   0.347   4.131
 4692TIP3    H114040   5.558   0.336   4.184
 4692TIP3    H214041   5.510   0.393   4.053
 4693TIP3   OH214042   2.787   6.198   2.407
 4693TIP3    H114043   2.858   6.162   2.459
 4693TIP3    H214044   2.707   6.165   2.448
 4694TIP3   OH214045   6.151   3.200   4.189
 4694TIP3    H114046   6.075   3.159   4.149
 4694TIP3    H214047   6.208   3.126   4.211
 4695TIP3   OH214048   1.125   2.871   2.930
 4695TIP3    H114049   1.083   2.957   2.940
 4695TIP3    H214050   1.053   2.812   2.911
 4696TIP3   OH214051   5.361   3.960   3.627
 4696TIP3    H114052   5.453   3.954   3.654
 4696TIP3    H214053   5.359   3.917   3.541
 4697TIP3   OH214054   2.891   4.420   2.104
 4697TIP3    H114055   2.929   4.452   2.023
 4697TIP3    H214056   2.964   4.415   2.165
 4698TIP3   OH214057   4.526   4.117   2.674
 4698TIP3    H114058   4.487   4.058   2.609
 4698TIP3    H214059   4.566   4.059   2.738
 4699TIP3   OH214060   3.901   3.294   4.946
 4699TIP3    H114061   3.811   3.305   4.976
 4699TIP3    H214062   3.899   3.213   4.896
 4700TIP3   OH214063   4.634   0.986   5.639
 4700TIP3    H114064   4.707   0.965   5.698
 4700TIP3    H214065   4.639   0.921   5.570
 4701TIP3   OH214066   0.378   0.021   3.836
 4701TIP3    H114067   0.305   0.035   3.896
 4701TIP3    H214068   0.357  -0.059   3.790
 4702TIP3   OH214069   0.696   2.569   4.233
 4702TIP3    H114070   0.662   2.577   4.322
 4702TIP3    H214071   0.749   2.648   4.221
 4703TIP3   OH214072   1.206   6.245   3.318
 4703TIP3    H114073   1.157   6.163   3.324
 4703TIP3    H214074   1.201   6.268   3.225
 4704TIP3   OH214075   2.263   2.812   3.215
 4704TIP3    H114076   2.188   2.798   3.273
 4704TIP3    H214077   2.317   2.734   3.225
 4705TIP3   OH214078   3.696   6.226   3.983
 4705TIP3    H114079   3.764   6.259   3.924
 4705TIP3    H214080   3.741   6.217   4.068
 4706TIP3   OH214081   6.213   4.209   0.422
 4706TIP3    H114082   6.202   4.140   0.355
 4706TIP3    H214083   6.210   4.162   0.505
 4707TIP3   OH214084   1.683   5.871   3.534
 4707TIP3    H114085   1.602   5.898   3.490
 4707TIP3    H214086   1.666   5.887   3.627
 4708TIP3   OH214087   7.161   1.974   3.983
 4708TIP3    H114088   7.219   1.999   3.910
 4708TIP3    H214089   7.084   2.029   3.972
 4709TIP3   OH214090   1.387   5.812   1.048
 4709TIP3    H114091   1.450   5.823   0.977
 4709TIP3    H214092   1.411   5.728   1.088
 4710TIP3   OH214093   0.108   2.205   2.957
 4710TIP3    H114094   0.088   2.117   2.925
 4710TIP3    H214095   0.202   2.203   2.975
 4711TIP3   OH214096   4.635   6.482   3.268
 4711TIP3    H114097   4.709   6.450   3.321
 4711TIP3    H214098   4.557   6.453   3.315
 4712TIP3   OH214099   0.591   0.133   3.231
 4712TIP3    H114100   0.658   0.193   3.265
 4712TIP3    H214101   0.591   0.148   3.137
 4713TIP3   OH214102   0.200   1.145   2.422
 4713TIP3    H114103   0.127   1.125   2.480
 4713TIP3    H214104   0.167   1.126   2.334
 4714TIP3   OH214105   5.793   3.140   0.679
 4714TIP3    H114106   5.867   3.131   0.619
 4714TIP3    H214107   5.829   3.123   0.766
 4715TIP3   OH214108   3.797   6.109   4.205
 4715TIP3    H114109   3.711   6.120   4.246
 4715TIP3    H214110   3.793   6.022   4.164
 4716TIP3   OH214111   2.280   6.796   0.525
 4716TIP3    H114112   2.300   6.830   0.437
 4716TIP3    H214113   2.199   6.747   0.513
 4717TIP3   OH214114   6.957   1.718   1.281
 4717TIP3    H114115   6.965   1.633   1.325
 4717TIP3    H214116   7.038   1.764   1.304
 4718TIP3   OH214117   5.453   0.770   0.097
 4718TIP3    H114118   5.376   0.763   0.155
 4718TIP3    H214119   5.515   0.824   0.146
 4719TIP3   OH214120   6.900   0.777   5.357
 4719TIP3    H114121   6.903   0.773   5.261
 4719TIP3    H214122   6.981   0.734   5.385
 4720TIP3   OH214123   1.549   0.330   4.465
 4720TIP3    H114124   1.490   0.377   4.406
 4720TIP3    H214125   1.529   0.238   4.452
 4721TIP3   OH214126   2.835   1.972   1.217
 4721TIP3    H114127   2.755   1.956   1.166
 4721TIP3    H214128   2.903   1.986   1.151
 4722TIP3   OH214129   1.087   5.792   0.752
 4722TIP3    H114130   1.165   5.737   0.745
 4722TIP3    H214131   1.109   5.871   0.704
 4723TIP3   OH214132   6.247   0.079  -0.037
 4723TIP3    H114133   6.338   0.051  -0.048
 4723TIP3    H214134   6.246   0.125   0.047
 4724TIP3   OH214135   1.832   1.940   5.332
 4724TIP3    H114136   1.887   2.012   5.363
 4724TIP3    H214137   1.892   1.865   5.326
 4725TIP3   OH214138   2.319   4.374   1.655
 4725TIP3    H114139   2.271   4.409   1.580
 4725TIP3    H214140   2.325   4.448   1.716
 4726TIP3   OH214141   4.244   6.358   0.261
 4726TIP3    H114142   4.297   6.278   0.258
 4726TIP3    H214143   4.155   6.327   0.278
 4727TIP3   OH214144   6.137   2.814   5.058
 4727TIP3    H114145   6.101   2.852   5.138
 4727TIP3    H214146   6.062   2.811   4.997
 4728TIP3   OH214147   4.656   6.061   1.330
 4728TIP3    H114148   4.700   5.988   1.373
 4728TIP3    H214149   4.720   6.093   1.267
 4729TIP3   OH214150   3.745   0.769   2.306
 4729TIP3    H114151   3.779   0.702   2.366
 4729TIP3    H214152   3.711   0.719   2.231
 4730TIP3   OH214153   2.728   1.252   1.630
 4730TIP3    H114154   2.735   1.340   1.667
 4730TIP3    H214155   2.737   1.194   1.706
 4731TIP3   OH214156   6.905   0.054   0.443
 4731TIP3    H114157   6.970  -0.015   0.444
 4731TIP3    H214158   6.823   0.010   0.466
 4732TIP3   OH214159   5.076   6.496   1.226
 4732TIP3    H114160   5.015   6.533   1.162
 4732TIP3    H214161   5.021   6.440   1.281
 4733TIP3   OH214162   0.206   6.068   0.152
 4733TIP3    H114163   0.203   5.974   0.135
 4733TIP3    H214164   0.209   6.108   0.065
 4734TIP3   OH214165   1.427   3.055   5.826
 4734TIP3    H114166   1.375   3.131   5.851
 4734TIP3    H214167   1.493   3.090   5.766
 4735TIP3   OH214168   6.960   4.718   1.944
 4735TIP3    H114169   6.899   4.689   2.012
 4735TIP3    H214170   6.912   4.705   1.862
 4736TIP3   OH214171   6.986   1.484   1.438
 4736TIP3    H114172   6.921   1.472   1.368
 4736TIP3    H214173   7.061   1.431   1.410
 4737TIP3   OH214174   0.659   3.216   2.577
 4737TIP3    H114175   0.598   3.143   2.571
 4737TIP3    H214176   0.617   3.288   2.530
 4738TIP3   OH214177   3.935   6.212   4.669
 4738TIP3    H114178   3.958   6.302   4.693
 4738TIP3    H214179   3.995   6.190   4.598
 4739TIP3   OH214180   5.688   5.954   2.032
 4739TIP3    H114181   5.596   5.976   2.043
 4739TIP3    H214182   5.698   5.933   1.939
 4740TIP3   OH214183   5.921   5.260   3.046
 4740TIP3    H114184   5.892   5.281   2.957
 4740TIP3    H214185   5.967   5.177   3.038
 4741TIP3   OH214186   1.221   1.419   2.451
 4741TIP3    H114187   1.200   1.340   2.402
 4741TIP3    H214188   1.284   1.466   2.396
 4742TIP3   OH214189   4.198   5.227   3.723
 4742TIP3    H114190   4.268   5.222   3.658
 4742TIP3    H214191   4.217   5.307   3.772
 4743TIP3   OH214192   2.791   0.028   1.223
 4743TIP3    H114193   2.709  -0.019   1.236
 4743TIP3    H214194   2.857  -0.041   1.214
 4744TIP3   OH214195   4.043   5.576   0.471
 4744TIP3    H114196   4.095   5.505   0.436
 4744TIP3    H214197   4.006   5.542   0.552
 4745TIP3   OH214198   0.307   6.367   4.018
 4745TIP3    H114199   0.355   6.304   4.072
 4745TIP3    H214200   0.374   6.422   3.978
 4746TIP3   OH214201   0.166   5.347   4.299
 4746TIP3    H114202   0.133   5.346   4.389
 4746TIP3    H214203   0.102   5.295   4.251
 4747TIP3   OH214204   2.427   6.395   0.586
 4747TIP3    H114205   2.521   6.377   0.579
 4747TIP3    H214206   2.421   6.480   0.629
 4748TIP3   OH214207   2.087   0.433   2.466
 4748TIP3    H114208   2.051   0.364   2.523
 4748TIP3    H214209   2.163   0.466   2.515
 4749TIP3   OH214210   0.926   1.029   1.637
 4749TIP3    H114211   0.946   0.995   1.724
 4749TIP3    H214212   0.938   0.954   1.579
 4750TIP3   OH214213   6.306   5.631   2.496
 4750TIP3    H114214   6.238   5.679   2.448
 4750TIP3    H214215   6.281   5.638   2.588
 4751TIP3   OH214216   0.528   0.958   5.512
 4751TIP3    H114217   0.569   0.872   5.504
 4751TIP3    H214218   0.534   0.979   5.605
 4752TIP3   OH214219   5.488   2.445   3.116
 4752TIP3    H114220   5.566   2.468   3.065
 4752TIP3    H214221   5.470   2.522   3.170
 4753TIP3   OH214222   6.177   6.707   2.445
 4753TIP3    H114223   6.198   6.636   2.505
 4753TIP3    H214224   6.249   6.708   2.382
 4754TIP3   OH214225   1.110   4.479   5.048
 4754TIP3    H114226   1.085   4.571   5.048
 4754TIP3    H214227   1.027   4.432   5.047
 4755TIP3   OH214228   5.339   4.499   2.851
 4755TIP3    H114229   5.316   4.560   2.921
 4755TIP3    H214230   5.416   4.539   2.810
 4756TIP3   OH214231   2.355   1.666   1.181
 4756TIP3    H114232   2.285   1.641   1.121
 4756TIP3    H214233   2.344   1.761   1.193
 4757TIP3   OH214234   1.782   3.391   0.407
 4757TIP3    H114235   1.863   3.397   0.458
 4757TIP3    H214236   1.811   3.386   0.316
 4758TIP3   OH214237   2.400   1.042   0.792
 4758TIP3    H114238   2.308   1.043   0.817
 4758TIP3    H214239   2.429   1.133   0.801
 4759TIP3   OH214240   5.639   6.308   3.047
 4759TIP3    H114241   5.585   6.252   3.102
 4759TIP3    H214242   5.630   6.271   2.959
 4760TIP3   OH214243   2.080  -0.021   3.055
 4760TIP3    H114244   2.170   0.006   3.075
 4760TIP3    H214245   2.085  -0.059   2.968
 4761TIP3   OH214246   0.338   0.599   0.390
 4761TIP3    H114247   0.348   0.504   0.395
 4761TIP3    H214248   0.297   0.615   0.305
 4762TIP3   OH214249   1.588  -0.026   2.299
 4762TIP3    H114250   1.608   0.054   2.250
 4762TIP3    H214251   1.611  -0.005   2.390
 4763TIP3   OH214252   5.395   1.738   4.705
 4763TIP3    H114253   5.336   1.807   4.673
 4763TIP3    H214254   5.479   1.783   4.719
 4764TIP3   OH214255   5.504   4.074   1.503
 4764TIP3    H114256   5.491   4.008   1.570
 4764TIP3    H214257   5.480   4.031   1.421
 4765TIP3   OH214258   6.787   3.881   4.247
 4765TIP3    H114259   6.865   3.936   4.240
 4765TIP3    H214260   6.719   3.939   4.282
 4766TIP3   OH214261   2.255   0.746   2.315
 4766TIP3    H114262   2.312   0.694   2.371
 4766TIP3    H214263   2.258   0.701   2.230
 4767TIP3   OH214264   0.686   2.757   3.247
 4767TIP3    H114265   0.639   2.811   3.183
 4767TIP3    H214266   0.666   2.798   3.331
 4768TIP3   OH214267   1.170   0.044   3.446
 4768TIP3    H114268   1.147   0.121   3.498
 4768TIP3    H214269   1.255   0.066   3.407
 4769TIP3   OH214270   2.028   6.662   0.485
 4769TIP3    H114271   2.049   6.573   0.459
 4769TIP3    H214272   1.996   6.653   0.575
 4770TIP3   OH214273   4.129   1.183   0.993
 4770TIP3    H114274   4.080   1.223   1.065
 4770TIP3    H214275   4.122   1.089   1.009
 4771TIP3   OH214276   0.340   6.061   5.908
 4771TIP3    H114277   0.381   5.987   5.951
 4771TIP3    H214278   0.257   6.027   5.875
 4772TIP3   OH214279   6.200   1.659   0.547
 4772TIP3    H114280   6.112   1.642   0.513
 4772TIP3    H214281   6.238   1.571   0.559
 4773TIP3   OH214282   3.644   5.396   4.490
 4773TIP3    H114283   3.662   5.304   4.509
 4773TIP3    H214284   3.593   5.427   4.565
 4774TIP3   OH214285   1.428   4.676   2.084
 4774TIP3    H114286   1.459   4.712   2.167
 4774TIP3    H214287   1.411   4.753   2.030
 4775TIP3   OH214288   0.922   5.601   4.709
 4775TIP3    H114289   1.006   5.596   4.754
 4775TIP3    H214290   0.870   5.660   4.764
 4776TIP3   OH214291   6.710   6.214   1.334
 4776TIP3    H114292   6.687   6.305   1.318
 4776TIP3    H214293   6.704   6.172   1.248
 4777TIP3   OH214294   1.742   2.678   0.882
 4777TIP3    H114295   1.803   2.605   0.883
 4777TIP3    H214296   1.656   2.639   0.898
 4778TIP3   OH214297   3.066   6.497   1.195
 4778TIP3    H114298   2.984   6.544   1.206
 4778TIP3    H214299   3.127   6.563   1.160
 4779TIP3   OH214300   4.344   2.246   1.324
 4779TIP3    H114301   4.321   2.283   1.409
 4779TIP3    H214302   4.308   2.158   1.325
 4780TIP3   OH214303   5.968   0.013   0.486
 4780TIP3    H114304   6.042   0.073   0.496
 4780TIP3    H214305   5.903   0.045   0.549
 4781TIP3   OH214306   3.843   4.087   2.657
 4781TIP3    H114307   3.850   4.175   2.620
 4781TIP3    H214308   3.754   4.083   2.692
 4782TIP3   OH214309   2.180   6.598   5.123
 4782TIP3    H114310   2.093   6.561   5.114
 4782TIP3    H214311   2.182   6.634   5.212
 4783TIP3   OH214312   1.417   3.753   3.102
 4783TIP3    H114313   1.435   3.842   3.074
 4783TIP3    H214314   1.431   3.754   3.197
 4784TIP3   OH214315   0.164   4.505   3.031
 4784TIP3    H114316   0.144   4.516   2.939
 4784TIP3    H214317   0.245   4.453   3.032
 4785TIP3   OH214318   1.179   1.223   2.183
 4785TIP3    H114319   1.144   1.257   2.100
 4785TIP3    H214320   1.103   1.191   2.230
 4786TIP3   OH214321   0.002   6.316   3.059
 4786TIP3    H114322   0.073   6.276   3.009
 4786TIP3    H214323   0.027   6.301   3.151
 4787TIP3   OH214324   2.095   3.959   0.034
 4787TIP3    H114325   2.102   3.996  -0.054
 4787TIP3    H214326   2.062   4.031   0.088
 4788TIP3   OH214327   3.282   5.327   3.298
 4788TIP3    H114328   3.264   5.318   3.391
 4788TIP3    H214329   3.199   5.302   3.256
 4789TIP3   OH214330   6.799   0.545   3.224
 4789TIP3    H114331   6.810   0.585   3.310
 4789TIP3    H214332   6.725   0.485   3.235
 4790TIP3   OH214333   1.772   6.144   0.749
 4790TIP3    H114334   1.847   6.178   0.700
 4790TIP3    H214335   1.762   6.205   0.822
 4791TIP3   OH214336   0.154   2.760   2.931
 4791TIP3    H114337   0.089   2.696   2.904
 4791TIP3    H214338   0.238   2.722   2.906
 4792TIP3   OH214339   3.387   4.250  -0.010
 4792TIP3    H114340   3.337   4.237   0.071
 4792TIP3    H214341   3.420   4.340  -0.004
 4793TIP3   OH214342   4.738   1.227   1.453
 4793TIP3    H114343   4.653   1.253   1.489
 4793TIP3    H214344   4.769   1.305   1.407
 4794TIP3   OH214345   4.451   0.478   4.767
 4794TIP3    H114346   4.494   0.467   4.682
 4794TIP3    H214347   4.509   0.537   4.815
 4795TIP3   OH214348   4.415   2.627   0.295
 4795TIP3    H114349   4.502   2.589   0.307
 4795TIP3    H214350   4.377   2.631   0.383
 4796TIP3   OH214351   6.904   2.971   3.139
 4796TIP3    H114352   6.947   2.895   3.101
 4796TIP3    H214353   6.975   3.032   3.159
 4797TIP3   OH214354   6.305   1.800   2.855
 4797TIP3    H114355   6.383   1.808   2.799
 4797TIP3    H214356   6.299   1.707   2.874
 4798TIP3   OH214357   0.897   6.717   4.484
 4798TIP3    H114358   0.967   6.679   4.431
 4798TIP3    H214359   0.868   6.794   4.435
 4799TIP3   OH214360   6.003   3.450   2.615
 4799TIP3    H114361   5.977   3.529   2.567
 4799TIP3    H214362   6.000   3.476   2.707
 4800TIP3   OH214363   0.885   1.464   2.823
 4800TIP3    H114364   0.904   1.501   2.909
 4800TIP3    H214365   0.967   1.421   2.797
 4801TIP3   OH214366   2.376   5.644   2.648
 4801TIP3    H114367   2.470   5.641   2.668
 4801TIP3    H214368   2.365   5.728   2.602
 4802TIP3   OH214369   2.302   6.288   4.698
 4802TIP3    H114370   2.296   6.207   4.647
 4802TIP3    H214371   2.218   6.331   4.685
 4803TIP3   OH214372   7.165   6.303   0.985
 4803TIP3    H114373   7.158   6.269   1.074
 4803TIP3    H214374   7.088   6.359   0.974
 4804TIP3   OH214375   5.845   0.478   1.652
 4804TIP3    H114376   5.767   0.525   1.624
 4804TIP3    H214377   5.824   0.385   1.639
 4805TIP3   OH214378   6.324   5.515   5.504
 4805TIP3    H114379   6.358   5.473   5.583
 4805TIP3    H214380   6.245   5.464   5.483
 4806TIP3   OH214381   1.490   4.838   2.860
 4806TIP3    H114382   1.552   4.877   2.797
 4806TIP3    H214383   1.405   4.875   2.836
 4807TIP3   OH214384   3.555   4.109   4.425
 4807TIP3    H114385   3.617   4.158   4.372
 4807TIP3    H214386   3.539   4.029   4.375
 4808TIP3   OH214387   6.555   3.972   3.220
 4808TIP3    H114388   6.641   3.953   3.257
 4808TIP3    H214389   6.497   3.978   3.296
 4809TIP3   OH214390   4.182   2.579   3.903
 4809TIP3    H114391   4.222   2.653   3.948
 4809TIP3    H214392   4.107   2.555   3.957
 4810TIP3   OH214393   4.006   1.350   1.789
 4810TIP3    H114394   3.941   1.420   1.795
 4810TIP3    H214395   3.983   1.290   1.861
 4811TIP3   OH214396   6.811   1.799   0.631
 4811TIP3    H114397   6.815   1.706   0.654
 4811TIP3    H214398   6.805   1.844   0.714
 4812TIP3   OH214399   5.212   5.234   4.997
 4812TIP3    H114400   5.245   5.180   5.069
 4812TIP3    H214401   5.128   5.194   4.973
 4813TIP3   OH214402   3.165   0.799   3.323
 4813TIP3    H114403   3.102   0.864   3.354
 4813TIP3    H214404   3.221   0.847   3.262
 4814TIP3   OH214405   4.529   4.553   2.934
 4814TIP3    H114406   4.613   4.562   2.977
 4814TIP3    H214407   4.529   4.621   2.867
 4815TIP3   OH214408   0.014   0.563   5.789
 4815TIP3    H114409   0.045   0.512   5.864
 4815TIP3    H214410   0.061   0.645   5.794
 4816TIP3   OH214411   2.793   4.752   3.746
 4816TIP3    H114412   2.750   4.785   3.825
 4816TIP3    H214413   2.876   4.716   3.777
 4817TIP3   OH214414   0.657   5.222   2.452
 4817TIP3    H114415   0.594   5.151   2.462
 4817TIP3    H214416   0.736   5.180   2.419
 4818TIP3   OH214417   6.391   5.374   4.205
 4818TIP3    H114418   6.417   5.459   4.170
 4818TIP3    H214419   6.311   5.352   4.157
 4819TIP3   OH214420   0.740   2.093   2.893
 4819TIP3    H114421   0.673   2.052   2.947
 4819TIP3    H214422   0.777   2.162   2.949
 4820TIP3   OH214423   0.709   5.248   4.629
 4820TIP3    H114424   0.657   5.327   4.640
 4820TIP3    H214425   0.692   5.221   4.539
 4821TIP3   OH214426   6.624   4.500   2.630
 4821TIP3    H114427   6.604   4.545   2.547
 4821TIP3    H214428   6.546   4.449   2.649
 4822TIP3   OH214429   6.232   1.433   5.004
 4822TIP3    H114430   6.312   1.473   5.039
 4822TIP3    H214431   6.241   1.442   4.909
 4823TIP3   OH214432   5.788   2.159   1.513
 4823TIP3    H114433   5.706   2.137   1.470
 4823TIP3    H214434   5.786   2.255   1.520
 4824TIP3   OH214435   6.590   5.210   1.655
 4824TIP3    H114436   6.661   5.267   1.627
 4824TIP3    H214437   6.545   5.184   1.574
 4825TIP3   OH214438   4.428   0.448   0.391
 4825TIP3    H114439   4.382   0.447   0.476
 4825TIP3    H214440   4.359   0.435   0.326
 4826TIP3   OH214441   1.953   0.659   4.988
 4826TIP3    H114442   2.022   0.724   4.976
 4826TIP3    H214443   1.874   0.710   5.005
 4827TIP3   OH214444   3.231   3.769   0.914
 4827TIP3    H114445   3.214   3.856   0.877
 4827TIP3    H214446   3.211   3.778   1.007
 4828TIP3   OH214447   4.451   2.543   1.460
 4828TIP3    H114448   4.547   2.533   1.459
 4828TIP3    H214449   4.436   2.627   1.417
 4829TIP3   OH214450   5.076   0.836   2.971
 4829TIP3    H114451   5.156   0.889   2.973
 4829TIP3    H214452   5.106   0.747   2.954
 4830TIP3   OH214453   5.664   4.111   0.692
 4830TIP3    H114454   5.628   4.181   0.748
 4830TIP3    H214455   5.597   4.097   0.625
 4831TIP3   OH214456   1.015   2.183   0.542
 4831TIP3    H114457   0.955   2.204   0.470
 4831TIP3    H214458   1.067   2.263   0.552
 4832TIP3   OH214459   2.653   4.804   3.995
 4832TIP3    H114460   2.561   4.778   3.987
 4832TIP3    H214461   2.650   4.887   4.041
 4833TIP3   OH214462   1.899   1.320   5.096
 4833TIP3    H114463   1.859   1.403   5.120
 4833TIP3    H214464   1.919   1.329   5.003
 4834TIP3   OH214465   2.212   1.319   2.650
 4834TIP3    H114466   2.227   1.242   2.704
 4834TIP3    H214467   2.273   1.308   2.576
 4835TIP3   OH214468   3.115   4.410   0.660
 4835TIP3    H114469   3.194   4.464   0.654
 4835TIP3    H214470   3.050   4.458   0.608
 4836TIP3   OH214471   3.414   5.270   5.469
 4836TIP3    H114472   3.363   5.349   5.449
 4836TIP3    H214473   3.502   5.289   5.439
 4837TIP3   OH214474   1.919   6.323   3.013
 4837TIP3    H114475   1.903   6.350   3.104
 4837TIP3    H214476   1.943   6.404   2.968
 4838TIP3   OH214477   2.666   2.405   2.534
 4838TIP3    H114478   2.637   2.496   2.529
 4838TIP3    H214479   2.641   2.377   2.621
 4839TIP3   OH214480   0.694   2.049   3.867
 4839TIP3    H114481   0.694   2.094   3.782
 4839TIP3    H214482   0.714   2.118   3.930
 4840TIP3   OH214483   3.429   1.552   2.595
 4840TIP3    H114484   3.408   1.605   2.519
 4840TIP3    H214485   3.347   1.505   2.614
 4841TIP3   OH214486   7.119   2.894   0.185
 4841TIP3    H114487   7.135   2.810   0.228
 4841TIP3    H214488   7.066   2.872   0.108
 4842TIP3   OH214489   0.949   5.782   0.989
 4842TIP3    H114490   0.996   5.792   0.906
 4842TIP3    H214491   1.014   5.802   1.056
 4843TIP3   OH214492   0.634   6.426   0.834
 4843TIP3    H114493   0.695   6.355   0.857
 4843TIP3    H214494   0.547   6.386   0.840
 4844TIP3   OH214495   5.504   1.161   0.762
 4844TIP3    H114496   5.438   1.132   0.825
 4844TIP3    H214497   5.454   1.178   0.682
 4845TIP3   OH214498   0.605   6.736   3.785
 4845TIP3    H114499   0.532   6.770   3.837
 4845TIP3    H214500   0.610   6.796   3.710
 4846TIP3   OH214501   6.617   0.309   4.901
 4846TIP3    H114502   6.584   0.322   4.990
 4846TIP3    H214503   6.625   0.398   4.865
 4847TIP3   OH214504   3.205   2.142   3.065
 4847TIP3    H114505   3.137   2.207   3.083
 4847TIP3    H214506   3.168   2.060   3.097
 4848TIP3   OH214507   2.124   3.523   2.043
 4848TIP3    H114508   2.217   3.517   2.022
 4848TIP3    H214509   2.092   3.596   1.990
 4849TIP3   OH214510   1.253   4.283   2.109
 4849TIP3    H114511   1.258   4.310   2.201
 4849TIP3    H214512   1.344   4.263   2.085
 4850TIP3   OH214513   6.883   5.373   4.610
 4850TIP3    H114514   6.879   5.464   4.639
 4850TIP3    H214515   6.839   5.373   4.525
 4851TIP3   OH214516   4.421   6.773   1.799
 4851TIP3    H114517   4.333   6.806   1.780
 4851TIP3    H214518   4.422   6.762   1.894
 4852TIP3   OH214519   1.326   1.056   2.889
 4852TIP3    H114520   1.302   1.142   2.852
 4852TIP3    H214521   1.402   1.074   2.943
 4853TIP3   OH214522   0.903   2.784   0.486
 4853TIP3    H114523   0.913   2.865   0.436
 4853TIP3    H214524   0.855   2.725   0.427
 4854TIP3   OH214525   7.048   2.059   3.273
 4854TIP3    H114526   7.088   2.003   3.206
 4854TIP3    H214527   7.066   2.013   3.356
 4855TIP3   OH214528   3.309   3.492   0.022
 4855TIP3    H114529   3.384   3.548   0.002
 4855TIP3    H214530   3.259   3.490  -0.060
 4856TIP3   OH214531   5.563   3.319   1.289
 4856TIP3    H114532   5.614   3.269   1.353
 4856TIP3    H214533   5.596   3.290   1.204
 4857TIP3   OH214534   3.552   6.166   4.363
 4857TIP3    H114535   3.465   6.154   4.402
 4857TIP3    H214536   3.563   6.261   4.358
 4858TIP3   OH214537   2.923   5.321   3.984
 4858TIP3    H114538   2.899   5.241   3.938
 4858TIP3    H214539   2.839   5.364   4.003
 4859TIP3   OH214540   3.593   4.526   1.147
 4859TIP3    H114541   3.673   4.525   1.094
 4859TIP3    H214542   3.553   4.441   1.131
 4860TIP3   OH214543   0.798   5.347   5.939
 4860TIP3    H114544   0.872   5.286   5.937
 4860TIP3    H214545   0.769   5.352   5.848
 4861TIP3   OH214546   3.227   5.490   4.484
 4861TIP3    H114547   3.239   5.547   4.560
 4861TIP3    H214548   3.135   5.502   4.460
 4862TIP3   OH214549   4.772   0.612   0.274
 4862TIP3    H114550   4.713   0.674   0.230
 4862TIP3    H214551   4.776   0.537   0.215
 4863TIP3   OH214552   1.318   4.193   1.329
 4863TIP3    H114553   1.410   4.191   1.356
 4863TIP3    H214554   1.315   4.256   1.257
 4864TIP3   OH214555   2.208   3.161   1.218
 4864TIP3    H114556   2.211   3.222   1.292
 4864TIP3    H214557   2.175   3.080   1.254
 4865TIP3   OH214558   5.635   5.705   0.316
 4865TIP3    H114559   5.709   5.761   0.294
 4865TIP3    H214560   5.610   5.663   0.233
 4866TIP3   OH214561   5.003   0.756   0.487
 4866TIP3    H114562   4.944   0.723   0.418
 4866TIP3    H214563   5.003   0.851   0.475
 4867TIP3   OH214564   0.851   5.897   2.804
 4867TIP3    H114565   0.883   5.854   2.725
 4867TIP3    H214566   0.883   5.987   2.796
 4868TIP3   OH214567   4.256   5.715   0.928
 4868TIP3    H114568   4.337   5.735   0.881
 4868TIP3    H214569   4.236   5.794   0.978
 4869TIP3   OH214570   3.516   3.549   3.753
 4869TIP3    H114571   3.599   3.599   3.753
 4869TIP3    H214572   3.449   3.614   3.731
 4870TIP3   OH214573   6.637   3.193   5.212
 4870TIP3    H114574   6.558   3.243   5.234
 4870TIP3    H214575   6.617   3.152   5.128
 4871TIP3   OH214576   1.828   3.390   3.821
 4871TIP3    H114577   1.892   3.447   3.779
 4871TIP3    H214578   1.877   3.312   3.847
 4872TIP3   OH214579   4.488   0.876   0.418
 4872TIP3    H114580   4.548   0.837   0.480
 4872TIP3    H214581   4.469   0.806   0.355
 4873TIP3   OH214582   4.805   6.325   3.403
 4873TIP3    H114583   4.851   6.343   3.485
 4873TIP3    H214584   4.873   6.292   3.345
 4874TIP3   OH214585   6.080   3.052   5.332
 4874TIP3    H114586   6.139   3.109   5.283
 4874TIP3    H214587   6.021   3.111   5.378
 4875TIP3   OH214588   1.234   4.085   1.691
 4875TIP3    H114589   1.200   4.063   1.604
 4875TIP3    H214590   1.211   4.177   1.702
 4876TIP3   OH214591   7.064   5.991   0.738
 4876TIP3    H114592   7.044   6.085   0.732
 4876TIP3    H214593   6.986   5.948   0.704
 4877TIP3   OH214594   4.493   3.289   4.505
 4877TIP3    H114595   4.575   3.316   4.465
 4877TIP3    H214596   4.425   3.327   4.449
 4878TIP3   OH214597   3.902   5.508   4.735
 4878TIP3    H114598   3.909   5.494   4.640
 4878TIP3    H214599   3.986   5.478   4.770
 4879TIP3   OH214600   1.956   1.228   3.796
 4879TIP3    H114601   1.977   1.227   3.890
 4879TIP3    H214602   2.025   1.282   3.757
 4880TIP3   OH214603   2.585   4.673   3.212
 4880TIP3    H114604   2.667   4.693   3.258
 4880TIP3    H214605   2.611   4.614   3.141
 4881TIP3   OH214606   0.157   2.147   4.562
 4881TIP3    H114607   0.154   2.238   4.590
 4881TIP3    H214608   0.200   2.101   4.634
 4882TIP3   OH214609   2.591   3.958   5.634
 4882TIP3    H114610   2.564   4.037   5.682
 4882TIP3    H214611   2.640   3.906   5.698
 4883TIP3   OH214612   0.756   0.987   2.949
 4883TIP3    H114613   0.692   0.918   2.966
 4883TIP3    H214614   0.703   1.061   2.918
 4884TIP3   OH214615   4.352   0.703   0.057
 4884TIP3    H114616   4.286   0.762   0.093
 4884TIP3    H214617   4.340   0.708  -0.038
 4885TIP3   OH214618   5.522   1.428   3.203
 4885TIP3    H114619   5.535   1.344   3.247
 4885TIP3    H214620   5.578   1.489   3.251
 4886TIP3   OH214621   1.261   4.725   4.297
 4886TIP3    H114622   1.167   4.709   4.301
 4886TIP3    H214623   1.295   4.688   4.379
 4887TIP3   OH214624   1.844   2.883   5.579
 4887TIP3    H114625   1.892   2.880   5.496
 4887TIP3    H214626   1.881   2.812   5.631
 4888TIP3   OH214627   5.322   3.892   3.025
 4888TIP3    H114628   5.289   3.891   2.935
 4888TIP3    H214629   5.266   3.956   3.070
 4889TIP3   OH214630   3.543   2.282   1.752
 4889TIP3    H114631   3.458   2.266   1.710
 4889TIP3    H214632   3.597   2.208   1.725
 4890TIP3   OH214633   5.754   0.002   0.884
 4890TIP3    H114634   5.777   0.061   0.813
 4890TIP3    H214635   5.699  -0.065   0.843
 4891TIP3   OH214636   3.365   5.469   2.571
 4891TIP3    H114637   3.335   5.399   2.512
 4891TIP3    H214638   3.302   5.540   2.557
 4892TIP3   OH214639   1.975   0.535   2.753
 4892TIP3    H114640   1.922   0.487   2.817
 4892TIP3    H214641   2.000   0.469   2.689
 4893TIP3   OH214642   2.952   3.782   4.549
 4893TIP3    H114643   3.035   3.829   4.547
 4893TIP3    H214644   2.974   3.695   4.582
 4894TIP3   OH214645   2.007   3.215   0.995
 4894TIP3    H114646   2.050   3.241   1.077
 4894TIP3    H214647   2.010   3.119   0.997
 4895TIP3   OH214648   2.536   1.914   0.761
 4895TIP3    H114649   2.497   1.980   0.818
 4895TIP3    H214650   2.496   1.832   0.789
 4896TIP3   OH214651   1.461   0.152   1.036
 4896TIP3    H114652   1.487   0.195   1.118
 4896TIP3    H214653   1.376   0.112   1.057
 4897TIP3   OH214654   3.225   3.945   0.665
 4897TIP3    H114655   3.157   3.882   0.642
 4897TIP3    H214656   3.182   4.031   0.654
 4898TIP3   OH214657   2.303   3.980   4.378
 4898TIP3    H114658   2.237   3.928   4.333
 4898TIP3    H214659   2.320   3.933   4.460
 4899TIP3   OH214660   0.301   4.060   1.702
 4899TIP3    H114661   0.268   3.996   1.638
 4899TIP3    H214662   0.236   4.129   1.702
 4900TIP3   OH214663   3.811   6.526   3.915
 4900TIP3    H114664   3.869   6.552   3.844
 4900TIP3    H214665   3.755   6.602   3.930
 4901TIP3   OH214666   3.064   2.945   5.049
 4901TIP3    H114667   3.146   2.936   5.097
 4901TIP3    H214668   2.996   2.923   5.113
 4902TIP3   OH214669   5.539   5.296   2.753
 4902TIP3    H114670   5.575   5.268   2.838
 4902TIP3    H214671   5.483   5.224   2.726
 4903TIP3   OH214672   0.578   3.967   1.075
 4903TIP3    H114673   0.568   3.885   1.026
 4903TIP3    H214674   0.644   3.947   1.142
 4904TIP3   OH214675   5.927   0.830   0.424
 4904TIP3    H114676   5.949   0.736   0.424
 4904TIP3    H214677   6.002   0.872   0.464
 4905TIP3   OH214678   4.609   6.749   3.558
 4905TIP3    H114679   4.547   6.738   3.486
 4905TIP3    H214680   4.643   6.837   3.547
 4906TIP3   OH214681   4.259   4.640   0.306
 4906TIP3    H114682   4.312   4.568   0.273
 4906TIP3    H214683   4.240   4.694   0.230
 4907TIP3   OH214684   1.123   4.795   2.418
 4907TIP3    H114685   1.109   4.707   2.382
 4907TIP3    H214686   1.190   4.783   2.485
 4908TIP3   OH214687   0.333   1.247   0.478
 4908TIP3    H114688   0.339   1.285   0.566
 4908TIP3    H214689   0.239   1.243   0.460
 4909TIP3   OH214690   0.881   1.914   4.551
 4909TIP3    H114691   0.906   1.989   4.604
 4909TIP3    H214692   0.964   1.878   4.519
 4910TIP3   OH214693   0.686   1.753   1.605
 4910TIP3    H114694   0.746   1.685   1.638
 4910TIP3    H214695   0.723   1.835   1.637
 4911TIP3   OH214696   5.181   5.951   0.367
 4911TIP3    H114697   5.212   5.943   0.276
 4911TIP3    H214698   5.249   5.909   0.419
 4912TIP3   OH214699   0.231   5.466   2.636
 4912TIP3    H114700   0.312   5.430   2.600
 4912TIP3    H214701   0.169   5.464   2.563
 4913TIP3   OH214702   1.042   3.918   4.467
 4913TIP3    H114703   1.015   3.872   4.388
 4913TIP3    H214704   1.131   3.949   4.449
 4914TIP3   OH214705   4.441   1.852   5.043
 4914TIP3    H114706   4.534   1.872   5.050
 4914TIP3    H214707   4.422   1.859   4.950
 4915TIP3   OH214708   0.998   6.263   4.816
 4915TIP3    H114709   0.973   6.330   4.752
 4915TIP3    H214710   0.948   6.186   4.791
 4916TIP3   OH214711   6.597   0.864   3.596
 4916TIP3    H114712   6.541   0.876   3.673
 4916TIP3    H214713   6.600   0.949   3.554
 4917TIP3   OH214714   2.527   2.744   1.627
 4917TIP3    H114715   2.492   2.820   1.675
 4917TIP3    H214716   2.618   2.737   1.655
 4918TIP3   OH214717   0.690   6.501   3.683
 4918TIP3    H114718   0.663   6.588   3.710
 4918TIP3    H214719   0.738   6.514   3.601
 4919TIP3   OH214720   5.564   4.450   0.580
 4919TIP3    H114721   5.509   4.407   0.645
 4919TIP3    H214722   5.638   4.390   0.567
 4920TIP3   OH214723   0.905   0.453   5.925
 4920TIP3    H114724   0.948   0.444   5.840
 4920TIP3    H214725   0.815   0.476   5.903
 4921TIP3   OH214726   3.877   3.785   4.284
 4921TIP3    H114727   3.953   3.758   4.335
 4921TIP3    H214728   3.865   3.715   4.221
 4922TIP3   OH214729   0.065   1.241   4.395
 4922TIP3    H114730   0.071   1.291   4.476
 4922TIP3    H214731   0.102   1.299   4.328
 4923TIP3   OH214732   3.588   2.302   2.690
 4923TIP3    H114733   3.659   2.333   2.633
 4923TIP3    H214734   3.570   2.376   2.748
 4924TIP3   OH214735   2.827   4.151   2.169
 4924TIP3    H114736   2.864   4.096   2.101
 4924TIP3    H214737   2.814   4.236   2.126
 4925TIP3   OH214738   5.880   2.452   1.839
 4925TIP3    H114739   5.932   2.375   1.817
 4925TIP3    H214740   5.817   2.421   1.904
 4926TIP3   OH214741   1.640   5.364   1.291
 4926TIP3    H114742   1.645   5.272   1.318
 4926TIP3    H214743   1.730   5.388   1.268
 4927TIP3   OH214744   3.005   0.431   4.542
 4927TIP3    H114745   2.937   0.396   4.485
 4927TIP3    H214746   2.957   0.467   4.617
 4928TIP3   OH214747   0.933   2.674   2.878
 4928TIP3    H114748   0.838   2.687   2.873
 4928TIP3    H214749   0.946   2.583   2.849
 4929TIP3   OH214750   5.096   3.902   1.330
 4929TIP3    H114751   5.120   3.969   1.266
 4929TIP3    H214752   5.026   3.942   1.382
 4930TIP3   OH214753   0.494   1.927   1.419
 4930TIP3    H114754   0.546   1.857   1.458
 4930TIP3    H214755   0.465   1.979   1.493
 4931TIP3   OH214756   1.366   3.228   3.223
 4931TIP3    H114757   1.431   3.195   3.284
 4931TIP3    H214758   1.294   3.165   3.227
 4932TIP3   OH214759   3.710   4.506   4.818
 4932TIP3    H114760   3.675   4.563   4.749
 4932TIP3    H214761   3.719   4.421   4.776
 4933TIP3   OH214762   5.688   0.209   4.823
 4933TIP3    H114763   5.704   0.263   4.900
 4933TIP3    H214764   5.639   0.134   4.856
 4934TIP3   OH214765   5.556   5.940   3.328
 4934TIP3    H114766   5.648   5.949   3.352
 4934TIP3    H214767   5.522   5.873   3.389
 4935TIP3   OH214768   3.185   4.411   1.730
 4935TIP3    H114769   3.116   4.350   1.705
 4935TIP3    H214770   3.266   4.364   1.712
 4936TIP3   OH214771   7.139   3.045   5.203
 4936TIP3    H114772   7.150   3.000   5.286
 4936TIP3    H214773   7.212   3.107   5.198
 4937TIP3   OH214774   0.664   5.864   2.092
 4937TIP3    H114775   0.752   5.904   2.095
 4937TIP3    H214776   0.639   5.870   2.000
 4938TIP3   OH214777   3.540   1.991   2.418
 4938TIP3    H114778   3.561   1.978   2.510
 4938TIP3    H214779   3.514   1.904   2.387
 4939TIP3   OH214780   1.453   6.703   0.110
 4939TIP3    H114781   1.388   6.742   0.051
 4939TIP3    H214782   1.405   6.637   0.160
 4940TIP3   OH214783   7.110   4.829   5.617
 4940TIP3    H114784   7.073   4.801   5.533
 4940TIP3    H214785   7.156   4.910   5.596
 4941TIP3   OH214786   2.590   0.733   2.403
 4941TIP3    H114787   2.581   0.641   2.377
 4941TIP3    H214788   2.611   0.778   2.321
 4942TIP3   OH214789   6.508   0.433   5.140
 4942TIP3    H114790   6.420   0.470   5.151
 4942TIP3    H214791   6.566   0.509   5.145
 4943TIP3   OH214792   4.391   6.099   0.318
 4943TIP3    H114793   4.434   6.098   0.404
 4943TIP3    H214794   4.450   6.050   0.261
 4944TIP3   OH214795   0.969   6.019   2.328
 4944TIP3    H114796   1.035   5.963   2.370
 4944TIP3    H214797   0.913   6.047   2.401
 4945TIP3   OH214798   4.383   2.103   2.793
 4945TIP3    H114799   4.444   2.135   2.860
 4945TIP3    H214800   4.320   2.050   2.841
 4946TIP3   OH214801   3.528   0.884   2.935
 4946TIP3    H114802   3.482   0.906   3.016
 4946TIP3    H214803   3.461   0.843   2.881
 4947TIP3   OH214804   2.316   6.604   1.287
 4947TIP3    H114805   2.284   6.618   1.376
 4947TIP3    H214806   2.248   6.552   1.244
 4948TIP3   OH214807   5.138   5.471   4.921
 4948TIP3    H114808   5.138   5.376   4.916
 4948TIP3    H214809   5.047   5.494   4.942
 4949TIP3   OH214810   4.648   3.366   2.167
 4949TIP3    H114811   4.698   3.425   2.224
 4949TIP3    H214812   4.687   3.378   2.080
 4950TIP3   OH214813   3.290   1.248   2.437
 4950TIP3    H114814   3.239   1.246   2.517
 4950TIP3    H214815   3.236   1.203   2.372
 4951TIP3   OH214816   4.639   4.300   3.068
 4951TIP3    H114817   4.591   4.219   3.048
 4951TIP3    H214818   4.658   4.338   2.983
 4952TIP3   OH214819   6.703   2.549   4.114
 4952TIP3    H114820   6.652   2.613   4.164
 4952TIP3    H214821   6.649   2.532   4.036
 4953TIP3   OH214822   3.506   1.095   5.489
 4953TIP3    H114823   3.585   1.055   5.452
 4953TIP3    H214824   3.459   1.128   5.413
 4954TIP3   OH214825   4.732   4.713   3.752
 4954TIP3    H114826   4.743   4.799   3.791
 4954TIP3    H214827   4.650   4.680   3.790
 4955TIP3   OH214828   4.806   6.808   3.938
 4955TIP3    H114829   4.829   6.739   3.876
 4955TIP3    H214830   4.711   6.816   3.930
 4956TIP3   OH214831   1.403   6.698   3.933
 4956TIP3    H114832   1.481   6.721   3.983
 4956TIP3    H214833   1.435   6.684   3.844
 4957TIP3   OH214834   4.281   4.209   2.801
 4957TIP3    H114835   4.365   4.168   2.785
 4957TIP3    H214836   4.303   4.298   2.830
 4958TIP3   OH214837   1.107   2.303   3.886
 4958TIP3    H114838   1.192   2.261   3.897
 4958TIP3    H214839   1.045   2.244   3.928
 4959TIP3   OH214840   3.403   5.465   1.727
 4959TIP3    H114841   3.489   5.489   1.762
 4959TIP3    H214842   3.419   5.446   1.634
 4960TIP3   OH214843   7.028   2.125   2.743
 4960TIP3    H114844   7.067   2.211   2.759
 4960TIP3    H214845   6.972   2.110   2.819
 4961TIP3   OH214846   3.419   0.397   5.002
 4961TIP3    H114847   3.373   0.471   4.963
 4961TIP3    H214848   3.446   0.343   4.927
 4962TIP3   OH214849   3.514   1.290   1.719
 4962TIP3    H114850   3.470   1.322   1.640
 4962TIP3    H214851   3.511   1.195   1.711
 4963TIP3   OH214852   2.483   2.183   0.501
 4963TIP3    H114853   2.412   2.174   0.437
 4963TIP3    H214854   2.485   2.100   0.548
 4964TIP3   OH214855   7.199   2.824   3.965
 4964TIP3    H114856   7.213   2.792   4.054
 4964TIP3    H214857   7.113   2.789   3.940
 4965TIP3   OH214858   1.064   1.544   4.755
 4965TIP3    H114859   1.036   1.464   4.799
 4965TIP3    H214860   1.070   1.519   4.663
 4966TIP3   OH214861   0.194   1.936   2.613
 4966TIP3    H114862   0.189   1.916   2.520
 4966TIP3    H214863   0.270   1.886   2.645
 4967TIP3   OH214864   3.910   1.419   0.756
 4967TIP3    H114865   4.006   1.420   0.760
 4967TIP3    H214866   3.883   1.494   0.809
 4968TIP3   OH214867   6.185   4.747   4.631
 4968TIP3    H114868   6.185   4.686   4.557
 4968TIP3    H214869   6.253   4.714   4.689
 4969TIP3   OH214870   6.049   4.382   1.563
 4969TIP3    H114871   5.980   4.410   1.502
 4969TIP3    H214872   6.123   4.359   1.506
 4970TIP3   OH214873   5.867   5.663   2.889
 4970TIP3    H114874   5.908   5.684   2.805
 4970TIP3    H214875   5.775   5.688   2.877
 4971TIP3   OH214876   6.781   6.787   4.905
 4971TIP3    H114877   6.870   6.799   4.871
 4971TIP3    H214878   6.764   6.693   4.896
 4972TIP3   OH214879   3.652   5.409   1.894
 4972TIP3    H114880   3.606   5.327   1.878
 4972TIP3    H214881   3.744   5.384   1.900
 4973TIP3   OH214882   0.738   0.202   4.041
 4973TIP3    H114883   0.774   0.134   3.984
 4973TIP3    H214884   0.648   0.213   4.010
 4974TIP3   OH214885   6.713   3.045   4.275
 4974TIP3    H114886   6.706   3.049   4.179
 4974TIP3    H214887   6.687   3.132   4.304
 4975TIP3   OH214888   1.057   0.127   2.109
 4975TIP3    H114889   0.996   0.075   2.057
 4975TIP3    H214890   1.122   0.063   2.140
 4976TIP3   OH214891   3.451   5.164   4.607
 4976TIP3    H114892   3.458   5.227   4.679
 4976TIP3    H214893   3.540   5.130   4.597
 4977TIP3   OH214894   4.741   3.116   4.612
 4977TIP3    H114895   4.734   3.026   4.579
 4977TIP3    H214896   4.704   3.170   4.543
 4978TIP3   OH214897   5.595   5.873   4.039
 4978TIP3    H114898   5.629   5.799   3.989
 4978TIP3    H214899   5.643   5.948   4.005
 4979TIP3   OH214900   5.178   6.194   1.798
 4979TIP3    H114901   5.098   6.185   1.851
 4979TIP3    H214902   5.220   6.273   1.834
 4980TIP3   OH214903   4.240   4.657   4.408
 4980TIP3    H114904   4.231   4.565   4.433
 4980TIP3    H214905   4.326   4.683   4.439
 4981TIP3   OH214906   2.979   1.379   5.863
 4981TIP3    H114907   2.891   1.384   5.899
 4981TIP3    H214908   2.971   1.414   5.775
 4982TIP3   OH214909   2.482   0.903   0.218
 4982TIP3    H114910   2.538   0.826   0.208
 4982TIP3    H214911   2.536   0.977   0.190
 4983TIP3   OH214912   3.788   5.352   3.612
 4983TIP3    H114913   3.823   5.274   3.654
 4983TIP3    H214914   3.771   5.326   3.522
 4984TIP3   OH214915   4.555   1.962   0.264
 4984TIP3    H114916   4.523   1.882   0.306
 4984TIP3    H214917   4.505   1.967   0.182
 4985TIP3   OH214918   4.014   0.790   3.617
 4985TIP3    H114919   4.023   0.870   3.565
 4985TIP3    H214920   3.936   0.806   3.670
 4986TIP3   OH214921   7.105   5.666   3.394
 4986TIP3    H114922   7.156   5.609   3.337
 4986TIP3    H214923   7.168   5.698   3.458
 4987TIP3   OH214924   3.365   3.794   1.256
 4987TIP3    H114925   3.404   3.707   1.271
 4987TIP3    H214926   3.274   3.784   1.282
 4988TIP3   OH214927   2.606   2.310   2.028
 4988TIP3    H114928   2.557   2.238   1.989
 4988TIP3    H214929   2.697   2.279   2.028
 4989TIP3   OH214930   6.530   1.700   1.310
 4989TIP3    H114931   6.618   1.736   1.316
 4989TIP3    H214932   6.488   1.750   1.240
 4990TIP3   OH214933   5.388   2.726   0.618
 4990TIP3    H114934   5.422   2.636   0.610
 4990TIP3    H214935   5.393   2.745   0.711
 4991TIP3   OH214936   2.656   4.982   1.299
 4991TIP3    H114937   2.575   4.939   1.270
 4991TIP3    H214938   2.664   4.959   1.391
 4992TIP3   OH214939   5.329   3.641   5.795
 4992TIP3    H114940   5.391   3.581   5.836
 4992TIP3    H214941   5.244   3.616   5.830
 4993TIP3   OH214942   6.719   6.057   5.382
 4993TIP3    H114943   6.649   6.087   5.325
 4993TIP3    H214944   6.769   6.136   5.402
 4994TIP3   OH214945   4.025   4.258   3.463
 4994TIP3    H114946   4.070   4.245   3.380
 4994TIP3    H214947   3.939   4.220   3.450
 4995TIP3   OH214948   0.595   3.350   2.232
 4995TIP3    H114949   0.654   3.278   2.254
 4995TIP3    H214950   0.605   3.361   2.137
 4996TIP3   OH214951   5.427   4.534   5.218
 4996TIP3    H114952   5.453   4.613   5.265
 4996TIP3    H214953   5.396   4.474   5.287
 4997TIP3   OH214954   5.199   0.160   0.204
 4997TIP3    H114955   5.197   0.068   0.179
 4997TIP3    H214956   5.238   0.160   0.292
 4998TIP3   OH214957   1.664   2.664   3.024
 4998TIP3    H114958   1.570   2.649   3.034
 4998TIP3    H214959   1.671   2.721   2.948
 4999TIP3   OH214960   5.886   5.790   0.977
 4999TIP3    H114961   5.842   5.772   1.061
 4999TIP3    H214962   5.823   5.761   0.911
 5000TIP3   OH214963   4.957   2.486   1.772
 5000TIP3    H114964   4.922   2.403   1.805
 5000TIP3    H214965   4.905   2.553   1.817
 5001TIP3   OH214966   5.486   1.302   1.298
 5001TIP3    H114967   5.435   1.371   1.257
 5001TIP3    H214968   5.450   1.220   1.262
 5002TIP3   OH214969   4.062   3.899   1.385
 5002TIP3    H114970   4.019   3.823   1.345
 5002TIP3    H214971   3.999   3.931   1.449
 5003TIP3   OH214972   6.291   0.731   2.968
 5003TIP3    H114973   6.212   0.780   2.943
 5003TIP3    H214974   6.258   0.647   2.998
 5004TIP3   OH214975   5.215   2.899   1.988
 5004TIP3    H114976   5.165   2.855   2.057
 5004TIP3    H214977   5.214   2.837   1.915
 5005TIP3   OH214978   3.502   1.346   4.245
 5005TIP3    H114979   3.594   1.341   4.273
 5005TIP3    H214980   3.476   1.435   4.265
 5006TIP3   OH214981   5.213   0.163   0.842
 5006TIP3    H114982   5.307   0.158   0.825
 5006TIP3    H214983   5.180   0.227   0.779
 5007TIP3   OH214984   2.522   5.859   3.025
 5007TIP3    H114985   2.555   5.803   3.096
 5007TIP3    H214986   2.545   5.948   3.052
 5008TIP3   OH214987   2.811   1.706   0.222
 5008TIP3    H114988   2.821   1.740   0.311
 5008TIP3    H214989   2.898   1.717   0.183
 5009TIP3   OH214990   2.117   3.907   1.689
 5009TIP3    H114991   2.210   3.924   1.675
 5009TIP3    H214992   2.073   3.974   1.638
 5010TIP3   OH214993   3.209   6.163   0.702
 5010TIP3    H114994   3.299   6.158   0.668
 5010TIP3    H214995   3.202   6.089   0.762
 5011TIP3   OH214996   4.285   2.951   3.819
 5011TIP3    H114997   4.341   3.003   3.761
 5011TIP3    H214998   4.202   2.999   3.822
 5012TIP3   OH214999   2.971   1.141   3.635
 5012TIP3    H115000   3.033   1.182   3.574
 5012TIP3    H215001   3.021   1.132   3.717
 5013TIP3   OH215002   1.614   1.401   3.086
 5013TIP3    H115003   1.638   1.414   3.178
 5013TIP3    H215004   1.629   1.308   3.070
 5014TIP3   OH215005   6.132   0.320   3.535
 5014TIP3    H115006   6.225   0.339   3.525
 5014TIP3    H215007   6.128   0.258   3.607
 5015TIP3   OH215008   0.792   3.680   0.465
 5015TIP3    H115009   0.788   3.754   0.404
 5015TIP3    H215010   0.721   3.697   0.527
 5016TIP3   OH215011   3.296   5.875   4.205
 5016TIP3    H115012   3.380   5.910   4.176
 5016TIP3    H215013   3.308   5.780   4.204
 5017TIP3   OH215014   2.507   6.188   3.682
 5017TIP3    H115015   2.481   6.197   3.590
 5017TIP3    H215016   2.554   6.104   3.685
 5018TIP3   OH215017   1.942   2.389   4.105
 5018TIP3    H115018   1.885   2.422   4.035
 5018TIP3    H215019   1.965   2.467   4.156
 5019TIP3   OH215020   2.888   6.466   1.906
 5019TIP3    H115021   2.821   6.476   1.839
 5019TIP3    H215022   2.919   6.555   1.923
 5020TIP3   OH215023   1.106   2.685   4.636
 5020TIP3    H115024   1.047   2.632   4.581
 5020TIP3    H215025   1.063   2.771   4.640
 5021TIP3   OH215026   4.017   2.265   3.009
 5021TIP3    H115027   3.933   2.305   3.032
 5021TIP3    H215028   4.054   2.324   2.944
 5022TIP3   OH215029   6.942   5.638   1.252
 5022TIP3    H115030   6.939   5.543   1.248
 5022TIP3    H215031   7.025   5.657   1.296
 5023TIP3   OH215032   4.633   2.787   2.415
 5023TIP3    H115033   4.677   2.863   2.452
 5023TIP3    H215034   4.579   2.754   2.487
 5024TIP3   OH215035   3.486   4.434   3.432
 5024TIP3    H115036   3.531   4.417   3.350
 5024TIP3    H215037   3.539   4.502   3.475
 5025TIP3   OH215038   6.226   1.567   2.243
 5025TIP3    H115039   6.237   1.568   2.148
 5025TIP3    H215040   6.138   1.532   2.256
 5026TIP3   OH215041   1.814   5.077   3.428
 5026TIP3    H115042   1.743   5.023   3.461
 5026TIP3    H215043   1.793   5.091   3.336
 5027TIP3   OH215044   2.430   4.716   3.775
 5027TIP3    H115045   2.430   4.643   3.837
 5027TIP3    H215046   2.489   4.688   3.705
 5028TIP3   OH215047   2.794   5.749   5.664
 5028TIP3    H115048   2.877   5.772   5.706
 5028TIP3    H215049   2.795   5.799   5.582
 5029TIP3   OH215050   5.252   5.052   4.271
 5029TIP3    H115051   5.269   4.961   4.295
 5029TIP3    H215052   5.325   5.101   4.308
 5030TIP3   OH215053   2.506   3.814   2.918
 5030TIP3    H115054   2.423   3.853   2.890
 5030TIP3    H215055   2.573   3.867   2.874
 5031TIP3   OH215056   4.807   4.009   3.077
 5031TIP3    H115057   4.826   4.027   2.985
 5031TIP3    H215058   4.830   3.917   3.089
 5032TIP3   OH215059   6.154   2.277   3.598
 5032TIP3    H115060   6.110   2.195   3.573
 5032TIP3    H215061   6.245   2.263   3.572
 5033TIP3   OH215062   4.774   1.107   2.366
 5033TIP3    H115063   4.699   1.131   2.421
 5033TIP3    H215064   4.824   1.045   2.418
 5034TIP3   OH215065   2.958   5.542   4.792
 5034TIP3    H115066   3.018   5.568   4.722
 5034TIP3    H215067   2.907   5.620   4.810
 5035TIP3   OH215068   2.051   1.207   1.298
 5035TIP3    H115069   2.008   1.227   1.215
 5035TIP3    H215070   2.114   1.277   1.309
 5036TIP3   OH215071   6.475   5.193   0.387
 5036TIP3    H115072   6.469   5.287   0.369
 5036TIP3    H215073   6.503   5.155   0.304
 5037TIP3   OH215074   2.535   6.587   4.275
 5037TIP3    H115075   2.524   6.562   4.367
 5037TIP3    H215076   2.458   6.552   4.231
 5038TIP3   OH215077   6.534   5.966   2.320
 5038TIP3    H115078   6.582   5.894   2.279
 5038TIP3    H215079   6.601   6.019   2.361
 5039TIP3   OH215080   1.925   1.998   1.456
 5039TIP3    H115081   1.869   1.939   1.506
 5039TIP3    H215082   2.009   1.953   1.451
 5040TIP3   OH215083   0.770   3.033   3.828
 5040TIP3    H115084   0.719   2.982   3.891
 5040TIP3    H215085   0.845   3.065   3.878
 5041TIP3   OH215086   0.287   2.792   5.772
 5041TIP3    H115087   0.365   2.745   5.742
 5041TIP3    H215088   0.283   2.870   5.717
 5042TIP3   OH215089   5.957   2.911   1.698
 5042TIP3    H115090   5.873   2.914   1.652
 5042TIP3    H215091   5.935   2.880   1.786
 5043TIP3   OH215092   1.984   0.237   2.642
 5043TIP3    H115093   1.930   0.233   2.721
 5043TIP3    H215094   1.970   0.152   2.599
 5044TIP3   OH215095   6.767   2.829   0.223
 5044TIP3    H115096   6.718   2.751   0.194
 5044TIP3    H215097   6.838   2.837   0.159
 5045TIP3   OH215098   4.644   5.074   5.677
 5045TIP3    H115099   4.709   5.041   5.738
 5045TIP3    H215100   4.691   5.139   5.624
 5046TIP3   OH215101   4.289   2.932  -0.011
 5046TIP3    H115102   4.259   3.017  -0.046
 5046TIP3    H215103   4.336   2.955   0.069
 5047TIP3   OH215104   0.901   5.111   1.468
 5047TIP3    H115105   0.835   5.136   1.532
 5047TIP3    H215106   0.851   5.076   1.394
 5048TIP3   OH215107   3.606   2.672   2.401
 5048TIP3    H115108   3.668   2.722   2.454
 5048TIP3    H215109   3.659   2.636   2.330
 5049TIP3   OH215110   5.783   2.698   1.217
 5049TIP3    H115111   5.698   2.659   1.234
 5049TIP3    H215112   5.763   2.787   1.189
 5050TIP3   OH215113   2.924   5.004   2.406
 5050TIP3    H115114   2.921   5.100   2.414
 5050TIP3    H215115   2.991   4.977   2.469
 5051TIP3   OH215116   4.612   0.029   1.759
 5051TIP3    H115117   4.556  -0.026   1.814
 5051TIP3    H215118   4.637   0.102   1.815
 5052TIP3   OH215119   5.933   2.413   0.461
 5052TIP3    H115120   5.931   2.504   0.433
 5052TIP3    H215121   6.023   2.385   0.444
 5053TIP3   OH215122   2.979   0.762   1.445
 5053TIP3    H115123   2.908   0.757   1.381
 5053TIP3    H215124   2.969   0.848   1.485
 5054TIP3   OH215125   2.899   4.628   2.834
 5054TIP3    H115126   2.922   4.583   2.752
 5054TIP3    H215127   2.955   4.706   2.835
 5055TIP3   OH215128   2.400   4.165   2.092
 5055TIP3    H115129   2.464   4.162   2.163
 5055TIP3    H215130   2.397   4.076   2.058
 5056TIP3   OH215131   5.004   2.056   4.011
 5056TIP3    H115132   4.961   2.064   3.926
 5056TIP3    H215133   5.086   2.106   4.001
 5057TIP3   OH215134   6.055   3.976   4.114
 5057TIP3    H115135   6.027   3.973   4.205
 5057TIP3    H215136   6.136   4.027   4.115
 5058TIP3   OH215137   2.560   4.033   1.285
 5058TIP3    H115138   2.467   4.010   1.281
 5058TIP3    H215139   2.561   4.127   1.301
 5059TIP3   OH215140   4.136   1.610   1.676
 5059TIP3    H115141   4.158   1.529   1.721
 5059TIP3    H215142   4.191   1.677   1.718
 5060TIP3   OH215143   4.123   5.607   3.646
 5060TIP3    H115144   4.128   5.604   3.551
 5060TIP3    H215145   4.031   5.621   3.666
 5061TIP3   OH215146   0.085   5.725   3.579
 5061TIP3    H115147   0.162   5.679   3.614
 5061TIP3    H215148   0.072   5.798   3.638
 5062TIP3   OH215149   5.462   0.888   5.507
 5062TIP3    H115150   5.462   0.839   5.425
 5062TIP3    H215151   5.438   0.824   5.574
 5063TIP3   OH215152   5.166   0.986   5.508
 5063TIP3    H115153   5.158   1.030   5.593
 5063TIP3    H215154   5.125   0.900   5.522
 5064TIP3   OH215155   3.541   1.323   2.358
 5064TIP3    H115156   3.464   1.294   2.405
 5064TIP3    H215157   3.598   1.246   2.353
 5065TIP3   OH215158   0.914   3.483   5.386
 5065TIP3    H115159   0.947   3.440   5.307
 5065TIP3    H215160   0.903   3.412   5.449
 5066TIP3   OH215161   3.570   2.919   3.759
 5066TIP3    H115162   3.583   2.849   3.694
 5066TIP3    H215163   3.658   2.952   3.776
 5067TIP3   OH215164   3.735   3.268   1.455
 5067TIP3    H115165   3.788   3.215   1.395
 5067TIP3    H215166   3.694   3.204   1.514
 5068TIP3   OH215167   0.634   5.711   3.522
 5068TIP3    H115168   0.656   5.640   3.581
 5068TIP3    H215169   0.554   5.749   3.559
 5069TIP3   OH215170   0.106   5.006   5.263
 5069TIP3    H115171   0.079   5.059   5.337
 5069TIP3    H215172   0.054   4.926   5.271
 5070TIP3   OH215173   6.465   3.561   0.473
 5070TIP3    H115174   6.469   3.654   0.497
 5070TIP3    H215175   6.445   3.517   0.556
 5071TIP3   OH215176   2.762   3.129   0.271
 5071TIP3    H115177   2.732   3.219   0.259
 5071TIP3    H215178   2.791   3.125   0.362
 5072TIP3   OH215179   0.694   5.060   3.126
 5072TIP3    H115180   0.789   5.069   3.117
 5072TIP3    H215181   0.667   5.139   3.173
 5073TIP3   OH215182   3.161   1.576   0.791
 5073TIP3    H115183   3.129   1.555   0.878
 5073TIP3    H215184   3.110   1.653   0.765
 5074TIP3   OH215185   6.679   4.054   3.509
 5074TIP3    H115186   6.756   4.044   3.453
 5074TIP3    H215187   6.628   4.123   3.467
 5075TIP3   OH215188   4.144   0.987   4.576
 5075TIP3    H115189   4.215   0.988   4.512
 5075TIP3    H215190   4.095   1.068   4.560
 5076TIP3   OH215191   4.616   4.723   3.401
 5076TIP3    H115192   4.682   4.773   3.355
 5076TIP3    H215193   4.641   4.730   3.494
 5077TIP3   OH215194   7.150   5.460   5.474
 5077TIP3    H115195   7.059   5.490   5.483
 5077TIP3    H215196   7.194   5.531   5.427
 5078TIP3   OH215197   4.703   6.483   1.201
 5078TIP3    H115198   4.749   6.428   1.264
 5078TIP3    H215199   4.611   6.459   1.210
 5079TIP3   OH215200   2.150   4.613   4.844
 5079TIP3    H115201   2.114   4.646   4.762
 5079TIP3    H215202   2.114   4.671   4.911
 5080TIP3   OH215203   4.918   2.427   0.334
 5080TIP3    H115204   4.888   2.345   0.295
 5080TIP3    H215205   5.011   2.413   0.349
 5081TIP3   OH215206   1.411   4.672   3.555
 5081TIP3    H115207   1.357   4.601   3.519
 5081TIP3    H215208   1.499   4.656   3.519
 5082TIP3   OH215209   3.780   2.539   1.740
 5082TIP3    H115210   3.743   2.543   1.651
 5082TIP3    H215211   3.787   2.630   1.767
 5083TIP3   OH215212   3.826   3.184   2.912
 5083TIP3    H115213   3.888   3.140   2.853
 5083TIP3    H215214   3.879   3.213   2.986
 5084TIP3   OH215215   2.299   4.714   2.924
 5084TIP3    H115216   2.376   4.682   2.970
 5084TIP3    H215217   2.283   4.650   2.855
 5085TIP3   OH215218   1.394   0.827   5.131
 5085TIP3    H115219   1.440   0.909   5.148
 5085TIP3    H215220   1.392   0.819   5.036
 5086TIP3   OH215221   0.185   0.183   3.975
 5086TIP3    H115222   0.113   0.121   3.990
 5086TIP3    H215223   0.143   0.269   3.982
 5087TIP3   OH215224   6.489   3.425   2.690
 5087TIP3    H115225   6.544   3.499   2.666
 5087TIP3    H215226   6.401   3.463   2.700
 5088TIP3   OH215227   4.626   2.892   5.341
 5088TIP3    H115228   4.676   2.907   5.261
 5088TIP3    H215229   4.556   2.957   5.337
 5089TIP3   OH215230   6.826   2.825   4.922
 5089TIP3    H115231   6.785   2.855   4.841
 5089TIP3    H215232   6.760   2.769   4.963
 5090TIP3   OH215233   3.286   1.733   1.301
 5090TIP3    H115234   3.269   1.657   1.246
 5090TIP3    H215235   3.245   1.806   1.255
 5091TIP3   OH215236   3.951   4.592   1.251
 5091TIP3    H115237   3.920   4.620   1.165
 5091TIP3    H215238   4.038   4.632   1.260
 5092TIP3   OH215239   6.452   5.284   5.632
 5092TIP3    H115240   6.418   5.256   5.717
 5092TIP3    H215241   6.424   5.216   5.571
 5093TIP3   OH215242   2.352   5.706   4.052
 5093TIP3    H115243   2.387   5.638   4.109
 5093TIP3    H215244   2.410   5.781   4.065
 5094TIP3   OH215245   5.712   0.559   0.502
 5094TIP3    H115246   5.629   0.561   0.550
 5094TIP3    H215247   5.685   0.556   0.410
 5095TIP3   OH215248   0.256   3.565   0.529
 5095TIP3    H115249   0.199   3.489   0.514
 5095TIP3    H215250   0.343   3.534   0.505
 5096TIP3   OH215251   6.527   4.114   5.387
 5096TIP3    H115252   6.556   4.183   5.446
 5096TIP3    H215253   6.450   4.149   5.344
 5097TIP3   OH215254   3.856   4.057   5.352
 5097TIP3    H115255   3.805   4.051   5.272
 5097TIP3    H215256   3.791   4.053   5.422
 5098TIP3   OH215257   5.306   4.811   2.355
 5098TIP3    H115258   5.301   4.715   2.357
 5098TIP3    H215259   5.245   4.837   2.286
 5099TIP3   OH215260   4.318   2.197   0.819
 5099TIP3    H115261   4.343   2.271   0.763
 5099TIP3    H215262   4.359   2.216   0.903
 5100TIP3   OH215263   5.832   5.184   0.758
 5100TIP3    H115264   5.785   5.256   0.801
 5100TIP3    H215265   5.807   5.190   0.666
 5101TIP3   OH215266   5.617   0.579   3.674
 5101TIP3    H115267   5.549   0.602   3.737
 5101TIP3    H215268   5.699   0.603   3.716
 5102TIP3   OH215269   2.204   6.387   2.199
 5102TIP3    H115270   2.207   6.292   2.187
 5102TIP3    H215271   2.198   6.422   2.110
 5103TIP3   OH215272   3.346   5.456   5.768
 5103TIP3    H115273   3.378   5.509   5.841
 5103TIP3    H215274   3.402   5.379   5.768
 5104TIP3   OH215275   3.889   3.504   3.857
 5104TIP3    H115276   3.910   3.431   3.799
 5104TIP3    H215277   3.856   3.573   3.799
 5105TIP3   OH215278   0.836   5.131   5.083
 5105TIP3    H115279   0.846   5.142   4.989
 5105TIP3    H215280   0.779   5.054   5.093
 5106TIP3   OH215281   3.711   6.586   4.997
 5106TIP3    H115282   3.621   6.618   4.998
 5106TIP3    H215283   3.742   6.604   4.909
 5107TIP3   OH215284   4.128   3.382   5.578
 5107TIP3    H115285   4.066   3.426   5.520
 5107TIP3    H215286   4.136   3.439   5.654
 5108TIP3   OH215287   0.542   0.183   1.993
 5108TIP3    H115288   0.543   0.114   2.060
 5108TIP3    H215289   0.526   0.263   2.043
 5109TIP3   OH215290   1.705   2.030   4.442
 5109TIP3    H115291   1.682   2.060   4.530
 5109TIP3    H215292   1.784   2.079   4.419
 5110TIP3   OH215293   5.080   6.751   4.557
 5110TIP3    H115294   4.984   6.747   4.549
 5110TIP3    H215295   5.112   6.731   4.469
 5111TIP3   OH215296   1.563   3.325   0.554
 5111TIP3    H115297   1.644   3.331   0.503
 5111TIP3    H215298   1.553   3.231   0.573
 5112TIP3   OH215299   6.454   6.693   1.886
 5112TIP3    H115300   6.478   6.777   1.846
 5112TIP3    H215301   6.502   6.691   1.969
 5113TIP3   OH215302   3.035   5.584   0.740
 5113TIP3    H115303   3.071   5.643   0.673
 5113TIP3    H215304   3.089   5.600   0.818
 5114TIP3   OH215305   0.957   3.972   2.986
 5114TIP3    H115306   0.945   3.889   3.032
 5114TIP3    H215307   0.944   3.951   2.894
 5115TIP3   OH215308   3.277   1.034  -0.021
 5115TIP3    H115309   3.316   1.056   0.064
 5115TIP3    H215310   3.211   0.968  -0.002
 5116TIP3   OH215311   6.002   5.178   3.374
 5116TIP3    H115312   6.036   5.158   3.287
 5116TIP3    H215313   5.941   5.107   3.394
 5117TIP3   OH215314   3.337   1.468   3.487
 5117TIP3    H115315   3.378   1.486   3.402
 5117TIP3    H215316   3.395   1.510   3.550
 5118TIP3   OH215317   0.850   1.038   5.412
 5118TIP3    H115318   0.784   1.096   5.451
 5118TIP3    H215319   0.914   1.098   5.372
 5119TIP3   OH215320   0.124   0.184   1.168
 5119TIP3    H115321   0.196   0.199   1.106
 5119TIP3    H215322   0.137   0.250   1.236
 5120TIP3   OH215323   3.438   6.627   2.892
 5120TIP3    H115324   3.518   6.581   2.918
 5120TIP3    H215325   3.444   6.712   2.936
 5121TIP3   OH215326   0.459   2.289   1.610
 5121TIP3    H115327   0.452   2.242   1.693
 5121TIP3    H215328   0.546   2.331   1.613
 5122TIP3   OH215329   5.284   1.237   3.770
 5122TIP3    H115330   5.295   1.281   3.686
 5122TIP3    H215331   5.300   1.305   3.835
 5123TIP3   OH215332   2.422   5.330   3.994
 5123TIP3    H115333   2.332   5.314   4.024
 5123TIP3    H215334   2.454   5.245   3.967
 5124TIP3   OH215335   0.638   5.834   1.826
 5124TIP3    H115336   0.700   5.791   1.767
 5124TIP3    H215337   0.604   5.908   1.776
 5125TIP3   OH215338   3.156   0.479   4.918
 5125TIP3    H115339   3.184   0.549   4.859
 5125TIP3    H215340   3.166   0.399   4.867
 5126TIP3   OH215341   1.272   3.893   4.873
 5126TIP3    H115342   1.209   3.915   4.941
 5126TIP3    H215343   1.233   3.927   4.792
 5127TIP3   OH215344   3.884   5.729   5.390
 5127TIP3    H115345   3.830   5.806   5.408
 5127TIP3    H215346   3.956   5.762   5.336
 5128TIP3   OH215347   3.471   4.087   3.651
 5128TIP3    H115348   3.564   4.080   3.672
 5128TIP3    H215349   3.444   4.171   3.687
 5129TIP3   OH215350   6.389   0.901   2.613
 5129TIP3    H115351   6.389   0.963   2.540
 5129TIP3    H215352   6.405   0.955   2.690
 5130TIP3   OH215353   2.077   3.288   3.100
 5130TIP3    H115354   1.983   3.276   3.088
 5130TIP3    H215355   2.115   3.258   3.017
 5131TIP3   OH215356   6.801   1.235   3.312
 5131TIP3    H115357   6.852   1.175   3.257
 5131TIP3    H215358   6.866   1.279   3.367
 5132TIP3   OH215359   2.238   3.892   2.508
 5132TIP3    H115360   2.220   3.808   2.549
 5132TIP3    H215361   2.325   3.916   2.539
 5133TIP3   OH215362   6.715   2.806   4.419
 5133TIP3    H115363   6.672   2.728   4.385
 5133TIP3    H215364   6.688   2.876   4.360
 5134TIP3   OH215365   5.957   6.469   5.415
 5134TIP3    H115366   6.046   6.435   5.419
 5134TIP3    H215367   5.940   6.504   5.502
 5135TIP3   OH215368   5.036   2.367   3.625
 5135TIP3    H115369   5.020   2.328   3.539
 5135TIP3    H215370   5.027   2.462   3.610
 5136TIP3   OH215371   0.478   1.679   0.743
 5136TIP3    H115372   0.558   1.643   0.703
 5136TIP3    H215373   0.511   1.743   0.806
 5137TIP3   OH215374   3.134   4.049   3.990
 5137TIP3    H115375   3.153   4.064   3.897
 5137TIP3    H215376   3.060   4.105   4.009
 5138TIP3   OH215377   5.629   2.423   1.097
 5138TIP3    H115378   5.566   2.414   1.025
 5138TIP3    H215379   5.709   2.454   1.055
 5139TIP3   OH215380   4.174   6.494   3.988
 5139TIP3    H115381   4.167   6.517   3.896
 5139TIP3    H215382   4.259   6.450   3.995
 5140TIP3   OH215383   6.647   3.282   4.390
 5140TIP3    H115384   6.727   3.333   4.396
 5140TIP3    H215385   6.583   3.332   4.441
 5141TIP3   OH215386   6.060   5.875   2.976
 5141TIP3    H115387   6.113   5.819   2.920
 5141TIP3    H215388   5.971   5.867   2.942
 5142TIP3   OH215389   2.597   6.225   1.744
 5142TIP3    H115390   2.673   6.195   1.794
 5142TIP3    H215391   2.523   6.175   1.780
 5143TIP3   OH215392   1.564   1.753   3.075
 5143TIP3    H115393   1.493   1.702   3.114
 5143TIP3    H215394   1.543   1.844   3.097
 5144TIP3   OH215395   4.475   5.895   2.328
 5144TIP3    H115396   4.430   5.817   2.359
 5144TIP3    H215397   4.549   5.861   2.277
 5145TIP3   OH215398   2.234   2.862   2.953
 5145TIP3    H115399   2.157   2.897   2.998
 5145TIP3    H215400   2.283   2.817   3.022
 5146TIP3   OH215401   2.779   1.702   5.721
 5146TIP3    H115402   2.868   1.728   5.697
 5146TIP3    H215403   2.739   1.782   5.756
 5147TIP3   OH215404   4.552   0.873   3.328
 5147TIP3    H115405   4.613   0.818   3.377
 5147TIP3    H215406   4.470   0.824   3.330
 5148TIP3   OH215407   2.956   2.765   4.110
 5148TIP3    H115408   3.045   2.768   4.074
 5148TIP3    H215409   2.968   2.775   4.204
 5149TIP3   OH215410   5.646   0.256   0.311
 5149TIP3    H115411   5.654   0.209   0.228
 5149TIP3    H215412   5.737   0.270   0.339
 5150TIP3   OH215413   2.244   5.588   2.879
 5150TIP3    H115414   2.295   5.607   2.800
 5150TIP3    H215415   2.219   5.673   2.913
 5151TIP3   OH215416   7.066   3.519   1.118
 5151TIP3    H115417   7.031   3.532   1.030
 5151TIP3    H215418   7.009   3.453   1.157
 5152TIP3   OH215419   1.178   6.019   0.592
 5152TIP3    H115420   1.141   6.104   0.612
 5152TIP3    H215421   1.272   6.035   0.583
 5153TIP3   OH215422   0.974   0.970   2.135
 5153TIP3    H115423   1.069   0.963   2.124
 5153TIP3    H215424   0.960   0.953   2.229
 5154TIP3   OH215425   1.856   4.239   3.097
 5154TIP3    H115426   1.922   4.205   3.157
 5154TIP3    H215427   1.845   4.331   3.122
 5155TIP3   OH215428   0.243   0.525   2.085
 5155TIP3    H115429   0.220   0.589   2.018
 5155TIP3    H215430   0.232   0.572   2.168
 5156TIP3   OH215431   6.376   5.330   0.612
 5156TIP3    H115432   6.414   5.265   0.554
 5156TIP3    H215433   6.281   5.325   0.596
 5157TIP3   OH215434   6.075   2.851   2.853
 5157TIP3    H115435   6.132   2.821   2.924
 5157TIP3    H215436   5.993   2.805   2.867
 5158TIP3   OH215437   5.056   2.510   5.739
 5158TIP3    H115438   5.065   2.482   5.648
 5158TIP3    H215439   5.135   2.477   5.783
 5159TIP3   OH215440   3.497   3.623   5.010
 5159TIP3    H115441   3.422   3.638   5.068
 5159TIP3    H215442   3.477   3.540   4.966
 5160TIP3   OH215443   4.212   3.184   0.762
 5160TIP3    H115444   4.168   3.246   0.819
 5160TIP3    H215445   4.300   3.220   0.749
 5161TIP3   OH215446   0.415   4.114   4.054
 5161TIP3    H115447   0.355   4.096   4.126
 5161TIP3    H215448   0.499   4.131   4.097
 5162TIP3   OH215449   1.662   3.052   0.202
 5162TIP3    H115450   1.618   3.022   0.281
 5162TIP3    H215451   1.648   3.147   0.200
 5163TIP3   OH215452   3.114   2.346   4.586
 5163TIP3    H115453   3.034   2.310   4.549
 5163TIP3    H215454   3.182   2.282   4.564
 5164TIP3   OH215455   2.416   1.524   4.951
 5164TIP3    H115456   2.334   1.560   4.984
 5164TIP3    H215457   2.414   1.432   4.978
 5165TIP3   OH215458   1.847   3.264   3.325
 5165TIP3    H115459   1.773   3.259   3.387
 5165TIP3    H215460   1.824   3.202   3.256
 5166TIP3   OH215461   0.046   5.188   5.035
 5166TIP3    H115462   0.052   5.277   5.069
 5166TIP3    H215463   0.098   5.135   5.097
 5167TIP3   OH215464   2.515   1.680   4.469
 5167TIP3    H115465   2.544   1.643   4.553
 5167TIP3    H215466   2.422   1.659   4.465
 5168TIP3   OH215467   5.766   1.806   0.329
 5168TIP3    H115468   5.799   1.830   0.242
 5168TIP3    H215469   5.804   1.872   0.387
 5169TIP3   OH215470   6.551   4.912   4.325
 5169TIP3    H115471   6.593   4.971   4.389
 5169TIP3    H215472   6.620   4.850   4.301
 5170TIP3   OH215473   1.016   5.040   2.591
 5170TIP3    H115474   1.097   5.088   2.576
 5170TIP3    H215475   1.028   4.999   2.677
 5171TIP3   OH215476   0.482   5.618   4.132
 5171TIP3    H115477   0.455   5.695   4.083
 5171TIP3    H215478   0.488   5.548   4.067
 5172TIP3   OH215479   7.070   3.512   3.422
 5172TIP3    H115480   7.116   3.461   3.490
 5172TIP3    H215481   7.048   3.447   3.355
 5173TIP3   OH215482   3.741   5.040   1.255
 5173TIP3    H115483   3.681   5.049   1.180
 5173TIP3    H215484   3.687   5.006   1.326
 5174TIP3   OH215485   4.381   4.248   1.827
 5174TIP3    H115486   4.305   4.300   1.852
 5174TIP3    H215487   4.394   4.187   1.899
 5175TIP3   OH215488   6.830   3.620   4.139
 5175TIP3    H115489   6.777   3.685   4.187
 5175TIP3    H215490   6.835   3.655   4.050
 5176TIP3   OH215491   3.603   2.404   5.390
 5176TIP3    H115492   3.586   2.444   5.475
 5176TIP3    H215493   3.550   2.324   5.390
 5177TIP3   OH215494   6.166   6.228   1.733
 5177TIP3    H115495   6.144   6.287   1.660
 5177TIP3    H215496   6.224   6.280   1.788
 5178TIP3   OH215497   1.706   1.674   0.727
 5178TIP3    H115498   1.730   1.600   0.672
 5178TIP3    H215499   1.658   1.734   0.669
 5179TIP3   OH215500   6.333   1.574   3.375
 5179TIP3    H115501   6.416   1.572   3.421
 5179TIP3    H215502   6.267   1.579   3.444
 5180TIP3   OH215503   1.699   4.017   4.031
 5180TIP3    H115504   1.652   4.006   3.948
 5180TIP3    H215505   1.746   4.100   4.021
 5181TIP3   OH215506   0.414   3.551   0.798
 5181TIP3    H115507   0.456   3.467   0.776
 5181TIP3    H215508   0.320   3.530   0.799
 5182TIP3   OH215509   3.613   6.376   3.001
 5182TIP3    H115510   3.676   6.344   3.065
 5182TIP3    H215511   3.544   6.418   3.053
 5183TIP3   OH215512   5.397   1.320   2.884
 5183TIP3    H115513   5.381   1.228   2.865
 5183TIP3    H215514   5.324   1.346   2.940
 5184TIP3   OH215515   2.460   1.224   0.352
 5184TIP3    H115516   2.455   1.311   0.312
 5184TIP3    H215517   2.386   1.176   0.314
 5185TIP3   OH215518   5.719   5.991   0.124
 5185TIP3    H115519   5.709   5.997   0.029
 5185TIP3    H215520   5.756   5.904   0.139
 5186TIP3   OH215521   6.877   1.871   2.785
 5186TIP3    H115522   6.909   1.838   2.869
 5186TIP3    H215523   6.898   1.801   2.723
 5187TIP3   OH215524   0.404   3.434   4.495
 5187TIP3    H115525   0.498   3.449   4.504
 5187TIP3    H215526   0.377   3.395   4.579
 5188TIP3   OH215527   1.698   1.689   5.329
 5188TIP3    H115528   1.755   1.651   5.396
 5188TIP3    H215529   1.695   1.782   5.350
 5189TIP3   OH215530   5.123   5.756   3.808
 5189TIP3    H115531   5.163   5.761   3.895
 5189TIP3    H215532   5.055   5.823   3.809
 5190TIP3   OH215533   4.092   1.689   2.694
 5190TIP3    H115534   4.176   1.669   2.654
 5190TIP3    H215535   4.094   1.644   2.778
 5191TIP3   OH215536   3.961   0.494   5.677
 5191TIP3    H115537   3.963   0.404   5.645
 5191TIP3    H215538   3.979   0.547   5.599
 5192TIP3   OH215539   6.839   1.253   5.574
 5192TIP3    H115540   6.748   1.276   5.592
 5192TIP3    H215541   6.855   1.175   5.628
 5193TIP3   OH215542   0.989   1.005   4.266
 5193TIP3    H115543   0.999   0.914   4.235
 5193TIP3    H215544   0.909   1.004   4.318
 5194TIP3   OH215545   6.474   4.162   1.537
 5194TIP3    H115546   6.565   4.184   1.556
 5194TIP3    H215547   6.432   4.158   1.623
 5195TIP3   OH215548   4.723   5.532   2.882
 5195TIP3    H115549   4.677   5.599   2.934
 5195TIP3    H215550   4.773   5.482   2.946
 5196TIP3   OH215551   0.294   6.368   2.780
 5196TIP3    H115552   0.205   6.400   2.765
 5196TIP3    H215553   0.326   6.419   2.855
 5197TIP3   OH215554   2.776   4.232   0.618
 5197TIP3    H115555   2.767   4.249   0.524
 5197TIP3    H215556   2.760   4.317   0.659
 5198TIP3   OH215557   5.298   3.049   2.414
 5198TIP3    H115558   5.208   3.081   2.422
 5198TIP3    H215559   5.315   3.050   2.319
 5199TIP3   OH215560   0.577   3.279   5.827
 5199TIP3    H115561   0.620   3.227   5.895
 5199TIP3    H215562   0.484   3.277   5.851
 5200TIP3   OH215563   6.045   1.643   1.212
 5200TIP3    H115564   6.050   1.554   1.178
 5200TIP3    H215565   6.087   1.697   1.146
 5201TIP3   OH215566   4.104   2.759   2.148
 5201TIP3    H115567   4.042   2.687   2.159
 5201TIP3    H215568   4.096   2.784   2.056
 5202TIP3   OH215569   6.167   3.413   5.748
 5202TIP3    H115570   6.116   3.413   5.667
 5202TIP3    H215571   6.248   3.368   5.725
 5203TIP3   OH215572   3.907   4.508   2.483
 5203TIP3    H115573   3.925   4.462   2.565
 5203TIP3    H215574   3.853   4.447   2.433
 5204TIP3   OH215575   5.562   0.366   5.814
 5204TIP3    H115576   5.480   0.317   5.819
 5204TIP3    H215577   5.621   0.320   5.875
 5205TIP3   OH215578   3.775   3.681   0.022
 5205TIP3    H115579   3.812   3.767   0.044
 5205TIP3    H215580   3.842   3.619   0.050
 5206TIP3   OH215581   1.671   2.316   4.451
 5206TIP3    H115582   1.737   2.385   4.451
 5206TIP3    H215583   1.616   2.335   4.527
 5207TIP3   OH215584   4.939   0.976   2.560
 5207TIP3    H115585   5.013   0.976   2.500
 5207TIP3    H215586   4.905   0.887   2.557
 5208TIP3   OH215587   4.047   2.457   1.848
 5208TIP3    H115588   3.958   2.469   1.815
 5208TIP3    H215589   4.101   2.450   1.769
 5209TIP3   OH215590   2.253   6.646   5.394
 5209TIP3    H115591   2.238   6.616   5.483
 5209TIP3    H215592   2.348   6.651   5.385
 5210TIP3   OH215593   1.628   6.599   1.927
 5210TIP3    H115594   1.571   6.557   1.863
 5210TIP3    H215595   1.685   6.529   1.959
 5211TIP3   OH215596   3.382   6.144   3.450
 5211TIP3    H115597   3.329   6.093   3.511
 5211TIP3    H215598   3.422   6.212   3.504
 5212TIP3   OH215599   5.311   0.185   1.140
 5212TIP3    H115600   5.332   0.194   1.047
 5212TIP3    H215601   5.216   0.192   1.144
 5213TIP3   OH215602   4.703   0.905   1.829
 5213TIP3    H115603   4.671   0.968   1.764
 5213TIP3    H215604   4.685   0.946   1.913
 5214TIP3   OH215605   1.275   5.398   3.887
 5214TIP3    H115606   1.310   5.412   3.975
 5214TIP3    H215607   1.334   5.450   3.831
 5215TIP3   OH215608   0.234   3.915   5.730
 5215TIP3    H115609   0.243   3.996   5.781
 5215TIP3    H215610   0.279   3.849   5.782
 5216TIP3   OH215611   1.582   3.946   3.683
 5216TIP3    H115612   1.532   4.027   3.692
 5216TIP3    H215613   1.535   3.882   3.735
 5217TIP3   OH215614   1.041   2.226   1.207
 5217TIP3    H115615   1.061   2.279   1.284
 5217TIP3    H215616   1.048   2.286   1.134
 5218TIP3   OH215617   7.065   1.041   5.156
 5218TIP3    H115618   7.045   1.057   5.064
 5218TIP3    H215619   7.161   1.038   5.160
 5219TIP3   OH215620   2.980   6.645   5.401
 5219TIP3    H115621   2.946   6.556   5.406
 5219TIP3    H215622   3.072   6.637   5.426
 5220TIP3   OH215623   4.808   4.426   1.151
 5220TIP3    H115624   4.718   4.443   1.122
 5220TIP3    H215625   4.798   4.368   1.226
 5221TIP3   OH215626   3.704   6.482   5.781
 5221TIP3    H115627   3.790   6.513   5.752
 5221TIP3    H215628   3.643   6.529   5.724
 5222TIP3   OH215629   0.681   0.280   2.320
 5222TIP3    H115630   0.711   0.295   2.230
 5222TIP3    H215631   0.739   0.212   2.353
 5223TIP3   OH215632   5.816   4.950   1.374
 5223TIP3    H115633   5.771   4.872   1.343
 5223TIP3    H215634   5.746   5.008   1.404
 5224TIP3   OH215635   3.647   1.422   3.800
 5224TIP3    H115636   3.584   1.392   3.866
 5224TIP3    H215637   3.668   1.343   3.750
 5225TIP3   OH215638   3.944   1.960   2.817
 5225TIP3    H115639   4.003   2.024   2.857
 5225TIP3    H215640   3.982   1.875   2.839
 5226TIP3   OH215641   4.399   0.488   2.704
 5226TIP3    H115642   4.469   0.553   2.713
 5226TIP3    H215643   4.319   0.539   2.708
 5227TIP3   OH215644   5.300   1.253   3.164
 5227TIP3    H115645   5.380   1.298   3.190
 5227TIP3    H215646   5.245   1.321   3.126
 5228TIP3   OH215647   6.873   3.014   5.122
 5228TIP3    H115648   6.861   2.960   5.044
 5228TIP3    H215649   6.966   3.008   5.142
 5229TIP3   OH215650   7.241   2.729   2.495
 5229TIP3    H115651   7.198   2.785   2.560
 5229TIP3    H215652   7.239   2.642   2.534
 5230TIP3   OH215653   2.255   5.575   4.479
 5230TIP3    H115654   2.213   5.498   4.441
 5230TIP3    H215655   2.202   5.596   4.556
 5231TIP3   OH215656  -0.017   4.313   0.980
 5231TIP3    H115657  -0.042   4.401   1.006
 5231TIP3    H215658   0.070   4.323   0.941
 5232TIP3   OH215659   6.324   2.789   4.024
 5232TIP3    H115660   6.319   2.859   4.088
 5232TIP3    H215661   6.417   2.776   4.009
 5233TIP3   OH215662   3.818   1.577   1.535
 5233TIP3    H115663   3.900   1.543   1.570
 5233TIP3    H215664   3.768   1.605   1.611
 5234TIP3   OH215665   6.305   1.231   1.430
 5234TIP3    H115666   6.323   1.321   1.456
 5234TIP3    H215667   6.290   1.185   1.512
 5235TIP3   OH215668   5.221   5.332   4.498
 5235TIP3    H115669   5.162   5.397   4.538
 5235TIP3    H215670   5.295   5.384   4.466
 5236TIP3   OH215671   6.234   6.232   0.165
 5236TIP3    H115672   6.225   6.146   0.124
 5236TIP3    H215673   6.323   6.232   0.201
 5237TIP3   OH215674   1.178   0.644   2.390
 5237TIP3    H115675   1.178   0.554   2.422
 5237TIP3    H215676   1.252   0.649   2.330
 5238TIP3   OH215677   0.518   4.568   3.842
 5238TIP3    H115678   0.606   4.553   3.808
 5238TIP3    H215679   0.489   4.482   3.872
 5239TIP3   OH215680   3.710   5.211   4.706
 5239TIP3    H115681   3.753   5.125   4.709
 5239TIP3    H215682   3.736   5.254   4.787
 5240TIP3   OH215683   5.655   4.983   1.756
 5240TIP3    H115684   5.625   5.074   1.750
 5240TIP3    H215685   5.710   4.981   1.835
 5241TIP3   OH215686   6.228   1.087   1.666
 5241TIP3    H115687   6.246   1.028   1.739
 5241TIP3    H215688   6.145   1.057   1.630
 5242TIP3   OH215689   5.303   5.297   0.949
 5242TIP3    H115690   5.395   5.281   0.971
 5242TIP3    H215691   5.305   5.331   0.860
 5243TIP3   OH215692   6.356   6.644   4.718
 5243TIP3    H115693   6.397   6.729   4.736
 5243TIP3    H215694   6.269   6.651   4.755
 5244TIP3   OH215695   2.722   0.817   2.153
 5244TIP3    H115696   2.649   0.843   2.095
 5244TIP3    H215697   2.799   0.816   2.096
 5245TIP3   OH215698   1.925   0.026   4.021
 5245TIP3    H115699   1.952  -0.043   3.960
 5245TIP3    H215700   1.876  -0.020   4.089
 5246TIP3   OH215701   2.684   4.627   2.551
 5246TIP3    H115702   2.775   4.654   2.562
 5246TIP3    H215703   2.681   4.586   2.465
 5247TIP3   OH215704   1.905   5.776   4.358
 5247TIP3    H115705   1.960   5.754   4.283
 5247TIP3    H215706   1.926   5.709   4.423
 5248TIP3   OH215707   5.886   6.470   1.277
 5248TIP3    H115708   5.970   6.459   1.232
 5248TIP3    H215709   5.846   6.546   1.234
 5249TIP3   OH215710   2.499   4.498   0.933
 5249TIP3    H115711   2.506   4.455   0.848
 5249TIP3    H215712   2.449   4.577   0.917
 5250TIP3   OH215713   2.360   2.738   0.420
 5250TIP3    H115714   2.319   2.733   0.506
 5250TIP3    H215715   2.412   2.659   0.413
 5251TIP3   OH215716   6.289   2.457   1.350
 5251TIP3    H115717   6.198   2.441   1.377
 5251TIP3    H215718   6.281   2.509   1.269
 5252TIP3   OH215719   1.465   6.576   1.693
 5252TIP3    H115720   1.446   6.620   1.610
 5252TIP3    H215721   1.422   6.490   1.684
 5253TIP3   OH215722   7.172   2.700   4.750
 5253TIP3    H115723   7.261   2.731   4.765
 5253TIP3    H215724   7.129   2.773   4.704
 5254TIP3   OH215725   1.523   3.860   5.150
 5254TIP3    H115726   1.447   3.803   5.163
 5254TIP3    H215727   1.569   3.860   5.233
 5255TIP3   OH215728   0.730   0.442   3.405
 5255TIP3    H115729   0.643   0.480   3.396
 5255TIP3    H215730   0.761   0.432   3.315
 5256TIP3   OH215731   2.300  -0.059   2.222
 5256TIP3    H115732   2.325   0.033   2.219
 5256TIP3    H215733   2.345  -0.093   2.299
 5257TIP3   OH215734   2.428   6.016   1.850
 5257TIP3    H115735   2.367   5.962   1.901
 5257TIP3    H215736   2.505   5.960   1.838
 5258TIP3   OH215737   0.642   1.682   0.300
 5258TIP3    H115738   0.702   1.616   0.265
 5258TIP3    H215739   0.569   1.632   0.336
 5259TIP3   OH215740   4.034   4.704   4.183
 5259TIP3    H115741   4.071   4.731   4.267
 5259TIP3    H215742   3.945   4.676   4.204
 5260TIP3   OH215743   5.397   3.679   1.435
 5260TIP3    H115744   5.322   3.738   1.431
 5260TIP3    H215745   5.360   3.593   1.455
 5261TIP3   OH215746   6.263   5.178   4.436
 5261TIP3    H115747   6.303   5.168   4.349
 5261TIP3    H215748   6.321   5.130   4.495
 5262TIP3   OH215749   5.349   2.666   2.846
 5262TIP3    H115750   5.353   2.738   2.783
 5262TIP3    H215751   5.261   2.671   2.883
 5263TIP3   OH215752   6.367   1.665   3.114
 5263TIP3    H115753   6.305   1.594   3.096
 5263TIP3    H215754   6.390   1.654   3.207
 5264TIP3   OH215755   0.041   4.823   4.105
 5264TIP3    H115756   0.048   4.877   4.184
 5264TIP3    H215757   0.027   4.887   4.035
 5265TIP3   OH215758   0.328   1.546   4.422
 5265TIP3    H115759   0.415   1.511   4.401
 5265TIP3    H215760   0.314   1.616   4.359
 5266TIP3   OH215761   6.476   3.788   5.509
 5266TIP3    H115762   6.533   3.723   5.469
 5266TIP3    H215763   6.535   3.845   5.558
 5267TIP3   OH215764   3.206   0.887   5.617
 5267TIP3    H115765   3.301   0.880   5.606
 5267TIP3    H215766   3.194   0.917   5.707
 5268TIP3   OH215767   0.021   1.493   3.489
 5268TIP3    H115768   0.111   1.465   3.504
 5268TIP3    H215769  -0.003   1.540   3.569
 5269TIP3   OH215770   0.661   5.085   5.862
 5269TIP3    H115771   0.597   5.087   5.791
 5269TIP3    H215772   0.746   5.092   5.817
 5270TIP3   OH215773   3.393   1.980   1.556
 5270TIP3    H115774   3.341   1.964   1.635
 5270TIP3    H215775   3.332   1.972   1.484
 5271TIP3   OH215776   3.964   1.941   2.199
 5271TIP3    H115777   3.901   1.914   2.266
 5271TIP3    H215778   3.975   1.863   2.144
 5272TIP3   OH215779   6.847   4.070   0.886
 5272TIP3    H115780   6.814   4.080   0.797
 5272TIP3    H215781   6.781   4.017   0.931
 5273TIP3   OH215782   6.019   3.205   0.565
 5273TIP3    H115783   6.090   3.148   0.536
 5273TIP3    H215784   6.042   3.291   0.532
 5274TIP3   OH215785   0.950   4.626   4.003
 5274TIP3    H115786   0.969   4.699   4.061
 5274TIP3    H215787   1.007   4.640   3.927
 5275TIP3   OH215788   1.772   2.219   1.433
 5275TIP3    H115789   1.824   2.143   1.407
 5275TIP3    H215790   1.687   2.182   1.459
 5276TIP3   OH215791   4.935   3.911   0.510
 5276TIP3    H115792   4.867   3.886   0.447
 5276TIP3    H215793   4.967   3.827   0.545
 5277TIP3   OH215794   2.534   0.571   1.628
 5277TIP3    H115795   2.577   0.621   1.559
 5277TIP3    H215796   2.440   0.580   1.610
 5278TIP3   OH215797   1.925   3.629   5.077
 5278TIP3    H115798   1.869   3.706   5.071
 5278TIP3    H215799   2.012   3.661   5.054
 5279TIP3   OH215800   5.730   2.626   3.782
 5279TIP3    H115801   5.648   2.577   3.787
 5279TIP3    H215802   5.715   2.704   3.835
 5280TIP3   OH215803   4.139   2.809   2.783
 5280TIP3    H115804   4.135   2.750   2.858
 5280TIP3    H215805   4.129   2.896   2.821
 5281TIP3   OH215806   1.174   3.610   4.982
 5281TIP3    H115807   1.130   3.592   4.900
 5281TIP3    H215808   1.128   3.686   5.019
 5282TIP3   OH215809   4.504   5.791   1.584
 5282TIP3    H115810   4.584   5.739   1.575
 5282TIP3    H215811   4.521   5.848   1.659
 5283TIP3   OH215812   6.401   0.564   0.463
 5283TIP3    H115813   6.430   0.579   0.553
 5283TIP3    H215814   6.442   0.481   0.438
 5284TIP3   OH215815   5.369   1.443   5.835
 5284TIP3    H115816   5.322   1.434   5.918
 5284TIP3    H215817   5.319   1.390   5.773
 5285TIP3   OH215818   1.621   2.861   4.304
 5285TIP3    H115819   1.698   2.912   4.327
 5285TIP3    H215820   1.559   2.876   4.375
 5286TIP3   OH215821   1.243   6.682   0.592
 5286TIP3    H115822   1.265   6.625   0.518
 5286TIP3    H215823   1.275   6.769   0.566
 5287TIP3   OH215824   6.450   3.856   1.870
 5287TIP3    H115825   6.491   3.830   1.788
 5287TIP3    H215826   6.436   3.950   1.862
 5288TIP3   OH215827   2.767   3.687   3.042
 5288TIP3    H115828   2.672   3.693   3.057
 5288TIP3    H215829   2.802   3.767   3.079
 5289TIP3   OH215830   1.154   3.378   2.706
 5289TIP3    H115831   1.228   3.427   2.669
 5289TIP3    H215832   1.176   3.370   2.799
 5290TIP3   OH215833   1.499   0.466   5.208
 5290TIP3    H115834   1.500   0.526   5.133
 5290TIP3    H215835   1.463   0.385   5.173
 5291TIP3   OH215836   0.593   0.385   0.889
 5291TIP3    H115837   0.527   0.429   0.835
 5291TIP3    H215838   0.593   0.295   0.858
 5292TIP3   OH215839   1.260   6.704   5.256
 5292TIP3    H115840   1.213   6.759   5.193
 5292TIP3    H215841   1.346   6.689   5.216
 5293TIP3   OH215842   6.651   2.911   5.293
 5293TIP3    H115843   6.651   2.846   5.223
 5293TIP3    H215844   6.559   2.919   5.319
 5294TIP3   OH215845   6.182   3.819   2.097
 5294TIP3    H115846   6.259   3.836   2.152
 5294TIP3    H215847   6.177   3.895   2.040
 5295TIP3   OH215848   3.810   1.259   5.549
 5295TIP3    H115849   3.822   1.241   5.456
 5295TIP3    H215850   3.804   1.172   5.589
 5296TIP3   OH215851   7.038   2.635   3.379
 5296TIP3    H115852   6.949   2.622   3.345
 5296TIP3    H215853   7.094   2.601   3.309
 5297TIP3   OH215854   4.515   5.731   0.188
 5297TIP3    H115855   4.568   5.769   0.259
 5297TIP3    H215856   4.496   5.642   0.217
 5298TIP3   OH215857   1.634   5.403   3.890
 5298TIP3    H115858   1.665   5.469   3.829
 5298TIP3    H215859   1.609   5.328   3.836
 5299TIP3   OH215860   4.109   6.548   0.132
 5299TIP3    H115861   4.164   6.478   0.166
 5299TIP3    H215862   4.116   6.539   0.036
 5300TIP3   OH215863   0.837   6.532   1.906
 5300TIP3    H115864   0.847   6.551   1.999
 5300TIP3    H215865   0.793   6.609   1.871
 5301TIP3   OH215866   6.684   4.928   4.821
 5301TIP3    H115867   6.730   4.954   4.741
 5301TIP3    H215868   6.744   4.870   4.866
 5302TIP3   OH215869   4.644   5.753   3.109
 5302TIP3    H115870   4.577   5.792   3.166
 5302TIP3    H215871   4.661   5.820   3.043
 5303TIP3   OH215872   2.262   3.876   2.215
 5303TIP3    H115873   2.274   3.924   2.297
 5303TIP3    H215874   2.235   3.788   2.243
 5304TIP3   OH215875   6.279   3.595   1.252
 5304TIP3    H115876   6.326   3.620   1.332
 5304TIP3    H215877   6.319   3.648   1.183
 5305TIP3   OH215878   0.380   6.638   2.912
 5305TIP3    H115879   0.412   6.716   2.865
 5305TIP3    H215880   0.423   6.643   2.998
 5306TIP3   OH215881   5.877   5.331   3.962
 5306TIP3    H115882   5.849   5.247   3.926
 5306TIP3    H215883   5.843   5.332   4.051
 5307TIP3   OH215884   3.281   0.146   0.561
 5307TIP3    H115885   3.193   0.161   0.597
 5307TIP3    H215886   3.266   0.130   0.468
 5308TIP3   OH215887   4.389   0.873   5.733
 5308TIP3    H115888   4.380   0.787   5.694
 5308TIP3    H215889   4.457   0.916   5.682
 5309TIP3   OH215890   5.038   4.824   0.435
 5309TIP3    H115891   5.075   4.787   0.515
 5309TIP3    H215892   5.048   4.919   0.445
 5310TIP3   OH215893   6.088   6.320   3.358
 5310TIP3    H115894   6.002   6.342   3.321
 5310TIP3    H215895   6.129   6.264   3.293
 5311TIP3   OH215896   5.276   5.684   4.765
 5311TIP3    H115897   5.229   5.621   4.820
 5311TIP3    H215898   5.207   5.726   4.714
 5312TIP3   OH215899   1.142   1.800   4.532
 5312TIP3    H115900   1.174   1.750   4.457
 5312TIP3    H215901   1.219   1.811   4.587
 5313TIP3   OH215902   1.540   0.575   1.202
 5313TIP3    H115903   1.466   0.593   1.143
 5313TIP3    H215904   1.610   0.632   1.170
 5314TIP3   OH215905   6.607   5.790   5.685
 5314TIP3    H115906   6.682   5.849   5.673
 5314TIP3    H215907   6.562   5.791   5.601
 5315TIP3   OH215908   4.061   5.381   3.264
 5315TIP3    H115909   4.118   5.314   3.302
 5315TIP3    H215910   4.111   5.415   3.190
 5316TIP3   OH215911   3.740   5.929   5.514
 5316TIP3    H115912   3.754   5.958   5.604
 5316TIP3    H215913   3.653   5.889   5.514
 5317TIP3   OH215914   6.321   0.992   1.271
 5317TIP3    H115915   6.316   1.083   1.299
 5317TIP3    H215916   6.279   0.992   1.185
 5318TIP3   OH215917   1.513   4.116   4.977
 5318TIP3    H115918   1.538   4.189   5.032
 5318TIP3    H215919   1.506   4.042   5.037
 5319TIP3   OH215920   4.268   0.581   3.676
 5319TIP3    H115921   4.303   0.494   3.661
 5319TIP3    H215922   4.260   0.588   3.771
 5320TIP3   OH215923   1.863   4.956   3.800
 5320TIP3    H115924   1.864   4.896   3.725
 5320TIP3    H215925   1.790   4.926   3.854
 5321TIP3   OH215926   6.981   3.287   1.717
 5321TIP3    H115927   6.945   3.368   1.680
 5321TIP3    H215928   6.998   3.309   1.809
 5322TIP3   OH215929   1.004   0.613   1.429
 5322TIP3    H115930   1.091   0.607   1.467
 5322TIP3    H215931   0.956   0.539   1.466
 5323TIP3   OH215932   5.002   0.272   4.005
 5323TIP3    H115933   5.020   0.179   4.021
 5323TIP3    H215934   4.950   0.273   3.925
 5324TIP3   OH215935   0.672   3.410   0.633
 5324TIP3    H115936   0.766   3.410   0.649
 5324TIP3    H215937   0.646   3.318   0.637
 5325TIP3   OH215938   5.294   1.977   0.955
 5325TIP3    H115939   5.369   1.918   0.956
 5325TIP3    H215940   5.320   2.050   1.011
 5326TIP3   OH215941   3.718   5.872   1.236
 5326TIP3    H115942   3.649   5.895   1.174
 5326TIP3    H215943   3.789   5.935   1.217
 5327TIP3   OH215944   1.896   1.258   3.036
 5327TIP3    H115945   1.959   1.323   3.069
 5327TIP3    H215946   1.874   1.290   2.948
 5328TIP3   OH215947   3.910   0.725   0.190
 5328TIP3    H115948   3.972   0.669   0.142
 5328TIP3    H215949   3.927   0.705   0.282
 5329TIP3   OH215950   3.000   5.679   3.117
 5329TIP3    H115951   3.061   5.745   3.149
 5329TIP3    H215952   2.977   5.627   3.194
 5330TIP3   OH215953   5.020   4.839   5.530
 5330TIP3    H115954   5.007   4.744   5.523
 5330TIP3    H215955   5.046   4.853   5.622
 5331TIP3   OH215956   5.843   3.866   2.434
 5331TIP3    H115957   5.841   3.962   2.430
 5331TIP3    H215958   5.821   3.845   2.525
 5332TIP3   OH215959   2.037   4.135   3.314
 5332TIP3    H115960   2.066   4.210   3.365
 5332TIP3    H215961   2.052   4.060   3.371
 5333TIP3   OH215962   5.339   2.162   5.681
 5333TIP3    H115963   5.416   2.109   5.700
 5333TIP3    H215964   5.354   2.244   5.729
 5334TIP3   OH215965   0.660   4.736   4.366
 5334TIP3    H115966   0.672   4.667   4.301
 5334TIP3    H215967   0.573   4.720   4.402
 5335TIP3   OH215968   4.538   5.866   5.090
 5335TIP3    H115969   4.539   5.958   5.119
 5335TIP3    H215970   4.501   5.819   5.165
 5336TIP3   OH215971   2.926   4.265   2.419
 5336TIP3    H115972   2.866   4.234   2.351
 5336TIP3    H215973   3.006   4.215   2.406
 5337TIP3   OH215974   5.118   2.724   3.546
 5337TIP3    H115975   5.029   2.697   3.564
 5337TIP3    H215976   5.109   2.812   3.508
 5338TIP3   OH215977   0.735   3.568   5.174
 5338TIP3    H115978   0.654   3.547   5.220
 5338TIP3    H215979   0.803   3.560   5.241
 5339TIP3   OH215980   3.207   4.991   2.008
 5339TIP3    H115981   3.289   4.945   2.025
 5339TIP3    H215982   3.228   5.052   1.937
 5340TIP3   OH215983   4.309   4.395   5.263
 5340TIP3    H115984   4.236   4.383   5.323
 5340TIP3    H215985   4.272   4.381   5.176
 5341TIP3   OH215986   0.846   0.607   1.765
 5341TIP3    H115987   0.941   0.603   1.757
 5341TIP3    H215988   0.818   0.515   1.773
 5342TIP3   OH215989   6.946   6.235   5.734
 5342TIP3    H115990   6.991   6.258   5.816
 5342TIP3    H215991   6.884   6.306   5.720
 5343TIP3   OH215992   6.973   1.716   2.972
 5343TIP3    H115993   7.065   1.688   2.966
 5343TIP3    H215994   6.926   1.656   2.915
 5344TIP3   OH215995   4.212   4.905   2.884
 5344TIP3    H115996   4.233   4.973   2.821
 5344TIP3    H215997   4.288   4.899   2.941
 5345TIP3   OH215998   3.226   0.802   3.748
 5345TIP3    H115999   3.160   0.747   3.791
 5345TIP3    H216000   3.277   0.741   3.694
 5346TIP3   OH216001   2.257   5.454   5.552
 5346TIP3    H116002   2.203   5.416   5.483
 5346TIP3    H216003   2.200   5.458   5.628
 5347TIP3   OH216004   2.938   5.520   2.631
 5347TIP3    H116005   2.970   5.577   2.701
 5347TIP3    H216006   2.864   5.567   2.593
 5348TIP3   OH216007   2.043   0.783   1.139
 5348TIP3    H116008   2.134   0.760   1.159
 5348TIP3    H216009   2.049   0.837   1.060
 5349TIP3   OH216010   5.265   3.037   5.414
 5349TIP3    H116011   5.202   3.110   5.418
 5349TIP3    H216012   5.337   3.065   5.471
 5350TIP3   OH216013   0.745   4.545   0.865
 5350TIP3    H116014   0.654   4.517   0.852
 5350TIP3    H216015   0.739   4.613   0.933
 5351TIP3   OH216016   3.941   5.130   3.653
 5351TIP3    H116017   4.023   5.170   3.679
 5351TIP3    H216018   3.966   5.050   3.607
 5352TIP3   OH216019   4.032   6.454   4.791
 5352TIP3    H116020   4.127   6.444   4.782
 5352TIP3    H216021   4.020   6.491   4.878
 5353TIP3   OH216022   3.446   1.124   0.816
 5353TIP3    H116023   3.412   1.181   0.747
 5353TIP3    H216024   3.414   1.037   0.792
 5354TIP3   OH216025   1.256   6.367   1.040
 5354TIP3    H116026   1.241   6.358   1.134
 5354TIP3    H216027   1.289   6.457   1.029
 5355TIP3   OH216028   0.202   5.626   1.441
 5355TIP3    H116029   0.228   5.680   1.366
 5355TIP3    H216030   0.243   5.669   1.516
 5356TIP3   OH216031   2.238   5.564   1.937
 5356TIP3    H116032   2.157   5.600   1.974
 5356TIP3    H216033   2.308   5.603   1.990
 5357TIP3   OH216034   3.394   5.720   1.126
 5357TIP3    H116035   3.467   5.669   1.163
 5357TIP3    H216036   3.435   5.802   1.097
 5358TIP3   OH216037   2.081   5.734   1.589
 5358TIP3    H116038   2.095   5.815   1.541
 5358TIP3    H216039   2.161   5.722   1.640
 5359TIP3   OH216040   6.870   0.456   5.591
 5359TIP3    H116041   6.889   0.395   5.663
 5359TIP3    H216042   6.939   0.441   5.527
 5360TIP3   OH216043   4.200   4.506   1.641
 5360TIP3    H116044   4.130   4.570   1.628
 5360TIP3    H216045   4.250   4.541   1.715
 5361TIP3   OH216046   4.825   0.276   4.582
 5361TIP3    H116047   4.846   0.324   4.501
 5361TIP3    H216048   4.810   0.345   4.647
 5362TIP3   OH216049   0.601   4.625   1.677
 5362TIP3    H116050   0.660   4.620   1.752
 5362TIP3    H216051   0.613   4.541   1.632
 5363TIP3   OH216052   3.676   6.643   3.120
 5363TIP3    H116053   3.685   6.619   3.213
 5363TIP3    H216054   3.622   6.722   3.121
 5364TIP3   OH216055   1.069   5.555   1.227
 5364TIP3    H116056   1.133   5.534   1.295
 5364TIP3    H216057   1.087   5.647   1.205
 5365TIP3   OH216058   3.801   5.302   3.351
 5365TIP3    H116059   3.896   5.313   3.351
 5365TIP3    H216060   3.786   5.221   3.302
 5366TIP3   OH216061   1.223   1.989   4.277
 5366TIP3    H116062   1.170   2.022   4.349
 5366TIP3    H216063   1.312   2.017   4.297
 5367TIP3   OH216064   1.746   1.516   1.471
 5367TIP3    H116065   1.672   1.532   1.529
 5367TIP3    H216066   1.751   1.421   1.462
 5368TIP3   OH216067   0.527   3.511   1.502
 5368TIP3    H116068   0.558   3.512   1.411
 5368TIP3    H216069   0.601   3.543   1.553
 5369TIP3   OH216070   4.643   5.218   1.727
 5369TIP3    H116071   4.652   5.264   1.810
 5369TIP3    H216072   4.551   5.192   1.724
 5370TIP3   OH216073   6.970   1.582   0.373
 5370TIP3    H116074   6.977   1.677   0.384
 5370TIP3    H216075   6.948   1.549   0.459
 5371TIP3   OH216076   1.526   6.541   3.694
 5371TIP3    H116077   1.527   6.621   3.641
 5371TIP3    H216078   1.610   6.542   3.739
 5372TIP3   OH216079   3.542   6.463   4.286
 5372TIP3    H116080   3.465   6.502   4.328
 5372TIP3    H216081   3.516   6.455   4.194
 5373TIP3   OH216082   4.931   2.240   1.885
 5373TIP3    H116083   4.975   2.179   1.826
 5373TIP3    H216084   4.984   2.239   1.965
 5374TIP3   OH216085   0.661   3.133   4.993
 5374TIP3    H116086   0.620   3.059   5.038
 5374TIP3    H216087   0.588   3.187   4.963
 5375TIP3   OH216088   4.285   3.848   1.806
 5375TIP3    H116089   4.355   3.894   1.853
 5375TIP3    H216090   4.299   3.756   1.827
 5376TIP3   OH216091   7.242   3.106   3.962
 5376TIP3    H116092   7.177   3.150   4.017
 5376TIP3    H216093   7.212   3.015   3.959
 5377TIP3   OH216094   7.133   6.264   2.551
 5377TIP3    H116095   7.197   6.286   2.618
 5377TIP3    H216096   7.157   6.319   2.476
 5378TIP3   OH216097   4.184   6.542   2.481
 5378TIP3    H116098   4.137   6.503   2.554
 5378TIP3    H216099   4.275   6.550   2.511
 5379TIP3   OH216100   5.782   3.295   3.752
 5379TIP3    H116101   5.795   3.207   3.787
 5379TIP3    H216102   5.747   3.345   3.825
 5380TIP3   OH216103   0.068   1.589   1.762
 5380TIP3    H116104   0.113   1.662   1.805
 5380TIP3    H216105   0.104   1.511   1.805
 5381TIP3   OH216106   3.280   5.247   1.803
 5381TIP3    H116107   3.328   5.330   1.804
 5381TIP3    H216108   3.345   5.183   1.832
 5382TIP3   OH216109   6.214   1.531   2.804
 5382TIP3    H116110   6.289   1.478   2.778
 5382TIP3    H216111   6.137   1.484   2.771
 5383TIP3   OH216112   3.605   1.425   5.480
 5383TIP3    H116113   3.684   1.378   5.508
 5383TIP3    H216114   3.588   1.392   5.392
 5384TIP3   OH216115   6.299   3.792   5.289
 5384TIP3    H116116   6.360   3.828   5.354
 5384TIP3    H216117   6.297   3.857   5.219
 5385TIP3   OH216118   1.548   4.203   1.469
 5385TIP3    H116119   1.601   4.154   1.533
 5385TIP3    H216120   1.531   4.287   1.512
 5386TIP3   OH216121   4.826   3.289   2.401
 5386TIP3    H116122   4.819   3.346   2.325
 5386TIP3    H216123   4.896   3.329   2.454
 5387TIP3   OH216124   4.995   2.868   3.923
 5387TIP3    H116125   5.043   2.788   3.903
 5387TIP3    H216126   4.921   2.867   3.863
 5388TIP3   OH216127   7.143   3.136   3.157
 5388TIP3    H116128   7.181   3.083   3.227
 5388TIP3    H216129   7.194   3.114   3.079
 5389TIP3   OH216130   5.640   0.640   4.360
 5389TIP3    H116131   5.677   0.672   4.443
 5389TIP3    H216132   5.571   0.579   4.387
 5390TIP3   OH216133   1.992   3.291   4.710
 5390TIP3    H116134   2.082   3.323   4.720
 5390TIP3    H216135   1.970   3.308   4.618
 5391TIP3   OH216136   1.638   2.713   1.699
 5391TIP3    H116137   1.599   2.628   1.718
 5391TIP3    H216138   1.580   2.776   1.742
 5392TIP3   OH216139   3.349   3.514   3.222
 5392TIP3    H116140   3.395   3.430   3.220
 5392TIP3    H216141   3.417   3.580   3.210
 5393TIP3   OH216142   1.983   5.986   3.523
 5393TIP3    H116143   1.917   6.033   3.574
 5393TIP3    H216144   2.062   6.040   3.530
 5394TIP3   OH216145   2.893   2.605   3.872
 5394TIP3    H116146   2.938   2.631   3.952
 5394TIP3    H216147   2.956   2.550   3.826
 5395TIP3   OH216148   5.034   2.591   1.540
 5395TIP3    H116149   5.098   2.522   1.522
 5395TIP3    H216150   4.991   2.563   1.621
 5396TIP3   OH216151   2.553   1.136   1.230
 5396TIP3    H116152   2.552   1.160   1.322
 5396TIP3    H216153   2.461   1.124   1.206
 5397TIP3   OH216154   5.987   4.456   0.685
 5397TIP3    H116155   5.933   4.427   0.611
 5397TIP3    H216156   5.997   4.550   0.671
 5398TIP3   OH216157   5.179   0.761   0.228
 5398TIP3    H116158   5.101   0.816   0.230
 5398TIP3    H216159   5.148   0.676   0.196
 5399TIP3   OH216160   2.511   6.652   1.509
 5399TIP3    H116161   2.456   6.672   1.432
 5399TIP3    H216162   2.583   6.600   1.473
 5400TIP3   OH216163   4.271   2.798   3.298
 5400TIP3    H116164   4.340   2.739   3.327
 5400TIP3    H216165   4.236   2.757   3.219
 5401TIP3   OH216166   6.399   1.947   4.109
 5401TIP3    H116167   6.407   1.940   4.204
 5401TIP3    H216168   6.353   1.868   4.083
 5402TIP3   OH216169   2.714   6.092   3.877
 5402TIP3    H116170   2.742   6.094   3.786
 5402TIP3    H216171   2.774   6.032   3.920
 5403TIP3   OH216172   5.426   5.279   4.741
 5403TIP3    H116173   5.459   5.367   4.719
 5403TIP3    H216174   5.331   5.289   4.740
 5404TIP3   OH216175   0.373   0.323   0.395
 5404TIP3    H116176   0.367   0.263   0.320
 5404TIP3    H216177   0.327   0.277   0.466
 5405TIP3   OH216178   6.836   3.133   5.443
 5405TIP3    H116179   6.793   3.210   5.482
 5405TIP3    H216180   6.821   3.063   5.506
 5406TIP3   OH216181   3.839   5.618   1.858
 5406TIP3    H116182   3.760   5.592   1.904
 5406TIP3    H216183   3.886   5.536   1.844
 5407TIP3   OH216184   2.217   3.431   5.322
 5407TIP3    H116185   2.273   3.354   5.322
 5407TIP3    H216186   2.134   3.401   5.284
 5408TIP3   OH216187   3.833   1.087   2.436
 5408TIP3    H116188   3.881   1.164   2.466
 5408TIP3    H216189   3.852   1.082   2.343
 5409TIP3   OH216190   4.793   4.373   3.595
 5409TIP3    H116191   4.741   4.394   3.518
 5409TIP3    H216192   4.732   4.329   3.655
 5410TIP3   OH216193   3.119   4.354   0.350
 5410TIP3    H116194   3.047   4.305   0.311
 5410TIP3    H216195   3.088   4.375   0.438
 5411TIP3   OH216196   5.156   5.894   4.912
 5411TIP3    H116197   5.204   5.818   4.879
 5411TIP3    H216198   5.094   5.916   4.842
 5412TIP3   OH216199   2.551   3.102   4.360
 5412TIP3    H116200   2.616   3.069   4.423
 5412TIP3    H216201   2.480   3.038   4.363
 5413TIP3   OH216202   6.442   5.572   5.813
 5413TIP3    H116203   6.352   5.581   5.782
 5413TIP3    H216204   6.485   5.652   5.784
 5414TIP3   OH216205   3.657   2.691   4.211
 5414TIP3    H116206   3.717   2.765   4.215
 5414TIP3    H216207   3.574   2.729   4.180
 5415TIP3   OH216208   0.390   2.577   0.334
 5415TIP3    H116209   0.421   2.561   0.423
 5415TIP3    H216210   0.304   2.618   0.346
 5416TIP3   OH216211   0.608   3.144   0.737
 5416TIP3    H116212   0.609   3.145   0.832
 5416TIP3    H216213   0.563   3.062   0.715
 5417TIP3   OH216214   5.487   6.197   3.245
 5417TIP3    H116215   5.505   6.107   3.273
 5417TIP3    H216216   5.396   6.196   3.217
 5418TIP3   OH216217   3.240   3.937   3.022
 5418TIP3    H116218   3.311   3.917   2.960
 5418TIP3    H216219   3.186   4.001   2.976
 5419TIP3   OH216220   1.865   6.245   3.327
 5419TIP3    H116221   1.851   6.330   3.369
 5419TIP3    H216222   1.828   6.182   3.389
 5420TIP3   OH216223   5.095   3.272   2.846
 5420TIP3    H116224   5.165   3.209   2.829
 5420TIP3    H216225   5.123   3.320   2.923
 5421TIP3   OH216226   5.660   6.302   0.717
 5421TIP3    H116227   5.602   6.377   0.709
 5421TIP3    H216228   5.711   6.303   0.636
 5422TIP3   OH216229   6.960   2.767   5.313
 5422TIP3    H116230   7.046   2.752   5.352
 5422TIP3    H216231   6.976   2.771   5.219
 5423TIP3   OH216232   1.425   0.073   4.482
 5423TIP3    H116233   1.480  -0.004   4.496
 5423TIP3    H216234   1.338   0.037   4.461
 5424TIP3   OH216235   3.956   2.397   1.265
 5424TIP3    H116236   3.913   2.458   1.325
 5424TIP3    H216237   3.946   2.312   1.306
 5425TIP3   OH216238   2.874   1.949   4.782
 5425TIP3    H116239   2.947   2.010   4.769
 5425TIP3    H216240   2.907   1.886   4.846
 5426TIP3   OH216241   3.674   2.654   5.227
 5426TIP3    H116242   3.758   2.616   5.202
 5426TIP3    H216243   3.631   2.585   5.278
 5427TIP3   OH216244   4.095   1.447   1.416
 5427TIP3    H116245   4.174   1.394   1.411
 5427TIP3    H216246   4.092   1.478   1.506
 5428TIP3   OH216247   2.804   1.003   2.578
 5428TIP3    H116248   2.858   0.986   2.501
 5428TIP3    H216249   2.763   0.918   2.598
 5429TIP3   OH216250   6.289   2.050   2.968
 5429TIP3    H116251   6.295   1.967   2.921
 5429TIP3    H216252   6.263   2.025   3.057
 5430TIP3   OH216253   6.537   4.451   3.611
 5430TIP3    H116254   6.613   4.509   3.615
 5430TIP3    H216255   6.462   4.508   3.625
 5431TIP3   OH216256   0.727   4.441   1.255
 5431TIP3    H116257   0.660   4.510   1.255
 5431TIP3    H216258   0.688   4.371   1.203
 5432TIP3   OH216259   2.924   2.244   3.274
 5432TIP3    H116260   2.874   2.281   3.202
 5432TIP3    H216261   2.959   2.320   3.321
 5433TIP3   OH216262   1.254   1.021   5.423
 5433TIP3    H116263   1.227   0.964   5.496
 5433TIP3    H216264   1.345   0.997   5.406
 5434TIP3   OH216265   4.131   5.895   3.295
 5434TIP3    H116266   4.146   5.810   3.336
 5434TIP3    H216267   4.043   5.889   3.259
 5435TIP3   OH216268   5.787   5.449   4.481
 5435TIP3    H116269   5.829   5.381   4.429
 5435TIP3    H216270   5.841   5.456   4.560
 5436TIP3   OH216271   6.624   1.983   0.146
 5436TIP3    H116272   6.642   1.906   0.092
 5436TIP3    H216273   6.585   2.046   0.087
 5437TIP3   OH216274   4.398   1.166   3.043
 5437TIP3    H116275   4.464   1.111   3.085
 5437TIP3    H216276   4.314   1.134   3.077
 5438TIP3   OH216277   4.343   3.056   1.455
 5438TIP3    H116278   4.315   2.965   1.443
 5438TIP3    H216279   4.345   3.068   1.550
 5439TIP3   OH216280   2.297   2.877   3.742
 5439TIP3    H116281   2.365   2.811   3.752
 5439TIP3    H216282   2.279   2.879   3.648
 5440TIP3   OH216283   5.531   2.575   1.288
 5440TIP3    H116284   5.460   2.606   1.231
 5440TIP3    H216285   5.586   2.522   1.231
 5441TIP3   OH216286   4.338   6.303   0.751
 5441TIP3    H116287   4.372   6.392   0.753
 5441TIP3    H216288   4.385   6.257   0.821
 5442TIP3   OH216289   1.975   3.952   3.072
 5442TIP3    H116290   1.938   4.034   3.042
 5442TIP3    H216291   2.002   3.969   3.162
 5443TIP3   OH216292  -0.016   6.493   4.615
 5443TIP3    H116293   0.073   6.503   4.581
 5443TIP3    H216294  -0.017   6.407   4.656
 5444TIP3   OH216295   4.748   3.436   1.073
 5444TIP3    H116296   4.770   3.474   1.158
 5444TIP3    H216297   4.705   3.507   1.025
 5445TIP3   OH216298   5.324   2.158   1.168
 5445TIP3    H116299   5.238   2.160   1.209
 5445TIP3    H216300   5.377   2.102   1.226
 5446TIP3   OH216301   0.215   2.669   1.974
 5446TIP3    H116302   0.176   2.665   2.062
 5446TIP3    H216303   0.143   2.649   1.915
 5447TIP3   OH216304   2.718   5.351   3.328
 5447TIP3    H116305   2.627   5.376   3.345
 5447TIP3    H216306   2.740   5.291   3.399
 5448TIP3   OH216307   0.137   0.978   5.083
 5448TIP3    H116308   0.088   0.962   5.003
 5448TIP3    H216309   0.216   0.925   5.075
 5449TIP3   OH216310   2.368   0.924   1.371
 5449TIP3    H116311   2.345   0.954   1.283
 5449TIP3    H216312   2.322   0.840   1.380
 5450TIP3   OH216313   1.736   2.104   3.960
 5450TIP3    H116314   1.696   2.166   4.021
 5450TIP3    H216315   1.805   2.061   4.011
 5451TIP3   OH216316   5.910   5.955   4.854
 5451TIP3    H116317   5.831   5.988   4.898
 5451TIP3    H216318   5.935   5.878   4.905
 5452TIP3   OH216319   0.755   1.712   3.402
 5452TIP3    H116320   0.846   1.680   3.401
 5452TIP3    H216321   0.703   1.634   3.381
 5453TIP3   OH216322   3.859   2.271   4.279
 5453TIP3    H116323   3.790   2.335   4.265
 5453TIP3    H216324   3.861   2.257   4.373
 5454TIP3   OH216325   3.341   6.085   1.680
 5454TIP3    H116326   3.434   6.103   1.670
 5454TIP3    H216327   3.329   6.072   1.774
 5455TIP3   OH216328   5.740   5.125   5.878
 5455TIP3    H116329   5.730   5.219   5.860
 5455TIP3    H216330   5.695   5.082   5.805
 5456TIP3   OH216331   1.499   5.810   3.936
 5456TIP3    H116332   1.438   5.814   4.009
 5456TIP3    H216333   1.584   5.833   3.974
 5457TIP3   OH216334   5.007   4.199   1.161
 5457TIP3    H116335   5.028   4.286   1.197
 5457TIP3    H216336   4.932   4.215   1.104
 5458TIP3   OH216337   1.722   6.541   0.128
 5458TIP3    H116338   1.647   6.600   0.122
 5458TIP3    H216339   1.695   6.463   0.080
 5459TIP3   OH216340   2.235   3.765   0.223
 5459TIP3    H116341   2.234   3.841   0.166
 5459TIP3    H216342   2.327   3.755   0.247
 5460TIP3   OH216343   4.972   5.158   4.822
 5460TIP3    H116344   4.906   5.218   4.857
 5460TIP3    H216345   4.964   5.166   4.727
 5461TIP3   OH216346   3.966   1.732   5.515
 5461TIP3    H116347   3.930   1.821   5.524
 5461TIP3    H216348   4.059   1.741   5.536
 5462TIP3   OH216349   1.925   6.030   1.850
 5462TIP3    H116350   1.936   5.962   1.783
 5462TIP3    H216351   1.954   5.989   1.931
 5463TIP3   OH216352   4.369   3.476   5.680
 5463TIP3    H116353   4.437   3.447   5.740
 5463TIP3    H216354   4.356   3.402   5.621
 5464TIP3   OH216355   0.499   5.550   0.817
 5464TIP3    H116356   0.404   5.548   0.830
 5464TIP3    H216357   0.510   5.581   0.727
 5465TIP3   OH216358   2.329   0.954   4.306
 5465TIP3    H116359   2.351   0.867   4.338
 5465TIP3    H216360   2.264   0.987   4.368
 5466TIP3   OH216361   1.476   1.309   3.737
 5466TIP3    H116362   1.393   1.345   3.705
 5466TIP3    H216363   1.535   1.314   3.661
 5467TIP3   OH216364   1.210   5.057   1.078
 5467TIP3    H116365   1.175   5.017   1.158
 5467TIP3    H216366   1.268   5.126   1.109
 5468TIP3   OH216367   5.543   6.545   2.919
 5468TIP3    H116368   5.559   6.456   2.952
 5468TIP3    H216369   5.630   6.577   2.895
 5469TIP3   OH216370   4.838   4.976   5.851
 5469TIP3    H116371   4.835   4.947   5.942
 5469TIP3    H216372   4.930   4.969   5.826
 5470TIP3   OH216373   3.035   2.663   1.746
 5470TIP3    H116374   2.944   2.641   1.768
 5470TIP3    H216375   3.052   2.614   1.665
 5471TIP3   OH216376   2.897   5.699   2.858
 5471TIP3    H116377   2.961   5.762   2.824
 5471TIP3    H216378   2.909   5.702   2.953
 5472TIP3   OH216379   3.203   6.301   4.182
 5472TIP3    H116380   3.263   6.324   4.111
 5472TIP3    H216381   3.119   6.341   4.157
 5473TIP3   OH216382   6.366   5.133   2.478
 5473TIP3    H116383   6.363   5.192   2.403
 5473TIP3    H216384   6.458   5.134   2.505
 5474TIP3   OH216385   0.510   6.602   1.939
 5474TIP3    H116386   0.580   6.668   1.939
 5474TIP3    H216387   0.441   6.641   1.886
 5475TIP3   OH216388   3.287   0.834   1.023
 5475TIP3    H116389   3.247   0.762   1.071
 5475TIP3    H216390   3.332   0.886   1.091
 5476TIP3   OH216391   2.547   0.458   1.149
 5476TIP3    H116392   2.640   0.454   1.167
 5476TIP3    H216393   2.505   0.435   1.232
 5477TIP3   OH216394   3.589   5.520   1.167
 5477TIP3    H116395   3.641   5.473   1.102
 5477TIP3    H216396   3.650   5.541   1.237
 5478TIP3   OH216397   4.827   0.771   2.852
 5478TIP3    H116398   4.888   0.811   2.914
 5478TIP3    H216399   4.878   0.760   2.772
 5479TIP3   OH216400   2.429   1.109   1.672
 5479TIP3    H116401   2.491   1.037   1.665
 5479TIP3    H216402   2.428   1.149   1.585
 5480TIP3   OH216403   4.957   4.107   2.839
 5480TIP3    H116404   4.994   4.178   2.892
 5480TIP3    H216405   5.015   4.103   2.763
 5481TIP3   OH216406   3.149   6.743   5.686
 5481TIP3    H116407   3.083   6.754   5.754
 5481TIP3    H216408   3.177   6.652   5.695
 5482TIP3   OH216409   2.854   5.325   5.340
 5482TIP3    H116410   2.943   5.290   5.353
 5482TIP3    H216411   2.833   5.366   5.424
 5483TIP3   OH216412   4.377   5.541   4.716
 5483TIP3    H116413   4.378   5.464   4.659
 5483TIP3    H216414   4.288   5.542   4.752
 5484TIP3   OH216415   7.106   3.069   2.773
 5484TIP3    H116416   7.037   3.020   2.819
 5484TIP3    H216417   7.078   3.069   2.682
 5485TIP3   OH216418   0.100   6.073   0.981
 5485TIP3    H116419   0.106   6.126   1.060
 5485TIP3    H216420   0.037   6.119   0.926
 5486TIP3   OH216421   6.380   4.304   5.176
 5486TIP3    H116422   6.420   4.375   5.127
 5486TIP3    H216423   6.285   4.319   5.168
 5487TIP3   OH216424   6.313   1.915   3.194
 5487TIP3    H116425   6.339   1.840   3.140
 5487TIP3    H216426   6.338   1.891   3.283
 5488TIP3   OH216427   4.598   0.756   0.138
 5488TIP3    H116428   4.630   0.807   0.064
 5488TIP3    H216429   4.515   0.719   0.108
 5489TIP3   OH216430   5.084   4.240   3.844
 5489TIP3    H116431   5.150   4.308   3.830
 5489TIP3    H216432   5.042   4.263   3.926
 5490TIP3   OH216433   3.013   2.904   3.402
 5490TIP3    H116434   2.974   2.952   3.329
 5490TIP3    H216435   2.977   2.816   3.394
 5491TIP3   OH216436   1.277   4.670   2.989
 5491TIP3    H116437   1.341   4.651   2.921
 5491TIP3    H216438   1.311   4.624   3.066
 5492TIP3   OH216439   6.418   4.751   3.481
 5492TIP3    H116440   6.350   4.692   3.514
 5492TIP3    H216441   6.377   4.798   3.409
 5493TIP3   OH216442   3.875   4.604   3.060
 5493TIP3    H116443   3.902   4.578   3.148
 5493TIP3    H216444   3.951   4.583   3.005
 5494TIP3   OH216445   6.142   2.431   0.035
 5494TIP3    H116446   6.053   2.405   0.011
 5494TIP3    H216447   6.130   2.485   0.113
 5495TIP3   OH216448   0.792   4.730   2.278
 5495TIP3    H116449   0.711   4.715   2.231
 5495TIP3    H216450   0.860   4.693   2.222
 5496TIP3   OH216451   5.656   6.070   4.962
 5496TIP3    H116452   5.687   6.146   5.011
 5496TIP3    H216453   5.606   6.020   5.025
 5497TIP3   OH216454   4.283   3.784   4.495
 5497TIP3    H116455   4.241   3.857   4.449
 5497TIP3    H216456   4.214   3.718   4.502
 5498TIP3   OH216457   4.415   1.408   3.911
 5498TIP3    H116458   4.407   1.485   3.968
 5498TIP3    H216459   4.325   1.385   3.888
 5499TIP3   OH216460   3.003   4.269   5.417
 5499TIP3    H116461   2.928   4.220   5.384
 5499TIP3    H216462   2.986   4.359   5.392
 5500TIP3   OH216463   1.745   0.834   5.307
 5500TIP3    H116464   1.759   0.929   5.308
 5500TIP3    H216465   1.724   0.814   5.216
 5501TIP3   OH216466   4.256   3.130   5.553
 5501TIP3    H116467   4.223   3.220   5.546
 5501TIP3    H216468   4.180   3.075   5.532
 5502TIP3   OH216469   3.471   6.500   4.817
 5502TIP3    H116470   3.471   6.408   4.791
 5502TIP3    H216471   3.551   6.536   4.781
 5503TIP3   OH216472   3.917   0.684   3.194
 5503TIP3    H116473   4.003   0.713   3.164
 5503TIP3    H216474   3.927   0.591   3.213
 5504TIP3   OH216475   5.035   5.277   0.840
 5504TIP3    H116476   5.120   5.272   0.883
 5504TIP3    H216477   5.045   5.221   0.762
 5505TIP3   OH216478   0.726   4.532   2.964
 5505TIP3    H116479   0.712   4.563   2.875
 5505TIP3    H216480   0.719   4.437   2.957
 5506TIP3   OH216481   2.266   3.277   3.333
 5506TIP3    H116482   2.301   3.193   3.303
 5506TIP3    H216483   2.221   3.313   3.257
 5507TIP3   OH216484   0.562   3.030   4.016
 5507TIP3    H116485   0.467   3.031   4.027
 5507TIP3    H216486   0.596   3.026   4.106
 5508TIP3   OH216487   2.180   6.623   3.561
 5508TIP3    H116488   2.161   6.628   3.467
 5508TIP3    H216489   2.117   6.682   3.602
 5509TIP3   OH216490   5.136   5.780   3.389
 5509TIP3    H116491   5.185   5.715   3.338
 5509TIP3    H216492   5.197   5.808   3.457
 5510TIP3   OH216493   0.632   3.239   1.542
 5510TIP3    H116494   0.582   3.185   1.480
 5510TIP3    H216495   0.616   3.329   1.513
 5511TIP3   OH216496   0.067   5.639   2.755
 5511TIP3    H116497   0.101   5.566   2.704
 5511TIP3    H216498   0.101   5.717   2.711
 5512TIP3   OH216499   6.758   0.022   0.735
 5512TIP3    H116500   6.727  -0.016   0.653
 5512TIP3    H216501   6.832  -0.034   0.761
 5513TIP3   OH216502   0.001   6.020   5.329
 5513TIP3    H116503   0.051   5.960   5.274
 5513TIP3    H216504  -0.086   6.020   5.289
 5514TIP3   OH216505   5.391   2.563   4.674
 5514TIP3    H116506   5.429   2.506   4.741
 5514TIP3    H216507   5.424   2.650   4.695
 5515TIP3   OH216508   4.065   2.948   2.552
 5515TIP3    H116509   4.053   3.020   2.614
 5515TIP3    H216510   4.095   2.875   2.606
 5516TIP3   OH216511   4.056   5.518   2.295
 5516TIP3    H116512   3.984   5.581   2.291
 5516TIP3    H216513   4.020   5.442   2.341
 5517TIP3   OH216514   0.495   4.109   2.129
 5517TIP3    H116515   0.404   4.082   2.113
 5517TIP3    H216516   0.545   4.028   2.119
 5518TIP3   OH216517   1.245   5.641   1.895
 5518TIP3    H116518   1.206   5.677   1.975
 5518TIP3    H216519   1.171   5.609   1.844
 5519TIP3   OH216520   1.506   5.272   0.861
 5519TIP3    H116521   1.450   5.287   0.937
 5519TIP3    H216522   1.594   5.291   0.892
 5520TIP3   OH216523   6.761   6.214   0.852
 5520TIP3    H116524   6.815   6.153   0.901
 5520TIP3    H216525   6.711   6.159   0.791
 5521TIP3   OH216526   2.248   5.444   1.678
 5521TIP3    H116527   2.255   5.532   1.716
 5521TIP3    H216528   2.157   5.439   1.647
 5522TIP3   OH216529   1.209   0.756   4.060
 5522TIP3    H116530   1.120   0.735   4.089
 5522TIP3    H216531   1.225   0.697   3.986
 5523TIP3   OH216532   6.870   5.058   3.182
 5523TIP3    H116533   6.853   4.999   3.109
 5523TIP3    H216534   6.849   5.145   3.148
 5524TIP3   OH216535   3.092   5.508   0.281
 5524TIP3    H116536   3.003   5.534   0.307
 5524TIP3    H216537   3.102   5.420   0.318
 5525TIP3   OH216538   1.474   5.148   1.458
 5525TIP3    H116539   1.421   5.069   1.450
 5525TIP3    H216540   1.564   5.118   1.450
 5526TIP3   OH216541   3.345   1.584   4.208
 5526TIP3    H116542   3.300   1.620   4.131
 5526TIP3    H216543   3.344   1.656   4.271
 5527TIP3   OH216544   2.739   3.997   4.727
 5527TIP3    H116545   2.650   4.031   4.727
 5527TIP3    H216546   2.751   3.962   4.815
 5528TIP3   OH216547   1.867   2.960   0.033
 5528TIP3    H116548   1.815   2.958   0.113
 5528TIP3    H216549   1.895   3.052   0.025
 5529TIP3   OH216550   4.556   3.588   5.014
 5529TIP3    H116551   4.625   3.544   4.964
 5529TIP3    H216552   4.588   3.678   5.025
 5530TIP3   OH216553   3.230   3.560   5.432
 5530TIP3    H116554   3.187   3.474   5.426
 5530TIP3    H216555   3.321   3.539   5.453
 5531TIP3   OH216556   1.217   5.131   4.940
 5531TIP3    H116557   1.162   5.055   4.924
 5531TIP3    H216558   1.252   5.155   4.854
 5532TIP3   OH216559   5.779   2.299   0.650
 5532TIP3    H116560   5.845   2.335   0.591
 5532TIP3    H216561   5.701   2.351   0.633
 5533TIP3   OH216562   5.601   4.685   1.145
 5533TIP3    H116563   5.696   4.681   1.135
 5533TIP3    H216564   5.568   4.618   1.086
 5534TIP3   OH216565   2.025   4.007   1.008
 5534TIP3    H116566   1.971   4.034   0.934
 5534TIP3    H216567   2.103   3.969   0.969
 5535TIP3   OH216568   6.517   1.722   2.737
 5535TIP3    H116569   6.482   1.742   2.651
 5535TIP3    H216570   6.562   1.802   2.765
 5536TIP3   OH216571   7.073   1.124   4.891
 5536TIP3    H116572   7.145   1.077   4.849
 5536TIP3    H216573   7.072   1.210   4.850
 5537TIP3   OH216574   3.963   2.172   1.422
 5537TIP3    H116575   3.964   2.218   1.507
 5537TIP3    H216576   3.951   2.080   1.445
 5538TIP3   OH216577   1.556   5.282   3.524
 5538TIP3    H116578   1.530   5.234   3.445
 5538TIP3    H216579   1.526   5.227   3.596
 5539TIP3   OH216580   2.257   6.495   1.892
 5539TIP3    H116581   2.264   6.399   1.886
 5539TIP3    H216582   2.325   6.528   1.834
 5540TIP3   OH216583   4.071   1.835   3.236
 5540TIP3    H116584   4.165   1.823   3.227
 5540TIP3    H216585   4.062   1.910   3.295
 5541TIP3   OH216586   0.216   3.154   2.708
 5541TIP3    H116587   0.162   3.145   2.787
 5541TIP3    H216588   0.158   3.128   2.636
 5542TIP3   OH216589   7.057   4.686   0.388
 5542TIP3    H116590   7.005   4.766   0.377
 5542TIP3    H216591   7.032   4.631   0.314
 5543TIP3   OH216592   6.484   3.100   0.543
 5543TIP3    H116593   6.555   3.072   0.485
 5543TIP3    H216594   6.522   3.095   0.631
 5544TIP3   OH216595   2.046   1.196   1.896
 5544TIP3    H116596   2.000   1.277   1.874
 5544TIP3    H216597   2.038   1.190   1.992
 5545TIP3   OH216598   6.070   4.327   5.187
 5545TIP3    H116599   5.997   4.268   5.204
 5545TIP3    H216600   6.059   4.398   5.249
 5546TIP3   OH216601   7.140   4.551   2.108
 5546TIP3    H116602   7.095   4.615   2.052
 5546TIP3    H216603   7.070   4.493   2.138
 5547TIP3   OH216604   4.131   0.899   0.088
 5547TIP3    H116605   4.133   0.843   0.010
 5547TIP3    H216606   4.069   0.857   0.147
 5548TIP3   OH216607   6.016   5.436   1.920
 5548TIP3    H116608   5.997   5.346   1.947
 5548TIP3    H216609   6.104   5.432   1.883
 5549TIP3   OH216610   6.807   5.994   4.605
 5549TIP3    H116611   6.713   6.005   4.590
 5549TIP3    H216612   6.835   5.933   4.537
 5550TIP3   OH216613   0.908   0.371   2.543
 5550TIP3    H116614   0.852   0.299   2.572
 5550TIP3    H216615   0.852   0.423   2.485
 5551TIP3   OH216616   3.945   2.495   5.679
 5551TIP3    H116617   3.930   2.492   5.584
 5551TIP3    H216618   3.955   2.403   5.704
 5552TIP3   OH216619   3.822   5.448   2.718
 5552TIP3    H116620   3.867   5.509   2.660
 5552TIP3    H216621   3.741   5.492   2.743
 5553TIP3   OH216622   5.938   3.352   2.018
 5553TIP3    H116623   5.967   3.441   1.998
 5553TIP3    H216624   5.969   3.336   2.107
 5554TIP3   OH216625   1.765   1.292   5.469
 5554TIP3    H116626   1.681   1.327   5.499
 5554TIP3    H216627   1.812   1.368   5.437
 5555TIP3   OH216628   6.748   0.330   5.292
 5555TIP3    H116629   6.808   0.393   5.251
 5555TIP3    H216630   6.662   0.355   5.259
 5556TIP3   OH216631   5.133   6.786   5.018
 5556TIP3    H116632   5.150   6.699   5.055
 5556TIP3    H216633   5.120   6.842   5.093
 5557TIP3   OH216634   6.424   2.700   0.968
 5557TIP3    H116635   6.427   2.793   0.990
 5557TIP3    H216636   6.340   2.670   1.002
 5558TIP3   OH216637   6.714  -0.056   3.179
 5558TIP3    H116638   6.798  -0.038   3.223
 5558TIP3    H216639   6.650  -0.004   3.228
 5559TIP3   OH216640   2.496   2.040   5.698
 5559TIP3    H116641   2.439   2.098   5.647
 5559TIP3    H216642   2.476   2.062   5.789
 5560TIP3   OH216643   5.877   2.783   4.125
 5560TIP3    H116644   5.807   2.823   4.176
 5560TIP3    H216645   5.850   2.693   4.113
 5561TIP3   OH216646   5.508   3.944   5.387
 5561TIP3    H116647   5.557   4.011   5.433
 5561TIP3    H216648   5.475   3.887   5.456
 5562TIP3   OH216649   5.687   3.412   0.801
 5562TIP3    H116650   5.679   3.499   0.841
 5562TIP3    H216651   5.748   3.424   0.729
 5563TIP3   OH216652   0.377   0.303   3.220
 5563TIP3    H116653   0.464   0.263   3.227
 5563TIP3    H216654   0.322   0.233   3.185
 5564TIP3   OH216655   3.063   6.131   2.195
 5564TIP3    H116656   3.083   6.077   2.271
 5564TIP3    H216657   3.135   6.116   2.135
 5565TIP3   OH216658   6.950   1.705   2.524
 5565TIP3    H116659   6.894   1.632   2.549
 5565TIP3    H216660   7.038   1.679   2.551
 5566TIP3   OH216661   1.314   5.472   0.017
 5566TIP3    H116662   1.335   5.423  -0.063
 5566TIP3    H216663   1.388   5.530   0.030
 5567TIP3   OH216664   6.931   5.944   3.969
 5567TIP3    H116665   7.005   5.887   3.949
 5567TIP3    H216666   6.960   5.997   4.043
 5568TIP3   OH216667   1.188   5.955   3.816
 5568TIP3    H116668   1.200   5.974   3.723
 5568TIP3    H216669   1.183   5.860   3.820
 5569TIP3   OH216670   3.734   1.552   4.047
 5569TIP3    H116671   3.703   1.496   4.119
 5569TIP3    H216672   3.719   1.501   3.968
 5570TIP3   OH216673   7.213   6.109   4.917
 5570TIP3    H116674   7.153   6.182   4.932
 5570TIP3    H216675   7.165   6.051   4.857
 5571TIP3   OH216676   6.301   3.740   5.741
 5571TIP3    H116677   6.351   3.785   5.673
 5571TIP3    H216678   6.353   3.662   5.761
 5572TIP3   OH216679   0.616   5.265   0.800
 5572TIP3    H116680   0.576   5.352   0.806
 5572TIP3    H216681   0.555   5.208   0.847
 5573TIP3   OH216682   1.866   6.167   0.272
 5573TIP3    H116683   1.872   6.262   0.268
 5573TIP3    H216684   1.946   6.137   0.228
 5574TIP3   OH216685   3.226   2.358   5.135
 5574TIP3    H116686   3.143   2.406   5.125
 5574TIP3    H216687   3.240   2.318   5.049
 5575TIP3   OH216688   1.782  -0.013   3.574
 5575TIP3    H116689   1.852  -0.056   3.525
 5575TIP3    H216690   1.738   0.043   3.509
 5576TIP3   OH216691   6.708   6.456   1.993
 5576TIP3    H116692   6.637   6.503   2.036
 5576TIP3    H216693   6.787   6.487   2.036
 5577TIP3   OH216694   2.802   1.488   2.128
 5577TIP3    H116695   2.726   1.546   2.132
 5577TIP3    H216696   2.768   1.403   2.156
 5578TIP3   OH216697   1.242   3.616   0.384
 5578TIP3    H116698   1.334   3.642   0.377
 5578TIP3    H216699   1.222   3.626   0.478
 5579TIP3   OH216700   3.593   2.682   0.565
 5579TIP3    H116701   3.565   2.670   0.475
 5579TIP3    H216702   3.588   2.595   0.604
 5580TIP3   OH216703   3.168   6.694   0.293
 5580TIP3    H116704   3.075   6.711   0.275
 5580TIP3    H216705   3.197   6.640   0.220
 5581TIP3   OH216706   6.258   5.496   2.157
 5581TIP3    H116707   6.240   5.473   2.066
 5581TIP3    H216708   6.247   5.591   2.161
 5582TIP3   OH216709   6.778   3.046   1.675
 5582TIP3    H116710   6.754   3.133   1.643
 5582TIP3    H216711   6.739   2.986   1.612
 5583TIP3   OH216712   1.678   5.133   4.503
 5583TIP3    H116713   1.750   5.124   4.441
 5583TIP3    H216714   1.711   5.192   4.570
 5584TIP3   OH216715   5.292   6.826   5.513
 5584TIP3    H116716   5.295   6.738   5.476
 5584TIP3    H216717   5.216   6.825   5.571
 5585TIP3   OH216718   4.545   2.235   4.443
 5585TIP3    H116719   4.615   2.220   4.507
 5585TIP3    H216720   4.585   2.291   4.376
 5586TIP3   OH216721   2.031   3.820   0.643
 5586TIP3    H116722   2.008   3.904   0.684
 5586TIP3    H216723   2.034   3.839   0.549
 5587TIP3   OH216724   3.016   3.403   2.120
 5587TIP3    H116725   2.955   3.333   2.143
 5587TIP3    H216726   2.986   3.434   2.034
 5588TIP3   OH216727   4.447   2.037   0.612
 5588TIP3    H116728   4.396   2.075   0.683
 5588TIP3    H216729   4.519   2.098   0.599
 5589TIP3   OH216730   2.958   3.922   2.973
 5589TIP3    H116731   3.020   3.885   3.037
 5589TIP3    H216732   2.947   4.013   3.001
 5590TIP3   OH216733   5.695   2.205   0.104
 5590TIP3    H116734   5.626   2.256   0.146
 5590TIP3    H216735   5.665   2.115   0.109
 5591TIP3   OH216736   3.639   6.357   1.001
 5591TIP3    H116737   3.590   6.320   1.075
 5591TIP3    H216738   3.698   6.286   0.973
 5592TIP3   OH216739   3.291   0.702   3.028
 5592TIP3    H116740   3.289   0.636   3.097
 5592TIP3    H216741   3.312   0.783   3.073
 5593TIP3   OH216742   1.581   2.816   3.760
 5593TIP3    H116743   1.545   2.812   3.849
 5593TIP3    H216744   1.523   2.762   3.707
 5594TIP3   OH216745   5.411   6.284   4.918
 5594TIP3    H116746   5.361   6.225   4.975
 5594TIP3    H216747   5.477   6.323   4.976
 5595TIP3   OH216748   2.155   5.338   1.270
 5595TIP3    H116749   2.231   5.394   1.281
 5595TIP3    H216750   2.153   5.284   1.349
 5596TIP3   OH216751   1.872   2.045   0.108
 5596TIP3    H116752   1.890   2.128   0.065
 5596TIP3    H216753   1.952   2.027   0.159
 5597TIP3   OH216754   3.606   3.709   0.593
 5597TIP3    H116755   3.526   3.707   0.540
 5597TIP3    H216756   3.577   3.745   0.677
 5598TIP3   OH216757   1.945   3.087   4.921
 5598TIP3    H116758   1.904   3.149   4.981
 5598TIP3    H216759   1.982   3.141   4.851
 5599TIP3   OH216760   3.478   2.131   1.294
 5599TIP3    H116761   3.501   2.190   1.366
 5599TIP3    H216762   3.529   2.052   1.310
 5600TIP3   OH216763   4.532   6.313   0.943
 5600TIP3    H116764   4.625   6.331   0.951
 5600TIP3    H216765   4.497   6.329   1.031
 5601TIP3   OH216766   1.728   0.707   1.065
 5601TIP3    H116767   1.820   0.686   1.078
 5601TIP3    H216768   1.727   0.801   1.044
 5602TIP3   OH216769   3.906   0.010   3.665
 5602TIP3    H116770   3.848   0.083   3.644
 5602TIP3    H216771   3.990   0.051   3.685
 5603TIP3   OH216772   1.434   2.669   3.578
 5603TIP3    H116773   1.355   2.616   3.561
 5603TIP3    H216774   1.506   2.612   3.552
 5604TIP3   OH216775   4.853   3.676   5.266
 5604TIP3    H116776   4.835   3.585   5.289
 5604TIP3    H216777   4.778   3.724   5.300
 5605TIP3   OH216778   0.532   2.265   4.600
 5605TIP3    H116779   0.519   2.170   4.605
 5605TIP3    H216780   0.535   2.293   4.692
 5606TIP3   OH216781   1.766   1.896   0.946
 5606TIP3    H116782   1.764   1.801   0.934
 5606TIP3    H216783   1.724   1.910   1.031
 5607TIP3   OH216784   2.563   1.299   0.835
 5607TIP3    H116785   2.621   1.318   0.909
 5607TIP3    H216786   2.512   1.379   0.823
 5608TIP3   OH216787   1.387   0.341   0.204
 5608TIP3    H116788   1.401   0.262   0.153
 5608TIP3    H216789   1.303   0.375   0.173
 5609TIP3   OH216790   6.802   2.070   5.349
 5609TIP3    H116791   6.727   2.040   5.298
 5609TIP3    H216792   6.873   2.011   5.324
 5610TIP3   OH216793   3.033   0.341   4.073
 5610TIP3    H116794   2.973   0.413   4.095
 5610TIP3    H216795   2.985   0.262   4.097
 5611TIP3   OH216796   0.606   3.333   3.232
 5611TIP3    H116797   0.596   3.361   3.141
 5611TIP3    H216798   0.626   3.240   3.227
 5612TIP3   OH216799   3.503   5.963   1.041
 5612TIP3    H116800   3.435   6.027   1.022
 5612TIP3    H216801   3.580   5.994   0.993
 5613TIP3   OH216802   0.510   0.289   0.101
 5613TIP3    H116803   0.603   0.265   0.097
 5613TIP3    H216804   0.463   0.206   0.090
 5614TIP3   OH216805   6.539   4.460   1.819
 5614TIP3    H116806   6.587   4.396   1.766
 5614TIP3    H216807   6.448   4.451   1.789
 5615TIP3   OH216808   5.982   1.748   2.210
 5615TIP3    H116809   5.927   1.674   2.184
 5615TIP3    H216810   5.937   1.786   2.285
 5616TIP3   OH216811   6.938   0.868   3.914
 5616TIP3    H116812   6.879   0.943   3.915
 5616TIP3    H216813   7.015   0.898   3.962
 5617TIP3   OH216814   0.723   1.342   1.112
 5617TIP3    H116815   0.696   1.271   1.053
 5617TIP3    H216816   0.811   1.317   1.140
 5618TIP3   OH216817   1.966   1.464   5.407
 5618TIP3    H116818   2.041   1.424   5.363
 5618TIP3    H216819   1.996   1.479   5.497
 5619TIP3   OH216820   4.510   2.647   4.246
 5619TIP3    H116821   4.457   2.567   4.244
 5619TIP3    H216822   4.468   2.701   4.313
 5620TIP3   OH216823   4.938   6.083   0.417
 5620TIP3    H116824   4.902   6.151   0.359
 5620TIP3    H216825   5.021   6.058   0.375
 5621TIP3   OH216826   1.762   3.023   3.784
 5621TIP3    H116827   1.852   3.017   3.752
 5621TIP3    H216828   1.733   2.932   3.791
 5622TIP3   OH216829   3.998   5.565   4.080
 5622TIP3    H116830   3.940   5.641   4.080
 5622TIP3    H216831   3.942   5.491   4.103
 5623TIP3   OH216832   4.121   5.223   0.177
 5623TIP3    H116833   4.205   5.230   0.222
 5623TIP3    H216834   4.076   5.304   0.199
 5624TIP3   OH216835   5.031   4.707   0.702
 5624TIP3    H116836   5.023   4.763   0.779
 5624TIP3    H216837   4.959   4.645   0.711
 5625TIP3   OH216838   2.502   3.354   1.223
 5625TIP3    H116839   2.446   3.313   1.157
 5625TIP3    H216840   2.483   3.306   1.304
 5626TIP3   OH216841   1.114   0.979   0.795
 5626TIP3    H116842   1.109   1.074   0.807
 5626TIP3    H216843   1.075   0.942   0.874
 5627TIP3   OH216844   1.088   5.297   5.648
 5627TIP3    H116845   1.174   5.337   5.644
 5627TIP3    H216846   1.062   5.287   5.556
 5628TIP3   OH216847   2.367   1.847   5.285
 5628TIP3    H116848   2.332   1.762   5.314
 5628TIP3    H216849   2.454   1.851   5.327
 5629TIP3   OH216850   1.293   2.893   3.439
 5629TIP3    H116851   1.373   2.842   3.444
 5629TIP3    H216852   1.316   2.978   3.476
 5630TIP3   OH216853   6.743   2.691   0.852
 5630TIP3    H116854   6.678   2.686   0.923
 5630TIP3    H216855   6.814   2.742   0.890
 5631TIP3   OH216856   3.344   1.964   5.874
 5631TIP3    H116857   3.363   1.879   5.834
 5631TIP3    H216858   3.423   2.016   5.861
 5632TIP3   OH216859   6.053   4.542   5.370
 5632TIP3    H116860   6.038   4.505   5.457
 5632TIP3    H216861   6.000   4.621   5.367
 5633TIP3   OH216862   3.079   3.177   5.503
 5633TIP3    H116863   3.123   3.154   5.585
 5633TIP3    H216864   3.009   3.112   5.494
 5634TIP3   OH216865   0.460   6.701   0.350
 5634TIP3    H116866   0.457   6.682   0.444
 5634TIP3    H216867   0.371   6.729   0.329
 5635TIP3   OH216868   1.713   2.792   2.144
 5635TIP3    H116869   1.665   2.808   2.226
 5635TIP3    H216870   1.802   2.821   2.163
 5636TIP3   OH216871   5.199   3.078   4.128
 5636TIP3    H116872   5.263   3.143   4.156
 5636TIP3    H216873   5.178   3.102   4.038
 5637TIP3   OH216874   3.227   1.340   4.141
 5637TIP3    H116875   3.314   1.338   4.181
 5637TIP3    H216876   3.192   1.426   4.164
 5638TIP3   OH216877   0.975   1.923   2.837
 5638TIP3    H116878   0.888   1.958   2.853
 5638TIP3    H216879   1.017   1.988   2.779
 5639TIP3   OH216880   3.443   0.628   0.783
 5639TIP3    H116881   3.450   0.658   0.693
 5639TIP3    H216882   3.402   0.701   0.830
 5640TIP3   OH216883   6.853   4.795   0.915
 5640TIP3    H116884   6.788   4.832   0.855
 5640TIP3    H216885   6.804   4.772   0.994
 5641TIP3   OH216886   2.450   5.871   3.763
 5641TIP3    H116887   2.367   5.885   3.718
 5641TIP3    H216888   2.433   5.894   3.854
 5642TIP3   OH216889   5.383   3.429   4.645
 5642TIP3    H116890   5.327   3.506   4.652
 5642TIP3    H216891   5.351   3.370   4.714
 5643TIP3   OH216892   2.276   4.086   0.340
 5643TIP3    H116893   2.321   4.002   0.339
 5643TIP3    H216894   2.273   4.111   0.433
 5644TIP3   OH216895   1.114   4.715   3.790
 5644TIP3    H116896   1.165   4.790   3.758
 5644TIP3    H216897   1.133   4.645   3.728
 5645TIP3   OH216898   5.629   1.215   0.137
 5645TIP3    H116899   5.612   1.282   0.072
 5645TIP3    H216900   5.725   1.212   0.145
 5646TIP3   OH216901   4.175   1.141   5.146
 5646TIP3    H116902   4.170   1.235   5.127
 5646TIP3    H216903   4.244   1.109   5.087
 5647TIP3   OH216904   0.955   3.082   1.360
 5647TIP3    H116905   0.914   3.058   1.443
 5647TIP3    H216906   0.885   3.127   1.312
 5648TIP3   OH216907   3.998   6.668   2.021
 5648TIP3    H116908   4.038   6.752   2.040
 5648TIP3    H216909   3.989   6.626   2.106
 5649TIP3   OH216910   4.890   2.730   5.182
 5649TIP3    H116911   4.862   2.813   5.144
 5649TIP3    H216912   4.825   2.666   5.151
 5650TIP3   OH216913   5.604   5.318   1.199
 5650TIP3    H116914   5.590   5.245   1.139
 5650TIP3    H216915   5.688   5.300   1.240
 5651TIP3   OH216916   7.065   5.577   4.485
 5651TIP3    H116917   7.004   5.558   4.413
 5651TIP3    H216918   7.107   5.493   4.502
 5652TIP3   OH216919   2.328   2.190   4.907
 5652TIP3    H116920   2.302   2.201   4.815
 5652TIP3    H216921   2.246   2.169   4.953
 5653TIP3   OH216922   5.610   1.867   4.761
 5653TIP3    H116923   5.671   1.872   4.835
 5653TIP3    H216924   5.615   1.954   4.720
 5654TIP3   OH216925   2.809   3.686   2.733
 5654TIP3    H116926   2.860   3.634   2.671
 5654TIP3    H216927   2.742   3.728   2.680
 5655TIP3   OH216928   3.432   1.259   2.030
 5655TIP3    H116929   3.352   1.256   2.082
 5655TIP3    H216930   3.404   1.288   1.944
 5656TIP3   OH216931   6.105   1.414   5.361
 5656TIP3    H116932   6.195   1.415   5.328
 5656TIP3    H216933   6.089   1.322   5.382
 5657TIP3   OH216934   6.869   6.586   4.614
 5657TIP3    H116935   6.933   6.645   4.653
 5657TIP3    H216936   6.921   6.516   4.576
 5658TIP3   OH216937   5.112   4.457   1.341
 5658TIP3    H116938   5.198   4.489   1.314
 5658TIP3    H216939   5.096   4.498   1.425
 5659TIP3   OH216940   7.177   1.186   0.178
 5659TIP3    H116941   7.102   1.213   0.230
 5659TIP3    H216942   7.248   1.176   0.241
 5660TIP3   OH216943   3.221   3.342   4.472
 5660TIP3    H116944   3.193   3.288   4.398
 5660TIP3    H216945   3.216   3.432   4.439
 5661TIP3   OH216946   6.822   1.436   1.195
 5661TIP3    H116947   6.783   1.426   1.108
 5661TIP3    H216948   6.853   1.348   1.217
 5662TIP3   OH216949   6.516   0.653   3.074
 5662TIP3    H116950   6.429   0.684   3.049
 5662TIP3    H216951   6.543   0.710   3.146
 5663TIP3   OH216952   5.439   6.014   2.147
 5663TIP3    H116953   5.360   5.991   2.098
 5663TIP3    H216954   5.408   6.068   2.219
 5664TIP3   OH216955   1.650   1.969   1.174
 5664TIP3    H116956   1.592   1.976   1.250
 5664TIP3    H216957   1.602   2.011   1.102
 5665TIP3   OH216958   2.985   2.040   5.597
 5665TIP3    H116959   3.021   1.956   5.626
 5665TIP3    H216960   2.914   2.058   5.659
 5666TIP3   OH216961   6.647   4.227   4.943
 5666TIP3    H116962   6.701   4.207   5.020
 5666TIP3    H216963   6.700   4.288   4.892
 5667TIP3   OH216964   3.022   0.683   2.472
 5667TIP3    H116965   3.073   0.602   2.466
 5667TIP3    H216966   3.070   0.738   2.533
 5668TIP3   OH216967   0.351   5.744   2.438
 5668TIP3    H116968   0.436   5.700   2.445
 5668TIP3    H216969   0.289   5.680   2.473
 5669TIP3   OH216970   3.181   6.457   4.869
 5669TIP3    H116971   3.276   6.461   4.856
 5669TIP3    H216972   3.168   6.381   4.925
 5670TIP3   OH216973  -0.021   5.325   0.839
 5670TIP3    H116974   0.016   5.268   0.907
 5670TIP3    H216975   0.055   5.352   0.787
 5671TIP3   OH216976   7.002   2.356   4.466
 5671TIP3    H116977   7.059   2.431   4.450
 5671TIP3    H216978   7.056   2.293   4.513
 5672TIP3   OH216979   2.826   4.185   0.344
 5672TIP3    H116980   2.841   4.227   0.259
 5672TIP3    H216981   2.881   4.108   0.342
 5673TIP3   OH216982   4.424   4.357   2.488
 5673TIP3    H116983   4.478   4.321   2.418
 5673TIP3    H216984   4.430   4.293   2.559
 5674TIP3   OH216985   3.414   0.573   2.655
 5674TIP3    H116986   3.480   0.555   2.721
 5674TIP3    H216987   3.424   0.667   2.636
 5675TIP3   OH216988   3.787   3.926   5.794
 5675TIP3    H116989   3.839   3.846   5.791
 5675TIP3    H216990   3.846   3.995   5.764
 5676TIP3   OH216991   1.512   4.466   2.212
 5676TIP3    H116992   1.480   4.537   2.156
 5676TIP3    H216993   1.603   4.453   2.185
 5677TIP3   OH216994   0.302   2.314   3.735
 5677TIP3    H116995   0.291   2.398   3.778
 5677TIP3    H216996   0.279   2.330   3.644
 5678TIP3   OH216997   2.025   4.687   5.364
 5678TIP3    H116998   1.952   4.699   5.425
 5678TIP3    H216999   2.104   4.696   5.418
 5679TIP3   OH217000   2.643   4.466   5.158
 5679TIP3    H117001   2.637   4.478   5.253
 5679TIP3    H217002   2.579   4.528   5.122
 5680TIP3   OH217003   5.512   5.089   2.939
 5680TIP3    H117004   5.593   5.061   2.981
 5680TIP3    H217005   5.443   5.045   2.988
 5681TIP3   OH217006   0.918   4.165   2.370
 5681TIP3    H117007   0.869   4.228   2.318
 5681TIP3    H217008   0.852   4.122   2.424
 5682TIP3   OH217009   4.640   4.759   0.891
 5682TIP3    H117010   4.577   4.780   0.822
 5682TIP3    H217011   4.719   4.733   0.844
 5683TIP3   OH217012   6.880   6.206   2.221
 5683TIP3    H117013   6.837   6.167   2.297
 5683TIP3    H217014   6.843   6.160   2.146
 5684TIP3   OH217015   2.900   3.519   4.970
 5684TIP3    H117016   2.908   3.547   4.879
 5684TIP3    H217017   2.916   3.425   4.967
 5685TIP3   OH217018   6.549   0.857   1.265
 5685TIP3    H117019   6.476   0.919   1.268
 5685TIP3    H217020   6.510   0.772   1.286
 5686TIP3   OH217021   1.349   0.209   5.330
 5686TIP3    H117022   1.285   0.139   5.318
 5686TIP3    H217023   1.393   0.216   5.245
 5687TIP3   OH217024   6.458   5.273   3.570
 5687TIP3    H117025   6.423   5.237   3.651
 5687TIP3    H217026   6.383   5.274   3.510
 5688TIP3   OH217027   4.503   1.792   5.635
 5688TIP3    H117028   4.536   1.855   5.699
 5688TIP3    H217029   4.580   1.747   5.602
 5689TIP3   OH217030   3.793   4.282   1.820
 5689TIP3    H117031   3.701   4.277   1.795
 5689TIP3    H217032   3.823   4.365   1.785
 5690TIP3   OH217033   5.706   5.961   1.137
 5690TIP3    H117034   5.706   6.000   1.049
 5690TIP3    H217035   5.759   6.022   1.190
 5691TIP3   OH217036   4.537   5.995   0.090
 5691TIP3    H117037   4.507   5.911   0.123
 5691TIP3    H217038   4.616   5.974   0.040
 5692TIP3   OH217039   0.188   3.143   4.880
 5692TIP3    H117040   0.103   3.099   4.890
 5692TIP3    H217041   0.215   3.162   4.969
 5693TIP3   OH217042   0.385   0.748   2.838
 5693TIP3    H117043   0.293   0.725   2.824
 5693TIP3    H217044   0.419   0.768   2.751
 5694TIP3   OH217045   5.511   5.157   4.321
 5694TIP3    H117046   5.557   5.231   4.360
 5694TIP3    H217047   5.579   5.092   4.305
 5695TIP3   OH217048   5.582   1.499   1.485
 5695TIP3    H117049   5.557   1.556   1.413
 5695TIP3    H217050   5.538   1.416   1.467
 5696TIP3   OH217051   6.521   4.140   5.744
 5696TIP3    H117052   6.577   4.128   5.667
 5696TIP3    H217053   6.432   4.148   5.708
 5697TIP3   OH217054   4.729   6.324   5.094
 5697TIP3    H117055   4.687   6.322   5.180
 5697TIP3    H217056   4.680   6.390   5.044
 5698TIP3   OH217057   2.027   5.936   2.109
 5698TIP3    H117058   2.028   6.028   2.136
 5698TIP3    H217059   1.985   5.891   2.182
 5699TIP3   OH217060   1.444   3.403   0.309
 5699TIP3    H117061   1.532   3.402   0.273
 5699TIP3    H217062   1.456   3.407   0.404
 5700TIP3   OH217063   3.315   2.498   2.086
 5700TIP3    H117064   3.398   2.535   2.057
 5700TIP3    H217065   3.336   2.451   2.167
 5701TIP3   OH217066   2.890   3.094   2.014
 5701TIP3    H117067   2.834   3.113   1.939
 5701TIP3    H217068   2.837   3.118   2.090
 5702TIP3   OH217069   5.221   1.045   0.347
 5702TIP3    H117070   5.255   0.982   0.283
 5702TIP3    H217071   5.240   1.130   0.309
 5703TIP3   OH217072   4.852   1.952   4.347
 5703TIP3    H117073   4.843   2.041   4.312
 5703TIP3    H217074   4.799   1.897   4.290
 5704TIP3   OH217075   5.998   6.228   0.577
 5704TIP3    H117076   6.039   6.310   0.548
 5704TIP3    H217077   5.961   6.191   0.497
 5705TIP3   OH217078   0.297   4.043   3.050
 5705TIP3    H117079   0.227   3.995   3.094
 5705TIP3    H217080   0.333   3.981   2.986
 5706TIP3   OH217081   4.314   2.589   3.636
 5706TIP3    H117082   4.271   2.564   3.718
 5706TIP3    H217083   4.286   2.523   3.573
 5707TIP3   OH217084   1.263   1.292   5.532
 5707TIP3    H117085   1.177   1.275   5.571
 5707TIP3    H217086   1.283   1.214   5.481
 5708TIP3   OH217087   5.215   0.889   1.275
 5708TIP3    H117088   5.264   0.862   1.197
 5708TIP3    H217089   5.138   0.935   1.240
 5709TIP3   OH217090   3.910   2.866   5.140
 5709TIP3    H117091   3.932   2.801   5.074
 5709TIP3    H217092   3.990   2.917   5.152
 5710TIP3   OH217093   6.018   0.749   5.616
 5710TIP3    H117094   5.978   0.702   5.690
 5710TIP3    H217095   5.944   0.782   5.565
 5711TIP3   OH217096   6.520   1.240   4.079
 5711TIP3    H117097   6.553   1.330   4.074
 5711TIP3    H217098   6.439   1.247   4.129
 5712TIP3   OH217099   1.349   2.350   0.824
 5712TIP3    H117100   1.326   2.420   0.764
 5712TIP3    H217101   1.444   2.341   0.816
 5713TIP3   OH217102   0.353   0.814   2.323
 5713TIP3    H117103   0.298   0.737   2.334
 5713TIP3    H217104   0.442   0.780   2.316
 5714TIP3   OH217105   5.790   2.773   0.750
 5714TIP3    H117106   5.860   2.805   0.694
 5714TIP3    H217107   5.834   2.744   0.830
 5715TIP3   OH217108   5.231   1.135   5.255
 5715TIP3    H117109   5.188   1.088   5.327
 5715TIP3    H217110   5.275   1.209   5.297
 5716TIP3   OH217111   1.082   6.199   3.643
 5716TIP3    H117112   1.136   6.277   3.654
 5716TIP3    H217113   1.104   6.167   3.555
 5717TIP3   OH217114   1.190   0.228   5.681
 5717TIP3    H117115   1.197   0.134   5.697
 5717TIP3    H217116   1.251   0.268   5.742
 5718TIP3   OH217117   0.375   4.203   5.060
 5718TIP3    H117118   0.362   4.206   4.965
 5718TIP3    H217119   0.441   4.271   5.077
 5719TIP3   OH217120   1.763   4.426   3.542
 5719TIP3    H117121   1.719   4.477   3.610
 5719TIP3    H217122   1.772   4.338   3.579
 5720TIP3   OH217123   3.959   2.625   0.584
 5720TIP3    H117124   4.021   2.627   0.511
 5720TIP3    H217125   3.905   2.703   0.571
 5721TIP3   OH217126   3.326   3.181   0.316
 5721TIP3    H117127   3.361   3.127   0.387
 5721TIP3    H217128   3.323   3.269   0.353
 5722TIP3   OH217129   1.384   1.434   0.801
 5722TIP3    H117130   1.407   1.360   0.743
 5722TIP3    H217131   1.378   1.509   0.742
 5723TIP3   OH217132   4.294   3.639   0.794
 5723TIP3    H117133   4.271   3.641   0.701
 5723TIP3    H217134   4.368   3.700   0.802
 5724TIP3   OH217135   5.390   3.619   3.075
 5724TIP3    H117136   5.340   3.700   3.065
 5724TIP3    H217137   5.422   3.621   3.165
 5725TIP3   OH217138   1.146   0.803   0.093
 5725TIP3    H117139   1.095   0.875   0.130
 5725TIP3    H217140   1.157   0.826   0.001
 5726TIP3   OH217141   3.911   3.449   0.019
 5726TIP3    H117142   3.936   3.451   0.111
 5726TIP3    H217143   3.988   3.482  -0.028
 5727TIP3   OH217144   4.880   6.695   0.195
 5727TIP3    H117145   4.866   6.753   0.119
 5727TIP3    H217146   4.936   6.625   0.162
 5728TIP3   OH217147   6.672   2.593   1.493
 5728TIP3    H117148   6.702   2.577   1.583
 5728TIP3    H217149   6.638   2.508   1.464
 5729TIP3   OH217150   6.077   0.959   5.293
 5729TIP3    H117151   6.107   0.982   5.205
 5729TIP3    H217152   6.144   0.900   5.327
 5730TIP3   OH217153   4.010   6.617   5.008
 5730TIP3    H117154   4.058   6.573   5.079
 5730TIP3    H217155   3.921   6.584   5.016
 5731TIP3   OH217156   3.529   0.902   5.673
 5731TIP3    H117157   3.569   0.830   5.624
 5731TIP3    H217158   3.499   0.963   5.606
 5732TIP3   OH217159   5.818   5.969   2.853
 5732TIP3    H117160   5.881   6.042   2.854
 5732TIP3    H217161   5.733   6.011   2.864
 5733TIP3   OH217162   5.692   6.206   3.558
 5733TIP3    H117163   5.643   6.217   3.477
 5733TIP3    H217164   5.765   6.268   3.551
 5734TIP3   OH217165   2.306   1.531   1.854
 5734TIP3    H117166   2.242   1.550   1.786
 5734TIP3    H217167   2.388   1.569   1.822
 5735TIP3   OH217168   2.698   1.023   3.715
 5735TIP3    H117169   2.757   1.084   3.672
 5735TIP3    H217170   2.638   0.995   3.645
 5736TIP3   OH217171   4.664   6.348   1.491
 5736TIP3    H117172   4.744   6.319   1.448
 5736TIP3    H217173   4.627   6.268   1.529
 5737TIP3   OH217174   1.909   2.390   5.498
 5737TIP3    H117175   1.816   2.401   5.518
 5737TIP3    H217176   1.949   2.362   5.580
 5738TIP3   OH217177   7.181   1.913   3.084
 5738TIP3    H117178   7.152   1.825   3.059
 5738TIP3    H217179   7.214   1.951   3.003
 5739TIP3   OH217180   4.724   3.752   5.595
 5739TIP3    H117181   4.656   3.768   5.662
 5739TIP3    H217182   4.758   3.665   5.616
 5740TIP3   OH217183   1.995   2.068   1.973
 5740TIP3    H117184   1.947   2.044   2.053
 5740TIP3    H217185   2.049   1.991   1.954
 5741TIP3   OH217186   0.775   4.928   1.748
 5741TIP3    H117187   0.714   4.925   1.674
 5741TIP3    H217188   0.839   4.994   1.724
 5742TIP3   OH217189   6.171   0.655   1.972
 5742TIP3    H117190   6.182   0.657   2.067
 5742TIP3    H217191   6.151   0.564   1.952
 5743TIP3   OH217192   6.260   6.770   0.127
 5743TIP3    H117193   6.243   6.715   0.050
 5743TIP3    H217194   6.267   6.708   0.200
 5744TIP3   OH217195   6.205   6.382   1.478
 5744TIP3    H117196   6.220   6.390   1.384
 5744TIP3    H217197   6.274   6.323   1.509
 5745TIP3   OH217198   0.602   1.914   3.516
 5745TIP3    H117199   0.654   1.990   3.541
 5745TIP3    H217200   0.667   1.847   3.493
 5746TIP3   OH217201   5.113   2.459   5.429
 5746TIP3    H117202   5.055   2.468   5.353
 5746TIP3    H217203   5.143   2.548   5.447
 5747TIP3   OH217204   4.865   5.544   4.977
 5747TIP3    H117205   4.788   5.504   4.936
 5747TIP3    H217206   4.850   5.638   4.969
 5748TIP3   OH217207   3.513   3.622   4.635
 5748TIP3    H117208   3.438   3.669   4.600
 5748TIP3    H217209   3.589   3.659   4.590
 5749TIP3   OH217210   7.144   5.616   0.290
 5749TIP3    H117211   7.122   5.557   0.218
 5749TIP3    H217212   7.063   5.664   0.308
 5750TIP3   OH217213   3.002   6.496   4.129
 5750TIP3    H117214   2.970   6.451   4.051
 5750TIP3    H217215   2.982   6.588   4.112
 5751TIP3   OH217216   6.078   1.655   4.670
 5751TIP3    H117217   6.003   1.682   4.723
 5751TIP3    H217218   6.104   1.570   4.706
 5752TIP3   OH217219   1.414   3.640   4.586
 5752TIP3    H117220   1.426   3.586   4.508
 5752TIP3    H217221   1.426   3.730   4.555
 5753TIP3   OH217222   5.224   0.385   2.351
 5753TIP3    H117223   5.198   0.476   2.335
 5753TIP3    H217224   5.303   0.373   2.298
 5754TIP3   OH217225   1.879   0.439   3.542
 5754TIP3    H117226   1.952   0.475   3.593
 5754TIP3    H217227   1.807   0.501   3.555
 5755TIP3   OH217228   5.500   5.566   1.074
 5755TIP3    H117229   5.545   5.643   1.107
 5755TIP3    H217230   5.539   5.493   1.122
 5756TIP3   OH217231   1.551   1.067   5.153
 5756TIP3    H117232   1.631   1.088   5.202
 5756TIP3    H217233   1.506   1.151   5.145
 5757TIP3   OH217234   0.665   3.410   0.070
 5757TIP3    H117235   0.757   3.428   0.050
 5757TIP3    H217236   0.641   3.477   0.133
 5758TIP3   OH217237   5.603   5.393   4.196
 5758TIP3    H117238   5.574   5.319   4.144
 5758TIP3    H217239   5.614   5.464   4.132
 5759TIP3   OH217240   1.404   0.672   1.773
 5759TIP3    H117241   1.363   0.737   1.716
 5759TIP3    H217242   1.497   0.695   1.773
 5760TIP3   OH217243   2.652   0.656   0.145
 5760TIP3    H117244   2.611   0.631   0.062
 5760TIP3    H217245   2.729   0.706   0.119
 5761TIP3   OH217246   6.047   6.687   1.847
 5761TIP3    H117247   6.053   6.779   1.818
 5761TIP3    H217248   5.963   6.657   1.813
 5762TIP3   OH217249   1.566   2.234   2.126
 5762TIP3    H117250   1.590   2.155   2.078
 5762TIP3    H217251   1.514   2.202   2.200
 5763TIP3   OH217252   3.080   0.710   4.203
 5763TIP3    H117253   3.048   0.763   4.131
 5763TIP3    H217254   3.004   0.659   4.231
 5764TIP3   OH217255   5.695   4.170   1.048
 5764TIP3    H117256   5.710   4.134   1.136
 5764TIP3    H217257   5.607   4.141   1.025
 5765TIP3   OH217258   3.318   2.833   0.314
 5765TIP3    H117259   3.251   2.770   0.338
 5765TIP3    H217260   3.329   2.887   0.393
 5766TIP3   OH217261   3.236   2.080   2.141
 5766TIP3    H117262   3.184   2.103   2.218
 5766TIP3    H217263   3.226   1.985   2.132
 5767TIP3   OH217264   5.822   5.045   4.968
 5767TIP3    H117265   5.733   5.078   4.954
 5767TIP3    H217266   5.844   5.073   5.056
 5768TIP3   OH217267   6.379   3.205   1.909
 5768TIP3    H117268   6.398   3.156   1.990
 5768TIP3    H217269   6.405   3.295   1.929
 5769TIP3   OH217270   4.801   0.752   3.403
 5769TIP3    H117271   4.815   0.665   3.440
 5769TIP3    H217272   4.850   0.811   3.460
 5770TIP3   OH217273   0.630   3.995   3.011
 5770TIP3    H117274   0.558   3.958   3.062
 5770TIP3    H217275   0.707   3.948   3.041
 5771TIP3   OH217276   6.753   5.806   5.282
 5771TIP3    H117277   6.666   5.776   5.256
 5771TIP3    H217278   6.738   5.888   5.328
 5772TIP3   OH217279   2.415   4.135   5.179
 5772TIP3    H117280   2.486   4.155   5.118
 5772TIP3    H217281   2.341   4.111   5.123
 5773TIP3   OH217282   4.254   6.271   5.098
 5773TIP3    H117283   4.177   6.315   5.134
 5773TIP3    H217284   4.319   6.340   5.089
 5774TIP3   OH217285   3.083   4.904   3.077
 5774TIP3    H117286   3.054   4.909   2.986
 5774TIP3    H217287   3.153   4.969   3.083
 5775TIP3   OH217288   7.126   0.384   2.487
 5775TIP3    H117289   7.092   0.472   2.475
 5775TIP3    H217290   7.052   0.334   2.521
 5776TIP3   OH217291   0.923   3.893   3.575
 5776TIP3    H117292   0.856   3.828   3.598
 5776TIP3    H217293   0.995   3.874   3.636
 5777TIP3   OH217294   3.364   2.996   4.648
 5777TIP3    H117295   3.321   3.078   4.669
 5777TIP3    H217296   3.457   3.015   4.654
 5778TIP3   OH217297   2.522   4.815   4.691
 5778TIP3    H117298   2.479   4.733   4.665
 5778TIP3    H217299   2.558   4.797   4.778
 5779TIP3   OH217300   6.440   2.865   3.213
 5779TIP3    H117301   6.511   2.922   3.243
 5779TIP3    H217302   6.423   2.807   3.287
 5780TIP3   OH217303   0.351   2.494   4.433
 5780TIP3    H117304   0.397   2.432   4.375
 5780TIP3    H217305   0.420   2.530   4.489
 5781TIP3   OH217306   7.224   6.527   1.707
 5781TIP3    H117307   7.272   6.593   1.756
 5781TIP3    H217308   7.239   6.445   1.754
 5782TIP3   OH217309   0.439   2.264   4.325
 5782TIP3    H117310   0.465   2.244   4.415
 5782TIP3    H217311   0.427   2.178   4.284
 5783TIP3   OH217312   2.012   0.633   2.297
 5783TIP3    H117313   2.080   0.694   2.325
 5783TIP3    H217314   2.015   0.562   2.362
 5784TIP3   OH217315   3.632   3.462   0.313
 5784TIP3    H117316   3.631   3.449   0.218
 5784TIP3    H217317   3.675   3.384   0.348
 5785TIP3   OH217318   0.879   1.088   2.563
 5785TIP3    H117319   0.905   1.140   2.639
 5785TIP3    H217320   0.802   1.040   2.592
 5786TIP3   OH217321   1.314   4.321   2.376
 5786TIP3    H117322   1.393   4.370   2.354
 5786TIP3    H217323   1.341   4.260   2.444
 5787TIP3   OH217324   3.522   0.320   5.557
 5787TIP3    H117325   3.437   0.339   5.597
 5787TIP3    H217326   3.517   0.359   5.470
 5788TIP3   OH217327   3.101   5.212   5.456
 5788TIP3    H117328   3.129   5.303   5.469
 5788TIP3    H217329   3.160   5.161   5.511
 5789TIP3   OH217330   4.061   2.223   1.990
 5789TIP3    H117331   4.059   2.311   1.953
 5789TIP3    H217332   3.973   2.209   2.025
 5790TIP3   OH217333   1.570   2.163   1.002
 5790TIP3    H117334   1.509   2.237   0.996
 5790TIP3    H217335   1.657   2.204   1.003
 5791TIP3   OH217336   5.534   2.794   3.918
 5791TIP3    H117337   5.507   2.843   3.996
 5791TIP3    H217338   5.504   2.848   3.844
 5792TIP3   OH217339   5.345   4.546   2.363
 5792TIP3    H117340   5.296   4.463   2.360
 5792TIP3    H217341   5.435   4.521   2.342
 5793TIP3   OH217342   6.805   3.650   5.174
 5793TIP3    H117343   6.753   3.587   5.223
 5793TIP3    H217344   6.741   3.702   5.125
 5794TIP3   OH217345   3.008   6.726   4.336
 5794TIP3    H117346   3.002   6.633   4.359
 5794TIP3    H217347   2.920   6.751   4.310
 5795TIP3   OH217348   4.190   2.688   0.088
 5795TIP3    H117349   4.220   2.766   0.041
 5795TIP3    H217350   4.271   2.646   0.117
 5796TIP3   OH217351   6.021   5.627   5.509
 5796TIP3    H117352   6.085   5.676   5.561
 5796TIP3    H217353   5.944   5.685   5.505
 5797TIP3   OH217354   0.179   5.296   3.470
 5797TIP3    H117355   0.132   5.215   3.454
 5797TIP3    H217356   0.272   5.271   3.468
 5798TIP3   OH217357   6.070   4.506   4.531
 5798TIP3    H117358   6.091   4.420   4.569
 5798TIP3    H217359   5.978   4.520   4.551
 5799TIP3   OH217360   0.762   0.147   0.036
 5799TIP3    H117361   0.758   0.056   0.006
 5799TIP3    H217362   0.792   0.140   0.127
 5800TIP3   OH217363   2.192   2.768   0.208
 5800TIP3    H117364   2.262   2.804   0.154
 5800TIP3    H217365   2.236   2.713   0.273
 5801TIP3   OH217366   2.491   3.873   5.246
 5801TIP3    H117367   2.476   3.965   5.225
 5801TIP3    H217368   2.432   3.825   5.188
 5802TIP3   OH217369   0.667   4.615   3.234
 5802TIP3    H117370   0.606   4.678   3.273
 5802TIP3    H217371   0.655   4.625   3.140
 5803TIP3   OH217372   3.055   3.508   4.319
 5803TIP3    H117373   3.042   3.470   4.232
 5803TIP3    H217374   2.966   3.521   4.353
 5804TIP3   OH217375   0.090   3.925   3.177
 5804TIP3    H117376   0.017   3.878   3.216
 5804TIP3    H217377   0.164   3.907   3.235
 5805TIP3   OH217378   0.298   6.411   1.811
 5805TIP3    H117379   0.300   6.502   1.782
 5805TIP3    H217380   0.372   6.404   1.872
 5806TIP3   OH217381   5.043   4.410   2.875
 5806TIP3    H117382   5.100   4.420   2.952
 5806TIP3    H217383   5.104   4.392   2.804
 5807TIP3   OH217384   1.878   3.096   2.781
 5807TIP3    H117385   1.786   3.074   2.769
 5807TIP3    H217386   1.903   3.138   2.699
 5808TIP3   OH217387   2.439   3.887   0.446
 5808TIP3    H117388   2.531   3.902   0.468
 5808TIP3    H217389   2.404   3.837   0.519
 5809TIP3   OH217390   5.053   5.734   0.222
 5809TIP3    H117391   5.129   5.706   0.273
 5809TIP3    H217392   4.986   5.754   0.287
 5810TIP3   OH217393   0.725   0.195   4.332
 5810TIP3    H117394   0.705   0.180   4.239
 5810TIP3    H217395   0.720   0.108   4.372
 5811TIP3   OH217396   1.523   3.541   0.904
 5811TIP3    H117397   1.480   3.616   0.944
 5811TIP3    H217398   1.502   3.467   0.961
 5812TIP3   OH217399   5.975   0.623   1.065
 5812TIP3    H117400   5.913   0.645   0.995
 5812TIP3    H217401   6.044   0.574   1.020
 5813TIP3   OH217402   4.028   5.976   2.247
 5813TIP3    H117403   3.943   5.933   2.240
 5813TIP3    H217404   4.086   5.923   2.193
 5814TIP3   OH217405   3.337   4.640   1.036
 5814TIP3    H117406   3.420   4.598   1.057
 5814TIP3    H217407   3.351   4.732   1.055
 5815TIP3   OH217408   0.095   2.328   3.222
 5815TIP3    H117409   0.178   2.283   3.240
 5815TIP3    H217410   0.055   2.276   3.152
 5816TIP3   OH217411   5.312   1.056   2.797
 5816TIP3    H117412   5.369   1.041   2.721
 5816TIP3    H217413   5.347   0.998   2.865
 5817TIP3   OH217414   1.897   0.680   5.479
 5817TIP3    H117415   1.836   0.720   5.417
 5817TIP3    H217416   1.850   0.680   5.563
 5818TIP3   OH217417   3.079   3.782   3.230
 5818TIP3    H117418   2.988   3.794   3.259
 5818TIP3    H217419   3.122   3.736   3.302
 5819TIP3   OH217420   1.430   0.381   3.330
 5819TIP3    H117421   1.408   0.438   3.255
 5819TIP3    H217422   1.475   0.439   3.391
 5820TIP3   OH217423   2.909   6.643   0.271
 5820TIP3    H117424   2.873   6.644   0.360
 5820TIP3    H217425   2.854   6.581   0.223
 5821TIP3   OH217426   0.303   3.319   4.246
 5821TIP3    H117427   0.367   3.350   4.311
 5821TIP3    H217428   0.225   3.371   4.264
 5822TIP3   OH217429   1.527   0.934   5.447
 5822TIP3    H117430   1.561   0.872   5.382
 5822TIP3    H217431   1.499   0.880   5.520
 5823TIP3   OH217432   0.921   3.100   5.467
 5823TIP3    H117433   0.849   3.151   5.430
 5823TIP3    H217434   0.902   3.095   5.560
 5824TIP3   OH217435   1.111   2.718   5.704
 5824TIP3    H117436   1.130   2.725   5.798
 5824TIP3    H217437   1.181   2.767   5.662
 5825TIP3   OH217438   0.715   1.149   1.885
 5825TIP3    H117439   0.757   1.063   1.897
 5825TIP3    H217440   0.782   1.203   1.843
 5826TIP3   OH217441   6.814   0.956   1.199
 5826TIP3    H117442   6.726   0.922   1.213
 5826TIP3    H217443   6.872   0.883   1.222
 5827TIP3   OH217444   3.526   6.293   3.654
 5827TIP3    H117445   3.573   6.281   3.737
 5827TIP3    H217446   3.506   6.386   3.651
 5828TIP3   OH217447   1.134   3.513   0.829
 5828TIP3    H117448   1.202   3.446   0.821
 5828TIP3    H217449   1.147   3.550   0.916
 5829TIP3   OH217450   5.351   0.789   5.727
 5829TIP3    H117451   5.334   0.882   5.742
 5829TIP3    H217452   5.355   0.751   5.814
 5830TIP3   OH217453   4.446   4.519   2.065
 5830TIP3    H117454   4.505   4.444   2.064
 5830TIP3    H217455   4.376   4.494   2.125
 5831TIP3   OH217456   4.278   2.251   3.111
 5831TIP3    H117457   4.313   2.337   3.135
 5831TIP3    H217458   4.186   2.267   3.093
 5832TIP3   OH217459   0.324   0.095   0.078
 5832TIP3    H117460   0.235   0.060   0.072
 5832TIP3    H217461   0.370   0.054   0.005
 5833TIP3   OH217462   4.659   3.610   0.891
 5833TIP3    H117463   4.725   3.574   0.831
 5833TIP3    H217464   4.610   3.672   0.837
 5834TIP3   OH217465   7.084   6.011   2.513
 5834TIP3    H117466   7.098   6.102   2.539
 5834TIP3    H217467   7.093   5.961   2.595
 5835TIP3   OH217468   5.234   1.454   5.132
 5835TIP3    H117469   5.196   1.496   5.209
 5835TIP3    H217470   5.283   1.523   5.087
 5836TIP3   OH217471   3.510   0.898   4.047
 5836TIP3    H117472   3.509   0.939   3.961
 5836TIP3    H217473   3.462   0.816   4.035
 5837TIP3   OH217474   5.441   5.681   0.710
 5837TIP3    H117475   5.433   5.748   0.642
 5837TIP3    H217476   5.375   5.704   0.775
 5838TIP3   OH217477   7.161   6.511   1.175
 5838TIP3    H117478   7.113   6.513   1.092
 5838TIP3    H217479   7.125   6.436   1.222
 5839TIP3   OH217480   2.538   5.221   5.354
 5839TIP3    H117481   2.492   5.164   5.293
 5839TIP3    H217482   2.573   5.292   5.300
 5840TIP3   OH217483   6.386   6.030   0.448
 5840TIP3    H117484   6.345   6.045   0.533
 5840TIP3    H217485   6.417   6.116   0.420
 5841TIP3   OH217486   3.611   0.750   4.255
 5841TIP3    H117487   3.567   0.815   4.200
 5841TIP3    H217488   3.701   0.782   4.262
 5842TIP3   OH217489   3.361   0.731   5.357
 5842TIP3    H117490   3.323   0.673   5.291
 5842TIP3    H217491   3.443   0.761   5.317
 5843TIP3   OH217492   3.009   3.749   0.592
 5843TIP3    H117493   2.918   3.725   0.606
 5843TIP3    H217494   3.059   3.672   0.619
 5844TIP3   OH217495   6.463   2.159   1.823
 5844TIP3    H117496   6.389   2.216   1.804
 5844TIP3    H217497   6.467   2.155   1.918
 5845TIP3   OH217498   5.146   2.350   3.905
 5845TIP3    H117499   5.056   2.338   3.936
 5845TIP3    H217500   5.148   2.307   3.819
 5846TIP3   OH217501   0.207   1.481   2.893
 5846TIP3    H117502   0.192   1.387   2.893
 5846TIP3    H217503   0.300   1.491   2.917
 5847TIP3   OH217504   1.417   2.083   5.236
 5847TIP3    H117505   1.369   2.166   5.234
 5847TIP3    H217506   1.370   2.027   5.174
 5848TIP3   OH217507   2.026   4.581   4.081
 5848TIP3    H117508   2.101   4.544   4.126
 5848TIP3    H217509   2.046   4.674   4.072
 5849TIP3   OH217510   5.240   0.629   0.496
 5849TIP3    H117511   5.164   0.681   0.524
 5849TIP3    H217512   5.257   0.657   0.406
 5850TIP3   OH217513   4.733   4.058   5.601
 5850TIP3    H117514   4.738   3.967   5.571
 5850TIP3    H217515   4.642   4.084   5.584
 5851TIP3   OH217516   4.780   3.951   1.032
 5851TIP3    H117517   4.700   3.941   0.980
 5851TIP3    H217518   4.796   4.045   1.035
 5852TIP3   OH217519   2.417   0.614   2.928
 5852TIP3    H117520   2.375   0.534   2.961
 5852TIP3    H217521   2.362   0.685   2.961
 5853TIP3   OH217522   1.499   3.424   1.251
 5853TIP3    H117523   1.451   3.341   1.240
 5853TIP3    H217524   1.469   3.457   1.336
 5854TIP3   OH217525   7.082   6.070   4.152
 5854TIP3    H117526   7.159   6.037   4.198
 5854TIP3    H217527   7.040   6.128   4.215
 5855TIP3   OH217528   3.484   3.501   5.542
 5855TIP3    H117529   3.498   3.585   5.585
 5855TIP3    H217530   3.566   3.454   5.554
 5856TIP3   OH217531   1.681   2.502   1.411
 5856TIP3    H117532   1.740   2.442   1.367
 5856TIP3    H217533   1.655   2.457   1.491
 5857TIP3   OH217534   7.068   2.161   3.758
 5857TIP3    H117535   7.154   2.142   3.797
 5857TIP3    H217536   7.064   2.102   3.682
 5858TIP3   OH217537   2.888   5.326   0.029
 5858TIP3    H117538   2.811   5.328  -0.028
 5858TIP3    H217539   2.919   5.417   0.030
 5859TIP3   OH217540   1.913   4.590   5.145
 5859TIP3    H117541   1.932   4.675   5.106
 5859TIP3    H217542   1.948   4.596   5.234
 5860TIP3   OH217543   7.144   2.803   0.712
 5860TIP3    H117544   7.084   2.864   0.670
 5860TIP3    H217545   7.115   2.717   0.683
 5861TIP3   OH217546   2.359   0.213   3.880
 5861TIP3    H117547   2.395   0.148   3.819
 5861TIP3    H217548   2.326   0.283   3.824
 5862TIP3   OH217549   3.452   1.611   1.506
 5862TIP3    H117550   3.413   1.637   1.423
 5862TIP3    H217551   3.518   1.677   1.524
 5863TIP3   OH217552   3.561   4.737   4.392
 5863TIP3    H117553   3.564   4.832   4.406
 5863TIP3    H217554   3.482   4.724   4.339
 5864TIP3   OH217555   6.930   5.368   1.186
 5864TIP3    H117556   6.906   5.277   1.206
 5864TIP3    H217557   6.923   5.374   1.091
 5865TIP3   OH217558   3.141   2.595   2.432
 5865TIP3    H117559   3.109   2.553   2.352
 5865TIP3    H217560   3.096   2.548   2.503
 5866TIP3   OH217561   0.051   2.549   5.240
 5866TIP3    H117562   0.039   2.583   5.151
 5866TIP3    H217563   0.096   2.620   5.286
 5867TIP3   OH217564  -0.001   1.388   2.532
 5867TIP3    H117565   0.069   1.323   2.543
 5867TIP3    H217566  -0.076   1.337   2.503
 5868TIP3   OH217567   5.914   5.099   5.244
 5868TIP3    H117568   5.906   5.007   5.219
 5868TIP3    H217569   6.008   5.117   5.239
 5869TIP3   OH217570   5.669   5.548   3.982
 5869TIP3    H117571   5.586   5.539   3.936
 5869TIP3    H217572   5.727   5.485   3.939
 5870TIP3   OH217573   5.612   1.870   1.754
 5870TIP3    H117574   5.585   1.941   1.697
 5870TIP3    H217575   5.681   1.824   1.706
 5871TIP3   OH217576   6.081   0.096   2.240
 5871TIP3    H117577   6.070   0.081   2.334
 5871TIP3    H217578   6.153   0.159   2.235
 5872TIP3   OH217579   3.384   5.189   1.366
 5872TIP3    H117580   3.379   5.280   1.394
 5872TIP3    H217581   3.301   5.174   1.321
 5873TIP3   OH217582   1.459   3.265   0.983
 5873TIP3    H117583   1.542   3.233   0.948
 5873TIP3    H217584   1.466   3.252   1.078
 5874TIP3   OH217585   0.341   3.297   4.725
 5874TIP3    H117586   0.295   3.223   4.764
 5874TIP3    H217587   0.426   3.261   4.699
 5875TIP3   OH217588   5.806   3.312   1.786
 5875TIP3    H117589   5.886   3.333   1.738
 5875TIP3    H217590   5.836   3.291   1.875
 5876TIP3   OH217591   5.638   3.255   1.579
 5876TIP3    H117592   5.700   3.245   1.652
 5876TIP3    H217593   5.557   3.216   1.611
 5877TIP3   OH217594   3.919   0.957   2.213
 5877TIP3    H117595   4.004   0.929   2.248
 5877TIP3    H217596   3.855   0.926   2.278
 5878TIP3   OH217597   5.481   5.963   0.816
 5878TIP3    H117598   5.573   5.973   0.838
 5878TIP3    H217599   5.468   6.021   0.740
 5879TIP3   OH217600   4.844   3.075   4.250
 5879TIP3    H117601   4.919   3.019   4.228
 5879TIP3    H217602   4.851   3.150   4.191
 5880TIP3   OH217603   3.220   0.892   0.660
 5880TIP3    H117604   3.184   0.920   0.744
 5880TIP3    H217605   3.161   0.930   0.595
 5881TIP3   OH217606   0.113   1.737   5.100
 5881TIP3    H117607   0.176   1.666   5.091
 5881TIP3    H217608   0.028   1.696   5.080
 5882TIP3   OH217609   6.134   0.709   0.660
 5882TIP3    H117610   6.130   0.687   0.567
 5882TIP3    H217611   6.112   0.802   0.664
 5883TIP3   OH217612   2.765   3.644   5.504
 5883TIP3    H117613   2.774   3.624   5.411
 5883TIP3    H217614   2.674   3.673   5.514
 5884TIP3   OH217615   4.193   0.807   5.052
 5884TIP3    H117616   4.179   0.851   4.968
 5884TIP3    H217617   4.277   0.839   5.083
 5885TIP3   OH217618   4.399   5.271   4.587
 5885TIP3    H117619   4.477   5.221   4.608
 5885TIP3    H217620   4.396   5.271   4.491
 5886TIP3   OH217621   0.403   0.759   1.490
 5886TIP3    H117622   0.364   0.673   1.508
 5886TIP3    H217623   0.494   0.750   1.518
 5887TIP3   OH217624   2.391   2.542   4.904
 5887TIP3    H117625   2.406   2.539   4.809
 5887TIP3    H217626   2.321   2.478   4.919
 5888TIP3   OH217627   4.598   6.375   5.721
 5888TIP3    H117628   4.539   6.306   5.749
 5888TIP3    H217629   4.685   6.345   5.748
 5889TIP3   OH217630   6.905   4.376   0.359
 5889TIP3    H117631   6.850   4.413   0.290
 5889TIP3    H217632   6.904   4.442   0.428
 5890TIP3   OH217633   0.964   1.594   4.276
 5890TIP3    H117634   0.902   1.600   4.349
 5890TIP3    H217635   1.028   1.529   4.304
 5891TIP3   OH217636   0.159   6.154   2.916
 5891TIP3    H117637   0.218   6.094   2.962
 5891TIP3    H217638   0.216   6.200   2.854
 5892TIP3   OH217639   6.089   0.856   4.124
 5892TIP3    H117640   6.034   0.884   4.197
 5892TIP3    H217641   6.134   0.935   4.096
 5893TIP3   OH217642   3.215   4.550   4.940
 5893TIP3    H117643   3.265   4.529   4.861
 5893TIP3    H217644   3.129   4.575   4.908
 5894TIP3   OH217645   0.197   2.873   3.737
 5894TIP3    H117646   0.136   2.799   3.737
 5894TIP3    H217647   0.260   2.852   3.806
 5895TIP3   OH217648   0.482   4.270   1.714
 5895TIP3    H117649   0.442   4.186   1.690
 5895TIP3    H217650   0.530   4.297   1.635
 5896TIP3   OH217651   3.839   4.233   1.266
 5896TIP3    H117652   3.861   4.185   1.346
 5896TIP3    H217653   3.852   4.325   1.290
 5897TIP3   OH217654   6.888   4.533   3.935
 5897TIP3    H117655   6.919   4.478   3.863
 5897TIP3    H217656   6.912   4.622   3.910
 5898TIP3   OH217657   3.557   0.665   3.749
 5898TIP3    H117658   3.489   0.611   3.788
 5898TIP3    H217659   3.631   0.660   3.810
 5899TIP3   OH217660   3.373   5.212   0.599
 5899TIP3    H117661   3.306   5.253   0.654
 5899TIP3    H217662   3.436   5.281   0.581
 5900TIP3   OH217663   1.922   1.790   3.400
 5900TIP3    H117664   1.871   1.812   3.478
 5900TIP3    H217665   1.874   1.831   3.327
 5901TIP3   OH217666   5.883   5.333   2.778
 5901TIP3    H117667   5.962   5.300   2.735
 5901TIP3    H217668   5.908   5.418   2.813
 5902TIP3   OH217669   4.887   2.914   0.931
 5902TIP3    H117670   4.926   2.850   0.990
 5902TIP3    H217671   4.852   2.982   0.989
 5903TIP3   OH217672   1.983   4.365   4.705
 5903TIP3    H117673   1.934   4.370   4.787
 5903TIP3    H217674   1.992   4.271   4.688
 5904TIP3   OH217675   4.631   5.746   4.051
 5904TIP3    H117676   4.653   5.807   3.981
 5904TIP3    H217677   4.552   5.700   4.020
 5905TIP3   OH217678   3.863   0.860   4.371
 5905TIP3    H117679   3.939   0.807   4.393
 5905TIP3    H217680   3.805   0.852   4.447
 5906TIP3   OH217681   4.080   1.029   3.011
 5906TIP3    H117682   3.986   1.011   3.011
 5906TIP3    H217683   4.087   1.122   3.032
 5907TIP3   OH217684   4.225   6.046   0.818
 5907TIP3    H117685   4.238   6.128   0.770
 5907TIP3    H217686   4.192   6.072   0.903
 5908TIP3   OH217687   4.464   4.872   2.994
 5908TIP3    H117688   4.450   4.828   3.077
 5908TIP3    H217689   4.518   4.948   3.015
 5909TIP3   OH217690   5.758   1.226   1.287
 5909TIP3    H117691   5.758   1.274   1.204
 5909TIP3    H217692   5.672   1.243   1.325
 5910TIP3   OH217693   0.300   3.258   3.047
 5910TIP3    H117694   0.262   3.290   3.128
 5910TIP3    H217695   0.277   3.165   3.045
 5911TIP3   OH217696   1.449   4.386   0.255
 5911TIP3    H117697   1.375   4.341   0.214
 5911TIP3    H217698   1.514   4.393   0.185
 5912TIP3   OH217699   1.553   1.001   1.324
 5912TIP3    H117700   1.630   0.958   1.288
 5912TIP3    H217701   1.585   1.043   1.404
 5913TIP3   OH217702   1.066   3.236   4.278
 5913TIP3    H117703   1.084   3.158   4.226
 5913TIP3    H217704   1.148   3.255   4.322
 5914TIP3   OH217705   5.291   5.469   3.519
 5914TIP3    H117706   5.368   5.501   3.472
 5914TIP3    H217707   5.311   5.378   3.540
 5915TIP3   OH217708   6.158   0.593   0.113
 5915TIP3    H117709   6.225   0.660   0.097
 5915TIP3    H217710   6.125   0.571   0.025
 5916TIP3   OH217711   0.050   2.441   0.145
 5916TIP3    H117712   0.144   2.432   0.128
 5916TIP3    H217713   0.019   2.351   0.156
 5917TIP3   OH217714   5.893   2.387   0.871
 5917TIP3    H117715   5.941   2.320   0.920
 5917TIP3    H217716   5.860   2.341   0.794
 5918TIP3   OH217717   1.950   2.624   5.690
 5918TIP3    H117718   1.963   2.550   5.749
 5918TIP3    H217719   1.878   2.596   5.633
 5919TIP3   OH217720   4.720   5.592   1.620
 5919TIP3    H117721   4.722   5.572   1.713
 5919TIP3    H217722   4.730   5.507   1.576
 5920TIP3   OH217723   6.106   3.479   0.473
 5920TIP3    H117724   6.136   3.570   0.477
 5920TIP3    H217725   6.157   3.441   0.402
 5921TIP3   OH217726   3.857   5.647   3.682
 5921TIP3    H117727   3.774   5.685   3.655
 5921TIP3    H217728   3.843   5.552   3.677
 5922TIP3   OH217729   5.547   2.262   0.879
 5922TIP3    H117730   5.554   2.194   0.812
 5922TIP3    H217731   5.524   2.214   0.959
 5923TIP3   OH217732   3.993   3.232   3.118
 5923TIP3    H117733   4.067   3.278   3.158
 5923TIP3    H217734   3.989   3.148   3.162
 5924TIP3   OH217735   5.183   0.628   3.973
 5924TIP3    H117736   5.160   0.546   4.017
 5924TIP3    H217737   5.180   0.694   4.043
 5925TIP3   OH217738   5.485   4.345   1.233
 5925TIP3    H117739   5.431   4.273   1.200
 5925TIP3    H217740   5.569   4.335   1.188
 5926TIP3   OH217741   3.062   2.210   4.927
 5926TIP3    H117742   2.968   2.193   4.931
 5926TIP3    H217743   3.085   2.195   4.836
 5927TIP3   OH217744   2.185   3.047   5.109
 5927TIP3    H117745   2.206   2.954   5.114
 5927TIP3    H217746   2.092   3.049   5.083
 5928TIP3   OH217747   3.126   4.156   0.121
 5928TIP3    H117748   3.128   4.126   0.029
 5928TIP3    H217749   3.146   4.078   0.172
 5929TIP3   OH217750   1.035   1.373   0.277
 5929TIP3    H117751   1.016   1.337   0.363
 5929TIP3    H217752   1.129   1.360   0.266
 5930TIP3   OH217753   2.425   3.209   2.007
 5930TIP3    H117754   2.463   3.281   2.058
 5930TIP3    H217755   2.429   3.134   2.065
 5931TIP3   OH217756   0.402   0.915   0.164
 5931TIP3    H117757   0.354   0.893   0.244
 5931TIP3    H217758   0.355   0.869   0.094
 5932TIP3   OH217759   5.622   4.656   4.489
 5932TIP3    H117760   5.695   4.635   4.547
 5932TIP3    H217761   5.552   4.597   4.515
 5933TIP3   OH217762   2.012   2.486   5.238
 5933TIP3    H117763   2.010   2.483   5.334
 5933TIP3    H217764   1.923   2.512   5.213
 5934TIP3   OH217765   6.936   2.819   0.955
 5934TIP3    H117766   7.017   2.778   0.926
 5934TIP3    H217767   6.948   2.912   0.935
 5935TIP3   OH217768   1.254   4.216   4.296
 5935TIP3    H117769   1.304   4.230   4.376
 5935TIP3    H217770   1.285   4.284   4.236
 5936TIP3   OH217771   1.835   0.894   1.328
 5936TIP3    H117772   1.877   0.892   1.242
 5936TIP3    H217773   1.898   0.941   1.384
 5937TIP3   OH217774   0.869   0.764   5.315
 5937TIP3    H117775   0.865   0.857   5.339
 5937TIP3    H217776   0.890   0.719   5.397
 5938TIP3   OH217777   6.822   1.288   1.562
 5938TIP3    H117778   6.827   1.351   1.634
 5938TIP3    H217779   6.806   1.341   1.484
 5939TIP3   OH217780   0.272   5.903   0.810
 5939TIP3    H117781   0.354   5.934   0.848
 5939TIP3    H217782   0.205   5.958   0.851
 5940TIP3   OH217783   3.815   4.202   2.100
 5940TIP3    H117784   3.723   4.187   2.122
 5940TIP3    H217785   3.813   4.237   2.011
 5941TIP3   OH217786   2.415   6.624   3.945
 5941TIP3    H117787   2.433   6.532   3.966
 5941TIP3    H217788   2.364   6.656   4.020
 5942TIP3   OH217789   1.307   3.810   5.531
 5942TIP3    H117790   1.377   3.782   5.472
 5942TIP3    H217791   1.245   3.737   5.529
 5943TIP3   OH217792   0.421   5.023   4.621
 5943TIP3    H117793   0.357   4.953   4.635
 5943TIP3    H217794   0.506   4.979   4.633
 5944TIP3   OH217795   0.403   4.264   4.783
 5944TIP3    H117796   0.466   4.258   4.710
 5944TIP3    H217797   0.373   4.355   4.780
 5945TIP3   OH217798   4.999   6.307   3.231
 5945TIP3    H117799   5.011   6.342   3.143
 5945TIP3    H217800   5.057   6.360   3.286
 5946TIP3   OH217801   1.635   5.318   5.744
 5946TIP3    H117802   1.581   5.273   5.680
 5946TIP3    H217803   1.574   5.343   5.814
 5947TIP3   OH217804   2.216   0.993   1.853
 5947TIP3    H117805   2.261   1.028   1.776
 5947TIP3    H217806   2.156   1.063   1.879
 5948TIP3   OH217807   0.131   2.353   2.044
 5948TIP3    H117808   0.153   2.382   1.956
 5948TIP3    H217809   0.037   2.335   2.041
 5949TIP3   OH217810   0.189   2.288   1.773
 5949TIP3    H117811   0.279   2.263   1.796
 5949TIP3    H217812   0.140   2.206   1.777
 5950TIP3   OH217813   4.794   5.847   2.480
 5950TIP3    H117814   4.865   5.785   2.497
 5950TIP3    H217815   4.737   5.801   2.418
 5951TIP3   OH217816   0.229   5.632   0.874
 5951TIP3    H117817   0.277   5.712   0.854
 5951TIP3    H217818   0.150   5.663   0.920
 5952TIP3   OH217819   0.680   6.342   1.807
 5952TIP3    H117820   0.662   6.329   1.900
 5952TIP3    H217821   0.744   6.413   1.805
 5953TIP3   OH217822   4.075   5.764   1.391
 5953TIP3    H117823   4.024   5.803   1.462
 5953TIP3    H217824   4.140   5.710   1.436
 5954TIP3   OH217825   6.011   0.559   2.706
 5954TIP3    H117826   5.927   0.515   2.702
 5954TIP3    H217827   5.998   0.629   2.771
 5955TIP3   OH217828   6.165   2.994   0.089
 5955TIP3    H117829   6.098   2.986   0.022
 5955TIP3    H217830   6.136   3.066   0.144
 5956TIP3   OH217831   3.466   0.453   2.113
 5956TIP3    H117832   3.498   0.368   2.143
 5956TIP3    H217833   3.444   0.440   2.021
 5957TIP3   OH217834   2.440   2.487   5.190
 5957TIP3    H117835   2.444   2.578   5.218
 5957TIP3    H217836   2.454   2.490   5.095
 5958TIP3   OH217837   1.587   4.891   3.762
 5958TIP3    H117838   1.627   4.929   3.684
 5958TIP3    H217839   1.510   4.844   3.729
 5959TIP3   OH217840   1.537   0.597   2.317
 5959TIP3    H117841   1.565   0.550   2.396
 5959TIP3    H217842   1.612   0.593   2.258
 5960TIP3   OH217843   6.678   2.238   3.911
 5960TIP3    H117844   6.758   2.209   3.954
 5960TIP3    H217845   6.697   2.228   3.817
 5961TIP3   OH217846   4.906   3.974   1.517
 5961TIP3    H117847   4.953   3.981   1.601
 5961TIP3    H217848   4.817   4.001   1.537
 5962TIP3   OH217849   6.350   1.881   1.454
 5962TIP3    H117850   6.299   1.915   1.381
 5962TIP3    H217851   6.391   1.802   1.419
 5963TIP3   OH217852   5.043   3.824   2.729
 5963TIP3    H117853   4.972   3.850   2.670
 5963TIP3    H217854   5.093   3.904   2.743
 5964TIP3   OH217855   6.779   4.008   2.415
 5964TIP3    H117856   6.805   3.918   2.399
 5964TIP3    H217857   6.861   4.057   2.416
 5965TIP3   OH217858   6.542   5.910   3.217
 5965TIP3    H117859   6.637   5.907   3.208
 5965TIP3    H217860   6.526   5.876   3.305
 5966TIP3   OH217861   0.387   0.309   4.564
 5966TIP3    H117862   0.454   0.325   4.498
 5966TIP3    H217863   0.340   0.392   4.573
 5967TIP3   OH217864   3.136   6.242   2.515
 5967TIP3    H117865   3.085   6.273   2.590
 5967TIP3    H217866   3.109   6.151   2.503
 5968TIP3   OH217867   3.252   1.806   4.448
 5968TIP3    H117868   3.267   1.767   4.535
 5968TIP3    H217869   3.158   1.819   4.443
 5969TIP3   OH217870   3.816   6.021   1.847
 5969TIP3    H117871   3.743   5.998   1.905
 5969TIP3    H217872   3.776   6.077   1.780
 5970TIP3   OH217873   1.890   5.970   1.353
 5970TIP3    H117874   1.901   6.055   1.395
 5970TIP3    H217875   1.816   5.930   1.397
 5971TIP3   OH217876   5.285   1.645   5.636
 5971TIP3    H117877   5.336   1.596   5.700
 5971TIP3    H217878   5.339   1.644   5.557
 5972TIP3   OH217879   5.711   5.826   1.787
 5972TIP3    H117880   5.742   5.749   1.836
 5972TIP3    H217881   5.743   5.812   1.698
 5973TIP3   OH217882   4.402   6.383   3.410
 5973TIP3    H117883   4.344   6.455   3.386
 5973TIP3    H217884   4.362   6.305   3.371
 5974TIP3   OH217885   3.078   5.050   4.437
 5974TIP3    H117886   2.990   5.059   4.402
 5974TIP3    H217887   3.133   5.033   4.360
 5975TIP3   OH217888   0.255   1.536   5.362
 5975TIP3    H117889   0.196   1.461   5.348
 5975TIP3    H217890   0.286   1.558   5.274
 5976TIP3   OH217891   3.646   0.024   0.948
 5976TIP3    H117892   3.583   0.094   0.966
 5976TIP3    H217893   3.720   0.068   0.908
 5977TIP3   OH217894   5.685   1.331   3.884
 5977TIP3    H117895   5.660   1.368   3.968
 5977TIP3    H217896   5.634   1.249   3.878
 5978TIP3   OH217897   7.055   5.293   5.834
 5978TIP3    H117898   7.097   5.322   5.754
 5978TIP3    H217899   6.962   5.308   5.819
 5979TIP3   OH217900   3.193   2.045   5.412
 5979TIP3    H117901   3.131   2.037   5.485
 5979TIP3    H217902   3.140   2.079   5.340
 5980TIP3   OH217903   1.313   4.038   5.709
 5980TIP3    H117904   1.384   4.099   5.689
 5980TIP3    H217905   1.325   3.965   5.648
 5981TIP3   OH217906   1.408   1.597   2.337
 5981TIP3    H117907   1.479   1.565   2.281
 5981TIP3    H217908   1.451   1.658   2.396
 5982TIP3   OH217909   6.993   3.350   3.760
 5982TIP3    H117910   6.934   3.410   3.714
 5982TIP3    H217911   7.074   3.352   3.710
 5983TIP3   OH217912   6.352   3.528   5.209
 5983TIP3    H117913   6.337   3.539   5.115
 5983TIP3    H217914   6.334   3.614   5.246
 5984TIP3   OH217915   3.607   5.967   4.554
 5984TIP3    H117916   3.587   6.033   4.487
 5984TIP3    H217917   3.610   6.016   4.636
 5985TIP3   OH217918   4.620   3.188   5.147
 5985TIP3    H117919   4.607   3.267   5.200
 5985TIP3    H217920   4.554   3.127   5.180
 5986TIP3   OH217921   1.963   6.207   1.479
 5986TIP3    H117922   2.050   6.170   1.463
 5986TIP3    H217923   1.969   6.244   1.567
 5987TIP3   OH217924   5.341   1.322   5.445
 5987TIP3    H117925   5.374   1.410   5.428
 5987TIP3    H217926   5.268   1.335   5.505
 5988TIP3   OH217927   6.004   3.702   5.616
 5988TIP3    H117928   6.090   3.697   5.658
 5988TIP3    H217929   5.955   3.766   5.668
 5989TIP3   OH217930   1.104   0.640   5.479
 5989TIP3    H117931   1.056   0.710   5.524
 5989TIP3    H217932   1.184   0.681   5.447
 5990TIP3   OH217933   6.828   3.777   5.467
 5990TIP3    H117934   6.843   3.700   5.521
 5990TIP3    H217935   6.824   3.743   5.377
 5991TIP3   OH217936   2.508   1.546   1.513
 5991TIP3    H117937   2.547   1.559   1.599
 5991TIP3    H217938   2.469   1.631   1.492
 5992TIP3   OH217939   3.281   2.378   4.221
 5992TIP3    H117940   3.358   2.334   4.185
 5992TIP3    H217941   3.317   2.440   4.284
 5993TIP3   OH217942   1.833   4.695   5.570
 5993TIP3    H117943   1.869   4.705   5.658
 5993TIP3    H217944   1.762   4.759   5.566
 5994TIP3   OH217945   6.360   0.464   1.784
 5994TIP3    H117946   6.400   0.446   1.698
 5994TIP3    H217947   6.266   0.468   1.766
 5995TIP3   OH217948   2.190   3.938   3.861
 5995TIP3    H117949   2.108   3.923   3.908
 5995TIP3    H217950   2.198   3.864   3.801
 5996TIP3   OH217951   5.336   3.586   1.006
 5996TIP3    H117952   5.267   3.520   0.993
 5996TIP3    H217953   5.299   3.667   0.970
 5997TIP3   OH217954   7.202   3.815   2.932
 5997TIP3    H117955   7.262   3.757   2.885
 5997TIP3    H217956   7.257   3.860   2.996
 5998TIP3   OH217957   4.085   5.390   4.459
 5998TIP3    H117958   4.031   5.469   4.454
 5998TIP3    H217959   4.039   5.326   4.405
 5999TIP3   OH217960   1.632   3.706   2.695
 5999TIP3    H117961   1.632   3.796   2.662
 5999TIP3    H217962   1.703   3.704   2.758
 6000TIP3   OH217963   2.039   6.674   4.199
 6000TIP3    H117964   1.954   6.644   4.233
 6000TIP3    H217965   2.069   6.738   4.263
 6001TIP3   OH217966   0.813   5.488   3.632
 6001TIP3    H117967   0.905   5.464   3.625
 6001TIP3    H217968   0.766   5.411   3.600
 6002TIP3   OH217969   4.966   5.007   4.227
 6002TIP3    H117970   4.972   5.030   4.134
 6002TIP3    H217971   5.012   5.077   4.273
 6003TIP3   OH217972   2.230   2.136   1.539
 6003TIP3    H117973   2.209   2.052   1.498
 6003TIP3    H217974   2.150   2.160   1.586
 6004TIP3   OH217975   0.747   0.873   1.140
 6004TIP3    H117976   0.662   0.891   1.180
 6004TIP3    H217977   0.727   0.858   1.048
 6005TIP3   OH217978   2.510   4.172   4.446
 6005TIP3    H117979   2.437   4.124   4.408
 6005TIP3    H217980   2.513   4.143   4.537
 6006TIP3   OH217981   5.156   2.584   5.123
 6006TIP3    H117982   5.236   2.612   5.166
 6006TIP3    H217983   5.086   2.630   5.169
 6007TIP3   OH217984   6.009   2.308   1.208
 6007TIP3    H117985   5.916   2.286   1.196
 6007TIP3    H217986   6.010   2.368   1.283
 6008TIP3   OH217987   0.498   0.445   2.136
 6008TIP3    H117988   0.405   0.452   2.114
 6008TIP3    H217989   0.500   0.435   2.231
 6009TIP3   OH217990   4.884   0.109   4.350
 6009TIP3    H117991   4.850   0.118   4.439
 6009TIP3    H217992   4.976   0.135   4.357
 6010TIP3   OH217993   0.950   0.495   3.756
 6010TIP3    H117994   0.958   0.422   3.695
 6010TIP3    H217995   0.987   0.570   3.708
 6011TIP3   OH217996   4.286   0.726   4.649
 6011TIP3    H117997   4.333   0.808   4.630
 6011TIP3    H217998   4.353   0.667   4.681
 6012TIP3   OH217999   5.575   4.997   1.499
 6012TIP3    H118000   5.615   5.008   1.586
 6012TIP3    H218001   5.512   5.069   1.493
 6013TIP3   OH218002   3.913   0.683   0.452
 6013TIP3    H118003   3.951   0.771   0.450
 6013TIP3    H218004   3.973   0.632   0.506
 6014TIP3   OH218005   2.211   4.457   4.249
 6014TIP3    H118006   2.256   4.375   4.226
 6014TIP3    H218007   2.267   4.498   4.315
 6015TIP3   OH218008   0.527   4.299   2.524
 6015TIP3    H118009   0.593   4.301   2.455
 6015TIP3    H218010   0.534   4.211   2.562
 6016TIP3   OH218011   3.431   3.864   4.325
 6016TIP3    H118012   3.347   3.842   4.283
 6016TIP3    H218013   3.492   3.874   4.252
 6017TIP3   OH218014   5.515   4.634   3.561
 6017TIP3    H118015   5.517   4.553   3.510
 6017TIP3    H218016   5.467   4.696   3.505
 6018TIP3   OH218017   2.958   6.416   5.113
 6018TIP3    H118018   2.870   6.407   5.076
 6018TIP3    H218019   2.992   6.326   5.114
 6019TIP3   OH218020   6.826   2.220   3.372
 6019TIP3    H118021   6.915   2.192   3.355
 6019TIP3    H218022   6.777   2.139   3.387
 6020TIP3   OH218023   3.825   2.805   3.092
 6020TIP3    H118024   3.872   2.886   3.072
 6020TIP3    H218025   3.778   2.784   3.012
 6021TIP3   OH218026   5.174   1.782   4.982
 6021TIP3    H118027   5.247   1.839   4.957
 6021TIP3    H218028   5.189   1.701   4.934
 6022TIP3   OH218029   0.711   4.007   0.063
 6022TIP3    H118030   0.729   3.939  -0.002
 6022TIP3    H218031   0.758   3.979   0.141
 6023TIP3   OH218032   6.185   5.197   1.663
 6023TIP3    H118033   6.145   5.149   1.591
 6023TIP3    H218034   6.167   5.289   1.644
 6024TIP3   OH218035   3.036   5.952   2.407
 6024TIP3    H118036   2.967   5.974   2.469
 6024TIP3    H218037   3.012   5.865   2.375
 6025TIP3   OH218038   1.080   4.463   4.385
 6025TIP3    H118039   1.168   4.497   4.405
 6025TIP3    H218040   1.042   4.442   4.471
 6026TIP3   OH218041   0.831   0.086   2.448
 6026TIP3    H118042   0.785   0.117   2.526
 6026TIP3    H218043   0.924   0.087   2.473
 6027TIP3   OH218044   7.158   3.287   4.704
 6027TIP3    H118045   7.162   3.201   4.745
 6027TIP3    H218046   7.113   3.342   4.768
 6028TIP3   OH218047   1.731   0.114   4.319
 6028TIP3    H118048   1.672   0.173   4.272
 6028TIP3    H218049   1.706   0.027   4.288
 6029TIP3   OH218050   0.093   2.684   2.225
 6029TIP3    H118051   0.013   2.694   2.173
 6029TIP3    H218052   0.064   2.695   2.315
 6030TIP3   OH218053  -0.010   2.877   5.426
 6030TIP3    H118054  -0.010   2.885   5.521
 6030TIP3    H218055   0.075   2.839   5.405
 6031TIP3   OH218056   4.421   6.568   0.595
 6031TIP3    H118057   4.433   6.570   0.500
 6031TIP3    H218058   4.499   6.526   0.629
 6032TIP3   OH218059   1.418   0.244   5.061
 6032TIP3    H118060   1.449   0.243   4.971
 6032TIP3    H218061   1.332   0.202   5.058
 6033TIP3   OH218062   7.063   1.289   3.850
 6033TIP3    H118063   7.101   1.221   3.906
 6033TIP3    H218064   7.123   1.296   3.776
 6034TIP3   OH218065   4.661   0.133   2.194
 6034TIP3    H118066   4.654   0.038   2.195
 6034TIP3    H218067   4.728   0.151   2.128
 6035TIP3   OH218068   2.013   3.652   3.369
 6035TIP3    H118069   1.922   3.681   3.359
 6035TIP3    H218070   2.034   3.606   3.288
 6036TIP3   OH218071   4.020   6.165   1.628
 6036TIP3    H118072   4.060   6.175   1.714
 6036TIP3    H218073   3.960   6.239   1.620
 6037TIP3   OH218074   3.770   4.230   3.378
 6037TIP3    H118075   3.754   4.291   3.306
 6037TIP3    H218076   3.707   4.159   3.364
 6038TIP3   OH218077   6.018   3.940   0.773
 6038TIP3    H118078   5.957   3.868   0.759
 6038TIP3    H218079   6.037   3.938   0.867
 6039TIP3   OH218080   6.561   5.913   0.989
 6039TIP3    H118081   6.500   5.978   1.026
 6039TIP3    H218082   6.648   5.950   1.005
 6040TIP3   OH218083   7.085   6.123   2.920
 6040TIP3    H118084   7.175   6.097   2.902
 6040TIP3    H218085   7.091   6.211   2.956
 6041TIP3   OH218086   4.569   0.141   3.542
 6041TIP3    H118087   4.538   0.117   3.630
 6041TIP3    H218088   4.664   0.144   3.551
 6042TIP3   OH218089   4.581   2.779   3.170
 6042TIP3    H118090   4.549   2.689   3.170
 6042TIP3    H218091   4.631   2.786   3.251
 6043TIP3   OH218092   1.967   5.192   0.031
 6043TIP3    H118093   2.054   5.229   0.044
 6043TIP3    H218094   1.944   5.155   0.116
 6044TIP3   OH218095   5.719   4.433   4.084
 6044TIP3    H118096   5.720   4.412   4.178
 6044TIP3    H218097   5.639   4.392   4.051
 6045TIP3   OH218098   3.107   1.198   3.268
 6045TIP3    H118099   3.133   1.212   3.359
 6045TIP3    H218100   3.177   1.143   3.232
 6046TIP3   OH218101   0.302   6.051   1.911
 6046TIP3    H118102   0.228   5.998   1.942
 6046TIP3    H218103   0.352   6.070   1.991
 6047TIP3   OH218104   1.652   6.572   5.640
 6047TIP3    H118105   1.692   6.532   5.717
 6047TIP3    H218106   1.576   6.517   5.621
 6048TIP3   OH218107   3.012   1.404   5.029
 6048TIP3    H118108   2.980   1.314   5.025
 6048TIP3    H218109   2.960   1.446   5.097
 6049TIP3   OH218110   3.720   2.840   1.903
 6049TIP3    H118111   3.713   2.868   1.812
 6049TIP3    H218112   3.632   2.808   1.925
 6050TIP3   OH218113   1.484   3.079   3.746
 6050TIP3    H118114   1.573   3.044   3.750
 6050TIP3    H218115   1.427   3.003   3.757
 6051TIP3   OH218116   4.944   6.693   2.229
 6051TIP3    H118117   4.982   6.750   2.162
 6051TIP3    H218118   4.966   6.735   2.312
 6052TIP3   OH218119   3.990   0.852   5.580
 6052TIP3    H118120   3.948   0.807   5.507
 6052TIP3    H218121   3.926   0.917   5.608
 6053TIP3   OH218122   6.349   5.220   2.206
 6053TIP3    H118123   6.307   5.135   2.193
 6053TIP3    H218124   6.296   5.281   2.155
 6054TIP3   OH218125   2.718   2.290   1.596
 6054TIP3    H118126   2.657   2.257   1.661
 6054TIP3    H218127   2.667   2.355   1.547
 6055TIP3   OH218128   5.630   4.861   5.802
 6055TIP3    H118129   5.704   4.844   5.861
 6055TIP3    H218130   5.582   4.778   5.801
 6056TIP3   OH218131   0.149   2.501   5.602
 6056TIP3    H118132   0.228   2.526   5.554
 6056TIP3    H218133   0.085   2.568   5.580
 6057TIP3   OH218134   4.887   0.280   3.758
 6057TIP3    H118135   4.903   0.360   3.707
 6057TIP3    H218136   4.882   0.210   3.692
 6058TIP3   OH218137   4.370   2.679   0.578
 6058TIP3    H118138   4.445   2.676   0.637
 6058TIP3    H218139   4.339   2.770   0.583
 6059TIP3   OH218140   4.907   2.381   4.104
 6059TIP3    H118141   4.842   2.408   4.169
 6059TIP3    H218142   4.991   2.391   4.149
 6060TIP3   OH218143   5.317   2.284   2.955
 6060TIP3    H118144   5.326   2.329   2.871
 6060TIP3    H218145   5.360   2.341   3.018
 6061TIP3   OH218146   3.182   6.355   3.578
 6061TIP3    H118147   3.107   6.388   3.529
 6061TIP3    H218148   3.183   6.261   3.559
 6062TIP3   OH218149   2.143   1.666   2.228
 6062TIP3    H118150   2.050   1.670   2.250
 6062TIP3    H218151   2.145   1.677   2.133
 6063TIP3   OH218152   4.576   3.431   5.285
 6063TIP3    H118153   4.547   3.507   5.234
 6063TIP3    H218154   4.550   3.451   5.375
 6064TIP3   OH218155   5.069   0.988   5.067
 6064TIP3    H118156   5.105   0.902   5.088
 6064TIP3    H218157   5.106   1.047   5.134
 6065TIP3   OH218158   6.241   5.075   4.106
 6065TIP3    H118159   6.305   5.044   4.042
 6065TIP3    H218160   6.204   5.154   4.066
 6066TIP3   OH218161   3.001   0.730   4.818
 6066TIP3    H118162   3.062   0.748   4.746
 6066TIP3    H218163   2.929   0.682   4.776
 6067TIP3   OH218164   6.597   1.325   5.175
 6067TIP3    H118165   6.659   1.306   5.105
 6067TIP3    H218166   6.573   1.240   5.211
 6068TIP3   OH218167   4.838   4.942   1.101
 6068TIP3    H118168   4.891   4.926   1.023
 6068TIP3    H218169   4.818   4.854   1.134
 6069TIP3   OH218170   4.979   3.872   5.435
 6069TIP3    H118171   4.927   3.951   5.444
 6069TIP3    H218172   4.931   3.819   5.370
 6070TIP3   OH218173   0.002   3.440   3.646
 6070TIP3    H118174   0.088   3.416   3.611
 6070TIP3    H218175   0.015   3.527   3.682
 6071TIP3   OH218176   6.980   0.158   4.677
 6071TIP3    H118177   6.985   0.117   4.764
 6071TIP3    H218178   6.919   0.230   4.688
 6072TIP3   OH218179   3.905   0.827   1.212
 6072TIP3    H118180   3.883   0.761   1.146
 6072TIP3    H218181   3.987   0.864   1.182
 6073TIP3   OH218182   0.820   3.770   3.113
 6073TIP3    H118183   0.792   3.823   3.187
 6073TIP3    H218184   0.895   3.720   3.146
 6074TIP3   OH218185   5.287   6.553   5.458
 6074TIP3    H118186   5.312   6.461   5.457
 6074TIP3    H218187   5.214   6.558   5.396
 6075TIP3   OH218188   0.544   1.125   0.324
 6075TIP3    H118189   0.516   1.087   0.241
 6075TIP3    H218190   0.470   1.178   0.353
 6076TIP3   OH218191   4.172   1.016   2.745
 6076TIP3    H118192   4.143   1.005   2.835
 6076TIP3    H218193   4.221   1.099   2.745
 6077TIP3   OH218194   1.844   6.289   2.463
 6077TIP3    H118195   1.805   6.233   2.529
 6077TIP3    H218196   1.770   6.337   2.425
 6078TIP3   OH218197   5.770   1.591   2.556
 6078TIP3    H118198   5.803   1.679   2.574
 6078TIP3    H218199   5.772   1.584   2.460
 6079TIP3   OH218200   3.698   3.014   2.706
 6079TIP3    H118201   3.606   3.012   2.679
 6079TIP3    H218202   3.707   3.097   2.753
 6080TIP3   OH218203   3.706   0.972   1.765
 6080TIP3    H118204   3.763   0.967   1.842
 6080TIP3    H218205   3.719   0.888   1.720
 6081TIP3   OH218206   6.895   0.223   3.706
 6081TIP3    H118207   6.849   0.164   3.646
 6081TIP3    H218208   6.904   0.173   3.787
 6082TIP3   OH218209   2.242   2.040   3.691
 6082TIP3    H118210   2.281   1.980   3.627
 6082TIP3    H218211   2.176   1.987   3.737
 6083TIP3   OH218212   2.333   6.395   0.944
 6083TIP3    H118213   2.353   6.455   0.872
 6083TIP3    H218214   2.418   6.356   0.967
 6084TIP3   OH218215   3.887   6.152   3.366
 6084TIP3    H118216   3.880   6.070   3.317
 6084TIP3    H218217   3.981   6.167   3.374
 6085TIP3   OH218218   0.316   2.081   4.792
 6085TIP3    H118219   0.339   2.095   4.884
 6085TIP3    H218220   0.234   2.031   4.796
 6086TIP3   OH218221   1.784   3.747   3.292
 6086TIP3    H118222   1.760   3.692   3.217
 6086TIP3    H218223   1.705   3.750   3.346
 6087TIP3   OH218224   0.541   5.432   0.416
 6087TIP3    H118225   0.570   5.457   0.328
 6087TIP3    H218226   0.528   5.515   0.462
 6088TIP3   OH218227   3.133   4.035   2.546
 6088TIP3    H118228   3.079   3.973   2.496
 6088TIP3    H218229   3.164   3.985   2.621
 6089TIP3   OH218230   2.565   4.396   3.074
 6089TIP3    H118231   2.481   4.390   3.118
 6089TIP3    H218232   2.592   4.305   3.061
 6090TIP3   OH218233   1.060   2.229   0.127
 6090TIP3    H118234   1.128   2.191   0.183
 6090TIP3    H218235   1.009   2.285   0.186
 6091TIP3   OH218236   1.466   2.322   4.642
 6091TIP3    H118237   1.451   2.228   4.649
 6091TIP3    H218238   1.488   2.350   4.731
 6092TIP3   OH218239   3.051   5.359   4.241
 6092TIP3    H118240   3.024   5.379   4.151
 6092TIP3    H218241   2.970   5.362   4.292
 6093TIP3   OH218242   6.760   2.554   3.778
 6093TIP3    H118243   6.764   2.461   3.799
 6093TIP3    H218244   6.827   2.567   3.711
 6094TIP3   OH218245   6.280   3.178   1.415
 6094TIP3    H118246   6.364   3.180   1.461
 6094TIP3    H218247   6.217   3.150   1.482
 6095TIP3   OH218248   5.024   0.506   3.390
 6095TIP3    H118249   5.091   0.438   3.388
 6095TIP3    H218250   4.972   0.491   3.311
 6096TIP3   OH218251   6.429   3.878   1.180
 6096TIP3    H118252   6.470   3.949   1.129
 6096TIP3    H218253   6.368   3.923   1.238
 6097TIP3   OH218254   6.326   6.146   4.390
 6097TIP3    H118255   6.319   6.241   4.379
 6097TIP3    H218256   6.248   6.112   4.346
 6098TIP3   OH218257   7.156   3.656   4.099
 6098TIP3    H118258   7.083   3.704   4.058
 6098TIP3    H218259   7.125   3.566   4.104
 6099TIP3   OH218260   4.036   3.925   3.325
 6099TIP3    H118261   4.047   4.019   3.309
 6099TIP3    H218262   4.075   3.883   3.248
 6100TIP3   OH218263   1.477   2.501   0.316
 6100TIP3    H118264   1.387   2.527   0.294
 6100TIP3    H218265   1.513   2.575   0.364
 6101TIP3   OH218266   4.227   4.143   1.602
 6101TIP3    H118267   4.258   4.155   1.512
 6101TIP3    H218268   4.296   4.182   1.656
 6102TIP3   OH218269   5.249   2.399   1.793
 6102TIP3    H118270   5.155   2.415   1.799
 6102TIP3    H218271   5.266   2.331   1.858
 6103TIP3   OH218272   2.225   3.383   5.657
 6103TIP3    H118273   2.292   3.452   5.660
 6103TIP3    H218274   2.203   3.375   5.564
 6104TIP3   OH218275   1.755   3.239   0.901
 6104TIP3    H118276   1.841   3.224   0.939
 6104TIP3    H218277   1.758   3.328   0.868
 6105TIP3   OH218278   3.403   0.081   5.344
 6105TIP3    H118279   3.391   0.162   5.393
 6105TIP3    H218280   3.370   0.101   5.256
 6106TIP3   OH218281   5.065   6.201   2.984
 6106TIP3    H118282   5.128   6.202   2.912
 6106TIP3    H218283   4.992   6.254   2.953
 6107TIP3   OH218284   5.677   1.264   2.874
 6107TIP3    H118285   5.684   1.260   2.779
 6107TIP3    H218286   5.582   1.262   2.891
 6108TIP3   OH218287   3.416   1.855   3.908
 6108TIP3    H118288   3.325   1.825   3.911
 6108TIP3    H218289   3.423   1.917   3.980
 6109TIP3   OH218290   3.623   0.691   1.253
 6109TIP3    H118291   3.616   0.624   1.186
 6109TIP3    H218292   3.694   0.748   1.223
 6110TIP3   OH218293   1.459   2.647   5.757
 6110TIP3    H118294   1.431   2.715   5.818
 6110TIP3    H218295   1.401   2.656   5.682
 6111TIP3   OH218296   3.446   0.340   2.999
 6111TIP3    H118297   3.458   0.387   3.081
 6111TIP3    H218298   3.492   0.393   2.934
 6112TIP3   OH218299   4.812   1.662   2.915
 6112TIP3    H118300   4.762   1.742   2.931
 6112TIP3    H218301   4.903   1.687   2.927
 6113TIP3   OH218302   5.449   3.702   4.765
 6113TIP3    H118303   5.543   3.693   4.782
 6113TIP3    H218304   5.417   3.754   4.838
 6114TIP3   OH218305   0.401   6.003   2.619
 6114TIP3    H118306   0.398   5.962   2.533
 6114TIP3    H218307   0.475   6.063   2.614
 6115TIP3   OH218308   2.218   4.392   4.583
 6115TIP3    H118309   2.181   4.331   4.519
 6115TIP3    H218310   2.143   4.417   4.637
 6116TIP3   OH218311   1.303   1.621   4.388
 6116TIP3    H118312   1.273   1.566   4.316
 6116TIP3    H218313   1.386   1.658   4.357
 6117TIP3   OH218314   0.762   2.976   2.830
 6117TIP3    H118315   0.753   2.950   2.739
 6117TIP3    H218316   0.709   2.913   2.879
 6118TIP3   OH218317   3.171   4.857   1.310
 6118TIP3    H118318   3.115   4.876   1.235
 6118TIP3    H218319   3.260   4.876   1.279
 6119TIP3   OH218320   0.774   6.224   0.134
 6119TIP3    H118321   0.795   6.202   0.224
 6119TIP3    H218322   0.790   6.319   0.128
 6120TIP3   OH218323   5.867   2.275   4.794
 6120TIP3    H118324   5.952   2.273   4.751
 6120TIP3    H218325   5.829   2.359   4.767
 6121TIP3   OH218326   0.224   4.347   2.586
 6121TIP3    H118327   0.266   4.298   2.515
 6121TIP3    H218328   0.234   4.291   2.663
 6122TIP3   OH218329   2.508   1.062   4.986
 6122TIP3    H118330   2.548   1.134   5.034
 6122TIP3    H218331   2.567   1.044   4.914
 6123TIP3   OH218332   3.565   2.979   1.222
 6123TIP3    H118333   3.606   3.060   1.191
 6123TIP3    H218334   3.486   3.008   1.268
 6124TIP3   OH218335   2.455   3.170   0.501
 6124TIP3    H118336   2.445   3.162   0.596
 6124TIP3    H218337   2.505   3.251   0.490
 6125TIP3   OH218338   3.049   6.023   4.858
 6125TIP3    H118339   2.984   5.953   4.854
 6125TIP3    H218340   3.092   6.021   4.773
 6126TIP3   OH218341   5.215   1.637   2.417
 6126TIP3    H118342   5.153   1.683   2.474
 6126TIP3    H218343   5.182   1.547   2.413
 6127TIP3   OH218344   6.018   6.563   1.557
 6127TIP3    H118345   6.057   6.493   1.503
 6127TIP3    H218346   6.064   6.642   1.530
 6128TIP3   OH218347   3.315   2.934   5.182
 6128TIP3    H118348   3.348   2.844   5.187
 6128TIP3    H218349   3.352   2.969   5.101
 6129TIP3   OH218350   0.953   6.611   3.049
 6129TIP3    H118351   1.032   6.557   3.050
 6129TIP3    H218352   0.899   6.573   2.980
 6130TIP3   OH218353   4.778   1.231   2.865
 6130TIP3    H118354   4.865   1.214   2.829
 6130TIP3    H218355   4.794   1.280   2.946
 6131TIP3   OH218356   3.690   3.124   4.412
 6131TIP3    H118357   3.619   3.091   4.466
 6131TIP3    H218358   3.650   3.142   4.327
 6132TIP3   OH218359   4.890   6.216   4.265
 6132TIP3    H118360   4.814   6.178   4.309
 6132TIP3    H218361   4.860   6.233   4.176
 6133TIP3   OH218362   2.323   0.195   2.031
 6133TIP3    H118363   2.414   0.170   2.049
 6133TIP3    H218364   2.297   0.246   2.108
 6134TIP3   OH218365   4.865   2.092   2.309
 6134TIP3    H118366   4.884   2.006   2.348
 6134TIP3    H218367   4.789   2.124   2.358
 6135TIP3   OH218368   5.395   3.562   1.782
 6135TIP3    H118369   5.482   3.574   1.744
 6135TIP3    H218370   5.344   3.522   1.711
 6136TIP3   OH218371   4.708   5.007   3.009
 6136TIP3    H118372   4.790   4.958   3.016
 6136TIP3    H218373   4.706   5.059   3.090
 6137TIP3   OH218374   1.217   5.189   4.472
 6137TIP3    H118375   1.294   5.227   4.428
 6137TIP3    H218376   1.165   5.265   4.498
 6138TIP3   OH218377   2.220   3.957   0.821
 6138TIP3    H118378   2.237   3.875   0.774
 6138TIP3    H218379   2.299   3.973   0.872
 6139TIP3   OH218380   4.753   6.519   2.313
 6139TIP3    H118381   4.802   6.597   2.286
 6139TIP3    H218382   4.670   6.554   2.347
 6140TIP3   OH218383   6.299   0.375   0.030
 6140TIP3    H118384   6.386   0.365   0.069
 6140TIP3    H218385   6.266   0.458   0.064
 6141TIP3   OH218386   0.428   6.477   5.101
 6141TIP3    H118387   0.455   6.564   5.132
 6141TIP3    H218388   0.361   6.450   5.164
 6142TIP3   OH218389   0.662   4.467   2.095
 6142TIP3    H118390   0.610   4.544   2.116
 6142TIP3    H218391   0.613   4.424   2.025
 6143TIP3   OH218392   3.934   4.620   0.063
 6143TIP3    H118393   3.911   4.712   0.056
 6143TIP3    H218394   4.025   4.616   0.032
 6144TIP3   OH218395   2.567   6.109   2.145
 6144TIP3    H118396   2.561   6.205   2.144
 6144TIP3    H218397   2.660   6.092   2.130
 6145TIP3   OH218398   3.195   0.360   3.445
 6145TIP3    H118399   3.102   0.338   3.435
 6145TIP3    H218400   3.237   0.278   3.468
 6146TIP3   OH218401   5.231   3.398   3.756
 6146TIP3    H118402   5.260   3.474   3.806
 6146TIP3    H218403   5.269   3.323   3.801
 6147TIP3   OH218404   0.526   3.706   0.998
 6147TIP3    H118405   0.613   3.692   0.960
 6147TIP3    H218406   0.468   3.657   0.940
 6148TIP3   OH218407   0.173   0.745   1.889
 6148TIP3    H118408   0.156   0.812   1.823
 6148TIP3    H218409   0.268   0.736   1.891
 6149TIP3   OH218410   0.552   2.698   3.561
 6149TIP3    H118411   0.506   2.782   3.553
 6149TIP3    H218412   0.635   2.721   3.604
 6150TIP3   OH218413   3.455   4.373   5.048
 6150TIP3    H118414   3.435   4.325   4.968
 6150TIP3    H218415   3.371   4.385   5.091
 6151TIP3   OH218416   2.035   0.980   5.229
 6151TIP3    H118417   1.946   1.016   5.226
 6151TIP3    H218418   2.074   1.020   5.307
 6152TIP3   OH218419   7.033   1.673   3.247
 6152TIP3    H118420   7.031   1.681   3.151
 6152TIP3    H218421   7.122   1.697   3.271
 6153TIP3   OH218422   2.642   1.694   4.978
 6153TIP3    H118423   2.563   1.642   4.961
 6153TIP3    H218424   2.637   1.766   4.916
 6154TIP3   OH218425   6.784   3.850   2.640
 6154TIP3    H118426   6.753   3.922   2.585
 6154TIP3    H218427   6.871   3.878   2.668
 6155TIP3   OH218428   1.544   4.505   1.886
 6155TIP3    H118429   1.620   4.558   1.863
 6155TIP3    H218430   1.482   4.568   1.923
 6156TIP3   OH218431   6.237   4.182   4.805
 6156TIP3    H118432   6.293   4.224   4.740
 6156TIP3    H218433   6.297   4.155   4.874
 6157TIP3   OH218434   6.357   4.584   1.520
 6157TIP3    H118435   6.319   4.567   1.434
 6157TIP3    H218436   6.451   4.566   1.508
 6158TIP3   OH218437   2.879   5.078   5.610
 6158TIP3    H118438   2.960   5.117   5.645
 6158TIP3    H218439   2.813   5.146   5.621
 6159TIP3   OH218440   5.552   4.917   2.328
 6159TIP3    H118441   5.565   4.897   2.235
 6159TIP3    H218442   5.463   4.886   2.346
 6160TIP3   OH218443   3.365   2.701   0.739
 6160TIP3    H118444   3.413   2.743   0.667
 6160TIP3    H218445   3.362   2.608   0.715
 6161TIP3   OH218446   4.035   0.075   4.426
 6161TIP3    H118447   4.112   0.099   4.374
 6161TIP3    H218448   3.968   0.138   4.401
 6162TIP3   OH218449   4.920   3.316   4.791
 6162TIP3    H118450   4.918   3.407   4.821
 6162TIP3    H218451   4.830   3.298   4.764
 6163TIP3   OH218452   2.591   2.069   1.307
 6163TIP3    H118453   2.657   2.000   1.295
 6163TIP3    H218454   2.640   2.151   1.298
 6164TIP3   OH218455   3.534   3.432   4.027
 6164TIP3    H118456   3.492   3.348   4.011
 6164TIP3    H218457   3.539   3.474   3.941
 6165TIP3   OH218458   6.162   2.090   1.311
 6165TIP3    H118459   6.103   2.163   1.296
 6165TIP3    H218460   6.228   2.124   1.372
 6166TIP3   OH218461   3.656   6.139   4.743
 6166TIP3    H118462   3.669   6.138   4.838
 6166TIP3    H218463   3.742   6.155   4.706
 6167TIP3   OH218464   5.815   5.712   5.187
 6167TIP3    H118465   5.725   5.709   5.155
 6167TIP3    H218466   5.869   5.700   5.109
 6168TIP3   OH218467   1.410   6.338   5.051
 6168TIP3    H118468   1.332   6.295   5.087
 6168TIP3    H218469   1.392   6.346   4.958
 6169TIP3   OH218470   6.616   3.583   5.384
 6169TIP3    H118471   6.525   3.563   5.364
 6169TIP3    H218472   6.639   3.522   5.454
 6170TIP3   OH218473   2.843   2.249   4.750
 6170TIP3    H118474   2.753   2.218   4.742
 6170TIP3    H218475   2.882   2.229   4.665
 6171TIP3   OH218476   5.284   5.580   0.425
 6171TIP3    H118477   5.359   5.638   0.436
 6171TIP3    H218478   5.298   5.537   0.341
 6172TIP3   OH218479   3.171   4.475   2.146
 6172TIP3    H118480   3.133   4.553   2.106
 6172TIP3    H218481   3.256   4.504   2.180
 6173TIP3   OH218482   4.654   2.166   1.908
 6173TIP3    H118483   4.732   2.158   1.962
 6173TIP3    H218484   4.687   2.188   1.821
 6174TIP3   OH218485   1.201   1.950   5.077
 6174TIP3    H118486   1.211   2.020   5.013
 6174TIP3    H218487   1.109   1.952   5.101
 6175TIP3   OH218488   1.256   3.329   2.962
 6175TIP3    H118489   1.258   3.278   3.043
 6175TIP3    H218490   1.319   3.400   2.977
 6176TIP3   OH218491   7.073   0.110   5.542
 6176TIP3    H118492   7.029   0.077   5.621
 6176TIP3    H218493   7.079   0.205   5.557
 6177TIP3   OH218494   5.555   3.582   0.397
 6177TIP3    H118495   5.554   3.591   0.302
 6177TIP3    H218496   5.630   3.635   0.426
 6178TIP3   OH218497   7.101   2.088   0.311
 6178TIP3    H118498   7.080   2.002   0.346
 6178TIP3    H218499   7.103   2.076   0.216
 6179TIP3   OH218500   2.473   6.717   2.987
 6179TIP3    H118501   2.400   6.779   2.976
 6179TIP3    H218502   2.475   6.699   3.081
 6180TIP3   OH218503   3.755   0.777   2.817
 6180TIP3    H118504   3.786   0.827   2.742
 6180TIP3    H218505   3.673   0.821   2.842
 6181TIP3   OH218506   0.463   3.814   4.038
 6181TIP3    H118507   0.384   3.764   4.060
 6181TIP3    H218508   0.431   3.902   4.021
 6182TIP3   OH218509   5.624   6.343   3.957
 6182TIP3    H118510   5.679   6.417   3.929
 6182TIP3    H218511   5.639   6.276   3.891
 6183TIP3   OH218512   2.056   1.390   4.285
 6183TIP3    H118513   1.967   1.416   4.309
 6183TIP3    H218514   2.073   1.310   4.335
 6184TIP3   OH218515   1.379   6.019   1.752
 6184TIP3    H118516   1.450   6.025   1.816
 6184TIP3    H218517   1.402   5.943   1.698
 6185TIP3   OH218518   0.565   1.925   2.059
 6185TIP3    H118519   0.536   1.996   2.002
 6185TIP3    H218520   0.523   1.847   2.024
 6186TIP3   OH218521   5.979   2.213   1.777
 6186TIP3    H118522   6.048   2.165   1.824
 6186TIP3    H218523   5.901   2.159   1.789
 6187TIP3   OH218524   2.050   5.142   1.483
 6187TIP3    H118525   2.092   5.065   1.444
 6187TIP3    H218526   2.090   5.150   1.570
 6188TIP3   OH218527   5.873   3.197   2.694
 6188TIP3    H118528   5.911   3.121   2.651
 6188TIP3    H218529   5.930   3.270   2.668
 6189TIP3   OH218530   3.042   6.306   0.907
 6189TIP3    H118531   3.108   6.265   0.851
 6189TIP3    H218532   2.981   6.347   0.846
 6190TIP3   OH218533   0.586   2.424   2.660
 6190TIP3    H118534   0.579   2.484   2.587
 6190TIP3    H218535   0.518   2.358   2.644
 6191TIP3   OH218536   1.195   1.067   1.768
 6191TIP3    H118537   1.146   1.038   1.846
 6191TIP3    H218538   1.179   1.161   1.764
 6192TIP3   OH218539   5.154   4.118   1.563
 6192TIP3    H118540   5.170   4.024   1.559
 6192TIP3    H218541   5.153   4.146   1.471
 6193TIP3   OH218542   0.557   4.110   4.522
 6193TIP3    H118543   0.576   4.038   4.462
 6193TIP3    H218544   0.643   4.143   4.548
 6194TIP3   OH218545   4.497   4.417   0.442
 6194TIP3    H118546   4.549   4.384   0.515
 6194TIP3    H218547   4.417   4.365   0.444
 6195TIP3   OH218548   1.212   5.642   3.604
 6195TIP3    H118549   1.288   5.585   3.616
 6195TIP3    H218550   1.167   5.639   3.688
 6196TIP3   OH218551   4.283   1.335   4.677
 6196TIP3    H118552   4.337   1.336   4.598
 6196TIP3    H218553   4.231   1.416   4.672
 6197TIP3   OH218554   1.317   3.978   2.345
 6197TIP3    H118555   1.241   3.978   2.286
 6197TIP3    H218556   1.295   3.916   2.413
 6198TIP3   OH218557   0.644   4.734   4.024
 6198TIP3    H118558   0.723   4.680   4.019
 6198TIP3    H218559   0.579   4.685   3.972
 6199TIP3   OH218560   5.299   0.182   5.595
 6199TIP3    H118561   5.385   0.146   5.617
 6199TIP3    H218562   5.277   0.239   5.669
 6200TIP3   OH218563   3.759   0.583   3.950
 6200TIP3    H118564   3.847   0.548   3.955
 6200TIP3    H218565   3.706   0.523   4.002
 6201TIP3   OH218566   0.315   0.865   0.463
 6201TIP3    H118567   0.307   0.775   0.433
 6201TIP3    H218568   0.388   0.863   0.526
 6202TIP3   OH218569   1.617   1.169   4.874
 6202TIP3    H118570   1.524   1.177   4.894
 6202TIP3    H218571   1.657   1.139   4.956
 6203TIP3   OH218572   4.616   4.443   1.800
 6203TIP3    H118573   4.539   4.405   1.758
 6203TIP3    H218574   4.663   4.486   1.728
 6204TIP3   OH218575   3.629   6.632   2.211
 6204TIP3    H118576   3.673   6.637   2.296
 6204TIP3    H218577   3.660   6.709   2.163
 6205TIP3   OH218578   3.867   0.298   4.398
 6205TIP3    H118579   3.928   0.335   4.462
 6205TIP3    H218580   3.811   0.372   4.372
 6206TIP3   OH218581   2.151   1.412   0.611
 6206TIP3    H118582   2.148   1.317   0.613
 6206TIP3    H218583   2.076   1.440   0.663
 6207TIP3   OH218584   6.625   5.230   4.564
 6207TIP3    H118585   6.552   5.176   4.595
 6207TIP3    H218586   6.584   5.296   4.508
 6208TIP3   OH218587   4.583   4.358   0.915
 6208TIP3    H118588   4.555   4.440   0.956
 6208TIP3    H218589   4.512   4.296   0.936
 6209TIP3   OH218590   3.583   4.449   2.198
 6209TIP3    H118591   3.519   4.466   2.267
 6209TIP3    H218592   3.558   4.364   2.162
 6210TIP3   OH218593   1.092   1.965   5.463
 6210TIP3    H118594   1.139   2.045   5.485
 6210TIP3    H218595   1.068   1.975   5.371
 6211TIP3   OH218596   5.062   6.486   0.698
 6211TIP3    H118597   5.062   6.448   0.786
 6211TIP3    H218598   5.085   6.578   0.712
 6212TIP3   OH218599   5.584   2.471   5.079
 6212TIP3    H118600   5.675   2.497   5.069
 6212TIP3    H218601   5.541   2.547   5.117
 6213TIP3   OH218602   2.355   3.624   5.201
 6213TIP3    H118603   2.415   3.559   5.167
 6213TIP3    H218604   2.295   3.575   5.257
 6214TIP3   OH218605   0.627   0.923   5.084
 6214TIP3    H118606   0.678   0.873   5.149
 6214TIP3    H218607   0.553   0.958   5.134
 6215TIP3   OH218608   1.959   5.702   1.179
 6215TIP3    H118609   2.010   5.734   1.253
 6215TIP3    H218610   1.872   5.741   1.190
 6216TIP3   OH218611   6.957   1.410   3.459
 6216TIP3    H118612   7.049   1.433   3.453
 6216TIP3    H218613   6.922   1.471   3.525
 6217TIP3   OH218614   1.699   4.164   1.012
 6217TIP3    H118615   1.712   4.070   1.026
 6217TIP3    H218616   1.612   4.171   0.974
 6218TIP3   OH218617   2.018   2.922   0.840
 6218TIP3    H118618   2.048   2.832   0.826
 6218TIP3    H218619   2.051   2.970   0.764
 6219TIP3   OH218620   0.339   5.258   3.095
 6219TIP3    H118621   0.347   5.245   3.000
 6219TIP3    H218622   0.277   5.190   3.122
 6220TIP3   OH218623   4.827   1.298   5.282
 6220TIP3    H118624   4.880   1.312   5.203
 6220TIP3    H218625   4.807   1.204   5.281
 6221TIP3   OH218626   0.054   1.356   5.297
 6221TIP3    H118627  -0.029   1.382   5.337
 6221TIP3    H218628   0.056   1.261   5.304
 6222TIP3   OH218629   5.061   4.528   2.478
 6222TIP3    H118630   4.973   4.524   2.516
 6222TIP3    H218631   5.109   4.457   2.521
 6223TIP3   OH218632   2.642   5.691   0.763
 6223TIP3    H118633   2.703   5.739   0.818
 6223TIP3    H218634   2.570   5.752   0.747
 6224TIP3   OH218635   0.391   2.962   5.585
 6224TIP3    H118636   0.369   2.890   5.526
 6224TIP3    H218637   0.347   3.038   5.546
 6225TIP3   OH218638   3.769   0.946   4.629
 6225TIP3    H118639   3.839   1.004   4.658
 6225TIP3    H218640   3.711   1.003   4.579
 6226TIP3   OH218641   6.873   6.172   1.541
 6226TIP3    H118642   6.844   6.082   1.534
 6226TIP3    H218643   6.812   6.222   1.487
 6227TIP3   OH218644   3.844   3.805   2.243
 6227TIP3    H118645   3.807   3.725   2.280
 6227TIP3    H218646   3.775   3.838   2.185
 6228TIP3   OH218647   5.026   2.674   1.021
 6228TIP3    H118648   4.954   2.623   0.982
 6228TIP3    H218649   5.035   2.638   1.109
 6229TIP3   OH218650   3.236   5.558   4.156
 6229TIP3    H118651   3.325   5.551   4.189
 6229TIP3    H218652   3.188   5.488   4.202
 6230TIP3   OH218653   5.808   2.449   2.170
 6230TIP3    H118654   5.870   2.379   2.149
 6230TIP3    H218655   5.730   2.403   2.201
 6231TIP3   OH218656   3.743   2.503   1.091
 6231TIP3    H118657   3.791   2.562   1.034
 6231TIP3    H218658   3.810   2.449   1.132
 6232TIP3   OH218659   3.688   4.417   3.186
 6232TIP3    H118660   3.746   4.393   3.114
 6232TIP3    H218661   3.687   4.513   3.186
 6233TIP3   OH218662   5.850   6.429   0.177
 6233TIP3    H118663   5.762   6.403   0.149
 6233TIP3    H218664   5.908   6.363   0.137
 6234TIP3   OH218665   6.058   3.689   2.499
 6234TIP3    H118666   6.127   3.669   2.435
 6234TIP3    H218667   6.011   3.762   2.461
 6235TIP3   OH218668   3.749   4.319   2.385
 6235TIP3    H118669   3.751   4.223   2.382
 6235TIP3    H218670   3.695   4.344   2.310
 6236TIP3   OH218671   5.053   3.258   3.573
 6236TIP3    H118672   5.122   3.308   3.616
 6236TIP3    H218673   4.986   3.323   3.552
 6237TIP3   OH218674   0.651   4.079   4.197
 6237TIP3    H118675   0.621   4.017   4.264
 6237TIP3    H218676   0.698   4.146   4.247
 6238TIP3   OH218677   2.876   2.109   0.947
 6238TIP3    H118678   2.836   2.134   0.864
 6238TIP3    H218679   2.856   2.182   1.006
 6239TIP3   OH218680   5.890   5.451   4.752
 6239TIP3    H118681   5.959   5.406   4.801
 6239TIP3    H218682   5.829   5.481   4.820
 6240TIP3   OH218683   0.410   1.885   2.758
 6240TIP3    H118684   0.460   1.867   2.837
 6240TIP3    H218685   0.445   1.824   2.693
 6241TIP3   OH218686   6.464   1.005   5.047
 6241TIP3    H118687   6.415   1.048   5.117
 6241TIP3    H218688   6.549   0.985   5.086
 6242TIP3   OH218689   6.673   0.715   3.887
 6242TIP3    H118690   6.759   0.751   3.866
 6242TIP3    H218691   6.618   0.792   3.903
 6243TIP3   OH218692   2.412   3.890   1.646
 6243TIP3    H118693   2.417   3.920   1.737
 6243TIP3    H218694   2.400   3.969   1.594
 6244TIP3   OH218695   6.849   1.843   1.512
 6244TIP3    H118696   6.757   1.867   1.521
 6244TIP3    H218697   6.851   1.785   1.435
 6245TIP3   OH218698   4.232   6.614   3.445
 6245TIP3    H118699   4.260   6.699   3.480
 6245TIP3    H218700   4.219   6.559   3.523
 6246TIP3   OH218701   0.583   3.061   3.595
 6246TIP3    H118702   0.623   3.059   3.508
 6246TIP3    H218703   0.651   3.029   3.654
 6247TIP3   OH218704   3.650   0.761   1.574
 6247TIP3    H118705   3.617   0.754   1.484
 6247TIP3    H218706   3.746   0.764   1.564
 6248TIP3   OH218707   0.586   1.268   3.078
 6248TIP3    H118708   0.527   1.199   3.109
 6248TIP3    H218709   0.673   1.237   3.102
 6249TIP3   OH218710   0.070   5.388   1.444
 6249TIP3    H118711   0.118   5.470   1.435
 6249TIP3    H218712   0.015   5.400   1.521
 6250TIP3   OH218713   2.706   5.448   4.694
 6250TIP3    H118714   2.679   5.533   4.660
 6250TIP3    H218715   2.792   5.464   4.732
 6251TIP3   OH218716   5.099   5.715   2.504
 6251TIP3    H118717   5.187   5.702   2.469
 6251TIP3    H218718   5.104   5.682   2.593
 6252TIP3   OH218719   4.653   1.970   4.763
 6252TIP3    H118720   4.738   1.937   4.734
 6252TIP3    H218721   4.667   1.991   4.856
 6253TIP3   OH218722   1.238   0.839   5.629
 6253TIP3    H118723   1.201   0.763   5.673
 6253TIP3    H218724   1.281   0.889   5.699
 6254TIP3   OH218725   0.184   4.726   0.735
 6254TIP3    H118726   0.121   4.678   0.683
 6254TIP3    H218727   0.131   4.782   0.792
 6255TIP3   OH218728   3.764   1.542   0.003
 6255TIP3    H118729   3.753   1.448   0.017
 6255TIP3    H218730   3.702   1.582   0.062
 6256TIP3   OH218731   2.966   0.949   3.424
 6256TIP3    H118732   2.983   0.994   3.506
 6256TIP3    H218733   2.954   1.019   3.360
 6257TIP3   OH218734   5.089   3.168   1.698
 6257TIP3    H118735   5.016   3.159   1.760
 6257TIP3    H218736   5.067   3.246   1.646
 6258TIP3   OH218737   3.055   0.668   3.900
 6258TIP3    H118738   2.962   0.667   3.880
 6258TIP3    H218739   3.085   0.580   3.879
 6259TIP3   OH218740   2.780   4.120   4.433
 6259TIP3    H118741   2.695   4.147   4.399
 6259TIP3    H218742   2.832   4.200   4.433
 6260TIP3   OH218743   5.082   3.330   4.576
 6260TIP3    H118744   5.019   3.335   4.648
 6260TIP3    H218745   5.125   3.246   4.588
 6261TIP3   OH218746   3.629   1.141   4.471
 6261TIP3    H118747   3.604   1.124   4.381
 6261TIP3    H218748   3.609   1.233   4.486
 6262TIP3   OH218749   0.527   6.123   1.718
 6262TIP3    H118750   0.450   6.122   1.775
 6262TIP3    H218751   0.570   6.205   1.738
 6263TIP3   OH218752   5.087   5.011   3.304
 6263TIP3    H118753   5.092   5.106   3.289
 6263TIP3    H218754   5.119   5.000   3.394
 6264TIP3   OH218755   2.853   3.097   1.474
 6264TIP3    H118756   2.817   3.162   1.534
 6264TIP3    H218757   2.859   3.144   1.390
 6265TIP3   OH218758   0.586   0.253   3.005
 6265TIP3    H118759   0.550   0.297   2.928
 6265TIP3    H218760   0.680   0.249   2.989
 6266TIP3   OH218761   2.785   0.452   3.049
 6266TIP3    H118762   2.874   0.428   3.023
 6266TIP3    H218763   2.795   0.540   3.086
 6267TIP3   OH218764   3.557   5.650   5.133
 6267TIP3    H118765   3.591   5.629   5.046
 6267TIP3    H218766   3.620   5.610   5.194
 6268TIP3   OH218767   1.216   6.444   4.537
 6268TIP3    H118768   1.276   6.408   4.603
 6268TIP3    H218769   1.238   6.537   4.533
 6269TIP3   OH218770   4.760   0.181   4.829
 6269TIP3    H118771   4.796   0.165   4.742
 6269TIP3    H218772   4.800   0.114   4.884
 6270TIP3   OH218773   3.146   4.082   4.289
 6270TIP3    H118774   3.100   3.998   4.287
 6270TIP3    H218775   3.219   4.071   4.228
 6271TIP3   OH218776   5.492   0.954   4.442
 6271TIP3    H118777   5.438   0.879   4.466
 6271TIP3    H218778   5.462   1.025   4.499
 6272TIP3   OH218779   7.064   5.354   2.607
 6272TIP3    H118780   7.126   5.330   2.676
 6272TIP3    H218781   7.078   5.288   2.539
 6273TIP3   OH218782   4.209   1.909   1.440
 6273TIP3    H118783   4.115   1.905   1.459
 6273TIP3    H218784   4.224   1.840   1.375
 6274TIP3   OH218785   0.062   1.403   5.025
 6274TIP3    H118786   0.155   1.380   5.021
 6274TIP3    H218787   0.037   1.381   5.115
 6275TIP3   OH218788   4.299   1.277   2.749
 6275TIP3    H118789   4.248   1.355   2.770
 6275TIP3    H218790   4.356   1.266   2.825
 6276TIP3   OH218791   4.257   3.410   0.348
 6276TIP3    H118792   4.350   3.426   0.336
 6276TIP3    H218793   4.251   3.315   0.363
 6277TIP3   OH218794   0.835   6.114   5.099
 6277TIP3    H118795   0.898   6.167   5.050
 6277TIP3    H218796   0.752   6.162   5.092
 6278TIP3   OH218797   1.558   3.310   3.895
 6278TIP3    H118798   1.644   3.341   3.867
 6278TIP3    H218799   1.534   3.243   3.831
 6279TIP3   OH218800   2.234   4.122   4.938
 6279TIP3    H118801   2.214   4.215   4.948
 6279TIP3    H218802   2.206   4.101   4.848
 6280TIP3   OH218803   2.758   6.014   1.139
 6280TIP3    H118804   2.792   5.992   1.225
 6280TIP3    H218805   2.754   6.109   1.137
 6281TIP3   OH218806   2.144   3.382   1.726
 6281TIP3    H118807   2.147   3.469   1.765
 6281TIP3    H218808   2.145   3.323   1.801
 6282TIP3   OH218809   4.749   2.554   1.357
 6282TIP3    H118810   4.788   2.638   1.382
 6282TIP3    H218811   4.732   2.562   1.264
 6283TIP3   OH218812   2.895   4.897   1.715
 6283TIP3    H118813   2.986   4.916   1.695
 6283TIP3    H218814   2.875   4.950   1.792
 6284TIP3   OH218815   4.314   2.271   0.396
 6284TIP3    H118816   4.409   2.264   0.386
 6284TIP3    H218817   4.279   2.253   0.309
 6285TIP3   OH218818   1.752   5.770   0.609
 6285TIP3    H118819   1.709   5.856   0.607
 6285TIP3    H218820   1.739   5.736   0.521
 6286TIP3   OH218821   2.914   5.537   3.322
 6286TIP3    H118822   2.829   5.495   3.334
 6286TIP3    H218823   2.974   5.487   3.377
 6287TIP3   OH218824   2.191   4.012   5.291
 6287TIP3    H118825   2.163   3.932   5.334
 6287TIP3    H218826   2.265   4.043   5.344
 6288TIP3   OH218827   2.959   5.786   4.282
 6288TIP3    H118828   3.018   5.739   4.223
 6288TIP3    H218829   2.970   5.878   4.259
 6289TIP3   OH218830   3.049   3.004   4.654
 6289TIP3    H118831   3.130   2.965   4.622
 6289TIP3    H218832   2.993   2.929   4.675
 6290TIP3   OH218833   3.266   1.900   0.211
 6290TIP3    H118834   3.360   1.890   0.229
 6290TIP3    H218835   3.223   1.857   0.285
 6291TIP3   OH218836   3.703   6.807   5.204
 6291TIP3    H118837   3.713   6.734   5.143
 6291TIP3    H218838   3.615   6.796   5.240
 6292TIP3   OH218839   5.258   3.486   1.530
 6292TIP3    H118840   5.162   3.490   1.531
 6292TIP3    H218841   5.279   3.394   1.547
 6293TIP3   OH218842   2.782   4.852   2.224
 6293TIP3    H118843   2.768   4.764   2.258
 6293TIP3    H218844   2.833   4.896   2.292
 6294TIP3   OH218845   4.791   3.010   2.497
 6294TIP3    H118846   4.787   3.086   2.439
 6294TIP3    H218847   4.808   3.047   2.584
 6295TIP3   OH218848   3.241   3.952   3.731
 6295TIP3    H118849   3.323   3.993   3.706
 6295TIP3    H218850   3.173   4.002   3.686
 6296TIP3   OH218851   4.776   1.516   1.371
 6296TIP3    H118852   4.838   1.543   1.439
 6296TIP3    H218853   4.824   1.527   1.289
 6297TIP3   OH218854   4.523   1.623   3.780
 6297TIP3    H118855   4.452   1.669   3.734
 6297TIP3    H218856   4.482   1.543   3.813
 6298TIP3   OH218857   5.643   3.529   1.611
 6298TIP3    H118858   5.624   3.439   1.587
 6298TIP3    H218859   5.739   3.532   1.619
 6299TIP3   OH218860   0.160   2.970   0.257
 6299TIP3    H118861   0.184   3.063   0.247
 6299TIP3    H218862   0.077   2.962   0.209
 6300TIP3   OH218863   6.752   2.609   5.444
 6300TIP3    H118864   6.817   2.661   5.397
 6300TIP3    H218865   6.764   2.520   5.410
 6301TIP3   OH218866   1.164   5.057   2.335
 6301TIP3    H118867   1.147   4.973   2.376
 6301TIP3    H218868   1.259   5.056   2.318
 6302TIP3   OH218869   2.699   5.444   4.040
 6302TIP3    H118870   2.670   5.530   4.011
 6302TIP3    H218871   2.618   5.395   4.053
 6303TIP3   OH218872   6.411   3.356   4.897
 6303TIP3    H118873   6.387   3.359   4.804
 6303TIP3    H218874   6.392   3.444   4.929
 6304TIP3   OH218875   5.283   2.377   2.707
 6304TIP3    H118876   5.228   2.451   2.734
 6304TIP3    H218877   5.305   2.396   2.615
 6305TIP3   OH218878   0.624   4.993   2.014
 6305TIP3    H118879   0.696   5.050   2.043
 6305TIP3    H218880   0.654   4.958   1.930
 6306TIP3   OH218881   6.944   2.185   4.024
 6306TIP3    H118882   7.009   2.238   3.978
 6306TIP3    H218883   6.928   2.233   4.105
 6307TIP3   OH218884   2.361   0.587   4.960
 6307TIP3    H118885   2.296   0.638   5.008
 6307TIP3    H218886   2.318   0.502   4.946
 6308TIP3   OH218887   0.185   1.985   0.450
 6308TIP3    H118888   0.142   1.923   0.391
 6308TIP3    H218889   0.234   1.930   0.511
 6309TIP3   OH218890   5.380   6.671   2.695
 6309TIP3    H118891   5.308   6.707   2.747
 6309TIP3    H218892   5.436   6.627   2.759
 6310TIP3   OH218893   0.654   0.851   0.288
 6310TIP3    H118894   0.688   0.931   0.327
 6310TIP3    H218895   0.566   0.874   0.259
 6311TIP3   OH218896   4.034   2.695   0.314
 6311TIP3    H118897   3.991   2.780   0.312
 6311TIP3    H218898   4.090   2.694   0.236
 6312TIP3   OH218899   5.592   1.230   2.173
 6312TIP3    H118900   5.680   1.211   2.207
 6312TIP3    H218901   5.588   1.182   2.090
 6313TIP3   OH218902   1.723   0.616   4.238
 6313TIP3    H118903   1.705   0.670   4.315
 6313TIP3    H218904   1.636   0.593   4.204
 6314TIP3   OH218905   0.565   4.828   3.019
 6314TIP3    H118906   0.636   4.825   2.955
 6314TIP3    H218907   0.578   4.911   3.064
 6315TIP3   OH218908   4.144   0.107   1.156
 6315TIP3    H118909   4.186   0.038   1.105
 6315TIP3    H218910   4.124   0.175   1.091
 6316TIP3   OH218911   4.014   3.387   1.323
 6316TIP3    H118912   4.010   3.340   1.407
 6316TIP3    H218913   3.936   3.442   1.322
 6317TIP3   OH218914   2.450   2.690   2.251
 6317TIP3    H118915   2.415   2.737   2.327
 6317TIP3    H218916   2.376   2.684   2.190
 6318TIP3   OH218917   2.477   5.101   3.865
 6318TIP3    H118918   2.444   5.039   3.929
 6318TIP3    H218919   2.420   5.091   3.789
 6319TIP3   OH218920   0.443   5.778   3.710
 6319TIP3    H118921   0.411   5.828   3.784
 6319TIP3    H218922   0.430   5.686   3.735
 6320TIP3   OH218923   3.411   0.785   5.926
 6320TIP3    H118924   3.453   0.793   6.012
 6320TIP3    H218925   3.466   0.838   5.868
 6321TIP3   OH218926   4.813   6.080   3.120
 6321TIP3    H118927   4.898   6.122   3.114
 6321TIP3    H218928   4.816   6.009   3.055
 6322TIP3   OH218929   4.121   2.842   3.572
 6322TIP3    H118930   4.141   2.861   3.663
 6322TIP3    H218931   4.190   2.782   3.543
 6323TIP3   OH218932   1.598   4.146   4.720
 6323TIP3    H118933   1.557   4.147   4.806
 6323TIP3    H218934   1.637   4.059   4.713
 6324TIP3   OH218935   0.670   4.282   2.301
 6324TIP3    H118936   0.603   4.225   2.262
 6324TIP3    H218937   0.691   4.345   2.232
 6325TIP3   OH218938   5.100   5.682   1.120
 6325TIP3    H118939   5.066   5.595   1.140
 6325TIP3    H218940   5.023   5.738   1.118
 6326TIP3   OH218941   2.489   5.167   2.370
 6326TIP3    H118942   2.563   5.161   2.309
 6326TIP3    H218943   2.460   5.077   2.382
 6327TIP3   OH218944   6.460   4.343   3.982
 6327TIP3    H118945   6.495   4.255   4.000
 6327TIP3    H218946   6.379   4.347   4.032
 6328TIP3   OH218947   0.854   5.524   0.775
 6328TIP3    H118948   0.928   5.559   0.825
 6328TIP3    H218949   0.889   5.512   0.686
 6329TIP3   OH218950   1.044   3.845   1.356
 6329TIP3    H118951   1.063   3.930   1.397
 6329TIP3    H218952   1.079   3.781   1.417
 6330TIP3   OH218953   5.133   1.604   0.769
 6330TIP3    H118954   5.114   1.618   0.676
 6330TIP3    H218955   5.078   1.668   0.814
 6331TIP3   OH218956   3.772   0.333   1.174
 6331TIP3    H118957   3.847   0.366   1.125
 6331TIP3    H218958   3.696   0.367   1.127
 6332TIP3   OH218959   3.491   6.705   0.246
 6332TIP3    H118960   3.505   6.753   0.327
 6332TIP3    H218961   3.403   6.730   0.218
 6333TIP3   OH218962   5.547   5.689   5.095
 6333TIP3    H118963   5.516   5.778   5.082
 6333TIP3    H218964   5.474   5.643   5.136
 6334TIP3   OH218965   0.256   3.241   0.226
 6334TIP3    H118966   0.343   3.201   0.228
 6334TIP3    H218967   0.269   3.324   0.180
 6335TIP3   OH218968   6.305   1.903   0.809
 6335TIP3    H118969   6.368   1.853   0.758
 6335TIP3    H218970   6.269   1.967   0.748
 6336TIP3   OH218971   6.653   2.638   2.928
 6336TIP3    H118972   6.641   2.547   2.902
 6336TIP3    H218973   6.564   2.669   2.946
 6337TIP3   OH218974   1.263   3.932   4.281
 6337TIP3    H118975   1.264   3.917   4.187
 6337TIP3    H218976   1.258   4.027   4.291
 6338TIP3   OH218977   1.265   0.199   1.899
 6338TIP3    H118978   1.183   0.185   1.946
 6338TIP3    H218979   1.299   0.281   1.933
 6339TIP3   OH218980   7.126   3.913   0.488
 6339TIP3    H118981   7.048   3.954   0.449
 6339TIP3    H218982   7.091   3.861   0.560
 6340TIP3   OH218983   6.444   4.525   5.019
 6340TIP3    H118984   6.350   4.516   5.007
 6340TIP3    H218985   6.467   4.604   4.971
 6341TIP3   OH218986   2.987   3.042   4.055
 6341TIP3    H118987   2.948   2.958   4.080
 6341TIP3    H218988   2.935   3.072   3.981
 6342TIP3   OH218989   6.776   3.500   2.366
 6342TIP3    H118990   6.744   3.553   2.439
 6342TIP3    H218991   6.697   3.474   2.319
 6343TIP3   OH218992   6.014   1.917   4.074
 6343TIP3    H118993   6.049   1.970   4.145
 6343TIP3    H218994   6.014   1.976   3.998
 6344TIP3   OH218995   2.767   0.123   5.389
 6344TIP3    H118996   2.708   0.195   5.412
 6344TIP3    H218997   2.821   0.111   5.467
 6345TIP3   OH218998   1.236   4.971   1.786
 6345TIP3    H118999   1.207   4.890   1.827
 6345TIP3    H219000   1.249   5.032   1.859
 6346TIP3   OH219001   1.059   1.577   3.629
 6346TIP3    H119002   0.984   1.600   3.683
 6346TIP3    H219003   1.029   1.593   3.539
 6347TIP3   OH219004   6.628   0.836   0.237
 6347TIP3    H119005   6.682   0.761   0.260
 6347TIP3    H219006   6.686   0.892   0.185
 6348TIP3   OH219007   3.812   0.057   0.409
 6348TIP3    H119008   3.746   0.062   0.340
 6348TIP3    H219009   3.780   0.116   0.477
 6349TIP3   OH219010   6.938   1.198   1.246
 6349TIP3    H119011   7.001   1.173   1.314
 6349TIP3    H219012   6.877   1.124   1.242
 6350TIP3   OH219013   3.900   4.772   2.546
 6350TIP3    H119014   3.897   4.677   2.531
 6350TIP3    H219015   3.992   4.790   2.564
 6351TIP3   OH219016   1.624   3.949   2.588
 6351TIP3    H119017   1.597   4.035   2.621
 6351TIP3    H219018   1.630   3.960   2.493
 6352TIP3   OH219019   4.463   5.092   4.954
 6352TIP3    H119020   4.389   5.042   4.921
 6352TIP3    H219021   4.433   5.183   4.952
 6353TIP3   OH219022   2.637   1.535   5.344
 6353TIP3    H119023   2.550   1.501   5.365
 6353TIP3    H219024   2.695   1.486   5.403
 6354TIP3   OH219025   4.317   1.934   3.552
 6354TIP3    H119026   4.279   1.856   3.594
 6354TIP3    H219027   4.372   1.972   3.620
 6355TIP3   OH219028   3.642   4.715   3.203
 6355TIP3    H119029   3.685   4.764   3.273
 6355TIP3    H219030   3.657   4.766   3.124
 6356TIP3   OH219031   0.774   3.773   4.621
 6356TIP3    H119032   0.869   3.777   4.615
 6356TIP3    H219033   0.755   3.792   4.713
 6357TIP3   OH219034   0.116   5.989   3.675
 6357TIP3    H119035   0.156   5.977   3.589
 6357TIP3    H219036   0.182   6.036   3.726
 6358TIP3   OH219037   6.174   0.527   0.878
 6358TIP3    H119038   6.239   0.473   0.834
 6358TIP3    H219039   6.152   0.594   0.814
 6359TIP3   OH219040   6.733   0.342   2.145
 6359TIP3    H119041   6.784   0.421   2.130
 6359TIP3    H219042   6.642   0.371   2.142
 6360TIP3   OH219043   4.940   0.610   4.762
 6360TIP3    H119044   4.860   0.608   4.709
 6360TIP3    H219045   5.001   0.552   4.717
 6361TIP3   OH219046   6.322   0.118   1.591
 6361TIP3    H119047   6.300   0.052   1.525
 6361TIP3    H219048   6.239   0.136   1.635
 6362TIP3   OH219049   2.172   5.971   4.777
 6362TIP3    H119050   2.217   5.904   4.828
 6362TIP3    H219051   2.241   6.013   4.727
 6363TIP3   OH219052   1.524   5.751   1.764
 6363TIP3    H119053   1.504   5.772   1.673
 6363TIP3    H219054   1.459   5.685   1.788
 6364TIP3   OH219055   6.332   3.647   3.230
 6364TIP3    H119056   6.260   3.587   3.211
 6364TIP3    H219057   6.373   3.610   3.309
 6365TIP3   OH219058   6.961   1.215   0.348
 6365TIP3    H119059   6.895   1.283   0.362
 6365TIP3    H219060   6.910   1.136   0.331
 6366TIP3   OH219061   5.968   1.391   5.702
 6366TIP3    H119062   5.991   1.446   5.627
 6366TIP3    H219063   5.872   1.397   5.708
 6367TIP3   OH219064   7.180   3.456   0.797
 6367TIP3    H119065   7.177   3.464   0.702
 6367TIP3    H219066   7.109   3.511   0.828
 6368TIP3   OH219067   6.524   6.680   4.122
 6368TIP3    H119068   6.480   6.694   4.038
 6368TIP3    H219069   6.534   6.585   4.129
 6369TIP3   OH219070   3.654   4.739   2.656
 6369TIP3    H119071   3.736   4.779   2.626
 6369TIP3    H219072   3.678   4.649   2.678
 6370TIP3   OH219073   1.385   6.264   3.087
 6370TIP3    H119074   1.329   6.197   3.047
 6370TIP3    H219075   1.461   6.216   3.119
 6371TIP3   OH219076   5.839   5.408   3.548
 6371TIP3    H119077   5.853   5.444   3.460
 6371TIP3    H219078   5.801   5.322   3.534
 6372TIP3   OH219079   6.352   3.699   3.758
 6372TIP3    H119080   6.258   3.695   3.776
 6372TIP3    H219081   6.377   3.608   3.745
 6373TIP3   OH219082   2.597   4.911   3.383
 6373TIP3    H119083   2.536   4.984   3.396
 6373TIP3    H219084   2.594   4.893   3.289
 6374TIP3   OH219085   5.107   1.487   2.754
 6374TIP3    H119086   5.131   1.422   2.689
 6374TIP3    H219087   5.131   1.447   2.838
 6375TIP3   OH219088   6.043   5.132   1.416
 6375TIP3    H119089   6.017   5.209   1.366
 6375TIP3    H219090   5.974   5.068   1.401
 6376TIP3   OH219091   0.260   3.982   5.247
 6376TIP3    H119092   0.312   3.983   5.328
 6376TIP3    H219093   0.297   4.051   5.193
 6377TIP3   OH219094   6.775   4.704   4.955
 6377TIP3    H119095   6.761   4.656   5.037
 6377TIP3    H219096   6.869   4.723   4.955
 6378TIP3   OH219097   6.004   0.070   3.387
 6378TIP3    H119098   6.013  -0.023   3.364
 6378TIP3    H219099   5.977   0.069   3.479
 6379TIP3   OH219100   5.367   3.160   3.775
 6379TIP3    H119101   5.282   3.122   3.798
 6379TIP3    H219102   5.378   3.139   3.682
 6380TIP3   OH219103   4.032   3.993   2.272
 6380TIP3    H119104   4.024   4.034   2.187
 6380TIP3    H219105   3.965   3.924   2.272
 6381TIP3   OH219106   3.124   2.533   4.065
 6381TIP3    H119107   3.165   2.600   4.011
 6381TIP3    H219108   3.195   2.499   4.119
 6382TIP3   OH219109   4.801   1.749   4.171
 6382TIP3    H119110   4.815   1.718   4.260
 6382TIP3    H219111   4.868   1.704   4.119
 6383TIP3   OH219112   1.103   2.734   0.698
 6383TIP3    H119113   1.027   2.753   0.643
 6383TIP3    H219114   1.155   2.814   0.694
 6384TIP3   OH219115   6.057   6.759   5.371
 6384TIP3    H119116   5.983   6.708   5.404
 6384TIP3    H219117   6.108   6.696   5.319
 6385TIP3   OH219118   5.814   2.479   4.195
 6385TIP3    H119119   5.726   2.516   4.187
 6385TIP3    H219120   5.810   2.426   4.275
 6386TIP3   OH219121   2.685   3.599   1.994
 6386TIP3    H119122   2.702   3.693   1.997
 6386TIP3    H219123   2.767   3.561   1.962
 6387TIP3   OH219124   4.074   6.047   4.840
 6387TIP3    H119125   4.018   6.115   4.802
 6387TIP3    H219126   4.031   5.965   4.818
 6388TIP3   OH219127   0.657   6.163   0.661
 6388TIP3    H119128   0.564   6.182   0.673
 6388TIP3    H219129   0.676   6.092   0.722
 6389TIP3   OH219130   3.873   4.644   2.255
 6389TIP3    H119131   3.926   4.605   2.325
 6389TIP3    H219132   3.848   4.729   2.289
 6390TIP3   OH219133   6.127   4.200   0.066
 6390TIP3    H119134   6.217   4.226   0.044
 6390TIP3    H219135   6.128   4.104   0.059
 6391TIP3   OH219136   1.587   6.450   1.429
 6391TIP3    H119137   1.674   6.449   1.388
 6391TIP3    H219138   1.576   6.540   1.458
 6392TIP3   OH219139   2.391   0.039   2.482
 6392TIP3    H119140   2.426   0.128   2.471
 6392TIP3    H219141   2.381   0.029   2.576
 6393TIP3   OH219142   4.465   4.970   0.347
 6393TIP3    H119143   4.470   5.045   0.406
 6393TIP3    H219144   4.448   4.895   0.405
 6394TIP3   OH219145   2.906   6.264   4.732
 6394TIP3    H119146   2.957   6.229   4.805
 6394TIP3    H219147   2.965   6.263   4.657
 6395TIP3   OH219148   2.196   0.650   0.448
 6395TIP3    H119149   2.260   0.630   0.517
 6395TIP3    H219150   2.196   0.572   0.392
 6396TIP3   OH219151   3.032   0.081   4.383
 6396TIP3    H119152   2.974   0.154   4.406
 6396TIP3    H219153   3.120   0.116   4.397
 6397TIP3   OH219154   6.700   0.354   2.554
 6397TIP3    H119155   6.607   0.377   2.565
 6397TIP3    H219156   6.748   0.423   2.600
 6398TIP3   OH219157   1.174   4.794   1.981
 6398TIP3    H119158   1.196   4.707   2.015
 6398TIP3    H219159   1.117   4.832   2.048
 6399TIP3   OH219160   1.725   4.578   0.791
 6399TIP3    H119161   1.800   4.541   0.838
 6399TIP3    H219162   1.657   4.511   0.798
 6400TIP3   OH219163   2.001   2.552   3.207
 6400TIP3    H119164   1.996   2.459   3.183
 6400TIP3    H219165   2.030   2.596   3.127
 6401TIP3   OH219166   3.013   5.263   5.811
 6401TIP3    H119167   3.062   5.278   5.892
 6401TIP3    H219168   2.988   5.350   5.781
 6402TIP3   OH219169   3.324   6.300   0.320
 6402TIP3    H119170   3.369   6.215   0.329
 6402TIP3    H219171   3.394   6.364   0.314
 6403TIP3   OH219172   6.882   6.641   3.873
 6403TIP3    H119173   6.844   6.563   3.832
 6403TIP3    H219174   6.941   6.607   3.940
 6404TIP3   OH219175   2.928   4.202   4.108
 6404TIP3    H119176   2.967   4.184   4.194
 6404TIP3    H219177   2.878   4.283   4.121
 6405TIP3   OH219178   1.684   3.337   0.109
 6405TIP3    H119179   1.720   3.424   0.094
 6405TIP3    H219180   1.744   3.278   0.063
 6406TIP3   OH219181   0.643   6.247   4.466
 6406TIP3    H119182   0.698   6.302   4.411
 6406TIP3    H219183   0.655   6.159   4.432
 6407TIP3   OH219184   1.939   2.676   2.646
 6407TIP3    H119185   1.861   2.712   2.688
 6407TIP3    H219186   1.910   2.653   2.558
 6408TIP3   OH219187   3.889   5.875   0.098
 6408TIP3    H119188   3.902   5.959   0.054
 6408TIP3    H219189   3.907   5.893   0.190
 6409TIP3   OH219190   3.115   2.694   2.105
 6409TIP3    H119191   3.184   2.628   2.095
 6409TIP3    H219192   3.158   2.768   2.148
 6410TIP3   OH219193   6.849   4.013   1.529
 6410TIP3    H119194   6.814   4.099   1.552
 6410TIP3    H219195   6.786   3.978   1.465
 6411TIP3   OH219196   4.387   0.325   3.628
 6411TIP3    H119197   4.400   0.292   3.717
 6411TIP3    H219198   4.453   0.279   3.576
 6412TIP3   OH219199   4.973   3.640   0.649
 6412TIP3    H119200   4.895   3.585   0.639
 6412TIP3    H219201   4.973   3.666   0.741
 6413TIP3   OH219202   3.033   4.214   3.294
 6413TIP3    H119203   3.025   4.302   3.258
 6413TIP3    H219204   2.957   4.167   3.259
 6414TIP3   OH219205   6.916   6.747   2.789
 6414TIP3    H119206   6.832   6.793   2.778
 6414TIP3    H219207   6.907   6.669   2.735
 6415TIP3   OH219208   0.257   3.068   0.575
 6415TIP3    H119209   0.245   2.983   0.618
 6415TIP3    H219210   0.257   3.048   0.481
 6416TIP3   OH219211   5.929   1.114   0.811
 6416TIP3    H119212   5.883   1.176   0.869
 6416TIP3    H219213   5.861   1.054   0.783
 6417TIP3   OH219214   4.433   5.876   3.262
 6417TIP3    H119215   4.442   5.966   3.294
 6417TIP3    H219216   4.341   5.868   3.239
 6418TIP3   OH219217   3.185   0.787   4.625
 6418TIP3    H119218   3.245   0.761   4.555
 6418TIP3    H219219   3.147   0.870   4.594
 6419TIP3   OH219220   1.103   3.839   3.288
 6419TIP3    H119221   1.187   3.827   3.332
 6419TIP3    H219222   1.070   3.750   3.275
 6420TIP3   OH219223   6.547   0.477   3.768
 6420TIP3    H119224   6.598   0.518   3.837
 6420TIP3    H219225   6.558   0.383   3.783
 6421TIP3   OH219226   5.252   3.269   5.137
 6421TIP3    H119227   5.176   3.322   5.115
 6421TIP3    H219228   5.216   3.182   5.158
 6422TIP3   OH219229   5.934   2.686   2.057
 6422TIP3    H119230   5.893   2.742   1.992
 6422TIP3    H219231   5.884   2.605   2.055
 6423TIP3   OH219232   4.072   1.759   1.993
 6423TIP3    H119233   4.143   1.798   1.943
 6423TIP3    H219234   4.108   1.676   2.024
 6424TIP3   OH219235   4.095   5.676   5.584
 6424TIP3    H119236   4.052   5.711   5.662
 6424TIP3    H219237   4.043   5.708   5.511
 6425TIP3   OH219238   3.589   6.783   3.953
 6425TIP3    H119239   3.620   6.779   4.044
 6425TIP3    H219240   3.504   6.827   3.958
 6426TIP3   OH219241   4.675   1.324   4.879
 6426TIP3    H119242   4.686   1.245   4.931
 6426TIP3    H219243   4.619   1.381   4.931
 6427TIP3   OH219244   2.576   2.304   3.686
 6427TIP3    H119245   2.656   2.287   3.736
 6427TIP3    H219246   2.599   2.379   3.630
 6428TIP3   OH219247   6.068   0.995   2.399
 6428TIP3    H119248   6.071   1.012   2.304
 6428TIP3    H219249   5.980   1.023   2.425
 6429TIP3   OH219250   0.442   4.685   4.514
 6429TIP3    H119251   0.447   4.590   4.500
 6429TIP3    H219252   0.358   4.711   4.475
 6430TIP3   OH219253   7.175   5.467   1.205
 6430TIP3    H119254   7.086   5.432   1.214
 6430TIP3    H219255   7.228   5.413   1.264
 6431TIP3   OH219256   3.943   4.166   0.340
 6431TIP3    H119257   4.019   4.151   0.283
 6431TIP3    H219258   3.938   4.261   0.349
 6432TIP3   OH219259   2.671   6.813   3.975
 6432TIP3    H119260   2.601   6.755   3.945
 6432TIP3    H219261   2.751   6.774   3.940
 6433TIP3   OH219262   6.115   3.418   0.919
 6433TIP3    H119263   6.108   3.399   1.012
 6433TIP3    H219264   6.204   3.453   0.909
 6434TIP3   OH219265   0.128   5.056   1.680
 6434TIP3    H119266   0.096   5.015   1.761
 6434TIP3    H219267   0.093   5.145   1.683
 6435TIP3   OH219268   4.897   6.771   4.252
 6435TIP3    H119269   4.984   6.775   4.292
 6435TIP3    H219270   4.910   6.720   4.172
 6436TIP3   OH219271   4.616   4.675   4.019
 6436TIP3    H119272   4.609   4.581   4.005
 6436TIP3    H219273   4.645   4.684   4.110
 6437TIP3   OH219274   4.497   4.824   1.750
 6437TIP3    H119275   4.436   4.752   1.766
 6437TIP3    H219276   4.581   4.793   1.785
 6438TIP3   OH219277   1.035   4.367   1.149
 6438TIP3    H119278   0.979   4.294   1.126
 6438TIP3    H219279   1.004   4.396   1.234
 6439TIP3   OH219280   4.236   1.768   5.642
 6439TIP3    H119281   4.331   1.774   5.631
 6439TIP3    H219282   4.209   1.855   5.670
 6440TIP3   OH219283   5.708   3.464   2.368
 6440TIP3    H119284   5.796   3.488   2.395
 6440TIP3    H219285   5.714   3.452   2.273
 6441TIP3   OH219286   3.662   4.627   0.370
 6441TIP3    H119287   3.738   4.594   0.418
 6441TIP3    H219288   3.693   4.709   0.331
 6442TIP3   OH219289   3.862   1.717   4.781
 6442TIP3    H119290   3.836   1.627   4.800
 6442TIP3    H219291   3.865   1.759   4.867
 6443TIP3   OH219292   5.546   5.591   1.494
 6443TIP3    H119293   5.543   5.498   1.469
 6443TIP3    H219294   5.580   5.635   1.416
 6444TIP3   OH219295   1.357   0.653   5.338
 6444TIP3    H119296   1.352   0.708   5.260
 6444TIP3    H219297   1.423   0.587   5.317
 6445TIP3   OH219298   0.051   4.696   5.094
 6445TIP3    H119299   0.039   4.661   5.006
 6445TIP3    H219300   0.130   4.653   5.126
 6446TIP3   OH219301   4.243   2.105   4.511
 6446TIP3    H119302   4.210   2.096   4.421
 6446TIP3    H219303   4.168   2.083   4.566
 6447TIP3   OH219304   1.523   6.765   3.135
 6447TIP3    H119305   1.538   6.671   3.149
 6447TIP3    H219306   1.499   6.799   3.221
 6448TIP3   OH219307   6.691   5.200   2.972
 6448TIP3    H119308   6.716   5.155   2.891
 6448TIP3    H219309   6.695   5.293   2.950
 6449TIP3   OH219310   2.632   3.243   0.947
 6449TIP3    H119311   2.537   3.245   0.964
 6449TIP3    H219312   2.660   3.334   0.960
 6450TIP3   OH219313   3.671   3.278   3.397
 6450TIP3    H119314   3.723   3.354   3.421
 6450TIP3    H219315   3.587   3.292   3.440
 6451TIP3   OH219316   5.863   1.443   1.472
 6451TIP3    H119317   5.790   1.496   1.503
 6451TIP3    H219318   5.833   1.353   1.482
 6452TIP3   OH219319   7.121   1.228   5.550
 6452TIP3    H119320   7.045   1.256   5.601
 6452TIP3    H219321   7.195   1.241   5.610
 6453TIP3   OH219322   0.815   6.269   5.884
 6453TIP3    H119323   0.736   6.222   5.857
 6453TIP3    H219324   0.872   6.265   5.807
 6454TIP3   OH219325   6.799   1.290   3.749
 6454TIP3    H119326   6.822   1.375   3.710
 6454TIP3    H219327   6.849   1.286   3.830
 6455TIP3   OH219328   0.316   1.784   4.293
 6455TIP3    H119329   0.241   1.824   4.250
 6455TIP3    H219330   0.386   1.848   4.284
 6456TIP3   OH219331   5.267   0.992   1.518
 6456TIP3    H119332   5.227   1.076   1.495
 6456TIP3    H219333   5.251   0.936   1.442
 6457TIP3   OH219334   4.496   0.056   2.675
 6457TIP3    H119335   4.436  -0.016   2.652
 6457TIP3    H219336   4.483   0.121   2.606
 6458TIP3   OH219337   1.991   1.362   2.403
 6458TIP3    H119338   1.990   1.365   2.499
 6458TIP3    H219339   1.975   1.452   2.376
 6459TIP3   OH219340   0.994   1.236   0.527
 6459TIP3    H119341   0.927   1.220   0.594
 6459TIP3    H219342   1.077   1.226   0.573
 6460TIP3   OH219343   6.103   4.169   3.045
 6460TIP3    H119344   6.017   4.128   3.051
 6460TIP3    H219345   6.149   4.117   2.979
 6461TIP3   OH219346   5.985   1.965   1.527
 6461TIP3    H119347   6.021   1.965   1.438
 6461TIP3    H219348   5.909   2.022   1.522
 6462TIP3   OH219349   6.012   3.152   3.971
 6462TIP3    H119350   6.093   3.182   3.930
 6462TIP3    H219351   5.985   3.077   3.919
 6463TIP3   OH219352   1.066   0.320   4.315
 6463TIP3    H119353   1.023   0.259   4.256
 6463TIP3    H219354   1.024   0.404   4.297
 6464TIP3   OH219355   1.249   4.500   4.805
 6464TIP3    H119356   1.245   4.588   4.768
 6464TIP3    H219357   1.205   4.508   4.890
 6465TIP3   OH219358   4.938   4.297   5.275
 6465TIP3    H119359   4.919   4.390   5.262
 6465TIP3    H219360   4.852   4.255   5.278
 6466TIP3   OH219361   1.105   5.850   3.088
 6466TIP3    H119362   1.076   5.940   3.073
 6466TIP3    H219363   1.029   5.808   3.129
 6467TIP3   OH219364   3.275   0.394   4.520
 6467TIP3    H119365   3.184   0.423   4.524
 6467TIP3    H219366   3.285   0.336   4.596
 6468TIP3   OH219367   5.138   1.342   2.212
 6468TIP3    H119368   5.107   1.279   2.278
 6468TIP3    H219369   5.228   1.362   2.239
 6469TIP3   OH219370   3.967   1.626   1.232
 6469TIP3    H119371   3.999   1.565   1.298
 6469TIP3    H219372   3.878   1.648   1.260
 6470TIP3   OH219373   5.947   2.673   0.970
 6470TIP3    H119374   5.958   2.582   0.943
 6470TIP3    H219375   5.894   2.669   1.050
 6471TIP3   OH219376   2.605   5.813   1.512
 6471TIP3    H119377   2.613   5.745   1.444
 6471TIP3    H219378   2.643   5.891   1.472
 6472TIP3   OH219379   6.655   6.283   3.157
 6472TIP3    H119380   6.691   6.350   3.099
 6472TIP3    H219381   6.621   6.216   3.098
 6473TIP3   OH219382   0.916   4.690   4.527
 6473TIP3    H119383   0.872   4.675   4.443
 6473TIP3    H219384   0.937   4.602   4.559
 6474TIP3   OH219385   1.483   2.953   4.536
 6474TIP3    H119386   1.542   3.029   4.539
 6474TIP3    H219387   1.395   2.991   4.536
 6475TIP3   OH219388   2.625   1.851   1.083
 6475TIP3    H119389   2.617   1.798   1.162
 6475TIP3    H219390   2.562   1.813   1.022
 6476TIP3   OH219391   6.351   4.548   3.821
 6476TIP3    H119392   6.382   4.471   3.870
 6476TIP3    H219393   6.300   4.598   3.885
 6477TIP3   OH219394   2.258   6.491   4.170
 6477TIP3    H119395   2.177   6.542   4.182
 6477TIP3    H219396   2.255   6.427   4.241
 6478TIP3   OH219397   6.330   0.144   4.059
 6478TIP3    H119398   6.262   0.118   4.121
 6478TIP3    H219399   6.342   0.238   4.075
 6479TIP3   OH219400   3.833   2.078   4.840
 6479TIP3    H119401   3.808   2.057   4.750
 6479TIP3    H219402   3.753   2.067   4.891
 6480TIP3   OH219403   1.763   6.786   4.149
 6480TIP3    H119404   1.687   6.740   4.186
 6480TIP3    H219405   1.795   6.841   4.220
 6481TIP3   OH219406   2.290   3.961   2.871
 6481TIP3    H119407   2.259   4.020   2.802
 6481TIP3    H219408   2.275   4.009   2.952
 6482TIP3   OH219409   4.346   3.437   3.920
 6482TIP3    H119410   4.380   3.358   3.961
 6482TIP3    H219411   4.307   3.407   3.838
 6483TIP3   OH219412   4.527   1.239   5.639
 6483TIP3    H119413   4.569   1.153   5.648
 6483TIP3    H219414   4.459   1.239   5.707
 6484TIP3   OH219415   4.261   3.343   2.913
 6484TIP3    H119416   4.195   3.409   2.895
 6484TIP3    H219417   4.247   3.276   2.846
 6485TIP3   OH219418   6.360   4.975   1.740
 6485TIP3    H119419   6.280   5.022   1.718
 6485TIP3    H219420   6.430   5.027   1.701
 6486TIP3   OH219421   6.125   5.722   4.165
 6486TIP3    H119422   6.116   5.689   4.076
 6486TIP3    H219423   6.065   5.668   4.217
 6487TIP3   OH219424   1.294   1.699   4.935
 6487TIP3    H119425   1.243   1.643   4.993
 6487TIP3    H219426   1.272   1.788   4.963
 6488TIP3   OH219427   5.751   0.282   5.064
 6488TIP3    H119428   5.771   0.222   5.136
 6488TIP3    H219429   5.666   0.319   5.087
 6489TIP3   OH219430   2.686   5.786   0.490
 6489TIP3    H119431   2.673   5.752   0.579
 6489TIP3    H219432   2.713   5.710   0.439
 6490TIP3   OH219433   0.455   5.212   3.493
 6490TIP3    H119434   0.416   5.129   3.520
 6490TIP3    H219435   0.538   5.216   3.539
 6491TIP3   OH219436   1.612   6.338   4.449
 6491TIP3    H119437   1.655   6.265   4.404
 6491TIP3    H219438   1.519   6.317   4.446
 6492TIP3   OH219439   0.902   0.848   0.631
 6492TIP3    H119440   0.845   0.922   0.608
 6492TIP3    H219441   0.971   0.887   0.685
 6493TIP3   OH219442   0.652   2.950   2.043
 6493TIP3    H119443   0.639   3.010   1.970
 6493TIP3    H219444   0.610   2.869   2.017
 6494TIP3   OH219445   5.610   4.896   3.266
 6494TIP3    H119446   5.613   4.845   3.186
 6494TIP3    H219447   5.591   4.986   3.237
 6495TIP3   OH219448   4.361   3.469   2.654
 6495TIP3    H119449   4.453   3.476   2.631
 6495TIP3    H219450   4.349   3.376   2.676
 6496TIP3   OH219451   0.670   6.332   5.181
 6496TIP3    H119452   0.600   6.395   5.163
 6496TIP3    H219453   0.749   6.371   5.144
 6497TIP3   OH219454   3.628   4.084   4.875
 6497TIP3    H119455   3.641   4.140   4.798
 6497TIP3    H219456   3.589   4.004   4.840
 6498TIP3   OH219457   5.675   0.099   2.463
 6498TIP3    H119458   5.733   0.024   2.455
 6498TIP3    H219459   5.638   0.111   2.375
 6499TIP3   OH219460   3.340   2.203   4.552
 6499TIP3    H119461   3.389   2.230   4.630
 6499TIP3    H219462   3.390   2.129   4.517
 6500TIP3   OH219463   4.823   1.328   0.984
 6500TIP3    H119464   4.808   1.420   1.006
 6500TIP3    H219465   4.911   1.310   1.019
 6501TIP3   OH219466   4.315   5.826   4.928
 6501TIP3    H119467   4.311   5.907   4.876
 6501TIP3    H219468   4.386   5.843   4.991
 6502TIP3   OH219469   6.185   1.385   5.859
 6502TIP3    H119470   6.223   1.467   5.889
 6502TIP3    H219471   6.108   1.410   5.808
 6503TIP3   OH219472   5.554   2.230   2.701
 6503TIP3    H119473   5.595   2.262   2.781
 6503TIP3    H219474   5.478   2.181   2.732
 6504TIP3   OH219475   5.868   2.897   0.200
 6504TIP3    H119476   5.935   2.867   0.262
 6504TIP3    H219477   5.862   2.828   0.135
 6505TIP3   OH219478   6.929   4.449   3.661
 6505TIP3    H119479   7.020   4.439   3.686
 6505TIP3    H219480   6.883   4.378   3.706
 6506TIP3   OH219481   1.177   0.916   2.579
 6506TIP3    H119482   1.100   0.898   2.633
 6506TIP3    H219483   1.205   1.004   2.605
 6507TIP3   OH219484   7.006   6.260   0.667
 6507TIP3    H119485   7.085   6.315   0.668
 6507TIP3    H219486   6.943   6.308   0.720
 6508TIP3   OH219487   3.129   1.095   1.998
 6508TIP3    H119488   3.054   1.059   2.046
 6508TIP3    H219489   3.147   1.179   2.041
 6509TIP3   OH219490   4.480   2.830   5.692
 6509TIP3    H119491   4.463   2.762   5.627
 6509TIP3    H219492   4.402   2.830   5.748
 6510TIP3   OH219493   6.487   2.186   5.732
 6510TIP3    H119494   6.549   2.128   5.688
 6510TIP3    H219495   6.543   2.255   5.770
 6511TIP3   OH219496   5.390   3.271   2.531
 6511TIP3    H119497   5.403   3.235   2.619
 6511TIP3    H219498   5.391   3.195   2.473
 6512TIP3   OH219499   2.997   0.469   1.488
 6512TIP3    H119500   2.968   0.501   1.403
 6512TIP3    H219501   2.937   0.508   1.551
 6513TIP3   OH219502   2.118   4.916   5.184
 6513TIP3    H119503   2.055   4.855   5.223
 6513TIP3    H219504   2.064   4.973   5.128
 6514TIP3   OH219505   5.463   3.053   4.421
 6514TIP3    H119506   5.393   3.061   4.486
 6514TIP3    H219507   5.537   3.100   4.459
 6515TIP3   OH219508   0.585   4.857   0.304
 6515TIP3    H119509   0.548   4.774   0.272
 6515TIP3    H219510   0.679   4.839   0.314
 6516TIP3   OH219511   5.042   5.399   2.476
 6516TIP3    H119512   4.996   5.350   2.409
 6516TIP3    H219513   4.999   5.484   2.479
 6517TIP3   OH219514   6.149   5.345   4.086
 6517TIP3    H119515   6.140   5.423   4.031
 6517TIP3    H219516   6.061   5.308   4.090
 6518TIP3   OH219517   1.660   4.663   3.405
 6518TIP3    H119518   1.696   4.686   3.319
 6518TIP3    H219519   1.721   4.596   3.438
 6519TIP3   OH219520   2.600   0.441   4.823
 6519TIP3    H119521   2.515   0.452   4.780
 6519TIP3    H219522   2.588   0.482   4.909
 6520TIP3   OH219523   7.169   0.962   5.717
 6520TIP3    H119524   7.116   0.959   5.637
 6520TIP3    H219525   7.109   0.992   5.785
 6521TIP3   OH219526   0.023   1.117   0.851
 6521TIP3    H119527  -0.059   1.130   0.804
 6521TIP3    H219528   0.004   1.047   0.913
 6522TIP3   OH219529   2.799   3.074   0.807
 6522TIP3    H119530   2.876   3.095   0.860
 6522TIP3    H219531   2.730   3.133   0.839
 6523TIP3   OH219532   5.937   5.110   2.374
 6523TIP3    H119533   5.981   5.191   2.348
 6523TIP3    H219534   5.847   5.137   2.391
 6524TIP3   OH219535   2.733   1.473   5.852
 6524TIP3    H119536   2.697   1.395   5.811
 6524TIP3    H219537   2.730   1.540   5.784
 6525TIP3   OH219538   6.386   0.107   2.329
 6525TIP3    H119539   6.459   0.116   2.269
 6525TIP3    H219540   6.328   0.180   2.307
 6526TIP3   OH219541   5.674   5.164   2.438
 6526TIP3    H119542   5.621   5.234   2.401
 6526TIP3    H219543   5.631   5.083   2.410
 6527TIP3   OH219544   2.501   3.876   4.236
 6527TIP3    H119545   2.441   3.949   4.253
 6527TIP3    H219546   2.449   3.814   4.184
 6528TIP3   OH219547   3.258   0.202   3.139
 6528TIP3    H119548   3.314   0.248   3.076
 6528TIP3    H219549   3.316   0.137   3.179
 6529TIP3   OH219550   0.240   0.065   1.584
 6529TIP3    H119551   0.214   0.115   1.661
 6529TIP3    H219552   0.157   0.037   1.544
 6530TIP3   OH219553   3.538   2.744   4.755
 6530TIP3    H119554   3.587   2.749   4.673
 6530TIP3    H219555   3.577   2.812   4.810
 6531TIP3   OH219556   1.398   2.126   2.332
 6531TIP3    H119557   1.420   2.048   2.382
 6531TIP3    H219558   1.303   2.120   2.319
 6532TIP3   OH219559   2.992   6.475   4.443
 6532TIP3    H119560   3.058   6.406   4.447
 6532TIP3    H219561   2.911   6.433   4.470
 6533TIP3   OH219562   0.551   0.777   3.458
 6533TIP3    H119563   0.537   0.685   3.437
 6533TIP3    H219564   0.593   0.814   3.380
 6534TIP3   OH219565   3.662   1.804   3.780
 6534TIP3    H119566   3.575   1.829   3.812
 6534TIP3    H219567   3.720   1.819   3.855
 6535TIP3   OH219568   4.664   1.400   4.299
 6535TIP3    H119569   4.719   1.463   4.346
 6535TIP3    H219570   4.721   1.362   4.232
 6536TIP3   OH219571   2.756   2.217   4.148
 6536TIP3    H119572   2.723   2.154   4.213
 6536TIP3    H219573   2.824   2.169   4.101
 6537TIP3   OH219574   4.061   0.388   2.116
 6537TIP3    H119575   4.081   0.479   2.138
 6537TIP3    H219576   4.140   0.356   2.072
 6538TIP3   OH219577   2.268   2.065   4.356
 6538TIP3    H119578   2.274   1.986   4.411
 6538TIP3    H219579   2.242   2.031   4.271
 6539TIP3   OH219580   1.897   3.588   4.238
 6539TIP3    H119581   1.869   3.650   4.172
 6539TIP3    H219582   1.974   3.546   4.201
 6540TIP3   OH219583   2.268   4.342   5.896
 6540TIP3    H119584   2.225   4.361   5.812
 6540TIP3    H219585   2.302   4.427   5.925
 6541TIP3   OH219586   2.017   3.512   3.628
 6541TIP3    H119587   2.056   3.535   3.544
 6541TIP3    H219588   2.091   3.490   3.684
 6542TIP3   OH219589   4.111   1.462   5.381
 6542TIP3    H119590   4.094   1.370   5.401
 6542TIP3    H219591   4.052   1.510   5.439
 6543TIP3   OH219592   6.073   0.060   3.687
 6543TIP3    H119593   6.156   0.013   3.678
 6543TIP3    H219594   6.048   0.048   3.779
 6544TIP3   OH219595   3.202   2.507   4.841
 6544TIP3    H119596   3.163   2.457   4.769
 6544TIP3    H219597   3.280   2.456   4.865
 6545TIP3   OH219598   1.827   5.859   5.563
 6545TIP3    H119599   1.825   5.793   5.493
 6545TIP3    H219600   1.737   5.892   5.567
 6546TIP3   OH219601   6.206   0.398   1.491
 6546TIP3    H119602   6.173   0.413   1.402
 6546TIP3    H219603   6.273   0.331   1.480
 6547TIP3   OH219604   5.675   3.347   2.107
 6547TIP3    H119605   5.631   3.266   2.080
 6547TIP3    H219606   5.759   3.346   2.061
 6548TIP3   OH219607   0.102   0.586   1.249
 6548TIP3    H119608   0.189   0.553   1.226
 6548TIP3    H219609   0.068   0.523   1.313
 6549TIP3   OH219610   7.052   3.601   2.735
 6549TIP3    H119611   6.981   3.646   2.781
 6549TIP3    H219612   7.108   3.567   2.804
 6550TIP3   OH219613   0.326   0.236   4.215
 6550TIP3    H119614   0.278   0.302   4.266
 6550TIP3    H219615   0.321   0.268   4.125
 6551TIP3   OH219616   0.868   5.063   5.684
 6551TIP3    H119617   0.937   5.123   5.656
 6551TIP3    H219618   0.861   4.999   5.614
 6552TIP3   OH219619   1.766   0.306   2.433
 6552TIP3    H119620   1.686   0.315   2.485
 6552TIP3    H219621   1.829   0.364   2.475
 6553TIP3   OH219622   1.020   3.064   1.009
 6553TIP3    H119623   1.113   3.048   1.023
 6553TIP3    H219624   1.011   3.079   0.915
 6554TIP3   OH219625   4.388   3.590   3.057
 6554TIP3    H119626   4.394   3.552   2.969
 6554TIP3    H219627   4.380   3.514   3.115
 6555TIP3   OH219628   6.833   3.824   0.418
 6555TIP3    H119629   6.842   3.916   0.392
 6555TIP3    H219630   6.780   3.784   0.349
 6556TIP3   OH219631   1.064   4.191   2.626
 6556TIP3    H119632   0.990   4.132   2.638
 6556TIP3    H219633   1.076   4.196   2.531
 6557TIP3   OH219634   5.407   4.613   0.397
 6557TIP3    H119635   5.469   4.586   0.329
 6557TIP3    H219636   5.425   4.555   0.471
 6558TIP3   OH219637   2.197   3.812   5.743
 6558TIP3    H119638   2.195   3.871   5.818
 6558TIP3    H219639   2.113   3.766   5.747
 6559TIP3   OH219640   5.019   6.198   0.062
 6559TIP3    H119641   5.011   6.291   0.043
 6559TIP3    H219642   4.938   6.175   0.107
 6560TIP3   OH219643   6.475   3.126   1.638
 6560TIP3    H119644   6.455   3.035   1.659
 6560TIP3    H219645   6.444   3.175   1.714
 6561TIP3   OH219646   0.872   6.062   2.091
 6561TIP3    H119647   0.933   6.054   2.164
 6561TIP3    H219648   0.927   6.080   2.015
 6562TIP3   OH219649   1.592   2.855   4.802
 6562TIP3    H119650   1.521   2.919   4.814
 6562TIP3    H219651   1.568   2.808   4.722
 6563TIP3   OH219652   5.440   6.294   4.154
 6563TIP3    H119653   5.499   6.308   4.229
 6563TIP3    H219654   5.488   6.327   4.079
 6564TIP3   OH219655   7.107   1.512   5.702
 6564TIP3    H119656   7.150   1.546   5.623
 6564TIP3    H219657   7.129   1.574   5.771
 6565TIP3   OH219658   3.490   0.246   1.334
 6565TIP3    H119659   3.493   0.318   1.272
 6565TIP3    H219660   3.580   0.235   1.363
 6566TIP3   OH219661   4.318   4.368   3.045
 6566TIP3    H119662   4.297   4.390   3.136
 6566TIP3    H219663   4.407   4.400   3.033
 6567TIP3   OH219664   4.099   1.485   2.100
 6567TIP3    H119665   4.035   1.448   2.040
 6567TIP3    H219666   4.054   1.487   2.185
 6568TIP3   OH219667   1.391   5.880   3.077
 6568TIP3    H119668   1.300   5.859   3.098
 6568TIP3    H219669   1.397   5.874   2.982
 6569TIP3   OH219670   5.709   0.485   3.075
 6569TIP3    H119671   5.750   0.528   3.150
 6569TIP3    H219672   5.643   0.428   3.114
 6570TIP3   OH219673   2.929   1.754   5.417
 6570TIP3    H119674   2.907   1.846   5.429
 6570TIP3    H219675   2.890   1.730   5.333
 6571TIP3   OH219676   6.884   5.578   5.499
 6571TIP3    H119677   6.827   5.646   5.533
 6571TIP3    H219678   6.826   5.516   5.456
 6572TIP3   OH219679   6.963   4.926   4.356
 6572TIP3    H119680   6.962   4.834   4.332
 6572TIP3    H219681   6.931   4.972   4.278
 6573TIP3   OH219682   4.991   6.436   5.019
 6573TIP3    H119683   5.056   6.420   4.950
 6573TIP3    H219684   4.967   6.349   5.050
 6574TIP3   OH219685   6.793   4.569   2.100
 6574TIP3    H119686   6.824   4.523   2.178
 6574TIP3    H219687   6.697   4.568   2.108
 6575TIP3   OH219688   0.849   4.314   5.453
 6575TIP3    H119689   0.833   4.309   5.359
 6575TIP3    H219690   0.763   4.332   5.491
 6576TIP3   OH219691   2.114   3.230   0.698
 6576TIP3    H119692   2.133   3.139   0.676
 6576TIP3    H219693   2.063   3.225   0.779
 6577TIP3   OH219694   1.244   4.254   2.831
 6577TIP3    H119695   1.259   4.182   2.892
 6577TIP3    H219696   1.179   4.220   2.769
 6578TIP3   OH219697   2.900   3.141   2.460
 6578TIP3    H119698   2.965   3.168   2.524
 6578TIP3    H219699   2.844   3.079   2.507
 6579TIP3   OH219700   2.694   6.671   3.482
 6579TIP3    H119701   2.665   6.654   3.571
 6579TIP3    H219702   2.784   6.703   3.491
 6580TIP3   OH219703   6.485   0.407   3.216
 6580TIP3    H119704   6.429   0.444   3.285
 6580TIP3    H219705   6.519   0.483   3.169
 6581TIP3   OH219706   6.641   0.005   0.465
 6581TIP3    H119707   6.559   0.043   0.497
 6581TIP3    H219708   6.630   0.004   0.370
 6582TIP3   OH219709   4.133   2.564   4.494
 6582TIP3    H119710   4.198   2.494   4.495
 6582TIP3    H219711   4.147   2.609   4.411
 6583TIP3   OH219712   6.095   3.677   4.533
 6583TIP3    H119713   6.185   3.670   4.563
 6583TIP3    H219714   6.088   3.765   4.497
 6584TIP3   OH219715   2.573   5.230   3.639
 6584TIP3    H119716   2.503   5.200   3.581
 6584TIP3    H219717   2.546   5.199   3.726
 6585TIP3   OH219718   6.400   0.944   4.770
 6585TIP3    H119719   6.411   0.849   4.772
 6585TIP3    H219720   6.422   0.973   4.859
 6586TIP3   OH219721   5.162   4.530   1.945
 6586TIP3    H119722   5.232   4.590   1.921
 6586TIP3    H219723   5.082   4.569   1.909
 6587TIP3   OH219724   3.124   3.968   2.051
 6587TIP3    H119725   3.091   4.057   2.045
 6587TIP3    H219726   3.214   3.973   2.019
 6588TIP3   OH219727   6.178   5.528   0.090
 6588TIP3    H119728   6.129   5.448   0.070
 6588TIP3    H219729   6.185   5.529   0.185
 6589TIP3   OH219730   2.602   4.837   4.398
 6589TIP3    H119731   2.685   4.884   4.406
 6589TIP3    H219732   2.560   4.847   4.483
 6590TIP3   OH219733   6.023   4.357   4.769
 6590TIP3    H119734   6.075   4.280   4.789
 6590TIP3    H219735   6.048   4.421   4.836
 6591TIP3   OH219736   2.146   0.739   2.847
 6591TIP3    H119737   2.139   0.729   2.942
 6591TIP3    H219738   2.093   0.668   2.811
 6592TIP3   OH219739   2.589   1.834   3.447
 6592TIP3    H119740   2.653   1.902   3.470
 6592TIP3    H219741   2.640   1.753   3.445
 6593TIP3   OH219742   4.419   1.105   3.644
 6593TIP3    H119743   4.362   1.043   3.689
 6593TIP3    H219744   4.507   1.082   3.673
 6594TIP3   OH219745   2.372   5.917   2.538
 6594TIP3    H119746   2.337   5.982   2.599
 6594TIP3    H219747   2.312   5.920   2.463
 6595TIP3   OH219748   7.045   0.267   2.011
 6595TIP3    H119749   7.007   0.354   2.026
 6595TIP3    H219750   7.138   0.279   2.027
 6596TIP3   OH219751   5.913   2.713   0.019
 6596TIP3    H119752   5.913   2.628   0.062
 6596TIP3    H219753   5.861   2.700  -0.060
 6597TIP3   OH219754   2.837   6.267   3.466
 6597TIP3    H119755   2.830   6.182   3.509
 6597TIP3    H219756   2.917   6.260   3.413
 6598TIP3   OH219757   5.703   1.592   5.464
 6598TIP3    H119758   5.704   1.499   5.443
 6598TIP3    H219759   5.714   1.596   5.559
 6599TIP3   OH219760   4.140   4.960   4.190
 6599TIP3    H119761   4.084   4.884   4.174
 6599TIP3    H219762   4.150   5.001   4.104
 6600TIP3   OH219763   5.352   6.653   1.302
 6600TIP3    H119764   5.278   6.713   1.306
 6600TIP3    H219765   5.423   6.706   1.265
 6601TIP3   OH219766   0.316   0.975   3.859
 6601TIP3    H119767   0.308   0.996   3.766
 6601TIP3    H219768   0.274   1.048   3.904
 6602TIP3   OH219769   2.481   1.281   1.931
 6602TIP3    H119770   2.417   1.323   1.875
 6602TIP3    H219771   2.517   1.210   1.878
 6603TIP3   OH219772   6.962   5.134   1.013
 6603TIP3    H119773   6.885   5.145   0.958
 6603TIP3    H219774   6.956   5.043   1.045
 6604TIP3   OH219775   3.910   0.657   1.546
 6604TIP3    H119776   3.980   0.640   1.608
 6604TIP3    H219777   3.868   0.572   1.533
 6605TIP3   OH219778   5.000   1.742   1.509
 6605TIP3    H119779   5.071   1.792   1.468
 6605TIP3    H219780   5.012   1.756   1.603
 6606TIP3   OH219781   2.161   2.449   2.910
 6606TIP3    H119782   2.105   2.527   2.905
 6606TIP3    H219783   2.126   2.398   2.983
 6607TIP3   OH219784   1.581   1.577   0.934
 6607TIP3    H119785   1.629   1.620   0.863
 6607TIP3    H219786   1.520   1.519   0.889
 6608TIP3   OH219787   2.199   0.231   5.344
 6608TIP3    H119788   2.231   0.209   5.432
 6608TIP3    H219789   2.277   0.227   5.289
 6609TIP3   OH219790   0.481   5.831   4.975
 6609TIP3    H119791   0.509   5.908   5.023
 6609TIP3    H219792   0.398   5.806   5.017
 6610TIP3   OH219793   2.504   0.059   4.578
 6610TIP3    H119794   2.415   0.091   4.586
 6610TIP3    H219795   2.555   0.115   4.636
 6611TIP3   OH219796   4.715   0.268   3.988
 6611TIP3    H119797   4.661   0.336   3.947
 6611TIP3    H219798   4.784   0.251   3.923
 6612TIP3   OH219799   1.603   2.419   1.670
 6612TIP3    H119800   1.623   2.346   1.729
 6612TIP3    H219801   1.513   2.443   1.691
 6613TIP3   OH219802   4.054   1.956   4.930
 6613TIP3    H119803   3.971   1.967   4.883
 6613TIP3    H219804   4.035   1.982   5.020
 6614TIP3   OH219805   4.844   6.318   2.852
 6614TIP3    H119806   4.764   6.327   2.904
 6614TIP3    H219807   4.813   6.289   2.766
 6615TIP3   OH219808   0.240   0.154   0.577
 6615TIP3    H119809   0.174   0.110   0.630
 6615TIP3    H219810   0.293   0.082   0.541
 6616TIP3   OH219811   6.497   5.563   2.306
 6616TIP3    H119812   6.431   5.588   2.371
 6616TIP3    H219813   6.456   5.493   2.257
 6617TIP3   OH219814   0.394   6.141   0.364
 6617TIP3    H119815   0.319   6.168   0.311
 6617TIP3    H219816   0.400   6.046   0.349
 6618TIP3   OH219817   2.528   3.322   2.251
 6618TIP3    H119818   2.436   3.307   2.275
 6618TIP3    H219819   2.565   3.368   2.327
 6619TIP3   OH219820   1.859   5.747   5.280
 6619TIP3    H119821   1.914   5.688   5.331
 6619TIP3    H219822   1.792   5.690   5.242
 6620TIP3   OH219823   4.434   1.142   4.056
 6620TIP3    H119824   4.372   1.088   4.007
 6620TIP3    H219825   4.453   1.216   3.998
 6621TIP3   OH219826   3.656   5.116   3.923
 6621TIP3    H119827   3.706   5.071   3.856
 6621TIP3    H219828   3.710   5.111   4.002
 6622TIP3   OH219829   6.379   1.291   4.338
 6622TIP3    H119830   6.381   1.200   4.369
 6622TIP3    H219831   6.461   1.329   4.369
 6623TIP3   OH219832   4.232   4.132   1.292
 6623TIP3    H119833   4.172   4.191   1.338
 6623TIP3    H219834   4.182   4.051   1.281
 6624TIP3   OH219835   6.320   1.417   0.565
 6624TIP3    H119836   6.261   1.368   0.622
 6624TIP3    H219837   6.396   1.359   0.553
 6625TIP3   OH219838   4.789   6.621   2.007
 6625TIP3    H119839   4.849   6.668   2.064
 6625TIP3    H219840   4.702   6.647   2.037
 6626TIP3   OH219841   1.454   1.665   1.805
 6626TIP3    H119842   1.424   1.755   1.819
 6626TIP3    H219843   1.519   1.650   1.873
 6627TIP3   OH219844   6.154   5.154   3.836
 6627TIP3    H119845   6.104   5.232   3.812
 6627TIP3    H219846   6.109   5.082   3.791
 6628TIP3   OH219847   3.345   5.428   3.902
 6628TIP3    H119848   3.255   5.424   3.936
 6628TIP3    H219849   3.341   5.494   3.833
 6629TIP3   OH219850   1.559   5.565   1.041
 6629TIP3    H119851   1.616   5.638   1.065
 6629TIP3    H219852   1.562   5.507   1.117
 6630TIP3   OH219853   0.809   3.345   5.594
 6630TIP3    H119854   0.732   3.301   5.629
 6630TIP3    H219855   0.867   3.357   5.669
 6631TIP3   OH219856   1.156   4.971   3.411
 6631TIP3    H119857   1.208   5.043   3.374
 6631TIP3    H219858   1.166   4.900   3.348
 6632TIP3   OH219859   6.788   0.942   2.194
 6632TIP3    H119860   6.814   0.913   2.281
 6632TIP3    H219861   6.824   1.030   2.187
 6633TIP3   OH219862   1.748   3.139   1.227
 6633TIP3    H119863   1.839   3.115   1.246
 6633TIP3    H219864   1.728   3.095   1.145
 6634TIP3   OH219865   3.990   2.398   0.333
 6634TIP3    H119866   4.024   2.485   0.353
 6634TIP3    H219867   4.067   2.342   0.327
 6635TIP3   OH219868   2.546   4.790   0.923
 6635TIP3    H119869   2.621   4.731   0.916
 6635TIP3    H219870   2.504   4.786   0.837
 6636TIP3   OH219871   1.783   1.510   4.267
 6636TIP3    H119872   1.796   1.566   4.190
 6636TIP3    H219873   1.693   1.479   4.259
 6637TIP3   OH219874   1.141   4.471   3.679
 6637TIP3    H119875   1.166   4.453   3.589
 6637TIP3    H219876   1.151   4.387   3.724
 6638TIP3   OH219877   0.078   0.482   1.706
 6638TIP3    H119878   0.089   0.523   1.620
 6638TIP3    H219879   0.037   0.550   1.759
 6639TIP3   OH219880   6.988   4.993   2.589
 6639TIP3    H119881   7.014   5.055   2.521
 6639TIP3    H219882   6.911   5.033   2.630
 6640TIP3   OH219883   4.018   4.518   5.869
 6640TIP3    H119884   3.946   4.533   5.808
 6640TIP3    H219885   4.030   4.602   5.914
 6641TIP3   OH219886   3.705   5.581   4.906
 6641TIP3    H119887   3.722   5.501   4.956
 6641TIP3    H219888   3.770   5.579   4.836
 6642TIP3   OH219889   6.529   0.154   3.304
 6642TIP3    H119890   6.526   0.240   3.263
 6642TIP3    H219891   6.457   0.155   3.367
 6643TIP3   OH219892   0.519   5.644   0.563
 6643TIP3    H119893   0.607   5.679   0.554
 6643TIP3    H219894   0.463   5.707   0.517
 6644TIP3   OH219895   5.388   6.762   5.889
 6644TIP3    H119896   5.431   6.694   5.940
 6644TIP3    H219897   5.430   6.759   5.804
 6645TIP3   OH219898   3.067   6.656   4.704
 6645TIP3    H119899   3.134   6.610   4.754
 6645TIP3    H219900   3.026   6.587   4.650
 6646TIP3   OH219901   2.650   1.122   4.732
 6646TIP3    H119902   2.702   1.048   4.764
 6646TIP3    H219903   2.708   1.198   4.742
 6647TIP3   OH219904   3.285   6.708   4.468
 6647TIP3    H119905   3.190   6.696   4.472
 6647TIP3    H219906   3.311   6.666   4.387
 6648TIP3   OH219907   0.473   1.629   1.974
 6648TIP3    H119908   0.380   1.617   1.990
 6648TIP3    H219909   0.516   1.571   2.038
 6649TIP3   OH219910   1.647   5.348   1.983
 6649TIP3    H119911   1.671   5.410   1.915
 6649TIP3    H219912   1.663   5.262   1.944
 6650TIP3   OH219913   0.980   4.722   0.748
 6650TIP3    H119914   0.983   4.701   0.842
 6650TIP3    H219915   0.912   4.789   0.741
 6651TIP3   OH219916   4.852   1.991   0.140
 6651TIP3    H119917   4.820   1.924   0.080
 6651TIP3    H219918   4.773   2.023   0.183
 6652TIP3   OH219919   5.424   4.263   4.758
 6652TIP3    H119920   5.388   4.331   4.815
 6652TIP3    H219921   5.385   4.182   4.789
 6653TIP3   OH219922   0.588   2.309   3.779
 6653TIP3    H119923   0.626   2.323   3.865
 6653TIP3    H219924   0.493   2.304   3.795
 6654TIP3   OH219925   1.230   2.628   1.470
 6654TIP3    H119926   1.313   2.663   1.439
 6654TIP3    H219927   1.238   2.627   1.565
 6655TIP3   OH219928   3.607   4.223   1.611
 6655TIP3    H119929   3.611   4.306   1.563
 6655TIP3    H219930   3.557   4.165   1.554
 6656TIP3   OH219931   4.349   2.223   1.762
 6656TIP3    H119932   4.306   2.272   1.692
 6656TIP3    H219933   4.380   2.289   1.823
 6657TIP3   OH219934   3.703   0.547   5.879
 6657TIP3    H119935   3.636   0.481   5.864
 6657TIP3    H219936   3.782   0.510   5.839
 6658TIP3   OH219937   2.504   5.916   0.988
 6658TIP3    H119938   2.472   5.911   1.078
 6658TIP3    H219939   2.590   5.958   0.995
 6659TIP3   OH219940   0.211   6.618   4.810
 6659TIP3    H119941   0.201   6.525   4.833
 6659TIP3    H219942   0.216   6.620   4.715
 6660TIP3   OH219943   3.773   5.525   5.242
 6660TIP3    H119944   3.824   5.551   5.165
 6660TIP3    H219945   3.807   5.579   5.313
 6661TIP3   OH219946   0.362   2.518   3.415
 6661TIP3    H119947   0.308   2.590   3.381
 6661TIP3    H219948   0.417   2.559   3.482
 6662TIP3   OH219949   5.274   4.433   3.801
 6662TIP3    H119950   5.292   4.372   3.729
 6662TIP3    H219951   5.360   4.466   3.826
 6663TIP3   OH219952   5.204   4.068   3.210
 6663TIP3    H119953   5.201   4.069   3.306
 6663TIP3    H219954   5.130   4.121   3.183
 6664TIP3   OH219955   0.437   6.390   3.495
 6664TIP3    H119956   0.395   6.310   3.464
 6664TIP3    H219957   0.516   6.361   3.541
 6665TIP3   OH219958   1.325   1.292   0.062
 6665TIP3    H119959   1.339   1.209   0.108
 6665TIP3    H219960   1.408   1.338   0.070
 6666TIP3   OH219961   4.764   3.964   0.742
 6666TIP3    H119962   4.810   4.005   0.815
 6666TIP3    H219963   4.828   3.960   0.671
 6667TIP3   OH219964   0.308   5.253   4.545
 6667TIP3    H119965   0.356   5.172   4.556
 6667TIP3    H219966   0.372   5.322   4.564
 6668TIP3   OH219967   5.932   6.380   0.833
 6668TIP3    H119968   5.858   6.371   0.773
 6668TIP3    H219969   5.958   6.290   0.852
 6669TIP3   OH219970   6.968   1.719   5.282
 6669TIP3    H119971   7.001   1.666   5.354
 6669TIP3    H219972   6.873   1.706   5.284
 6670TIP3   OH219973   1.856   5.290   0.525
 6670TIP3    H119974   1.868   5.245   0.609
 6670TIP3    H219975   1.761   5.300   0.517
 6671TIP3   OH219976   3.430   1.389   0.153
 6671TIP3    H119977   3.499   1.327   0.176
 6671TIP3    H219978   3.464   1.474   0.183
 6672TIP3   OH219979   3.511   6.564   5.258
 6672TIP3    H119980   3.498   6.493   5.194
 6672TIP3    H219981   3.573   6.528   5.321
 6673TIP3   OH219982   2.979   2.193   0.676
 6673TIP3    H119983   2.903   2.240   0.711
 6673TIP3    H219984   2.992   2.231   0.589
 6674TIP3   OH219985   0.844   4.221   5.177
 6674TIP3    H119986   0.924   4.169   5.168
 6674TIP3    H219987   0.828   4.256   5.090
 6675TIP3   OH219988   4.341   5.539   0.532
 6675TIP3    H119989   4.394   5.619   0.522
 6675TIP3    H219990   4.251   5.570   0.525
 6676TIP3   OH219991   4.079   3.617   1.548
 6676TIP3    H119992   4.033   3.559   1.610
 6676TIP3    H219993   4.061   3.705   1.581
 6677TIP3   OH219994   2.048   4.247   0.196
 6677TIP3    H119995   1.994   4.249   0.276
 6677TIP3    H219996   2.137   4.231   0.228
 6678TIP3   OH219997   6.907   6.463   2.379
 6678TIP3    H119998   6.998   6.480   2.355
 6678TIP3    H219999   6.881   6.390   2.324
 6679TIP3   OH220000   4.533   1.090   5.272
 6679TIP3    H120001   4.557   1.128   5.188
 6679TIP3    H220002   4.447   1.128   5.291
 6680TIP3   OH220003   5.521   2.575   4.081
 6680TIP3    H120004   5.484   2.623   4.007
 6680TIP3    H220005   5.558   2.496   4.043
 6681TIP3   OH220006   3.027   3.026   0.974
 6681TIP3    H120007   3.005   3.059   1.061
 6681TIP3    H220008   3.018   2.931   0.980
 6682TIP3   OH220009   1.846   3.798   4.058
 6682TIP3    H120010   1.784   3.865   4.087
 6682TIP3    H220011   1.816   3.773   3.971
 6683TIP3   OH220012   0.624   1.597   4.721
 6683TIP3    H120013   0.537   1.564   4.700
 6683TIP3    H220014   0.634   1.583   4.815
 6684TIP3   OH220015   2.996   2.210   1.635
 6684TIP3    H120016   2.909   2.250   1.641
 6684TIP3    H220017   2.983   2.132   1.582
 6685TIP3   OH220018   0.347   2.238   5.530
 6685TIP3    H120019   0.363   2.155   5.574
 6685TIP3    H220020   0.255   2.234   5.503
 6686TIP3   OH220021   0.267   5.413   0.170
 6686TIP3    H120022   0.179   5.397   0.136
 6686TIP3    H220023   0.308   5.327   0.172
 6687TIP3   OH220024   7.097   4.835   1.065
 6687TIP3    H120025   7.009   4.832   1.029
 6687TIP3    H220026   7.152   4.863   0.991
 6688TIP3   OH220027   5.747   6.191   4.174
 6688TIP3    H120028   5.824   6.155   4.130
 6688TIP3    H220029   5.719   6.262   4.118
 6689TIP3   OH220030   7.139   3.878   5.929
 6689TIP3    H120031   7.178   3.823   5.860
 6689TIP3    H220032   7.162   3.967   5.904
 6690TIP3   OH220033   2.533   2.877   1.387
 6690TIP3    H120034   2.567   2.827   1.461
 6690TIP3    H220035   2.439   2.883   1.402
 6691TIP3   OH220036   2.037   0.786   4.739
 6691TIP3    H120037   1.975   0.846   4.782
 6691TIP3    H220038   1.989   0.751   4.664
 6692TIP3   OH220039   5.945   0.223   1.133
 6692TIP3    H120040   5.919   0.133   1.152
 6692TIP3    H220041   5.929   0.234   1.039
 6693TIP3   OH220042   6.670   2.573   4.672
 6693TIP3    H120043   6.696   2.655   4.629
 6693TIP3    H220044   6.711   2.504   4.620
 6694TIP3   OH220045   2.703   3.091   3.544
 6694TIP3    H120046   2.674   3.004   3.515
 6694TIP3    H220047   2.647   3.110   3.620
 6695TIP3   OH220048   5.700   1.623   1.898
 6695TIP3    H120049   5.692   1.708   1.942
 6695TIP3    H220050   5.743   1.644   1.814
 6696TIP3   OH220051   2.618   0.225   3.063
 6696TIP3    H120052   2.529   0.201   3.036
 6696TIP3    H220053   2.629   0.315   3.032
 6697TIP3   OH220054   0.453   1.802   2.302
 6697TIP3    H120055   0.377   1.849   2.269
 6697TIP3    H220056   0.527   1.835   2.251
 6698TIP3   OH220057   3.485   1.039   1.613
 6698TIP3    H120058   3.402   0.994   1.598
 6698TIP3    H220059   3.529   0.986   1.679
 6699TIP3   OH220060   6.063   2.821   3.377
 6699TIP3    H120061   6.120   2.890   3.344
 6699TIP3    H220062   6.044   2.847   3.467
 6700TIP3   OH220063   4.248   6.733   5.511
 6700TIP3    H120064   4.312   6.803   5.509
 6700TIP3    H220065   4.163   6.777   5.518
 6701TIP3   OH220066   6.008   2.686   0.458
 6701TIP3    H120067   6.042   2.684   0.547
 6701TIP3    H220068   6.084   2.709   0.404
 6702TIP3   OH220069   6.132   5.850   1.076
 6702TIP3    H120070   6.123   5.891   1.162
 6702TIP3    H220071   6.043   5.844   1.043
 6703TIP3   OH220072   3.113   2.699   5.487
 6703TIP3    H120073   3.138   2.621   5.437
 6703TIP3    H220074   3.191   2.720   5.540
 6704TIP3   OH220075   1.338   1.133   3.367
 6704TIP3    H120076   1.321   1.071   3.296
 6704TIP3    H220077   1.268   1.118   3.430
 6705TIP3   OH220078   6.252   0.478   4.511
 6705TIP3    H120079   6.266   0.450   4.602
 6705TIP3    H220080   6.265   0.573   4.513
 6706TIP3   OH220081   7.156   6.748   0.157
 6706TIP3    H120082   7.188   6.686   0.092
 6706TIP3    H220083   7.175   6.706   0.241
 6707TIP3   OH220084   4.814   4.327   4.459
 6707TIP3    H120085   4.842   4.238   4.481
 6707TIP3    H220086   4.755   4.316   4.385
 6708TIP3   OH220087   3.395   0.604   5.634
 6708TIP3    H120088   3.325   0.558   5.681
 6708TIP3    H220089   3.351   0.643   5.559
 6709TIP3   OH220090   0.055   4.101   3.885
 6709TIP3    H120091   0.067   4.160   3.959
 6709TIP3    H220092   0.127   4.123   3.826
 6710TIP3   OH220093   6.968   0.005   4.909
 6710TIP3    H120094   7.051  -0.025   4.946
 6710TIP3    H220095   6.921   0.044   4.983
 6711TIP3   OH220096   2.394   2.440   5.450
 6711TIP3    H120097   2.395   2.532   5.474
 6711TIP3    H220098   2.405   2.439   5.355
 6712TIP3   OH220099   5.850   1.525   0.064
 6712TIP3    H120100   5.858   1.456  -0.002
 6712TIP3    H220101   5.833   1.479   0.145
 6713TIP3   OH220102   1.021   0.917   1.041
 6713TIP3    H120103   0.935   0.910   1.084
 6713TIP3    H220104   1.080   0.869   1.099
 6714TIP3   OH220105   3.968   4.501   3.321
 6714TIP3    H120106   3.977   4.436   3.390
 6714TIP3    H220107   4.057   4.534   3.307
 6715TIP3   OH220108   1.433   5.087   2.263
 6715TIP3    H120109   1.494   5.043   2.204
 6715TIP3    H220110   1.471   5.174   2.276
 6716TIP3   OH220111   2.430   0.871   2.581
 6716TIP3    H120112   2.490   0.837   2.514
 6716TIP3    H220113   2.481   0.870   2.662
 6717TIP3   OH220114   6.043   3.389   1.249
 6717TIP3    H120115   6.126   3.437   1.252
 6717TIP3    H220116   6.016   3.384   1.341
 6718TIP3   OH220117   2.486   2.309   3.033
 6718TIP3    H120118   2.454   2.386   2.985
 6718TIP3    H220119   2.413   2.248   3.029
 6719TIP3   OH220120   3.371   2.990   0.534
 6719TIP3    H120121   3.440   2.943   0.581
 6719TIP3    H220122   3.327   3.042   0.602
 6720TIP3   OH220123   1.077   6.259   0.632
 6720TIP3    H120124   1.073   6.246   0.727
 6720TIP3    H220125   1.011   6.326   0.614
 6721TIP3   OH220126   6.840   0.750   3.468
 6721TIP3    H120127   6.916   0.787   3.512
 6721TIP3    H220128   6.768   0.763   3.529
 6722TIP3   OH220129   1.832   6.686   2.921
 6722TIP3    H120130   1.926   6.670   2.912
 6722TIP3    H220131   1.815   6.676   3.015
 6723TIP3   OH220132   3.686   1.453   0.379
 6723TIP3    H120133   3.725   1.538   0.357
 6723TIP3    H220134   3.680   1.454   0.475
 6724TIP3   OH220135   4.267   2.330   5.321
 6724TIP3    H120136   4.298   2.244   5.292
 6724TIP3    H220137   4.341   2.389   5.307
 6725TIP3   OH220138   6.677   0.168   4.586
 6725TIP3    H120139   6.683   0.097   4.651
 6725TIP3    H220140   6.603   0.143   4.531
 6726TIP3   OH220141   3.006   0.178   0.599
 6726TIP3    H120142   2.953   0.258   0.597
 6726TIP3    H220143   2.965   0.124   0.666
 6727TIP3   OH220144   2.362   3.734   0.699
 6727TIP3    H120145   2.444   3.697   0.729
 6727TIP3    H220146   2.303   3.659   0.690
 6728TIP3   OH220147   0.838   5.743   3.210
 6728TIP3    H120148   0.756   5.694   3.208
 6728TIP3    H220149   0.866   5.737   3.302
 6729TIP3   OH220150   2.971   1.847   4.494
 6729TIP3    H120151   2.928   1.799   4.423
 6729TIP3    H220152   2.900   1.865   4.556
 6730TIP3   OH220153   6.343   1.802   4.699
 6730TIP3    H120154   6.257   1.761   4.711
 6730TIP3    H220155   6.396   1.734   4.658
 6731TIP3   OH220156   1.799   2.700   3.956
 6731TIP3    H120157   1.715   2.708   4.001
 6731TIP3    H220158   1.784   2.634   3.888
 6732TIP3   OH220159   2.627   3.915   3.641
 6732TIP3    H120160   2.585   3.915   3.727
 6732TIP3    H220161   2.681   3.836   3.640
 6733TIP3   OH220162   0.436   6.733   2.589
 6733TIP3    H120163   0.377   6.800   2.623
 6733TIP3    H220164   0.519   6.779   2.577
 6734TIP3   OH220165   3.301   6.180   1.045
 6734TIP3    H120166   3.247   6.111   1.086
 6734TIP3    H220167   3.243   6.221   0.981
 6735TIP3   OH220168   3.387   4.719   3.426
 6735TIP3    H120169   3.453   4.663   3.468
 6735TIP3    H220170   3.437   4.770   3.363
 6736TIP3   OH220171   6.127   5.678   4.726
 6736TIP3    H120172   6.152   5.590   4.696
 6736TIP3    H220173   6.096   5.722   4.647
 6737TIP3   OH220174   0.732   3.071   4.550
 6737TIP3    H120175   0.692   3.051   4.466
 6737TIP3    H220176   0.826   3.076   4.532
 6738TIP3   OH220177   4.666   4.073   1.518
 6738TIP3    H120178   4.689   4.166   1.512
 6738TIP3    H220179   4.594   4.062   1.456
 6739TIP3   OH220180   7.031   3.347   2.005
 6739TIP3    H120181   7.125   3.330   2.003
 6739TIP3    H220182   6.991   3.260   2.005
 6740TIP3   OH220183   1.336   0.121   3.700
 6740TIP3    H120184   1.383   0.047   3.661
 6740TIP3    H220185   1.270   0.080   3.755
 6741TIP3   OH220186   0.294   4.822   2.531
 6741TIP3    H120187   0.207   4.825   2.570
 6741TIP3    H220188   0.352   4.799   2.603
 6742TIP3   OH220189   3.861   2.323   0.630
 6742TIP3    H120190   3.890   2.414   0.627
 6742TIP3    H220191   3.823   2.307   0.544
 6743TIP3   OH220192   4.629   0.128   0.924
 6743TIP3    H120193   4.588   0.049   0.891
 6743TIP3    H220194   4.574   0.154   0.998
 6744TIP3   OH220195   3.438   2.096   0.680
 6744TIP3    H120196   3.370   2.093   0.748
 6744TIP3    H220197   3.517   2.065   0.724
 6745TIP3   OH220198   4.579   4.253   2.264
 6745TIP3    H120199   4.621   4.262   2.178
 6745TIP3    H220200   4.526   4.173   2.256
 6746TIP3   OH220201   3.116   2.540   0.054
 6746TIP3    H120202   3.025   2.512   0.040
 6746TIP3    H220203   3.129   2.611  -0.008
 6747TIP3   OH220204   3.611   5.979   2.039
 6747TIP3    H120205   3.624   5.972   2.134
 6747TIP3    H220206   3.521   6.012   2.030
 6748TIP3   OH220207   3.646   3.327   2.404
 6748TIP3    H120208   3.630   3.347   2.496
 6748TIP3    H220209   3.566   3.284   2.375
 6749TIP3   OH220210   6.284   1.346   3.794
 6749TIP3    H120211   6.370   1.306   3.779
 6749TIP3    H220212   6.272   1.343   3.889
 6750TIP3   OH220213   2.066   1.962   2.341
 6750TIP3    H120214   1.992   1.923   2.386
 6750TIP3    H220215   2.103   2.024   2.404
 6751TIP3   OH220216   1.919   5.374   3.194
 6751TIP3    H120217   1.852   5.387   3.261
 6751TIP3    H220218   1.986   5.439   3.214
 6752TIP3   OH220219   6.653   1.500   5.917
 6752TIP3    H120220   6.630   1.550   5.838
 6752TIP3    H220221   6.724   1.442   5.889
 6753TIP3   OH220222   5.904   5.129   4.133
 6753TIP3    H120223   5.870   5.056   4.183
 6753TIP3    H220224   5.897   5.102   4.041
 6754TIP3   OH220225   6.303   1.680   5.355
 6754TIP3    H120226   6.329   1.589   5.341
 6754TIP3    H220227   6.386   1.728   5.363
 6755TIP3   OH220228   0.954   0.842   2.757
 6755TIP3    H120229   0.955   0.747   2.746
 6755TIP3    H220230   0.863   0.863   2.775
 6756TIP3   OH220231   6.927   1.798   3.794
 6756TIP3    H120232   6.921   1.748   3.875
 6756TIP3    H220233   6.845   1.849   3.792
 6757TIP3   OH220234   1.231   6.292   2.037
 6757TIP3    H120235   1.314   6.339   2.045
 6757TIP3    H220236   1.224   6.242   2.118
 6758TIP3   OH220237   2.867   5.470   5.587
 6758TIP3    H120238   2.961   5.479   5.571
 6758TIP3    H220239   2.838   5.559   5.606
 6759TIP3   OH220240   1.120   0.337   4.601
 6759TIP3    H120241   1.074   0.267   4.647
 6759TIP3    H220242   1.102   0.323   4.509
 6760TIP3   OH220243   2.036   2.006   4.658
 6760TIP3    H120244   2.055   1.994   4.751
 6760TIP3    H220245   1.944   1.983   4.649
 6761TIP3   OH220246   4.408   5.005   4.266
 6761TIP3    H120247   4.326   4.979   4.224
 6761TIP3    H220248   4.388   5.091   4.304
 6762TIP3   OH220249   5.377   3.540   5.172
 6762TIP3    H120250   5.364   3.454   5.133
 6762TIP3    H220251   5.300   3.553   5.228
 6763TIP3   OH220252   1.961   4.875   0.788
 6763TIP3    H120253   2.030   4.830   0.837
 6763TIP3    H220254   1.977   4.851   0.696
 6764TIP3   OH220255   4.874   1.214   5.750
 6764TIP3    H120256   4.895   1.232   5.842
 6764TIP3    H220257   4.851   1.121   5.747
 6765TIP3   OH220258   3.164   2.396   1.862
 6765TIP3    H120259   3.078   2.437   1.849
 6765TIP3    H220260   3.194   2.430   1.946
 6766TIP3   OH220261   4.574   1.017   2.791
 6766TIP3    H120262   4.537   1.044   2.875
 6766TIP3    H220263   4.650   1.073   2.778
 6767TIP3   OH220264   6.252   4.434   0.288
 6767TIP3    H120265   6.345   4.443   0.269
 6767TIP3    H220266   6.247   4.357   0.345
 6768TIP3   OH220267   4.218   2.455   5.012
 6768TIP3    H120268   4.269   2.415   4.942
 6768TIP3    H220269   4.233   2.399   5.088
 6769TIP3   OH220270   1.379   5.154   0.464
 6769TIP3    H120271   1.409   5.068   0.433
 6769TIP3    H220272   1.284   5.153   0.449
 6770TIP3   OH220273   4.687   2.566   5.090
 6770TIP3    H120274   4.691   2.485   5.040
 6770TIP3    H220275   4.612   2.613   5.054
 6771TIP3   OH220276   4.434   6.501   2.577
 6771TIP3    H120277   4.467   6.566   2.514
 6771TIP3    H220278   4.469   6.530   2.661
 6772TIP3   OH220279   0.880   5.777   5.373
 6772TIP3    H120280   0.848   5.810   5.457
 6772TIP3    H220281   0.908   5.856   5.326
 6773TIP3   OH220282   5.593   1.578   2.868
 6773TIP3    H120283   5.553   1.610   2.787
 6773TIP3    H220284   5.533   1.511   2.900
 6774TIP3   OH220285   6.090   3.953   4.466
 6774TIP3    H120286   6.058   3.973   4.554
 6774TIP3    H220287   6.180   3.986   4.465
 6775TIP3   OH220288   2.321   2.329   4.417
 6775TIP3    H120289   2.292   2.394   4.354
 6775TIP3    H220290   2.278   2.248   4.389
 6776TIP3   OH220291   0.872   1.567   0.162
 6776TIP3    H120292   0.946   1.622   0.134
 6776TIP3    H220293   0.913   1.493   0.206
 6777TIP3   OH220294   4.420   3.037   5.277
 6777TIP3    H120295   4.362   3.033   5.353
 6777TIP3    H220296   4.361   3.040   5.202
 6778TIP3   OH220297   6.189   1.356   3.183
 6778TIP3    H120298   6.253   1.399   3.240
 6778TIP3    H220299   6.241   1.294   3.131
 6779TIP3   OH220300   6.903   0.490   5.159
 6779TIP3    H120301   6.910   0.584   5.142
 6779TIP3    H220302   6.945   0.449   5.084
 6780TIP3   OH220303   4.191   2.447   1.158
 6780TIP3    H120304   4.107   2.415   1.189
 6780TIP3    H220305   4.256   2.390   1.200
 6781TIP3   OH220306   1.481   4.044   1.786
 6781TIP3    H120307   1.487   4.100   1.863
 6781TIP3    H220308   1.397   4.067   1.746
 6782TIP3   OH220309   5.656   3.303   5.284
 6782TIP3    H120310   5.577   3.344   5.319
 6782TIP3    H220311   5.728   3.361   5.311
 6783TIP3   OH220312   2.790   0.491   2.086
 6783TIP3    H120313   2.839   0.441   2.153
 6783TIP3    H220314   2.858   0.535   2.035
 6784TIP3   OH220315   3.875   3.677   1.855
 6784TIP3    H120316   3.872   3.620   1.778
 6784TIP3    H220317   3.798   3.652   1.907
 6785TIP3   OH220318   5.267   5.409   2.861
 6785TIP3    H120319   5.360   5.427   2.880
 6785TIP3    H220320   5.248   5.328   2.908
 6786TIP3   OH220321   6.851   5.762   3.460
 6786TIP3    H120322   6.899   5.814   3.395
 6786TIP3    H220323   6.880   5.672   3.446
 6787TIP3   OH220324   4.003   4.884   3.510
 6787TIP3    H120325   4.083   4.889   3.457
 6787TIP3    H220326   4.007   4.798   3.552
 6788TIP3   OH220327   6.649   1.870   1.935
 6788TIP3    H120328   6.641   1.817   2.015
 6788TIP3    H220329   6.707   1.942   1.959
 6789TIP3   OH220330   3.495   6.420   4.016
 6789TIP3    H120331   3.570   6.364   3.995
 6789TIP3    H220332   3.435   6.408   3.943
 6790TIP3   OH220333   5.926   5.571   0.291
 6790TIP3    H120334   5.933   5.649   0.235
 6790TIP3    H220335   6.007   5.572   0.343
 6791TIP3   OH220336   1.755   0.497   4.877
 6791TIP3    H120337   1.744   0.413   4.922
 6791TIP3    H220338   1.848   0.518   4.887
 6792TIP3   OH220339   5.771   3.768   2.679
 6792TIP3    H120340   5.741   3.798   2.765
 6792TIP3    H220341   5.733   3.681   2.670
 6793TIP3   OH220342   6.250   3.364   3.091
 6793TIP3    H120343   6.339   3.329   3.087
 6793TIP3    H220344   6.195   3.292   3.061
 6794TIP3   OH220345   2.320   0.226   0.780
 6794TIP3    H120346   2.362   0.311   0.783
 6794TIP3    H220347   2.366   0.174   0.846
 6795TIP3   OH220348   3.475   1.821   3.352
 6795TIP3    H120349   3.475   1.790   3.261
 6795TIP3    H220350   3.560   1.793   3.387
 6796TIP3   OH220351   5.664   1.371   4.363
 6796TIP3    H120352   5.722   1.324   4.423
 6796TIP3    H220353   5.614   1.431   4.419
 6797TIP3   OH220354   5.675   4.456   3.387
 6797TIP3    H120355   5.751   4.506   3.415
 6797TIP3    H220356   5.646   4.498   3.306
 6798TIP3   OH220357   6.964   4.678   3.468
 6798TIP3    H120358   6.882   4.720   3.495
 6798TIP3    H220359   6.971   4.600   3.524
 6799TIP3   OH220360   6.016   2.953   3.609
 6799TIP3    H120361   6.077   3.025   3.593
 6799TIP3    H220362   6.020   2.939   3.703
 6800TIP3   OH220363   6.664   2.916   3.676
 6800TIP3    H120364   6.641   2.863   3.600
 6800TIP3    H220365   6.751   2.885   3.701
 6801TIP3   OH220366   3.657   0.880   0.245
 6801TIP3    H120367   3.720   0.807   0.244
 6801TIP3    H220368   3.681   0.931   0.323
 6802TIP3   OH220369   5.608   6.260   1.151
 6802TIP3    H120370   5.700   6.253   1.175
 6802TIP3    H220371   5.569   6.178   1.182
 6803TIP3   OH220372   6.878   4.694   0.623
 6803TIP3    H120373   6.935   4.684   0.547
 6803TIP3    H220374   6.790   4.693   0.587
 6804TIP3   OH220375   7.181   4.656   4.795
 6804TIP3    H120376   7.102   4.707   4.807
 6804TIP3    H220377   7.230   4.701   4.726
 6805TIP3   OH220378   5.226   1.590   3.396
 6805TIP3    H120379   5.277   1.637   3.462
 6805TIP3    H220380   5.259   1.624   3.313
 6806TIP3   OH220381   0.878   2.875   1.723
 6806TIP3    H120382   0.794   2.883   1.679
 6806TIP3    H220383   0.919   2.961   1.713
 6807TIP3   OH220384   1.694   5.606   3.023
 6807TIP3    H120385   1.680   5.561   3.106
 6807TIP3    H220386   1.780   5.648   3.033
 6808TIP3   OH220387   6.971   4.322   4.548
 6808TIP3    H120388   6.994   4.229   4.554
 6808TIP3    H220389   7.050   4.365   4.516
 6809TIP3   OH220390   4.124   5.275   4.715
 6809TIP3    H120391   4.113   5.305   4.625
 6809TIP3    H220392   4.218   5.261   4.725
 6810TIP3   OH220393   2.433   5.371   4.634
 6810TIP3    H120394   2.387   5.453   4.651
 6810TIP3    H220395   2.525   5.391   4.651
 6811TIP3   OH220396   3.099   1.092   4.208
 6811TIP3    H120397   3.088   1.041   4.128
 6811TIP3    H220398   3.131   1.177   4.177
 6812TIP3   OH220399   3.284   6.538   0.504
 6812TIP3    H120400   3.228   6.588   0.444
 6812TIP3    H220401   3.268   6.447   0.481
 6813TIP3   OH220402   2.861   0.805   0.047
 6813TIP3    H120403   2.954   0.828   0.056
 6813TIP3    H220404   2.856   0.761  -0.038
 6814TIP3   OH220405   2.015   2.432   0.745
 6814TIP3    H120406   2.092   2.435   0.801
 6814TIP3    H220407   1.989   2.340   0.743
 6815TIP3   OH220408   2.086   1.072   4.981
 6815TIP3    H120409   2.080   1.040   5.071
 6815TIP3    H220410   1.995   1.086   4.954
 6816TIP3   OH220411   5.205   2.035   3.747
 6816TIP3    H120412   5.271   2.103   3.762
 6816TIP3    H220413   5.240   1.957   3.791
 6817TIP3   OH220414   4.679   6.365   2.038
 6817TIP3    H120415   4.695   6.333   2.127
 6817TIP3    H220416   4.738   6.440   2.028
 6818TIP3   OH220417   3.572   2.961   0.734
 6818TIP3    H120418   3.587   2.869   0.754
 6818TIP3    H220419   3.651   2.990   0.688
 6819TIP3   OH220420   4.299   1.383   1.030
 6819TIP3    H120421   4.341   1.410   0.949
 6819TIP3    H220422   4.255   1.302   1.009
 6820TIP3   OH220423   0.836   6.298   2.281
 6820TIP3    H120424   0.762   6.296   2.341
 6820TIP3    H220425   0.820   6.227   2.219
 6821TIP3   OH220426   4.257   0.877   3.710
 6821TIP3    H120427   4.220   0.821   3.642
 6821TIP3    H220428   4.280   0.817   3.781
 6822TIP3   OH220429   0.062   3.905   3.581
 6822TIP3    H120430  -0.022   3.952   3.581
 6822TIP3    H220431   0.128   3.974   3.588
 6823TIP3   OH220432   6.541   0.161   0.851
 6823TIP3    H120433   6.547   0.123   0.939
 6823TIP3    H220434   6.622   0.136   0.808
 6824TIP3   OH220435   0.549   1.101   4.775
 6824TIP3    H120436   0.620   1.160   4.800
 6824TIP3    H220437   0.584   1.050   4.702
 6825TIP3   OH220438   4.866   4.058   0.103
 6825TIP3    H120439   4.821   3.992   0.156
 6825TIP3    H220440   4.879   4.016   0.018
 6826TIP3   OH220441   0.013   2.315   3.976
 6826TIP3    H120442   0.034   2.409   3.976
 6826TIP3    H220443   0.029   2.288   4.066
 6827TIP3   OH220444   6.645  -0.006   1.460
 6827TIP3    H120445   6.725   0.032   1.496
 6827TIP3    H220446   6.578   0.011   1.525
 6828TIP3   OH220447   0.668   5.018   4.010
 6828TIP3    H120448   0.693   4.929   4.034
 6828TIP3    H220449   0.572   5.017   4.008
 6829TIP3   OH220450   2.914   6.520   3.055
 6829TIP3    H120451   2.896   6.542   2.963
 6829TIP3    H220452   2.839   6.467   3.082
 6830TIP3   OH220453   5.715   5.459   5.718
 6830TIP3    H120454   5.678   5.547   5.729
 6830TIP3    H220455   5.723   5.449   5.623
 6831TIP3   OH220456   5.569   1.931   5.404
 6831TIP3    H120457   5.643   1.889   5.361
 6831TIP3    H220458   5.492   1.893   5.362
 6832TIP3   OH220459   5.370  -0.037   3.446
 6832TIP3    H120460   5.440   0.020   3.478
 6832TIP3    H220461   5.359  -0.012   3.354
 6833TIP3   OH220462   2.530   6.428   4.557
 6833TIP3    H120463   2.575   6.352   4.521
 6833TIP3    H220464   2.442   6.397   4.576
 6834TIP3   OH220465   1.150   2.639   3.472
 6834TIP3    H120466   1.093   2.587   3.415
 6834TIP3    H220467   1.179   2.711   3.418
 6835TIP3   OH220468   5.049   6.583   2.529
 6835TIP3    H120469   5.077   6.672   2.506
 6835TIP3    H220470   4.966   6.595   2.576
 6836TIP3   OH220471   6.499   4.657   0.085
 6836TIP3    H120472   6.469   4.580   0.134
 6836TIP3    H220473   6.506   4.626  -0.005
 6837TIP3   OH220474   4.212   3.991   4.915
 6837TIP3    H120475   4.216   3.903   4.877
 6837TIP3    H220476   4.180   3.976   5.004
 6838TIP3   OH220477   2.785   0.588   5.207
 6838TIP3    H120478   2.825   0.528   5.143
 6838TIP3    H220479   2.692   0.568   5.203
 6839TIP3   OH220480   6.503   4.247   3.404
 6839TIP3    H120481   6.503   4.336   3.441
 6839TIP3    H220482   6.410   4.227   3.390
 6840TIP3   OH220483   1.701   3.907   4.727
 6840TIP3    H120484   1.726   3.859   4.806
 6840TIP3    H220485   1.734   3.853   4.655
 6841TIP3   OH220486   2.191   4.795   3.719
 6841TIP3    H120487   2.278   4.797   3.760
 6841TIP3    H220488   2.156   4.709   3.741
 6842TIP3   OH220489   4.813   5.022   4.489
 6842TIP3    H120490   4.901   5.054   4.511
 6842TIP3    H220491   4.811   5.026   4.393
 6843TIP3   OH220492   3.705   4.736   3.937
 6843TIP3    H120493   3.754   4.806   3.895
 6843TIP3    H220494   3.751   4.656   3.911
 6844TIP3   OH220495   5.299   5.987   3.021
 6844TIP3    H120496   5.222   5.982   2.965
 6844TIP3    H220497   5.285   6.065   3.074
 6845TIP3   OH220498   6.801   4.167   2.158
 6845TIP3    H120499   6.841   4.224   2.093
 6845TIP3    H220500   6.792   4.083   2.114
 6846TIP3   OH220501   6.053   3.592   4.832
 6846TIP3    H120502   5.972   3.591   4.781
 6846TIP3    H220503   6.077   3.499   4.839
 6847TIP3   OH220504   2.888   2.964   5.506
 6847TIP3    H120505   2.876   2.946   5.413
 6847TIP3    H220506   2.947   2.895   5.537
 6848TIP3   OH220507   4.415   0.706   4.301
 6848TIP3    H120508   4.328   0.725   4.263
 6848TIP3    H220509   4.476   0.731   4.232
 6849TIP3   OH220510   4.885   6.667   3.557
 6849TIP3    H120511   4.921   6.724   3.489
 6849TIP3    H220512   4.798   6.702   3.574
 6850TIP3   OH220513   5.360   3.966   3.903
 6850TIP3    H120514   5.361   3.997   3.812
 6850TIP3    H220515   5.343   4.045   3.955
 6851TIP3   OH220516   6.818   2.264   1.485
 6851TIP3    H120517   6.755   2.227   1.423
 6851TIP3    H220518   6.895   2.285   1.433
 6852TIP3   OH220519   0.968   1.291   1.210
 6852TIP3    H120520   0.990   1.216   1.265
 6852TIP3    H220521   1.049   1.310   1.162
 6853TIP3   OH220522   3.949   4.676   1.498
 6853TIP3    H120523   3.911   4.665   1.411
 6853TIP3    H220524   3.981   4.767   1.498
 6854TIP3   OH220525   0.351   0.688   5.258
 6854TIP3    H120526   0.401   0.613   5.292
 6854TIP3    H220527   0.377   0.694   5.166
 6855TIP3   OH220528   4.726   2.480   2.653
 6855TIP3    H120529   4.691   2.491   2.742
 6855TIP3    H220530   4.808   2.433   2.665
 6856TIP3   OH220531   4.181   4.095   0.206
 6856TIP3    H120532   4.274   4.079   0.223
 6856TIP3    H220533   4.176   4.105   0.111
 6857TIP3   OH220534   3.650   0.467   1.799
 6857TIP3    H120535   3.724   0.526   1.814
 6857TIP3    H220536   3.686   0.379   1.809
 6858TIP3   OH220537   4.993   2.369   1.079
 6858TIP3    H120538   4.943   2.394   1.002
 6858TIP3    H220539   4.983   2.274   1.085
 6859TIP3   OH220540   6.163   6.457   4.992
 6859TIP3    H120541   6.117   6.374   4.993
 6859TIP3    H220542   6.140   6.496   4.907
 6860TIP3   OH220543   6.326   6.112   0.693
 6860TIP3    H120544   6.265   6.052   0.736
 6860TIP3    H220545   6.303   6.199   0.726
 6861TIP3   OH220546   4.995   3.333   2.111
 6861TIP3    H120547   5.087   3.356   2.112
 6861TIP3    H220548   4.949   3.416   2.123
 6862TIP3   OH220549   6.062   0.711   3.669
 6862TIP3    H120550   6.123   0.777   3.635
 6862TIP3    H220551   6.113   0.664   3.735
 6863TIP3   OH220552   0.462   6.180   1.097
 6863TIP3    H120553   0.431   6.262   1.058
 6863TIP3    H220554   0.429   6.112   1.038
 6864TIP3   OH220555   5.880   2.520   5.017
 6864TIP3    H120556   5.906   2.441   4.971
 6864TIP3    H220557   5.956   2.577   5.013
 6865TIP3   OH220558   6.585   1.951   1.598
 6865TIP3    H120559   6.493   1.930   1.584
 6865TIP3    H220560   6.598   1.942   1.692
 6866TIP3   OH220561   4.872   4.893   4.884
 6866TIP3    H120562   4.903   4.976   4.847
 6866TIP3    H220563   4.945   4.860   4.936
 6867TIP3   OH220564   6.377   6.585   5.808
 6867TIP3    H120565   6.401   6.525   5.879
 6867TIP3    H220566   6.347   6.664   5.853
 6868TIP3   OH220567   6.978   3.432   4.032
 6868TIP3    H120568   6.965   3.415   3.938
 6868TIP3    H220569   6.898   3.476   4.060
 6869TIP3   OH220570   2.522   3.851   0.121
 6869TIP3    H120571   2.531   3.926   0.180
 6869TIP3    H220572   2.591   3.791   0.147
 6870TIP3   OH220573   3.441   0.345   0.705
 6870TIP3    H120574   3.435   0.440   0.717
 6870TIP3    H220575   3.365   0.323   0.651
 6871TIP3   OH220576   5.191   0.845   1.741
 6871TIP3    H120577   5.100   0.814   1.746
 6871TIP3    H220578   5.196   0.889   1.656
 6872TIP3   OH220579   0.075   3.494   4.266
 6872TIP3    H120580   0.054   3.565   4.205
 6872TIP3    H220581   0.028   3.516   4.346
 6873TIP3   OH220582   6.591   5.071   5.035
 6873TIP3    H120583   6.638   5.037   4.959
 6873TIP3    H220584   6.500   5.045   5.022
 6874TIP3   OH220585   1.103   4.090   5.889
 6874TIP3    H120586   1.173   4.077   5.825
 6874TIP3    H220587   1.073   4.001   5.910
 6875TIP3   OH220588   0.357   1.202   4.337
 6875TIP3    H120589   0.283   1.180   4.281
 6875TIP3    H220590   0.363   1.298   4.332
 6876TIP3   OH220591   4.204   3.607   1.304
 6876TIP3    H120592   4.164   3.534   1.257
 6876TIP3    H220593   4.149   3.619   1.381
 6877TIP3   OH220594   0.711   2.330   2.092
 6877TIP3    H120595   0.734   2.267   2.160
 6877TIP3    H220596   0.745   2.414   2.125
 6878TIP3   OH220597   1.017   0.688   3.217
 6878TIP3    H120598   1.096   0.729   3.182
 6878TIP3    H220599   0.978   0.643   3.142
 6879TIP3   OH220600   4.462   4.094   5.481
 6879TIP3    H120601   4.404   4.018   5.481
 6879TIP3    H220602   4.474   4.116   5.388
 6880TIP3   OH220603   0.948   5.538   2.072
 6880TIP3    H120604   0.966   5.619   2.023
 6880TIP3    H220605   1.033   5.513   2.108
 6881TIP3   OH220606   6.905   2.563   1.150
 6881TIP3    H120607   6.817   2.596   1.171
 6881TIP3    H220608   6.954   2.640   1.122
 6882TIP3   OH220609   2.682   2.771   3.955
 6882TIP3    H120610   2.667   2.719   3.875
 6882TIP3    H220611   2.767   2.742   3.987
 6883TIP3   OH220612   6.235   4.080   0.672
 6883TIP3    H120613   6.143   4.082   0.698
 6883TIP3    H220614   6.279   4.029   0.740
 6884TIP3   OH220615   1.557   4.729   1.550
 6884TIP3    H120616   1.540   4.780   1.470
 6884TIP3    H220617   1.507   4.649   1.538
 6885TIP3   OH220618   1.352   2.633   2.197
 6885TIP3    H120619   1.282   2.698   2.201
 6885TIP3    H220620   1.410   2.655   2.270
 6886TIP3   OH220621   6.768   5.635   1.701
 6886TIP3    H120622   6.856   5.633   1.663
 6886TIP3    H220623   6.712   5.668   1.630
 6887TIP3   OH220624   6.204   0.837   0.990
 6887TIP3    H120625   6.146   0.792   0.928
 6887TIP3    H220626   6.194   0.788   1.072
 6888TIP3   OH220627   1.761   0.745   2.701
 6888TIP3    H120628   1.736   0.663   2.744
 6888TIP3    H220629   1.678   0.786   2.676
 6889TIP3   OH220630   3.114   2.945   3.060
 6889TIP3    H120631   3.021   2.966   3.065
 6889TIP3    H220632   3.155   3.027   3.033
 6890TIP3   OH220633   0.955   1.633   1.678
 6890TIP3    H120634   1.038   1.604   1.716
 6890TIP3    H220635   0.955   1.595   1.590
 6891TIP3   OH220636   2.578   0.825   2.860
 6891TIP3    H120637   2.566   0.742   2.906
 6891TIP3    H220638   2.655   0.865   2.901
 6892TIP3   OH220639   6.792   1.524   0.167
 6892TIP3    H120640   6.853   1.519   0.241
 6892TIP3    H220641   6.707   1.503   0.205
 6893TIP3   OH220642   6.524   5.618   4.128
 6893TIP3    H120643   6.545   5.712   4.128
 6893TIP3    H220644   6.517   5.595   4.035
 6894TIP3   OH220645   4.705   5.900   3.840
 6894TIP3    H120646   4.685   5.916   3.748
 6894TIP3    H220647   4.781   5.955   3.858
 6895TIP3   OH220648   5.562   1.024   3.983
 6895TIP3    H120649   5.490   1.042   4.044
 6895TIP3    H220650   5.519   0.988   3.905
 6896TIP3   OH220651   1.304   6.403   4.283
 6896TIP3    H120652   1.234   6.391   4.219
 6896TIP3    H220653   1.259   6.409   4.367
 6897TIP3   OH220654   1.513   2.339   4.902
 6897TIP3    H120655   1.451   2.404   4.935
 6897TIP3    H220656   1.598   2.381   4.911
 6898TIP3   OH220657   3.763   6.089   0.992
 6898TIP3    H120658   3.821   6.058   0.922
 6898TIP3    H220659   3.818   6.089   1.071
 6899TIP3   OH220660   4.167   1.485   0.745
 6899TIP3    H120661   4.156   1.550   0.815
 6899TIP3    H220662   4.259   1.459   0.751
 6900TIP3   OH220663   7.088   1.291   1.756
 6900TIP3    H120664   7.157   1.334   1.706
 6900TIP3    H220665   7.088   1.200   1.725
 6901TIP3   OH220666   6.588   3.555   1.040
 6901TIP3    H120667   6.651   3.602   1.095
 6901TIP3    H220668   6.642   3.503   0.980
 6902TIP3   OH220669   1.148   4.628   0.438
 6902TIP3    H120670   1.141   4.637   0.342
 6902TIP3    H220671   1.062   4.595   0.465
 6903TIP3   OH220672   3.056   2.486   2.980
 6903TIP3    H120673   3.027   2.429   2.910
 6903TIP3    H220674   3.047   2.575   2.944
 6904TIP3   OH220675   3.267   1.479   5.193
 6904TIP3    H120676   3.245   1.438   5.277
 6904TIP3    H220677   3.205   1.442   5.131
 6905TIP3   OH220678   0.043   5.970   4.351
 6905TIP3    H120679   0.049   6.059   4.387
 6905TIP3    H220680   0.031   5.914   4.428
 6906TIP3   OH220681   6.944   5.354  -0.015
 6906TIP3    H120682   6.908   5.308   0.061
 6906TIP3    H220683   6.917   5.445  -0.003
 6907TIP3   OH220684   1.755   5.682   0.350
 6907TIP3    H120685   1.725   5.757   0.298
 6907TIP3    H220686   1.683   5.620   0.346
 6908TIP3   OH220687   6.170   0.393   5.799
 6908TIP3    H120688   6.193   0.478   5.837
 6908TIP3    H220689   6.254   0.349   5.787
 6909TIP3   OH220690   6.162   5.011   2.169
 6909TIP3    H120691   6.157   4.915   2.164
 6909TIP3    H220692   6.098   5.035   2.236
 6910TIP3   OH220693   5.759   5.071   1.995
 6910TIP3    H120694   5.771   5.166   2.007
 6910TIP3    H220695   5.846   5.040   1.968
 6911TIP3   OH220696   5.023   6.159   5.206
 6911TIP3    H120697   4.960   6.206   5.261
 6911TIP3    H220698   4.990   6.070   5.203
 6912TIP3   OH220699   3.101   2.612   1.067
 6912TIP3    H120700   3.043   2.676   1.109
 6912TIP3    H220701   3.097   2.535   1.123
 6913TIP3   OH220702   2.222   5.510   0.308
 6913TIP3    H120703   2.129   5.501   0.328
 6913TIP3    H220704   2.265   5.510   0.394
 6914TIP3   OH220705   6.251   6.499   0.228
 6914TIP3    H120706   6.344   6.479   0.213
 6914TIP3    H220707   6.205   6.420   0.197
 6915TIP3   OH220708   0.041   2.381   0.511
 6915TIP3    H120709   0.072   2.343   0.428
 6915TIP3    H220710  -0.015   2.454   0.484
 6916TIP3   OH220711   0.628   3.605   0.244
 6916TIP3    H120712   0.673   3.550   0.308
 6916TIP3    H220713   0.642   3.694   0.274
 6917TIP3   OH220714   0.586   6.221   2.694
 6917TIP3    H120715   0.569   6.311   2.667
 6917TIP3    H220716   0.617   6.228   2.784
 6918TIP3   OH220717   1.143   1.634   0.418
 6918TIP3    H120718   1.194   1.557   0.394
 6918TIP3    H220719   1.156   1.695   0.345
 6919TIP3   OH220720   3.510   5.235   0.111
 6919TIP3    H120721   3.444   5.170   0.085
 6919TIP3    H220722   3.458   5.309   0.142
 6920TIP3   OH220723   2.826   1.307   5.493
 6920TIP3    H120724   2.760   1.273   5.553
 6920TIP3    H220725   2.841   1.236   5.431
 6921TIP3   OH220726   4.430   5.800   0.496
 6921TIP3    H120727   4.493   5.864   0.463
 6921TIP3    H220728   4.345   5.831   0.465
 6922TIP3   OH220729   2.339   0.382   4.684
 6922TIP3    H120730   2.356   0.393   4.591
 6922TIP3    H220731   2.265   0.439   4.703
 6923TIP3   OH220732   0.616   4.825   4.721
 6923TIP3    H120733   0.580   4.770   4.652
 6923TIP3    H220734   0.673   4.766   4.771
 6924TIP3   OH220735   6.881   4.114   2.975
 6924TIP3    H120736   6.936   4.090   2.900
 6924TIP3    H220737   6.918   4.065   3.048
 6925TIP3   OH220738   2.335   4.985   5.512
 6925TIP3    H120739   2.385   4.972   5.431
 6925TIP3    H220740   2.363   4.915   5.570
 6926TIP3   OH220741   5.940   2.123   5.592
 6926TIP3    H120742   6.026   2.084   5.608
 6926TIP3    H220743   5.878   2.058   5.627
 6927TIP3   OH220744   2.753   1.780   4.324
 6927TIP3    H120745   2.689   1.733   4.378
 6927TIP3    H220746   2.710   1.790   4.239
 6928TIP3   OH220747   0.598   1.537   4.995
 6928TIP3    H120748   0.619   1.452   5.032
 6928TIP3    H220749   0.642   1.600   5.052
 6929TIP3   OH220750   4.813   6.398   0.954
 6929TIP3    H120751   4.908   6.390   0.966
 6929TIP3    H220752   4.778   6.396   1.043
 6930TIP3   OH220753   4.883   1.002   1.536
 6930TIP3    H120754   4.831   1.078   1.509
 6930TIP3    H220755   4.972   1.037   1.548
 6931TIP3   OH220756   1.921   6.728   3.646
 6931TIP3    H120757   1.874   6.812   3.646
 6931TIP3    H220758   1.918   6.699   3.737
 6932TIP3   OH220759   4.518   5.266   2.043
 6932TIP3    H120760   4.506   5.182   2.086
 6932TIP3    H220761   4.604   5.258   2.000
 6933TIP3   OH220762   4.157   1.817   4.004
 6933TIP3    H120763   4.158   1.900   3.957
 6933TIP3    H220764   4.099   1.761   3.953
 6934TIP3   OH220765   3.351   2.291   2.285
 6934TIP3    H120766   3.441   2.260   2.296
 6934TIP3    H220767   3.308   2.221   2.237
 6935TIP3   OH220768   6.672   2.864   4.685
 6935TIP3    H120769   6.668   2.848   4.590
 6935TIP3    H220770   6.593   2.915   4.703
 6936TIP3   OH220771   5.316   4.773   4.247
 6936TIP3    H120772   5.265   4.765   4.167
 6936TIP3    H220773   5.270   4.719   4.311
 6937TIP3   OH220774   4.998   2.135   0.297
 6937TIP3    H120775   4.972   2.060   0.244
 6937TIP3    H220776   5.040   2.096   0.374
 6938TIP3   OH220777   3.312   4.179   1.583
 6938TIP3    H120778   3.216   4.182   1.584
 6938TIP3    H220779   3.335   4.191   1.491
 6939TIP3   OH220780   0.051   2.647   3.658
 6939TIP3    H120781   0.027   2.592   3.733
 6939TIP3    H220782   0.040   2.590   3.582
 6940TIP3   OH220783   5.820   0.922   0.168
 6940TIP3    H120784   5.860   0.881   0.244
 6940TIP3    H220785   5.847   0.868   0.094
 6941TIP3   OH220786   5.952   1.997   4.369
 6941TIP3    H120787   6.015   1.930   4.393
 6941TIP3    H220788   5.970   2.070   4.429
 6942TIP3   OH220789   3.613   4.798   0.998
 6942TIP3    H120790   3.628   4.712   0.958
 6942TIP3    H220791   3.685   4.852   0.967
 6943TIP3   OH220792   3.987   4.790   5.926
 6943TIP3    H120793   4.045   4.853   5.969
 6943TIP3    H220794   3.976   4.824   5.837
 6944TIP3   OH220795   3.166   1.662   4.028
 6944TIP3    H120796   3.080   1.655   4.071
 6944TIP3    H220797   3.179   1.756   4.016
 6945TIP3   OH220798   7.168   4.331   4.798
 6945TIP3    H120799   7.080   4.359   4.776
 6945TIP3    H220800   7.197   4.393   4.866
 6946TIP3   OH220801   0.830   3.265   1.090
 6946TIP3    H120802   0.906   3.218   1.055
 6946TIP3    H220803   0.773   3.196   1.123
 6947TIP3   OH220804   6.481   0.398   5.428
 6947TIP3    H120805   6.431   0.346   5.364
 6947TIP3    H220806   6.573   0.375   5.410
 6948TIP3   OH220807   3.411   0.661   1.684
 6948TIP3    H120808   3.419   0.570   1.710
 6948TIP3    H220809   3.501   0.689   1.668
 6949TIP3   OH220810   4.322   2.261   2.552
 6949TIP3    H120811   4.380   2.335   2.536
 6949TIP3    H220812   4.371   2.205   2.612
 6950TIP3   OH220813   7.053   3.301   5.492
 6950TIP3    H120814   7.002   3.303   5.573
 6950TIP3    H220815   7.014   3.232   5.440
 6951TIP3   OH220816   3.977   0.991   3.402
 6951TIP3    H120817   3.909   1.001   3.336
 6951TIP3    H220818   3.951   1.051   3.472
 6952TIP3   OH220819   5.109   3.222   0.334
 6952TIP3    H120820   5.027   3.195   0.292
 6952TIP3    H220821   5.176   3.168   0.293
 6953TIP3   OH220822   1.293   5.559   5.302
 6953TIP3    H120823   1.198   5.557   5.309
 6953TIP3    H220824   1.315   5.479   5.254
 6954TIP3   OH220825   2.051   6.391   4.672
 6954TIP3    H120826   2.031   6.482   4.695
 6954TIP3    H220827   1.966   6.348   4.669
 6955TIP3   OH220828   0.231   3.476   3.481
 6955TIP3    H120829   0.303   3.448   3.425
 6955TIP3    H220830   0.201   3.558   3.442
 6956TIP3   OH220831   6.155   6.603   5.671
 6956TIP3    H120832   6.243   6.597   5.707
 6956TIP3    H220833   6.108   6.529   5.709
 6957TIP3   OH220834   6.598   0.356   0.424
 6957TIP3    H120835   6.669   0.307   0.465
 6957TIP3    H220836   6.633   0.445   0.412
 6958TIP3   OH220837   0.405   1.997   3.705
 6958TIP3    H120838   0.423   2.090   3.697
 6958TIP3    H220839   0.469   1.954   3.648
 6959TIP3   OH220840   6.591   3.083  -0.017
 6959TIP3    H120841   6.544   3.159   0.017
 6959TIP3    H220842   6.678   3.089   0.023
 6960TIP3   OH220843   2.931   5.675   1.276
 6960TIP3    H120844   2.979   5.701   1.355
 6960TIP3    H220845   2.861   5.618   1.308
 6961TIP3   OH220846   2.112   0.929   3.487
 6961TIP3    H120847   2.060   0.885   3.420
 6961TIP3    H220848   2.084   1.021   3.483
 6962TIP3   OH220849   1.358   5.601   1.262
 6962TIP3    H120850   1.434   5.654   1.283
 6962TIP3    H220851   1.334   5.559   1.345
 6963TIP3   OH220852   6.181   2.334   0.406
 6963TIP3    H120853   6.224   2.297   0.329
 6963TIP3    H220854   6.244   2.396   0.442
 6964TIP3   OH220855   4.475   5.386   2.942
 6964TIP3    H120856   4.468   5.448   2.870
 6964TIP3    H220857   4.542   5.324   2.914
 6965TIP3   OH220858   1.477   0.907   2.710
 6965TIP3    H120859   1.504   0.971   2.644
 6965TIP3    H220860   1.414   0.954   2.764
 6966TIP3   OH220861   0.086   0.411   4.978
 6966TIP3    H120862   0.079   0.492   4.927
 6966TIP3    H220863   0.176   0.411   5.011
 6967TIP3   OH220864   2.039   4.362   3.462
 6967TIP3    H120865   1.961   4.396   3.505
 6967TIP3    H220866   2.103   4.433   3.469
 6968TIP3   OH220867   0.456   1.471   0.355
 6968TIP3    H120868   0.404   1.441   0.281
 6968TIP3    H220869   0.425   1.418   0.429
 6969TIP3   OH220870   1.569   2.951   5.474
 6969TIP3    H120871   1.660   2.925   5.489
 6969TIP3    H220872   1.549   2.921   5.385
 6970TIP3   OH220873   1.379   0.972   3.975
 6970TIP3    H120874   1.423   0.917   3.910
 6970TIP3    H220875   1.308   0.917   4.009
 6971TIP3   OH220876   5.437   4.889   0.254
 6971TIP3    H120877   5.499   4.817   0.249
 6971TIP3    H220878   5.359   4.851   0.295
 6972TIP3   OH220879   6.223   1.355   4.126
 6972TIP3    H120880   6.165   1.431   4.123
 6972TIP3    H220881   6.268   1.363   4.209
 6973TIP3   OH220882   6.527   4.526   1.051
 6973TIP3    H120883   6.536   4.617   1.079
 6973TIP3    H220884   6.476   4.530   0.970
 6974TIP3   OH220885   5.025   1.035   2.033
 6974TIP3    H120886   4.968   1.107   2.061
 6974TIP3    H220887   5.088   1.075   1.975
 6975TIP3   OH220888   1.098   0.404   5.309
 6975TIP3    H120889   1.102   0.488   5.355
 6975TIP3    H220890   1.179   0.360   5.334
 6976TIP3   OH220891   1.371   3.505   1.798
 6976TIP3    H120892   1.428   3.580   1.780
 6976TIP3    H220893   1.424   3.429   1.778
 6977TIP3   OH220894   1.009   3.253   4.597
 6977TIP3    H120895   1.032   3.310   4.524
 6977TIP3    H220896   0.996   3.313   4.671
 6978TIP3   OH220897   3.126   1.924   4.027
 6978TIP3    H120898   3.144   1.972   4.108
 6978TIP3    H220899   3.031   1.931   4.016
 6979TIP3   OH220900   6.207   1.207   3.565
 6979TIP3    H120901   6.258   1.270   3.616
 6979TIP3    H220902   6.116   1.235   3.576
 6980TIP3   OH220903   3.260   3.235   2.145
 6980TIP3    H120904   3.176   3.280   2.145
 6980TIP3    H220905   3.291   3.242   2.055
 6981TIP3   OH220906   2.136   4.205   4.404
 6981TIP3    H120907   2.200   4.138   4.430
 6981TIP3    H220908   2.144   4.209   4.309
 6982TIP3   OH220909   2.393   6.643   2.332
 6982TIP3    H120910   2.394   6.581   2.405
 6982TIP3    H220911   2.412   6.728   2.373
 6983TIP3   OH220912   1.125   2.364   4.866
 6983TIP3    H120913   1.031   2.382   4.859
 6983TIP3    H220914   1.162   2.406   4.788
 6984TIP3   OH220915   6.147   0.050   0.786
 6984TIP3    H120916   6.093   0.126   0.808
 6984TIP3    H220917   6.137  -0.009   0.861
 6985TIP3   OH220918   6.205   5.542   2.787
 6985TIP3    H120919   6.196   5.537   2.882
 6985TIP3    H220920   6.231   5.454   2.760
 6986TIP3   OH220921   0.989   4.208   4.192
 6986TIP3    H120922   0.919   4.195   4.257
 6986TIP3    H220923   1.068   4.180   4.237
 6987TIP3   OH220924   2.722   5.525   5.212
 6987TIP3    H120925   2.693   5.522   5.303
 6987TIP3    H220926   2.775   5.446   5.201
 6988TIP3   OH220927   1.058   5.480   1.715
 6988TIP3    H120928   1.066   5.390   1.748
 6988TIP3    H220929   0.972   5.483   1.674
 6989TIP3   OH220930   2.583   4.110   0.261
 6989TIP3    H120931   2.518   4.098   0.329
 6989TIP3    H220932   2.657   4.152   0.305
 6990TIP3   OH220933   7.100   2.902   1.637
 6990TIP3    H120934   7.085   2.992   1.609
 6990TIP3    H220935   7.034   2.851   1.590
 6991TIP3   OH220936   1.395   0.787   3.373
 6991TIP3    H120937   1.320   0.810   3.317
 6991TIP3    H220938   1.372   0.824   3.459
 6992TIP3   OH220939   6.402   2.093   3.636
 6992TIP3    H120940   6.412   2.028   3.567
 6992TIP3    H220941   6.368   2.044   3.711
 6993TIP3   OH220942   3.523   4.450   4.478
 6993TIP3    H120943   3.543   4.543   4.464
 6993TIP3    H220944   3.516   4.414   4.389
 6994TIP3   OH220945   4.016   2.496   3.486
 6994TIP3    H120946   3.946   2.473   3.548
 6994TIP3    H220947   3.969   2.524   3.407
 6995TIP3   OH220948   6.465   0.682   4.741
 6995TIP3    H120949   6.554   0.704   4.712
 6995TIP3    H220950   6.453   0.592   4.713
 6996TIP3   OH220951   5.732   2.031   4.108
 6996TIP3    H120952   5.704   1.993   4.024
 6996TIP3    H220953   5.729   2.125   4.093
 6997TIP3   OH220954   4.246   6.445   5.473
 6997TIP3    H120955   4.338   6.465   5.492
 6997TIP3    H220956   4.205   6.532   5.464
 6998TIP3   OH220957   7.080   6.088   4.549
 6998TIP3    H120958   7.000   6.046   4.580
 6998TIP3    H220959   7.067   6.181   4.567
 6999TIP3   OH220960   6.343   2.219   5.266
 6999TIP3    H120961   6.340   2.137   5.216
 6999TIP3    H220962   6.428   2.256   5.244
 7000TIP3   OH220963   6.519   2.163   4.538
 7000TIP3    H120964   6.600   2.195   4.578
 7000TIP3    H220965   6.525   2.189   4.447
 7001TIP3   OH220966   0.724   1.097   3.403
 7001TIP3    H120967   0.715   1.185   3.439
 7001TIP3    H220968   0.646   1.085   3.349
 7002TIP3   OH220969   3.228   0.919   4.386
 7002TIP3    H120970   3.177   0.996   4.360
 7002TIP3    H220971   3.187   0.846   4.340
 7003TIP3   OH220972   1.807   2.545   4.407
 7003TIP3    H120973   1.760   2.628   4.396
 7003TIP3    H220974   1.876   2.548   4.341
 7004TIP3   OH220975   2.663   5.515   0.099
 7004TIP3    H120976   2.682   5.579   0.030
 7004TIP3    H220977   2.593   5.460   0.061
 7005TIP3   OH220978   4.300   0.636   3.058
 7005TIP3    H120979   4.309   0.717   3.109
 7005TIP3    H220980   4.344   0.655   2.975
 7006TIP3   OH220981   0.904   0.775   5.609
 7006TIP3    H120982   0.904   0.780   5.704
 7006TIP3    H220983   0.909   0.866   5.580
 7007TIP3   OH220984   7.021   6.789   4.772
 7007TIP3    H120985   7.092   6.748   4.821
 7007TIP3    H220986   7.058   6.805   4.685
 7008TIP3   OH220987   4.278   3.289   2.373
 7008TIP3    H120988   4.341   3.220   2.392
 7008TIP3    H220989   4.257   3.328   2.458
 7009TIP3   OH220990   6.527   0.978   2.861
 7009TIP3    H120991   6.446   0.985   2.911
 7009TIP3    H220992   6.587   0.931   2.918
 7010TIP3   OH220993   1.522   2.284   5.536
 7010TIP3    H120994   1.585   2.224   5.575
 7010TIP3    H220995   1.437   2.256   5.569
 7011TIP3   OH220996   5.909   3.079   3.215
 7011TIP3    H120997   5.887   3.012   3.280
 7011TIP3    H220998   5.849   3.064   3.142
 7012TIP3   OH220999   2.361   6.042   4.579
 7012TIP3    H121000   2.424   6.008   4.642
 7012TIP3    H221001   2.332   5.965   4.530
 7013TIP3   OH221002   1.434   1.021   5.761
 7013TIP3    H121003   1.475   1.102   5.791
 7013TIP3    H221004   1.348   1.022   5.802
 7014TIP3   OH221005   7.139   1.218   4.143
 7014TIP3    H121006   7.152   1.257   4.229
 7014TIP3    H221007   7.192   1.139   4.143
 7015TIP3   OH221008   3.528   2.758   3.523
 7015TIP3    H121009   3.615   2.725   3.502
 7015TIP3    H221010   3.511   2.826   3.458
 7016TIP3   OH221011   1.402   0.375   3.691
 7016TIP3    H121012   1.397   0.279   3.697
 7016TIP3    H221013   1.495   0.394   3.704
 7017TIP3   OH221014   0.412   3.757   5.874
 7017TIP3    H121015   0.403   3.704   5.953
 7017TIP3    H221016   0.503   3.786   5.874
 7018TIP3   OH221017   3.317   5.458   5.258
 7018TIP3    H121018   3.342   5.505   5.178
 7018TIP3    H221019   3.339   5.367   5.239
 7019TIP3   OH221020   0.487   1.027   0.599
 7019TIP3    H121021   0.512   1.043   0.508
 7019TIP3    H221022   0.456   1.112   0.630
 7020TIP3   OH221023   3.817   4.950   0.861
 7020TIP3    H121024   3.876   4.876   0.874
 7020TIP3    H221025   3.787   4.942   0.771
 7021TIP3   OH221026   6.132   4.410   2.677
 7021TIP3    H121027   6.069   4.453   2.620
 7021TIP3    H221028   6.140   4.469   2.752
 7022TIP3   OH221029   4.095   4.528   2.930
 7022TIP3    H121030   4.090   4.434   2.948
 7022TIP3    H221031   4.170   4.537   2.871
 7023TIP3   OH221032   6.543   1.540   4.072
 7023TIP3    H121033   6.589   1.607   4.122
 7023TIP3    H221034   6.451   1.560   4.084
 7024TIP3   OH221035   6.470   2.543   3.743
 7024TIP3    H121036   6.547   2.597   3.755
 7024TIP3    H221037   6.484   2.497   3.660
 7025TIP3   OH221038   3.752   1.171   3.208
 7025TIP3    H121039   3.666   1.197   3.241
 7025TIP3    H221040   3.739   1.082   3.176
 7026TIP3   OH221041   4.948   3.829   3.374
 7026TIP3    H121042   5.003   3.890   3.424
 7026TIP3    H221043   4.858   3.858   3.391
 7027TIP3   OH221044   1.563   5.445   2.865
 7027TIP3    H121045   1.630   5.474   2.927
 7027TIP3    H221046   1.606   5.375   2.815
 7028TIP3   OH221047   3.961   0.978   3.996
 7028TIP3    H121048   3.924   0.945   3.914
 7028TIP3    H221049   3.897   1.042   4.028
 7029TIP3   OH221050   6.903   2.568   0.100
 7029TIP3    H121051   6.832   2.575   0.036
 7029TIP3    H221052   6.972   2.521   0.054
 7030TIP3   OH221053   6.210   1.174   5.139
 7030TIP3    H121054   6.221   1.262   5.103
 7030TIP3    H221055   6.180   1.122   5.065
 7031TIP3   OH221056   5.130   6.589   1.701
 7031TIP3    H121057   5.111   6.607   1.609
 7031TIP3    H221058   5.050   6.611   1.748
 7032TIP3   OH221059   1.265   3.355   1.554
 7032TIP3    H121060   1.247   3.318   1.468
 7032TIP3    H221061   1.344   3.309   1.584
 7033TIP3   OH221062   2.898   5.264   2.520
 7033TIP3    H121063   2.920   5.220   2.602
 7033TIP3    H221064   2.872   5.352   2.546
 7034TIP3   OH221065   1.407   5.607   3.347
 7034TIP3    H121066   1.386   5.538   3.410
 7034TIP3    H221067   1.338   5.602   3.281
 7035TIP3   OH221068   5.506   4.878   4.438
 7035TIP3    H121069   5.465   4.848   4.357
 7035TIP3    H221070   5.555   4.803   4.470
 7036TIP3   OH221071   3.346   1.970   5.202
 7036TIP3    H121072   3.430   1.949   5.241
 7036TIP3    H221073   3.289   1.988   5.277
 7037TIP3   OH221074   1.681   0.474   5.656
 7037TIP3    H121075   1.595   0.444   5.626
 7037TIP3    H221076   1.741   0.449   5.585
 7038TIP3   OH221077   3.929   2.197   4.531
 7038TIP3    H121078   3.982   2.248   4.594
 7038TIP3    H221079   3.964   2.109   4.536
 7039TIP3   OH221080   1.719   3.679   3.848
 7039TIP3    H121081   1.625   3.673   3.862
 7039TIP3    H221082   1.747   3.588   3.835
 7040TIP3   OH221083   3.703   6.823   4.210
 7040TIP3    H121084   3.628   6.844   4.265
 7040TIP3    H221085   3.739   6.743   4.248
 7041TIP3   OH221086   2.899   6.053   2.649
 7041TIP3    H121087   2.961   6.006   2.705
 7041TIP3    H221088   2.836   6.092   2.711
 7042TIP3   OH221089   7.180   0.411   4.625
 7042TIP3    H121090   7.171   0.484   4.564
 7042TIP3    H221091   7.090   0.392   4.652
 7043TIP3   OH221092   1.846   1.166   0.518
 7043TIP3    H121093   1.822   1.074   0.519
 7043TIP3    H221094   1.936   1.168   0.551
 7044TIP3   OH221095   6.781   4.841   3.606
 7044TIP3    H121096   6.736   4.924   3.588
 7044TIP3    H221097   6.715   4.786   3.647
 7045TIP3   OH221098   6.145   1.768   2.572
 7045TIP3    H121099   6.141   1.753   2.666
 7045TIP3    H221100   6.069   1.823   2.553
 7046TIP3   OH221101   4.760   4.865   0.539
 7046TIP3    H121102   4.846   4.826   0.521
 7046TIP3    H221103   4.697   4.798   0.513
 7047TIP3   OH221104   5.372   0.648   1.679
 7047TIP3    H121105   5.324   0.730   1.679
 7047TIP3    H221106   5.331   0.595   1.611
 7048TIP3   OH221107   1.830   2.043   2.207
 7048TIP3    H121108   1.867   2.049   2.295
 7048TIP3    H221109   1.752   1.989   2.217
 7049TIP3   OH221110   3.576   0.527   1.020
 7049TIP3    H121111   3.503   0.537   0.960
 7049TIP3    H221112   3.652   0.562   0.973
 7050TIP3   OH221113   3.575   0.093   4.095
 7050TIP3    H121114   3.640   0.041   4.049
 7050TIP3    H221115   3.546   0.157   4.031
 7051TIP3   OH221116   4.568   3.995   4.381
 7051TIP3    H121117   4.512   4.021   4.455
 7051TIP3    H221118   4.507   3.955   4.319
 7052TIP3   OH221119   1.139   1.404   2.772
 7052TIP3    H121120   1.164   1.415   2.680
 7052TIP3    H221121   1.219   1.420   2.821
 7053TIP3   OH221122   2.598   6.407   0.827
 7053TIP3    H121123   2.649   6.383   0.749
 7053TIP3    H221124   2.660   6.455   0.882
 7054TIP3   OH221125   4.262   5.703   2.392
 7054TIP3    H121126   4.238   5.750   2.472
 7054TIP3    H221127   4.184   5.653   2.369
 7055TIP3   OH221128   5.600   5.966   1.539
 7055TIP3    H121129   5.525   5.907   1.533
 7055TIP3    H221130   5.588   6.028   1.466
 7056TIP3   OH221131   0.346   3.232   3.567
 7056TIP3    H121132   0.420   3.173   3.580
 7056TIP3    H221133   0.271   3.184   3.603
 7057TIP3   OH221134   5.070   4.714   1.576
 7057TIP3    H121135   5.162   4.721   1.600
 7057TIP3    H221136   5.045   4.802   1.548
 7058TIP3   OH221137   5.763   1.577   2.163
 7058TIP3    H121138   5.806   1.526   2.095
 7058TIP3    H221139   5.720   1.648   2.116
 7059TIP3   OH221140   5.357   0.263   4.989
 7059TIP3    H121141   5.386   0.212   4.913
 7059TIP3    H221142   5.368   0.204   5.063
 7060TIP3   OH221143   4.495   3.617   4.538
 7060TIP3    H121144   4.453   3.576   4.614
 7060TIP3    H221145   4.430   3.678   4.505
 7061TIP3   OH221146   1.993   1.008   3.015
 7061TIP3    H121147   1.952   1.001   2.929
 7061TIP3    H221148   1.974   1.098   3.043
 7062TIP3   OH221149   6.916   2.536   5.802
 7062TIP3    H121150   6.829   2.570   5.782
 7062TIP3    H221151   6.902   2.446   5.830
 7063TIP3   OH221152   6.394   0.030   2.786
 7063TIP3    H121153   6.478   0.030   2.740
 7063TIP3    H221154   6.375   0.123   2.801
 7064TIP3   OH221155   5.872   3.896   2.935
 7064TIP3    H121156   5.881   3.963   3.003
 7064TIP3    H221157   5.806   3.836   2.970
 7065TIP3   OH221158   4.330   3.596   1.918
 7065TIP3    H121159   4.288   3.510   1.928
 7065TIP3    H221160   4.424   3.578   1.925
 7066TIP3   OH221161   4.945   0.522   1.730
 7066TIP3    H121162   4.893   0.568   1.796
 7066TIP3    H221163   4.970   0.590   1.668
 7067TIP3   OH221164   1.120   5.976   0.227
 7067TIP3    H121165   1.203   6.016   0.251
 7067TIP3    H221166   1.077   5.957   0.310
 7068TIP3   OH221167   1.021   3.691   2.168
 7068TIP3    H121168   1.034   3.783   2.191
 7068TIP3    H221169   1.005   3.693   2.073
 7069TIP3   OH221170   2.846   4.410   3.831
 7069TIP3    H121171   2.779   4.388   3.767
 7069TIP3    H221172   2.803   4.473   3.889
 7070TIP3   OH221173   3.599   1.786   1.663
 7070TIP3    H121174   3.528   1.771   1.726
 7070TIP3    H221175   3.570   1.860   1.610
 7071TIP3   OH221176   7.217   4.838   1.546
 7071TIP3    H121177   7.137   4.882   1.574
 7071TIP3    H221178   7.286   4.877   1.599
 7072TIP3   OH221179   2.469   1.484   0.249
 7072TIP3    H121180   2.424   1.569   0.252
 7072TIP3    H221181   2.561   1.506   0.266
 7073TIP3   OH221182   0.382   3.801   1.215
 7073TIP3    H121183   0.390   3.890   1.180
 7073TIP3    H221184   0.426   3.746   1.150
 7074TIP3   OH221185   2.670   6.351   3.112
 7074TIP3    H121186   2.595   6.357   3.054
 7074TIP3    H221187   2.675   6.259   3.137
 7075TIP3   OH221188   7.008   3.113   1.494
 7075TIP3    H121189   6.921   3.091   1.461
 7075TIP3    H221190   6.993   3.184   1.556
 7076TIP3   OH221191   6.058   4.639   1.911
 7076TIP3    H121192   6.122   4.650   1.841
 7076TIP3    H221193   6.110   4.614   1.987
 7077TIP3   OH221194   4.792   6.488   0.342
 7077TIP3    H121195   4.800   6.557   0.276
 7077TIP3    H221196   4.729   6.522   0.405
 7078TIP3   OH221197   4.911   4.703   1.279
 7078TIP3    H121198   4.995   4.732   1.315
 7078TIP3    H221199   4.921   4.609   1.265
 7079TIP3   OH221200   6.533   5.135   3.206
 7079TIP3    H121201   6.524   5.229   3.223
 7079TIP3    H221202   6.592   5.130   3.131
 7080TIP3   OH221203   6.324   4.493   5.462
 7080TIP3    H121204   6.286   4.513   5.376
 7080TIP3    H221205   6.343   4.400   5.459
 7081TIP3   OH221206   0.976   6.812   1.832
 7081TIP3    H121207   0.973   6.833   1.738
 7081TIP3    H221208   1.066   6.784   1.847
 7082TIP3   OH221209   4.411   1.026   1.166
 7082TIP3    H121210   4.451   0.939   1.172
 7082TIP3    H221211   4.469   1.075   1.107
 7083TIP3   OH221212   0.820   3.942   3.327
 7083TIP3    H121213   0.857   3.932   3.415
 7083TIP3    H221214   0.896   3.948   3.270
 7084TIP3   OH221215   3.498   1.042   4.254
 7084TIP3    H121216   3.471   0.982   4.185
 7084TIP3    H221217   3.423   1.047   4.313
 7085TIP3   OH221218   6.951   0.096   3.952
 7085TIP3    H121219   7.010   0.165   3.981
 7085TIP3    H221220   6.906   0.068   4.032
 7086TIP3   OH221221   1.298   2.310   4.204
 7086TIP3    H121222   1.328   2.233   4.253
 7086TIP3    H221223   1.296   2.281   4.113
 7087TIP3   OH221224   2.324   1.859   3.486
 7087TIP3    H121225   2.278   1.815   3.415
 7087TIP3    H221226   2.416   1.852   3.463
 7088TIP3   OH221227   3.535   2.613   2.686
 7088TIP3    H121228   3.450   2.579   2.715
 7088TIP3    H221229   3.529   2.612   2.590
 7089TIP3   OH221230   6.387   3.989   4.418
 7089TIP3    H121231   6.441   3.932   4.472
 7089TIP3    H221232   6.369   3.937   4.339
 7090TIP3   OH221233   1.458   4.951   4.177
 7090TIP3    H121234   1.377   4.936   4.129
 7090TIP3    H221235   1.433   4.945   4.269
 7091TIP3   OH221236   4.536   3.824   0.749
 7091TIP3    H121237   4.623   3.861   0.765
 7091TIP3    H221238   4.519   3.838   0.656
 7092TIP3   OH221239   6.768   6.758   0.966
 7092TIP3    H121240   6.690   6.763   0.909
 7092TIP3    H221241   6.837   6.800   0.914
 7093TIP3   OH221242   1.819   3.587   3.075
 7093TIP3    H121243   1.820   3.497   3.042
 7093TIP3    H221244   1.911   3.610   3.086
 7094TIP3   OH221245   0.550   2.392   1.181
 7094TIP3    H121246   0.617   2.424   1.122
 7094TIP3    H221247   0.573   2.300   1.197
 7095TIP3   OH221248  -0.014   4.624   5.781
 7095TIP3    H121249  -0.037   4.684   5.710
 7095TIP3    H221250   0.073   4.653   5.809
 7096TIP3   OH221251   2.803   6.658   5.675
 7096TIP3    H121252   2.813   6.709   5.594
 7096TIP3    H221253   2.719   6.685   5.710
 7097TIP3   OH221254   4.847   3.420   5.382
 7097TIP3    H121255   4.762   3.386   5.354
 7097TIP3    H221256   4.836   3.440   5.475
 7098TIP3   OH221257   1.203   3.007   1.291
 7098TIP3    H121258   1.115   3.016   1.326
 7098TIP3    H221259   1.216   2.913   1.281
 7099TIP3   OH221260   7.185   0.816   3.109
 7099TIP3    H121261   7.166   0.910   3.116
 7099TIP3    H221262   7.264   0.804   3.161
 7100TIP3   OH221263   0.453   4.087   5.805
 7100TIP3    H121264   0.532   4.135   5.829
 7100TIP3    H221265   0.464   4.000   5.844
 7101TIP3   OH221266   0.689   6.088   5.389
 7101TIP3    H121267   0.641   6.018   5.345
 7101TIP3    H221268   0.707   6.153   5.320
 7102TIP3   OH221269   3.842   4.026   0.582
 7102TIP3    H121270   3.873   4.069   0.502
 7102TIP3    H221271   3.762   3.981   0.555
 7103TIP3   OH221272   2.033   1.132   0.003
 7103TIP3    H121273   2.014   1.053  -0.048
 7103TIP3    H221274   1.949   1.155   0.042
 7104TIP3   OH221275   0.182   0.250   2.878
 7104TIP3    H121276   0.170   0.268   2.784
 7104TIP3    H221277   0.155   0.331   2.921
 7105TIP3   OH221278   2.478   4.349   5.600
 7105TIP3    H121279   2.565   4.337   5.637
 7105TIP3    H221280   2.490   4.411   5.528
 7106TIP3   OH221281   5.846   4.667   4.135
 7106TIP3    H121282   5.933   4.641   4.164
 7106TIP3    H221283   5.796   4.585   4.132
 7107TIP3   OH221284   0.993   3.872   2.689
 7107TIP3    H121285   1.078   3.872   2.646
 7107TIP3    H221286   0.981   3.781   2.717
 7108TIP3   OH221287   6.330   1.101   5.532
 7108TIP3    H121288   6.303   1.048   5.607
 7108TIP3    H221289   6.329   1.040   5.458
 7109TIP3   OH221290   5.110   3.787   1.077
 7109TIP3    H121291   5.088   3.836   1.157
 7109TIP3    H221292   5.124   3.697   1.107
 7110TIP3   OH221293   6.301   6.520   3.434
 7110TIP3    H121294   6.286   6.560   3.348
 7110TIP3    H221295   6.228   6.460   3.445
 7111TIP3   OH221296   4.035   2.977   2.292
 7111TIP3    H121297   4.091   2.900   2.279
 7111TIP3    H221298   4.049   3.001   2.384
 7112TIP3   OH221299   3.617   5.620   2.536
 7112TIP3    H121300   3.569   5.703   2.535
 7112TIP3    H221301   3.552   5.555   2.563
 7113TIP3   OH221302   2.604   3.893   3.200
 7113TIP3    H121303   2.542   3.916   3.270
 7113TIP3    H221304   2.548   3.870   3.126
 7114TIP3   OH221305   6.428   1.653   5.058
 7114TIP3    H121306   6.513   1.650   5.013
 7114TIP3    H221307   6.398   1.743   5.047
 7115TIP3   OH221308   1.253   6.550   2.268
 7115TIP3    H121309   1.184   6.485   2.276
 7115TIP3    H221310   1.327   6.512   2.314
 7116TIP3   OH221311   2.990   6.386   1.595
 7116TIP3    H121312   3.038   6.453   1.547
 7116TIP3    H221313   3.048   6.362   1.667
 7117TIP3   OH221314   6.688   1.449   4.720
 7117TIP3    H121315   6.777   1.426   4.749
 7117TIP3    H221316   6.631   1.386   4.762
 7118TIP3   OH221317   5.177   3.659   5.441
 7118TIP3    H121318   5.150   3.736   5.391
 7118TIP3    H221319   5.106   3.646   5.504
 7119TIP3   OH221320   1.129   2.317   1.961
 7119TIP3    H121321   1.210   2.349   2.002
 7119TIP3    H221322   1.085   2.267   2.030
 7120TIP3   OH221323   6.746   4.253   2.645
 7120TIP3    H121324   6.685   4.241   2.718
 7120TIP3    H221325   6.735   4.344   2.618
 7121TIP3   OH221326   6.427   2.244   2.834
 7121TIP3    H121327   6.364   2.298   2.787
 7121TIP3    H221328   6.374   2.181   2.883
 7122TIP3   OH221329   6.139   4.905   4.333
 7122TIP3    H121330   6.208   4.841   4.348
 7122TIP3    H221331   6.152   4.935   4.243
 7123TIP3   OH221332   3.085   2.205   4.198
 7123TIP3    H121333   3.081   2.235   4.107
 7123TIP3    H221334   3.154   2.258   4.238
 7124TIP3   OH221335   2.089   6.474   2.867
 7124TIP3    H121336   2.115   6.499   2.779
 7124TIP3    H221337   2.107   6.551   2.920
 7125TIP3   OH221338   3.631   1.211   0.260
 7125TIP3    H121339   3.647   1.293   0.306
 7125TIP3    H221340   3.717   1.169   0.255
 7126TIP3   OH221341   2.536   3.433   5.074
 7126TIP3    H121342   2.572   3.347   5.051
 7126TIP3    H221343   2.603   3.473   5.129
 7127TIP3   OH221344   3.946   5.821   4.744
 7127TIP3    H121345   3.960   5.872   4.664
 7127TIP3    H221346   3.933   5.731   4.714
 7128TIP3   OH221347   0.724   4.916   2.827
 7128TIP3    H121348   0.725   4.904   2.732
 7128TIP3    H221349   0.650   4.975   2.842
 7129TIP3   OH221350   1.386   5.330   2.541
 7129TIP3    H121351   1.361   5.405   2.488
 7129TIP3    H221352   1.314   5.320   2.604
 7130TIP3   OH221353   0.227   0.498   4.093
 7130TIP3    H121354   0.222   0.590   4.122
 7130TIP3    H221355   0.223   0.504   3.998
 7131TIP3   OH221356   2.987   3.601   2.301
 7131TIP3    H121357   2.983   3.530   2.236
 7131TIP3    H221358   2.996   3.556   2.385
 7132TIP3   OH221359   0.803   1.853   0.484
 7132TIP3    H121360   0.760   1.788   0.428
 7132TIP3    H221361   0.732   1.887   0.539
 7133TIP3   OH221362   2.487   5.631   1.197
 7133TIP3    H121363   2.405   5.633   1.246
 7133TIP3    H221364   2.550   5.590   1.256
 7134TIP3   OH221365   2.731   3.870   0.929
 7134TIP3    H121366   2.739   3.965   0.926
 7134TIP3    H221367   2.821   3.838   0.925
 7135TIP3   OH221368   2.058   2.270   3.105
 7135TIP3    H121369   2.128   2.209   3.125
 7135TIP3    H221370   1.978   2.222   3.124
 7136TIP3   OH221371   7.031   6.300   4.921
 7136TIP3    H121372   6.990   6.288   4.835
 7136TIP3    H221373   6.959   6.293   4.984
 7137TIP3   OH221374   2.373   1.422   4.299
 7137TIP3    H121375   2.370   1.384   4.211
 7137TIP3    H221376   2.379   1.346   4.357
 7138TIP3   OH221377   5.135   4.864   5.779
 7138TIP3    H121378   5.212   4.918   5.760
 7138TIP3    H221379   5.139   4.847   5.873
 7139TIP3   OH221380   5.079   6.445   4.593
 7139TIP3    H121381   5.097   6.422   4.684
 7139TIP3    H221382   4.999   6.498   4.597
 7140TIP3   OH221383   5.200   1.803   1.341
 7140TIP3    H121384   5.168   1.891   1.321
 7140TIP3    H221385   5.294   1.806   1.321
 7141TIP3   OH221386   3.078   5.237   4.895
 7141TIP3    H121387   3.087   5.268   4.805
 7141TIP3    H221388   3.040   5.150   4.887
 7142TIP3   OH221389   3.345   4.757   4.209
 7142TIP3    H121390   3.253   4.754   4.237
 7142TIP3    H221391   3.341   4.771   4.115
 7143TIP3   OH221392   4.738   6.707   0.550
 7143TIP3    H121393   4.804   6.642   0.573
 7143TIP3    H221394   4.679   6.708   0.625
 7144TIP3   OH221395   0.557   1.428   4.318
 7144TIP3    H121396   0.602   1.512   4.312
 7144TIP3    H221397   0.627   1.364   4.334
 7145TIP3   OH221398   1.371   4.746   5.476
 7145TIP3    H121399   1.435   4.708   5.416
 7145TIP3    H221400   1.286   4.720   5.439
 7146TIP3   OH221401   3.890   6.822   3.118
 7146TIP3    H121402   3.824   6.754   3.113
 7146TIP3    H221403   3.885   6.867   3.033
 7147TIP3   OH221404   6.759   2.608   1.762
 7147TIP3    H121405   6.847   2.579   1.738
 7147TIP3    H221406   6.727   2.541   1.823
 7148TIP3   OH221407   5.825   2.507   5.836
 7148TIP3    H121408   5.866   2.500   5.922
 7148TIP3    H221409   5.775   2.426   5.826
 7149TIP3   OH221410   1.755   0.623   0.707
 7149TIP3    H121411   1.687   0.564   0.740
 7149TIP3    H221412   1.835   0.598   0.753
 7150TIP3   OH221413   3.884   5.552   4.437
 7150TIP3    H121414   3.812   5.488   4.440
 7150TIP3    H221415   3.840   5.637   4.441
 7151TIP3   OH221416   6.226   6.122   5.371
 7151TIP3    H121417   6.263   6.175   5.301
 7151TIP3    H221418   6.300   6.071   5.404
 7152TIP3   OH221419   0.915   1.539   0.535
 7152TIP3    H121420   0.939   1.448   0.554
 7152TIP3    H221421   0.998   1.580   0.512
 7153TIP3   OH221422   5.904   0.405   0.644
 7153TIP3    H121423   5.829   0.460   0.621
 7153TIP3    H221424   5.943   0.381   0.560
 7154TIP3   OH221425   7.098   1.873   1.673
 7154TIP3    H121426   7.142   1.799   1.631
 7154TIP3    H221427   7.040   1.908   1.605
 7155TIP3   OH221428   2.803   6.663   0.535
 7155TIP3    H121429   2.719   6.707   0.546
 7155TIP3    H221430   2.842   6.665   0.623
 7156TIP3   OH221431   6.376   6.703   3.906
 7156TIP3    H121432   6.334   6.690   3.821
 7156TIP3    H221433   6.308   6.744   3.961
 7157TIP3   OH221434   6.615   3.364   1.706
 7157TIP3    H121435   6.587   3.313   1.629
 7157TIP3    H221436   6.538   3.416   1.729
 7158TIP3   OH221437   3.926   4.418   0.704
 7158TIP3    H121438   3.978   4.364   0.763
 7158TIP3    H221439   3.990   4.462   0.648
 7159TIP3   OH221440   1.764   5.323   0.960
 7159TIP3    H121441   1.770   5.397   0.900
 7159TIP3    H221442   1.812   5.350   1.038
 7160TIP3   OH221443   0.034   5.065   2.247
 7160TIP3    H121444   0.102   5.133   2.242
 7160TIP3    H221445   0.082   4.984   2.262
 7161TIP3   OH221446   2.954   3.811   2.485
 7161TIP3    H121447   2.968   3.753   2.411
 7161TIP3    H221448   2.858   3.817   2.493
 7162TIP3   OH221449   5.186   6.523   2.144
 7162TIP3    H121450   5.183   6.613   2.177
 7162TIP3    H221451   5.138   6.472   2.209
 7163TIP3   OH221452   0.032   2.461   1.271
 7163TIP3    H121453   0.123   2.460   1.300
 7163TIP3    H221454   0.037   2.457   1.176
 7164TIP3   OH221455   6.620   1.449   4.372
 7164TIP3    H121456   6.703   1.424   4.413
 7164TIP3    H221457   6.645   1.488   4.288
 7165TIP3   OH221458   5.978   0.434   5.188
 7165TIP3    H121459   5.933   0.377   5.125
 7165TIP3    H221460   5.932   0.420   5.270
 7166TIP3   OH221461   5.168   3.638   3.323
 7166TIP3    H121462   5.169   3.599   3.410
 7166TIP3    H221463   5.094   3.699   3.324
 7167TIP3   OH221464   2.268   0.516   1.656
 7167TIP3    H121465   2.207   0.561   1.715
 7167TIP3    H221466   2.305   0.446   1.710
 7168TIP3   OH221467   3.249   4.873   0.521
 7168TIP3    H121468   3.322   4.839   0.469
 7168TIP3    H221469   3.254   4.968   0.512
 7169TIP3   OH221470   5.434   1.693   4.344
 7169TIP3    H121471   5.358   1.679   4.287
 7169TIP3    H221472   5.475   1.772   4.310
 7170TIP3   OH221473   1.426   1.227   2.299
 7170TIP3    H121474   1.346   1.234   2.247
 7170TIP3    H221475   1.474   1.307   2.280
 7171TIP3   OH221476   4.521   5.808   2.661
 7171TIP3    H121477   4.605   5.816   2.617
 7171TIP3    H221478   4.484   5.897   2.657
 7172TIP3   OH221479   6.458   5.001   3.921
 7172TIP3    H121480   6.417   4.984   3.836
 7172TIP3    H221481   6.545   4.963   3.913
 7173TIP3   OH221482   5.062   3.558   5.133
 7173TIP3    H121483   5.013   3.616   5.191
 7173TIP3    H221484   5.013   3.561   5.050
 7174TIP3   OH221485   3.501   4.556   1.424
 7174TIP3    H121486   3.502   4.637   1.474
 7174TIP3    H221487   3.542   4.579   1.340
 7175TIP3   OH221488   5.213   4.584   5.712
 7175TIP3    H121489   5.157   4.513   5.743
 7175TIP3    H221490   5.164   4.664   5.735
 7176TIP3   OH221491   2.109   1.900   5.176
 7176TIP3    H121492   2.096   1.976   5.232
 7176TIP3    H221493   2.198   1.870   5.194
 7177TIP3   OH221494   6.760   5.326   0.187
 7177TIP3    H121495   6.682   5.360   0.143
 7177TIP3    H221496   6.785   5.395   0.248
 7178TIP3   OH221497   3.665   0.347   3.360
 7178TIP3    H121498   3.650   0.435   3.393
 7178TIP3    H221499   3.721   0.359   3.283
 7179TIP3   OH221500   1.085   0.689   2.032
 7179TIP3    H121501   1.143   0.749   2.079
 7179TIP3    H221502   1.022   0.660   2.099
 7180TIP3   OH221503   1.217   2.095   0.308
 7180TIP3    H121504   1.308   2.068   0.298
 7180TIP3    H221505   1.209   2.116   0.401
 7181TIP3   OH221506   2.151   0.075   3.738
 7181TIP3    H121507   2.160   0.150   3.796
 7181TIP3    H221508   2.146  -0.001   3.797
 7182TIP3   OH221509   1.058   4.421   2.991
 7182TIP3    H121510   1.022   4.360   3.056
 7182TIP3    H221511   1.123   4.369   2.944
 7183TIP3   OH221512   7.061   1.781   0.962
 7183TIP3    H121513   7.044   1.748   1.050
 7183TIP3    H221514   7.142   1.832   0.971
 7184TIP3   OH221515   2.941   2.784   4.825
 7184TIP3    H121516   2.861   2.733   4.840
 7184TIP3    H221517   2.973   2.804   4.913
 7185TIP3   OH221518   5.198   6.088   3.265
 7185TIP3    H121519   5.107   6.118   3.258
 7185TIP3    H221520   5.220   6.101   3.357
 7186TIP3   OH221521   3.947   6.681   0.326
 7186TIP3    H121522   3.906   6.603   0.362
 7186TIP3    H221523   4.006   6.648   0.258
 7187TIP3   OH221524   5.222   2.760   1.733
 7187TIP3    H121525   5.268   2.757   1.649
 7187TIP3    H221526   5.131   2.740   1.710
 7188TIP3   OH221527   0.510   4.721   5.090
 7188TIP3    H121528   0.478   4.769   5.167
 7188TIP3    H221529   0.562   4.785   5.042
 7189TIP3   OH221530   6.861   5.072   4.102
 7189TIP3    H121531   6.881   5.101   4.013
 7189TIP3    H221532   6.798   5.137   4.134
 7190TIP3   OH221533   4.379   6.685   2.061
 7190TIP3    H121534   4.455   6.719   2.107
 7190TIP3    H221535   4.402   6.593   2.043
 7191TIP3   OH221536   1.761   2.352   2.316
 7191TIP3    H121537   1.788   2.277   2.369
 7191TIP3    H221538   1.757   2.319   2.226
 7192TIP3   OH221539   0.048   6.474   2.692
 7192TIP3    H121540   0.008   6.538   2.751
 7192TIP3    H221541   0.054   6.520   2.608
 7193TIP3   OH221542   2.747   5.105   0.209
 7193TIP3    H121543   2.730   5.161   0.285
 7193TIP3    H221544   2.794   5.161   0.147
 7194TIP3   OH221545   3.545   4.859   2.355
 7194TIP3    H121546   3.590   4.778   2.378
 7194TIP3    H221547   3.615   4.925   2.352
 7195TIP3   OH221548   1.714   5.769   4.674
 7195TIP3    H121549   1.760   5.840   4.719
 7195TIP3    H221550   1.784   5.711   4.644
 7196TIP3   OH221551   2.732   3.400   0.174
 7196TIP3    H121552   2.728   3.495   0.186
 7196TIP3    H221553   2.814   3.386   0.125
 7197TIP3   OH221554   5.041   6.168   3.653
 7197TIP3    H121555   4.974   6.233   3.672
 7197TIP3    H221556   5.123   6.217   3.652
 7198TIP3   OH221557   5.620   6.441   5.340
 7198TIP3    H121558   5.631   6.368   5.400
 7198TIP3    H221559   5.666   6.514   5.382
 7199TIP3   OH221560   4.392   3.458   4.769
 7199TIP3    H121561   4.337   3.384   4.744
 7199TIP3    H221562   4.393   3.456   4.865
 7200TIP3   OH221563   0.018   5.397   1.942
 7200TIP3    H121564   0.084   5.388   2.011
 7200TIP3    H221565  -0.063   5.416   1.989
 7201TIP3   OH221566   6.074   1.586   3.046
 7201TIP3    H121567   6.103   1.531   3.118
 7201TIP3    H221568   6.081   1.530   2.968
 7202TIP3   OH221569   5.975   0.149   5.808
 7202TIP3    H121570   6.056   0.102   5.827
 7202TIP3    H221571   6.000   0.241   5.803
 7203TIP3   OH221572   1.852   5.300   5.547
 7203TIP3    H121573   1.924   5.238   5.556
 7203TIP3    H221574   1.785   5.268   5.606
 7204TIP3   OH221575   2.701   2.875   4.442
 7204TIP3    H121576   2.783   2.913   4.409
 7204TIP3    H221577   2.684   2.801   4.385
 7205TIP3   OH221578   2.318   1.139   4.803
 7205TIP3    H121579   2.371   1.087   4.864
 7205TIP3    H221580   2.233   1.146   4.846
 7206TIP3   OH221581   1.741   2.184   5.646
 7206TIP3    H121582   1.795   2.107   5.666
 7206TIP3    H221583   1.756   2.243   5.720
 7207TIP3   OH221584   4.143   3.192   1.112
 7207TIP3    H121585   4.101   3.132   1.175
 7207TIP3    H221586   4.070   3.238   1.071
 7208TIP3   OH221587   1.931   5.433   3.762
 7208TIP3    H121588   1.893   5.405   3.679
 7208TIP3    H221589   1.999   5.495   3.738
 7209TIP3   OH221590   5.993   5.109   0.073
 7209TIP3    H121591   6.059   5.140   0.011
 7209TIP3    H221592   5.911   5.109   0.024
 7210TIP3   OH221593   6.095   5.372   5.468
 7210TIP3    H121594   6.023   5.310   5.454
 7210TIP3    H221595   6.053   5.455   5.489
 7211TIP3   OH221596   3.057   6.511   2.686
 7211TIP3    H121597   3.133   6.463   2.718
 7211TIP3    H221598   3.064   6.509   2.591
 7212TIP3   OH221599   4.537   3.073   5.556
 7212TIP3    H121600   4.444   3.094   5.549
 7212TIP3    H221601   4.540   2.983   5.589
 7213TIP3   OH221602   7.037   1.546   3.932
 7213TIP3    H121603   7.052   1.453   3.917
 7213TIP3    H221604   7.086   1.590   3.863
 7214TIP3   OH221605   1.688   2.753   2.763
 7214TIP3    H121606   1.652   2.665   2.758
 7214TIP3    H221607   1.677   2.789   2.675
 7215TIP3   OH221608   4.323   6.756   4.747
 7215TIP3    H121609   4.410   6.782   4.779
 7215TIP3    H221610   4.317   6.663   4.767
 7216TIP3   OH221611   0.260   2.491   1.576
 7216TIP3    H121612   0.278   2.424   1.510
 7216TIP3    H221613   0.229   2.441   1.652
 7217TIP3   OH221614   2.543   2.513   3.520
 7217TIP3    H121615   2.459   2.556   3.502
 7217TIP3    H221616   2.599   2.538   3.446
 7218TIP3   OH221617   0.451   3.104   1.374
 7218TIP3    H121618   0.373   3.156   1.357
 7218TIP3    H221619   0.451   3.037   1.306
 7219TIP3   OH221620   3.207   0.136   1.256
 7219TIP3    H121621   3.291   0.174   1.229
 7219TIP3    H221622   3.142   0.181   1.203
 7220TIP3   OH221623   0.294   4.740   3.822
 7220TIP3    H121624   0.317   4.805   3.887
 7220TIP3    H221625   0.374   4.689   3.809
 7221TIP3   OH221626   1.391   4.518   3.984
 7221TIP3    H121627   1.418   4.604   4.014
 7221TIP3    H221628   1.306   4.503   4.025
 7222TIP3   OH221629   5.726   1.910   3.427
 7222TIP3    H121630   5.654   1.876   3.375
 7222TIP3    H221631   5.804   1.871   3.389
 7223TIP3   OH221632   4.134   4.180   3.218
 7223TIP3    H121633   4.106   4.209   3.132
 7223TIP3    H221634   4.211   4.126   3.202
 7224TIP3   OH221635   6.392   6.190   4.871
 7224TIP3    H121636   6.311   6.172   4.823
 7224TIP3    H221637   6.413   6.107   4.914
 7225TIP3   OH221638   1.582   4.573   4.482
 7225TIP3    H121639   1.567   4.487   4.521
 7225TIP3    H221640   1.675   4.575   4.463
 7226TIP3   OH221641   4.045   4.657   3.688
 7226TIP3    H121642   4.070   4.677   3.779
 7226TIP3    H221643   4.014   4.567   3.691
 7227TIP3   OH221644   0.663   3.726   3.854
 7227TIP3    H121645   0.652   3.809   3.900
 7227TIP3    H221646   0.576   3.704   3.821
 7228TIP3   OH221647   5.462   4.331   2.123
 7228TIP3    H121648   5.554   4.309   2.135
 7228TIP3    H221649   5.463   4.415   2.077
 7229TIP3   OH221650   2.944   2.606   4.609
 7229TIP3    H121651   2.989   2.529   4.645
 7229TIP3    H221652   2.953   2.672   4.678
 7230TIP3   OH221653   5.791   4.137   4.546
 7230TIP3    H121654   5.774   4.085   4.624
 7230TIP3    H221655   5.766   4.226   4.570
 7231TIP3   OH221656   0.516   5.453   4.604
 7231TIP3    H121657   0.543   5.491   4.520
 7231TIP3    H221658   0.496   5.529   4.659
 7232TIP3   OH221659   6.162   4.873   5.486
 7232TIP3    H121660   6.119   4.844   5.405
 7232TIP3    H221661   6.097   4.858   5.554
 7233TIP3   OH221662   4.032   3.929   1.890
 7233TIP3    H121663   3.994   3.841   1.889
 7233TIP3    H221664   4.117   3.919   1.846
 7234TIP3   OH221665   4.918   0.150   3.264
 7234TIP3    H121666   4.976   0.151   3.189
 7234TIP3    H221667   4.882   0.239   3.269
 7235TIP3   OH221668   6.940   4.779   3.822
 7235TIP3    H121669   6.910   4.809   3.736
 7235TIP3    H221670   6.874   4.811   3.883
 7236TIP3   OH221671   0.926   3.251   2.522
 7236TIP3    H121672   0.833   3.244   2.542
 7236TIP3    H221673   0.951   3.337   2.554
 7237TIP3   OH221674   6.000   5.262   0.290
 7237TIP3    H121675   5.913   5.301   0.280
 7237TIP3    H221676   6.000   5.189   0.228
 7238TIP3   OH221677   4.276   4.807   1.033
 7238TIP3    H121678   4.362   4.846   1.049
 7238TIP3    H221679   4.281   4.774   0.944
 7239TIP3   OH221680   6.822   3.942   3.693
 7239TIP3    H121681   6.793   3.856   3.662
 7239TIP3    H221682   6.772   4.004   3.641
 7240TIP3   OH221683   2.629   1.544   1.210
 7240TIP3    H121684   2.653   1.501   1.292
 7240TIP3    H221685   2.539   1.573   1.224
 7241TIP3   OH221686   1.075   6.151   1.232
 7241TIP3    H121687   0.994   6.156   1.182
 7241TIP3    H221688   1.075   6.229   1.287
 7242TIP3   OH221689   3.101   5.935   5.122
 7242TIP3    H121690   3.039   5.866   5.147
 7242TIP3    H221691   3.066   5.968   5.039
 7243TIP3   OH221692   5.150   3.965   0.860
 7243TIP3    H121693   5.166   4.046   0.908
 7243TIP3    H221694   5.120   3.903   0.926
 7244TIP3   OH221695   2.362   6.007   5.172
 7244TIP3    H121696   2.361   6.092   5.129
 7244TIP3    H221697   2.273   5.973   5.161
 7245TIP3   OH221698   2.683   4.822   5.790
 7245TIP3    H121699   2.773   4.803   5.764
 7245TIP3    H221700   2.677   4.918   5.786
 7246TIP3   OH221701   5.034   6.406   2.320
 7246TIP3    H121702   4.948   6.426   2.282
 7246TIP3    H221703   5.039   6.461   2.398
 7247TIP3   OH221704   0.177   3.857   4.421
 7247TIP3    H121705   0.194   3.819   4.507
 7247TIP3    H221706   0.085   3.840   4.404
 7248TIP3   OH221707   0.074   4.588   3.631
 7248TIP3    H121708   0.116   4.621   3.710
 7248TIP3    H221709   0.145   4.547   3.581
 7249TIP3   OH221710   2.036   1.002   1.473
 7249TIP3    H121711   2.129   0.982   1.461
 7249TIP3    H221712   2.020   1.077   1.416
 7250TIP3   OH221713   1.311   6.002   1.362
 7250TIP3    H121714   1.244   6.061   1.328
 7250TIP3    H221715   1.387   6.016   1.305
 7251TIP3   OH221716   5.566   6.369   4.640
 7251TIP3    H121717   5.513   6.310   4.694
 7251TIP3    H221718   5.553   6.456   4.678
 7252TIP3   OH221719   7.209   4.984   4.605
 7252TIP3    H121720   7.211   5.066   4.654
 7252TIP3    H221721   7.263   5.002   4.527
 7253TIP3   OH221722   1.693   5.003   0.527
 7253TIP3    H121723   1.635   5.077   0.543
 7253TIP3    H221724   1.688   4.951   0.607
 7254TIP3   OH221725   6.489   0.049   3.869
 7254TIP3    H121726   6.536   0.130   3.851
 7254TIP3    H221727   6.442   0.067   3.950
 7255TIP3   OH221728   6.914   1.779   4.440
 7255TIP3    H121729   6.923   1.694   4.398
 7255TIP3    H221730   6.977   1.777   4.512
 7256TIP3   OH221731   3.830   3.711   0.347
 7256TIP3    H121732   3.757   3.672   0.394
 7256TIP3    H221733   3.798   3.796   0.318
 7257TIP3   OH221734   0.670   6.322   2.962
 7257TIP3    H121735   0.733   6.285   3.024
 7257TIP3    H221736   0.586   6.312   3.005
 7258TIP3   OH221737   3.302   2.363   5.707
 7258TIP3    H121738   3.317   2.339   5.615
 7258TIP3    H221739   3.208   2.381   5.712
 7259TIP3   OH221740   5.903   3.577   5.108
 7259TIP3    H121741   5.919   3.661   5.065
 7259TIP3    H221742   5.961   3.578   5.184
 7260TIP3   OH221743   2.105   6.731   2.917
 7260TIP3    H121744   2.130   6.782   2.840
 7260TIP3    H221745   2.124   6.788   2.991
 7261TIP3   OH221746   3.412   6.178   2.870
 7261TIP3    H121747   3.484   6.118   2.851
 7261TIP3    H221748   3.406   6.179   2.966
 7262TIP3   OH221749   4.469   0.569   2.115
 7262TIP3    H121750   4.475   0.540   2.206
 7262TIP3    H221751   4.488   0.663   2.119
 7263TIP3   OH221752   1.290   1.166   2.605
 7263TIP3    H121753   1.384   1.163   2.620
 7263TIP3    H221754   1.274   1.253   2.570
 7264TIP3   OH221755   6.961   5.893   1.799
 7264TIP3    H121756   7.025   5.829   1.830
 7264TIP3    H221757   6.998   5.978   1.824
 7265TIP3   OH221758   6.673   6.767   2.675
 7265TIP3    H121759   6.649   6.713   2.599
 7265TIP3    H221760   6.599   6.757   2.735
 7266TIP3   OH221761   6.950   4.372   4.172
 7266TIP3    H121762   7.005   4.409   4.241
 7266TIP3    H221763   6.957   4.434   4.100
 7267TIP3   OH221764   2.468   4.026   2.550
 7267TIP3    H121765   2.427   4.096   2.499
 7267TIP3    H221766   2.539   4.070   2.598
 7268TIP3   OH221767   0.614   3.372   3.540
 7268TIP3    H121768   0.637   3.340   3.453
 7268TIP3    H221769   0.536   3.322   3.565
 7269TIP3   OH221770   2.931   4.551   0.482
 7269TIP3    H121771   2.936   4.647   0.479
 7269TIP3    H221772   2.845   4.532   0.519
 7270TIP3   OH221773   3.230   4.884   0.923
 7270TIP3    H121774   3.247   4.977   0.934
 7270TIP3    H221775   3.171   4.862   0.995
 7271TIP3   OH221776   1.755   1.414   0.613
 7271TIP3    H121777   1.788   1.335   0.571
 7271TIP3    H221778   1.681   1.442   0.558
 7272TIP3   OH221779   3.753   3.694   3.727
 7272TIP3    H121780   3.752   3.756   3.800
 7272TIP3    H221781   3.766   3.749   3.649
 7273TIP3   OH221782   4.136   4.545   0.566
 7273TIP3    H121783   4.075   4.615   0.542
 7273TIP3    H221784   4.179   4.521   0.484
 7274TIP3   OH221785   0.407   6.784   4.878
 7274TIP3    H121786   0.319   6.752   4.864
 7274TIP3    H221787   0.464   6.709   4.860
 7275TIP3   OH221788   7.175   3.283   0.118
 7275TIP3    H121789   7.262   3.292   0.155
 7275TIP3    H221790   7.117   3.273   0.193
 7276TIP3   OH221791   1.180   5.574   4.829
 7276TIP3    H121792   1.267   5.534   4.833
 7276TIP3    H221793   1.174   5.627   4.908
 7277TIP3   OH221794   2.841   2.829   0.739
 7277TIP3    H121795   2.840   2.923   0.757
 7277TIP3    H221796   2.917   2.795   0.786
 7278TIP3   OH221797   1.309   2.906   5.610
 7278TIP3    H121798   1.267   2.968   5.550
 7278TIP3    H221799   1.387   2.951   5.642
 7279TIP3   OH221800   1.382   0.697   2.576
 7279TIP3    H121801   1.412   0.779   2.615
 7279TIP3    H221802   1.303   0.721   2.527
 7280TIP3   OH221803   3.202   5.736   3.556
 7280TIP3    H121804   3.291   5.704   3.570
 7280TIP3    H221805   3.200   5.760   3.463
 7281TIP3   OH221806   4.918   1.008   4.559
 7281TIP3    H121807   4.953   1.089   4.523
 7281TIP3    H221808   4.992   0.970   4.607
 7282TIP3   OH221809   6.773   6.011   5.671
 7282TIP3    H121810   6.774   6.038   5.579
 7282TIP3    H221811   6.796   6.090   5.719
 7283TIP3   OH221812   0.261   1.421   1.163
 7283TIP3    H121813   0.277   1.327   1.152
 7283TIP3    H221814   0.347   1.456   1.189
 7284TIP3   OH221815   0.714   4.915   4.988
 7284TIP3    H121816   0.637   4.943   4.938
 7284TIP3    H221817   0.749   4.842   4.937
 7285TIP3   OH221818   6.187   3.024   1.663
 7285TIP3    H121819   6.221   2.997   1.748
 7285TIP3    H221820   6.097   2.992   1.661
 7286TIP3   OH221821   2.163   4.388   5.629
 7286TIP3    H121822   2.095   4.320   5.627
 7286TIP3    H221823   2.214   4.373   5.549
 7287TIP3   OH221824   1.642   0.157   5.711
 7287TIP3    H121825   1.637   0.088   5.645
 7287TIP3    H221826   1.734   0.183   5.713
 7288TIP3   OH221827   1.033   6.390   1.655
 7288TIP3    H121828   0.959   6.370   1.598
 7288TIP3    H221829   1.008   6.357   1.741
 7289TIP3   OH221830   3.173   3.101   4.870
 7289TIP3    H121831   3.135   3.059   4.947
 7289TIP3    H221832   3.124   3.065   4.796
 7290TIP3   OH221833   4.927   3.746   3.086
 7290TIP3    H121834   5.004   3.804   3.083
 7290TIP3    H221835   4.916   3.726   3.179
 7291TIP3   OH221836   2.464   4.468   2.244
 7291TIP3    H121837   2.412   4.547   2.260
 7291TIP3    H221838   2.409   4.415   2.186
 7292TIP3   OH221839   1.048   3.130   0.748
 7292TIP3    H121840   1.134   3.093   0.729
 7292TIP3    H221841   0.987   3.077   0.697
 7293TIP3   OH221842   4.879   2.596   3.617
 7293TIP3    H121843   4.839   2.669   3.663
 7293TIP3    H221844   4.808   2.531   3.610
 7294TIP3   OH221845   0.520   1.962   4.371
 7294TIP3    H121846   0.518   1.946   4.466
 7294TIP3    H221847   0.606   2.001   4.355
 7295TIP3   OH221848   5.119   5.032   2.771
 7295TIP3    H121849   5.080   5.117   2.753
 7295TIP3    H221850   5.186   5.021   2.703
 7296TIP3   OH221851   1.918   5.108   0.315
 7296TIP3    H121852   1.901   5.030   0.367
 7296TIP3    H221853   1.881   5.179   0.366
 7297TIP3   OH221854   0.010   1.512   0.287
 7297TIP3    H121855  -0.079   1.502   0.320
 7297TIP3    H221856   0.026   1.606   0.288
 7298TIP3   OH221857   4.469   6.557   0.316
 7298TIP3    H121858   4.392   6.512   0.280
 7298TIP3    H221859   4.534   6.554   0.245
 7299TIP3   OH221860   5.701   1.496   4.126
 7299TIP3    H121861   5.673   1.470   4.214
 7299TIP3    H221862   5.797   1.500   4.132
 7300TIP3   OH221863   0.145   6.702   1.261
 7300TIP3    H121864   0.084   6.637   1.226
 7300TIP3    H221865   0.202   6.651   1.319
 7301TIP3   OH221866   1.681   3.326   4.736
 7301TIP3    H121867   1.763   3.276   4.732
 7301TIP3    H221868   1.707   3.417   4.723
 7302TIP3   OH221869   6.138   1.706   0.958
 7302TIP3    H121870   6.073   1.669   0.898
 7302TIP3    H221871   6.177   1.780   0.909
 7303TIP3   OH221872   5.636   1.955   4.417
 7303TIP3    H121873   5.597   2.012   4.483
 7303TIP3    H221874   5.650   1.872   4.463
 7304TIP3   OH221875   2.939   6.181   3.044
 7304TIP3    H121876   2.890   6.261   3.065
 7304TIP3    H221877   2.887   6.110   3.080
 7305TIP3   OH221878   4.132   4.025   5.173
 7305TIP3    H121879   4.174   4.053   5.255
 7305TIP3    H221880   4.039   4.015   5.197
 7306TIP3   OH221881   2.657   6.293   4.826
 7306TIP3    H121882   2.740   6.301   4.778
 7306TIP3    H221883   2.595   6.345   4.775
 7307TIP3   OH221884   6.218   4.573   3.567
 7307TIP3    H121885   6.177   4.489   3.549
 7307TIP3    H221886   6.227   4.575   3.663
 7308TIP3   OH221887   1.179   5.733   1.606
 7308TIP3    H121888   1.133   5.817   1.612
 7308TIP3    H221889   1.155   5.687   1.687
 7309TIP3   OH221890   6.988   4.524   1.352
 7309TIP3    H121891   6.971   4.431   1.335
 7309TIP3    H221892   7.052   4.524   1.423
 7310TIP3   OH221893   3.013   1.511   5.490
 7310TIP3    H121894   2.957   1.436   5.510
 7310TIP3    H221895   2.952   1.583   5.471
 7311TIP3   OH221896   6.840   1.497   0.622
 7311TIP3    H121897   6.805   1.432   0.682
 7311TIP3    H221898   6.789   1.486   0.542
 7312TIP3   OH221899   2.285   3.529   2.937
 7312TIP3    H121900   2.273   3.591   2.865
 7312TIP3    H221901   2.277   3.443   2.896
 7313TIP3   OH221902   1.261   2.959   0.711
 7313TIP3    H121903   1.265   2.945   0.805
 7313TIP3    H221904   1.344   3.002   0.690
 7314TIP3   OH221905   7.060   0.524   3.507
 7314TIP3    H121906   7.032   0.554   3.420
 7314TIP3    H221907   7.146   0.563   3.519
 7315TIP3   OH221908   6.698   5.476   2.486
 7315TIP3    H121909   6.643   5.497   2.411
 7315TIP3    H221910   6.648   5.506   2.562
 7316TIP3   OH221911   0.616   1.508   3.285
 7316TIP3    H121912   0.531   1.527   3.246
 7316TIP3    H221913   0.645   1.428   3.243
 7317TIP3   OH221914   0.245   4.865   2.251
 7317TIP3    H121915   0.189   4.788   2.264
 7317TIP3    H221916   0.293   4.874   2.333
 7318TIP3   OH221917   4.485   2.566   4.579
 7318TIP3    H121918   4.564   2.515   4.564
 7318TIP3    H221919   4.415   2.500   4.584
 7319TIP3   OH221920   1.813   1.605   1.770
 7319TIP3    H121921   1.831   1.522   1.814
 7319TIP3    H221922   1.788   1.665   1.841
 7320TIP3   OH221923   2.137   4.367   4.973
 7320TIP3    H121924   2.043   4.368   4.992
 7320TIP3    H221925   2.151   4.444   4.918
 7321TIP3   OH221926   6.969   4.518   2.531
 7321TIP3    H121927   6.953   4.487   2.620
 7321TIP3    H221928   7.058   4.554   2.534
 7322TIP3   OH221929   0.259   1.361   3.398
 7322TIP3    H121930   0.204   1.293   3.358
 7322TIP3    H221931   0.319   1.312   3.455
 7323TIP3   OH221932   6.723   4.373   4.320
 7323TIP3    H121933   6.807   4.361   4.274
 7323TIP3    H221934   6.657   4.369   4.251
 7324TIP3   OH221935   0.579   1.990   0.605
 7324TIP3    H121936   0.564   1.997   0.510
 7324TIP3    H221937   0.493   2.005   0.644
 7325TIP3   OH221938   0.615   3.442   1.173
 7325TIP3    H121939   0.662   3.359   1.182
 7325TIP3    H221940   0.607   3.454   1.079
 7326TIP3   OH221941   5.084   0.842   4.751
 7326TIP3    H121942   5.010   0.782   4.764
 7326TIP3    H221943   5.092   0.888   4.834
 7327TIP3   OH221944   3.364   3.952   1.922
 7327TIP3    H121945   3.412   3.891   1.866
 7327TIP3    H221946   3.316   4.008   1.862
 7328TIP3   OH221947   3.792   3.041   3.291
 7328TIP3    H121948   3.747   3.122   3.314
 7328TIP3    H221949   3.738   3.003   3.222
 7329TIP3   OH221950   4.043   0.282   2.680
 7329TIP3    H121951   4.026   0.328   2.597
 7329TIP3    H221952   4.103   0.211   2.656
 7330TIP3   OH221953   2.697   6.161   4.558
 7330TIP3    H121954   2.778   6.200   4.591
 7330TIP3    H221955   2.681   6.087   4.617
 7331TIP3   OH221956   6.039   4.862   1.635
 7331TIP3    H121957   6.103   4.847   1.566
 7331TIP3    H221958   5.966   4.803   1.613
 7332TIP3   OH221959   6.262   5.352   5.134
 7332TIP3    H121960   6.209   5.424   5.168
 7332TIP3    H221961   6.251   5.355   5.039
 7333TIP3   OH221962   3.156   6.305   4.622
 7333TIP3    H121963   3.235   6.251   4.621
 7333TIP3    H221964   3.160   6.353   4.705
 7334TIP3   OH221965   3.891   1.873   3.476
 7334TIP3    H121966   3.961   1.809   3.483
 7334TIP3    H221967   3.812   1.821   3.461
 7335TIP3   OH221968   4.699   5.507   0.723
 7335TIP3    H121969   4.724   5.476   0.810
 7335TIP3    H221970   4.635   5.443   0.692
 7336TIP3   OH221971   4.857   5.672   3.285
 7336TIP3    H121972   4.877   5.747   3.341
 7336TIP3    H221973   4.789   5.705   3.226
 7337TIP3   OH221974   5.576   5.535   2.074
 7337TIP3    H121975   5.569   5.613   2.129
 7337TIP3    H221976   5.486   5.516   2.047
 7338TIP3   OH221977   1.514   6.260   2.102
 7338TIP3    H121978   1.523   6.172   2.139
 7338TIP3    H221979   1.487   6.314   2.177
 7339TIP3   OH221980   6.036   1.984   5.290
 7339TIP3    H121981   5.984   1.914   5.250
 7339TIP3    H221982   5.971   2.046   5.323
 7340TIP3   OH221983   1.440   2.958   3.070
 7340TIP3    H121984   1.422   2.925   2.982
 7340TIP3    H221985   1.354   2.962   3.112
 7341TIP3   OH221986   1.950   2.039   4.103
 7341TIP3    H121987   1.928   2.114   4.159
 7341TIP3    H221988   2.044   2.048   4.087
 7342TIP3   OH221989   0.331   2.536   1.195
 7342TIP3    H121990   0.409   2.485   1.173
 7342TIP3    H221991   0.322   2.598   1.123
 7343TIP3   OH221992   0.049   5.066   2.992
 7343TIP3    H121993   0.084   5.065   3.081
 7343TIP3    H221994   0.068   4.979   2.958
 7344TIP3   OH221995   5.479   6.129   0.529
 7344TIP3    H121996   5.551   6.191   0.515
 7344TIP3    H221997   5.399   6.182   0.516
 7345TIP3   OH221998   1.094   6.205   0.064
 7345TIP3    H121999   1.024   6.248   0.114
 7345TIP3    H222000   1.100   6.117   0.103
 7346TIP3   OH222001   7.075   6.122   1.928
 7346TIP3    H122002   7.092   6.158   2.016
 7346TIP3    H222003   7.073   6.198   1.871
 7347TIP3   OH222004   0.353   6.535   2.383
 7347TIP3    H122005   0.409   6.527   2.305
 7347TIP3    H222006   0.409   6.577   2.448
 7348TIP3   OH222007   5.614   5.437   2.384
 7348TIP3    H122008   5.677   5.491   2.336
 7348TIP3    H222009   5.633   5.455   2.477
 7349TIP3   OH222010   4.772   2.144   4.158
 7349TIP3    H122011   4.790   2.236   4.173
 7349TIP3    H222012   4.856   2.107   4.130
 7350TIP3   OH222013   1.672   5.926   1.496
 7350TIP3    H122014   1.645   6.017   1.487
 7350TIP3    H222015   1.590   5.878   1.510
 7351TIP3   OH222016   5.605   3.634   0.962
 7351TIP3    H122017   5.512   3.634   0.940
 7351TIP3    H222018   5.607   3.623   1.058
 7352TIP3   OH222019   5.083   3.027   5.125
 7352TIP3    H122020   5.080   3.055   5.217
 7352TIP3    H222021   4.991   3.020   5.100
 7353TIP3   OH222022   2.754   5.416   5.847
 7353TIP3    H122023   2.720   5.341   5.799
 7353TIP3    H222024   2.805   5.465   5.782
 7354TIP3   OH222025   3.978   0.062   4.964
 7354TIP3    H122026   3.944   0.035   4.878
 7354TIP3    H222027   4.073   0.062   4.953
 7355TIP3   OH222028   1.836   4.396   4.947
 7355TIP3    H122029   1.855   4.475   4.997
 7355TIP3    H222030   1.784   4.341   5.006
 7356TIP3   OH222031   2.641   0.087   2.343
 7356TIP3    H122032   2.585   0.022   2.387
 7356TIP3    H222033   2.642   0.161   2.404
 7357TIP3   OH222034   3.363   1.553   2.265
 7357TIP3    H122035   3.387   1.461   2.274
 7357TIP3    H222036   3.267   1.553   2.264
 7358TIP3   OH222037   2.040   4.768   3.036
 7358TIP3    H122038   1.971   4.750   2.972
 7358TIP3    H222039   2.122   4.753   2.988
 7359TIP3   OH222040   1.794   6.609   5.327
 7359TIP3    H122041   1.827   6.591   5.240
 7359TIP3    H222042   1.820   6.532   5.379
 7360TIP3   OH222043   6.180   0.744   2.508
 7360TIP3    H122044   6.134   0.824   2.482
 7360TIP3    H222045   6.239   0.772   2.578
 7361TIP3   OH222046   0.233   3.197   5.512
 7361TIP3    H122047   0.278   3.281   5.502
 7361TIP3    H222048   0.155   3.205   5.457
 7362TIP3   OH222049   6.156   4.404   5.812
 7362TIP3    H122050   6.207   4.336   5.855
 7362TIP3    H222051   6.121   4.363   5.733
 7363TIP3   OH222052   1.820   1.217   0.156
 7363TIP3    H122053   1.755   1.150   0.176
 7363TIP3    H222054   1.850   1.248   0.242
 7364TIP3   OH222055   0.961   5.717   3.461
 7364TIP3    H122056   0.911   5.639   3.482
 7364TIP3    H222057   1.036   5.715   3.521
 7365TIP3   OH222058   6.813   6.560   0.393
 7365TIP3    H122059   6.769   6.645   0.396
 7365TIP3    H222060   6.895   6.574   0.441
 7366TIP3   OH222061   1.492   0.894   4.820
 7366TIP3    H122062   1.501   0.960   4.752
 7366TIP3    H222063   1.433   0.829   4.783
 7367TIP3   OH222064   6.881   5.619   0.032
 7367TIP3    H122065   6.935   5.698   0.019
 7367TIP3    H222066   6.791   5.651   0.031
 7368TIP3   OH222067   1.205   6.653   3.546
 7368TIP3    H122068   1.267   6.616   3.483
 7368TIP3    H222069   1.207   6.592   3.620
 7369TIP3   OH222070   2.261   5.843   1.976
 7369TIP3    H122071   2.316   5.808   2.047
 7369TIP3    H222072   2.183   5.876   2.020
 7370TIP3   OH222073   1.305   5.000   2.639
 7370TIP3    H122074   1.323   4.913   2.604
 7370TIP3    H222075   1.333   5.060   2.571
 7371TIP3   OH222076   2.308   4.666   2.362
 7371TIP3    H122077   2.299   4.640   2.454
 7371TIP3    H222078   2.220   4.693   2.336
 7372TIP3   OH222079   2.706   0.203   4.718
 7372TIP3    H122080   2.693   0.263   4.792
 7372TIP3    H222081   2.773   0.142   4.749
 7373TIP3   OH222082   5.344   3.088   3.518
 7373TIP3    H122083   5.340   3.132   3.433
 7373TIP3    H222084   5.261   3.039   3.524
 7374TIP3   OH222085   6.807   0.264   0.596
 7374TIP3    H122086   6.787   0.186   0.649
 7374TIP3    H222087   6.834   0.228   0.511
 7375TIP3   OH222088   5.934   3.478   0.691
 7375TIP3    H122089   5.998   3.461   0.621
 7375TIP3    H222090   5.988   3.488   0.770
 7376TIP3   OH222091   5.068   3.266   1.257
 7376TIP3    H122092   5.139   3.300   1.312
 7376TIP3    H222093   4.995   3.252   1.317
 7377TIP3   OH222094   5.694   2.898   1.593
 7377TIP3    H122095   5.652   2.826   1.547
 7377TIP3    H222096   5.640   2.913   1.670
 7378TIP3   OH222097   1.596   1.061   3.441
 7378TIP3    H122098   1.636   1.097   3.362
 7378TIP3    H222099   1.505   1.091   3.438
 7379TIP3   OH222100   0.024   1.604   5.486
 7379TIP3    H122101   0.038   1.699   5.488
 7379TIP3    H222102   0.107   1.568   5.455
 7380TIP3   OH222103   3.185   5.536   2.316
 7380TIP3    H122104   3.164   5.443   2.318
 7380TIP3    H222105   3.170   5.562   2.225
 7381TIP3   OH222106   0.202   0.100   3.134
 7381TIP3    H122107   0.180   0.164   3.067
 7381TIP3    H222108   0.121   0.085   3.182
 7382TIP3   OH222109   1.931   0.256   5.487
 7382TIP3    H122110   1.868   0.306   5.435
 7382TIP3    H222111   2.016   0.279   5.450
 7383TIP3   OH222112   7.014   0.369   4.944
 7383TIP3    H122113   6.989   0.391   4.855
 7383TIP3    H222114   7.110   0.375   4.945
 7384TIP3   OH222115   5.840   4.912   3.413
 7384TIP3    H122116   5.755   4.891   3.373
 7384TIP3    H222117   5.904   4.866   3.359
 7385TIP3   OH222118   2.594   4.653   1.814
 7385TIP3    H122119   2.538   4.658   1.737
 7385TIP3    H222120   2.632   4.565   1.811
 7386TIP3   OH222121   0.239   1.002   4.579
 7386TIP3    H122122   0.282   1.049   4.508
 7386TIP3    H222123   0.282   0.916   4.580
 7387TIP3   OH222124   4.817   3.589   1.296
 7387TIP3    H122125   4.849   3.587   1.387
 7387TIP3    H222126   4.752   3.659   1.296
 7388TIP3   OH222127   3.715   4.380   5.179
 7388TIP3    H122128   3.637   4.361   5.128
 7388TIP3    H222129   3.692   4.355   5.269
 7389TIP3   OH222130   0.910   0.734   4.184
 7389TIP3    H122131   0.874   0.743   4.095
 7389TIP3    H222132   0.883   0.646   4.212
 7390TIP3   OH222133   5.646   3.267   1.033
 7390TIP3    H122134   5.678   3.306   0.952
 7390TIP3    H222135   5.551   3.276   1.028
 7391TIP3   OH222136   7.216   0.818   2.166
 7391TIP3    H122137   7.259   0.899   2.192
 7391TIP3    H222138   7.198   0.829   2.073
 7392TIP3   OH222139   3.100   1.450   1.036
 7392TIP3    H122140   3.020   1.496   1.059
 7392TIP3    H222141   3.087   1.360   1.068
 7393TIP3   OH222142   0.096   0.249   2.080
 7393TIP3    H122143   0.120   0.340   2.094
 7393TIP3    H222144   0.074   0.216   2.167
 7394TIP3   OH222145   4.928   1.800   3.880
 7394TIP3    H122146   4.928   1.889   3.915
 7394TIP3    H222147   4.997   1.755   3.929
 7395TIP3   OH222148   2.536   4.646   3.531
 7395TIP3    H122149   2.575   4.589   3.465
 7395TIP3    H222150   2.518   4.728   3.485
 7396TIP3   OH222151   2.916   0.983   4.514
 7396TIP3    H122152   2.932   1.074   4.539
 7396TIP3    H222153   2.823   0.969   4.532
 7397TIP3   OH222154   5.166   3.074   0.978
 7397TIP3    H122155   5.197   2.989   0.947
 7397TIP3    H222156   5.128   3.115   0.900
 7398TIP3   OH222157   6.201   3.421   0.083
 7398TIP3    H122158   6.251   3.499   0.107
 7398TIP3    H222159   6.193   3.426  -0.012
 7399TIP3   OH222160   6.961   6.668   0.758
 7399TIP3    H122161   6.967   6.637   0.668
 7399TIP3    H222162   7.044   6.714   0.774
 7400TIP3   OH222163   3.963   5.210   5.259
 7400TIP3    H122164   3.996   5.162   5.183
 7400TIP3    H222165   4.017   5.180   5.332
 7401TIP3   OH222166   0.746   1.595   2.642
 7401TIP3    H122167   0.801   1.551   2.706
 7401TIP3    H222168   0.788   1.579   2.558
 7402TIP3   OH222169   3.047   1.530   0.458
 7402TIP3    H122170   3.102   1.470   0.408
 7402TIP3    H222171   2.985   1.473   0.504
 7403TIP3   OH222172   6.474   5.950   4.235
 7403TIP3    H122173   6.533   6.016   4.197
 7403TIP3    H222174   6.427   5.997   4.304
 7404TIP3   OH222175   2.727   5.188   0.708
 7404TIP3    H122176   2.686   5.176   0.793
 7404TIP3    H222177   2.749   5.281   0.705
 7405TIP3   OH222178   2.539   1.969   5.078
 7405TIP3    H122179   2.509   2.060   5.084
 7405TIP3    H222180   2.489   1.923   5.145
 7406TIP3   OH222181   4.648   0.360   2.338
 7406TIP3    H122182   4.716   0.339   2.402
 7406TIP3    H222183   4.647   0.285   2.278
 7407TIP3   OH222184   2.655  -0.016   3.741
 7407TIP3    H122185   2.623   0.009   3.654
 7407TIP3    H222186   2.602  -0.091   3.766
 7408TIP3   OH222187   0.106   0.177   4.602
 7408TIP3    H122188   0.061   0.131   4.531
 7408TIP3    H222189   0.051   0.253   4.620
 7409TIP3   OH222190   2.590   2.385   4.426
 7409TIP3    H122191   2.497   2.361   4.428
 7409TIP3    H222192   2.635   2.302   4.410
 7410TIP3   OH222193   5.408   1.100   1.125
 7410TIP3    H122194   5.399   1.007   1.108
 7410TIP3    H222195   5.331   1.140   1.085
 7411TIP3   OH222196   4.019   2.514   2.569
 7411TIP3    H122197   4.066   2.489   2.490
 7411TIP3    H222198   3.959   2.583   2.541
 7412TIP3   OH222199   2.657   4.388   4.657
 7412TIP3    H122200   2.623   4.302   4.633
 7412TIP3    H222201   2.631   4.399   4.749
 7413TIP3   OH222202   4.030   5.249   2.991
 7413TIP3    H122203   4.095   5.294   2.937
 7413TIP3    H222204   3.985   5.320   3.038
 7414TIP3   OH222205   5.336   6.129   4.344
 7414TIP3    H122206   5.359   6.202   4.286
 7414TIP3    H222207   5.240   6.128   4.344
 7415TIP3   OH222208   5.621   6.258   0.154
 7415TIP3    H122209   5.689   6.190   0.155
 7415TIP3    H222210   5.577   6.246   0.070
 7416TIP3   OH222211   4.507   0.848   2.008
 7416TIP3    H122212   4.536   0.875   2.095
 7416TIP3    H222213   4.474   0.929   1.968
 7417TIP3   OH222214   5.815   3.335   0.258
 7417TIP3    H122215   5.749   3.272   0.230
 7417TIP3    H222216   5.833   3.387   0.180
 7418TIP3   OH222217   6.405   0.648   1.409
 7418TIP3    H122218   6.419   0.554   1.396
 7418TIP3    H222219   6.324   0.667   1.362
 7419TIP3   OH222220   0.523   0.872   4.048
 7419TIP3    H122221   0.504   0.923   3.969
 7419TIP3    H222222   0.595   0.814   4.021
 7420TIP3   OH222223   6.861   0.346   1.256
 7420TIP3    H122224   6.775   0.387   1.255
 7420TIP3    H222225   6.842   0.252   1.266
 7421TIP3   OH222226   0.131   5.557   2.415
 7421TIP3    H122227   0.111   5.499   2.342
 7421TIP3    H222228   0.075   5.634   2.401
 7422TIP3   OH222229   1.545   1.985   5.445
 7422TIP3    H122230   1.495   2.032   5.379
 7422TIP3    H222231   1.637   2.001   5.423
 7423TIP3   OH222232   3.606   0.788   4.790
 7423TIP3    H122233   3.638   0.759   4.876
 7423TIP3    H222234   3.675   0.846   4.757
 7424TIP3   OH222235   0.102   6.296   4.369
 7424TIP3    H122236   0.181   6.346   4.351
 7424TIP3    H222237   0.097   6.293   4.465
 7425TIP3   OH222238   1.311   3.652   5.223
 7425TIP3    H122239   1.236   3.632   5.167
 7425TIP3    H222240   1.284   3.623   5.310
 7426TIP3   OH222241   0.976   1.307   3.441
 7426TIP3    H122242   0.890   1.326   3.479
 7426TIP3    H222243   0.957   1.256   3.362
 7427TIP3   OH222244   1.282   2.898   3.828
 7427TIP3    H122245   1.255   2.808   3.810
 7427TIP3    H222246   1.246   2.916   3.915
 7428TIP3   OH222247   2.230   6.276   0.085
 7428TIP3    H122248   2.138   6.283   0.061
 7428TIP3    H222249   2.239   6.187   0.119
 7429TIP3   OH222250   4.236   1.038   3.926
 7429TIP3    H122251   4.232   0.993   3.842
 7429TIP3    H222252   4.149   1.023   3.965
 7430TIP3   OH222253   6.146   1.047   2.149
 7430TIP3    H122254   6.235   1.022   2.172
 7430TIP3    H222255   6.155   1.092   2.065
 7431TIP3   OH222256   3.849   0.112   0.785
 7431TIP3    H122257   3.833   0.030   0.739
 7431TIP3    H222258   3.809   0.179   0.729
 7432TIP3   OH222259   4.249   5.836   3.739
 7432TIP3    H122260   4.187   5.766   3.760
 7432TIP3    H222261   4.271   5.822   3.648
 7433TIP3   OH222262   1.293   0.220   4.106
 7433TIP3    H122263   1.316   0.144   4.160
 7433TIP3    H222264   1.201   0.205   4.082
 7434TIP3   OH222265   4.835   2.344   5.821
 7434TIP3    H122266   4.770   2.300   5.767
 7434TIP3    H222267   4.915   2.343   5.769
 7435TIP3   OH222268   5.301   0.194   3.937
 7435TIP3    H122269   5.348   0.241   4.006
 7435TIP3    H222270   5.210   0.219   3.949
 7436TIP3   OH222271   6.992   4.078   4.258
 7436TIP3    H122272   7.087   4.080   4.244
 7436TIP3    H222273   6.964   4.168   4.241
 7437TIP3   OH222274   5.883   5.699   0.567
 7437TIP3    H122275   5.860   5.750   0.489
 7437TIP3    H222276   5.900   5.611   0.535
 7438TIP3   OH222277   6.975   4.380   2.790
 7438TIP3    H122278   7.021   4.363   2.872
 7438TIP3    H222279   6.897   4.324   2.794
 7439TIP3   OH222280   5.157   2.528   2.081
 7439TIP3    H122281   5.197   2.504   2.164
 7439TIP3    H222282   5.229   2.527   2.018
 7440TIP3   OH222283   3.340   4.360   3.699
 7440TIP3    H122284   3.254   4.379   3.662
 7440TIP3    H222285   3.402   4.401   3.638
 7441TIP3   OH222286   6.699   4.524   5.138
 7441TIP3    H122287   6.724   4.434   5.158
 7441TIP3    H222288   6.618   4.516   5.088
 7442TIP3   OH222289   1.873   4.365   4.214
 7442TIP3    H122290   1.882   4.428   4.142
 7442TIP3    H222291   1.923   4.405   4.286
 7443TIP3   OH222292   4.999   3.423   1.589
 7443TIP3    H122293   4.937   3.382   1.528
 7443TIP3    H222294   4.969   3.513   1.595
 7444TIP3   OH222295   5.437   3.398   4.359
 7444TIP3    H122296   5.522   3.359   4.377
 7444TIP3    H222297   5.399   3.414   4.446
 7445TIP3   OH222298   0.018   5.846   3.917
 7445TIP3    H122299   0.053   5.893   3.841
 7445TIP3    H222300   0.090   5.844   3.979
 7446TIP3   OH222301   4.892   6.648   1.091
 7446TIP3    H122302   4.860   6.738   1.099
 7446TIP3    H222303   4.818   6.593   1.116
 7447TIP3   OH222304   5.074   6.690   5.631
 7447TIP3    H122305   4.980   6.686   5.612
 7447TIP3    H222306   5.091   6.613   5.685
 7448TIP3   OH222307   3.893   3.232   0.972
 7448TIP3    H122308   3.823   3.216   1.035
 7448TIP3    H222309   3.870   3.316   0.932
 7449TIP3   OH222310   6.878   2.554   0.399
 7449TIP3    H122311   6.831   2.592   0.325
 7449TIP3    H222312   6.899   2.464   0.371
 7450TIP3   OH222313   2.244   5.542   2.413
 7450TIP3    H122314   2.178   5.612   2.414
 7450TIP3    H222315   2.289   5.550   2.497
 7451TIP3   OH222316   0.186   5.458   0.703
 7451TIP3    H122317   0.189   5.535   0.761
 7451TIP3    H222318   0.191   5.495   0.614
 7452TIP3   OH222319   7.224   1.061   2.599
 7452TIP3    H122320   7.197   1.079   2.690
 7452TIP3    H222321   7.176   0.981   2.575
 7453TIP3   OH222322   2.416   3.568   2.433
 7453TIP3    H122323   2.323   3.592   2.426
 7453TIP3    H222324   2.426   3.539   2.523
 7454TIP3   OH222325   0.733   2.687   1.347
 7454TIP3    H122326   0.656   2.632   1.357
 7454TIP3    H222327   0.728   2.720   1.257
 7455TIP3   OH222328   1.799   1.013   2.494
 7455TIP3    H122329   1.835   1.062   2.419
 7455TIP3    H222330   1.875   0.969   2.532
 7456TIP3   OH222331   6.458   4.198   0.604
 7456TIP3    H122332   6.469   4.255   0.680
 7456TIP3    H222333   6.373   4.156   0.618
 7457TIP3   OH222334   7.053   1.008   1.748
 7457TIP3    H122335   6.965   0.993   1.715
 7457TIP3    H222336   7.099   0.926   1.733
 7458TIP3   OH222337   0.552   4.435   5.059
 7458TIP3    H122338   0.557   4.530   5.046
 7458TIP3    H222339   0.639   4.403   5.036
 7459TIP3   OH222340   5.084   4.931   2.050
 7459TIP3    H122341   5.026   4.923   2.127
 7459TIP3    H222342   5.146   5.000   2.074
 7460TIP3   OH222343   5.742   2.281   3.996
 7460TIP3    H122344   5.735   2.292   3.901
 7460TIP3    H222345   5.795   2.355   4.025
 7461TIP3   OH222346   4.493   6.464   4.468
 7461TIP3    H122347   4.448   6.548   4.480
 7461TIP3    H222348   4.563   6.484   4.405
 7462TIP3   OH222349   5.968   5.926   3.681
 7462TIP3    H122350   6.043   5.895   3.631
 7462TIP3    H222351   6.004   5.948   3.767
 7463TIP3   OH222352   5.840   0.061   4.649
 7463TIP3    H122353   5.791  -0.001   4.594
 7463TIP3    H222354   5.772   0.109   4.696
 7464TIP3   OH222355   0.567   2.923   4.711
 7464TIP3    H122356   0.618   2.996   4.677
 7464TIP3    H222357   0.478   2.939   4.680
 7465TIP3   OH222358   2.468   3.992   0.975
 7465TIP3    H122359   2.414   3.950   1.042
 7465TIP3    H222360   2.545   3.937   0.967
 7466TIP3   OH222361   7.166   3.486   4.512
 7466TIP3    H122362   7.155   3.411   4.570
 7466TIP3    H222363   7.207   3.553   4.567
 7467TIP3   OH222364   6.437   3.980   3.704
 7467TIP3    H122365   6.366   3.916   3.713
 7467TIP3    H222366   6.393   4.063   3.685
 7468TIP3   OH222367   2.063   1.944   0.953
 7468TIP3    H122368   1.974   1.976   0.940
 7468TIP3    H222369   2.087   1.975   1.040
 7469TIP3   OH222370   5.282   4.630   1.120
 7469TIP3    H122371   5.358   4.582   1.086
 7469TIP3    H222372   5.284   4.614   1.214
 7470TIP3   OH222373   6.675   4.075   1.145
 7470TIP3    H122374   6.683   4.155   1.093
 7470TIP3    H222375   6.679   4.004   1.080
 7471TIP3   OH222376   2.999   2.212   0.095
 7471TIP3    H122377   2.983   2.279   0.028
 7471TIP3    H222378   2.940   2.140   0.070
 7472TIP3   OH222379   0.922   1.462   5.204
 7472TIP3    H122380   0.953   1.534   5.149
 7472TIP3    H222381   1.000   1.430   5.250
 7473TIP3   OH222382   1.729   3.567   2.463
 7473TIP3    H122383   1.760   3.646   2.418
 7473TIP3    H222384   1.659   3.598   2.521
 7474TIP3   OH222385   6.705   1.373   0.409
 7474TIP3    H122386   6.643   1.328   0.467
 7474TIP3    H222387   6.654   1.393   0.331
 7475TIP3   OH222388   1.123   1.085   5.185
 7475TIP3    H122389   1.178   1.063   5.110
 7475TIP3    H222390   1.182   1.078   5.261
 7476TIP3   OH222391   0.681   3.937   1.889
 7476TIP3    H122392   0.600   3.909   1.846
 7476TIP3    H222393   0.672   4.032   1.897
 7477TIP3   OH222394   2.253   1.619   3.792
 7477TIP3    H122395   2.254   1.575   3.877
 7477TIP3    H222396   2.190   1.691   3.804
 7478TIP3   OH222397   1.925   2.166   0.727
 7478TIP3    H122398   1.890   2.082   0.758
 7478TIP3    H222399   1.958   2.148   0.639
 7479TIP3   OH222400   6.383   4.304  -0.044
 7479TIP3    H122401   6.457   4.327  -0.101
 7479TIP3    H222402   6.422   4.249   0.024
 7480TIP3   OH222403   3.729   4.185   0.826
 7480TIP3    H122404   3.762   4.137   0.750
 7480TIP3    H222405   3.807   4.222   0.866
 7481TIP3   OH222406   4.018   2.502   4.746
 7481TIP3    H122407   4.050   2.413   4.762
 7481TIP3    H222408   4.046   2.522   4.657
 7482TIP3   OH222409   1.339   3.930   2.813
 7482TIP3    H122410   1.423   3.899   2.845
 7482TIP3    H222411   1.306   3.988   2.882
 7483TIP3   OH222412   2.764   0.297   4.482
 7483TIP3    H122413   2.743   0.220   4.428
 7483TIP3    H222414   2.754   0.266   4.572
 7484TIP3   OH222415   1.188   3.445   3.269
 7484TIP3    H122416   1.115   3.390   3.299
 7484TIP3    H222417   1.260   3.384   3.257
 7485TIP3   OH222418   6.048   3.502   3.212
 7485TIP3    H122419   6.101   3.460   3.143
 7485TIP3    H222420   5.981   3.437   3.233
 7486TIP3   OH222421   1.334   1.585   2.663
 7486TIP3    H122422   1.401   1.647   2.634
 7486TIP3    H222423   1.339   1.514   2.598
 7487TIP3   OH222424   0.934   0.182   0.613
 7487TIP3    H122425   0.897   0.094   0.604
 7487TIP3    H222426   0.925   0.220   0.525
 7488TIP3   OH222427   3.798   0.317   2.109
 7488TIP3    H122428   3.775   0.275   2.026
 7488TIP3    H222429   3.893   0.332   2.103
 7489TIP3   OH222430   6.805   6.156   3.804
 7489TIP3    H122431   6.845   6.091   3.862
 7489TIP3    H222432   6.771   6.104   3.730
 7490TIP3   OH222433   1.566   6.498   0.371
 7490TIP3    H122434   1.603   6.446   0.442
 7490TIP3    H222435   1.638   6.555   0.342
 7491TIP3   OH222436   5.655   1.605   5.108
 7491TIP3    H122437   5.694   1.570   5.028
 7491TIP3    H222438   5.643   1.529   5.165
 7492TIP3   OH222439   2.171   1.518   5.091
 7492TIP3    H122440   2.189   1.590   5.151
 7492TIP3    H222441   2.122   1.559   5.019
 7493TIP3   OH222442   4.458   2.774   1.313
 7493TIP3    H122443   4.541   2.781   1.361
 7493TIP3    H222444   4.454   2.854   1.260
 7494TIP3   OH222445   6.714   5.822   4.300
 7494TIP3    H122446   6.626   5.860   4.299
 7494TIP3    H222447   6.730   5.797   4.210
 7495TIP3   OH222448   1.291   2.709   1.762
 7495TIP3    H122449   1.211   2.717   1.814
 7495TIP3    H222450   1.312   2.616   1.764
 7496TIP3   OH222451   6.030   5.415   3.742
 7496TIP3    H122452   5.964   5.398   3.674
 7496TIP3    H222453   5.983   5.403   3.824
 7497TIP3   OH222454   2.980   3.889   1.091
 7497TIP3    H122455   2.913   3.887   1.159
 7497TIP3    H222456   3.007   3.981   1.086
 7498TIP3   OH222457   6.554   1.155   3.252
 7498TIP3    H122458   6.646   1.183   3.253
 7498TIP3    H222459   6.528   1.159   3.161
 7499TIP3   OH222460   2.165   0.735   1.403
 7499TIP3    H122461   2.198   0.645   1.406
 7499TIP3    H222462   2.077   0.728   1.368
 7500TIP3   OH222463   4.520   4.486   4.285
 7500TIP3    H122464   4.575   4.556   4.320
 7500TIP3    H222465   4.574   4.407   4.292
 7501TIP3   OH222466   2.803   4.127   3.568
 7501TIP3    H122467   2.766   4.045   3.600
 7501TIP3    H222468   2.727   4.180   3.544
 7502TIP3   OH222469   1.010   1.261   5.634
 7502TIP3    H122470   0.975   1.350   5.627
 7502TIP3    H222471   0.939   1.211   5.676
 7503TIP3   OH222472   3.779   4.005   1.784
 7503TIP3    H122473   3.847   3.973   1.844
 7503TIP3    H222474   3.772   4.099   1.804
 7504TIP3   OH222475   6.212   3.023   0.485
 7504TIP3    H122476   6.300   3.057   0.499
 7504TIP3    H222477   6.201   3.019   0.390
 7505TIP3   OH222478   4.157   3.666   2.627
 7505TIP3    H122479   4.250   3.643   2.626
 7505TIP3    H222480   4.135   3.682   2.535
 7506TIP3   OH222481   0.710   1.331   3.529
 7506TIP3    H122482   0.661   1.309   3.607
 7506TIP3    H222483   0.677   1.417   3.502
 7507TIP3   OH222484   4.395   1.534   0.074
 7507TIP3    H122485   4.457   1.540   0.146
 7507TIP3    H222486   4.312   1.507   0.115
 7508TIP3   OH222487   4.072   3.845   0.352
 7508TIP3    H122488   3.991   3.799   0.328
 7508TIP3    H222489   4.100   3.888   0.271
 7509TIP3   OH222490   3.490   2.411   1.429
 7509TIP3    H122491   3.419   2.464   1.393
 7509TIP3    H222492   3.476   2.414   1.524
 7510TIP3   OH222493   6.705   6.615   5.199
 7510TIP3    H122494   6.624   6.616   5.149
 7510TIP3    H222495   6.731   6.707   5.205
 7511TIP3   OH222496   5.941   0.384   4.682
 7511TIP3    H122497   5.858   0.338   4.691
 7511TIP3    H222498   5.975   0.358   4.597
 7512TIP3   OH222499   3.188   5.951   4.625
 7512TIP3    H122500   3.159   5.865   4.595
 7512TIP3    H222501   3.220   5.994   4.546
 7513TIP3   OH222502   5.164   5.269   3.309
 7513TIP3    H122503   5.256   5.290   3.293
 7513TIP3    H222504   5.126   5.351   3.340
 7514TIP3   OH222505   3.029   3.397   1.306
 7514TIP3    H122506   3.012   3.464   1.240
 7514TIP3    H222507   2.958   3.334   1.295
 7515TIP3   OH222508   0.067   0.798   2.847
 7515TIP3    H122509   0.045   0.890   2.830
 7515TIP3    H222510   0.013   0.774   2.922
 7516TIP3   OH222511   0.452   0.229   5.329
 7516TIP3    H122512   0.367   0.196   5.298
 7516TIP3    H222513   0.481   0.163   5.392
 7517TIP3   OH222514   2.602   4.884   1.966
 7517TIP3    H122515   2.614   4.829   2.044
 7517TIP3    H222516   2.584   4.821   1.896
 7518TIP3   OH222517   1.234   0.958   0.430
 7518TIP3    H122518   1.231   0.862   0.436
 7518TIP3    H222519   1.148   0.987   0.460
 7519TIP3   OH222520   1.780   5.752   0.010
 7519TIP3    H122521   1.833   5.681   0.047
 7519TIP3    H222522   1.752   5.804   0.085
 7520TIP3   OH222523   1.298   1.707   0.888
 7520TIP3    H122524   1.360   1.686   0.957
 7520TIP3    H222525   1.237   1.769   0.928
 7521TIP3   OH222526   4.993   2.008   1.706
 7521TIP3    H122527   4.963   1.955   1.780
 7521TIP3    H222528   5.086   1.985   1.697
 7522TIP3   OH222529   5.321   0.975   3.088
 7522TIP3    H122530   5.317   1.063   3.125
 7522TIP3    H222531   5.321   0.917   3.164
 7523TIP3   OH222532   5.699   2.680   2.288
 7523TIP3    H122533   5.705   2.759   2.235
 7523TIP3    H222534   5.765   2.621   2.250
 7524TIP3   OH222535   0.799   4.666   4.879
 7524TIP3    H122536   0.888   4.681   4.910
 7524TIP3    H222537   0.786   4.571   4.889
 7525TIP3   OH222538   3.678   0.699   5.046
 7525TIP3    H122539   3.637   0.715   5.131
 7525TIP3    H222540   3.771   0.714   5.060
 7526TIP3   OH222541   1.742   2.065   2.473
 7526TIP3    H122542   1.802   2.029   2.538
 7526TIP3    H222543   1.656   2.031   2.497
 7527TIP3   OH222544   4.339   2.894   2.112
 7527TIP3    H122545   4.418   2.859   2.152
 7527TIP3    H222546   4.267   2.854   2.161
 7528TIP3   OH222547   5.360   5.695   2.458
 7528TIP3    H122548   5.396   5.615   2.496
 7528TIP3    H222549   5.416   5.713   2.382
 7529TIP3   OH222550   2.148   3.608   2.284
 7529TIP3    H122551   2.136   3.577   2.194
 7529TIP3    H222552   2.075   3.669   2.298
 7530TIP3   OH222553   6.671   4.964   5.450
 7530TIP3    H122554   6.683   5.057   5.429
 7530TIP3    H222555   6.706   4.955   5.538
 7531TIP3   OH222556   1.185   2.874   0.034
 7531TIP3    H122557   1.212   2.946  -0.022
 7531TIP3    H222558   1.134   2.915   0.104
 7532TIP3   OH222559   5.960   0.146   5.520
 7532TIP3    H122560   6.050   0.122   5.498
 7532TIP3    H222561   5.952   0.126   5.613
 7533TIP3   OH222562   2.246   5.110   3.197
 7533TIP3    H122563   2.305   5.042   3.164
 7533TIP3    H222564   2.176   5.063   3.241
 7534TIP3   OH222565   6.433   6.614   2.763
 7534TIP3    H122566   6.443   6.685   2.827
 7534TIP3    H222567   6.456   6.535   2.810
 7535TIP3   OH222568   2.057   1.190   3.473
 7535TIP3    H122569   2.071   1.258   3.538
 7535TIP3    H222570   2.063   1.235   3.388
 7536TIP3   OH222571   2.526   1.297   4.054
 7536TIP3    H122572   2.489   1.375   4.012
 7536TIP3    H222573   2.601   1.330   4.104
 7537TIP3   OH222574   4.160   0.145   3.686
 7537TIP3    H122575   4.118   0.226   3.657
 7537TIP3    H222576   4.137   0.138   3.779
 7538TIP3   OH222577   1.047   4.131   3.430
 7538TIP3    H122578   1.137   4.115   3.459
 7538TIP3    H222579   1.004   4.046   3.437
 7539TIP3   OH222580   1.138   4.278   0.484
 7539TIP3    H122581   1.232   4.259   0.490
 7539TIP3    H222582   1.115   4.309   0.572
 7540TIP3   OH222583   6.573   2.313   3.591
 7540TIP3    H122584   6.659   2.277   3.613
 7540TIP3    H222585   6.515   2.237   3.594
 7541TIP3   OH222586   6.915   0.774   2.011
 7541TIP3    H122587   6.853   0.785   1.939
 7541TIP3    H222588   6.888   0.838   2.077
 7542TIP3   OH222589   1.753   5.331   4.690
 7542TIP3    H122590   1.715   5.388   4.756
 7542TIP3    H222591   1.806   5.389   4.636
 7543TIP3   OH222592   5.758   1.581   5.766
 7543TIP3    H122593   5.848   1.610   5.755
 7543TIP3    H222594   5.735   1.605   5.856
 7544TIP3   OH222595   5.988   0.554   3.480
 7544TIP3    H122596   6.034   0.473   3.502
 7544TIP3    H222597   6.017   0.617   3.546
 7545TIP3   OH222598   0.922   3.725   1.922
 7545TIP3    H122599   0.855   3.657   1.918
 7545TIP3    H222600   0.873   3.807   1.914
 7546TIP3   OH222601   2.156   5.352   2.771
 7546TIP3    H122602   2.211   5.429   2.787
 7546TIP3    H222603   2.121   5.330   2.858
 7547TIP3   OH222604   1.696   0.110   1.737
 7547TIP3    H122605   1.604   0.109   1.712
 7547TIP3    H222606   1.743   0.134   1.657
 7548TIP3   OH222607   6.324   6.278   5.163
 7548TIP3    H122608   6.240   6.252   5.127
 7548TIP3    H222609   6.355   6.347   5.105
 7549TIP3   OH222610   0.875   2.844   1.132
 7549TIP3    H122611   0.918   2.803   1.207
 7549TIP3    H222612   0.944   2.897   1.091
 7550TIP3   OH222613   4.563   3.267   3.408
 7550TIP3    H122614   4.510   3.345   3.421
 7550TIP3    H222615   4.500   3.197   3.391
 7551TIP3   OH222616   1.120   5.549   5.880
 7551TIP3    H122617   1.133   5.474   5.938
 7551TIP3    H222618   1.039   5.589   5.911
 7552TIP3   OH222619   2.297   1.657   2.474
 7552TIP3    H122620   2.388   1.626   2.480
 7552TIP3    H222621   2.266   1.625   2.390
 7553TIP3   OH222622   2.231   2.688   2.062
 7553TIP3    H122623   2.274   2.611   2.024
 7553TIP3    H222624   2.153   2.653   2.106
 7554TIP3   OH222625   2.989   5.589   4.495
 7554TIP3    H122626   2.972   5.671   4.449
 7554TIP3    H222627   2.915   5.532   4.471
 7555TIP3   OH222628   4.715   0.310   2.673
 7555TIP3    H122629   4.619   0.316   2.672
 7555TIP3    H222630   4.743   0.377   2.735
 7556TIP3   OH222631   0.869   0.068   1.577
 7556TIP3    H122632   0.789   0.094   1.623
 7556TIP3    H222633   0.900  -0.009   1.624
 7557TIP3   OH222634   2.547   0.259   4.112
 7557TIP3    H122635   2.473   0.288   4.058
 7557TIP3    H222636   2.607   0.217   4.050
 7558TIP3   OH222637   0.293   5.668   5.689
 7558TIP3    H122638   0.235   5.704   5.622
 7558TIP3    H222639   0.248   5.685   5.772
 7559TIP3   OH222640   3.929   0.279   5.514
 7559TIP3    H122641   3.917   0.189   5.484
 7559TIP3    H222642   3.878   0.331   5.452
 7560TIP3   OH222643   0.006   3.504   3.044
 7560TIP3    H122644   0.096   3.536   3.038
 7560TIP3    H222645  -0.044   3.579   3.078
 7561TIP3   OH222646   6.260   4.735   0.403
 7561TIP3    H122647   6.191   4.669   0.397
 7561TIP3    H222648   6.237   4.786   0.481
 7562TIP3   OH222649   0.453   0.045   0.321
 7562TIP3    H122650   0.455   0.033   0.226
 7562TIP3    H222651   0.381  -0.011   0.350
 7563TIP3   OH222652   2.087   4.156   4.116
 7563TIP3    H122653   2.000   4.196   4.112
 7563TIP3    H222654   2.122   4.165   4.027
 7564TIP3   OH222655   2.058   2.547   4.981
 7564TIP3    H122656   2.039   2.502   5.063
 7564TIP3    H222657   2.058   2.479   4.915
 7565TIP3   OH222658   3.571   1.162   2.871
 7565TIP3    H122659   3.591   1.154   2.777
 7565TIP3    H222660   3.589   1.075   2.906
 7566TIP3   OH222661   2.801   4.106   3.203
 7566TIP3    H122662   2.724   4.063   3.166
 7566TIP3    H222663   2.769   4.188   3.238
 7567TIP3   OH222664   6.015   2.679   4.793
 7567TIP3    H122665   5.926   2.712   4.805
 7567TIP3    H222666   6.008   2.622   4.716
 7568TIP3   OH222667   3.398   5.741   4.556
 7568TIP3    H122668   3.472   5.797   4.534
 7568TIP3    H222669   3.403   5.731   4.651
 7569TIP3   OH222670   5.225   4.617   3.073
 7569TIP3    H122671   5.237   4.679   3.001
 7569TIP3    H222672   5.192   4.670   3.145
 7570TIP3   OH222673   5.425   0.424   3.531
 7570TIP3    H122674   5.438   0.414   3.437
 7570TIP3    H222675   5.502   0.471   3.561
 7571TIP3   OH222676   0.603   6.688   1.122
 7571TIP3    H122677   0.625   6.596   1.132
 7571TIP3    H222678   0.667   6.720   1.058
 7572TIP3   OH222679   2.400   4.527   0.593
 7572TIP3    H122680   2.346   4.559   0.666
 7572TIP3    H222681   2.401   4.600   0.531
 7573TIP3   OH222682   5.448   3.944   3.275
 7573TIP3    H122683   5.408   3.860   3.252
 7573TIP3    H222684   5.428   4.002   3.201
 7574TIP3   OH222685   4.533   5.038   0.630
 7574TIP3    H122686   4.576   5.059   0.713
 7574TIP3    H222687   4.606   5.021   0.570
 7575TIP3   OH222688   1.108   0.558   4.937
 7575TIP3    H122689   1.046   0.525   5.001
 7575TIP3    H222690   1.193   0.529   4.969
 7576TIP3   OH222691   0.782   2.693   5.102
 7576TIP3    H122692   0.707   2.712   5.159
 7576TIP3    H222693   0.857   2.729   5.150
 7577TIP3   OH222694   6.705   6.010   2.695
 7577TIP3    H122695   6.760   5.984   2.770
 7577TIP3    H222696   6.661   5.929   2.669
 7578TIP3   OH222697   1.813   4.554   3.919
 7578TIP3    H122698   1.748   4.611   3.960
 7578TIP3    H222699   1.893   4.568   3.970
 7579TIP3   OH222700   5.887   4.060   4.926
 7579TIP3    H122701   5.796   4.070   4.899
 7579TIP3    H222702   5.908   4.140   4.974
 7580TIP3   OH222703   6.002   5.027   2.849
 7580TIP3    H122704   5.971   5.023   2.758
 7580TIP3    H222705   6.046   4.943   2.863
 7581TIP3   OH222706   0.464   6.044   2.194
 7581TIP3    H122707   0.506   5.961   2.169
 7581TIP3    H222708   0.379   6.017   2.230
 7582TIP3   OH222709   2.769   2.161   5.741
 7582TIP3    H122710   2.706   2.095   5.771
 7582TIP3    H222711   2.719   2.217   5.682
 7583TIP3   OH222712   1.327   1.758   5.274
 7583TIP3    H122713   1.265   1.818   5.233
 7583TIP3    H222714   1.405   1.811   5.291
 7584TIP3   OH222715   0.829   1.072   0.355
 7584TIP3    H122716   0.748   1.119   0.331
 7584TIP3    H222717   0.877   1.134   0.409
 7585TIP3   OH222718   5.173   1.232   4.118
 7585TIP3    H122719   5.199   1.140   4.113
 7585TIP3    H222720   5.199   1.261   4.205
 7586TIP3   OH222721   4.470   2.157   3.303
 7586TIP3    H122722   4.442   2.173   3.392
 7586TIP3    H222723   4.397   2.186   3.248
 7587TIP3   OH222724   4.438   6.062   1.916
 7587TIP3    H122725   4.434   6.106   2.002
 7587TIP3    H222726   4.444   5.969   1.937
 7588TIP3   OH222727   3.932   2.716   3.747
 7588TIP3    H122728   3.888   2.800   3.753
 7588TIP3    H222729   3.950   2.705   3.654
 7589TIP3   OH222730   1.599   4.947   1.024
 7589TIP3    H122731   1.623   4.926   0.934
 7589TIP3    H222732   1.549   5.028   1.017
 7590TIP3   OH222733   6.788   5.001   4.575
 7590TIP3    H122734   6.849   4.995   4.502
 7590TIP3    H222735   6.751   5.090   4.568
 7591TIP3   OH222736   2.924   2.405   5.395
 7591TIP3    H122737   2.869   2.327   5.393
 7591TIP3    H222738   3.014   2.372   5.390
 7592TIP3   OH222739   1.813   5.040   5.709
 7592TIP3    H122740   1.764   4.996   5.639
 7592TIP3    H222741   1.872   4.973   5.743
 7593TIP3   OH222742   5.650   3.640   0.109
 7593TIP3    H122743   5.721   3.603   0.056
 7593TIP3    H222744   5.691   3.712   0.156
 7594TIP3   OH222745   0.366   1.016   1.525
 7594TIP3    H122746   0.455   1.041   1.550
 7594TIP3    H222747   0.369   0.921   1.517
 7595TIP3   OH222748   6.834   4.863   1.279
 7595TIP3    H122749   6.760   4.877   1.339
 7595TIP3    H222750   6.812   4.783   1.232
 7596TIP3   OH222751   5.571   5.762   2.250
 7596TIP3    H122752   5.527   5.839   2.214
 7596TIP3    H222753   5.626   5.796   2.321
 7597TIP3   OH222754   1.553   0.269   2.740
 7597TIP3    H122755   1.606   0.316   2.804
 7597TIP3    H222756   1.535   0.333   2.671
 7598TIP3   OH222757   5.616   0.527   2.344
 7598TIP3    H122758   5.699   0.481   2.349
 7598TIP3    H222759   5.559   0.469   2.294
 7599TIP3   OH222760   2.602   4.836   5.174
 7599TIP3    H122761   2.513   4.847   5.140
 7599TIP3    H222762   2.613   4.908   5.236
 7600TIP3   OH222763   7.194   5.568   4.222
 7600TIP3    H122764   7.204   5.609   4.136
 7600TIP3    H222765   7.248   5.489   4.217
 7601TIP3   OH222766   1.509   6.021   0.053
 7601TIP3    H122767   1.420   6.056   0.059
 7601TIP3    H222768   1.503   5.949  -0.010
 7602TIP3   OH222769   5.152   3.640   2.542
 7602TIP3    H122770   5.144   3.696   2.620
 7602TIP3    H222771   5.130   3.552   2.574
 7603TIP3   OH222772   0.267   2.963   4.035
 7603TIP3    H122773   0.199   3.028   4.017
 7603TIP3    H222774   0.221   2.893   4.081
 7604TIP3   OH222775   1.190   1.588   1.788
 7604TIP3    H122776   1.184   1.637   1.870
 7604TIP3    H222777   1.283   1.594   1.763
 7605TIP3   OH222778   3.754   1.107   4.129
 7605TIP3    H122779   3.744   1.185   4.182
 7605TIP3    H222780   3.677   1.054   4.150
 7606TIP3   OH222781   3.229   2.503   0.648
 7606TIP3    H122782   3.163   2.560   0.609
 7606TIP3    H222783   3.253   2.443   0.577
 7607TIP3   OH222784   6.188   3.170   3.622
 7607TIP3    H122785   6.268   3.206   3.583
 7607TIP3    H222786   6.193   3.194   3.714
 7608TIP3   OH222787   4.793   0.378   0.990
 7608TIP3    H122788   4.774   0.451   0.931
 7608TIP3    H222789   4.741   0.305   0.955
 7609TIP3   OH222790   1.229   1.325   1.692
 7609TIP3    H122791   1.263   1.348   1.605
 7609TIP3    H222792   1.203   1.409   1.730
 7610TIP3   OH222793   5.874   5.892   0.327
 7610TIP3    H122794   5.841   5.979   0.304
 7610TIP3    H222795   5.962   5.908   0.362
 7611TIP3   OH222796   0.359   0.955   2.560
 7611TIP3    H122797   0.343   1.040   2.519
 7611TIP3    H222798   0.362   0.893   2.487
 7612TIP3   OH222799   3.469   6.354   5.084
 7612TIP3    H122800   3.382   6.322   5.109
 7612TIP3    H222801   3.455   6.401   5.002
 7613TIP3   OH222802   2.788   6.395   0.062
 7613TIP3    H122803   2.851   6.334   0.024
 7613TIP3    H222804   2.733   6.422  -0.012
 7614TIP3   OH222805   6.259   4.421   1.755
 7614TIP3    H122806   6.253   4.516   1.766
 7614TIP3    H222807   6.178   4.397   1.710
 7615TIP3   OH222808   4.914   5.721   5.473
 7615TIP3    H122809   4.862   5.647   5.442
 7615TIP3    H222810   4.948   5.762   5.394
 7616TIP3   OH222811   3.396   4.324   1.329
 7616TIP3    H122812   3.448   4.402   1.345
 7616TIP3    H222813   3.340   4.347   1.254
 7617TIP3   OH222814   0.237   4.541   1.662
 7617TIP3    H122815   0.296   4.551   1.738
 7617TIP3    H222816   0.153   4.573   1.694
 7618TIP3   OH222817   5.590   0.656   1.096
 7618TIP3    H122818   5.665   0.706   1.064
 7618TIP3    H222819   5.611   0.636   1.187
 7619TIP3   OH222820   4.211   4.544   0.927
 7619TIP3    H122821   4.293   4.570   0.970
 7619TIP3    H222822   4.163   4.496   0.994
 7620TIP3   OH222823   0.469   6.424   0.308
 7620TIP3    H122824   0.483   6.518   0.316
 7620TIP3    H222825   0.545   6.384   0.351
 7621TIP3   OH222826   5.023   1.245   0.060
 7621TIP3    H122827   5.044   1.332   0.026
 7621TIP3    H222828   5.106   1.198   0.057
 7622TIP3   OH222829   0.643   3.548   5.765
 7622TIP3    H122830   0.575   3.612   5.788
 7622TIP3    H222831   0.612   3.465   5.802
 7623TIP3   OH222832   3.346   3.821   4.564
 7623TIP3    H122833   3.375   3.832   4.474
 7623TIP3    H222834   3.296   3.900   4.583
 7624TIP3   OH222835   1.587   1.109   2.987
 7624TIP3    H122836   1.651   1.094   2.917
 7624TIP3    H222837   1.615   1.051   3.057
 7625TIP3   OH222838   2.176   0.710   1.845
 7625TIP3    H122839   2.120   0.725   1.922
 7625TIP3    H222840   2.201   0.798   1.816
 7626TIP3   OH222841   4.552   1.856   2.988
 7626TIP3    H122842   4.534   1.762   2.984
 7626TIP3    H222843   4.465   1.897   2.986
 7627TIP3   OH222844   0.276   3.591   5.675
 7627TIP3    H122845   0.306   3.628   5.758
 7627TIP3    H222846   0.184   3.617   5.670
 7628TIP3   OH222847   3.605   5.573   3.418
 7628TIP3    H122848   3.677   5.513   3.399
 7628TIP3    H222849   3.534   5.545   3.359
 7629TIP3   OH222850   4.249   4.361   3.836
 7629TIP3    H122851   4.156   4.360   3.815
 7629TIP3    H222852   4.292   4.326   3.758
 7630TIP3   OH222853   2.149   1.374   3.643
 7630TIP3    H122854   2.237   1.349   3.617
 7630TIP3    H222855   2.154   1.467   3.662
 7631TIP3   OH222856   3.998   0.072   1.997
 7631TIP3    H122857   4.000  -0.023   1.988
 7631TIP3    H222858   4.027   0.105   1.912
 7632TIP3   OH222859   3.692   1.609   2.714
 7632TIP3    H122860   3.607   1.582   2.679
 7632TIP3    H222861   3.673   1.691   2.761
 7633TIP3   OH222862   5.055   4.474   1.053
 7633TIP3    H122863   5.085   4.526   1.128
 7633TIP3    H222864   4.968   4.444   1.078
 7634TIP3   OH222865   6.441   5.946   4.967
 7634TIP3    H122866   6.492   5.867   4.949
 7634TIP3    H222867   6.355   5.929   4.930
 7635TIP3   OH222868   0.092   6.789   1.838
 7635TIP3    H122869   0.131   6.840   1.909
 7635TIP3    H222870   0.055   6.854   1.779
 7636TIP3   OH222871   7.092   1.760   4.654
 7636TIP3    H122872   7.170   1.714   4.625
 7636TIP3    H222873   7.057   1.706   4.725
 7637TIP3   OH222874   4.591   4.703   0.026
 7637TIP3    H122875   4.519   4.766   0.026
 7637TIP3    H222876   4.560   4.632   0.084
 7638TIP3   OH222877   4.626   0.451   5.629
 7638TIP3    H122878   4.595   0.363   5.607
 7638TIP3    H222879   4.546   0.502   5.642
 7639TIP3   OH222880   4.056   1.354   0.465
 7639TIP3    H122881   4.036   1.384   0.553
 7639TIP3    H222882   4.047   1.432   0.410
 7640TIP3   OH222883   0.362   6.009   5.602
 7640TIP3    H122884   0.316   5.929   5.577
 7640TIP3    H222885   0.353   6.013   5.697
 7641TIP3   OH222886   5.338   4.757   4.901
 7641TIP3    H122887   5.359   4.745   4.808
 7641TIP3    H222888   5.410   4.808   4.936
 7642TIP3   OH222889   2.045   2.608   4.253
 7642TIP3    H122890   2.038   2.695   4.212
 7642TIP3    H222891   2.131   2.576   4.227
 7643TIP3   OH222892   0.933   4.566   2.114
 7643TIP3    H122893   0.880   4.487   2.102
 7643TIP3    H222894   0.983   4.549   2.193
 7644TIP3   OH222895   2.384   4.922   2.438
 7644TIP3    H122896   2.366   4.835   2.403
 7644TIP3    H222897   2.330   4.926   2.518
 7645TIP3   OH222898   1.945   3.045   3.456
 7645TIP3    H122899   1.875   2.984   3.433
 7645TIP3    H222900   1.923   3.126   3.410
 7646TIP3   OH222901   1.440   5.820   0.314
 7646TIP3    H122902   1.419   5.912   0.299
 7646TIP3    H222903   1.449   5.813   0.409
 7647TIP3   OH222904   3.328   4.233   2.564
 7647TIP3    H122905   3.408   4.193   2.529
 7647TIP3    H222906   3.257   4.177   2.533
 7648TIP3   OH222907   6.265   6.168   2.916
 7648TIP3    H122908   6.303   6.239   2.864
 7648TIP3    H222909   6.336   6.141   2.975
 7649TIP3   OH222910   2.271   6.355   3.308
 7649TIP3    H122911   2.217   6.433   3.296
 7649TIP3    H222912   2.360   6.388   3.319
 7650TIP3   OH222913   5.873   6.200   1.230
 7650TIP3    H122914   5.861   6.290   1.261
 7650TIP3    H222915   5.948   6.205   1.171
 7651TIP3   OH222916   1.215   2.534   0.229
 7651TIP3    H122917   1.186   2.514   0.318
 7651TIP3    H222918   1.166   2.475   0.173
 7652TIP3   OH222919   4.659   3.837   2.759
 7652TIP3    H122920   4.739   3.867   2.715
 7652TIP3    H222921   4.685   3.757   2.804
 7653TIP3   OH222922   6.504   3.564   5.834
 7653TIP3    H122923   6.495   3.482   5.785
 7653TIP3    H222924   6.513   3.537   5.925
 7654TIP3   OH222925   0.156   2.510   4.216
 7654TIP3    H122926   0.218   2.528   4.286
 7654TIP3    H222927   0.131   2.418   4.230
 7655TIP3   OH222928   2.795   0.794   3.817
 7655TIP3    H122929   2.776   0.887   3.810
 7655TIP3    H222930   2.798   0.763   3.727
 7656TIP3   OH222931   1.339   0.967   2.369
 7656TIP3    H122932   1.275   0.944   2.437
 7656TIP3    H222933   1.342   1.063   2.371
 7657TIP3   OH222934   1.925   5.324   4.355
 7657TIP3    H122935   1.925   5.385   4.428
 7657TIP3    H222936   1.933   5.379   4.277
 7658TIP3   OH222937   5.814   2.142   5.029
 7658TIP3    H122938   5.844   2.209   4.969
 7658TIP3    H222939   5.864   2.157   5.109
 7659TIP3   OH222940   3.300   0.812   2.245
 7659TIP3    H122941   3.312   0.791   2.152
 7659TIP3    H222942   3.246   0.740   2.278
 7660TIP3   OH222943   4.597   0.997   3.087
 7660TIP3    H122944   4.691   1.011   3.083
 7660TIP3    H222945   4.584   0.944   3.166
 7661TIP3   OH222946   5.092   6.586   3.039
 7661TIP3    H122947   5.111   6.663   2.985
 7661TIP3    H222948   5.000   6.597   3.064
 7662TIP3   OH222949   5.456   6.692   2.422
 7662TIP3    H122950   5.544   6.729   2.416
 7662TIP3    H222951   5.430   6.709   2.513
 7663TIP3   OH222952   2.122   3.501   0.199
 7663TIP3    H122953   2.144   3.594   0.196
 7663TIP3    H222954   2.148   3.473   0.287
 7664TIP3   OH222955   6.653   4.568   1.487
 7664TIP3    H122956   6.652   4.494   1.426
 7664TIP3    H222957   6.732   4.555   1.539
 7665TIP3   OH222958   2.489   5.194   1.754
 7665TIP3    H122959   2.428   5.240   1.813
 7665TIP3    H222960   2.564   5.172   1.810
 7666TIP3   OH222961   6.076   5.532   3.042
 7666TIP3    H122962   5.988   5.543   3.008
 7666TIP3    H222963   6.073   5.449   3.090
 7667TIP3   OH222964   3.004   3.320   3.753
 7667TIP3    H122965   2.986   3.387   3.687
 7667TIP3    H222966   2.952   3.244   3.724
 7668TIP3   OH222967   6.570   3.791   4.591
 7668TIP3    H122968   6.662   3.778   4.566
 7668TIP3    H222969   6.569   3.877   4.633
 7669TIP3   OH222970   6.707   0.696   5.510
 7669TIP3    H122971   6.751   0.737   5.436
 7669TIP3    H222972   6.738   0.606   5.510
 7670TIP3   OH222973   3.335   6.546   3.482
 7670TIP3    H122974   3.304   6.470   3.530
 7670TIP3    H222975   3.275   6.553   3.407
 7671TIP3   OH222976   7.056   6.678   5.594
 7671TIP3    H122977   6.984   6.736   5.571
 7671TIP3    H222978   7.135   6.731   5.582
 7672TIP3   OH222979   5.505   2.800   1.876
 7672TIP3    H122980   5.426   2.785   1.823
 7672TIP3    H222981   5.521   2.717   1.920
 7673TIP3   OH222982   3.439   4.332   2.892
 7673TIP3    H122983   3.345   4.334   2.874
 7673TIP3    H222984   3.446   4.300   2.982
 7674TIP3   OH222985   3.699   3.100   3.980
 7674TIP3    H122986   3.643   3.149   3.919
 7674TIP3    H222987   3.767   3.063   3.924
 7675TIP3   OH222988   4.427   1.914   2.568
 7675TIP3    H122989   4.379   1.834   2.588
 7675TIP3    H222990   4.421   1.966   2.648
 7676TIP3   OH222991   0.819   2.614   2.148
 7676TIP3    H122992   0.833   2.690   2.092
 7676TIP3    H222993   0.906   2.593   2.183
 7677TIP3   OH222994   3.105   2.443   3.769
 7677TIP3    H122995   3.176   2.471   3.828
 7677TIP3    H222996   3.138   2.460   3.681
 7678TIP3   OH222997   4.902   3.617   1.837
 7678TIP3    H122998   4.996   3.605   1.851
 7678TIP3    H222999   4.894   3.636   1.743
 7679TIP3   OH223000   0.311   1.322   0.744
 7679TIP3    H123001   0.301   1.382   0.817
 7679TIP3    H223002   0.293   1.236   0.781
 7680TIP3   OH223003   5.448   6.011   2.443
 7680TIP3    H123004   5.386   6.071   2.402
 7680TIP3    H223005   5.422   5.924   2.411
 7681TIP3   OH223006   0.786   1.145   0.674
 7681TIP3    H123007   0.776   1.118   0.765
 7681TIP3    H223008   0.710   1.200   0.656
 7682TIP3   OH223009   0.919   2.419   0.267
 7682TIP3    H123010   0.965   2.471   0.334
 7682TIP3    H223011   0.827   2.438   0.281
 7683TIP3   OH223012   6.353   4.232   3.686
 7683TIP3    H123013   6.340   4.270   3.773
 7683TIP3    H223014   6.423   4.285   3.647
 7684TIP3   OH223015   6.988   2.476   1.735
 7684TIP3    H123016   6.975   2.386   1.763
 7684TIP3    H223017   7.060   2.472   1.673
 7685TIP3   OH223018   0.726   3.928   0.751
 7685TIP3    H123019   0.780   3.886   0.818
 7685TIP3    H223020   0.676   3.856   0.712
 7686TIP3   OH223021   2.029   4.739   1.963
 7686TIP3    H123022   1.984   4.810   1.916
 7686TIP3    H223023   2.043   4.774   2.051
 7687TIP3   OH223024   3.769   3.205   5.819
 7687TIP3    H123025   3.841   3.159   5.776
 7687TIP3    H223026   3.701   3.139   5.831
 7688TIP3   OH223027   3.766   6.601   4.376
 7688TIP3    H123028   3.828   6.528   4.370
 7688TIP3    H223029   3.691   6.573   4.323
 7689TIP3   OH223030   0.640   4.071   1.545
 7689TIP3    H123031   0.580   4.130   1.500
 7689TIP3    H223032   0.611   3.983   1.519
 7690TIP3   OH223033   5.374   1.326   1.886
 7690TIP3    H123034   5.401   1.275   1.809
 7690TIP3    H223035   5.290   1.289   1.911
 7691TIP3   OH223036   0.780   3.507   0.920
 7691TIP3    H123037   0.805   3.461   1.000
 7691TIP3    H223038   0.830   3.463   0.851
 7692TIP3   OH223039   2.303   2.299   4.083
 7692TIP3    H123040   2.289   2.288   3.989
 7692TIP3    H223041   2.328   2.211   4.114
 7693TIP3   OH223042   7.122   5.354   1.694
 7693TIP3    H123043   7.099   5.446   1.682
 7693TIP3    H223044   7.158   5.348   1.783
 7694TIP3   OH223045   3.510   5.491   0.722
 7694TIP3    H123046   3.498   5.586   0.731
 7694TIP3    H223047   3.527   5.477   0.629
 7695TIP3   OH223048   0.460   1.078   5.274
 7695TIP3    H123049   0.512   1.053   5.350
 7695TIP3    H223050   0.382   1.024   5.279
 7696TIP3   OH223051   3.533   1.355   5.221
 7696TIP3    H123052   3.561   1.282   5.165
 7696TIP3    H223053   3.457   1.391   5.176
 7697TIP3   OH223054   4.607   3.773   3.983
 7697TIP3    H123055   4.690   3.761   4.030
 7697TIP3    H223056   4.541   3.782   4.052
 7698TIP3   OH223057   1.614   5.592   5.782
 7698TIP3    H123058   1.634   5.503   5.756
 7698TIP3    H223059   1.560   5.627   5.711
 7699TIP3   OH223060   3.186   6.038   3.622
 7699TIP3    H123061   3.161   5.946   3.614
 7699TIP3    H223062   3.181   6.056   3.716
 7700TIP3   OH223063   1.060   5.253   4.021
 7700TIP3    H123064   1.111   5.208   3.953
 7700TIP3    H223065   1.107   5.335   4.035
 7701TIP3   OH223066   2.639   2.445   5.822
 7701TIP3    H123067   2.623   2.379   5.755
 7701TIP3    H223068   2.660   2.395   5.901
 7702TIP3   OH223069   6.257   4.154   5.640
 7702TIP3    H123070   6.197   4.110   5.701
 7702TIP3    H223071   6.210   4.156   5.557
 7703TIP3   OH223072   1.763   4.525   1.515
 7703TIP3    H123073   1.680   4.570   1.528
 7703TIP3    H223074   1.819   4.591   1.473
 7704TIP3   OH223075   6.441   3.153   2.186
 7704TIP3    H123076   6.534   3.163   2.208
 7704TIP3    H223077   6.412   3.242   2.165
 7705TIP3   OH223078   1.179   3.042   5.412
 7705TIP3    H123079   1.087   3.062   5.425
 7705TIP3    H223080   1.202   3.084   5.330
 7706TIP3   OH223081   3.400   0.635   4.020
 7706TIP3    H123082   3.341   0.604   4.088
 7706TIP3    H223083   3.350   0.627   3.939
 7707TIP3   OH223084   3.687   1.685   5.456
 7707TIP3    H123085   3.777   1.677   5.487
 7707TIP3    H223086   3.647   1.600   5.477
 7708TIP3   OH223087   4.164   1.431   3.794
 7708TIP3    H123088   4.077   1.466   3.809
 7708TIP3    H223089   4.195   1.476   3.715
 7709TIP3   OH223090   1.821   6.742   4.638
 7709TIP3    H123091   1.864   6.826   4.649
 7709TIP3    H223092   1.765   6.753   4.562
 7710TIP3   OH223093   7.047   5.774   2.714
 7710TIP3    H123094   7.125   5.739   2.757
 7710TIP3    H223095   7.017   5.702   2.658
 7711TIP3   OH223096   6.822   1.987   0.836
 7711TIP3    H123097   6.854   1.992   0.926
 7711TIP3    H223098   6.746   2.044   0.833
 7712TIP3   OH223099   5.111   5.325   0.015
 7712TIP3    H123100   5.080   5.237   0.037
 7712TIP3    H223101   5.042   5.383   0.046
 7713TIP3   OH223102   5.019   1.589   1.811
 7713TIP3    H123103   5.094   1.545   1.851
 7713TIP3    H223104   4.970   1.519   1.769
 7714TIP3   OH223105   1.970   1.971   5.646
 7714TIP3    H123106   1.892   1.938   5.691
 7714TIP3    H223107   2.020   1.892   5.626
 7715TIP3   OH223108   6.248   0.568   5.177
 7715TIP3    H123109   6.156   0.541   5.178
 7715TIP3    H223110   6.269   0.589   5.268
 7716TIP3   OH223111   6.914   4.674   5.825
 7716TIP3    H123112   7.004   4.648   5.805
 7716TIP3    H223113   6.903   4.759   5.782
 7717TIP3   OH223114   2.075   0.198   3.534
 7717TIP3    H123115   2.081   0.159   3.621
 7717TIP3    H223116   2.000   0.257   3.540
 7718TIP3   OH223117   5.397   4.146   0.533
 7718TIP3    H123118   5.322   4.088   0.548
 7718TIP3    H223119   5.361   4.234   0.541
 7719TIP3   OH223120   1.624   6.302   0.054
 7719TIP3    H123121   1.681   6.230   0.082
 7719TIP3    H223122   1.539   6.282   0.094
 7720TIP3   OH223123   5.509   3.669   4.272
 7720TIP3    H123124   5.520   3.741   4.335
 7720TIP3    H223125   5.468   3.599   4.323
 7721TIP3   OH223126   2.641   2.315   5.170
 7721TIP3    H123127   2.634   2.241   5.230
 7721TIP3    H223128   2.572   2.375   5.197
 7722TIP3   OH223129   3.791   2.304   1.950
 7722TIP3    H123130   3.709   2.333   1.910
 7722TIP3    H223131   3.765   2.268   2.035
 7723TIP3   OH223132   0.107   1.972   0.064
 7723TIP3    H123133   0.193   2.000   0.034
 7723TIP3    H223134   0.053   2.051   0.059
 7724TIP3   OH223135   1.533   2.793   2.392
 7724TIP3    H123136   1.449   2.796   2.437
 7724TIP3    H223137   1.594   2.837   2.451
 7725TIP3   OH223138   6.976   1.666   2.200
 7725TIP3    H123139   7.019   1.656   2.114
 7725TIP3    H223140   7.035   1.622   2.261
 7726TIP3   OH223141   4.554   1.303   2.261
 7726TIP3    H123142   4.566   1.223   2.312
 7726TIP3    H223143   4.639   1.348   2.268
 7727TIP3   OH223144   0.720   0.706   3.921
 7727TIP3    H123145   0.741   0.612   3.917
 7727TIP3    H223146   0.796   0.749   3.882
 7728TIP3   OH223147   4.481   0.202   1.133
 7728TIP3    H123148   4.501   0.254   1.210
 7728TIP3    H223149   4.387   0.184   1.140
 7729TIP3   OH223150   0.888   0.353   0.399
 7729TIP3    H123151   0.795   0.360   0.417
 7729TIP3    H223152   0.894   0.343   0.304
 7730TIP3   OH223153   3.446   5.051   5.690
 7730TIP3    H123154   3.361   5.065   5.649
 7730TIP3    H223155   3.429   5.061   5.784
 7731TIP3   OH223156   4.909   6.277   1.328
 7731TIP3    H123157   4.930   6.203   1.271
 7731TIP3    H223158   4.956   6.260   1.409
 7732TIP3   OH223159   0.156   3.492   4.860
 7732TIP3    H123160   0.110   3.433   4.920
 7732TIP3    H223161   0.209   3.434   4.805
 7733TIP3   OH223162   4.628   0.246   0.625
 7733TIP3    H123163   4.663   0.158   0.608
 7733TIP3    H223164   4.701   0.305   0.610
 7734TIP3   OH223165   4.454   3.071   1.768
 7734TIP3    H123166   4.514   3.033   1.832
 7734TIP3    H223167   4.467   3.165   1.775
 7735TIP3   OH223168   0.321   5.342   1.586
 7735TIP3    H123169   0.247   5.369   1.531
 7735TIP3    H223170   0.398   5.371   1.537
 7736TIP3   OH223171   0.453   5.677   4.747
 7736TIP3    H123172   0.477   5.740   4.815
 7736TIP3    H223173   0.363   5.700   4.724
 7737TIP3   OH223174   1.441   0.899   1.074
 7737TIP3    H123175   1.490   0.958   1.131
 7737TIP3    H223176   1.351   0.904   1.106
 7738TIP3   OH223177   7.146   2.369   2.312
 7738TIP3    H123178   7.229   2.415   2.304
 7738TIP3    H223179   7.166   2.291   2.364
 7739TIP3   OH223180   6.892   2.968   3.996
 7739TIP3    H123181   6.932   2.990   4.080
 7739TIP3    H223182   6.920   2.877   3.980
 7740TIP3   OH223183   1.969   4.997   3.183
 7740TIP3    H123184   1.975   4.905   3.160
 7740TIP3    H223185   2.013   5.004   3.268
 7741TIP3   OH223186   3.075   5.658   2.094
 7741TIP3    H123187   3.039   5.607   2.022
 7741TIP3    H223188   3.118   5.732   2.052
 7742TIP3   OH223189   5.660   1.370   1.839
 7742TIP3    H123190   5.591   1.337   1.897
 7742TIP3    H223191   5.658   1.465   1.849
 7743TIP3   OH223192   6.925   5.776   0.313
 7743TIP3    H123193   6.963   5.805   0.230
 7743TIP3    H223194   6.861   5.843   0.335
 7744TIP3   OH223195   5.816   6.423   2.496
 7744TIP3    H123196   5.735   6.372   2.492
 7744TIP3    H223197   5.833   6.447   2.405
 7745TIP3   OH223198   4.430   1.105   3.353
 7745TIP3    H123199   4.477   1.025   3.332
 7745TIP3    H223200   4.416   1.100   3.448
 7746TIP3   OH223201   4.840   3.902   4.400
 7746TIP3    H123202   4.750   3.915   4.369
 7746TIP3    H223203   4.857   3.979   4.456
 7747TIP3   OH223204   6.182   0.946   3.097
 7747TIP3    H123205   6.219   0.990   3.174
 7747TIP3    H223206   6.196   0.853   3.114
 7748TIP3   OH223207   1.990   5.159   2.294
 7748TIP3    H123208   1.933   5.207   2.354
 7748TIP3    H223209   2.027   5.227   2.237
 7749TIP3   OH223210   3.340   5.808   1.587
 7749TIP3    H123211   3.351   5.754   1.508
 7749TIP3    H223212   3.425   5.849   1.599
 7750TIP3   OH223213   4.350   3.530   1.577
 7750TIP3    H123214   4.263   3.497   1.556
 7750TIP3    H223215   4.347   3.623   1.554
 7751TIP3   OH223216   2.391   3.132   0.084
 7751TIP3    H123217   2.378   3.078   0.162
 7751TIP3    H223218   2.304   3.167   0.064
 7752TIP3   OH223219   5.384   3.205   2.808
 7752TIP3    H123220   5.467   3.243   2.836
 7752TIP3    H223221   5.381   3.119   2.851
 7753TIP3   OH223222   6.102   2.246   4.454
 7753TIP3    H123223   6.151   2.181   4.504
 7753TIP3    H223224   6.142   2.243   4.367
 7754TIP3   OH223225   4.137   3.564   2.361
 7754TIP3    H123226   4.085   3.598   2.288
 7754TIP3    H223227   4.227   3.565   2.328
 7755TIP3   OH223228   3.324   5.805   0.194
 7755TIP3    H123229   3.259   5.765   0.136
 7755TIP3    H223230   3.271   5.853   0.259
 7756TIP3   OH223231   3.524   6.335   2.212
 7756TIP3    H123232   3.570   6.419   2.218
 7756TIP3    H223233   3.488   6.322   2.299
 7757TIP3   OH223234   4.151   5.282   0.481
 7757TIP3    H123235   4.244   5.282   0.459
 7757TIP3    H223236   4.147   5.249   0.570
 7758TIP3   OH223237   4.944   6.053   3.896
 7758TIP3    H123238   4.978   6.085   3.813
 7758TIP3    H223239   5.018   6.061   3.957
 7759TIP3   OH223240   1.014   0.056   5.168
 7759TIP3    H123241   0.947   0.121   5.148
 7759TIP3    H223242   1.032   0.067   5.261
 7760TIP3   OH223243   0.969   3.461   4.803
 7760TIP3    H123244   0.878   3.478   4.829
 7760TIP3    H223245   0.992   3.535   4.747
 7761TIP3   OH223246   2.276   0.445   4.091
 7761TIP3    H123247   2.213   0.508   4.124
 7761TIP3    H223248   2.228   0.362   4.089
 7762TIP3   OH223249   4.588   0.900   4.754
 7762TIP3    H123250   4.640   0.980   4.760
 7762TIP3    H223251   4.545   0.906   4.669
 7763TIP3   OH223252   3.483   5.462   3.184
 7763TIP3    H123253   3.462   5.521   3.112
 7763TIP3    H223254   3.402   5.413   3.199
 7764TIP3   OH223255   0.180   3.084   5.757
 7764TIP3    H123256   0.202   3.133   5.677
 7764TIP3    H223257   0.085   3.083   5.759
 7765TIP3   OH223258   1.091   2.485   0.504
 7765TIP3    H123259   1.047   2.555   0.553
 7765TIP3    H223260   1.177   2.477   0.546
 7766TIP3   OH223261   4.369   5.886   5.325
 7766TIP3    H123262   4.416   5.965   5.301
 7766TIP3    H223263   4.353   5.896   5.419
 7767TIP3   OH223264   3.791   2.977   2.162
 7767TIP3    H123265   3.873   2.978   2.211
 7767TIP3    H223266   3.808   2.918   2.088
 7768TIP3   OH223267   6.873   3.764   2.353
 7768TIP3    H123268   6.866   3.674   2.321
 7768TIP3    H223269   6.966   3.784   2.347
 7769TIP3   OH223270   4.800   6.215   0.222
 7769TIP3    H123271   4.799   6.297   0.270
 7769TIP3    H223272   4.709   6.200   0.197
 7770TIP3   OH223273   0.046   1.377   4.642
 7770TIP3    H123274   0.093   1.331   4.711
 7770TIP3    H223275  -0.045   1.350   4.653
 7771TIP3   OH223276   1.641   4.508   2.724
 7771TIP3    H123277   1.554   4.470   2.712
 7771TIP3    H223278   1.644   4.581   2.662
 7772TIP3   OH223279   5.307   4.203   4.041
 7772TIP3    H123280   5.317   4.229   4.133
 7772TIP3    H223281   5.230   4.251   4.011
 7773TIP3   OH223282   1.207   5.487   1.461
 7773TIP3    H123283   1.193   5.557   1.525
 7773TIP3    H223284   1.218   5.408   1.514
 7774TIP3   OH223285   4.958   4.892   3.037
 7774TIP3    H123286   5.007   4.888   3.119
 7774TIP3    H223287   4.944   4.801   3.012
 7775TIP3   OH223288   4.644   1.790   3.950
 7775TIP3    H123289   4.734   1.771   3.976
 7775TIP3    H223290   4.625   1.726   3.882
 7776TIP3   OH223291   2.069   1.237   4.052
 7776TIP3    H123292   2.081   1.280   4.137
 7776TIP3    H223293   2.147   1.181   4.043
 7777TIP3   OH223294   3.625   0.038   4.363
 7777TIP3    H123295   3.579   0.108   4.408
 7777TIP3    H223296   3.615   0.059   4.270
 7778TIP3   OH223297   1.766   5.113   4.853
 7778TIP3    H123298   1.793   5.170   4.925
 7778TIP3    H223299   1.767   5.169   4.776
 7779TIP3   OH223300   4.125   0.238   3.055
 7779TIP3    H123301   4.196   0.274   3.108
 7779TIP3    H223302   4.166   0.217   2.971
 7780TIP3   OH223303   2.139   1.666   0.986
 7780TIP3    H123304   2.064   1.624   1.028
 7780TIP3    H223305   2.114   1.758   0.978
 7781TIP3   OH223306   2.278   0.389   3.668
 7781TIP3    H123307   2.236   0.310   3.633
 7781TIP3    H223308   2.365   0.389   3.627
 7782TIP3   OH223309   6.622   4.447   3.156
 7782TIP3    H123310   6.634   4.538   3.182
 7782TIP3    H223311   6.675   4.398   3.219
 7783TIP3   OH223312   1.275   1.272   4.847
 7783TIP3    H123313   1.276   1.335   4.774
 7783TIP3    H223314   1.229   1.196   4.812
 7784TIP3   OH223315   0.624   2.412   0.254
 7784TIP3    H123316   0.593   2.502   0.263
 7784TIP3    H223317   0.545   2.359   0.251
 7785TIP3   OH223318   6.649   1.869   3.964
 7785TIP3    H123319   6.603   1.950   3.987
 7785TIP3    H223320   6.636   1.812   4.040
 7786TIP3   OH223321   3.515   3.412   4.799
 7786TIP3    H123322   3.428   3.382   4.774
 7786TIP3    H223323   3.530   3.489   4.743
 7787TIP3   OH223324   0.285   3.570   1.991
 7787TIP3    H123325   0.222   3.631   2.029
 7787TIP3    H223326   0.315   3.516   2.065
 7788TIP3   OH223327   6.731   4.715   4.228
 7788TIP3    H123328   6.817   4.676   4.240
 7788TIP3    H223329   6.676   4.642   4.199
 7789TIP3   OH223330   1.143   5.699   3.900
 7789TIP3    H123331   1.214   5.669   3.956
 7789TIP3    H223332   1.067   5.649   3.930
 7790TIP3   OH223333   5.786   3.094   2.113
 7790TIP3    H123334   5.839   3.134   2.181
 7790TIP3    H223335   5.711   3.056   2.160
 7791TIP3   OH223336   7.138   0.152   4.346
 7791TIP3    H123337   7.196   0.090   4.302
 7791TIP3    H223338   7.183   0.236   4.337
 7792TIP3   OH223339   5.938   4.273   0.262
 7792TIP3    H123340   6.019   4.244   0.219
 7792TIP3    H223341   5.946   4.369   0.263
 7793TIP3   OH223342   5.870   1.823   2.659
 7793TIP3    H123343   5.810   1.895   2.679
 7793TIP3    H223344   5.932   1.823   2.731
 7794TIP3   OH223345   2.657   6.378   5.119
 7794TIP3    H123346   2.614   6.462   5.138
 7794TIP3    H223347   2.620   6.351   5.035
 7795TIP3   OH223348   5.747   5.148   0.503
 7795TIP3    H123349   5.766   5.223   0.446
 7795TIP3    H223350   5.651   5.140   0.500
 7796TIP3   OH223351   5.872   1.718   3.722
 7796TIP3    H123352   5.934   1.791   3.729
 7796TIP3    H223353   5.889   1.681   3.636
 7797TIP3   OH223354   3.782   6.794   5.501
 7797TIP3    H123355   3.763   6.718   5.557
 7797TIP3    H223356   3.805   6.757   5.416
 7798TIP3   OH223357   0.229   6.598   3.481
 7798TIP3    H123358   0.309   6.547   3.496
 7798TIP3    H223359   0.158   6.536   3.498
 7799TIP3   OH223360   1.590   1.819   4.882
 7799TIP3    H123361   1.604   1.731   4.917
 7799TIP3    H223362   1.580   1.875   4.959
 7800TIP3   OH223363   5.553   6.022   4.548
 7800TIP3    H123364   5.493   6.074   4.494
 7800TIP3    H223365   5.503   6.002   4.628
 7801TIP3   OH223366   2.017   6.824   0.252
 7801TIP3    H123367   2.007   6.769   0.329
 7801TIP3    H223368   2.058   6.904   0.284
 7802TIP3   OH223369   0.787   1.940   1.139
 7802TIP3    H123370   0.694   1.964   1.132
 7802TIP3    H223371   0.813   1.916   1.050
 7803TIP3   OH223372   5.892   0.025   3.108
 7803TIP3    H123373   5.855   0.042   3.195
 7803TIP3    H223374   5.844   0.083   3.050
 7804TIP3   OH223375   7.099   2.136   2.472
 7804TIP3    H123376   7.076   2.053   2.430
 7804TIP3    H223377   7.077   2.122   2.564
 7805TIP3   OH223378   6.889   3.070   3.489
 7805TIP3    H123379   6.958   3.015   3.451
 7805TIP3    H223380   6.856   3.019   3.563
 7806TIP3   OH223381   2.703   4.998   2.591
 7806TIP3    H123382   2.774   5.029   2.535
 7806TIP3    H223383   2.623   5.021   2.543
 7807TIP3   OH223384   0.308   1.620   3.262
 7807TIP3    H123385   0.272   1.532   3.271
 7807TIP3    H223386   0.349   1.638   3.347
 7808TIP3   OH223387   0.873   0.057   0.317
 7808TIP3    H123388   0.906   0.130   0.369
 7808TIP3    H223389   0.942  -0.009   0.323
 7809TIP3   OH223390   2.195   3.118   2.463
 7809TIP3    H123391   2.280   3.109   2.505
 7809TIP3    H223392   2.213   3.168   2.383
 7810TIP3   OH223393   6.069   3.967   4.750
 7810TIP3    H123394   5.981   3.989   4.780
 7810TIP3    H223395   6.122   4.043   4.773
 7811TIP3   OH223396   0.701   5.704   2.710
 7811TIP3    H123397   0.610   5.685   2.730
 7811TIP3    H223398   0.729   5.764   2.779
 7812TIP3   OH223399   3.840   4.356   5.586
 7812TIP3    H123400   3.870   4.373   5.496
 7812TIP3    H223401   3.859   4.437   5.633
 7813TIP3   OH223402   4.689   1.075   3.996
 7813TIP3    H123403   4.710   1.168   3.997
 7813TIP3    H223404   4.604   1.069   4.040
 7814TIP3   OH223405   1.905   5.511   0.053
 7814TIP3    H123406   1.907   5.476   0.142
 7814TIP3    H223407   1.942   5.441  -0.001
 7815TIP3   OH223408   6.994   1.494   0.915
 7815TIP3    H123409   6.993   1.564   0.981
 7815TIP3    H223410   6.902   1.470   0.905
 7816TIP3   OH223411   0.472   5.931   0.983
 7816TIP3    H123412   0.510   5.878   1.053
 7816TIP3    H223413   0.546   5.955   0.927
 7817TIP3   OH223414   0.875   5.353   5.236
 7817TIP3    H123415   0.940   5.329   5.301
 7817TIP3    H223416   0.857   5.272   5.188
 7818TIP3   OH223417   0.540   5.126   2.784
 7818TIP3    H123418   0.456   5.152   2.821
 7818TIP3    H223419   0.587   5.209   2.772
 7819TIP3   OH223420   2.790   0.681   0.592
 7819TIP3    H123421   2.826   0.729   0.517
 7819TIP3    H223422   2.784   0.747   0.661
 7820TIP3   OH223423   4.810   4.507   5.073
 7820TIP3    H123424   4.763   4.565   5.013
 7820TIP3    H223425   4.757   4.428   5.076
 7821TIP3   OH223426   6.075   2.025   2.412
 7821TIP3    H123427   5.993   2.072   2.427
 7821TIP3    H223428   6.142   2.082   2.450
 7822TIP3   OH223429   3.549   6.558   0.611
 7822TIP3    H123430   3.475   6.541   0.553
 7822TIP3    H223431   3.571   6.649   0.595
 7823TIP3   OH223432   4.880   3.113   1.110
 7823TIP3    H123433   4.847   3.185   1.163
 7823TIP3    H223434   4.976   3.120   1.116
 7824TIP3   OH223435   1.554   5.466   0.340
 7824TIP3    H123436   1.502   5.532   0.294
 7824TIP3    H223437   1.497   5.436   0.411
 7825TIP3   OH223438   5.227   6.491   3.891
 7825TIP3    H123439   5.241   6.545   3.814
 7825TIP3    H223440   5.195   6.408   3.857
 7826TIP3   OH223441   4.146   5.154   2.577
 7826TIP3    H123442   4.196   5.121   2.652
 7826TIP3    H223443   4.055   5.144   2.603
 7827TIP3   OH223444   0.806   6.786   0.930
 7827TIP3    H123445   0.857   6.865   0.915
 7827TIP3    H223446   0.853   6.718   0.882
 7828TIP3   OH223447   0.098   3.065   1.767
 7828TIP3    H123448   0.125   3.063   1.859
 7828TIP3    H223449   0.028   3.000   1.762
 7829TIP3   OH223450   0.474   3.845   0.430
 7829TIP3    H123451   0.396   3.889   0.462
 7829TIP3    H223452   0.479   3.765   0.483
 7830TIP3   OH223453   4.597   3.817   4.724
 7830TIP3    H123454   4.626   3.764   4.798
 7830TIP3    H223455   4.556   3.755   4.664
 7831TIP3   OH223456   1.584   6.103   3.154
 7831TIP3    H123457   1.552   6.016   3.130
 7831TIP3    H223458   1.639   6.087   3.231
 7832TIP3   OH223459   5.084   5.774   4.172
 7832TIP3    H123460   5.005   5.746   4.219
 7832TIP3    H223461   5.156   5.734   4.220
 7833TIP3   OH223462   5.966   5.089   5.611
 7833TIP3    H123463   5.933   5.063   5.697
 7833TIP3    H223464   6.024   5.018   5.584
 7834TIP3   OH223465   1.595   2.490   2.680
 7834TIP3    H123466   1.562   2.502   2.591
 7834TIP3    H223467   1.627   2.400   2.682
 7835TIP3   OH223468   2.807   2.670   5.795
 7835TIP3    H123469   2.752   2.728   5.848
 7835TIP3    H223470   2.775   2.582   5.815
 7836TIP3   OH223471   5.923   5.697   4.943
 7836TIP3    H123472   5.861   5.642   4.897
 7836TIP3    H223473   6.009   5.670   4.910
 7837TIP3   OH223474   7.035   4.340   5.600
 7837TIP3    H123475   7.113   4.360   5.547
 7837TIP3    H223476   7.068   4.337   5.690
 7838TIP3   OH223477   2.828   6.189   1.880
 7838TIP3    H123478   2.839   6.130   1.954
 7838TIP3    H223479   2.877   6.268   1.905
 7839TIP3   OH223480   1.497   1.795   5.633
 7839TIP3    H123481   1.491   1.869   5.573
 7839TIP3    H223482   1.442   1.820   5.707
 7840TIP3   OH223483   5.569   5.025   3.743
 7840TIP3    H123484   5.583   4.952   3.803
 7840TIP3    H223485   5.475   5.043   3.747
 7841TIP3   OH223486   2.531   0.474   4.472
 7841TIP3    H123487   2.578   0.537   4.417
 7841TIP3    H223488   2.578   0.391   4.459
 7842TIP3   OH223489   5.785   5.993   4.379
 7842TIP3    H123490   5.863   5.978   4.325
 7842TIP3    H223491   5.740   6.065   4.335
 7843TIP3   OH223492   0.813   2.359   5.743
 7843TIP3    H123493   0.740   2.353   5.805
 7843TIP3    H223494   0.772   2.386   5.661
 7844TIP3   OH223495   2.090   0.915   0.430
 7844TIP3    H123496   2.001   0.883   0.413
 7844TIP3    H223497   2.141   0.835   0.446
 7845TIP3   OH223498   2.853   3.977   1.962
 7845TIP3    H123499   2.941   3.946   1.983
 7845TIP3    H223500   2.859   4.006   1.871
 7846TIP3   OH223501   4.621   0.192   4.216
 7846TIP3    H123502   4.662   0.209   4.132
 7846TIP3    H223503   4.693   0.168   4.274
 7847TIP3   OH223504   4.451   4.499   0.178
 7847TIP3    H123505   4.417   4.445   0.106
 7847TIP3    H223506   4.472   4.437   0.247
 7848TIP3   OH223507   2.710   3.694   4.194
 7848TIP3    H123508   2.640   3.759   4.193
 7848TIP3    H223509   2.756   3.707   4.111
 7849TIP3   OH223510   6.909   1.096   3.604
 7849TIP3    H123511   6.987   1.140   3.572
 7849TIP3    H223512   6.862   1.163   3.654
 7850TIP3   OH223513   5.136   5.691   0.658
 7850TIP3    H123514   5.188   5.666   0.734
 7850TIP3    H223515   5.186   5.659   0.582
 7851TIP3   OH223516   4.056   3.872   5.469
 7851TIP3    H123517   4.027   3.908   5.385
 7851TIP3    H223518   4.006   3.920   5.535
 7852TIP3   OH223519   2.804   0.504   1.679
 7852TIP3    H123520   2.795   0.453   1.760
 7852TIP3    H223521   2.719   0.548   1.670
 7853TIP3   OH223522   3.688   3.918   1.379
 7853TIP3    H123523   3.739   3.912   1.298
 7853TIP3    H223524   3.626   3.989   1.364
 7854TIP3   OH223525   0.297   4.063   3.629
 7854TIP3    H123526   0.362   4.029   3.690
 7854TIP3    H223527   0.321   4.026   3.544
 7855TIP3   OH223528   1.563   4.923   4.863
 7855TIP3    H123529   1.513   4.974   4.799
 7855TIP3    H223530   1.625   4.986   4.900
 7856TIP3   OH223531   5.156   1.660   3.746
 7856TIP3    H123532   5.156   1.573   3.784
 7856TIP3    H223533   5.124   1.647   3.657
 7857TIP3   OH223534   4.843   3.270   1.408
 7857TIP3    H123535   4.755   3.288   1.375
 7857TIP3    H223536   4.836   3.183   1.447
 7858TIP3   OH223537   1.334   4.484   2.727
 7858TIP3    H123538   1.330   4.396   2.766
 7858TIP3    H223539   1.246   4.519   2.737
 7859TIP3   OH223540   2.324   4.061   3.166
 7859TIP3    H123541   2.323   4.012   3.248
 7859TIP3    H223542   2.312   4.152   3.193
 7860TIP3   OH223543   5.537   0.972   3.509
 7860TIP3    H123544   5.554   0.883   3.476
 7860TIP3    H223545   5.555   1.029   3.434
 7861TIP3   OH223546   3.523   3.523   1.670
 7861TIP3    H123547   3.509   3.588   1.739
 7861TIP3    H223548   3.618   3.519   1.659
 7862TIP3   OH223549   0.809   2.608   3.872
 7862TIP3    H123550   0.873   2.679   3.867
 7862TIP3    H223551   0.734   2.646   3.917
 7863TIP3   OH223552   2.249   5.305   4.380
 7863TIP3    H123553   2.336   5.310   4.419
 7863TIP3    H223554   2.206   5.234   4.428
 7864TIP3   OH223555   6.156   1.503   3.614
 7864TIP3    H123556   6.071   1.502   3.657
 7864TIP3    H223557   6.217   1.466   3.678
 7865TIP3   OH223558   4.510   4.830   4.728
 7865TIP3    H123559   4.493   4.799   4.639
 7865TIP3    H223560   4.428   4.871   4.756
 7866TIP3   OH223561   5.802   2.832   4.915
 7866TIP3    H123562   5.826   2.815   5.006
 7866TIP3    H223563   5.794   2.927   4.910
 7867TIP3   OH223564   5.398   2.887   5.212
 7867TIP3    H123565   5.330   2.943   5.248
 7867TIP3    H223566   5.392   2.899   5.117
 7868TIP3   OH223567   3.823   2.823   1.097
 7868TIP3    H123568   3.728   2.812   1.084
 7868TIP3    H223569   3.862   2.783   1.019
 7869TIP3   OH223570   1.419   0.841   3.703
 7869TIP3    H123571   1.511   0.829   3.681
 7869TIP3    H223572   1.380   0.754   3.690
 7870TIP3   OH223573   0.762   4.831   5.885
 7870TIP3    H123574   0.752   4.830   5.790
 7870TIP3    H223575   0.743   4.921   5.911
 7871TIP3   OH223576   2.832   2.001   5.093
 7871TIP3    H123577   2.874   1.972   5.173
 7871TIP3    H223578   2.741   1.971   5.101
 7872TIP3   OH223579   4.845   0.945   3.621
 7872TIP3    H123580   4.895   0.957   3.702
 7872TIP3    H223581   4.756   0.971   3.643
 7873TIP3   OH223582   5.073   0.054   5.429
 7873TIP3    H123583   5.048   0.146   5.438
 7873TIP3    H223584   5.161   0.049   5.466
 7874TIP3   OH223585   1.608   1.069   0.278
 7874TIP3    H123586   1.557   1.078   0.197
 7874TIP3    H223587   1.631   0.977   0.281
 7875TIP3   OH223588   6.876   1.365   5.880
 7875TIP3    H123589   6.927   1.286   5.897
 7875TIP3    H223590   6.941   1.435   5.881
 7876TIP3   OH223591   5.820   3.580   3.647
 7876TIP3    H123592   5.900   3.631   3.660
 7876TIP3    H223593   5.846   3.490   3.665
 7877TIP3   OH223594   6.761   3.158   3.836
 7877TIP3    H123595   6.837   3.213   3.818
 7877TIP3    H223596   6.794   3.088   3.893
 7878TIP3   OH223597   4.422   6.477   5.094
 7878TIP3    H123598   4.484   6.459   5.165
 7878TIP3    H223599   4.367   6.547   5.127
 7879TIP3   OH223600   4.043   1.371   4.155
 7879TIP3    H123601   4.118   1.372   4.214
 7879TIP3    H223602   4.081   1.371   4.067
 7880TIP3   OH223603   2.737   4.157   5.347
 7880TIP3    H123604   2.650   4.118   5.360
 7880TIP3    H223605   2.737   4.188   5.257
 7881TIP3   OH223606   0.098   1.655   4.562
 7881TIP3    H123607   0.056   1.570   4.580
 7881TIP3    H223608   0.168   1.634   4.499
 7882TIP3   OH223609   1.636   2.637   5.022
 7882TIP3    H123610   1.642   2.628   4.927
 7882TIP3    H223611   1.703   2.701   5.045
 7883TIP3   OH223612   1.247   1.461   4.192
 7883TIP3    H123613   1.237   1.365   4.186
 7883TIP3    H223614   1.202   1.493   4.114
 7884TIP3   OH223615   3.601   2.543   3.830
 7884TIP3    H123616   3.525   2.519   3.778
 7884TIP3    H223617   3.668   2.479   3.806
 7885TIP3   OH223618   3.831   6.109   2.730
 7885TIP3    H123619   3.875   6.115   2.645
 7885TIP3    H223620   3.786   6.193   2.739
 7886TIP3   OH223621   2.153   1.400   0.328
 7886TIP3    H123622   2.158   1.306   0.313
 7886TIP3    H223623   2.175   1.411   0.420
 7887TIP3   OH223624   4.793   5.845   1.451
 7887TIP3    H123625   4.879   5.881   1.432
 7887TIP3    H223626   4.787   5.848   1.547
 7888TIP3   OH223627   1.111   3.667   4.672
 7888TIP3    H123628   1.203   3.690   4.684
 7888TIP3    H223629   1.094   3.685   4.579
 7889TIP3   OH223630   0.831   1.483   4.029
 7889TIP3    H123631   0.913   1.460   4.072
 7889TIP3    H223632   0.782   1.532   4.095
 7890TIP3   OH223633   5.537   0.450   5.093
 7890TIP3    H123634   5.544   0.530   5.042
 7890TIP3    H223635   5.473   0.397   5.046
 7891TIP3   OH223636   4.144   5.176   1.888
 7891TIP3    H123637   4.166   5.233   1.962
 7891TIP3    H223638   4.228   5.157   1.847
 7892TIP3   OH223639   0.695   4.691   1.078
 7892TIP3    H123640   0.694   4.776   1.122
 7892TIP3    H223641   0.619   4.645   1.114
 7893TIP3   OH223642   4.352   5.114   2.771
 7893TIP3    H123643   4.316   5.201   2.789
 7893TIP3    H223644   4.446   5.123   2.787
 7894TIP3   OH223645   4.348   1.890   3.273
 7894TIP3    H123646   4.353   1.976   3.316
 7894TIP3    H223647   4.377   1.828   3.340
 7895TIP3   OH223648   5.828   6.336   3.235
 7895TIP3    H123649   5.787   6.411   3.278
 7895TIP3    H223650   5.772   6.317   3.160
 7896TIP3   OH223651   1.211   0.622   2.773
 7896TIP3    H123652   1.269   0.609   2.698
 7896TIP3    H223653   1.244   0.701   2.816
 7897TIP3   OH223654   0.957   4.065   3.949
 7897TIP3    H123655   0.976   4.123   4.024
 7897TIP3    H223656   0.865   4.041   3.961
 7898TIP3   OH223657   4.624   6.093   3.349
 7898TIP3    H123658   4.666   6.170   3.386
 7898TIP3    H223659   4.685   6.062   3.282
 7899TIP3   OH223660   1.814   2.462   2.917
 7899TIP3    H123661   1.743   2.520   2.944
 7899TIP3    H223662   1.778   2.414   2.843
 7900TIP3   OH223663   3.193   1.059   5.856
 7900TIP3    H123664   3.203   1.110   5.776
 7900TIP3    H223665   3.282   1.040   5.884
 7901TIP3   OH223666   0.290   5.268   2.828
 7901TIP3    H123667   0.272   5.187   2.780
 7901TIP3    H223668   0.266   5.338   2.767
 7902TIP3   OH223669   5.402   1.745   5.172
 7902TIP3    H123670   5.329   1.806   5.158
 7902TIP3    H223671   5.463   1.765   5.100
 7903TIP3   OH223672   4.843   4.072   1.800
 7903TIP3    H123673   4.762   4.020   1.802
 7903TIP3    H223674   4.887   4.052   1.882
 7904TIP3   OH223675   4.821   3.734   4.165
 7904TIP3    H123676   4.911   3.733   4.135
 7904TIP3    H223677   4.826   3.712   4.259
 7905TIP3   OH223678   4.434   3.282   3.117
 7905TIP3    H123679   4.500   3.213   3.110
 7905TIP3    H223680   4.383   3.274   3.036
 7906TIP3   OH223681   7.068   5.603   0.568
 7906TIP3    H123682   7.116   5.521   0.561
 7906TIP3    H223683   7.095   5.654   0.492
 7907TIP3   OH223684   1.394   6.467   5.604
 7907TIP3    H123685   1.318   6.457   5.661
 7907TIP3    H223686   1.393   6.389   5.548
 7908TIP3   OH223687   3.640   2.757   2.900
 7908TIP3    H123688   3.634   2.709   2.817
 7908TIP3    H223689   3.591   2.838   2.885
 7909TIP3   OH223690   1.881   6.464   2.005
 7909TIP3    H123691   1.945   6.533   1.985
 7909TIP3    H223692   1.878   6.411   1.925
 7910TIP3   OH223693   7.119   2.120   4.559
 7910TIP3    H123694   7.087   2.077   4.480
 7910TIP3    H223695   7.215   2.111   4.555
 7911TIP3   OH223696   5.254   0.424   3.115
 7911TIP3    H123697   5.218   0.384   3.036
 7911TIP3    H223698   5.215   0.375   3.187
 7912TIP3   OH223699   5.940   3.864   3.902
 7912TIP3    H123700   5.974   3.903   3.983
 7912TIP3    H223701   5.908   3.778   3.928
 7913TIP3   OH223702   6.561   0.951   4.489
 7913TIP3    H123703   6.574   0.925   4.580
 7913TIP3    H223704   6.585   1.044   4.488
 7914TIP3   OH223705   2.351   3.262   0.997
 7914TIP3    H123706   2.303   3.337   0.963
 7914TIP3    H223707   2.304   3.239   1.078
 7915TIP3   OH223708   0.900   5.564   3.925
 7915TIP3    H123709   0.870   5.519   4.004
 7915TIP3    H223710   0.865   5.511   3.853
 7916TIP3   OH223711   6.665   1.071   2.651
 7916TIP3    H123712   6.608   1.043   2.723
 7916TIP3    H223713   6.607   1.116   2.590
 7917TIP3   OH223714   1.761   2.051   0.370
 7917TIP3    H123715   1.803   2.057   0.284
 7917TIP3    H223716   1.789   2.131   0.415
 7918TIP3   OH223717   2.730   2.681   4.965
 7918TIP3    H123718   2.752   2.591   4.988
 7918TIP3    H223719   2.653   2.673   4.909
 7919TIP3   OH223720   4.568   2.642   3.684
 7919TIP3    H123721   4.577   2.627   3.779
 7919TIP3    H223722   4.473   2.640   3.669
 7920TIP3   OH223723   6.973   6.655   5.875
 7920TIP3    H123724   6.965   6.576   5.929
 7920TIP3    H223725   6.987   6.621   5.786
 7921TIP3   OH223726   4.142   1.552   4.768
 7921TIP3    H123727   4.186   1.623   4.815
 7921TIP3    H223728   4.101   1.499   4.837
 7922TIP3   OH223729   5.168   1.996   2.465
 7922TIP3    H123730   5.215   1.923   2.424
 7922TIP3    H223731   5.216   2.074   2.436
 7923TIP3   OH223732   5.366   3.203   1.677
 7923TIP3    H123733   5.273   3.197   1.696
 7923TIP3    H223734   5.409   3.172   1.757
 7924TIP3   OH223735   3.321   0.742   0.224
 7924TIP3    H123736   3.415   0.758   0.209
 7924TIP3    H223737   3.313   0.647   0.223
 7925TIP3   OH223738   3.781   1.733   2.231
 7925TIP3    H123739   3.688   1.724   2.254
 7925TIP3    H223740   3.781   1.790   2.154
 7926TIP3   OH223741   2.399   2.995   0.318
 7926TIP3    H123742   2.406   2.912   0.365
 7926TIP3    H223743   2.429   3.060   0.382
 7927TIP3   OH223744   4.193   2.706   1.258
 7927TIP3    H123745   4.285   2.706   1.283
 7927TIP3    H223746   4.171   2.613   1.248
 7928TIP3   OH223747   1.026   4.433   1.406
 7928TIP3    H123748   1.096   4.495   1.382
 7928TIP3    H223749   0.997   4.463   1.492
 7929TIP3   OH223750   6.409   1.284   1.142
 7929TIP3    H123751   6.495   1.288   1.183
 7929TIP3    H223752   6.396   1.372   1.108
 7930TIP3   OH223753   6.046   4.518   3.893
 7930TIP3    H123754   6.083   4.457   3.957
 7930TIP3    H223755   6.087   4.602   3.914
 7931TIP3   OH223756   5.519   0.924   2.667
 7931TIP3    H123757   5.613   0.912   2.661
 7931TIP3    H223758   5.491   0.943   2.578
 7932TIP3   OH223759   5.031   3.099   2.260
 7932TIP3    H123760   5.031   3.174   2.201
 7932TIP3    H223761   4.939   3.083   2.278
 7933TIP3   OH223762   0.156   2.130   3.500
 7933TIP3    H123763   0.158   2.034   3.503
 7933TIP3    H223764   0.229   2.153   3.442
 7934TIP3   OH223765   1.105   4.932   0.610
 7934TIP3    H123766   1.045   4.875   0.659
 7934TIP3    H223767   1.158   4.871   0.558
 7935TIP3   OH223768   1.309   6.699   2.508
 7935TIP3    H123769   1.306   6.794   2.505
 7935TIP3    H223770   1.293   6.672   2.417
 7936TIP3   OH223771   1.998   1.177   5.625
 7936TIP3    H123772   2.002   1.082   5.615
 7936TIP3    H223773   1.922   1.203   5.573
 7937TIP3   OH223774   4.578   0.183   5.628
 7937TIP3    H123775   4.528   0.108   5.597
 7937TIP3    H223776   4.619   0.153   5.709
 7938TIP3   OH223777   6.443   5.028   0.977
 7938TIP3    H123778   6.480   5.115   0.962
 7938TIP3    H223779   6.362   5.045   1.026
 7939TIP3   OH223780   4.363   4.639   3.570
 7939TIP3    H123781   4.277   4.634   3.611
 7939TIP3    H223782   4.401   4.721   3.600
 7940TIP3   OH223783   6.323   5.796   1.831
 7940TIP3    H123784   6.243   5.758   1.796
 7940TIP3    H223785   6.300   5.824   1.920
 7941TIP3   OH223786   3.644   6.672   1.566
 7941TIP3    H123787   3.690   6.589   1.576
 7941TIP3    H223788   3.695   6.721   1.501
 7942TIP3   OH223789   3.112   5.572   1.662
 7942TIP3    H123790   3.124   5.529   1.578
 7942TIP3    H223791   3.193   5.622   1.675
 7943TIP3   OH223792   0.947   4.899   2.102
 7943TIP3    H123793   0.863   4.938   2.078
 7943TIP3    H223794   0.933   4.862   2.189
 7944TIP3   OH223795   5.325   0.233   1.858
 7944TIP3    H123796   5.252   0.249   1.918
 7944TIP3    H223797   5.399   0.279   1.897
 7945TIP3   OH223798   4.470   6.171   5.510
 7945TIP3    H123799   4.504   6.205   5.593
 7945TIP3    H223800   4.421   6.093   5.535
 7946TIP3   OH223801   3.446   3.817   3.517
 7946TIP3    H123802   3.418   3.875   3.587
 7946TIP3    H223803   3.386   3.836   3.445
 7947TIP3   OH223804   3.281   4.132   1.095
 7947TIP3    H123805   3.206   4.133   1.155
 7947TIP3    H223806   3.244   4.108   1.011
 7948TIP3   OH223807   3.354   2.279   0.506
 7948TIP3    H123808   3.349   2.212   0.574
 7948TIP3    H223809   3.316   2.237   0.428
 7949TIP3   OH223810   3.173   1.768   0.415
 7949TIP3    H123811   3.115   1.692   0.427
 7949TIP3    H223812   3.180   1.807   0.502
 7950TIP3   OH223813   4.382   2.635   2.279
 7950TIP3    H123814   4.287   2.642   2.293
 7950TIP3    H223815   4.414   2.587   2.356
 7951TIP3   OH223816   4.960   4.241   3.098
 7951TIP3    H123817   4.932   4.151   3.113
 7951TIP3    H223818   4.883   4.284   3.059
 7952TIP3   OH223819   1.706   4.779   4.654
 7952TIP3    H123820   1.691   4.696   4.699
 7952TIP3    H223821   1.663   4.844   4.708
 7953TIP3   OH223822   0.980   0.117   3.186
 7953TIP3    H123823   0.988   0.105   3.281
 7953TIP3    H223824   1.051   0.065   3.149
 7954TIP3   OH223825   0.041   0.638   0.515
 7954TIP3    H123826   0.129   0.635   0.553
 7954TIP3    H223827   0.026   0.549   0.483
 7955TIP3   OH223828   3.158   5.931   1.424
 7955TIP3    H123829   3.119   5.854   1.464
 7955TIP3    H223830   3.231   5.955   1.482
 7956TIP3   OH223831   5.786   4.065   1.619
 7956TIP3    H123832   5.700   4.069   1.660
 7956TIP3    H223833   5.810   3.972   1.622
 7957TIP3   OH223834   1.023   3.426   3.564
 7957TIP3    H123835   1.006   3.334   3.542
 7957TIP3    H223836   0.948   3.452   3.618
 7958TIP3   OH223837   4.496   2.683   5.457
 7958TIP3    H123838   4.541   2.760   5.424
 7958TIP3    H223839   4.516   2.614   5.394
 7959TIP3   OH223840   2.227   4.025   4.686
 7959TIP3    H123841   2.135   4.047   4.669
 7959TIP3    H223842   2.226   3.930   4.699
 7960TIP3   OH223843   4.176   1.861   0.574
 7960TIP3    H123844   4.105   1.835   0.633
 7960TIP3    H223845   4.169   1.956   0.569
 7961TIP3   OH223846   0.020   5.875   2.074
 7961TIP3    H123847  -0.035   5.939   2.118
 7961TIP3    H223848   0.096   5.864   2.131
 7962TIP3   OH223849   2.621   6.087   4.268
 7962TIP3    H123850   2.624   6.157   4.333
 7962TIP3    H223851   2.654   6.127   4.187
 7963TIP3   OH223852   5.996   4.738   0.597
 7963TIP3    H123853   5.983   4.675   0.526
 7963TIP3    H223854   5.910   4.779   0.609
 7964TIP3   OH223855   2.315   5.602   5.915
 7964TIP3    H123856   2.220   5.594   5.915
 7964TIP3    H223857   2.338   5.622   5.824
 7965TIP3   OH223858   2.657   5.297   5.614
 7965TIP3    H123859   2.734   5.350   5.595
 7965TIP3    H223860   2.623   5.273   5.528
 7966TIP3   OH223861   7.030   5.944   5.747
 7966TIP3    H123862   6.940   5.961   5.719
 7966TIP3    H223863   7.080   6.020   5.716
 7967TIP3   OH223864   1.521   1.979   0.805
 7967TIP3    H123865   1.572   1.899   0.816
 7967TIP3    H223866   1.558   2.041   0.868
 7968TIP3   OH223867   5.845   1.838   0.026
 7968TIP3    H123868   5.869   1.855  -0.065
 7968TIP3    H223869   5.865   1.745   0.039
 7969TIP3   OH223870   3.781   0.341   0.099
 7969TIP3    H123871   3.827   0.315   0.020
 7969TIP3    H223872   3.779   0.437   0.095
 7970TIP3   OH223873   2.702   1.301   5.109
 7970TIP3    H123874   2.748   1.240   5.167
 7970TIP3    H223875   2.654   1.358   5.169
 7971TIP3   OH223876   3.593   6.410   2.513
 7971TIP3    H123877   3.625   6.351   2.583
 7971TIP3    H223878   3.664   6.474   2.502
 7972TIP3   OH223879   5.049   1.650   3.087
 7972TIP3    H123880   5.025   1.677   3.176
 7972TIP3    H223881   5.139   1.619   3.096
 7973TIP3   OH223882   1.448   6.418   3.390
 7973TIP3    H123883   1.385   6.370   3.337
 7973TIP3    H223884   1.413   6.415   3.479
 7974TIP3   OH223885   5.460   5.662   5.416
 7974TIP3    H123886   5.538   5.609   5.432
 7974TIP3    H223887   5.489   5.732   5.358
 7975TIP3   OH223888   7.131   6.511   5.084
 7975TIP3    H123889   7.095   6.449   5.022
 7975TIP3    H223890   7.153   6.459   5.161
 7976TIP3   OH223891   5.254   4.961   4.644
 7976TIP3    H123892   5.349   4.956   4.633
 7976TIP3    H223893   5.242   4.993   4.734
 7977TIP3   OH223894   0.714   5.491   2.977
 7977TIP3    H123895   0.627   5.497   3.017
 7977TIP3    H223896   0.703   5.431   2.904
 7978TIP3   OH223897   7.233   5.067   3.438
 7978TIP3    H123898   7.143   5.099   3.440
 7978TIP3    H223899   7.234   4.994   3.500
 7979TIP3   OH223900   0.819   0.288   5.143
 7979TIP3    H123901   0.798   0.237   5.065
 7979TIP3    H223902   0.862   0.366   5.110
 7980TIP3   OH223903   6.173   5.262   5.774
 7980TIP3    H123904   6.173   5.174   5.811
 7980TIP3    H223905   6.191   5.248   5.681
 7981TIP3   OH223906   4.766   0.547   0.766
 7981TIP3    H123907   4.723   0.607   0.705
 7981TIP3    H223908   4.781   0.468   0.714
 7982TIP3   OH223909   0.909   0.496   0.687
 7982TIP3    H123910   1.004   0.502   0.699
 7982TIP3    H223911   0.889   0.404   0.701
 7983TIP3   OH223912   5.720   3.246   5.819
 7983TIP3    H123913   5.702   3.282   5.732
 7983TIP3    H223914   5.773   3.168   5.803
 7984TIP3   OH223915   2.168   5.705   3.831
 7984TIP3    H123916   2.219   5.656   3.766
 7984TIP3    H223917   2.218   5.699   3.912
 7985TIP3   OH223918   4.346   6.090   4.809
 7985TIP3    H123919   4.373   6.175   4.773
 7985TIP3    H223920   4.265   6.109   4.856
 7986TIP3   OH223921   5.378   1.609   1.955
 7986TIP3    H123922   5.384   1.514   1.950
 7986TIP3    H223923   5.384   1.638   1.864
 7987TIP3   OH223924   5.372   5.495   5.098
 7987TIP3    H123925   5.388   5.518   5.006
 7987TIP3    H223926   5.285   5.456   5.098
 7988TIP3   OH223927   2.262   0.241   2.752
 7988TIP3    H123928   2.317   0.165   2.732
 7988TIP3    H223929   2.177   0.220   2.713
 7989TIP3   OH223930   0.422   3.261   1.028
 7989TIP3    H123931   0.359   3.332   1.019
 7989TIP3    H223932   0.389   3.209   1.102
 7990TIP3   OH223933   7.073   0.231   3.079
 7990TIP3    H123934   7.104   0.274   3.159
 7990TIP3    H223935   6.998   0.282   3.051
 7991TIP3   OH223936   5.048   5.546   4.025
 7991TIP3    H123937   4.952   5.538   4.024
 7991TIP3    H223938   5.065   5.627   4.072
 7992TIP3   OH223939   4.752   6.220   4.015
 7992TIP3    H123940   4.811   6.150   3.984
 7992TIP3    H223941   4.669   6.176   4.033
 7993TIP3   OH223942   5.849   0.936   1.736
 7993TIP3    H123943   5.798   0.867   1.780
 7993TIP3    H223944   5.940   0.912   1.751
 7994TIP3   OH223945   5.486   0.396   3.227
 7994TIP3    H123946   5.416   0.435   3.175
 7994TIP3    H223947   5.488   0.304   3.201
 7995TIP3   OH223948   6.099   2.468   3.373
 7995TIP3    H123949   6.074   2.451   3.463
 7995TIP3    H223950   6.040   2.537   3.344
 7996TIP3   OH223951   3.717   3.361   1.872
 7996TIP3    H123952   3.806   3.377   1.841
 7996TIP3    H223953   3.727   3.297   1.942
 7997TIP3   OH223954   6.597   3.755   3.631
 7997TIP3    H123955   6.551   3.837   3.649
 7997TIP3    H223956   6.611   3.715   3.717
 7998TIP3   OH223957   3.922   2.007   1.867
 7998TIP3    H123958   3.963   1.921   1.880
 7998TIP3    H223959   3.994   2.069   1.878
 7999TIP3   OH223960   0.347   4.600   2.346
 7999TIP3    H123961   0.259   4.637   2.352
 7999TIP3    H223962   0.370   4.580   2.436
 8000TIP3   OH223963   5.366   6.614   0.559
 8000TIP3    H123964   5.349   6.562   0.480
 8000TIP3    H223965   5.390   6.549   0.625
 8001TIP3   OH223966   5.719   4.439   2.730
 8001TIP3    H123967   5.764   4.403   2.654
 8001TIP3    H223968   5.706   4.363   2.788
 8002TIP3   OH223969   3.267   3.710   5.188
 8002TIP3    H123970   3.187   3.755   5.164
 8002TIP3    H223971   3.240   3.645   5.253
 8003TIP3   OH223972   6.148   2.365   0.736
 8003TIP3    H123973   6.154   2.304   0.810
 8003TIP3    H223974   6.088   2.323   0.675
 8004TIP3   OH223975   6.904   6.792   2.511
 8004TIP3    H123976   6.840   6.722   2.501
 8004TIP3    H223977   6.982   6.760   2.466
 8005TIP3   OH223978   2.000   1.530   3.356
 8005TIP3    H123979   1.982   1.616   3.394
 8005TIP3    H223980   1.918   1.481   3.366
 8006TIP3   OH223981   6.246   2.294   3.236
 8006TIP3    H123982   6.340   2.301   3.253
 8006TIP3    H223983   6.206   2.362   3.290
 8007TIP3   OH223984   0.282   6.033   4.582
 8007TIP3    H123985   0.302   6.125   4.600
 8007TIP3    H223986   0.303   6.023   4.489
 8008TIP3   OH223987   6.816   5.975   2.048
 8008TIP3    H123988   6.893   5.961   1.993
 8008TIP3    H223989   6.803   5.891   2.092
 8009TIP3   OH223990   2.280   0.556   2.109
 8009TIP3    H123991   2.190   0.534   2.086
 8009TIP3    H223992   2.322   0.579   2.026
 8010TIP3   OH223993   3.559   5.476   1.483
 8010TIP3    H123994   3.489   5.540   1.481
 8010TIP3    H223995   3.633   5.519   1.440
 8011TIP3   OH223996   6.649   3.876   0.947
 8011TIP3    H123997   6.564   3.850   0.912
 8011TIP3    H223998   6.712   3.821   0.901
 8012TIP3   OH223999   6.672   2.247   1.097
 8012TIP3    H124000   6.688   2.226   1.005
 8012TIP3    H224001   6.753   2.222   1.141
 8013TIP3   OH224002   2.822   0.492   0.331
 8013TIP3    H124003   2.806   0.551   0.258
 8013TIP3    H224004   2.777   0.533   0.405
 8014TIP3   OH224005   3.729   3.316   4.664
 8014TIP3    H124006   3.652   3.352   4.706
 8014TIP3    H224007   3.733   3.360   4.578
 8015TIP3   OH224008   1.530   2.858   0.056
 8015TIP3    H124009   1.474   2.911   0.000
 8015TIP3    H224010   1.581   2.922   0.106
 8016TIP3   OH224011   4.664   5.692   2.284
 8016TIP3    H124012   4.602   5.622   2.266
 8016TIP3    H224013   4.750   5.653   2.270
 8017TIP3   OH224014   4.620   4.358   4.671
 8017TIP3    H124015   4.590   4.270   4.693
 8017TIP3    H224016   4.688   4.344   4.605
 8018TIP3   OH224017   0.485   5.745   4.467
 8018TIP3    H124018   0.448   5.752   4.556
 8018TIP3    H224019   0.578   5.727   4.481
 8019TIP3   OH224020   0.906   6.454   5.110
 8019TIP3    H124021   0.928   6.519   5.043
 8019TIP3    H224022   0.986   6.444   5.162
 8020TIP3   OH224023   1.333   5.341   1.131
 8020TIP3    H124024   1.291   5.323   1.216
 8020TIP3    H224025   1.378   5.424   1.144
 8021TIP3   OH224026   6.691   4.895   4.003
 8021TIP3    H124027   6.671   4.831   4.072
 8021TIP3    H224028   6.759   4.951   4.041
 8022TIP3   OH224029   2.440   4.215   3.520
 8022TIP3    H124030   2.356   4.207   3.565
 8022TIP3    H224031   2.431   4.295   3.468
 8023TIP3   OH224032   1.379   2.585   5.498
 8023TIP3    H124033   1.342   2.654   5.443
 8023TIP3    H224034   1.367   2.505   5.447
 8024TIP3   OH224035   2.304   1.133   4.058
 8024TIP3    H124036   2.295   1.066   4.126
 8024TIP3    H224037   2.391   1.170   4.073
 8025TIP3   OH224038   1.149   3.452   0.195
 8025TIP3    H124039   1.173   3.506   0.120
 8025TIP3    H224040   1.179   3.502   0.271
 8026TIP3   OH224041   2.285   3.475   4.821
 8026TIP3    H124042   2.280   3.398   4.877
 8026TIP3    H224043   2.259   3.548   4.878
 8027TIP3   OH224044   0.094   0.692   4.942
 8027TIP3    H124045   0.078   0.707   5.035
 8027TIP3    H224046   0.185   0.718   4.928
 8028TIP3   OH224047   6.894   6.798   1.212
 8028TIP3    H124048   6.880   6.717   1.261
 8028TIP3    H224049   6.882   6.773   1.121
 8029TIP3   OH224050   4.616   2.243   0.109
 8029TIP3    H124051   4.591   2.329   0.076
 8029TIP3    H224052   4.705   2.230   0.077
 8030TIP3   OH224053   5.506   1.924   5.906
 8030TIP3    H124054   5.553   1.928   5.823
 8030TIP3    H224055   5.543   1.995   5.958
 8031TIP3   OH224056   0.502   1.442   5.430
 8031TIP3    H124057   0.416   1.484   5.419
 8031TIP3    H224058   0.483   1.364   5.483
 8032TIP3   OH224059   1.659   3.011   1.658
 8032TIP3    H124060   1.731   2.974   1.708
 8032TIP3    H224061   1.580   2.987   1.708
 8033TIP3   OH224062   2.569   4.794   5.490
 8033TIP3    H124063   2.524   4.770   5.571
 8033TIP3    H224064   2.659   4.766   5.503
 8034TIP3   OH224065   2.898   5.734   5.128
 8034TIP3    H124066   2.873   5.759   5.039
 8034TIP3    H224067   2.839   5.662   5.150
 8035TIP3   OH224068   5.486   2.648   3.344
 8035TIP3    H124069   5.557   2.684   3.398
 8035TIP3    H224070   5.426   2.610   3.408
 8036TIP3   OH224071   4.869   0.100   3.557
 8036TIP3    H124072   4.864   0.006   3.573
 8036TIP3    H224073   4.910   0.107   3.470
 8037TIP3   OH224074   3.487   1.284   3.975
 8037TIP3    H124075   3.485   1.290   4.070
 8037TIP3    H224076   3.396   1.269   3.950
 8038TIP3   OH224077   5.777   6.203   5.180
 8038TIP3    H124078   5.747   6.204   5.271
 8038TIP3    H224079   5.855   6.259   5.180
 8039TIP3   OH224080   5.270   6.312   3.641
 8039TIP3    H124081   5.263   6.342   3.551
 8039TIP3    H224082   5.349   6.355   3.675
 8040TIP3   OH224083   5.655   3.239   3.509
 8040TIP3    H124084   5.621   3.294   3.439
 8040TIP3    H224085   5.623   3.280   3.590
 8041TIP3   OH224086   3.271   6.635   3.911
 8041TIP3    H124087   3.306   6.724   3.908
 8041TIP3    H224088   3.191   6.639   3.858
 8042TIP3   OH224089   2.608   4.812   2.773
 8042TIP3    H124090   2.650   4.818   2.859
 8042TIP3    H224091   2.655   4.876   2.720
 8043TIP3   OH224092   0.695   6.712   4.180
 8043TIP3    H124093   0.652   6.760   4.110
 8043TIP3    H224094   0.674   6.761   4.260
 8044TIP3   OH224095   0.312   1.017   3.415
 8044TIP3    H124096   0.301   0.933   3.461
 8044TIP3    H224097   0.225   1.040   3.385
 8045TIP3   OH224098   0.692   5.375   5.448
 8045TIP3    H124099   0.607   5.417   5.439
 8045TIP3    H224100   0.722   5.362   5.358
 8046TIP3   OH224101   5.279   0.350   5.806
 8046TIP3    H124102   5.204   0.401   5.774
 8046TIP3    H224103   5.288   0.375   5.898
 8047TIP3   OH224104   6.569   1.750   0.901
 8047TIP3    H124105   6.607   1.797   0.975
 8047TIP3    H224106   6.566   1.814   0.830
 8048TIP3   OH224107   4.773   5.325   5.630
 8048TIP3    H124108   4.796   5.350   5.540
 8048TIP3    H224109   4.840   5.368   5.684
 8049TIP3   OH224110   6.933   3.367   0.236
 8049TIP3    H124111   6.863   3.323   0.284
 8049TIP3    H224112   6.930   3.458   0.266
 8050TIP3   OH224113   3.098   6.132   0.034
 8050TIP3    H124114   3.165   6.124  -0.034
 8050TIP3    H224115   3.130   6.202   0.090
 8051TIP3   OH224116   5.083   6.052   4.162
 8051TIP3    H124117   5.020   6.094   4.220
 8051TIP3    H224118   5.073   5.958   4.178
 8052TIP3   OH224119   6.080   3.090   2.046
 8052TIP3    H124120   6.115   3.129   2.126
 8052TIP3    H224121   5.985   3.093   2.057
 8053TIP3   OH224122   0.751   0.271   3.614
 8053TIP3    H124123   0.751   0.324   3.534
 8053TIP3    H224124   0.680   0.208   3.601
 8054TIP3   OH224125   5.042   6.498   5.824
 8054TIP3    H124126   4.972   6.496   5.889
 8054TIP3    H224127   5.123   6.495   5.875
 8055TIP3   OH224128   0.172   1.120   1.852
 8055TIP3    H124129   0.175   1.048   1.789
 8055TIP3    H224130   0.253   1.112   1.902
 8056TIP3   OH224131   1.523   4.214   2.762
 8056TIP3    H124132   1.542   4.214   2.856
 8056TIP3    H224133   1.429   4.230   2.757
 8057TIP3   OH224134   0.859   0.722   4.741
 8057TIP3    H124135   0.781   0.725   4.687
 8057TIP3    H224136   0.851   0.640   4.791
 8058TIP3   OH224137   6.928   5.478   4.256
 8058TIP3    H124138   6.865   5.463   4.186
 8058TIP3    H224139   7.005   5.514   4.211
 8059TIP3   OH224140   0.538   6.080   3.251
 8059TIP3    H124141   0.556   6.027   3.173
 8059TIP3    H224142   0.607   6.056   3.312
 8060TIP3   OH224143   0.892   0.670   0.123
 8060TIP3    H124144   0.888   0.630   0.037
 8060TIP3    H224145   0.960   0.737   0.116
 8061TIP3   OH224146   6.384   5.790   0.317
 8061TIP3    H124147   6.400   5.829   0.231
 8061TIP3    H224148   6.394   5.864   0.378
 8062TIP3   OH224149   2.055   2.406   3.725
 8062TIP3    H124150   2.105   2.367   3.653
 8062TIP3    H224151   2.117   2.464   3.768
 8063TIP3   OH224152   6.766   6.246   2.857
 8063TIP3    H124153   6.750   6.159   2.821
 8063TIP3    H224154   6.821   6.290   2.793
 8064TIP3   OH224155   0.759   4.578   3.743
 8064TIP3    H124156   0.746   4.639   3.670
 8064TIP3    H224157   0.854   4.576   3.755
 8065TIP3   OH224158   3.512   4.501   2.633
 8065TIP3    H124159   3.525   4.414   2.670
 8065TIP3    H224160   3.473   4.552   2.704
 8066TIP3   OH224161   2.939   4.737   4.441
 8066TIP3    H124162   2.878   4.663   4.445
 8066TIP3    H224163   2.897   4.805   4.495
 8067TIP3   OH224164   6.648   6.463   4.448
 8067TIP3    H124165   6.605   6.413   4.518
 8067TIP3    H224166   6.707   6.523   4.494
 8068TIP3   OH224167   4.437   1.095   0.753
 8068TIP3    H124168   4.360   1.039   0.743
 8068TIP3    H224169   4.451   1.132   0.666
 8069TIP3   OH224170   2.014   1.627   1.399
 8069TIP3    H124171   2.021   1.669   1.313
 8069TIP3    H224172   1.927   1.588   1.399
 8070TIP3   OH224173   1.524   6.655   5.163
 8070TIP3    H124174   1.550   6.722   5.101
 8070TIP3    H224175   1.594   6.653   5.228
 8071TIP3   OH224176   4.147   0.929   1.139
 8071TIP3    H124177   4.158   0.859   1.074
 8071TIP3    H224178   4.235   0.962   1.154
 8072TIP3   OH224179   3.161   2.589   0.355
 8072TIP3    H124180   3.119   2.584   0.269
 8072TIP3    H224181   3.224   2.517   0.354
 8073TIP3   OH224182   0.701   5.766   5.839
 8073TIP3    H124183   0.716   5.834   5.773
 8073TIP3    H224184   0.760   5.695   5.813
 8074TIP3   OH224185   6.891   0.945   0.536
 8074TIP3    H124186   6.819   0.995   0.497
 8074TIP3    H224187   6.962   0.951   0.473
 8075TIP3   OH224188   0.409   5.107   2.508
 8075TIP3    H124189   0.344   5.038   2.521
 8075TIP3    H224190   0.453   5.115   2.593
 8076TIP3   OH224191   1.916   1.482   5.709
 8076TIP3    H124192   1.942   1.492   5.801
 8076TIP3    H224193   1.846   1.547   5.697
 8077TIP3   OH224194   3.986   3.776   5.119
 8077TIP3    H124195   4.051   3.731   5.174
 8077TIP3    H224196   3.907   3.723   5.128
 8078TIP3   OH224197   0.097   5.901   5.839
 8078TIP3    H124198   0.004   5.904   5.814
 8078TIP3    H224199   0.112   5.810   5.865
 8079TIP3   OH224200   3.973   2.160   3.619
 8079TIP3    H124201   3.945   2.121   3.702
 8079TIP3    H224202   4.045   2.218   3.643
 8080TIP3   OH224203   0.597   1.172   3.747
 8080TIP3    H124204   0.608   1.078   3.734
 8080TIP3    H224205   0.686   1.204   3.765
 8081TIP3   OH224206   1.415   0.513   3.044
 8081TIP3    H124207   1.390   0.605   3.038
 8081TIP3    H224208   1.493   0.505   2.989
 8082TIP3   OH224209   0.572   3.840   2.147
 8082TIP3    H124210   0.630   3.771   2.177
 8082TIP3    H224211   0.592   3.850   2.055
 8083TIP3   OH224212   3.844   3.036   0.622
 8083TIP3    H124213   3.883   3.122   0.603
 8083TIP3    H224214   3.892   3.005   0.698
 8084TIP3   OH224215   2.566   1.556   2.492
 8084TIP3    H124216   2.564   1.477   2.438
 8084TIP3    H224217   2.587   1.524   2.580
 8085TIP3   OH224218   6.537   3.104   4.959
 8085TIP3    H124219   6.488   3.184   4.942
 8085TIP3    H224220   6.489   3.036   4.911
 8086TIP3   OH224221   1.232   5.123   2.034
 8086TIP3    H124222   1.174   5.076   2.094
 8086TIP3    H224223   1.308   5.145   2.087
 8087TIP3   OH224224   1.055   2.271   4.311
 8087TIP3    H124225   1.139   2.301   4.275
 8087TIP3    H224226   1.079   2.204   4.375
 8088TIP3   OH224227   4.493   2.552   3.959
 8088TIP3    H124228   4.398   2.546   3.968
 8088TIP3    H224229   4.522   2.588   4.043
 8089TIP3   OH224230   0.269   5.536   3.690
 8089TIP3    H124231   0.341   5.488   3.650
 8089TIP3    H224232   0.247   5.485   3.768
 8090TIP3   OH224233   2.726   1.289   2.942
 8090TIP3    H124234   2.812   1.321   2.973
 8090TIP3    H224235   2.737   1.194   2.936
 8091TIP3   OH224236   4.937   3.685   4.927
 8091TIP3    H124237   4.911   3.679   4.835
 8091TIP3    H224238   4.868   3.736   4.969
 8092TIP3   OH224239   5.262   6.409   2.647
 8092TIP3    H124240   5.194   6.461   2.604
 8092TIP3    H224241   5.280   6.457   2.728
 8093TIP3   OH224242   5.643   4.142   4.196
 8093TIP3    H124243   5.559   4.163   4.236
 8093TIP3    H224244   5.625   4.137   4.103
 8094TIP3   OH224245   5.020   5.652   1.529
 8094TIP3    H124246   4.924   5.651   1.532
 8094TIP3    H224247   5.043   5.744   1.512
 8095TIP3   OH224248   6.516   3.055   3.872
 8095TIP3    H124249   6.472   3.021   3.794
 8095TIP3    H224250   6.602   3.082   3.841
 8096TIP3   OH224251   3.983   0.652   2.885
 8096TIP3    H124252   3.905   0.703   2.863
 8096TIP3    H224253   3.949   0.565   2.906
 8097TIP3   OH224254   6.654   1.691   5.707
 8097TIP3    H124255   6.697   1.720   5.788
 8097TIP3    H224256   6.581   1.751   5.696
 8098TIP3   OH224257   6.509   0.411   1.550
 8098TIP3    H124258   6.604   0.402   1.554
 8098TIP3    H224259   6.483   0.354   1.478
 8099TIP3   OH224260   0.346   0.763   4.526
 8099TIP3    H124261   0.379   0.728   4.443
 8099TIP3    H224262   0.283   0.698   4.557
 8100TIP3   OH224263   6.779   0.479   4.466
 8100TIP3    H124264   6.828   0.426   4.403
 8100TIP3    H224265   6.698   0.502   4.420
 8101TIP3   OH224266   5.747   2.206   1.178
 8101TIP3    H124267   5.699   2.146   1.235
 8101TIP3    H224268   5.683   2.274   1.155
 8102TIP3   OH224269   6.132   6.563   1.149
 8102TIP3    H124270   6.116   6.562   1.055
 8102TIP3    H224271   6.146   6.655   1.171
 8103TIP3   OH224272   2.785   4.404   1.778
 8103TIP3    H124273   2.777   4.375   1.687
 8103TIP3    H224274   2.780   4.323   1.829
 8104TIP3   OH224275   5.407   3.497   2.838
 8104TIP3    H124276   5.407   3.498   2.934
 8104TIP3    H224277   5.334   3.440   2.815
 8105TIP3   OH224278   0.089   6.764   5.535
 8105TIP3    H124279   0.092   6.779   5.440
 8105TIP3    H224280   0.133   6.680   5.548
 8106TIP3   OH224281   1.468   1.527   1.571
 8106TIP3    H124282   1.473   1.596   1.505
 8106TIP3    H224283   1.452   1.573   1.653
 8107TIP3   OH224284   5.049   1.910   3.016
 8107TIP3    H124285   4.970   1.927   2.963
 8107TIP3    H224286   5.057   1.815   3.015
 8108TIP3   OH224287   5.499   4.771   5.359
 8108TIP3    H124288   5.585   4.809   5.373
 8108TIP3    H224289   5.438   4.845   5.367
 8109TIP3   OH224290   4.389   2.901   0.295
 8109TIP3    H124291   4.373   2.807   0.283
 8109TIP3    H224292   4.475   2.906   0.336
 8110TIP3   OH224293   4.004   4.238   2.930
 8110TIP3    H124294   3.947   4.180   2.881
 8110TIP3    H224295   4.087   4.236   2.884
 8111TIP3   OH224296   0.171   4.779   0.411
 8111TIP3    H124297   0.106   4.805   0.475
 8111TIP3    H224298   0.220   4.859   0.392
 8112TIP3   OH224299   0.895   4.124   1.103
 8112TIP3    H124300   0.940   4.055   1.054
 8112TIP3    H224301   0.834   4.077   1.161
 8113TIP3   OH224302   6.584   1.657   3.790
 8113TIP3    H124303   6.586   1.739   3.839
 8113TIP3    H224304   6.539   1.595   3.847
 8114TIP3   OH224305   2.384   5.510   5.179
 8114TIP3    H124306   2.462   5.559   5.151
 8114TIP3    H224307   2.391   5.505   5.274
 8115TIP3   OH224308   4.964   6.332   5.621
 8115TIP3    H124309   5.029   6.391   5.659
 8115TIP3    H224310   4.892   6.333   5.683
 8116TIP3   OH224311   0.645   0.169   5.688
 8116TIP3    H124312   0.673   0.247   5.641
 8116TIP3    H224313   0.594   0.119   5.624
 8117TIP3   OH224314   6.737   3.242   2.194
 8117TIP3    H124315   6.663   3.303   2.196
 8117TIP3    H224316   6.767   3.244   2.103
 8118TIP3   OH224317   5.631   1.959   2.610
 8118TIP3    H124318   5.633   2.051   2.636
 8118TIP3    H224319   5.606   1.912   2.689
 8119TIP3   OH224320   1.149   1.259   0.780
 8119TIP3    H124321   1.232   1.234   0.820
 8119TIP3    H224322   1.137   1.351   0.804
 8120TIP3   OH224323   6.068   1.445   2.029
 8120TIP3    H124324   6.106   1.368   1.985
 8120TIP3    H224325   6.027   1.409   2.107
 8121TIP3   OH224326   4.818   2.821   2.869
 8121TIP3    H124327   4.816   2.877   2.791
 8121TIP3    H224328   4.825   2.882   2.942
 8122TIP3   OH224329   0.139   3.644   1.727
 8122TIP3    H124330   0.047   3.651   1.753
 8122TIP3    H224331   0.150   3.710   1.659
 8123TIP3   OH224332   5.373   4.321   0.107
 8123TIP3    H124333   5.440   4.371   0.060
 8123TIP3    H224334   5.415   4.239   0.129
 8124TIP3   OH224335   5.349   1.629   1.692
 8124TIP3    H124336   5.431   1.625   1.643
 8124TIP3    H224337   5.290   1.568   1.647
 8125TIP3   OH224338   2.698   3.336   4.593
 8125TIP3    H124339   2.653   3.395   4.653
 8125TIP3    H224340   2.720   3.391   4.518
 8126TIP3   OH224341   5.897   1.415   0.844
 8126TIP3    H124342   5.840   1.408   0.768
 8126TIP3    H224343   5.837   1.409   0.919
 8127TIP3   OH224344   3.285   5.763   3.228
 8127TIP3    H124345   3.297   5.687   3.171
 8127TIP3    H224346   3.353   5.825   3.201
 8128TIP3   OH224347   4.799   1.532   3.717
 8128TIP3    H124348   4.850   1.558   3.640
 8128TIP3    H224349   4.720   1.586   3.713
 8129TIP3   OH224350   1.276   0.796   3.013
 8129TIP3    H124351   1.343   0.811   3.080
 8129TIP3    H224352   1.272   0.879   2.965
 8130TIP3   OH224353   7.037   0.001   2.140
 8130TIP3    H124354   7.063   0.064   2.072
 8130TIP3    H224355   7.063   0.043   2.222
 8131TIP3   OH224356   4.799   2.408   3.836
 8131TIP3    H124357   4.814   2.407   3.930
 8131TIP3    H224358   4.884   2.426   3.797
 8132TIP3   OH224359   6.549   5.793   2.594
 8132TIP3    H124360   6.562   5.780   2.500
 8132TIP3    H224361   6.501   5.715   2.623
 8133TIP3   OH224362   4.891   3.158   1.883
 8133TIP3    H124363   4.858   3.069   1.893
 8133TIP3    H224364   4.949   3.171   1.958
 8134TIP3   OH224365   1.218   2.199   5.586
 8134TIP3    H124366   1.187   2.228   5.500
 8134TIP3    H224367   1.141   2.206   5.643
 8135TIP3   OH224368   3.957   0.568   5.375
 8135TIP3    H124369   3.900   0.496   5.348
 8135TIP3    H224370   3.933   0.641   5.318
 8136TIP3   OH224371   5.313   5.680   4.254
 8136TIP3    H124372   5.382   5.746   4.261
 8136TIP3    H224373   5.350   5.603   4.298
 8137TIP3   OH224374   0.140   4.736   4.468
 8137TIP3    H124375   0.081   4.660   4.468
 8137TIP3    H224376   0.110   4.790   4.395
 8138TIP3   OH224377   3.379   2.122   3.616
 8138TIP3    H124378   3.304   2.168   3.577
 8138TIP3    H224379   3.370   2.031   3.586
 8139TIP3   OH224380   0.134   5.540   4.776
 8139TIP3    H124381   0.096   5.501   4.697
 8139TIP3    H224382   0.154   5.630   4.750
 8140TIP3   OH224383   7.090   3.015   1.960
 8140TIP3    H124384   7.097   3.015   2.055
 8140TIP3    H224385   7.016   2.957   1.941
 8141TIP3   OH224386   1.012   5.408   4.462
 8141TIP3    H124387   1.063   5.468   4.516
 8141TIP3    H224388   0.934   5.388   4.515
 8142TIP3   OH224389   2.168   5.298   3.451
 8142TIP3    H124390   2.240   5.289   3.389
 8142TIP3    H224391   2.150   5.210   3.481
 8143TIP3   OH224392   3.937   1.375   2.761
 8143TIP3    H124393   3.882   1.330   2.825
 8143TIP3    H224394   3.908   1.466   2.764
 8144TIP3   OH224395   7.039   4.936   1.724
 8144TIP3    H124396   6.951   4.964   1.701
 8144TIP3    H224397   7.052   4.967   1.813
 8145TIP3   OH224398   6.294   1.514   0.080
 8145TIP3    H124399   6.293   1.461   0.000
 8145TIP3    H224400   6.215   1.487   0.127
 8146TIP3   OH224401   5.000   1.672   5.655
 8146TIP3    H124402   5.008   1.766   5.666
 8146TIP3    H224403   5.090   1.640   5.650
 8147TIP3   OH224404   6.625   5.224   1.944
 8147TIP3    H124405   6.660   5.262   1.863
 8147TIP3    H224406   6.530   5.233   1.935
 8148TIP3   OH224407   2.855   1.775   2.415
 8148TIP3    H124408   2.877   1.826   2.493
 8148TIP3    H224409   2.872   1.684   2.440
 8149TIP3   OH224410   2.940   2.429   2.509
 8149TIP3    H124411   2.846   2.409   2.515
 8149TIP3    H224412   2.952   2.457   2.418
 8150TIP3   OH224413   0.493   3.835   3.214
 8150TIP3    H124414   0.516   3.807   3.303
 8150TIP3    H224415   0.520   3.761   3.159
 8151TIP3   OH224416   0.710   1.919   0.195
 8151TIP3    H124417   0.674   1.833   0.217
 8151TIP3    H224418   0.805   1.910   0.207
 8152TIP3   OH224419   5.293   5.126   1.754
 8152TIP3    H124420   5.370   5.182   1.745
 8152TIP3    H224421   5.251   5.156   1.835
 8153TIP3   OH224422   3.029   6.727   1.872
 8153TIP3    H124423   3.085   6.702   1.799
 8153TIP3    H224424   3.003   6.817   1.853
 8154TIP3   OH224425   6.538   1.369   1.710
 8154TIP3    H124426   6.528   1.431   1.637
 8154TIP3    H224427   6.609   1.405   1.763
 8155TIP3   OH224428   6.381   0.469   3.483
 8155TIP3    H124429   6.437   0.465   3.561
 8155TIP3    H224430   6.353   0.561   3.479
 8156TIP3   OH224431   5.795   2.324   4.438
 8156TIP3    H124432   5.747   2.353   4.516
 8156TIP3    H224433   5.887   2.337   4.460
 8157TIP3   OH224434   1.809   5.075   2.007
 8157TIP3    H124435   1.848   5.034   1.929
 8157TIP3    H224436   1.882   5.117   2.052
 8158TIP3   OH224437   4.031   0.938   0.432
 8158TIP3    H124438   4.116   0.978   0.450
 8158TIP3    H224439   3.975   1.010   0.402
 8159TIP3   OH224440   2.581   2.948   4.737
 8159TIP3    H124441   2.530   2.898   4.674
 8159TIP3    H224442   2.625   3.015   4.685
 8160TIP3   OH224443   4.567   5.490   3.206
 8160TIP3    H124444   4.574   5.584   3.186
 8160TIP3    H224445   4.515   5.454   3.134
 8161TIP3   OH224446   3.818   3.959   3.096
 8161TIP3    H124447   3.828   3.876   3.142
 8161TIP3    H224448   3.892   3.962   3.036
 8162TIP3   OH224449   3.202   3.208   3.013
 8162TIP3    H124450   3.261   3.214   2.938
 8162TIP3    H224451   3.253   3.240   3.087
 8163TIP3   OH224452   1.646   5.268   0.164
 8163TIP3    H124453   1.584   5.294   0.231
 8163TIP3    H224454   1.718   5.331   0.172
 8164TIP3   OH224455   4.236   3.938   2.880
 8164TIP3    H124456   4.297   3.869   2.855
 8164TIP3    H224457   4.290   4.017   2.885
 8165TIP3   OH224458   3.408   4.805   3.960
 8165TIP3    H124459   3.367   4.771   3.880
 8165TIP3    H224460   3.501   4.783   3.950
 8166TIP3   OH224461   4.706   2.959   0.695
 8166TIP3    H124462   4.794   2.953   0.730
 8166TIP3    H224463   4.657   3.010   0.759
 8167TIP3   OH224464   0.196   0.482   3.446
 8167TIP3    H124465   0.160   0.538   3.514
 8167TIP3    H224466   0.214   0.398   3.490
 8168TIP3   OH224467   1.784   0.308   0.334
 8168TIP3    H124468   1.696   0.304   0.372
 8168TIP3    H224469   1.842   0.280   0.405
 8169TIP3   OH224470   3.443   3.926   2.841
 8169TIP3    H124471   3.520   3.881   2.876
 8169TIP3    H224472   3.421   3.878   2.761
 8170TIP3   OH224473   0.005   1.887   4.368
 8170TIP3    H124474   0.089   1.932   4.369
 8170TIP3    H224475   0.009   1.826   4.442
 8171TIP3   OH224476   6.620   4.759   2.782
 8171TIP3    H124477   6.617   4.666   2.761
 8171TIP3    H224478   6.598   4.803   2.700
 8172TIP3   OH224479   1.064   5.274   3.170
 8172TIP3    H124480   1.100   5.220   3.100
 8172TIP3    H224481   1.035   5.354   3.126
 8173TIP3   OH224482   2.433   6.691   1.754
 8173TIP3    H124483   2.367   6.760   1.753
 8173TIP3    H224484   2.467   6.690   1.665
 8174TIP3   OH224485   3.939   5.689   5.049
 8174TIP3    H124486   3.989   5.744   5.110
 8174TIP3    H224487   3.878   5.749   5.006
 8175TIP3   OH224488   0.493   4.375   4.430
 8175TIP3    H124489   0.431   4.365   4.358
 8175TIP3    H224490   0.513   4.285   4.457
 8176TIP3   OH224491   3.799   2.828   2.516
 8176TIP3    H124492   3.774   2.855   2.604
 8176TIP3    H224493   3.887   2.862   2.504
 8177TIP3   OH224494   5.916   2.212   2.091
 8177TIP3    H124495   5.856   2.150   2.050
 8177TIP3    H224496   6.002   2.187   2.059
 8178TIP3   OH224497   2.811   4.257   2.843
 8178TIP3    H124498   2.763   4.185   2.801
 8178TIP3    H224499   2.869   4.214   2.905
 8179TIP3   OH224500   6.928   3.864   3.183
 8179TIP3    H124501   7.007   3.845   3.233
 8179TIP3    H224502   6.859   3.817   3.228
 8180TIP3   OH224503   5.605   2.253   1.842
 8180TIP3    H124504   5.668   2.184   1.863
 8180TIP3    H224505   5.535   2.241   1.907
 8181TIP3   OH224506   4.451   4.299   5.755
 8181TIP3    H124507   4.469   4.233   5.822
 8181TIP3    H224508   4.436   4.248   5.676
 8182TIP3   OH224509   4.030   5.925   4.496
 8182TIP3    H124510   4.070   6.012   4.493
 8182TIP3    H224511   4.102   5.866   4.519
 8183TIP3   OH224512   0.513   6.725   5.221
 8183TIP3    H124513   0.547   6.806   5.183
 8183TIP3    H224514   0.448   6.754   5.285
 8184TIP3   OH224515   3.510   1.732   2.377
 8184TIP3    H124516   3.589   1.684   2.403
 8184TIP3    H224517   3.467   1.674   2.315
 8185TIP3   OH224518   1.302   0.543   3.872
 8185TIP3    H124519   1.337   0.519   3.787
 8185TIP3    H224520   1.236   0.476   3.891
 8186TIP3   OH224521   3.926   5.293   2.367
 8186TIP3    H124522   3.940   5.234   2.441
 8186TIP3    H224523   4.004   5.281   2.312
 8187TIP3   OH224524   6.863   4.628   2.930
 8187TIP3    H124525   6.832   4.549   2.886
 8187TIP3    H224526   6.880   4.600   3.020
 8188TIP3   OH224527   2.569   1.104   4.326
 8188TIP3    H124528   2.497   1.044   4.346
 8188TIP3    H224529   2.648   1.052   4.339
 8189TIP3   OH224530   5.136   2.983   1.296
 8189TIP3    H124531   5.225   2.958   1.273
 8189TIP3    H224532   5.126   3.072   1.261
 8190TIP3   OH224533  -0.020   3.691   3.733
 8190TIP3    H124534   0.015   3.701   3.822
 8190TIP3    H224535   0.037   3.747   3.679
 8191TIP3   OH224536   1.267   3.095   4.610
 8191TIP3    H124537   1.190   3.042   4.630
 8191TIP3    H224538   1.232   3.181   4.586
 8192TIP3   OH224539   5.523   4.613   5.755
 8192TIP3    H124540   5.566   4.536   5.791
 8192TIP3    H224541   5.436   4.582   5.728
 8193TIP3   OH224542   4.024   0.843   4.799
 8193TIP3    H124543   4.065   0.886   4.723
 8193TIP3    H224544   3.975   0.913   4.842
 8194TIP3   OH224545   5.367   6.556   3.215
 8194TIP3    H124546   5.317   6.564   3.134
 8194TIP3    H224547   5.443   6.612   3.203
 8195TIP3   OH224548   6.049   1.890   0.185
 8195TIP3    H124549   5.986   1.850   0.125
 8195TIP3    H224550   6.119   1.922   0.128
 8196TIP3   OH224551   4.750   5.567   0.457
 8196TIP3    H124552   4.720   5.554   0.547
 8196TIP3    H224553   4.816   5.636   0.463
 8197TIP3   OH224554   4.595   1.446   5.431
 8197TIP3    H124555   4.547   1.375   5.475
 8197TIP3    H224556   4.640   1.403   5.358
 8198TIP3   OH224557   0.237   3.641   2.403
 8198TIP3    H124558   0.293   3.718   2.409
 8198TIP3    H224559   0.156   3.666   2.446
 8199TIP3   OH224560   6.337   3.370   3.456
 8199TIP3    H124561   6.385   3.310   3.399
 8199TIP3    H224562   6.301   3.436   3.397
 8200TIP3   OH224563   2.161   3.502   4.099
 8200TIP3    H124564   2.184   3.418   4.138
 8200TIP3    H224565   2.167   3.487   4.004
 8201TIP3   OH224566   2.348   2.296   5.696
 8201TIP3    H124567   2.353   2.348   5.616
 8201TIP3    H224568   2.324   2.359   5.764
 8202TIP3   OH224569   5.871   4.709   2.940
 8202TIP3    H124570   5.927   4.640   2.977
 8202TIP3    H224571   5.897   4.714   2.848
 8203TIP3   OH224572   2.524   4.184   1.747
 8203TIP3    H124573   2.484   4.267   1.723
 8203TIP3    H224574   2.479   4.157   1.826
 8204TIP3   OH224575   5.176   0.679   2.550
 8204TIP3    H124576   5.164   0.656   2.458
 8204TIP3    H224577   5.243   0.748   2.550
 8205TIP3   OH224578   1.242   6.433   0.448
 8205TIP3    H124579   1.173   6.366   0.445
 8205TIP3    H224580   1.303   6.407   0.379
 8206TIP3   OH224581   5.038   0.764   5.623
 8206TIP3    H124582   5.072   0.728   5.705
 8206TIP3    H224583   4.987   0.693   5.585
 8207TIP3   OH224584   0.198   0.941   1.052
 8207TIP3    H124585   0.177   0.852   1.024
 8207TIP3    H224586   0.115   0.976   1.086
 8208TIP3   OH224587   3.279   4.968   3.637
 8208TIP3    H124588   3.235   5.053   3.635
 8208TIP3    H224589   3.369   4.988   3.609
 8209TIP3   OH224590   2.527   4.999   4.158
 8209TIP3    H124591   2.563   5.079   4.197
 8209TIP3    H224592   2.521   4.937   4.231
 8210TIP3   OH224593   6.057   0.149   1.676
 8210TIP3    H124594   6.004   0.172   1.600
 8210TIP3    H224595   6.017   0.068   1.708
 8211TIP3   OH224596   3.237   6.092   4.377
 8211TIP3    H124597   3.215   6.162   4.314
 8211TIP3    H224598   3.215   6.011   4.331
 8212TIP3   OH224599   6.693   1.030   1.938
 8212TIP3    H124600   6.717   0.950   1.985
 8212TIP3    H224601   6.652   0.999   1.857
 8213TIP3   OH224602   3.232   3.921   0.296
 8213TIP3    H124603   3.309   3.968   0.329
 8213TIP3    H224604   3.261   3.884   0.212
 8214TIP3   OH224605   4.751   5.535   1.886
 8214TIP3    H124606   4.663   5.553   1.921
 8214TIP3    H224607   4.798   5.617   1.897
 8215TIP3   OH224608   1.894   5.420   1.203
 8215TIP3    H124609   1.976   5.381   1.234
 8215TIP3    H224610   1.907   5.514   1.214
 8216TIP3   OH224611   3.587   6.138   0.087
 8216TIP3    H124612   3.547   6.137   0.174
 8216TIP3    H224613   3.674   6.176   0.101
 8217TIP3   OH224614   5.444   4.250   0.809
 8217TIP3    H124615   5.399   4.262   0.892
 8217TIP3    H224616   5.374   4.238   0.745
 8218TIP3   OH224617   6.772   3.775   0.682
 8218TIP3    H124618   6.761   3.870   0.675
 8218TIP3    H224619   6.792   3.746   0.593
 8219TIP3   OH224620   0.292   1.789   0.589
 8219TIP3    H124621   0.227   1.722   0.570
 8219TIP3    H224622   0.370   1.740   0.615
 8220TIP3   OH224623   2.927   4.476   5.081
 8220TIP3    H124624   2.941   4.570   5.086
 8220TIP3    H224625   2.845   4.462   5.129
 8221TIP3   OH224626   3.843   5.194   2.100
 8221TIP3    H124627   3.915   5.237   2.054
 8221TIP3    H224628   3.840   5.237   2.185
 8222TIP3   OH224629   2.236   3.273   4.981
 8222TIP3    H124630   2.167   3.300   5.042
 8222TIP3    H224631   2.253   3.182   5.004
 8223TIP3   OH224632   5.301   5.027   3.807
 8223TIP3    H124633   5.278   5.120   3.806
 8223TIP3    H224634   5.269   4.995   3.891
 8224TIP3   OH224635   3.077   6.194   3.321
 8224TIP3    H124636   3.054   6.167   3.232
 8224TIP3    H224637   3.170   6.172   3.329
 8225TIP3   OH224638   2.329   3.420   0.705
 8225TIP3    H124639   2.276   3.349   0.670
 8225TIP3    H224640   2.299   3.430   0.796
 8226TIP3   OH224641   5.878   2.654   2.916
 8226TIP3    H124642   5.801   2.638   2.970
 8226TIP3    H224643   5.948   2.604   2.958
 8227TIP3   OH224644   6.485   4.222   2.079
 8227TIP3    H124645   6.499   4.169   2.157
 8227TIP3    H224646   6.539   4.181   2.012
 8228TIP3   OH224647   4.471   5.795   0.785
 8228TIP3    H124648   4.476   5.890   0.779
 8228TIP3    H224649   4.431   5.768   0.703
 8229TIP3   OH224650   2.220   2.857   5.375
 8229TIP3    H124651   2.278   2.819   5.309
 8229TIP3    H224652   2.132   2.840   5.343
 8230TIP3   OH224653   6.560   1.999   2.771
 8230TIP3    H124654   6.640   2.023   2.724
 8230TIP3    H224655   6.511   2.080   2.779
 8231TIP3   OH224656   2.590   2.141   5.380
 8231TIP3    H124657   2.616   2.050   5.365
 8231TIP3    H224658   2.503   2.134   5.420
 8232TIP3   OH224659   1.387   5.114   4.714
 8232TIP3    H124660   1.449   5.185   4.702
 8232TIP3    H224661   1.355   5.095   4.626
 8233TIP3   OH224662   2.238   1.624   4.414
 8233TIP3    H124663   2.295   1.552   4.387
 8233TIP3    H224664   2.150   1.596   4.388
 8234TIP3   OH224665   2.287   0.624   1.125
 8234TIP3    H124666   2.250   0.563   1.188
 8234TIP3    H224667   2.382   0.606   1.127
 8235TIP3   OH224668   2.742   3.892   4.988
 8235TIP3    H124669   2.658   3.846   4.988
 8235TIP3    H224670   2.772   3.886   5.079
 8236TIP3   OH224671   7.044   0.533   1.360
 8236TIP3    H124672   6.977   0.536   1.428
 8236TIP3    H224673   7.009   0.473   1.294
 8237TIP3   OH224674   0.690   3.602   5.480
 8237TIP3    H124675   0.772   3.556   5.458
 8237TIP3    H224676   0.664   3.565   5.565
 8238TIP3   OH224677   5.666   3.787   4.943
 8238TIP3    H124678   5.732   3.818   5.005
 8238TIP3    H224679   5.589   3.841   4.962
 8239TIP3   OH224680   6.387   6.566   1.631
 8239TIP3    H124681   6.369   6.623   1.706
 8239TIP3    H224682   6.300   6.547   1.594
 8240TIP3   OH224683   0.824   2.651   5.683
 8240TIP3    H124684   0.918   2.641   5.666
 8240TIP3    H224685   0.782   2.619   5.604
 8241TIP3   OH224686   5.587   6.229   2.534
 8241TIP3    H124687   5.530   6.152   2.535
 8241TIP3    H224688   5.543   6.291   2.476
 8242TIP3   OH224689   1.530   3.325   2.691
 8242TIP3    H124690   1.524   3.289   2.779
 8242TIP3    H224691   1.613   3.372   2.691
 8243TIP3   OH224692   3.857   4.574   5.020
 8243TIP3    H124693   3.821   4.518   5.089
 8243TIP3    H224694   3.811   4.548   4.941
 8244TIP3   OH224695   0.392   4.934   0.546
 8244TIP3    H124696   0.412   4.843   0.570
 8244TIP3    H224697   0.458   4.957   0.481
 8245TIP3   OH224698   3.554   6.436   0.235
 8245TIP3    H124699   3.571   6.407   0.146
 8245TIP3    H224700   3.520   6.526   0.226
 8246TIP3   OH224701   4.720   1.802   1.579
 8246TIP3    H124702   4.803   1.802   1.531
 8246TIP3    H224703   4.670   1.731   1.540
 8247TIP3   OH224704   1.470   6.242   2.616
 8247TIP3    H124705   1.409   6.169   2.629
 8247TIP3    H224706   1.417   6.320   2.629
 8248TIP3   OH224707   0.691   3.996   3.953
 8248TIP3    H124708   0.652   4.002   4.041
 8248TIP3    H224709   0.633   4.049   3.898
 8249TIP3   OH224710   0.620   1.273   5.186
 8249TIP3    H124711   0.631   1.345   5.248
 8249TIP3    H224712   0.570   1.206   5.233
 8250TIP3   OH224713   2.850   3.857   3.358
 8250TIP3    H124714   2.871   3.892   3.444
 8250TIP3    H224715   2.798   3.926   3.316
 8251TIP3   OH224716   3.489   5.761   2.982
 8251TIP3    H124717   3.492   5.829   2.915
 8251TIP3    H224718   3.404   5.718   2.969
 8252TIP3   OH224719   0.484   3.152   2.908
 8252TIP3    H124720   0.424   3.221   2.938
 8252TIP3    H224721   0.478   3.155   2.813
 8253TIP3   OH224722   2.449   1.763   2.103
 8253TIP3    H124723   2.446   1.676   2.063
 8253TIP3    H224724   2.513   1.754   2.174
 8254TIP3   OH224725  -0.040   2.325   3.494
 8254TIP3    H124726   0.018   2.250   3.505
 8254TIP3    H224727  -0.019   2.358   3.406
 8255TIP3   OH224728   1.001   6.283   1.896
 8255TIP3    H124729   0.973   6.371   1.923
 8255TIP3    H224730   1.084   6.269   1.941
 8256TIP3   OH224731   1.775   5.029   5.168
 8256TIP3    H124732   1.714   5.051   5.098
 8256TIP3    H224733   1.720   4.992   5.238
 8257TIP3   OH224734   0.111   6.690   3.022
 8257TIP3    H124735   0.105   6.712   3.115
 8257TIP3    H224736   0.188   6.633   3.015
 8258TIP3   OH224737   3.864   3.756   1.114
 8258TIP3    H124738   3.940   3.769   1.059
 8258TIP3    H224739   3.806   3.829   1.094
 8259TIP3   OH224740   4.018   3.058   0.169
 8259TIP3    H124741   3.939   3.105   0.194
 8259TIP3    H224742   4.089   3.102   0.215
 8260TIP3   OH224743   2.942   4.343   4.396
 8260TIP3    H124744   3.029   4.318   4.367
 8260TIP3    H224745   2.957   4.404   4.469
 8261TIP3   OH224746   4.121   2.531   3.128
 8261TIP3    H124747   4.094   2.507   3.039
 8261TIP3    H224748   4.213   2.554   3.120
 8262TIP3   OH224749   4.571   0.505   3.099
 8262TIP3    H124750   4.569   0.593   3.061
 8262TIP3    H224751   4.498   0.459   3.056
 8263TIP3   OH224752   1.817   1.117   5.255
 8263TIP3    H124753   1.767   1.167   5.319
 8263TIP3    H224754   1.852   1.184   5.195
 8264TIP3   OH224755   2.954   3.041   3.651
 8264TIP3    H124756   2.877   3.064   3.598
 8264TIP3    H224757   3.000   2.975   3.598
 8265TIP3   OH224758   4.220   0.423   1.503
 8265TIP3    H124759   4.149   0.455   1.446
 8265TIP3    H224760   4.199   0.331   1.517
 8266TIP3   OH224761   1.832   0.402   4.484
 8266TIP3    H124762   1.859   0.412   4.393
 8266TIP3    H224763   1.739   0.382   4.480
 8267TIP3   OH224764   5.658   2.139   4.706
 8267TIP3    H124765   5.620   2.201   4.643
 8267TIP3    H224766   5.736   2.184   4.740
 8268TIP3   OH224767   1.737   5.930   0.212
 8268TIP3    H124768   1.795   6.004   0.233
 8268TIP3    H224769   1.662   5.970   0.169
 8269TIP3   OH224770   4.955   6.064   2.287
 8269TIP3    H124771   4.895   6.138   2.285
 8269TIP3    H224772   4.902   5.991   2.321
 8270TIP3   OH224773   5.829   6.091   1.598
 8270TIP3    H124774   5.811   6.176   1.558
 8270TIP3    H224775   5.755   6.036   1.573
 8271TIP3   OH224776   0.417   4.934   4.927
 8271TIP3    H124777   0.358   4.895   4.862
 8271TIP3    H224778   0.366   4.933   5.008
 8272TIP3   OH224779   5.068   1.042   3.828
 8272TIP3    H124780   5.126   1.117   3.812
 8272TIP3    H224781   5.100   0.975   3.768
 8273TIP3   OH224782   5.454   5.410   0.705
 8273TIP3    H124783   5.421   5.499   0.718
 8273TIP3    H224784   5.497   5.412   0.620
 8274TIP3   OH224785   5.701   0.268   1.571
 8274TIP3    H124786   5.727   0.206   1.503
 8274TIP3    H224787   5.619   0.305   1.540
 8275TIP3   OH224788   5.729   6.756   1.960
 8275TIP3    H124789   5.646   6.728   1.999
 8275TIP3    H224790   5.720   6.735   1.867
 8276TIP3   OH224791   0.386   2.103   3.983
 8276TIP3    H124792   0.419   2.191   4.003
 8276TIP3    H224793   0.413   2.087   3.893
 8277TIP3   OH224794   2.145   2.046   3.298
 8277TIP3    H124795   2.239   2.031   3.287
 8277TIP3    H224796   2.106   1.958   3.295
 8278TIP3   OH224797   5.577   4.478   1.921
 8278TIP3    H124798   5.558   4.563   1.883
 8278TIP3    H224799   5.671   4.481   1.941
 8279TIP3   OH224800   2.683   5.802   5.894
 8279TIP3    H124801   2.683   5.767   5.805
 8279TIP3    H224802   2.748   5.873   5.892
 8280TIP3   OH224803   6.326   6.708   3.653
 8280TIP3    H124804   6.416   6.735   3.637
 8280TIP3    H224805   6.308   6.643   3.585
 8281TIP3   OH224806   6.161   4.807   2.908
 8281TIP3    H124807   6.167   4.778   2.817
 8281TIP3    H224808   6.183   4.729   2.959
 8282TIP3   OH224809   0.112   4.281   2.013
 8282TIP3    H124810   0.022   4.276   2.045
 8282TIP3    H224811   0.153   4.350   2.064
 8283TIP3   OH224812   2.681   5.173   3.068
 8283TIP3    H124813   2.639   5.245   3.021
 8283TIP3    H224814   2.706   5.211   3.152
 8284TIP3   OH224815   1.452   1.091   4.367
 8284TIP3    H124816   1.486   1.046   4.290
 8284TIP3    H224817   1.519   1.156   4.388
 8285TIP3   OH224818   6.081   3.386   5.355
 8285TIP3    H124819   6.041   3.381   5.441
 8285TIP3    H224820   6.127   3.470   5.354
 8286TIP3   OH224821   1.485   0.410   1.713
 8286TIP3    H124822   1.523   0.442   1.795
 8286TIP3    H224823   1.416   0.473   1.693
 8287TIP3   OH224824   4.289   4.266   4.230
 8287TIP3    H124825   4.317   4.243   4.141
 8287TIP3    H224826   4.327   4.352   4.245
 8288TIP3   OH224827   6.923   6.240   5.459
 8288TIP3    H124828   6.961   6.231   5.547
 8288TIP3    H224829   6.933   6.333   5.439
 8289TIP3   OH224830   0.523   1.064   3.241
 8289TIP3    H124831   0.465   1.032   3.310
 8289TIP3    H224832   0.504   1.009   3.165
 8290TIP3   OH224833   6.012   1.883   1.973
 8290TIP3    H124834   6.040   1.812   1.915
 8290TIP3    H224835   5.999   1.842   2.058
 8291TIP3   OH224836   1.521   1.446   5.522
 8291TIP3    H124837   1.439   1.427   5.567
 8291TIP3    H224838   1.493   1.491   5.442
 8292TIP3   OH224839   7.009   4.844   5.065
 8292TIP3    H124840   7.001   4.835   5.160
 8292TIP3    H224841   7.098   4.814   5.045
 8293TIP3   OH224842   1.511   5.154   3.757
 8293TIP3    H124843   1.525   5.061   3.741
 8293TIP3    H224844   1.460   5.156   3.838
 8294TIP3   OH224845   5.559   5.128   0.970
 8294TIP3    H124846   5.518   5.048   1.003
 8294TIP3    H224847   5.627   5.097   0.910
 8295TIP3   OH224848   3.258   6.606   5.439
 8295TIP3    H124849   3.277   6.660   5.516
 8295TIP3    H224850   3.276   6.516   5.467
 8296TIP3   OH224851   0.158   1.132   5.713
 8296TIP3    H124852   0.104   1.056   5.693
 8296TIP3    H224853   0.100   1.191   5.761
 8297TIP3   OH224854   7.135   4.200   2.679
 8297TIP3    H124855   7.206   4.211   2.742
 8297TIP3    H224856   7.070   4.266   2.704
 8298TIP3   OH224857   4.839   2.655   3.077
 8298TIP3    H124858   4.810   2.656   2.986
 8298TIP3    H224859   4.869   2.745   3.094
 8299TIP3   OH224860   5.711   3.418   3.982
 8299TIP3    H124861   5.733   3.348   4.044
 8299TIP3    H224862   5.739   3.498   4.026
 8300TIP3   OH224863   0.465   0.700   1.026
 8300TIP3    H124864   0.414   0.732   0.951
 8300TIP3    H224865   0.524   0.634   0.989
 8301TIP3   OH224866   3.990   0.914   1.527
 8301TIP3    H124867   3.964   0.822   1.526
 8301TIP3    H224868   3.992   0.939   1.434
 8302TIP3   OH224869   1.606   3.525   1.522
 8302TIP3    H124870   1.608   3.430   1.523
 8302TIP3    H224871   1.691   3.552   1.557
 8303TIP3   OH224872   2.908   3.509   1.855
 8303TIP3    H124873   2.972   3.578   1.872
 8303TIP3    H224874   2.920   3.487   1.763
 8304TIP3   OH224875   5.241   2.377   1.511
 8304TIP3    H124876   5.333   2.370   1.486
 8304TIP3    H224877   5.242   2.388   1.606
 8305TIP3   OH224878   0.204   5.000   0.206
 8305TIP3    H124879   0.255   5.076   0.175
 8305TIP3    H224880   0.127   4.998   0.148
 8306TIP3   OH224881   0.222   5.038   2.705
 8306TIP3    H124882   0.281   4.985   2.759
 8306TIP3    H224883   0.143   4.985   2.696
 8307TIP3   OH224884   0.866   0.477   4.006
 8307TIP3    H124885   0.904   0.493   3.920
 8307TIP3    H224886   0.880   0.383   4.021
 8308TIP3   OH224887   2.281   2.669   3.540
 8308TIP3    H124888   2.195   2.672   3.497
 8308TIP3    H224889   2.272   2.601   3.606
 8309TIP3   OH224890   4.123   6.285   5.693
 8309TIP3    H124891   4.166   6.316   5.772
 8309TIP3    H224892   4.149   6.347   5.625
 8310TIP3   OH224893   6.682   6.806   0.271
 8310TIP3    H124894   6.643   6.852   0.196
 8310TIP3    H224895   6.618   6.818   0.342
 8311TIP3   OH224896   4.452   3.331   0.861
 8311TIP3    H124897   4.484   3.408   0.813
 8311TIP3    H224898   4.422   3.366   0.945
 8312TIP3   OH224899   3.908   5.204   0.414
 8312TIP3    H124900   3.987   5.247   0.449
 8312TIP3    H224901   3.942   5.129   0.365
 8313TIP3   OH224902   6.800   5.630   3.773
 8313TIP3    H124903   6.741   5.574   3.722
 8313TIP3    H224904   6.804   5.712   3.725
 8314TIP3   OH224905   2.902   6.357   0.456
 8314TIP3    H124906   2.903   6.431   0.517
 8314TIP3    H224907   2.820   6.367   0.408
 8315TIP3   OH224908   4.318   3.583   4.152
 8315TIP3    H124909   4.386   3.546   4.208
 8315TIP3    H224910   4.324   3.532   4.071
 8316TIP3   OH224911   6.841   2.353   5.382
 8316TIP3    H124912   6.847   2.257   5.382
 8316TIP3    H224913   6.931   2.383   5.394
 8317TIP3   OH224914   6.148   0.427   5.529
 8317TIP3    H124915   6.164   0.406   5.621
 8317TIP3    H224916   6.056   0.454   5.526
 8318TIP3   OH224917   6.346   1.824   1.124
 8318TIP3    H124918   6.390   1.829   1.039
 8318TIP3    H224919   6.270   1.882   1.115
 8319TIP3   OH224920   5.391   6.670   4.137
 8319TIP3    H124921   5.338   6.613   4.082
 8319TIP3    H224922   5.466   6.694   4.083
 8320TIP3   OH224923   1.487   3.500   2.955
 8320TIP3    H124924   1.562   3.491   2.897
 8320TIP3    H224925   1.508   3.576   3.011
 8321TIP3   OH224926   1.340   5.026   0.173
 8321TIP3    H124927   1.338   4.973   0.254
 8321TIP3    H224928   1.433   5.045   0.160
 8322TIP3   OH224929   2.720   0.212   3.908
 8322TIP3    H124930   2.768   0.276   3.856
 8322TIP3    H224931   2.689   0.148   3.845
 8323TIP3   OH224932   4.192   5.782   2.077
 8323TIP3    H124933   4.205   5.687   2.080
 8323TIP3    H224934   4.110   5.794   2.028
 8324TIP3   OH224935   2.269   1.791   3.211
 8324TIP3    H124936   2.339   1.856   3.220
 8324TIP3    H224937   2.267   1.772   3.117
 8325TIP3   OH224938   5.530   4.657   2.718
 8325TIP3    H124939   5.596   4.603   2.674
 8325TIP3    H224940   5.566   4.746   2.715
 8326TIP3   OH224941   3.255   5.567   3.002
 8326TIP3    H124942   3.267   5.507   2.928
 8326TIP3    H224943   3.161   5.582   3.006
 8327TIP3   OH224944   1.805   6.735   1.743
 8327TIP3    H124945   1.732   6.698   1.792
 8327TIP3    H224946   1.881   6.721   1.800
 8328TIP3   OH224947   1.255   0.524   1.496
 8328TIP3    H124948   1.321   0.589   1.521
 8328TIP3    H224949   1.281   0.496   1.408
 8329TIP3   OH224950   5.751   1.856   2.367
 8329TIP3    H124951   5.726   1.873   2.458
 8329TIP3    H224952   5.673   1.816   2.328
 8330TIP3   OH224953   0.163   1.870   3.625
 8330TIP3    H124954   0.219   1.814   3.572
 8330TIP3    H224955   0.224   1.930   3.669
 8331TIP3   OH224956   1.142   6.644   1.593
 8331TIP3    H124957   1.114   6.555   1.614
 8331TIP3    H224958   1.166   6.682   1.677
 8332TIP3   OH224959   3.657   0.642   2.063
 8332TIP3    H124960   3.730   0.582   2.049
 8332TIP3    H224961   3.582   0.586   2.079
 8333TIP3   OH224962   5.642   2.030   5.665
 8333TIP3    H124963   5.728   1.993   5.684
 8333TIP3    H224964   5.617   1.992   5.581
 8334TIP3   OH224965   5.944   1.821   3.265
 8334TIP3    H124966   5.984   1.904   3.240
 8334TIP3    H224967   5.930   1.775   3.182
 8335TIP3   OH224968   3.957   4.707   0.406
 8335TIP3    H124969   4.042   4.743   0.381
 8335TIP3    H224970   3.894   4.765   0.364
 8336TIP3   OH224971   1.206   3.406   4.465
 8336TIP3    H124972   1.210   3.495   4.431
 8336TIP3    H224973   1.266   3.405   4.539
 8337TIP3   OH224974   0.709   3.457   4.938
 8337TIP3    H124975   0.722   3.521   5.009
 8337TIP3    H224976   0.629   3.411   4.963
 8338TIP3   OH224977   1.546   4.615   5.293
 8338TIP3    H124978   1.480   4.583   5.232
 8338TIP3    H224979   1.612   4.656   5.237
 8339TIP3   OH224980   5.424   3.488   0.134
 8339TIP3    H124981   5.497   3.547   0.116
 8339TIP3    H224982   5.425   3.427   0.060
 8340TIP3   OH224983  -0.010   1.305   5.835
 8340TIP3    H124984  -0.046   1.369   5.773
 8340TIP3    H224985  -0.055   1.323   5.917
 8341TIP3   OH224986   3.792   1.599   0.934
 8341TIP3    H124987   3.741   1.668   0.977
 8341TIP3    H224988   3.783   1.523   0.992
 8342TIP3   OH224989   0.957   1.874   5.173
 8342TIP3    H124990   0.864   1.889   5.188
 8342TIP3    H224991   0.961   1.790   5.128
 8343TIP3   OH224992   3.989   4.222   0.893
 8343TIP3    H124993   4.022   4.132   0.897
 8343TIP3    H224994   4.038   4.269   0.960
 8344TIP3   OH224995   2.549   1.515   4.706
 8344TIP3    H124996   2.624   1.458   4.723
 8344TIP3    H224997   2.500   1.517   4.788
 8345TIP3   OH224998   0.458   5.916   3.963
 8345TIP3    H124999   0.549   5.922   3.933
 8345TIP3    H225000   0.430   6.006   3.975
 8346TIP3   OH225001   4.670   0.258   5.076
 8346TIP3    H125002   4.691   0.240   4.985
 8346TIP3    H225003   4.577   0.280   5.076
 8347TIP3   OH225004   2.874   1.096   5.311
 8347TIP3    H125005   2.957   1.075   5.268
 8347TIP3    H225006   2.864   1.028   5.378
 8348TIP3   OH225007   0.583   2.267   4.971
 8348TIP3    H125008   0.611   2.308   5.052
 8348TIP3    H225009   0.622   2.180   4.973
 8349TIP3   OH225010   4.827   2.972   4.811
 8349TIP3    H125011   4.914   3.010   4.825
 8349TIP3    H225012   4.784   3.032   4.751
 8350TIP3   OH225013   4.527   1.362   2.900
 8350TIP3    H125014   4.615   1.330   2.879
 8350TIP3    H225015   4.492   1.296   2.960
 8351TIP3   OH225016   6.868   1.950   2.400
 8351TIP3    H125017   6.778   1.936   2.431
 8351TIP3    H225018   6.913   1.868   2.420
 8352TIP3   OH225019   2.327   3.508   0.450
 8352TIP3    H125020   2.303   3.583   0.505
 8352TIP3    H225021   2.410   3.477   0.487
 8353TIP3   OH225022   6.384   6.004   5.543
 8353TIP3    H125023   6.385   6.020   5.637
 8353TIP3    H225024   6.414   5.913   5.534
 8354TIP3   OH225025   7.025   4.692   4.217
 8354TIP3    H125026   7.079   4.731   4.148
 8354TIP3    H225027   7.083   4.631   4.262
 8355TIP3   OH225028   5.106   3.449   1.062
 8355TIP3    H125029   5.026   3.464   1.012
 8355TIP3    H225030   5.081   3.387   1.131
 8356TIP3   OH225031   6.472   4.941   1.372
 8356TIP3    H125032   6.491   5.030   1.341
 8356TIP3    H225033   6.378   4.943   1.393
 8357TIP3   OH225034   6.523   4.869   2.273
 8357TIP3    H125035   6.614   4.900   2.273
 8357TIP3    H225036   6.494   4.881   2.182
 8358TIP3   OH225037   4.740   1.393   3.956
 8358TIP3    H125038   4.765   1.449   3.883
 8358TIP3    H225039   4.645   1.405   3.964
 8359TIP3   OH225040   0.647   0.742   3.042
 8359TIP3    H125041   0.641   0.776   3.131
 8359TIP3    H225042   0.563   0.697   3.028
 8360TIP3   OH225043   6.700   1.986   3.349
 8360TIP3    H125044   6.741   1.915   3.399
 8360TIP3    H225045   6.678   1.946   3.265
 8361TIP3   OH225046   2.393   5.743   2.210
 8361TIP3    H125047   2.488   5.731   2.220
 8361TIP3    H225048   2.354   5.669   2.256
 8362TIP3   OH225049   0.322   0.404   5.105
 8362TIP3    H125050   0.398   0.410   5.048
 8362TIP3    H225051   0.351   0.348   5.178
 8363TIP3   OH225052   1.390   2.348   3.234
 8363TIP3    H125053   1.322   2.280   3.239
 8363TIP3    H225054   1.458   2.318   3.294
 8364TIP3   OH225055   6.474   5.431   4.473
 8364TIP3    H125056   6.534   5.505   4.474
 8364TIP3    H225057   6.442   5.427   4.383
 8365TIP3   OH225058   1.492   6.118   0.570
 8365TIP3    H125059   1.492   6.213   0.579
 8365TIP3    H225060   1.570   6.089   0.618
 8366TIP3   OH225061   0.480   5.674   1.292
 8366TIP3    H125062   0.545   5.695   1.225
 8366TIP3    H225063   0.396   5.687   1.248
 8367TIP3   OH225064   5.348   0.833   1.947
 8367TIP3    H125065   5.278   0.811   1.886
 8367TIP3    H225066   5.375   0.748   1.984
 8368TIP3   OH225067   6.813   4.930   2.231
 8368TIP3    H125068   6.898   4.894   2.257
 8368TIP3    H225069   6.808   4.915   2.137
 8369TIP3   OH225070   1.852   5.522   4.875
 8369TIP3    H125071   1.884   5.514   4.785
 8369TIP3    H225072   1.893   5.602   4.908
 8370TIP3   OH225073   1.439   6.378   0.620
 8370TIP3    H125074   1.447   6.444   0.689
 8370TIP3    H225075   1.387   6.422   0.552
 8371TIP3   OH225076   2.728   6.401   3.716
 8371TIP3    H125077   2.635   6.378   3.715
 8371TIP3    H225078   2.768   6.338   3.655
 8372TIP3   OH225079   2.554   0.619   4.134
 8372TIP3    H125080   2.468   0.579   4.149
 8372TIP3    H225081   2.572   0.603   4.042
 8373TIP3   OH225082   5.781   2.522   4.731
 8373TIP3    H125083   5.747   2.562   4.811
 8373TIP3    H225084   5.764   2.587   4.663
 8374TIP3   OH225085   4.785   4.590   0.697
 8374TIP3    H125086   4.738   4.510   0.721
 8374TIP3    H225087   4.766   4.602   0.604
 8375TIP3   OH225088   7.191   4.586   0.981
 8375TIP3    H125089   7.139   4.653   1.025
 8375TIP3    H225090   7.192   4.613   0.889
 8376TIP3   OH225091   1.412   0.345   4.750
 8376TIP3    H125092   1.434   0.266   4.699
 8376TIP3    H225093   1.319   0.359   4.732
 8377TIP3   OH225094   2.644   5.230   4.336
 8377TIP3    H125095   2.675   5.314   4.303
 8377TIP3    H225096   2.657   5.234   4.430
 8378TIP3   OH225097   1.121   3.115   2.018
 8378TIP3    H125098   1.201   3.107   1.966
 8378TIP3    H225099   1.142   3.180   2.085
 8379TIP3   OH225100   5.027   1.106   2.778
 8379TIP3    H125101   4.998   1.067   2.695
 8379TIP3    H225102   5.102   1.053   2.805
 8380TIP3   OH225103   3.774   2.913   0.132
 8380TIP3    H125104   3.807   2.898   0.221
 8380TIP3    H225105   3.846   2.883   0.075
 8381TIP3   OH225106   3.909   6.362   4.359
 8381TIP3    H125107   3.947   6.364   4.271
 8381TIP3    H225108   3.879   6.272   4.370
 8382TIP3   OH225109   3.648   0.176   2.790
 8382TIP3    H125110   3.723   0.128   2.827
 8382TIP3    H225111   3.642   0.255   2.844
 8383TIP3   OH225112   7.219   3.717   2.518
 8383TIP3    H125113   7.176   3.764   2.447
 8383TIP3    H225114   7.150   3.707   2.585
 8384TIP3   OH225115   6.411   1.250   3.048
 8384TIP3    H125116   6.470   1.320   3.020
 8384TIP3    H225117   6.373   1.216   2.967
 8385TIP3   OH225118   2.244   0.971   3.156
 8385TIP3    H125119   2.296   1.003   3.082
 8385TIP3    H225120   2.153   0.976   3.125
 8386TIP3   OH225121   5.127   1.977   3.503
 8386TIP3    H125122   5.118   2.058   3.453
 8386TIP3    H225123   5.163   2.004   3.587
 8387TIP3   OH225124   6.304   6.574   3.155
 8387TIP3    H125125   6.380   6.633   3.149
 8387TIP3    H225126   6.264   6.577   3.068
 8388TIP3   OH225127   2.425   4.822   1.170
 8388TIP3    H125128   2.454   4.734   1.194
 8388TIP3    H225129   2.429   4.823   1.074
 8389TIP3   OH225130   1.810   6.113   5.196
 8389TIP3    H125131   1.849   6.103   5.109
 8389TIP3    H225132   1.763   6.031   5.211
 8390TIP3   OH225133   3.414   5.160   2.814
 8390TIP3    H125134   3.379   5.124   2.733
 8390TIP3    H225135   3.496   5.112   2.829
 8391TIP3   OH225136   0.907   0.878   3.785
 8391TIP3    H125137   0.944   0.955   3.829
 8391TIP3    H225138   0.974   0.852   3.722
 8392TIP3   OH225139   6.346   3.840   4.201
 8392TIP3    H125140   6.404   3.806   4.134
 8392TIP3    H225141   6.268   3.785   4.196
 8393TIP3   OH225142   6.096   6.629   0.813
 8393TIP3    H125143   6.075   6.680   0.735
 8393TIP3    H225144   6.016   6.579   0.832
 8394TIP3   OH225145   5.703   4.910   4.208
 8394TIP3    H125146   5.690   4.904   4.302
 8394TIP3    H225147   5.729   4.822   4.181
 8395TIP3   OH225148   3.303   1.854   3.579
 8395TIP3    H125149   3.361   1.826   3.508
 8395TIP3    H225150   3.315   1.787   3.647
 8396TIP3   OH225151   1.246   1.956   0.698
 8396TIP3    H125152   1.317   2.020   0.687
 8396TIP3    H225153   1.258   1.922   0.786
 8397TIP3   OH225154   5.775   3.044   3.814
 8397TIP3    H125155   5.687   3.038   3.851
 8397TIP3    H225156   5.802   2.953   3.802
 8398TIP3   OH225157   0.009   1.608   3.048
 8398TIP3    H125158   0.086   1.593   2.994
 8398TIP3    H225159   0.008   1.534   3.109
 8399TIP3   OH225160   4.522   3.504   0.049
 8399TIP3    H125161   4.447   3.517  -0.009
 8399TIP3    H225162   4.541   3.411   0.043
 8400TIP3   OH225163   2.254   1.637   0.716
 8400TIP3    H125164   2.216   1.551   0.697
 8400TIP3    H225165   2.205   1.667   0.793
 8401TIP3   OH225166   2.535   6.396   2.175
 8401TIP3    H125167   2.600   6.444   2.227
 8401TIP3    H225168   2.518   6.452   2.100
 8402TIP3   OH225169   4.663   4.241   1.987
 8402TIP3    H125170   4.622   4.164   1.948
 8402TIP3    H225171   4.676   4.301   1.914
 8403TIP3   OH225172   1.992   4.459   0.507
 8403TIP3    H125173   1.905   4.491   0.486
 8403TIP3    H225174   1.990   4.366   0.483
 8404TIP3   OH225175   5.865   5.008   1.034
 8404TIP3    H125176   5.880   5.021   0.940
 8404TIP3    H225177   5.871   4.913   1.047
 8405TIP3   OH225178   1.664   0.645   3.841
 8405TIP3    H125179   1.704   0.720   3.883
 8405TIP3    H225180   1.632   0.678   3.757
 8406TIP3   OH225181   4.841   1.215   2.097
 8406TIP3    H125182   4.804   1.184   2.179
 8406TIP3    H225183   4.771   1.200   2.032
 8407TIP3   OH225184   0.395   2.589   3.788
 8407TIP3    H125185   0.443   2.629   3.716
 8407TIP3    H225186   0.459   2.586   3.860
 8408TIP3   OH225187   3.761   5.855   5.144
 8408TIP3    H125188   3.717   5.790   5.199
 8408TIP3    H225189   3.742   5.939   5.186
 8409TIP3   OH225190   5.362   4.562   1.387
 8409TIP3    H125191   5.420   4.486   1.394
 8409TIP3    H225192   5.356   4.597   1.476
 8410TIP3   OH225193   5.530   0.716   5.286
 8410TIP3    H125194   5.460   0.652   5.271
 8410TIP3    H225195   5.607   0.678   5.245
 8411TIP3   OH225196   3.864   1.583   3.757
 8411TIP3    H125197   3.828   1.671   3.763
 8411TIP3    H225198   3.794   1.526   3.789
 8412TIP3   OH225199   1.757   3.007   4.078
 8412TIP3    H125200   1.681   2.996   4.134
 8412TIP3    H225201   1.722   3.034   3.993
 8413TIP3   OH225202   6.711   4.059   0.652
 8413TIP3    H125203   6.616   4.047   0.654
 8413TIP3    H225204   6.729   4.095   0.565
 8414TIP3   OH225205   6.099   0.173   4.811
 8414TIP3    H125206   6.054   0.096   4.776
 8414TIP3    H225207   6.049   0.247   4.777
 8415TIP3   OH225208   5.227   3.970   1.936
 8415TIP3    H125209   5.310   3.970   1.985
 8415TIP3    H225210   5.204   4.063   1.930
 8416TIP3   OH225211   2.807   1.486   0.772
 8416TIP3    H125212   2.852   1.440   0.701
 8416TIP3    H225213   2.715   1.484   0.747
 8417TIP3   OH225214   3.725   3.842   3.963
 8417TIP3    H125215   3.756   3.763   4.008
 8417TIP3    H225216   3.705   3.904   4.033
 8418TIP3   OH225217   7.166   1.907   1.319
 8418TIP3    H125218   7.182   1.849   1.393
 8418TIP3    H225219   7.223   1.982   1.335
 8419TIP3   OH225220   0.228   6.546   4.501
 8419TIP3    H125221   0.319   6.569   4.520
 8419TIP3    H225222   0.211   6.583   4.415
 8420TIP3   OH225223   1.940   2.526   1.937
 8420TIP3    H125224   1.878   2.453   1.941
 8420TIP3    H225225   1.921   2.569   1.854
 8421TIP3   OH225226   4.108   2.987   4.142
 8421TIP3    H125227   4.026   2.940   4.157
 8421TIP3    H225228   4.177   2.923   4.165
 8422TIP3   OH225229   3.128   2.996   2.727
 8422TIP3    H125230   3.037   2.970   2.741
 8422TIP3    H225231   3.143   2.982   2.633
 8423TIP3   OH225232   2.816   6.669   1.241
 8423TIP3    H125233   2.729   6.705   1.257
 8423TIP3    H225234   2.875   6.733   1.282
 8424TIP3   OH225235   5.479   5.839   0.482
 8424TIP3    H125236   5.552   5.812   0.427
 8424TIP3    H225237   5.509   5.921   0.523
 8425TIP3   OH225238   3.200   3.065   3.892
 8425TIP3    H125239   3.255   3.114   3.953
 8425TIP3    H225240   3.113   3.066   3.931
 8426TIP3   OH225241   2.123   2.911   1.113
 8426TIP3    H125242   2.186   2.840   1.098
 8426TIP3    H225243   2.063   2.905   1.038
 8427TIP3   OH225244   2.051   3.900   3.469
 8427TIP3    H125245   1.987   3.880   3.536
 8427TIP3    H225246   2.076   3.814   3.433
 8428TIP3   OH225247   7.127   5.677   1.918
 8428TIP3    H125248   7.105   5.611   1.983
 8428TIP3    H225249   7.179   5.742   1.966
 8429TIP3   OH225250   3.048   6.585   2.394
 8429TIP3    H125251   3.060   6.661   2.337
 8429TIP3    H225252   3.036   6.511   2.334
 8430TIP3   OH225253   2.795   5.982   1.411
 8430TIP3    H125254   2.790   6.076   1.428
 8430TIP3    H225255   2.873   5.953   1.459
 8431TIP3   OH225256   1.679   1.597   5.672
 8431TIP3    H125257   1.638   1.514   5.649
 8431TIP3    H225258   1.623   1.663   5.633
 8432TIP3   OH225259   7.136   4.058   1.106
 8432TIP3    H125260   7.120   4.152   1.092
 8432TIP3    H225261   7.058   4.015   1.072
 8433TIP3   OH225262   6.981   0.668   0.618
 8433TIP3    H125263   7.072   0.686   0.595
 8433TIP3    H225264   6.935   0.751   0.601
 8434TIP3   OH225265   4.611   3.006   2.003
 8434TIP3    H125266   4.568   2.925   2.029
 8434TIP3    H225267   4.700   2.980   1.981
 8435TIP3   OH225268   0.628   0.472   4.125
 8435TIP3    H125269   0.713   0.485   4.083
 8435TIP3    H225270   0.595   0.390   4.088
 8436TIP3   OH225271   0.861   1.713   1.903
 8436TIP3    H125272   0.889   1.800   1.929
 8436TIP3    H225273   0.893   1.702   1.814
 8437TIP3   OH225274   6.688   2.746   0.573
 8437TIP3    H125275   6.701   2.719   0.664
 8437TIP3    H225276   6.691   2.665   0.523
 8438TIP3   OH225277   0.256   5.607   4.302
 8438TIP3    H125278   0.346   5.634   4.285
 8438TIP3    H225279   0.255   5.512   4.287
 8439TIP3   OH225280   4.856   1.860   0.604
 8439TIP3    H125281   4.880   1.936   0.657
 8439TIP3    H225282   4.763   1.845   0.626
 8440TIP3   OH225283   0.250   5.727   5.119
 8440TIP3    H125284   0.247   5.634   5.099
 8440TIP3    H225285   0.175   5.764   5.073
 8441TIP3   OH225286   1.337   3.335   0.739
 8441TIP3    H125287   1.378   3.296   0.817
 8441TIP3    H225288   1.410   3.374   0.691
 8442TIP3   OH225289   4.901   4.636   5.725
 8442TIP3    H125290   4.855   4.705   5.773
 8442TIP3    H225291   4.920   4.569   5.791
 8443TIP3   OH225292   6.531   4.612   2.410
 8443TIP3    H125293   6.531   4.523   2.375
 8443TIP3    H225294   6.511   4.668   2.336
 8444TIP3   OH225295   4.696   5.337   1.414
 8444TIP3    H125296   4.698   5.283   1.493
 8444TIP3    H225297   4.702   5.275   1.342
 8445TIP3   OH225298   2.370   4.969   2.844
 8445TIP3    H125299   2.332   4.888   2.877
 8445TIP3    H225300   2.436   4.941   2.780
 8446TIP3   OH225301   2.094   5.726   4.167
 8446TIP3    H125302   2.059   5.643   4.136
 8446TIP3    H225303   2.180   5.733   4.125
 8447TIP3   OH225304   4.334   1.232   5.410
 8447TIP3    H125305   4.362   1.210   5.499
 8447TIP3    H225306   4.239   1.221   5.411
 8448TIP3   OH225307   4.080   3.106   3.891
 8448TIP3    H125308   4.096   3.074   3.979
 8448TIP3    H225309   4.110   3.197   3.892
 8449TIP3   OH225310   4.165   0.991   0.755
 8449TIP3    H125311   4.181   1.009   0.663
 8449TIP3    H225312   4.154   1.077   0.795
 8450TIP3   OH225313   5.950   6.711   4.418
 8450TIP3    H125314   5.900   6.739   4.494
 8450TIP3    H225315   5.894   6.646   4.375
 8451TIP3   OH225316   0.231   5.905   2.263
 8451TIP3    H125317   0.279   5.839   2.313
 8451TIP3    H225318   0.201   5.968   2.328
 8452TIP3   OH225319   5.743   0.560   2.790
 8452TIP3    H125320   5.751   0.557   2.885
 8452TIP3    H225321   5.661   0.606   2.774
 8453TIP3   OH225322   6.090   5.982   1.586
 8453TIP3    H125323   6.002   6.015   1.601
 8453TIP3    H225324   6.147   6.056   1.608
 8454TIP3   OH225325   1.702   3.958   4.309
 8454TIP3    H125326   1.694   3.976   4.215
 8454TIP3    H225327   1.751   4.033   4.343
 8455TIP3   OH225328   3.853   6.218   0.080
 8455TIP3    H125329   3.928   6.239   0.134
 8455TIP3    H225330   3.829   6.301   0.038
 8456TIP3   OH225331   7.129   4.706   0.714
 8456TIP3    H125332   7.074   4.633   0.684
 8456TIP3    H225333   7.068   4.780   0.721
 8457TIP3   OH225334   4.494   2.458   5.268
 8457TIP3    H125335   4.557   2.487   5.203
 8457TIP3    H225336   4.535   2.382   5.310
 8458TIP3   OH225337   5.473   4.349   1.585
 8458TIP3    H125338   5.477   4.269   1.534
 8458TIP3    H225339   5.412   4.330   1.656
 8459TIP3   OH225340   1.703   1.668   4.500
 8459TIP3    H125341   1.632   1.708   4.449
 8459TIP3    H225342   1.735   1.597   4.444
 8460TIP3   OH225343   5.298   2.055   2.785
 8460TIP3    H125344   5.288   2.150   2.790
 8460TIP3    H225345   5.236   2.027   2.717
 8461TIP3   OH225346   1.996   4.876   4.007
 8461TIP3    H125347   2.085   4.892   3.974
 8461TIP3    H225348   1.939   4.907   3.937
 8462TIP3   OH225349   3.630   2.883   5.044
 8462TIP3    H125350   3.583   2.817   5.094
 8462TIP3    H225351   3.722   2.868   5.063
 8463TIP3   OH225352   4.010   0.408   3.753
 8463TIP3    H125353   4.016   0.473   3.682
 8463TIP3    H225354   3.998   0.460   3.832
 8464TIP3   OH225355   4.263   1.699   4.386
 8464TIP3    H125356   4.314   1.635   4.435
 8464TIP3    H225357   4.304   1.783   4.406
 8465TIP3   OH225358   6.551   0.373   0.138
 8465TIP3    H125359   6.608   0.447   0.116
 8465TIP3    H225360   6.563   0.360   0.232
 8466TIP3   OH225361   1.916   4.117   5.528
 8466TIP3    H125362   1.914   4.161   5.443
 8466TIP3    H225363   1.943   4.027   5.508
 8467TIP3   OH225364   5.123   2.771   0.559
 8467TIP3    H125365   5.218   2.774   0.567
 8467TIP3    H225366   5.098   2.860   0.535
 8468TIP3   OH225367   3.417   5.547   3.640
 8468TIP3    H125368   3.478   5.542   3.567
 8468TIP3    H225369   3.349   5.482   3.619
 8469TIP3   OH225370   1.796   2.611   2.410
 8469TIP3    H125371   1.725   2.669   2.383
 8469TIP3    H225372   1.765   2.523   2.389
 8470TIP3   OH225373   1.296   3.175   5.197
 8470TIP3    H125374   1.278   3.262   5.234
 8470TIP3    H225375   1.253   3.177   5.111
 8471TIP3   OH225376   3.607   3.027   5.324
 8471TIP3    H125377   3.598   3.032   5.229
 8471TIP3    H225378   3.576   3.113   5.355
 8472TIP3   OH225379   3.756   0.421   0.373
 8472TIP3    H125380   3.813   0.498   0.377
 8472TIP3    H225381   3.747   0.403   0.279
 8473TIP3   OH225382   5.945   1.487   5.027
 8473TIP3    H125383   5.930   1.569   5.074
 8473TIP3    H225384   6.040   1.473   5.033
 8474TIP3   OH225385   6.665   5.451   1.251
 8474TIP3    H125386   6.638   5.541   1.236
 8474TIP3    H225387   6.761   5.454   1.249
 8475TIP3   OH225388   6.947   3.732   4.924
 8475TIP3    H125389   7.018   3.686   4.880
 8475TIP3    H225390   6.971   3.730   5.017
 8476TIP3   OH225391   3.222   6.142   5.304
 8476TIP3    H125392   3.298   6.083   5.304
 8476TIP3    H225393   3.148   6.086   5.328
 8477TIP3   OH225394   3.632   1.101   2.603
 8477TIP3    H125395   3.557   1.084   2.546
 8477TIP3    H225396   3.708   1.083   2.548
 8478TIP3   OH225397   5.055   0.154   2.561
 8478TIP3    H125398   5.134   0.207   2.551
 8478TIP3    H225399   5.035   0.126   2.471
 8479TIP3   OH225400   6.361   5.617   1.542
 8479TIP3    H125401   6.372   5.541   1.484
 8479TIP3    H225402   6.269   5.616   1.566
 8480TIP3   OH225403   4.712   5.901   4.255
 8480TIP3    H125404   4.668   5.848   4.188
 8480TIP3    H225405   4.645   5.912   4.323
 8481TIP3   OH225406   3.522   4.777   1.603
 8481TIP3    H125407   3.494   4.844   1.541
 8481TIP3    H225408   3.610   4.804   1.630
 8482TIP3   OH225409   6.560   1.751   0.365
 8482TIP3    H125410   6.623   1.823   0.377
 8482TIP3    H225411   6.524   1.765   0.278
 8483TIP3   OH225412   6.404   5.774   4.645
 8483TIP3    H125413   6.315   5.782   4.612
 8483TIP3    H225414   6.446   5.709   4.588
 8484TIP3   OH225415   2.221   4.317   2.235
 8484TIP3    H125416   2.274   4.252   2.189
 8484TIP3    H225417   2.193   4.378   2.166
 8485TIP3   OH225418   6.299   4.704   1.761
 8485TIP3    H125419   6.305   4.799   1.751
 8485TIP3    H225420   6.316   4.670   1.672
 8486TIP3   OH225421   4.668   4.402   5.604
 8486TIP3    H125422   4.577   4.391   5.630
 8486TIP3    H225423   4.712   4.436   5.682
 8487TIP3   OH225424   1.609   0.287   0.564
 8487TIP3    H125425   1.583   0.234   0.639
 8487TIP3    H225426   1.655   0.362   0.602
 8488TIP3   OH225427  -0.029   0.467   0.169
 8488TIP3    H125428   0.052   0.498   0.211
 8488TIP3    H225429  -0.048   0.384   0.213
 8489TIP3   OH225430   0.489   5.221   1.793
 8489TIP3    H125431   0.449   5.233   1.879
 8489TIP3    H225432   0.416   5.202   1.734
 8490TIP3   OH225433   0.051   0.967   4.169
 8490TIP3    H125434  -0.003   0.891   4.189
 8490TIP3    H225435   0.139   0.944   4.201
 8491TIP3   OH225436   1.161   1.581   1.366
 8491TIP3    H125437   1.084   1.631   1.393
 8491TIP3    H225438   1.151   1.496   1.409
 8492TIP3   OH225439   5.907   0.697   5.850
 8492TIP3    H125440   5.826   0.747   5.863
 8492TIP3    H225441   5.924   0.657   5.935
 8493TIP3   OH225442   3.162   5.736   3.944
 8493TIP3    H125443   3.069   5.756   3.954
 8493TIP3    H225444   3.184   5.683   4.020
 8494TIP3   OH225445   7.140   0.651   5.452
 8494TIP3    H125446   7.108   0.561   5.460
 8494TIP3    H225447   7.133   0.687   5.540
 8495TIP3   OH225448   0.184   1.903   2.232
 8495TIP3    H125449   0.194   1.955   2.153
 8495TIP3    H225450   0.090   1.894   2.244
 8496TIP3   OH225451   2.991   4.795   0.400
 8496TIP3    H125452   2.951   4.864   0.349
 8496TIP3    H225453   3.069   4.836   0.438
 8497TIP3   OH225454   2.531   1.971   4.566
 8497TIP3    H125455   2.561   1.928   4.646
 8497TIP3    H225456   2.448   1.929   4.546
 8498TIP3   OH225457   4.039   1.984   5.204
 8498TIP3    H125458   4.043   1.965   5.298
 8498TIP3    H225459   4.024   1.899   5.163
 8499TIP3   OH225460   2.043   0.337   1.489
 8499TIP3    H125461   2.041   0.406   1.555
 8499TIP3    H225462   2.119   0.284   1.511
 8500TIP3   OH225463   1.150   2.662   3.775
 8500TIP3    H125464   1.075   2.694   3.824
 8500TIP3    H225465   1.120   2.661   3.684
 8501TIP3   OH225466   5.145   5.038   0.694
 8501TIP3    H125467   5.130   5.088   0.613
 8501TIP3    H225468   5.228   4.994   0.680
 8502TIP3   OH225469   4.756   2.709   0.497
 8502TIP3    H125470   4.702   2.651   0.550
 8502TIP3    H225471   4.759   2.791   0.546
 8503TIP3   OH225472   4.254   5.997   2.968
 8503TIP3    H125473   4.170   6.044   2.960
 8503TIP3    H225474   4.307   6.054   3.023
 8504TIP3   OH225475   0.996   5.938   5.700
 8504TIP3    H125476   1.009   5.883   5.777
 8504TIP3    H225477   0.903   5.929   5.679
 8505TIP3   OH225478   2.778   6.034   3.195
 8505TIP3    H125479   2.774   5.939   3.192
 8505TIP3    H225480   2.743   6.057   3.281
 8506TIP3   OH225481   4.324   3.175   2.691
 8506TIP3    H125482   4.361   3.170   2.603
 8506TIP3    H225483   4.373   3.109   2.741
 8507TIP3   OH225484   3.510   5.402   2.842
 8507TIP3    H125485   3.455   5.326   2.826
 8507TIP3    H225486   3.484   5.465   2.775
 8508TIP3   OH225487   2.668   2.838   2.034
 8508TIP3    H125488   2.721   2.889   2.095
 8508TIP3    H225489   2.644   2.759   2.083
 8509TIP3   OH225490   4.711   0.820   0.968
 8509TIP3    H125491   4.680   0.888   1.028
 8509TIP3    H225492   4.694   0.738   1.015
 8510TIP3   OH225493   5.129   1.343   2.979
 8510TIP3    H125494   5.065   1.389   3.033
 8510TIP3    H225495   5.103   1.251   2.984
 8511TIP3   OH225496   2.754   5.301   1.688
 8511TIP3    H125497   2.725   5.239   1.755
 8511TIP3    H225498   2.839   5.269   1.660
 8512TIP3   OH225499   2.228   6.222   1.848
 8512TIP3    H125500   2.311   6.175   1.850
 8512TIP3    H225501   2.213   6.240   1.755
 8513TIP3   OH225502   4.405   1.751   1.225
 8513TIP3    H125503   4.336   1.734   1.162
 8513TIP3    H225504   4.423   1.845   1.217
 8514TIP3   OH225505   7.053  -0.031   2.923
 8514TIP3    H125506   7.041   0.060   2.947
 8514TIP3    H225507   6.974  -0.054   2.875
 8515TIP3   OH225508   1.620   4.854   5.546
 8515TIP3    H125509   1.553   4.798   5.586
 8515TIP3    H225510   1.579   4.887   5.466
 8516TIP3   OH225511   5.122   4.363   4.941
 8516TIP3    H125512   5.133   4.405   4.855
 8516TIP3    H225513   5.028   4.373   4.960
 8517TIP3   OH225514   6.158   6.551   4.337
 8517TIP3    H125515   6.101   6.474   4.327
 8517TIP3    H225516   6.099   6.620   4.366
 8518TIP3   OH225517   2.874   3.554   3.598
 8518TIP3    H125518   2.937   3.626   3.587
 8518TIP3    H225519   2.805   3.574   3.534
 8519TIP3   OH225520   0.573   0.417   4.394
 8519TIP3    H125521   0.563   0.455   4.307
 8519TIP3    H225522   0.642   0.352   4.385
 8520TIP3   OH225523   2.690   0.925   0.686
 8520TIP3    H125524   2.632   0.904   0.614
 8520TIP3    H225525   2.634   0.966   0.752
 8521TIP3   OH225526   6.817   5.015   1.970
 8521TIP3    H125527   6.755   5.089   1.975
 8521TIP3    H225528   6.802   4.978   1.884
 8522TIP3   OH225529   2.570   1.325   2.349
 8522TIP3    H125530   2.499   1.275   2.389
 8522TIP3    H225531   2.646   1.267   2.355
 8523TIP3   OH225532   1.531   4.431   3.204
 8523TIP3    H125533   1.498   4.496   3.142
 8523TIP3    H225534   1.467   4.434   3.276
 8524TIP3   OH225535   5.312   4.950   5.477
 8524TIP3    H125536   5.228   4.910   5.501
 8524TIP3    H225537   5.333   5.007   5.550
 8525TIP3   OH225538   3.742   2.725   4.485
 8525TIP3    H125539   3.775   2.636   4.474
 8525TIP3    H225540   3.689   2.741   4.407
 8526TIP3   OH225541   5.729   4.197   2.084
 8526TIP3    H125542   5.676   4.158   2.015
 8526TIP3    H225543   5.790   4.254   2.038
 8527TIP3   OH225544   4.210   4.391   4.479
 8527TIP3    H125545   4.197   4.330   4.552
 8527TIP3    H225546   4.255   4.338   4.412
 8528TIP3   OH225547   5.422   3.478   2.346
 8528TIP3    H125548   5.436   3.416   2.417
 8528TIP3    H225549   5.507   3.482   2.301
 8529TIP3   OH225550   4.305   4.539   4.137
 8529TIP3    H125551   4.392   4.526   4.176
 8529TIP3    H225552   4.260   4.596   4.199
 8530TIP3   OH225553   3.735   1.299   4.812
 8530TIP3    H125554   3.643   1.320   4.831
 8530TIP3    H225555   3.757   1.231   4.875
 8531TIP3   OH225556   5.259   2.777   1.441
 8531TIP3    H125557   5.345   2.808   1.413
 8531TIP3    H225558   5.197   2.840   1.404
 8532TIP3   OH225559   4.002   1.296   2.492
 8532TIP3    H125560   4.010   1.374   2.437
 8532TIP3    H225561   3.973   1.330   2.577
 8533TIP3   OH225562   3.879   2.075   0.477
 8533TIP3    H125563   3.960   2.117   0.505
 8533TIP3    H225564   3.832   2.057   0.559
 8534TIP3   OH225565   4.704   6.156   1.852
 8534TIP3    H125566   4.614   6.137   1.880
 8534TIP3    H225567   4.753   6.163   1.934
 8535TIP3   OH225568   2.840   3.761   3.933
 8535TIP3    H125569   2.935   3.764   3.948
 8535TIP3    H225570   2.819   3.846   3.895
 8536TIP3   OH225571   0.610   0.213   1.381
 8536TIP3    H125572   0.554   0.290   1.390
 8536TIP3    H225573   0.566   0.146   1.433
 8537TIP3   OH225574   0.353   6.287   2.522
 8537TIP3    H125575   0.354   6.308   2.616
 8537TIP3    H225576   0.327   6.368   2.479
 8538TIP3   OH225577   6.198   2.672   1.127
 8538TIP3    H125578   6.168   2.736   1.192
 8538TIP3    H225579   6.129   2.671   1.061
 8539TIP3   OH225580   0.814   0.138   5.372
 8539TIP3    H125581   0.806   0.188   5.291
 8539TIP3    H225582   0.817   0.205   5.441
 8540TIP3   OH225583   0.554   3.334   5.350
 8540TIP3    H125584   0.472   3.369   5.386
 8540TIP3    H225585   0.621   3.359   5.414
 8541TIP3   OH225586   2.780   1.334   4.485
 8541TIP3    H125587   2.729   1.254   4.495
 8541TIP3    H225588   2.862   1.317   4.531
 8542TIP3   OH225589   4.745   1.584   3.444
 8542TIP3    H125590   4.761   1.666   3.397
 8542TIP3    H225591   4.832   1.548   3.459
 8543TIP3   OH225592   2.306   4.875   0.143
 8543TIP3    H125593   2.267   4.957   0.175
 8543TIP3    H225594   2.393   4.872   0.183
 8544TIP3   OH225595   1.571   2.591   1.980
 8544TIP3    H125596   1.657   2.633   1.991
 8544TIP3    H225597   1.511   2.646   2.029
 8545TIP3   OH225598   6.662   5.073   3.494
 8545TIP3    H125599   6.602   5.148   3.496
 8545TIP3    H225600   6.673   5.054   3.401
 8546TIP3   OH225601   5.656   5.520   2.656
 8546TIP3    H125602   5.643   5.446   2.715
 8546TIP3    H225603   5.627   5.596   2.705
 8547TIP3   OH225604   3.935   0.559   3.473
 8547TIP3    H125605   3.966   0.627   3.533
 8547TIP3    H225606   3.841   0.574   3.466
 8548TIP3   OH225607   5.223   6.412   4.353
 8548TIP3    H125608   5.179   6.422   4.437
 8548TIP3    H225609   5.179   6.473   4.294
 8549TIP3   OH225610   2.366   2.732   1.065
 8549TIP3    H125611   2.399   2.732   1.155
 8549TIP3    H225612   2.419   2.798   1.021
 8550TIP3   OH225613   2.196   6.179   3.538
 8550TIP3    H125614   2.205   6.230   3.619
 8550TIP3    H225615   2.210   6.242   3.468
 8551TIP3   OH225616   5.366   4.396   5.507
 8551TIP3    H125617   5.289   4.356   5.467
 8551TIP3    H225618   5.332   4.474   5.551
 8552TIP3   OH225619   1.695   5.112   4.146
 8552TIP3    H125620   1.678   5.205   4.159
 8552TIP3    H225621   1.613   5.069   4.168
 8553TIP3   OH225622   5.668   3.290   2.835
 8553TIP3    H125623   5.683   3.381   2.862
 8553TIP3    H225624   5.749   3.264   2.791
 8554TIP3   OH225625   0.991   2.621   0.914
 8554TIP3    H125626   1.050   2.650   0.983
 8554TIP3    H225627   1.032   2.650   0.832
 8555TIP3   OH225628   6.309   1.964   5.427
 8555TIP3    H125629   6.259   1.885   5.408
 8555TIP3    H225630   6.309   2.013   5.344
 8556TIP3   OH225631   2.751   5.011   4.881
 8556TIP3    H125632   2.767   5.093   4.833
 8556TIP3    H225633   2.762   5.036   4.973
 8557TIP3   OH225634   1.546   0.501   2.633
 8557TIP3    H125635   1.598   0.525   2.709
 8557TIP3    H225636   1.481   0.571   2.625
 8558TIP3   OH225637   4.813   6.413   1.747
 8558TIP3    H125638   4.774   6.359   1.816
 8558TIP3    H225639   4.739   6.435   1.690
 8559TIP3   OH225640   4.893   1.321   4.169
 8559TIP3    H125641   4.830   1.356   4.106
 8559TIP3    H225642   4.972   1.304   4.117
 8560TIP3   OH225643   6.792   0.508   0.758
 8560TIP3    H125644   6.809   0.419   0.727
 8560TIP3    H225645   6.843   0.564   0.699
 8561TIP3   OH225646   6.650   2.627   5.777
 8561TIP3    H125647   6.610   2.639   5.691
 8561TIP3    H225648   6.602   2.555   5.817
 8562TIP3   OH225649   3.503   3.671   2.278
 8562TIP3    H125650   3.507   3.647   2.371
 8562TIP3    H225651   3.410   3.672   2.257
 8563TIP3   OH225652   7.142   4.163   3.210
 8563TIP3    H125653   7.133   4.247   3.165
 8563TIP3    H225654   7.229   4.131   3.184
 8564TIP3   OH225655   5.894   5.543   2.491
 8564TIP3    H125656   5.924   5.615   2.546
 8564TIP3    H225657   5.825   5.501   2.542
 8565TIP3   OH225658   4.104   3.476   4.925
 8565TIP3    H125659   4.032   3.415   4.938
 8565TIP3    H225660   4.175   3.441   4.979
 8566TIP3   OH225661   5.691   2.894   4.321
 8566TIP3    H125662   5.743   2.970   4.347
 8566TIP3    H225663   5.607   2.907   4.365
 8567TIP3   OH225664   6.227   2.418   2.751
 8567TIP3    H125665   6.211   2.502   2.708
 8567TIP3    H225666   6.195   2.429   2.840
 8568TIP3   OH225667   4.621   3.115   2.250
 8568TIP3    H125668   4.607   3.085   2.160
 8568TIP3    H225669   4.635   3.209   2.242
 8569TIP3   OH225670   3.122   0.225   2.580
 8569TIP3    H125671   3.035   0.265   2.577
 8569TIP3    H225672   3.120   0.171   2.660
 8570TIP3   OH225673   4.827   6.285   5.377
 8570TIP3    H125674   4.868   6.303   5.462
 8570TIP3    H225675   4.740   6.325   5.383
 8571TIP3   OH225676   6.361   2.713   2.983
 8571TIP3    H125677   6.402   2.751   3.060
 8571TIP3    H225678   6.279   2.675   3.015
 8572TIP3   OH225679   4.266   4.615   1.265
 8572TIP3    H125680   4.324   4.659   1.202
 8572TIP3    H225681   4.281   4.522   1.249
 8573TIP3   OH225682   6.239   4.978   1.195
 8573TIP3    H125683   6.170   5.040   1.216
 8573TIP3    H225684   6.194   4.894   1.183
 8574TIP3   OH225685   5.839   6.423   2.031
 8574TIP3    H125686   5.839   6.421   1.935
 8574TIP3    H225687   5.814   6.334   2.056
 8575TIP3   OH225688   5.812   4.329   0.508
 8575TIP3    H125689   5.806   4.337   0.413
 8575TIP3    H225690   5.824   4.235   0.524
 8576TIP3   OH225691   4.684   1.349   0.744
 8576TIP3    H125692   4.739   1.423   0.716
 8576TIP3    H225693   4.717   1.327   0.831
 8577TIP3   OH225694   4.971   2.100   0.734
 8577TIP3    H125695   5.020   2.176   0.703
 8577TIP3    H225696   5.038   2.033   0.748
 8578TIP3   OH225697   1.400   3.555   2.586
 8578TIP3    H125698   1.432   3.472   2.621
 8578TIP3    H225699   1.458   3.621   2.625
 8579TIP3   OH225700   7.144   4.311   3.752
 8579TIP3    H125701   7.211   4.355   3.700
 8579TIP3    H225702   7.188   4.289   3.834
 8580TIP3   OH225703   1.765   1.144   2.102
 8580TIP3    H125704   1.839   1.157   2.162
 8580TIP3    H225705   1.703   1.212   2.125
 8581TIP3   OH225706  -0.024   3.685   4.784
 8581TIP3    H125707   0.058   3.646   4.812
 8581TIP3    H225708   0.001   3.773   4.753
 8582TIP3   OH225709   5.829   4.798   4.747
 8582TIP3    H125710   5.888   4.752   4.687
 8582TIP3    H225711   5.820   4.886   4.709
 8583TIP3   OH225712   1.896   5.560   2.327
 8583TIP3    H125713   1.870   5.615   2.253
 8583TIP3    H225714   1.949   5.618   2.382
 8584TIP3   OH225715   4.141   1.442   0.125
 8584TIP3    H125716   4.131   1.350   0.150
 8584TIP3    H225717   4.120   1.491   0.205
 8585TIP3   OH225718   3.275   2.754   3.199
 8585TIP3    H125719   3.368   2.756   3.180
 8585TIP3    H225720   3.237   2.822   3.144
 8586TIP3   OH225721   2.069   5.250   2.997
 8586TIP3    H125722   2.045   5.304   3.073
 8586TIP3    H225723   2.137   5.192   3.031
 8587TIP3   OH225724   1.563   1.613   0.451
 8587TIP3    H125725   1.561   1.703   0.484
 8587TIP3    H225726   1.481   1.575   0.482
 8588TIP3   OH225727   3.484   5.843   5.469
 8588TIP3    H125728   3.448   5.880   5.389
 8588TIP3    H225729   3.441   5.758   5.478
 8589TIP3   OH225730   2.631   0.527   5.451
 8589TIP3    H125731   2.569   0.562   5.387
 8589TIP3    H225732   2.604   0.435   5.463
 8590TIP3   OH225733   5.636   5.720   5.734
 8590TIP3    H125734   5.698   5.769   5.680
 8590TIP3    H225735   5.628   5.772   5.814
 8591TIP3   OH225736   4.783   2.495   0.822
 8591TIP3    H125737   4.847   2.564   0.806
 8591TIP3    H225738   4.755   2.467   0.735
 8592TIP3   OH225739   4.458   4.110   5.180
 8592TIP3    H125740   4.441   4.022   5.147
 8592TIP3    H225741   4.371   4.150   5.187
 8593TIP3   OH225742   4.882   0.670   2.547
 8593TIP3    H125743   4.973   0.671   2.576
 8593TIP3    H225744   4.871   0.584   2.507
 8594TIP3   OH225745   2.275   0.926   4.639
 8594TIP3    H125746   2.211   0.882   4.695
 8594TIP3    H225747   2.299   1.005   4.688
 8595TIP3   OH225748   6.092   2.239   5.124
 8595TIP3    H125749   6.181   2.244   5.160
 8595TIP3    H225750   6.036   2.230   5.202
 8596TIP3   OH225751   2.612   5.660   2.836
 8596TIP3    H125752   2.568   5.741   2.861
 8596TIP3    H225753   2.704   5.685   2.826
 8597TIP3   OH225754   0.632   3.897   4.392
 8597TIP3    H125755   0.626   3.832   4.321
 8597TIP3    H225756   0.663   3.847   4.467
 8598TIP3   OH225757   2.636   2.848   5.457
 8598TIP3    H125758   2.689   2.771   5.480
 8598TIP3    H225759   2.677   2.920   5.505
 8599TIP3   OH225760   4.381   6.303   4.003
 8599TIP3    H125761   4.397   6.285   3.910
 8599TIP3    H225762   4.432   6.236   4.049
 8600TIP3   OH225763   5.787   6.648   1.709
 8600TIP3    H125764   5.838   6.627   1.630
 8600TIP3    H225765   5.774   6.564   1.752
 8601TIP3   OH225766   5.605   4.002   3.712
 8601TIP3    H125767   5.660   4.035   3.640
 8601TIP3    H225768   5.641   4.042   3.790
 8602TIP3   OH225769   2.424   6.301   2.397
 8602TIP3    H125770   2.373   6.257   2.329
 8602TIP3    H225771   2.482   6.360   2.350
 8603TIP3   OH225772   5.058   5.007   1.540
 8603TIP3    H125773   5.114   5.031   1.613
 8603TIP3    H225774   4.978   5.058   1.552
 8604TIP3   OH225775   7.058   5.885   0.104
 8604TIP3    H125776   7.065   5.891   0.009
 8604TIP3    H225777   7.119   5.951   0.137
 8605TIP3   OH225778   0.336   6.203   1.367
 8605TIP3    H125779   0.407   6.250   1.410
 8605TIP3    H225780   0.374   6.170   1.286
 8606TIP3   OH225781   2.423   4.944   3.100
 8606TIP3    H125782   2.502   4.893   3.083
 8606TIP3    H225783   2.404   4.989   3.018
 8607TIP3   OH225784   6.986   4.773   2.380
 8607TIP3    H125785   6.999   4.802   2.470
 8607TIP3    H225786   6.934   4.693   2.387
 8608TIP3   OH225787   1.077   5.799   4.239
 8608TIP3    H125788   1.049   5.835   4.323
 8608TIP3    H225789   1.040   5.859   4.174
 8609TIP3   OH225790   0.311   4.392   5.513
 8609TIP3    H125791   0.400   4.412   5.485
 8609TIP3    H225792   0.268   4.477   5.520
 8610TIP3   OH225793   4.409   1.266   1.543
 8610TIP3    H125794   4.364   1.308   1.617
 8610TIP3    H225795   4.361   1.296   1.466
 8611TIP3   OH225796   1.823   1.356   2.771
 8611TIP3    H125797   1.882   1.412   2.721
 8611TIP3    H225798   1.735   1.380   2.740
 8612TIP3   OH225799   4.987   3.018   0.536
 8612TIP3    H125800   4.995   3.052   0.625
 8612TIP3    H225801   5.052   3.067   0.485
 8613TIP3   OH225802   6.826   6.324   0.242
 8613TIP3    H125803   6.850   6.264   0.312
 8613TIP3    H225804   6.827   6.410   0.283
 8614TIP3   OH225805   6.586   4.875   0.785
 8614TIP3    H125806   6.547   4.923   0.857
 8614TIP3    H225807   6.537   4.792   0.782
 8615TIP3   OH225808   0.002   1.755   5.800
 8615TIP3    H125809   0.095   1.760   5.819
 8615TIP3    H225810  -0.035   1.834   5.840
 8616TIP3   OH225811   6.236   4.024   5.175
 8616TIP3    H125812   6.269   4.019   5.085
 8616TIP3    H225813   6.142   4.039   5.164
 8617TIP3   OH225814   5.860   6.163   2.122
 8617TIP3    H125815   5.925   6.137   2.056
 8617TIP3    H225816   5.785   6.107   2.105
 8618TIP3   OH225817   6.582   6.244   1.046
 8618TIP3    H125818   6.597   6.321   1.101
 8618TIP3    H225819   6.652   6.245   0.982
 8619TIP3   OH225820   4.348   3.425   1.091
 8619TIP3    H125821   4.304   3.389   1.168
 8619TIP3    H225822   4.401   3.496   1.125
 8620TIP3   OH225823   4.939   3.481   3.836
 8620TIP3    H125824   5.028   3.487   3.800
 8620TIP3    H225825   4.886   3.530   3.774
 8621TIP3   OH225826   1.801   5.312   5.045
 8621TIP3    H125827   1.803   5.399   5.005
 8621TIP3    H225828   1.848   5.323   5.128
 8622TIP3   OH225829   5.461   4.028   1.044
 8622TIP3    H125830   5.460   3.952   0.986
 8622TIP3    H225831   5.375   4.068   1.033
 8623TIP3   OH225832   6.603   2.283   5.184
 8623TIP3    H125833   6.652   2.327   5.115
 8623TIP3    H225834   6.665   2.277   5.257
 8624TIP3   OH225835   2.294   2.134   2.967
 8624TIP3    H125836   2.323   2.095   2.884
 8624TIP3    H225837   2.307   2.065   3.032
 8625TIP3   OH225838   4.223   2.933   5.101
 8625TIP3    H125839   4.240   2.848   5.142
 8625TIP3    H225840   4.254   2.923   5.011
 8626TIP3   OH225841   4.451   4.044   0.260
 8626TIP3    H125842   4.527   4.102   0.270
 8626TIP3    H225843   4.470   3.994   0.180
 8627TIP3   OH225844   5.649   4.257   3.582
 8627TIP3    H125845   5.644   4.320   3.511
 8627TIP3    H225846   5.712   4.295   3.643
 8628TIP3   OH225847   3.062   6.311   0.228
 8628TIP3    H125848   2.986   6.305   0.285
 8628TIP3    H225849   3.136   6.291   0.284
 8629TIP3   OH225850   6.822   3.227   2.469
 8629TIP3    H125851   6.775   3.199   2.390
 8629TIP3    H225852   6.810   3.322   2.471
 8630TIP3   OH225853   3.092   3.671   4.036
 8630TIP3    H125854   3.161   3.669   3.969
 8630TIP3    H225855   3.055   3.583   4.035
 8631TIP3   OH225856   4.371   2.532   2.794
 8631TIP3    H125857   4.432   2.516   2.721
 8631TIP3    H225858   4.427   2.560   2.866
 8632TIP3   OH225859   1.816   0.695   5.817
 8632TIP3    H125860   1.748   0.729   5.758
 8632TIP3    H225861   1.791   0.604   5.832
 8633TIP3   OH225862   6.810   2.278   2.632
 8633TIP3    H125863   6.791   2.328   2.711
 8633TIP3    H225864   6.882   2.219   2.657
 8634TIP3   OH225865   5.575   3.380   3.287
 8634TIP3    H125866   5.647   3.386   3.224
 8634TIP3    H225867   5.569   3.468   3.325
 8635TIP3   OH225868   5.502   4.526   0.943
 8635TIP3    H125869   5.586   4.503   0.905
 8635TIP3    H225870   5.438   4.511   0.873
 8636TIP3   OH225871   6.467   4.841   3.026
 8636TIP3    H125872   6.512   4.791   2.958
 8636TIP3    H225873   6.431   4.917   2.981
 8637TIP3   OH225874   4.067   4.740   4.748
 8637TIP3    H125875   4.067   4.766   4.840
 8637TIP3    H225876   4.122   4.662   4.745
 8638TIP3   OH225877   1.361   1.807   4.702
 8638TIP3    H125878   1.333   1.763   4.782
 8638TIP3    H225879   1.431   1.751   4.668
 8639TIP3   OH225880   5.375   0.121   4.726
 8639TIP3    H125881   5.293   0.100   4.680
 8639TIP3    H225882   5.419   0.037   4.737
 8640TIP3   OH225883   4.016   1.619   3.496
 8640TIP3    H125884   3.997   1.562   3.421
 8640TIP3    H225885   3.959   1.587   3.565
 8641TIP3   OH225886   3.507   2.804   1.581
 8641TIP3    H125887   3.462   2.793   1.498
 8641TIP3    H225888   3.455   2.754   1.644
 8642TIP3   OH225889   7.097   4.662   2.768
 8642TIP3    H125890   7.150   4.688   2.843
 8642TIP3    H225891   7.006   4.667   2.800
 8643TIP3   OH225892   1.674   6.225   2.925
 8643TIP3    H125893   1.762   6.247   2.957
 8643TIP3    H225894   1.630   6.187   3.000
 8644TIP3   OH225895   2.810   0.282   0.942
 8644TIP3    H125896   2.725   0.247   0.968
 8644TIP3    H225897   2.793   0.328   0.860
 8645TIP3   OH225898   0.891   3.632   5.721
 8645TIP3    H125899   0.958   3.569   5.694
 8645TIP3    H225900   0.810   3.599   5.683
 8646TIP3   OH225901   1.734   2.812   0.629
 8646TIP3    H125902   1.729   2.799   0.723
 8646TIP3    H225903   1.805   2.754   0.599
 8647TIP3   OH225904   5.854   1.779   1.696
 8647TIP3    H125905   5.918   1.727   1.744
 8647TIP3    H225906   5.904   1.821   1.626
 8648TIP3   OH225907   3.464   5.225   4.979
 8648TIP3    H125908   3.418   5.210   5.061
 8648TIP3    H225909   3.523   5.151   4.969
 8649TIP3   OH225910   0.808   6.121   4.670
 8649TIP3    H125911   0.717   6.151   4.677
 8649TIP3    H225912   0.850   6.185   4.613
 8650TIP3   OH225913   3.162   2.045   4.691
 8650TIP3    H125914   3.130   2.008   4.609
 8650TIP3    H225915   3.238   2.098   4.665
 8651TIP3   OH225916   3.001   6.473   5.714
 8651TIP3    H125917   2.964   6.426   5.639
 8651TIP3    H225918   2.936   6.540   5.735
 8652TIP3   OH225919   7.051   4.093   3.628
 8652TIP3    H125920   7.089   4.170   3.670
 8652TIP3    H225921   7.023   4.037   3.701
 8653TIP3   OH225922   1.059   6.360   2.390
 8653TIP3    H125923   0.979   6.339   2.343
 8653TIP3    H225924   1.039   6.342   2.481
 8654TIP3   OH225925   4.929   2.721   0.753
 8654TIP3    H125926   4.928   2.796   0.812
 8654TIP3    H225927   4.996   2.743   0.689
 8655TIP3   OH225928   5.517   2.155   5.042
 8655TIP3    H125929   5.612   2.153   5.041
 8655TIP3    H225930   5.494   2.164   5.134
 8656TIP3   OH225931   6.576   0.880   3.222
 8656TIP3    H125932   6.557   0.973   3.219
 8656TIP3    H225933   6.670   0.873   3.207
 8657TIP3   OH225934   2.645   3.369   5.616
 8657TIP3    H125935   2.631   3.390   5.523
 8657TIP3    H225936   2.734   3.398   5.634
 8658TIP3   OH225937   1.529   1.422   4.245
 8658TIP3    H125938   1.434   1.435   4.251
 8658TIP3    H225939   1.545   1.401   4.153
 8659TIP3   OH225940   2.193   1.819   0.483
 8659TIP3    H125941   2.216   1.737   0.528
 8659TIP3    H225942   2.174   1.792   0.393
 8660TIP3   OH225943   0.427   2.370   4.071
 8660TIP3    H125944   0.392   2.337   4.154
 8660TIP3    H225945   0.466   2.455   4.094
 8661TIP3   OH225946   5.504   1.799   0.991
 8661TIP3    H125947   5.592   1.771   0.969
 8661TIP3    H225948   5.516   1.866   1.059
 8662TIP3   OH225949   0.499   6.609   4.546
 8662TIP3    H125950   0.567   6.676   4.542
 8662TIP3    H225951   0.503   6.577   4.636
 8663TIP3   OH225952   1.646   0.756   0.489
 8663TIP3    H125953   1.588   0.698   0.439
 8663TIP3    H225954   1.645   0.721   0.578
 8664TIP3   OH225955   5.262   5.460   2.020
 8664TIP3    H125956   5.246   5.521   1.948
 8664TIP3    H225957   5.274   5.516   2.097
 8665TIP3   OH225958   1.551   4.607   2.989
 8665TIP3    H125959   1.605   4.561   2.925
 8665TIP3    H225960   1.532   4.692   2.948
 8666TIP3   OH225961   2.612   0.032   0.259
 8666TIP3    H125962   2.556  -0.043   0.276
 8666TIP3    H225963   2.562   0.107   0.292
 8667TIP3   OH225964   4.076   3.133   2.760
 8667TIP3    H125965   4.027   3.200   2.713
 8667TIP3    H225966   4.158   3.124   2.711
 8668TIP3   OH225967   0.417   1.685   3.504
 8668TIP3    H125968   0.480   1.757   3.505
 8668TIP3    H225969   0.450   1.623   3.568
 8669TIP3   OH225970   1.311   3.186   0.239
 8669TIP3    H125971   1.337   3.278   0.229
 8669TIP3    H225972   1.230   3.179   0.189
 8670TIP3   OH225973   6.913   2.719   2.494
 8670TIP3    H125974   6.944   2.630   2.511
 8670TIP3    H225975   6.887   2.752   2.580
 8671TIP3   OH225976   5.593   4.182   1.840
 8671TIP3    H125977   5.503   4.186   1.807
 8671TIP3    H225978   5.612   4.272   1.867
 8672TIP3   OH225979   0.672   2.125   2.600
 8672TIP3    H125980   0.696   2.136   2.692
 8672TIP3    H225981   0.577   2.134   2.600
 8673TIP3   OH225982   6.677   4.690   3.270
 8673TIP3    H125983   6.622   4.695   3.349
 8673TIP3    H225984   6.681   4.780   3.238
 8674TIP3   OH225985   5.067   2.031   1.270
 8674TIP3    H125986   5.051   2.032   1.175
 8674TIP3    H225987   5.055   2.122   1.296
 8675TIP3   OH225988   5.577   5.489   0.473
 8675TIP3    H125989   5.582   5.578   0.438
 8675TIP3    H225990   5.650   5.443   0.433
 8676TIP3   OH225991   2.702   3.957   2.802
 8676TIP3    H125992   2.753   4.013   2.744
 8676TIP3    H225993   2.766   3.924   2.865
 8677TIP3   OH225994   0.014   1.963   2.821
 8677TIP3    H125995   0.075   1.967   2.747
 8677TIP3    H225996  -0.068   1.999   2.787
 8678TIP3   OH225997   6.140   1.205   1.918
 8678TIP3    H125998   6.176   1.193   1.830
 8678TIP3    H225999   6.045   1.198   1.906
 8679TIP3   OH226000   2.532   5.492   1.624
 8679TIP3    H126001   2.588   5.424   1.663
 8679TIP3    H226002   2.444   5.468   1.650
 8680TIP3   OH226003   6.727   1.901   4.567
 8680TIP3    H126004   6.783   1.844   4.514
 8680TIP3    H226005   6.726   1.984   4.520
 8681TIP3   OH226006   5.958   1.394   3.820
 8681TIP3    H126007   5.864   1.393   3.836
 8681TIP3    H226008   5.968   1.355   3.733
 8682TIP3   OH226009   5.386   4.196   2.901
 8682TIP3    H126010   5.405   4.196   2.995
 8682TIP3    H226011   5.367   4.287   2.880
 8683TIP3   OH226012   2.282   4.135   1.242
 8683TIP3    H126013   2.310   4.176   1.160
 8683TIP3    H226014   2.192   4.166   1.254
 8684TIP3   OH226015   6.848   1.401   1.812
 8684TIP3    H126016   6.934   1.361   1.800
 8684TIP3    H226017   6.855   1.486   1.769
 8685TIP3   OH226018   3.267   5.691   5.403
 8685TIP3    H126019   3.179   5.725   5.388
 8685TIP3    H226020   3.284   5.634   5.328
 8686TIP3   OH226021   3.382   6.675   2.592
 8686TIP3    H126022   3.348   6.595   2.553
 8686TIP3    H226023   3.397   6.651   2.684
 8687TIP3   OH226024   3.993   3.444   4.241
 8687TIP3    H126025   3.961   3.493   4.165
 8687TIP3    H226026   4.050   3.377   4.204
 8688TIP3   OH226027   2.753   6.515   1.015
 8688TIP3    H126028   2.821   6.579   0.993
 8688TIP3    H226029   2.705   6.555   1.087
 8689TIP3   OH226030   3.986   3.334   2.309
 8689TIP3    H126031   4.044   3.410   2.313
 8689TIP3    H226032   4.037   3.266   2.265
 8690TIP3   OH226033   3.968   4.447   0.273
 8690TIP3    H126034   3.942   4.490   0.191
 8690TIP3    H226035   3.983   4.519   0.334
 8691TIP3   OH226036   2.492   2.920   1.825
 8691TIP3    H126037   2.403   2.886   1.837
 8691TIP3    H226038   2.538   2.893   1.905
 8692TIP3   OH226039   3.159   4.030   3.444
 8692TIP3    H126040   3.087   3.967   3.439
 8692TIP3    H226041   3.124   4.109   3.404
 8693TIP3   OH226042   0.909   5.143   2.369
 8693TIP3    H126043   0.987   5.159   2.316
 8693TIP3    H226044   0.942   5.102   2.449
 8694TIP3   OH226045   6.126   3.321   4.782
 8694TIP3    H126046   6.130   3.228   4.763
 8694TIP3    H226047   6.179   3.362   4.714
 8695TIP3   OH226048   5.816   3.858   5.729
 8695TIP3    H126049   5.809   3.931   5.668
 8695TIP3    H226050   5.749   3.796   5.699
 8696TIP3   OH226051   2.232   5.042   3.961
 8696TIP3    H126052   2.171   5.099   3.914
 8696TIP3    H226053   2.217   5.060   4.053
 8697TIP3   OH226054   6.860   5.816   2.392
 8697TIP3    H126055   6.792   5.782   2.334
 8697TIP3    H226056   6.873   5.747   2.457
 8698TIP3   OH226057   3.176   1.783   2.149
 8698TIP3    H126058   3.149   1.705   2.197
 8698TIP3    H226059   3.159   1.761   2.057
 8699TIP3   OH226060   0.981   6.700   0.653
 8699TIP3    H126061   0.955   6.788   0.626
 8699TIP3    H226062   1.071   6.690   0.620
 8700TIP3   OH226063   5.313   5.808   3.991
 8700TIP3    H126064   5.291   5.748   4.062
 8700TIP3    H226065   5.395   5.850   4.020
 8701TIP3   OH226066   0.113   5.497   5.058
 8701TIP3    H126067   0.028   5.539   5.065
 8701TIP3    H226068   0.121   5.472   4.966
 8702TIP3   OH226069   6.400   3.844   4.859
 8702TIP3    H126070   6.487   3.861   4.894
 8702TIP3    H226071   6.360   3.930   4.851
 8703TIP3   OH226072   6.643   0.673   5.154
 8703TIP3    H126073   6.552   0.686   5.125
 8703TIP3    H226074   6.691   0.745   5.113
 8704TIP3   OH226075   7.166   1.691   3.701
 8704TIP3    H126076   7.094   1.752   3.717
 8704TIP3    H226077   7.240   1.747   3.679
 8705TIP3   OH226078   3.821   4.449   2.767
 8705TIP3    H126079   3.893   4.393   2.741
 8705TIP3    H226080   3.831   4.459   2.862
 8706TIP3   OH226081   6.491   0.084   5.298
 8706TIP3    H126082   6.527   0.120   5.217
 8706TIP3    H226083   6.417   0.141   5.318
 8707TIP3   OH226084   3.709   0.144   2.310
 8707TIP3    H126085   3.762   0.188   2.243
 8707TIP3    H226086   3.664   0.215   2.355
 8708TIP3   OH226087   2.842   4.288   1.236
 8708TIP3    H126088   2.750   4.267   1.216
 8708TIP3    H226089   2.870   4.341   1.162
 8709TIP3   OH226090   0.510   3.830   1.463
 8709TIP3    H126091   0.468   3.840   1.377
 8709TIP3    H226092   0.555   3.745   1.457
 8710TIP3   OH226093   1.397   2.581   4.195
 8710TIP3    H126094   1.389   2.490   4.224
 8710TIP3    H226095   1.329   2.628   4.245
 8711TIP3   OH226096   0.588   3.356   1.960
 8711TIP3    H126097   0.603   3.268   1.927
 8711TIP3    H226098   0.515   3.389   1.908
 8712TIP3   OH226099   2.445   3.174   4.125
 8712TIP3    H126100   2.475   3.099   4.175
 8712TIP3    H226101   2.494   3.249   4.161
 8713TIP3   OH226102   3.490   0.933   1.188
 8713TIP3    H126103   3.521   0.991   1.257
 8713TIP3    H226104   3.513   0.845   1.219
 8714TIP3   OH226105   7.144   1.855   2.328
 8714TIP3    H126106   7.067   1.811   2.292
 8714TIP3    H226107   7.182   1.793   2.389
 8715TIP3   OH226108   1.230   2.717   4.884
 8715TIP3    H126109   1.248   2.810   4.868
 8715TIP3    H226110   1.161   2.695   4.821
 8716TIP3   OH226111   3.352   3.934   3.267
 8716TIP3    H126112   3.315   3.939   3.179
 8716TIP3    H226113   3.288   3.977   3.323
 8717TIP3   OH226114   3.641   3.430   0.044
 8717TIP3    H126115   3.722   3.386   0.018
 8717TIP3    H226116   3.666   3.522   0.051
 8718TIP3   OH226117   4.232   6.477   1.827
 8718TIP3    H126118   4.277   6.435   1.900
 8718TIP3    H226119   4.215   6.567   1.857
 8719TIP3   OH226120   6.168   2.109   1.978
 8719TIP3    H126121   6.121   2.027   1.989
 8719TIP3    H226122   6.248   2.098   2.031
 8720TIP3   OH226123   4.201   5.382   2.785
 8720TIP3    H126124   4.265   5.451   2.769
 8720TIP3    H226125   4.129   5.401   2.724
 8721TIP3   OH226126   4.413   6.142   2.180
 8721TIP3    H126127   4.327   6.166   2.217
 8721TIP3    H226128   4.431   6.055   2.216
 8722TIP3   OH226129   6.672   1.069   0.390
 8722TIP3    H126130   6.650   1.113   0.308
 8722TIP3    H226131   6.699   0.981   0.364
 8723TIP3   OH226132   2.134   1.739   1.980
 8723TIP3    H126133   2.165   1.653   1.951
 8723TIP3    H226134   2.172   1.801   1.918
 8724TIP3   OH226135   3.122   1.621   0.153
 8724TIP3    H126136   3.170   1.593   0.074
 8724TIP3    H226137   3.183   1.602   0.225
 8725TIP3   OH226138   6.819   5.401   1.841
 8725TIP3    H126139   6.870   5.360   1.771
 8725TIP3    H226140   6.794   5.486   1.805
 8726TIP3   OH226141   5.670   1.310   2.554
 8726TIP3    H126142   5.661   1.405   2.552
 8726TIP3    H226143   5.584   1.277   2.529
 8727TIP3   OH226144   1.771   4.627   1.816
 8727TIP3    H126145   1.841   4.692   1.823
 8727TIP3    H226146   1.805   4.563   1.754
 8728TIP3   OH226147   4.726   1.037   1.231
 8728TIP3    H126148   4.688   1.086   1.304
 8728TIP3    H226149   4.698   1.084   1.153
 8729TIP3   OH226150   6.537   1.415   0.192
 8729TIP3    H126151   6.539   1.490   0.132
 8729TIP3    H226152   6.443   1.396   0.203
 8730TIP3   OH226153   0.196   3.425   0.907
 8730TIP3    H126154   0.105   3.438   0.879
 8730TIP3    H226155   0.195   3.452   0.999
 8731TIP3   OH226156   4.491   6.287   4.686
 8731TIP3    H126157   4.485   6.338   4.605
 8731TIP3    H226158   4.578   6.248   4.683
 8732TIP3   OH226159   5.537   0.620   0.748
 8732TIP3    H126160   5.466   0.679   0.723
 8732TIP3    H226161   5.507   0.579   0.829
 8733TIP3   OH226162   2.291   3.540   4.570
 8733TIP3    H126163   2.287   3.528   4.665
 8733TIP3    H226164   2.334   3.461   4.538
 8734TIP3   OH226165   5.134   3.896   4.956
 8734TIP3    H126166   5.082   3.965   4.997
 8734TIP3    H226167   5.086   3.816   4.975
 8735TIP3   OH226168   2.990   5.750   5.375
 8735TIP3    H126169   2.969   5.737   5.283
 8735TIP3    H226170   2.930   5.819   5.404
 8736TIP3   OH226171   7.139   2.642   0.290
 8736TIP3    H126172   7.153   2.571   0.227
 8736TIP3    H226173   7.047   2.632   0.317
 8737TIP3   OH226174   2.111   6.657   4.849
 8737TIP3    H126175   2.133   6.682   4.940
 8737TIP3    H226176   2.108   6.741   4.802
 8738TIP3   OH226177   4.593   1.150   2.000
 8738TIP3    H126178   4.536   1.180   2.071
 8738TIP3    H226179   4.537   1.151   1.922
 8739TIP3   OH226180   6.306   4.604   0.889
 8739TIP3    H126181   6.253   4.524   0.887
 8739TIP3    H226182   6.242   4.675   0.898
 8740TIP3   OH226183   5.028   3.983   3.759
 8740TIP3    H126184   4.935   3.963   3.765
 8740TIP3    H226185   5.035   4.075   3.785
 8741TIP3   OH226186   5.918   6.441   5.141
 8741TIP3    H126187   5.918   6.471   5.232
 8741TIP3    H226188   5.877   6.513   5.093
 8742TIP3   OH226189   7.095   0.532   2.774
 8742TIP3    H126190   7.098   0.512   2.868
 8742TIP3    H226191   7.186   0.525   2.745
 8743TIP3   OH226192   4.060   4.944   0.584
 8743TIP3    H126193   3.971   4.977   0.594
 8743TIP3    H226194   4.066   4.871   0.644
 8744TIP3   OH226195   3.934   6.525   3.535
 8744TIP3    H126196   3.896   6.613   3.533
 8744TIP3    H226197   3.969   6.512   3.447
 8745TIP3   OH226198   4.805   6.240   5.871
 8745TIP3    H126199   4.778   6.156   5.833
 8745TIP3    H226200   4.881   6.219   5.925
 8746TIP3   OH226201   4.526   2.473   2.468
 8746TIP3    H126202   4.585   2.449   2.397
 8746TIP3    H226203   4.576   2.455   2.548
 8747TIP3   OH226204   0.023   5.912   1.616
 8747TIP3    H126205  -0.006   5.998   1.647
 8747TIP3    H226206   0.117   5.910   1.634
 8748TIP3   OH226207   4.822   3.120   3.297
 8748TIP3    H126208   4.856   3.187   3.355
 8748TIP3    H226209   4.727   3.136   3.295
 8749TIP3   OH226210   5.971   0.274   0.865
 8749TIP3    H126211   5.936   0.298   0.780
 8749TIP3    H226212   6.027   0.348   0.890
 8750TIP3   OH226213   6.170   4.059   3.492
 8750TIP3    H126214   6.245   3.999   3.496
 8750TIP3    H226215   6.124   4.045   3.574
 8751TIP3   OH226216   4.293   2.682   5.166
 8751TIP3    H126217   4.263   2.612   5.108
 8751TIP3    H226218   4.286   2.644   5.254
 8752TIP3   OH226219   6.658   1.308   1.980
 8752TIP3    H126220   6.728   1.354   1.934
 8752TIP3    H226221   6.661   1.218   1.945
 8753TIP3   OH226222   3.539   2.510   1.930
 8753TIP3    H126223   3.551   2.434   1.873
 8753TIP3    H226224   3.503   2.577   1.872
 8754TIP3   OH226225   6.616   5.454   4.801
 8754TIP3    H126226   6.624   5.392   4.728
 8754TIP3    H226227   6.653   5.408   4.876
 8755TIP3   OH226228   6.374   0.064   0.611
 8755TIP3    H126229   6.442   0.074   0.678
 8755TIP3    H226230   6.299   0.028   0.658
 8756TIP3   OH226231   6.353   0.884   5.366
 8756TIP3    H126232   6.355   0.800   5.413
 8756TIP3    H226233   6.446   0.908   5.357
 8757TIP3   OH226234   1.328   1.403   0.381
 8757TIP3    H126235   1.337   1.314   0.415
 8757TIP3    H226236   1.407   1.417   0.329
 8758TIP3   OH226237   5.558   6.647   4.702
 8758TIP3    H126238   5.503   6.676   4.775
 8758TIP3    H226239   5.637   6.701   4.709
 8759TIP3   OH226240   1.778   3.861   4.996
 8759TIP3    H126241   1.824   3.913   5.061
 8759TIP3    H226242   1.686   3.862   5.024
 8760TIP3   OH226243   0.028   5.697   1.060
 8760TIP3    H126244   0.024   5.610   1.099
 8760TIP3    H226245  -0.030   5.692   0.984
 8761TIP3   OH226246   0.883   0.656   0.428
 8761TIP3    H126247   0.888   0.595   0.500
 8761TIP3    H226248   0.890   0.743   0.469
 8762TIP3   OH226249   4.172   2.518   0.878
 8762TIP3    H126250   4.229   2.466   0.820
 8762TIP3    H226251   4.194   2.487   0.966
 8763TIP3   OH226252   0.831   0.557   3.024
 8763TIP3    H126253   0.818   0.541   2.930
 8763TIP3    H226254   0.776   0.633   3.043
 8764TIP3   OH226255   2.305   5.909   5.784
 8764TIP3    H126256   2.360   5.903   5.863
 8764TIP3    H226257   2.339   5.841   5.726
 8765TIP3   OH226258   6.766   3.273   2.982
 8765TIP3    H126259   6.750   3.285   2.888
 8765TIP3    H226260   6.860   3.284   2.992
 8766TIP3   OH226261   3.658   5.007   5.051
 8766TIP3    H126262   3.741   4.964   5.072
 8766TIP3    H226263   3.601   4.937   5.020
 8767TIP3   OH226264   3.204   4.391   2.783
 8767TIP3    H126265   3.235   4.357   2.699
 8767TIP3    H226266   3.151   4.467   2.760
 8768TIP3   OH226267   6.062   2.431   3.042
 8768TIP3    H126268   5.988   2.390   3.088
 8768TIP3    H226269   6.130   2.364   3.042
 8769TIP3   OH226270   3.994   6.097   2.955
 8769TIP3    H126271   3.971   6.151   3.030
 8769TIP3    H226272   3.926   6.115   2.890
 8770TIP3   OH226273   2.536   6.015   0.343
 8770TIP3    H126274   2.583   5.971   0.414
 8770TIP3    H226275   2.527   5.949   0.275
 8771TIP3   OH226276   5.333   2.834   2.623
 8771TIP3    H126277   5.375   2.760   2.580
 8771TIP3    H226278   5.344   2.908   2.563
 8772TIP3   OH226279   4.238   4.980   4.825
 8772TIP3    H126280   4.206   4.895   4.857
 8772TIP3    H226281   4.176   5.004   4.756
 8773TIP3   OH226282   5.304   5.845   3.595
 8773TIP3    H126283   5.251   5.795   3.657
 8773TIP3    H226284   5.321   5.928   3.640
 8774TIP3   OH226285   6.344   4.931   3.263
 8774TIP3    H126286   6.386   5.014   3.286
 8774TIP3    H226287   6.401   4.893   3.197
 8775TIP3   OH226288   4.637   3.305   3.884
 8775TIP3    H126289   4.696   3.337   3.953
 8775TIP3    H226290   4.630   3.378   3.823
 8776TIP3   OH226291   1.873   6.154   4.041
 8776TIP3    H126292   1.824   6.202   3.974
 8776TIP3    H226293   1.964   6.160   4.013
 8777TIP3   OH226294   4.188   3.268   4.148
 8777TIP3    H126295   4.170   3.174   4.146
 8777TIP3    H226296   4.283   3.274   4.150
 8778TIP3   OH226297   5.757   4.628   3.688
 8778TIP3    H126298   5.823   4.619   3.620
 8778TIP3    H226299   5.681   4.666   3.642
 8779TIP3   OH226300   1.653   0.920   2.032
 8779TIP3    H126301   1.685   1.006   2.061
 8779TIP3    H226302   1.576   0.904   2.087
 8780TIP3   OH226303   1.094   5.372   2.354
 8780TIP3    H126304   1.154   5.303   2.381
 8780TIP3    H226305   1.144   5.453   2.362
 8781TIP3   OH226306   0.566   1.895   4.062
 8781TIP3    H126307   0.620   1.939   3.997
 8781TIP3    H226308   0.503   1.962   4.089
 8782TIP3   OH226309   4.147   5.620   3.364
 8782TIP3    H126310   4.235   5.614   3.324
 8782TIP3    H226311   4.103   5.540   3.336
 8783TIP3   OH226312   4.111   6.185   1.012
 8783TIP3    H126313   4.130   6.278   0.998
 8783TIP3    H226314   4.022   6.183   1.047
 8784TIP3   OH226315   3.419   4.473   4.204
 8784TIP3    H126316   3.419   4.441   4.114
 8784TIP3    H226317   3.382   4.561   4.197
 8785TIP3   OH226318   5.741   2.872   2.507
 8785TIP3    H126319   5.821   2.906   2.467
 8785TIP3    H226320   5.729   2.786   2.468
 8786TIP3   OH226321   2.204   3.420   3.820
 8786TIP3    H126322   2.166   3.335   3.799
 8786TIP3    H226323   2.298   3.404   3.826
 8787TIP3   OH226324   6.371   3.838   3.025
 8787TIP3    H126325   6.283   3.846   2.989
 8787TIP3    H226326   6.361   3.780   3.100
 8788TIP3   OH226327   3.122   6.134   2.846
 8788TIP3    H126328   3.191   6.197   2.867
 8788TIP3    H226329   3.052   6.152   2.909
 8789TIP3   OH226330   3.390   0.471   3.264
 8789TIP3    H126331   3.467   0.457   3.319
 8789TIP3    H226332   3.316   0.445   3.319
 8790TIP3   OH226333   0.202   1.997   5.163
 8790TIP3    H126334   0.136   2.064   5.148
 8790TIP3    H226335   0.164   1.918   5.124
 8791TIP3   OH226336   6.235   5.404   4.611
 8791TIP3    H126337   6.213   5.323   4.565
 8791TIP3    H226338   6.321   5.429   4.577
 8792TIP3   OH226339   5.347   4.004   4.443
 8792TIP3    H126340   5.351   3.981   4.351
 8792TIP3    H226341   5.397   3.935   4.488
 8793TIP3   OH226342   4.428   0.997   5.030
 8793TIP3    H126343   4.420   1.017   4.936
 8793TIP3    H226344   4.512   0.951   5.036
 8794TIP3   OH226345   3.890   5.712   5.859
 8794TIP3    H126346   3.795   5.716   5.861
 8794TIP3    H226347   3.918   5.804   5.865
 8795TIP3   OH226348   5.907   5.852   2.244
 8795TIP3    H126349   5.842   5.871   2.176
 8795TIP3    H226350   5.862   5.871   2.327
 8796TIP3   OH226351   1.846   2.993   4.402
 8796TIP3    H126352   1.808   2.987   4.490
 8796TIP3    H226353   1.839   3.085   4.379
 8797TIP3   OH226354   3.062   0.559   2.030
 8797TIP3    H126355   3.104   0.488   1.981
 8797TIP3    H226356   3.100   0.554   2.118
 8798TIP3   OH226357   6.173   0.454   2.397
 8798TIP3    H126358   6.221   0.468   2.316
 8798TIP3    H226359   6.181   0.537   2.445
 8799TIP3   OH226360   2.256   4.285   1.022
 8799TIP3    H126361   2.228   4.339   0.948
 8799TIP3    H226362   2.225   4.197   1.000
 8800TIP3   OH226363   4.701   2.013   2.631
 8800TIP3    H126364   4.679   2.034   2.540
 8800TIP3    H226365   4.616   1.995   2.673
 8801TIP3   OH226366   1.315   0.610   3.577
 8801TIP3    H126367   1.337   0.521   3.606
 8801TIP3    H226368   1.348   0.615   3.487
 8802TIP3   OH226369   3.415   6.437   1.679
 8802TIP3    H126370   3.325   6.419   1.706
 8802TIP3    H226371   3.463   6.357   1.699
 8803TIP3   OH226372   1.895   6.005   2.990
 8803TIP3    H126373   1.908   5.981   3.081
 8803TIP3    H226374   1.889   6.100   2.990
 8804TIP3   OH226375   0.196   6.544   4.233
 8804TIP3    H126376   0.118   6.591   4.261
 8804TIP3    H226377   0.178   6.520   4.142
 8805TIP3   OH226378   1.145   5.017   3.853
 8805TIP3    H126379   1.169   4.960   3.926
 8805TIP3    H226380   1.214   5.004   3.788
 8806TIP3   OH226381   3.771   2.365   3.096
 8806TIP3    H126382   3.690   2.369   3.147
 8806TIP3    H226383   3.825   2.436   3.130
 8807TIP3   OH226384   2.772   0.618   2.573
 8807TIP3    H126385   2.861   0.639   2.547
 8807TIP3    H226386   2.717   0.662   2.509
 8808TIP3   OH226387   2.309   3.338   2.712
 8808TIP3    H126388   2.258   3.279   2.767
 8808TIP3    H226389   2.351   3.281   2.648
 8809TIP3   OH226390   7.075   3.527   5.142
 8809TIP3    H126391   7.001   3.568   5.188
 8809TIP3    H226392   7.144   3.594   5.145
 8810TIP3   OH226393   3.659   1.114   0.975
 8810TIP3    H126394   3.596   1.114   0.902
 8810TIP3    H226395   3.639   1.034   1.023
 8811TIP3   OH226396   0.232   4.749   5.633
 8811TIP3    H126397   0.311   4.754   5.578
 8811TIP3    H226398   0.253   4.804   5.708
 8812TIP3   OH226399   6.911   6.684   2.008
 8812TIP3    H126400   6.883   6.766   1.967
 8812TIP3    H226401   6.970   6.712   2.078
 8813TIP3   OH226402   1.861   1.306   4.788
 8813TIP3    H126403   1.850   1.401   4.781
 8813TIP3    H226404   1.773   1.273   4.808
 8814TIP3   OH226405   3.000   1.141   4.917
 8814TIP3    H126406   3.059   1.089   4.971
 8814TIP3    H226407   2.914   1.101   4.931
 8815TIP3   OH226408   5.062   4.724   3.585
 8815TIP3    H126409   4.967   4.721   3.590
 8815TIP3    H226410   5.091   4.656   3.647
 8816TIP3   OH226411   0.459   4.570   2.618
 8816TIP3    H126412   0.468   4.475   2.618
 8816TIP3    H226413   0.545   4.602   2.646
 8817TIP3   OH226414   4.602   0.851   2.269
 8817TIP3    H126415   4.681   0.859   2.216
 8817TIP3    H226416   4.608   0.921   2.333
 8818TIP3   OH226417   0.657   1.604   5.645
 8818TIP3    H126418   0.597   1.530   5.641
 8818TIP3    H226419   0.604   1.680   5.621
 8819TIP3   OH226420   6.676   6.427   5.416
 8819TIP3    H126421   6.750   6.450   5.472
 8819TIP3    H226422   6.684   6.486   5.341
 8820TIP3   OH226423   4.723   0.850   4.460
 8820TIP3    H126424   4.638   0.892   4.449
 8820TIP3    H226425   4.782   0.919   4.490
 8821TIP3   OH226426   5.934   3.040   5.768
 8821TIP3    H126427   5.949   2.946   5.770
 8821TIP3    H226428   5.935   3.063   5.675
 8822TIP3   OH226429   5.119   4.045   3.472
 8822TIP3    H126430   5.110   4.012   3.561
 8822TIP3    H226431   5.086   4.135   3.476
 8823TIP3   OH226432   5.257   2.317   5.083
 8823TIP3    H126433   5.312   2.338   5.007
 8823TIP3    H226434   5.243   2.401   5.127
 8824TIP3   OH226435   1.555   4.680   4.992
 8824TIP3    H126436   1.519   4.621   4.925
 8824TIP3    H226437   1.577   4.760   4.945
 8825TIP3   OH226438   1.833   1.820   3.675
 8825TIP3    H126439   1.756   1.870   3.702
 8825TIP3    H226440   1.820   1.733   3.713
 8826TIP3   OH226441   5.986   0.330   0.337
 8826TIP3    H126442   5.986   0.326   0.241
 8826TIP3    H226443   6.042   0.257   0.364
 8827TIP3   OH226444   4.584   2.527   1.068
 8827TIP3    H126445   4.521   2.599   1.057
 8827TIP3    H226446   4.636   2.528   0.988
 8828TIP3   OH226447   1.121   0.382   2.948
 8828TIP3    H126448   1.151   0.473   2.947
 8828TIP3    H226449   1.162   0.344   3.026
 8829TIP3   OH226450   3.092   2.793   0.846
 8829TIP3    H126451   3.124   2.736   0.916
 8829TIP3    H226452   3.169   2.811   0.793
 8830TIP3   OH226453   2.947   3.258   3.116
 8830TIP3    H126454   2.902   3.184   3.157
 8830TIP3    H226455   3.023   3.219   3.072
 8831TIP3   OH226456   3.055   4.733   3.841
 8831TIP3    H126457   3.028   4.683   3.918
 8831TIP3    H226458   3.146   4.707   3.826
 8832TIP3   OH226459   0.398   4.830   1.701
 8832TIP3    H126460   0.370   4.854   1.789
 8832TIP3    H226461   0.429   4.740   1.709
 8833TIP3   OH226462   5.337   4.179   1.767
 8833TIP3    H126463   5.275   4.204   1.835
 8833TIP3    H226464   5.283   4.163   1.690
 8834TIP3   OH226465   5.233   0.630   1.436
 8834TIP3    H126466   5.246   0.722   1.413
 8834TIP3    H226467   5.156   0.603   1.385
 8835TIP3   OH226468   7.229   6.412   5.642
 8835TIP3    H126469   7.166   6.478   5.612
 8835TIP3    H226470   7.239   6.429   5.735
 8836TIP3   OH226471   1.477   2.630   0.930
 8836TIP3    H126472   1.480   2.678   1.013
 8836TIP3    H226473   1.411   2.562   0.945
 8837TIP3   OH226474   6.925   2.286   5.902
 8837TIP3    H126475   6.842   2.256   5.940
 8837TIP3    H226476   6.938   2.230   5.825
 8838TIP3   OH226477   1.098   3.426   1.864
 8838TIP3    H126478   1.036   3.477   1.812
 8838TIP3    H226479   1.184   3.457   1.836
 8839TIP3   OH226480   4.058   2.798   5.752
 8839TIP3    H126481   4.079   2.708   5.725
 8839TIP3    H226482   4.129   2.823   5.810
 8840TIP3   OH226483   5.479   2.296   1.448
 8840TIP3    H126484   5.564   2.336   1.467
 8840TIP3    H226485   5.496   2.235   1.376
 8841TIP3   OH226486   2.388   4.498   1.387
 8841TIP3    H126487   2.380   4.542   1.472
 8841TIP3    H226488   2.313   4.529   1.336
 8842TIP3   OH226489   5.200   0.926   3.594
 8842TIP3    H126490   5.212   0.854   3.532
 8842TIP3    H226491   5.204   1.005   3.541
 8843TIP3   OH226492   2.019   2.739   3.420
 8843TIP3    H126493   1.954   2.810   3.420
 8843TIP3    H226494   1.999   2.688   3.342
 8844TIP3   OH226495   4.811   5.542   5.255
 8844TIP3    H126496   4.784   5.452   5.276
 8844TIP3    H226497   4.848   5.536   5.167
 8845TIP3   OH226498   0.611   4.126   3.701
 8845TIP3    H126499   0.702   4.156   3.702
 8845TIP3    H226500   0.598   4.093   3.612
 8846TIP3   OH226501   6.849   1.090   5.314
 8846TIP3    H126502   6.849   1.181   5.342
 8846TIP3    H226503   6.935   1.077   5.274
 8847TIP3   OH226504   0.141   0.307   2.618
 8847TIP3    H126505   0.168   0.238   2.558
 8847TIP3    H226506   0.058   0.338   2.582
 8848TIP3   OH226507   6.083   1.419   1.033
 8848TIP3    H126508   6.168   1.437   0.992
 8848TIP3    H226509   6.021   1.418   0.961
 8849TIP3   OH226510   3.077   2.815   5.823
 8849TIP3    H126511   2.992   2.858   5.835
 8849TIP3    H226512   3.055   2.726   5.798
 8850TIP3   OH226513   0.343   4.945   4.013
 8850TIP3    H126514   0.274   5.010   4.021
 8850TIP3    H226515   0.345   4.901   4.098
 8851TIP3   OH226516   4.453   4.019   1.981
 8851TIP3    H126517   4.503   3.985   2.055
 8851TIP3    H226518   4.375   4.058   2.020
 8852TIP3   OH226519   5.076   0.563   5.797
 8852TIP3    H126520   4.997   0.510   5.812
 8852TIP3    H226521   5.090   0.609   5.880
 8853TIP3   OH226522   3.967   1.731   0.758
 8853TIP3    H126523   4.021   1.747   0.835
 8853TIP3    H226524   3.885   1.696   0.792
 8854TIP3   OH226525   2.111   6.439   5.615
 8854TIP3    H126526   2.147   6.504   5.675
 8854TIP3    H226527   2.179   6.372   5.609
 8855TIP3   OH226528   5.797   4.428   4.644
 8855TIP3    H126529   5.741   4.476   4.705
 8855TIP3    H226530   5.864   4.388   4.700
 8856TIP3   OH226531   2.370   5.788   0.193
 8856TIP3    H126532   2.295   5.739   0.159
 8856TIP3    H226533   2.377   5.761   0.284
 8857TIP3   OH226534   5.949   6.128   1.861
 8857TIP3    H126535   5.884   6.127   1.791
 8857TIP3    H226536   6.025   6.171   1.823
 8858TIP3   OH226537   4.232   4.158   2.053
 8858TIP3    H126538   4.162   4.169   1.989
 8858TIP3    H226539   4.235   4.242   2.099
 8859TIP3   OH226540   4.712   0.808   1.414
 8859TIP3    H126541   4.633   0.839   1.459
 8859TIP3    H226542   4.779   0.874   1.435
 8860TIP3   OH226543   3.784   3.517   3.500
 8860TIP3    H126544   3.731   3.559   3.567
 8860TIP3    H226545   3.847   3.464   3.550
 8861TIP3   OH226546   2.111   5.561   3.436
 8861TIP3    H126547   2.101   5.466   3.446
 8861TIP3    H226548   2.128   5.574   3.343
 8862TIP3   OH226549   5.031   0.223   2.268
 8862TIP3    H126550   5.105   0.277   2.293
 8862TIP3    H226551   5.070   0.148   2.222
 8863TIP3   OH226552   5.007   1.570   2.149
 8863TIP3    H126553   5.063   1.645   2.166
 8863TIP3    H226554   5.063   1.494   2.167
 8864TIP3   OH226555   1.151   4.807   3.183
 8864TIP3    H126556   1.061   4.777   3.191
 8864TIP3    H226557   1.181   4.773   3.098
 8865TIP3   OH226558   3.149   4.960   1.604
 8865TIP3    H126559   3.185   4.938   1.518
 8865TIP3    H226560   3.152   4.878   1.653
 8866TIP3   OH226561   6.147   2.497   4.549
 8866TIP3    H126562   6.148   2.463   4.638
 8866TIP3    H226563   6.149   2.420   4.493
 8867TIP3   OH226564   5.260   1.255   4.971
 8867TIP3    H126565   5.252   1.331   5.028
 8867TIP3    H226566   5.250   1.179   5.029
 8868TIP3   OH226567   3.011   1.213   4.628
 8868TIP3    H126568   3.078   1.271   4.592
 8868TIP3    H226569   3.031   1.208   4.721
 8869TIP3   OH226570   0.071   3.088   2.487
 8869TIP3    H126571   0.069   3.079   2.391
 8869TIP3    H226572  -0.021   3.093   2.513
 8870TIP3   OH226573   0.940   3.486   1.225
 8870TIP3    H126574   0.882   3.426   1.178
 8870TIP3    H226575   1.016   3.494   1.168
 8871TIP3   OH226576   4.656   2.033   1.036
 8871TIP3    H126577   4.639   2.071   1.122
 8871TIP3    H226578   4.628   2.100   0.974
 8872TIP3   OH226579   6.137   5.276   0.532
 8872TIP3    H126580   6.137   5.207   0.599
 8872TIP3    H226581   6.085   5.241   0.461
 8873TIP3   OH226582   0.528   5.118   0.352
 8873TIP3    H126583   0.495   5.140   0.264
 8873TIP3    H226584   0.544   5.024   0.348
 8874TIP3   OH226585   3.706   0.272   5.755
 8874TIP3    H126586   3.637   0.284   5.691
 8874TIP3    H226587   3.776   0.227   5.707
 8875TIP3   OH226588   0.121   2.386   1.005
 8875TIP3    H126589   0.056   2.339   0.952
 8875TIP3    H226590   0.191   2.408   0.943
 8876TIP3   OH226591   4.458   3.103   2.457
 8876TIP3    H126592   4.520   3.097   2.385
 8876TIP3    H226593   4.451   3.013   2.489
 8877TIP3   OH226594   3.783   5.295   4.969
 8877TIP3    H126595   3.734   5.246   5.036
 8877TIP3    H226596   3.873   5.264   4.979
 8878TIP3   OH226597   4.860   2.566   2.411
 8878TIP3    H126598   4.791   2.622   2.377
 8878TIP3    H226599   4.829   2.538   2.497
 8879TIP3   OH226600   2.970   1.597   4.721
 8879TIP3    H126601   2.882   1.565   4.738
 8879TIP3    H226602   2.976   1.678   4.771
 8880TIP3   OH226603   5.182   1.522   1.493
 8880TIP3    H126604   5.222   1.508   1.407
 8880TIP3    H226605   5.114   1.588   1.477
 8881TIP3   OH226606   5.845   4.859   0.158
 8881TIP3    H126607   5.898   4.809   0.096
 8881TIP3    H226608   5.868   4.951   0.141
 8882TIP3   OH226609   0.285   4.543   0.537
 8882TIP3    H126610   0.256   4.534   0.446
 8882TIP3    H226611   0.270   4.636   0.557
 8883TIP3   OH226612   3.699   1.664   3.442
 8883TIP3    H126613   3.733   1.580   3.411
 8883TIP3    H226614   3.639   1.640   3.513
 8884TIP3   OH226615   2.618   6.276   4.058
 8884TIP3    H126616   2.551   6.336   4.026
 8884TIP3    H226617   2.633   6.216   3.985
 8885TIP3   OH226618   6.750   2.217   2.296
 8885TIP3    H126619   6.740   2.272   2.218
 8885TIP3    H226620   6.797   2.139   2.264
 8886TIP3   OH226621   4.342   4.765   5.644
 8886TIP3    H126622   4.434   4.741   5.647
 8886TIP3    H226623   4.342   4.860   5.645
 8887TIP3   OH226624   6.672   4.442   0.506
 8887TIP3    H126625   6.615   4.412   0.576
 8887TIP3    H226626   6.639   4.529   0.484
 8888TIP3   OH226627   0.507   2.005   1.165
 8888TIP3    H126628   0.442   2.071   1.140
 8888TIP3    H226629   0.482   1.979   1.254
 8889TIP3   OH226630   0.382   0.323   1.558
 8889TIP3    H126631   0.380   0.228   1.545
 8889TIP3    H226632   0.392   0.334   1.652
 8890TIP3   OH226633   4.323   3.856   1.532
 8890TIP3    H126634   4.239   3.855   1.487
 8890TIP3    H226635   4.306   3.904   1.614
 8891TIP3   OH226636   6.627   2.843   4.054
 8891TIP3    H126637   6.723   2.844   4.048
 8891TIP3    H226638   6.598   2.891   3.977
 8892TIP3   OH226639   3.508   4.002   0.918
 8892TIP3    H126640   3.577   4.069   0.913
 8892TIP3    H226641   3.445   4.037   0.981
 8893TIP3   OH226642   4.387   3.822   5.137
 8893TIP3    H126643   4.371   3.800   5.045
 8893TIP3    H226644   4.308   3.792   5.183
 8894TIP3   OH226645   2.814   2.416   4.992
 8894TIP3    H126646   2.753   2.369   5.048
 8894TIP3    H226647   2.840   2.351   4.926
 8895TIP3   OH226648   2.400   2.853   4.928
 8895TIP3    H126649   2.414   2.773   4.878
 8895TIP3    H226650   2.462   2.916   4.891
 8896TIP3   OH226651   3.046   4.599   0.205
 8896TIP3    H126652   3.035   4.530   0.271
 8896TIP3    H226653   3.064   4.678   0.256
 8897TIP3   OH226654   3.786   5.073   3.160
 8897TIP3    H126655   3.813   5.005   3.099
 8897TIP3    H226656   3.750   5.142   3.105
 8898TIP3   OH226657   3.002   2.189   3.895
 8898TIP3    H126658   3.059   2.263   3.875
 8898TIP3    H226659   2.948   2.178   3.816
 8899TIP3   OH226660   3.505   6.161   0.718
 8899TIP3    H126661   3.599   6.147   0.730
 8899TIP3    H226662   3.478   6.211   0.796
 8900TIP3   OH226663   5.633   0.656   1.573
 8900TIP3    H126664   5.617   0.718   1.502
 8900TIP3    H226665   5.551   0.656   1.622
 8901TIP3   OH226666   1.816   0.534   1.783
 8901TIP3    H126667   1.768   0.598   1.836
 8901TIP3    H226668   1.880   0.587   1.735
 8902TIP3   OH226669   1.251   1.133   1.130
 8902TIP3    H126670   1.295   1.209   1.167
 8902TIP3    H226671   1.287   1.124   1.042
 8903TIP3   OH226672   4.238   0.571   5.369
 8903TIP3    H126673   4.150   0.608   5.369
 8903TIP3    H226674   4.225   0.478   5.387
 8904TIP3   OH226675   5.911   0.075   4.391
 8904TIP3    H126676   5.960   0.148   4.428
 8904TIP3    H226677   5.873   0.030   4.466
 8905TIP3   OH226678   7.043   5.182   2.387
 8905TIP3    H126679   6.967   5.196   2.330
 8905TIP3    H226680   7.110   5.146   2.328
 8906TIP3   OH226681   0.672   0.539   5.834
 8906TIP3    H126682   0.578   0.542   5.853
 8906TIP3    H226683   0.677   0.496   5.749
 8907TIP3   OH226684   6.759   2.074   0.519
 8907TIP3    H126685   6.776   1.980   0.518
 8907TIP3    H226686   6.791   2.104   0.605
 8908TIP3   OH226687   6.847   3.967   4.794
 8908TIP3    H126688   6.923   4.023   4.810
 8908TIP3    H226689   6.860   3.892   4.852
 8909TIP3   OH226690   6.519   3.155   4.621
 8909TIP3    H126691   6.448   3.219   4.631
 8909TIP3    H226692   6.572   3.188   4.549
 8910TIP3   OH226693   5.054   1.306   1.218
 8910TIP3    H126694   5.126   1.367   1.232
 8910TIP3    H226695   5.090   1.239   1.159
 8911TIP3   OH226696   2.770   6.227   1.538
 8911TIP3    H126697   2.846   6.271   1.576
 8911TIP3    H226698   2.719   6.199   1.614
 8912TIP3   OH226699   0.743   1.514   1.322
 8912TIP3    H126700   0.691   1.456   1.266
 8912TIP3    H226701   0.779   1.579   1.262
 8913TIP3   OH226702   0.691   2.173   1.281
 8913TIP3    H126703   0.613   2.128   1.248
 8913TIP3    H226704   0.763   2.114   1.260
 8914TIP3   OH226705   1.129   2.316   0.971
 8914TIP3    H126706   1.052   2.306   0.915
 8914TIP3    H226707   1.204   2.302   0.913
 8915TIP3   OH226708   0.576   5.667   3.266
 8915TIP3    H126709   0.572   5.571   3.262
 8915TIP3    H226710   0.611   5.686   3.353
 8916TIP3   OH226711   0.652   6.061   1.269
 8916TIP3    H126712   0.615   5.974   1.276
 8916TIP3    H226713   0.588   6.110   1.216
 8917TIP3   OH226714   5.236   4.218   1.018
 8917TIP3    H126715   5.168   4.178   1.072
 8917TIP3    H226716   5.200   4.303   0.993
 8918TIP3   OH226717   5.912   0.093   1.977
 8918TIP3    H126718   5.911   0.132   2.064
 8918TIP3    H226719   5.959   0.010   1.989
 8919TIP3   OH226720   5.613   4.694   0.178
 8919TIP3    H126721   5.580   4.711   0.090
 8919TIP3    H226722   5.702   4.729   0.177
 8920TIP3   OH226723   2.225   0.280   2.265
 8920TIP3    H126724   2.131   0.262   2.266
 8920TIP3    H226725   2.232   0.375   2.273
 8921TIP3   OH226726   6.694   2.395   0.598
 8921TIP3    H126727   6.729   2.328   0.540
 8921TIP3    H226728   6.600   2.377   0.602
 8922TIP3   OH226729   2.156   5.300   4.124
 8922TIP3    H126730   2.219   5.316   4.194
 8922TIP3    H226731   2.093   5.237   4.161
 8923TIP3   OH226732   5.505   6.448   4.395
 8923TIP3    H126733   5.411   6.454   4.408
 8923TIP3    H226734   5.538   6.406   4.474
 8924TIP3   OH226735   2.178   3.806   5.105
 8924TIP3    H126736   2.186   3.887   5.156
 8924TIP3    H226737   2.211   3.738   5.163
 8925TIP3   OH226738   0.364   4.951   5.209
 8925TIP3    H126739   0.421   5.027   5.222
 8925TIP3    H226740   0.275   4.986   5.214
 8926TIP3   OH226741   3.087   5.325   0.642
 8926TIP3    H126742   3.116   5.307   0.552
 8926TIP3    H226743   3.084   5.420   0.648
 8927TIP3   OH226744   1.733   6.211   5.776
 8927TIP3    H126745   1.751   6.303   5.795
 8927TIP3    H226746   1.763   6.199   5.686
 8928TIP3   OH226747   4.714   0.236   1.912
 8928TIP3    H126748   4.653   0.311   1.907
 8928TIP3    H226749   4.785   0.259   1.852
 8929TIP3   OH226750   4.055   0.598   4.897
 8929TIP3    H126751   4.084   0.634   4.981
 8929TIP3    H226752   4.061   0.671   4.836
 8930TIP3   OH226753   4.027   4.775   4.486
 8930TIP3    H126754   4.112   4.738   4.462
 8930TIP3    H226755   4.030   4.783   4.582
 8931TIP3   OH226756   3.378   5.289   4.354
 8931TIP3    H126757   3.322   5.358   4.390
 8931TIP3    H226758   3.425   5.255   4.430
 8932TIP3   OH226759   3.686   1.674   1.329
 8932TIP3    H126760   3.626   1.620   1.278
 8932TIP3    H226761   3.720   1.615   1.396
 8933TIP3   OH226762   6.652   1.505   2.321
 8933TIP3    H126763   6.677   1.509   2.413
 8933TIP3    H226764   6.575   1.447   2.319
 8934TIP3   OH226765   1.194   5.655   0.340
 8934TIP3    H126766   1.205   5.576   0.393
 8934TIP3    H226767   1.284   5.686   0.325
 8935TIP3   OH226768   5.578   6.737   3.950
 8935TIP3    H126769   5.642   6.672   3.980
 8935TIP3    H226770   5.567   6.719   3.856
 8936TIP3   OH226771   3.413   5.391   0.969
 8936TIP3    H126772   3.450   5.412   0.883
 8936TIP3    H226773   3.466   5.440   1.031
 8937TIP3   OH226774   6.520   4.503   2.089
 8937TIP3    H126775   6.500   4.422   2.136
 8937TIP3    H226776   6.516   4.479   1.997
 8938TIP3   OH226777   1.146   5.855   1.156
 8938TIP3    H126778   1.150   5.912   1.233
 8938TIP3    H226779   1.237   5.847   1.127
 8939TIP3   OH226780   4.857   5.806   1.049
 8939TIP3    H126781   4.831   5.805   0.957
 8939TIP3    H226782   4.807   5.736   1.089
 8940TIP3   OH226783   4.638   0.707   5.791
 8940TIP3    H126784   4.644   0.758   5.871
 8940TIP3    H226785   4.545   0.703   5.772
 8941TIP3   OH226786   3.484   3.187   0.066
 8941TIP3    H126787   3.419   3.195   0.136
 8941TIP3    H226788   3.557   3.241   0.096
 8942TIP3   OH226789   6.823   2.884   1.240
 8942TIP3    H126790   6.785   2.813   1.187
 8942TIP3    H226791   6.908   2.901   1.200
 8943TIP3   OH226792   6.818   5.705   0.970
 8943TIP3    H126793   6.869   5.626   0.985
 8943TIP3    H226794   6.848   5.739   0.886
 8944TIP3   OH226795   7.036   0.838   3.658
 8944TIP3    H126796   6.995   0.924   3.666
 8944TIP3    H226797   7.003   0.788   3.733
 8945TIP3   OH226798   2.265   4.775   3.357
 8945TIP3    H126799   2.218   4.857   3.343
 8945TIP3    H226800   2.344   4.783   3.303
 8946TIP3   OH226801   4.448   5.644   5.427
 8946TIP3    H126802   4.447   5.703   5.351
 8946TIP3    H226803   4.370   5.588   5.416
 8947TIP3   OH226804   6.404   2.521   0.403
 8947TIP3    H126805   6.439   2.532   0.491
 8947TIP3    H226806   6.481   2.523   0.346
 8948TIP3   OH226807   6.473   2.385   3.330
 8948TIP3    H126808   6.505   2.355   3.415
 8948TIP3    H226809   6.534   2.348   3.267
 8949TIP3   OH226810   4.003   4.299   2.246
 8949TIP3    H126811   3.953   4.254   2.178
 8949TIP3    H226812   3.937   4.325   2.311
 8950TIP3   OH226813   6.090   6.097   5.745
 8950TIP3    H126814   6.156   6.148   5.793
 8950TIP3    H226815   6.013   6.098   5.802
 8951TIP3   OH226816   6.825   6.740   3.440
 8951TIP3    H126817   6.915   6.718   3.463
 8951TIP3    H226818   6.823   6.836   3.439
 8952TIP3   OH226819   0.328   1.173   4.914
 8952TIP3    H126820   0.347   1.254   4.867
 8952TIP3    H226821   0.407   1.120   4.906
 8953TIP3   OH226822   0.225   4.511   1.099
 8953TIP3    H126823   0.206   4.555   1.182
 8953TIP3    H226824   0.156   4.541   1.039
 8954TIP3   OH226825   0.604   6.112   5.798
 8954TIP3    H126826   0.530   6.109   5.859
 8954TIP3    H226827   0.591   6.194   5.750
 8955TIP3   OH226828   6.546   4.063   2.591
 8955TIP3    H126829   6.628   4.110   2.577
 8955TIP3    H226830   6.480   4.117   2.547
 8956TIP3   OH226831   5.829   1.063   3.359
 8956TIP3    H126832   5.841   1.003   3.433
 8956TIP3    H226833   5.831   1.006   3.281
 8957TIP3   OH226834   6.441   2.324   4.747
 8957TIP3    H126835   6.439   2.284   4.660
 8957TIP3    H226836   6.504   2.271   4.797
 8958TIP3   OH226837   5.155   1.316   5.672
 8958TIP3    H126838   5.074   1.339   5.628
 8958TIP3    H226839   5.136   1.232   5.715
 8959TIP3   OH226840   2.915   3.410   1.573
 8959TIP3    H126841   2.975   3.346   1.613
 8959TIP3    H226842   2.963   3.443   1.497
 8960TIP3   OH226843   6.535   5.261   0.841
 8960TIP3    H126844   6.544   5.356   0.829
 8960TIP3    H226845   6.496   5.230   0.760
 8961TIP3   OH226846   7.113   3.379   0.507
 8961TIP3    H126847   7.208   3.379   0.506
 8961TIP3    H226848   7.089   3.293   0.539
 8962TIP3   OH226849   1.692   0.362   5.384
 8962TIP3    H126850   1.626   0.405   5.330
 8962TIP3    H226851   1.667   0.270   5.385
 8963TIP3   OH226852   1.375   2.567   5.055
 8963TIP3    H126853   1.322   2.613   4.989
 8963TIP3    H226854   1.445   2.628   5.076
 8964TIP3   OH226855   5.863   4.014   4.301
 8964TIP3    H126856   5.871   4.043   4.391
 8964TIP3    H226857   5.783   4.056   4.269
 8965TIP3   OH226858   5.866   0.613   4.198
 8965TIP3    H126859   5.803   0.658   4.255
 8965TIP3    H226860   5.945   0.666   4.204
 8966TIP3   OH226861   3.087   4.582   0.927
 8966TIP3    H126862   3.157   4.646   0.927
 8966TIP3    H226863   3.117   4.512   0.868
 8967TIP3   OH226864   2.529   1.279   1.462
 8967TIP3    H126865   2.511   1.372   1.472
 8967TIP3    H226866   2.601   1.262   1.523
 8968TIP3   OH226867   5.457   3.479   5.477
 8968TIP3    H126868   5.484   3.566   5.447
 8968TIP3    H226869   5.371   3.493   5.517
 8969TIP3   OH226870   6.788   0.579   0.371
 8969TIP3    H126871   6.818   0.579   0.280
 8969TIP3    H226872   6.865   0.557   0.422
 8970TIP3   OH226873   4.443   4.678   0.518
 8970TIP3    H126874   4.357   4.686   0.477
 8970TIP3    H226875   4.474   4.591   0.493
 8971TIP3   OH226876   2.456   0.953   5.791
 8971TIP3    H126877   2.499   0.876   5.755
 8971TIP3    H226878   2.415   0.996   5.715
 8972TIP3   OH226879   2.836   1.593   1.022
 8972TIP3    H126880   2.830   1.537   0.944
 8972TIP3    H226881   2.757   1.572   1.072
 8973TIP3   OH226882   0.419   4.505   0.851
 8973TIP3    H126883   0.388   4.527   0.939
 8973TIP3    H226884   0.345   4.461   0.810
 8974TIP3   OH226885   0.795   2.824   0.789
 8974TIP3    H126886   0.854   2.749   0.795
 8974TIP3    H226887   0.713   2.788   0.755
 8975TIP3   OH226888   0.493   2.729   1.918
 8975TIP3    H126889   0.400   2.709   1.923
 8975TIP3    H226890   0.509   2.744   1.824
 8976TIP3   OH226891   5.781   1.389   0.586
 8976TIP3    H126892   5.712   1.448   0.557
 8976TIP3    H226893   5.755   1.303   0.552
 8977TIP3   OH226894   5.179   0.270   3.341
 8977TIP3    H126895   5.129   0.197   3.307
 8977TIP3    H226896   5.235   0.231   3.409
 8978TIP3   OH226897   0.312   6.164   3.385
 8978TIP3    H126898   0.399   6.137   3.356
 8978TIP3    H226899   0.261   6.082   3.388
 8979TIP3   OH226900   6.218   6.393   5.446
 8979TIP3    H126901   6.284   6.384   5.515
 8979TIP3    H226902   6.205   6.303   5.414
 8980TIP3   OH226903   5.669   2.085   2.243
 8980TIP3    H126904   5.722   2.018   2.286
 8980TIP3    H226905   5.678   2.162   2.299
 8981TIP3   OH226906   1.712   0.031   0.884
 8981TIP3    H126907   1.642   0.028   0.950
 8981TIP3    H226908   1.668   0.007   0.802
 8982TIP3   OH226909   1.604   4.195   3.022
 8982TIP3    H126910   1.698   4.212   3.015
 8982TIP3    H226911   1.576   4.250   3.095
 8983TIP3   OH226912   6.847   3.529   1.677
 8983TIP3    H126913   6.765   3.490   1.706
 8983TIP3    H226914   6.853   3.612   1.724
 8984TIP3   OH226915   6.290   0.099   4.999
 8984TIP3    H126916   6.232   0.124   5.071
 8984TIP3    H226917   6.238   0.115   4.920
 8985TIP3   OH226918   0.832   4.441   0.130
 8985TIP3    H126919   0.904   4.399   0.178
 8985TIP3    H226920   0.817   4.523   0.175
 8986TIP3   OH226921   4.889   2.949   0.281
 8986TIP3    H126922   4.839   2.867   0.290
 8986TIP3    H226923   4.898   2.981   0.371
 8987TIP3   OH226924   1.442   5.874   3.342
 8987TIP3    H126925   1.432   5.782   3.366
 8987TIP3    H226926   1.420   5.877   3.248
 8988TIP3   OH226927   0.234   4.294   1.286
 8988TIP3    H126928   0.242   4.386   1.260
 8988TIP3    H226929   0.144   4.270   1.263
 8989TIP3   OH226930   3.189   0.479   2.511
 8989TIP3    H126931   3.186   0.387   2.535
 8989TIP3    H226932   3.268   0.513   2.555
 8990TIP3   OH226933   2.138   1.179   4.449
 8990TIP3    H126934   2.220   1.205   4.491
 8990TIP3    H226935   2.078   1.162   4.522
 8991TIP3   OH226936   6.075   3.202   0.240
 8991TIP3    H126937   5.992   3.239   0.270
 8991TIP3    H226938   6.115   3.271   0.188
 8992TIP3   OH226939   6.336   2.892   4.868
 8992TIP3    H126940   6.270   2.865   4.931
 8992TIP3    H226941   6.376   2.810   4.838
 8993TIP3   OH226942   3.395   3.314   2.860
 8993TIP3    H126943   3.481   3.351   2.878
 8993TIP3    H226944   3.364   3.360   2.782
 8994TIP3   OH226945   2.887   3.484   5.716
 8994TIP3    H126946   2.982   3.474   5.714
 8994TIP3    H226947   2.868   3.552   5.651
 8995TIP3   OH226948   0.625   0.785   4.575
 8995TIP3    H126949   0.530   0.781   4.584
 8995TIP3    H226950   0.640   0.821   4.487
 8996TIP3   OH226951   1.338   4.459   3.383
 8996TIP3    H126952   1.247   4.431   3.373
 8996TIP3    H226953   1.384   4.382   3.416
 8997TIP3   OH226954   4.272   1.363   1.812
 8997TIP3    H126955   4.181   1.347   1.786
 8997TIP3    H226956   4.288   1.301   1.883
 8998TIP3   OH226957   6.978   0.984   5.537
 8998TIP3    H126958   6.995   1.072   5.503
 8998TIP3    H226959   6.925   0.942   5.469
 8999TIP3   OH226960   6.271   2.385   1.768
 8999TIP3    H126961   6.255   2.470   1.810
 8999TIP3    H226962   6.183   2.348   1.755
 9000TIP3   OH226963   0.651   6.210   2.059
 9000TIP3    H126964   0.600   6.150   2.113
 9000TIP3    H226965   0.734   6.164   2.045
 9001TIP3   OH226966   1.325   1.684   1.177
 9001TIP3    H126967   1.263   1.653   1.243
 9001TIP3    H226968   1.408   1.692   1.224
 9002TIP3   OH226969   3.565   2.078   0.419
 9002TIP3    H126970   3.493   2.121   0.464
 9002TIP3    H226971   3.638   2.081   0.481
 9003TIP3   OH226972   3.623   5.111   0.351
 9003TIP3    H126973   3.554   5.139   0.291
 9003TIP3    H226974   3.673   5.191   0.369
 9004TIP3   OH226975   6.436   5.414   0.051
 9004TIP3    H126976   6.435   5.473   0.126
 9004TIP3    H226977   6.409   5.329   0.086
 9005TIP3   OH226978   4.938   5.752   1.917
 9005TIP3    H126979   5.013   5.735   1.860
 9005TIP3    H226980   4.964   5.717   2.002
 9006TIP3   OH226981   2.397   3.536   1.965
 9006TIP3    H126982   2.404   3.496   1.879
 9006TIP3    H226983   2.486   3.562   1.987
 9007TIP3   OH226984   5.601   1.303   5.846
 9007TIP3    H126985   5.610   1.275   5.755
 9007TIP3    H226986   5.521   1.354   5.847
 9008TIP3   OH226987   0.912   1.834   1.390
 9008TIP3    H126988   0.844   1.784   1.434
 9008TIP3    H226989   0.873   1.861   1.307
 9009TIP3   OH226990   6.181   5.165   1.938
 9009TIP3    H126991   6.205   5.178   1.847
 9009TIP3    H226992   6.153   5.073   1.943
 9010TIP3   OH226993   3.192   4.243   2.029
 9010TIP3    H126994   3.225   4.287   1.950
 9010TIP3    H226995   3.183   4.313   2.093
 9011TIP3   OH226996   0.098   1.022   4.805
 9011TIP3    H126997   0.160   1.070   4.859
 9011TIP3    H226998   0.128   1.037   4.715
 9012TIP3   OH226999   5.480   6.068   1.326
 9012TIP3    H127000   5.444   6.024   1.249
 9012TIP3    H227001   5.403   6.104   1.371
 9013TIP3   OH227002   4.551   4.506   5.298
 9013TIP3    H127003   4.549   4.601   5.284
 9013TIP3    H227004   4.463   4.476   5.273
 9014TIP3   OH227005   0.035   3.728   5.415
 9014TIP3    H127006   0.113   3.685   5.378
 9014TIP3    H227007  -0.023   3.740   5.341
 9015TIP3   OH227008   1.164   1.329   3.705
 9015TIP3    H127009   1.127   1.409   3.669
 9015TIP3    H227010   1.104   1.305   3.776
 9016TIP3   OH227011   2.245   5.657   1.335
 9016TIP3    H127012   2.226   5.713   1.411
 9016TIP3    H227013   2.268   5.719   1.265
 9017TIP3   OH227014   5.913   0.682   5.073
 9017TIP3    H127015   5.908   0.766   5.119
 9017TIP3    H227016   5.939   0.620   5.140
 9018TIP3   OH227017   6.709   2.068   4.922
 9018TIP3    H127018   6.734   2.158   4.944
 9018TIP3    H227019   6.763   2.045   4.847
 9019TIP3   OH227020   5.718   1.571   4.852
 9019TIP3    H127021   5.808   1.548   4.873
 9019TIP3    H227022   5.718   1.667   4.844
 9020TIP3   OH227023   0.515   6.695   3.217
 9020TIP3    H127024   0.584   6.631   3.236
 9020TIP3    H227025   0.445   6.673   3.279
 9021TIP3   OH227026   3.230   5.759   2.443
 9021TIP3    H127027   3.161   5.824   2.434
 9021TIP3    H227028   3.193   5.679   2.406
 9022TIP3   OH227029   4.799   5.909   1.743
 9022TIP3    H127030   4.785   5.999   1.773
 9022TIP3    H227031   4.828   5.862   1.820
 9023TIP3   OH227032   5.872   2.641   3.283
 9023TIP3    H127033   5.800   2.655   3.345
 9023TIP3    H227034   5.938   2.705   3.308
 9024TIP3   OH227035   4.453   0.394   5.902
 9024TIP3    H127036   4.418   0.354   5.823
 9024TIP3    H227037   4.388   0.373   5.970
 9025TIP3   OH227038   0.195   4.602   2.766
 9025TIP3    H127039   0.244   4.566   2.692
 9025TIP3    H227040   0.108   4.620   2.730
 9026TIP3   OH227041   2.447   3.957   3.434
 9026TIP3    H127042   2.448   4.053   3.434
 9026TIP3    H227043   2.481   3.932   3.520
 9027TIP3   OH227044   1.492   0.582   4.104
 9027TIP3    H127045   1.461   0.582   4.013
 9027TIP3    H227046   1.428   0.528   4.151
 9028TIP3   OH227047   4.226   3.335   1.790
 9028TIP3    H127048   4.266   3.277   1.855
 9028TIP3    H227049   4.300   3.380   1.750
 9029TIP3   OH227050   6.861   3.672   2.926
 9029TIP3    H127051   6.884   3.741   2.989
 9029TIP3    H227052   6.766   3.661   2.935
 9030TIP3   OH227053   7.051   0.584   3.959
 9030TIP3    H127054   7.034   0.523   3.887
 9030TIP3    H227055   6.993   0.658   3.941
 9031TIP3   OH227056   0.967   5.121   3.540
 9031TIP3    H127057   0.938   5.080   3.621
 9031TIP3    H227058   1.031   5.059   3.503
 9032TIP3   OH227059   5.385   2.413   4.282
 9032TIP3    H127060   5.318   2.468   4.322
 9032TIP3    H227061   5.421   2.466   4.211
 9033TIP3   OH227062   3.866   2.104   3.257
 9033TIP3    H127063   3.802   2.069   3.195
 9033TIP3    H227064   3.933   2.144   3.202
 9034TIP3   OH227065   1.087   4.072   5.512
 9034TIP3    H127066   1.169   4.051   5.557
 9034TIP3    H227067   1.042   3.987   5.503
 9035TIP3   OH227068   2.429   5.966   4.092
 9035TIP3    H127069   2.379   6.023   4.150
 9035TIP3    H227070   2.521   5.982   4.117
 9036TIP3   OH227071   5.259   6.166   4.006
 9036TIP3    H127072   5.312   6.224   4.060
 9036TIP3    H227073   5.198   6.125   4.067
 9037TIP3   OH227074   5.082   6.355   0.952
 9037TIP3    H127075   5.145   6.385   1.017
 9037TIP3    H227076   5.124   6.280   0.910
 9038TIP3   OH227077   0.493   2.652   1.618
 9038TIP3    H127078   0.434   2.578   1.634
 9038TIP3    H227079   0.438   2.716   1.572
 9039TIP3   OH227080   5.232   1.884   1.668
 9039TIP3    H127081   5.262   1.795   1.650
 9039TIP3    H227082   5.308   1.939   1.648
 9040TIP3   OH227083   0.472   4.632   0.168
 9040TIP3    H127084   0.405   4.565   0.156
 9040TIP3    H227085   0.548   4.599   0.120
 9041TIP3   OH227086   2.280   1.864   4.539
 9041TIP3    H127087   2.262   1.788   4.483
 9041TIP3    H227088   2.207   1.866   4.600
 9042TIP3   OH227089   1.583   5.268   0.590
 9042TIP3    H127090   1.573   5.252   0.684
 9042TIP3    H227091   1.496   5.251   0.553
 9043TIP3   OH227092   4.401   0.224   0.770
 9043TIP3    H127093   4.485   0.226   0.724
 9043TIP3    H227094   4.392   0.133   0.800
 9044TIP3   OH227095   3.358   4.140   5.211
 9044TIP3    H127096   3.403   4.151   5.127
 9044TIP3    H227097   3.304   4.218   5.220
 9045TIP3   OH227098   0.657   1.212   4.535
 9045TIP3    H127099   0.713   1.281   4.573
 9045TIP3    H227100   0.568   1.248   4.540
 9046TIP3   OH227101   5.827   5.753   0.088
 9046TIP3    H127102   5.909   5.788   0.053
 9046TIP3    H227103   5.783   5.716   0.011
 9047TIP3   OH227104   1.490   2.022   0.227
 9047TIP3    H127105   1.500   2.000   0.135
 9047TIP3    H227106   1.578   2.014   0.263
 9048TIP3   OH227107   1.491   4.460   5.803
 9048TIP3    H127108   1.426   4.444   5.871
 9048TIP3    H227109   1.453   4.420   5.724
 9049TIP3   OH227110   5.586   5.494   4.661
 9049TIP3    H127111   5.651   5.463   4.598
 9049TIP3    H227112   5.626   5.480   4.747
 9050TIP3   OH227113   2.820   6.021   2.091
 9050TIP3    H127114   2.896   6.041   2.146
 9050TIP3    H227115   2.801   5.929   2.109
 9051TIP3   OH227116   0.432   4.396   3.112
 9051TIP3    H127117   0.446   4.358   3.198
 9051TIP3    H227118   0.499   4.358   3.056
 9052TIP3   OH227119   4.387   5.015   5.704
 9052TIP3    H127120   4.346   5.073   5.767
 9052TIP3    H227121   4.479   5.039   5.704
 9053TIP3   OH227122   3.889   0.107   2.903
 9053TIP3    H127123   3.965   0.136   2.852
 9053TIP3    H227124   3.926   0.067   2.981
 9054TIP3   OH227125   5.328   2.973   2.967
 9054TIP3    H127126   5.369   2.956   3.051
 9054TIP3    H227127   5.271   2.898   2.952
 9055TIP3   OH227128   0.711   6.453   1.213
 9055TIP3    H127129   0.791   6.427   1.169
 9055TIP3    H227130   0.740   6.509   1.286
 9056TIP3   OH227131   4.200   0.681   1.974
 9056TIP3    H127132   4.282   0.729   1.966
 9056TIP3    H227133   4.181   0.681   2.067
 9057TIP3   OH227134   1.999   2.383   5.817
 9057TIP3    H127135   1.926   2.392   5.878
 9057TIP3    H227136   2.075   2.414   5.866
 9058TIP3   OH227137   0.528   4.521   5.381
 9058TIP3    H127138   0.526   4.485   5.292
 9058TIP3    H227139   0.476   4.600   5.376
 9059TIP3   OH227140   6.376   2.696   1.567
 9059TIP3    H127141   6.295   2.646   1.557
 9059TIP3    H227142   6.439   2.653   1.510
 9060TIP3   OH227143   3.319   6.260   1.466
 9060TIP3    H127144   3.284   6.176   1.437
 9060TIP3    H227145   3.368   6.240   1.546
 9061TIP3   OH227146   1.521   2.721   0.484
 9061TIP3    H127147   1.484   2.788   0.427
 9061TIP3    H227148   1.587   2.767   0.536
 9062TIP3   OH227149   5.984   3.206   2.275
 9062TIP3    H127150   6.045   3.248   2.335
 9062TIP3    H227151   5.980   3.115   2.304
 9063TIP3   OH227152   5.710   4.804   5.151
 9063TIP3    H127153   5.679   4.839   5.068
 9063TIP3    H227154   5.634   4.761   5.189
 9064TIP3   OH227155   6.257   3.214   3.883
 9064TIP3    H127156   6.258   3.291   3.939
 9064TIP3    H227157   6.333   3.163   3.912
 9065TIP3   OH227158   1.889   5.969   4.761
 9065TIP3    H127159   1.852   5.980   4.849
 9065TIP3    H227160   1.984   5.969   4.776
 9066TIP3   OH227161   0.538   2.922   5.184
 9066TIP3    H127162   0.517   2.848   5.241
 9066TIP3    H227163   0.453   2.963   5.166
 9067TIP3   OH227164   2.572   4.582   1.180
 9067TIP3    H127165   2.515   4.520   1.224
 9067TIP3    H227166   2.574   4.552   1.089
 9068TIP3   OH227167   5.084   1.301   1.932
 9068TIP3    H127168   4.994   1.314   1.901
 9068TIP3    H227169   5.084   1.335   2.021
 9069TIP3   OH227170   1.371   4.298   5.438
 9069TIP3    H127171   1.328   4.346   5.368
 9069TIP3    H227172   1.319   4.318   5.516
 9070TIP3   OH227173   2.066   1.855   3.815
 9070TIP3    H127174   2.007   1.833   3.743
 9070TIP3    H227175   2.008   1.866   3.890
 9071TIP3   OH227176   1.585   0.615   3.317
 9071TIP3    H127177   1.639   0.651   3.247
 9071TIP3    H227178   1.519   0.682   3.334
 9072TIP3   OH227179   4.276   2.033   1.939
 9072TIP3    H127180   4.290   2.099   1.871
 9072TIP3    H227181   4.218   2.075   2.002
 9073TIP3   OH227182   5.744   3.917   0.042
 9073TIP3    H127183   5.792   3.994   0.011
 9073TIP3    H227184   5.777   3.903   0.131
 9074TIP3   OH227185   2.675   5.523   1.375
 9074TIP3    H127186   2.656   5.434   1.344
 9074TIP3    H227187   2.621   5.532   1.454
 9075TIP3   OH227188   4.387   5.129   1.354
 9075TIP3    H127189   4.339   5.174   1.284
 9075TIP3    H227190   4.342   5.045   1.364
 9076TIP3   OH227191   2.742   3.532   5.194
 9076TIP3    H127192   2.754   3.626   5.204
 9076TIP3    H227193   2.792   3.510   5.115
 9077TIP3   OH227194   6.817   2.884   5.591
 9077TIP3    H127195   6.744   2.838   5.550
 9077TIP3    H227196   6.895   2.842   5.554
 9078TIP3   OH227197   4.197   3.091   1.989
 9078TIP3    H127198   4.265   3.033   2.022
 9078TIP3    H227199   4.137   3.033   1.942
 9079TIP3   OH227200   1.443   5.452   1.785
 9079TIP3    H127201   1.434   5.400   1.865
 9079TIP3    H227202   1.354   5.467   1.755
 9080TIP3   OH227203   6.392   4.759   5.603
 9080TIP3    H127204   6.324   4.806   5.554
 9080TIP3    H227205   6.432   4.826   5.658
 9081TIP3   OH227206   6.345   3.376   4.613
 9081TIP3    H127207   6.326   3.359   4.521
 9081TIP3    H227208   6.375   3.467   4.615
 9082TIP3   OH227209   2.512   1.485   2.126
 9082TIP3    H127210   2.476   1.424   2.062
 9082TIP3    H227211   2.552   1.430   2.194
 9083TIP3   OH227212   0.303   3.824   2.873
 9083TIP3    H127213   0.243   3.752   2.890
 9083TIP3    H227214   0.352   3.798   2.795
 9084TIP3   OH227215   2.413   5.910   5.459
 9084TIP3    H127216   2.496   5.948   5.488
 9084TIP3    H227217   2.410   5.928   5.365
 9085TIP3   OH227218   2.040   4.559   2.598
 9085TIP3    H127219   2.006   4.619   2.531
 9085TIP3    H227220   2.135   4.569   2.594
 9086TIP3   OH227221   1.254   4.224   5.064
 9086TIP3    H127222   1.233   4.317   5.074
 9086TIP3    H227223   1.340   4.224   5.023
 9087TIP3   OH227224   2.946   0.037   0.847
 9087TIP3    H127225   3.034   0.007   0.867
 9087TIP3    H227226   2.935   0.116   0.898
 9088TIP3   OH227227   0.992   1.933   0.287
 9088TIP3    H127228   1.039   2.011   0.315
 9088TIP3    H227229   0.939   1.908   0.363
 9089TIP3   OH227230   3.177   5.260   2.302
 9089TIP3    H127231   3.255   5.208   2.281
 9089TIP3    H227232   3.115   5.238   2.233
 9090TIP3   OH227233   1.291   5.993   5.148
 9090TIP3    H127234   1.221   5.943   5.188
 9090TIP3    H227235   1.255   6.021   5.064
 9091TIP3   OH227236   1.952   3.854   5.454
 9091TIP3    H127237   1.908   3.775   5.486
 9091TIP3    H227238   2.039   3.824   5.428
 9092TIP3   OH227239   1.604   1.077   4.121
 9092TIP3    H127240   1.559   1.004   4.078
 9092TIP3    H227241   1.694   1.046   4.131
 9093TIP3   OH227242   4.381   1.257   5.869
 9093TIP3    H127243   4.433   1.297   5.938
 9093TIP3    H227244   4.303   1.313   5.862
 9094TIP3   OH227245   3.271   0.866   1.505
 9094TIP3    H127246   3.309   0.792   1.553
 9094TIP3    H227247   3.211   0.825   1.442
 9095TIP3   OH227248   2.977   4.571   4.119
 9095TIP3    H127249   2.927   4.539   4.194
 9095TIP3    H227250   3.008   4.658   4.146
 9096TIP3   OH227251   6.835   5.841   0.664
 9096TIP3    H127252   6.750   5.877   0.693
 9096TIP3    H227253   6.814   5.793   0.584
 9097TIP3   OH227254   2.635   6.015   5.223
 9097TIP3    H127255   2.547   6.005   5.187
 9097TIP3    H227256   2.686   6.054   5.152
 9098TIP3   OH227257   5.741   1.273   5.446
 9098TIP3    H127258   5.818   1.220   5.464
 9098TIP3    H227259   5.669   1.224   5.486
 9099TIP3   OH227260   4.424   2.852   2.647
 9099TIP3    H127261   4.487   2.876   2.715
 9099TIP3    H227262   4.349   2.816   2.695
 9100TIP3   OH227263   3.760   2.725   5.756
 9100TIP3    H127264   3.802   2.640   5.744
 9100TIP3    H227265   3.792   2.777   5.682
 9101TIP3   OH227266   0.802   2.469  -0.001
 9101TIP3    H127267   0.766   2.452   0.086
 9101TIP3    H227268   0.897   2.460   0.010
 9102TIP3   OH227269   2.093   0.645   4.235
 9102TIP3    H127270   2.028   0.595   4.186
 9102TIP3    H227271   2.114   0.719   4.178
 9103TIP3   OH227272   2.981   1.550   3.694
 9103TIP3    H127273   3.028   1.489   3.751
 9103TIP3    H227274   2.892   1.514   3.689
 9104TIP3   OH227275   3.523   4.441   5.384
 9104TIP3    H127276   3.470   4.429   5.304
 9104TIP3    H227277   3.464   4.485   5.445
 9105TIP3   OH227278   1.827   0.299   1.911
 9105TIP3    H127279   1.787   0.231   1.857
 9105TIP3    H227280   1.836   0.374   1.852
 9106TIP3   OH227281   6.269   3.387   4.340
 9106TIP3    H127282   6.347   3.416   4.294
 9106TIP3    H227283   6.222   3.332   4.277
 9107TIP3   OH227284   1.712   5.781   0.984
 9107TIP3    H127285   1.741   5.866   1.018
 9107TIP3    H227286   1.653   5.803   0.911
 9108TIP3   OH227287   1.315   1.646   3.159
 9108TIP3    H127288   1.296   1.552   3.162
 9108TIP3    H227289   1.258   1.679   3.090
 9109TIP3   OH227290   2.465   3.458   3.793
 9109TIP3    H127291   2.513   3.375   3.795
 9109TIP3    H227292   2.530   3.524   3.817
 9110TIP3   OH227293   0.148   2.713   4.485
 9110TIP3    H127294   0.156   2.760   4.568
 9110TIP3    H227295   0.163   2.621   4.507
 9111TIP3   OH227296   6.515   6.082   5.220
 9111TIP3    H127297   6.468   6.160   5.193
 9111TIP3    H227298   6.484   6.013   5.160
 9112TIP3   OH227299   6.130   5.820   3.267
 9112TIP3    H127300   6.109   5.830   3.174
 9112TIP3    H227301   6.163   5.906   3.293
 9113TIP3   OH227302   2.078   0.288   4.992
 9113TIP3    H127303   2.166   0.252   4.986
 9113TIP3    H227304   2.063   0.333   4.909
 9114TIP3   OH227305   3.762   5.258   0.658
 9114TIP3    H127306   3.784   5.254   0.565
 9114TIP3    H227307   3.742   5.167   0.682
 9115TIP3   OH227308   3.620   0.330   2.522
 9115TIP3    H127309   3.666   0.305   2.602
 9115TIP3    H227310   3.527   0.315   2.542
 9116TIP3   OH227311   0.458   2.671   0.058
 9116TIP3    H127312   0.385   2.732   0.050
 9116TIP3    H227313   0.464   2.653   0.152
 9117TIP3   OH227314   2.884   0.588   1.205
 9117TIP3    H127315   2.846   0.514   1.252
 9117TIP3    H227316   2.977   0.569   1.200
 9118TIP3   OH227317   5.121   3.788   4.360
 9118TIP3    H127318   5.037   3.832   4.371
 9118TIP3    H227319   5.133   3.781   4.266
 9119TIP3   OH227320   2.524   5.969   4.777
 9119TIP3    H127321   2.484   6.016   4.850
 9119TIP3    H227322   2.604   5.932   4.814
 9120TIP3   OH227323   2.587   4.486   0.254
 9120TIP3    H127324   2.565   4.401   0.291
 9120TIP3    H227325   2.504   4.533   0.252
 9121TIP3   OH227326   3.868   0.264   4.096
 9121TIP3    H127327   3.778   0.241   4.072
 9121TIP3    H227328   3.865   0.277   4.190
 9122TIP3   OH227329   6.345   0.312   2.857
 9122TIP3    H127330   6.291   0.372   2.805
 9122TIP3    H227331   6.305   0.313   2.944
 9123TIP3   OH227332   6.940   6.469   0.953
 9123TIP3    H127333   6.940   6.525   0.875
 9123TIP3    H227334   6.847   6.459   0.974
 9124TIP3   OH227335   5.552   0.027   4.975
 9124TIP3    H127336   5.467  -0.016   4.969
 9124TIP3    H227337   5.607  -0.035   5.023
 9125TIP3   OH227338   4.468   1.973   3.792
 9125TIP3    H127339   4.495   1.885   3.820
 9125TIP3    H227340   4.546   2.027   3.806
 9126TIP3   OH227341   2.211   2.695   2.649
 9126TIP3    H127342   2.222   2.705   2.744
 9126TIP3    H227343   2.121   2.665   2.639
 9127TIP3   OH227344   1.650   0.402   1.489
 9127TIP3    H127345   1.599   0.402   1.570
 9127TIP3    H227346   1.663   0.495   1.469
 9128TIP3   OH227347   5.495   4.938   4.029
 9128TIP3    H127348   5.431   4.925   4.099
 9128TIP3    H227349   5.579   4.924   4.071
 9129TIP3   OH227350   1.919   5.166   0.782
 9129TIP3    H127351   1.924   5.072   0.802
 9129TIP3    H227352   1.882   5.205   0.860
 9130TIP3   OH227353   4.063   0.110   3.934
 9130TIP3    H127354   4.099   0.059   4.007
 9130TIP3    H227355   3.998   0.167   3.975
 9131TIP3   OH227356   2.568   6.576   1.965
 9131TIP3    H127357   2.500   6.613   1.908
 9131TIP3    H227358   2.625   6.528   1.905
 9132TIP3   OH227359   7.253   4.755   1.293
 9132TIP3    H127360   7.223   4.772   1.382
 9132TIP3    H227361   7.179   4.777   1.237
 9133TIP3   OH227362   2.719   2.573   3.329
 9133TIP3    H127363   2.742   2.519   3.254
 9133TIP3    H227364   2.801   2.583   3.378
 9134TIP3   OH227365   0.737   1.146   4.984
 9134TIP3    H127366   0.711   1.060   5.016
 9134TIP3    H227367   0.691   1.208   5.041
 9135TIP3   OH227368   4.193   0.905   3.247
 9135TIP3    H127369   4.162   0.935   3.161
 9135TIP3    H227370   4.128   0.937   3.309
 9136TIP3   OH227371   6.987   1.914   5.580
 9136TIP3    H127372   6.957   1.827   5.554
 9136TIP3    H227373   7.054   1.898   5.646
 9137TIP3   OH227374   2.884   0.736   2.807
 9137TIP3    H127375   2.867   0.728   2.901
 9137TIP3    H227376   2.848   0.656   2.770
 9138TIP3   OH227377   2.770   2.631   1.835
 9138TIP3    H127378   2.711   2.560   1.861
 9138TIP3    H227379   2.732   2.709   1.876
 9139TIP3   OH227380   2.092   5.464   5.755
 9139TIP3    H127381   2.006   5.491   5.786
 9139TIP3    H227382   2.129   5.412   5.827
 9140TIP3   OH227383   6.061   3.663   5.349
 9140TIP3    H127384   6.032   3.681   5.439
 9140TIP3    H227385   6.126   3.731   5.331
 9141TIP3   OH227386   1.501   0.319   1.270
 9141TIP3    H127387   1.505   0.408   1.236
 9141TIP3    H227388   1.566   0.318   1.341
 9142TIP3   OH227389   0.665   1.200   5.515
 9142TIP3    H127390   0.685   1.261   5.586
 9142TIP3    H227391   0.577   1.169   5.535
 9143TIP3   OH227392   4.741   6.061   2.683
 9143TIP3    H127393   4.759   6.034   2.593
 9143TIP3    H227394   4.647   6.081   2.683
 9144TIP3   OH227395   0.261   3.622   3.079
 9144TIP3    H127396   0.283   3.617   3.172
 9144TIP3    H227397   0.339   3.591   3.034
 9145TIP3   OH227398   2.528   4.306   4.930
 9145TIP3    H127399   2.600   4.298   4.992
 9145TIP3    H227400   2.487   4.390   4.952
 9146TIP3   OH227401   3.219   3.083   5.701
 9146TIP3    H127402   3.206   2.989   5.715
 9146TIP3    H227403   3.308   3.089   5.666
 9147TIP3   OH227404   0.965   5.755   1.887
 9147TIP3    H127405   0.918   5.729   1.807
 9147TIP3    H227406   0.915   5.828   1.922
 9148TIP3   OH227407   1.590   6.551   0.830
 9148TIP3    H127408   1.656   6.500   0.877
 9148TIP3    H227409   1.517   6.558   0.891
 9149TIP3   OH227410   5.855   3.330   3.283
 9149TIP3    H127411   5.869   3.240   3.255
 9149TIP3    H227412   5.880   3.331   3.376
 9150TIP3   OH227413   3.345   2.722   2.295
 9150TIP3    H127414   3.282   2.680   2.355
 9150TIP3    H227415   3.428   2.717   2.341
 9151TIP3   OH227416   2.982   3.252   5.026
 9151TIP3    H127417   2.908   3.241   4.966
 9151TIP3    H227418   3.058   3.223   4.975
 9152TIP3   OH227419   5.289   2.828   4.098
 9152TIP3    H127420   5.237   2.799   4.022
 9152TIP3    H227421   5.247   2.909   4.125
 9153TIP3   OH227422   3.462   1.278   5.716
 9153TIP3    H127423   3.415   1.357   5.690
 9153TIP3    H227424   3.468   1.226   5.635
 9154TIP3   OH227425   4.273   4.940   3.420
 9154TIP3    H127426   4.301   4.956   3.510
 9154TIP3    H227427   4.270   5.027   3.380
 9155TIP3   OH227428   2.839   0.746   3.096
 9155TIP3    H127429   2.797   0.746   3.182
 9155TIP3    H227430   2.897   0.821   3.098
 9156TIP3   OH227431   2.362   5.528   4.884
 9156TIP3    H127432   2.431   5.539   4.949
 9156TIP3    H227433   2.300   5.598   4.902
 9157TIP3   OH227434   1.415   4.581   0.950
 9157TIP3    H127435   1.344   4.646   0.951
 9157TIP3    H227436   1.476   4.612   1.018
 9158TIP3   OH227437   4.333   6.684   5.234
 9158TIP3    H127438   4.423   6.711   5.255
 9158TIP3    H227439   4.279   6.733   5.296
 9159TIP3   OH227440   5.093   3.470   3.035
 9159TIP3    H127441   5.018   3.496   3.088
 9159TIP3    H227442   5.161   3.447   3.099
 9160TIP3   OH227443   4.279   2.405   0.657
 9160TIP3    H127444   4.310   2.373   0.572
 9160TIP3    H227445   4.263   2.498   0.643
 9161TIP3   OH227446   4.763   2.648   1.879
 9161TIP3    H127447   4.696   2.690   1.825
 9161TIP3    H227448   4.714   2.591   1.939
 9162TIP3   OH227449   1.753   1.548   4.755
 9162TIP3    H127450   1.667   1.532   4.793
 9162TIP3    H227451   1.736   1.605   4.680
 9163TIP3   OH227452   1.948   3.718   5.721
 9163TIP3    H127453   1.891   3.793   5.737
 9163TIP3    H227454   1.902   3.643   5.760
 9164TIP3   OH227455   3.296   4.589   3.178
 9164TIP3    H127456   3.355   4.633   3.116
 9164TIP3    H227457   3.313   4.633   3.261
 9165TIP3   OH227458   1.597   4.912   3.472
 9165TIP3    H127459   1.622   4.821   3.454
 9165TIP3    H227460   1.525   4.929   3.412
 9166TIP3   OH227461   2.107   6.151   3.233
 9166TIP3    H127462   2.160   6.229   3.250
 9166TIP3    H227463   2.025   6.168   3.278
 9167TIP3   OH227464   5.924   5.790   2.664
 9167TIP3    H127465   5.872   5.858   2.707
 9167TIP3    H227466   5.978   5.838   2.601
 9168TIP3   OH227467   1.062   4.525   2.356
 9168TIP3    H127468   1.000   4.495   2.423
 9168TIP3    H227469   1.136   4.465   2.363
 9169TIP3   OH227470   3.984   3.001   0.860
 9169TIP3    H127471   4.076   3.021   0.880
 9169TIP3    H227472   3.935   3.068   0.908
 9170TIP3   OH227473   2.103   1.573   1.664
 9170TIP3    H127474   2.084   1.598   1.573
 9170TIP3    H227475   2.017   1.575   1.707
 9171TIP3   OH227476   4.879   4.990   1.878
 9171TIP3    H127477   4.961   5.003   1.925
 9171TIP3    H227478   4.869   4.895   1.870
 9172TIP3   OH227479   2.277   5.910   1.480
 9172TIP3    H127480   2.335   5.885   1.552
 9172TIP3    H227481   2.304   5.998   1.456
 9173TIP3   OH227482   4.997   2.133   2.641
 9173TIP3    H127483   5.072   2.092   2.598
 9173TIP3    H227484   4.926   2.068   2.633
 9174TIP3   OH227485   2.025   1.517   2.658
 9174TIP3    H127486   2.103   1.461   2.666
 9174TIP3    H227487   2.060   1.603   2.634
 9175TIP3   OH227488   5.610   1.572   0.446
 9175TIP3    H127489   5.665   1.636   0.401
 9175TIP3    H227490   5.532   1.564   0.392
 9176TIP3   OH227491   3.855   3.901   4.697
 9176TIP3    H127492   3.901   3.844   4.760
 9176TIP3    H227493   3.873   3.990   4.728
 9177TIP3   OH227494   6.546   6.499   3.768
 9177TIP3    H127495   6.625   6.466   3.810
 9177TIP3    H227496   6.530   6.584   3.808
 9178TIP3   OH227497   5.580   2.000   3.893
 9178TIP3    H127498   5.592   2.000   3.798
 9178TIP3    H227499   5.510   2.064   3.907
 9179TIP3   OH227500   2.313   0.664   0.145
 9179TIP3    H127501   2.337   0.584   0.192
 9179TIP3    H227502   2.353   0.734   0.197
 9180TIP3   OH227503   6.759   3.225   1.898
 9180TIP3    H127504   6.738   3.290   1.831
 9180TIP3    H227505   6.789   3.148   1.849
 9181TIP3   OH227506   5.232   2.023   0.702
 9181TIP3    H127507   5.295   1.961   0.663
 9181TIP3    H227508   5.246   2.015   0.796
 9182TIP3   OH227509   6.884   4.434   4.846
 9182TIP3    H127510   6.903   4.491   4.772
 9182TIP3    H227511   6.820   4.482   4.898
 9183TIP3   OH227512   7.027   0.743   1.126
 9183TIP3    H127513   6.946   0.703   1.095
 9183TIP3    H227514   7.058   0.685   1.195
 9184TIP3   OH227515   4.737   0.077   5.839
 9184TIP3    H127516   4.777   0.010   5.895
 9184TIP3    H227517   4.719   0.150   5.899
 9185TIP3   OH227518   4.931   0.819   1.711
 9185TIP3    H127519   4.866   0.816   1.780
 9185TIP3    H227520   4.909   0.897   1.660
 9186TIP3   OH227521   2.367   1.778   1.658
 9186TIP3    H127522   2.430   1.801   1.590
 9186TIP3    H227523   2.421   1.753   1.733
 9187TIP3   OH227524   3.796   4.941   4.747
 9187TIP3    H127525   3.853   4.901   4.812
 9187TIP3    H227526   3.708   4.911   4.770
 9188TIP3   OH227527   3.728   6.367   2.774
 9188TIP3    H127528   3.747   6.461   2.774
 9188TIP3    H227529   3.675   6.353   2.853
 9189TIP3   OH227530   0.794   0.344   2.085
 9189TIP3    H127531   0.888   0.353   2.105
 9189TIP3    H227532   0.760   0.433   2.088
 9190TIP3   OH227533   1.990   2.250   1.649
 9190TIP3    H127534   1.930   2.299   1.706
 9190TIP3    H227535   1.944   2.167   1.632
 9191TIP3   OH227536   2.265   1.765   4.145
 9191TIP3    H127537   2.194   1.701   4.153
 9191TIP3    H227538   2.244   1.815   4.066
 9192TIP3   OH227539   6.761   0.325   1.627
 9192TIP3    H127540   6.818   0.249   1.612
 9192TIP3    H227541   6.713   0.304   1.707
 9193TIP3   OH227542   2.495   3.611   3.131
 9193TIP3    H127543   2.481   3.516   3.133
 9193TIP3    H227544   2.435   3.643   3.063
 9194TIP3   OH227545   4.722   2.095   1.648
 9194TIP3    H127546   4.814   2.084   1.672
 9194TIP3    H227547   4.722   2.171   1.589
 9195TIP3   OH227548   4.705   0.256   1.483
 9195TIP3    H127549   4.761   0.246   1.406
 9195TIP3    H227550   4.642   0.185   1.476
 9196TIP3   OH227551   1.026   0.136   4.079
 9196TIP3    H127552   1.007   0.055   4.127
 9196TIP3    H227553   1.024   0.110   3.987
 9197TIP3   OH227554   1.764   1.068   3.205
 9197TIP3    H127555   1.803   1.151   3.176
 9197TIP3    H227556   1.838   1.007   3.208
 9198TIP3   OH227557   3.048   4.547   5.356
 9198TIP3    H127558   3.049   4.622   5.297
 9198TIP3    H227559   3.055   4.585   5.443
 9199TIP3   OH227560   2.185   4.960   0.462
 9199TIP3    H127561   2.271   4.923   0.479
 9199TIP3    H227562   2.123   4.898   0.501
 9200TIP3   OH227563   3.019   6.400   2.188
 9200TIP3    H127564   2.935   6.387   2.144
 9200TIP3    H227565   3.051   6.311   2.206
 9201TIP3   OH227566   6.294   3.059   5.734
 9201TIP3    H127567   6.302   2.997   5.807
 9201TIP3    H227568   6.285   3.004   5.656
 9202TIP3   OH227569   5.174   2.578   4.488
 9202TIP3    H127570   5.237   2.567   4.559
 9202TIP3    H227571   5.200   2.660   4.446
 9203TIP3   OH227572   4.743   3.306   4.406
 9203TIP3    H127573   4.823   3.256   4.389
 9203TIP3    H227574   4.760   3.392   4.368
 9204TIP3   OH227575   1.023   1.849   4.818
 9204TIP3    H127576   0.966   1.899   4.760
 9204TIP3    H227577   1.076   1.795   4.759
 9205TIP3   OH227578   0.828   6.153   2.581
 9205TIP3    H127579   0.822   6.059   2.562
 9205TIP3    H227580   0.740   6.187   2.561
 9206TIP3   OH227581   0.354   4.040   5.497
 9206TIP3    H127582   0.376   4.094   5.573
 9206TIP3    H227583   0.306   3.965   5.534
 9207TIP3   OH227584   5.518   1.662   1.271
 9207TIP3    H127585   5.503   1.751   1.302
 9207TIP3    H227586   5.600   1.667   1.222
 9208TIP3   OH227587   0.655   1.591   5.250
 9208TIP3    H127588   0.620   1.548   5.328
 9208TIP3    H227589   0.745   1.561   5.244
 9209TIP3   OH227590   5.792   0.861   2.664
 9209TIP3    H127591   5.828   0.773   2.678
 9209TIP3    H227592   5.824   0.887   2.577
 9210TIP3   OH227593   2.048   3.430   0.521
 9210TIP3    H127594   2.136   3.467   0.517
 9210TIP3    H227595   2.060   3.344   0.561
 9211TIP3   OH227596   4.337   0.350   1.957
 9211TIP3    H127597   4.357   0.433   2.001
 9211TIP3    H227598   4.393   0.349   1.880
 9212TIP3   OH227599   4.359   4.867   3.768
 9212TIP3    H127600   4.436   4.910   3.804
 9212TIP3    H227601   4.322   4.818   3.842
 9213TIP3   OH227602   3.219   6.298   5.736
 9213TIP3    H127603   3.257   6.303   5.648
 9213TIP3    H227604   3.149   6.363   5.735
 9214TIP3   OH227605   3.844   2.802   1.623
 9214TIP3    H127606   3.921   2.770   1.578
 9214TIP3    H227607   3.786   2.834   1.554
 9215TIP3   OH227608   2.529   0.506   2.269
 9215TIP3    H127609   2.602   0.478   2.214
 9215TIP3    H227610   2.453   0.506   2.211
 9216TIP3   OH227611   3.155   1.035   2.272
 9216TIP3    H127612   3.082   0.976   2.288
 9216TIP3    H227613   3.228   0.978   2.250
 9217TIP3   OH227614   6.937   1.010   4.194
 9217TIP3    H127615   6.863   1.031   4.251
 9217TIP3    H227616   6.974   1.095   4.171
 9218TIP3   OH227617   1.892   5.905   3.266
 9218TIP3    H127618   1.890   5.944   3.353
 9218TIP3    H227619   1.845   5.822   3.275
 9219TIP3   OH227620   1.585   1.872   0.510
 9219TIP3    H127621   1.653   1.899   0.448
 9219TIP3    H227622   1.545   1.953   0.539
 9220TIP3   OH227623   0.655   0.902   2.175
 9220TIP3    H127624   0.736   0.920   2.127
 9220TIP3    H227625   0.626   0.987   2.207
 9221TIP3   OH227626   2.687   6.734   2.192
 9221TIP3    H127627   2.659   6.684   2.115
 9221TIP3    H227628   2.647   6.687   2.266
 9222TIP3   OH227629   3.374   3.004   1.989
 9222TIP3    H127630   3.370   3.028   1.896
 9222TIP3    H227631   3.353   3.084   2.036
 9223TIP3   OH227632   3.414   3.338   3.523
 9223TIP3    H127633   3.363   3.295   3.593
 9223TIP3    H227634   3.390   3.431   3.530
 9224TIP3   OH227635   1.661   5.858   2.896
 9224TIP3    H127636   1.731   5.917   2.926
 9224TIP3    H227637   1.678   5.776   2.943
 9225TIP3   OH227638   2.697   3.966   0.551
 9225TIP3    H127639   2.751   4.044   0.533
 9225TIP3    H227640   2.636   3.994   0.619
 9226TIP3   OH227641   3.885   3.842   1.574
 9226TIP3    H127642   3.851   3.877   1.656
 9226TIP3    H227643   3.816   3.859   1.510
 9227TIP3   OH227644   5.043   1.310   4.748
 9227TIP3    H127645   5.120   1.273   4.792
 9227TIP3    H227646   5.054   1.284   4.656
 9228TIP3   OH227647   6.532   5.508   2.702
 9228TIP3    H127648   6.555   5.549   2.785
 9228TIP3    H227649   6.484   5.429   2.727
 9229TIP3   OH227650   5.068   3.653   4.099
 9229TIP3    H127651   5.124   3.576   4.112
 9229TIP3    H227652   5.101   3.694   4.020
 9230TIP3   OH227653   5.580   4.710   1.766
 9230TIP3    H127654   5.567   4.664   1.683
 9230TIP3    H227655   5.637   4.784   1.744
 9231TIP3   OH227656   0.408   5.129   2.110
 9231TIP3    H127657   0.487   5.077   2.096
 9231TIP3    H227658   0.400   5.135   2.206
 9232TIP3   OH227659   3.810   0.846   3.811
 9232TIP3    H127660   3.718   0.869   3.800
 9232TIP3    H227661   3.809   0.772   3.872
 9233TIP3   OH227662   2.867   0.488   4.964
 9233TIP3    H127663   2.849   0.504   4.871
 9233TIP3    H227664   2.961   0.507   4.972
 9234TIP3   OH227665   3.331   2.526   4.482
 9234TIP3    H127666   3.341   2.606   4.534
 9234TIP3    H227667   3.245   2.492   4.506
 9235TIP3   OH227668   1.095   0.817   4.864
 9235TIP3    H127669   1.114   0.731   4.902
 9235TIP3    H227670   1.000   0.818   4.853
 9236TIP3   OH227671   5.644   3.469   4.724
 9236TIP3    H127672   5.548   3.473   4.721
 9236TIP3    H227673   5.665   3.482   4.817
 9237TIP3   OH227674   6.438   3.816   0.595
 9237TIP3    H127675   6.349   3.802   0.560
 9237TIP3    H227676   6.424   3.860   0.679
 9238TIP3   OH227677   0.708   2.268   4.045
 9238TIP3    H127678   0.798   2.265   4.077
 9238TIP3    H227679   0.654   2.252   4.123
 9239TIP3   OH227680   4.090   0.085   2.423
 9239TIP3    H127681   4.109   0.036   2.344
 9239TIP3    H227682   4.149   0.048   2.489
 9240TIP3   OH227683   3.546   0.896   3.352
 9240TIP3    H127684   3.467   0.914   3.302
 9240TIP3    H227685   3.617   0.924   3.295
 9241TIP3   OH227686   7.202   6.111   5.595
 9241TIP3    H127687   7.246   6.196   5.592
 9241TIP3    H227688   7.223   6.070   5.511
 9242TIP3   OH227689   7.012   3.021   2.530
 9242TIP3    H127690   6.946   3.088   2.514
 9242TIP3    H227691   6.983   2.945   2.479
 9243TIP3   OH227692   2.364   2.527   1.642
 9243TIP3    H127693   2.353   2.526   1.737
 9243TIP3    H227694   2.443   2.580   1.628
 9244TIP3   OH227695   6.600   1.975   5.186
 9244TIP3    H127696   6.631   1.985   5.096
 9244TIP3    H227697   6.505   1.975   5.179
 9245TIP3   OH227698   2.669   5.807   4.318
 9245TIP3    H127699   2.641   5.899   4.318
 9245TIP3    H227700   2.764   5.811   4.309
 9246TIP3   OH227701   4.454   5.462   1.742
 9246TIP3    H127702   4.503   5.506   1.673
 9246TIP3    H227703   4.397   5.400   1.696
 9247TIP3   OH227704   0.941   2.143   4.092
 9247TIP3    H127705   0.990   2.201   4.150
 9247TIP3    H227706   0.938   2.059   4.137
 9248TIP3   OH227707   0.136   2.565   0.703
 9248TIP3    H127708   0.077   2.494   0.675
 9248TIP3    H227709   0.210   2.520   0.742
 9249TIP3   OH227710   6.508   6.018   4.556
 9249TIP3    H127711   6.476   5.952   4.617
 9249TIP3    H227712   6.430   6.052   4.513
 9250TIP3   OH227713   0.557   4.474   3.465
 9250TIP3    H127714   0.606   4.451   3.543
 9250TIP3    H227715   0.601   4.427   3.394
 9251TIP3   OH227716   1.120   5.695   5.071
 9251TIP3    H127717   1.046   5.753   5.055
 9251TIP3    H227718   1.105   5.661   5.159
 9252TIP3   OH227719   0.352   6.698   1.749
 9252TIP3    H127720   0.384   6.785   1.725
 9252TIP3    H227721   0.257   6.705   1.744
 9253TIP3   OH227722   2.471   3.323   3.153
 9253TIP3    H127723   2.520   3.297   3.231
 9253TIP3    H227724   2.391   3.272   3.155
 9254TIP3   OH227725   6.078   3.518   2.894
 9254TIP3    H127726   6.149   3.563   2.848
 9254TIP3    H227727   6.112   3.430   2.909
 9255TIP3   OH227728   2.524   0.801   4.868
 9255TIP3    H127729   2.558   0.781   4.781
 9255TIP3    H227730   2.461   0.731   4.885
 9256TIP3   OH227731   1.638   3.193   4.496
 9256TIP3    H127732   1.669   3.265   4.441
 9256TIP3    H227733   1.634   3.230   4.584
 9257TIP3   OH227734   7.025   1.836   0.482
 9257TIP3    H127735   6.940   1.820   0.522
 9257TIP3    H227736   7.089   1.810   0.549
 9258TIP3   OH227737   4.476   4.581   1.025
 9258TIP3    H127738   4.533   4.655   1.004
 9258TIP3    H227739   4.502   4.556   1.113
 9259TIP3   OH227740   4.669   6.299   3.069
 9259TIP3    H127741   4.723   6.230   3.107
 9259TIP3    H227742   4.674   6.371   3.131
 9260TIP3   OH227743   6.575   6.629   5.623
 9260TIP3    H127744   6.502   6.618   5.685
 9260TIP3    H227745   6.549   6.578   5.546
 9261TIP3   OH227746   3.274   3.380   2.558
 9261TIP3    H127747   3.318   3.464   2.544
 9261TIP3    H227748   3.315   3.320   2.496
 9262TIP3   OH227749   6.028   1.676   5.284
 9262TIP3    H127750   6.014   1.581   5.290
 9262TIP3    H227751   6.122   1.687   5.293
 9263TIP3   OH227752   3.300   2.291   1.084
 9263TIP3    H127753   3.389   2.280   1.050
 9263TIP3    H227754   3.266   2.368   1.038
 9264TIP3   OH227755  -0.011   2.699   0.945
 9264TIP3    H127756   0.013   2.607   0.953
 9264TIP3    H227757  -0.007   2.717   0.851
 9265TIP3   OH227758   3.400   4.954   3.291
 9265TIP3    H127759   3.413   4.920   3.203
 9265TIP3    H227760   3.305   4.954   3.303
 9266TIP3   OH227761   0.300   6.561   5.563
 9266TIP3    H127762   0.300   6.534   5.471
 9266TIP3    H227763   0.391   6.550   5.592
 9267TIP3   OH227764   6.752   4.406   0.085
 9267TIP3    H127765   6.761   4.354   0.005
 9267TIP3    H227766   6.754   4.497   0.055
 9268TIP3   OH227767   0.931   3.754   4.220
 9268TIP3    H127768   0.840   3.767   4.191
 9268TIP3    H227769   0.984   3.778   4.144
 9269TIP3   OH227770   7.008   2.318   1.278
 9269TIP3    H127771   6.970   2.387   1.222
 9269TIP3    H227772   7.090   2.355   1.309
 9270TIP3   OH227773   6.642   1.915   1.149
 9270TIP3    H127774   6.736   1.902   1.159
 9270TIP3    H227775   6.620   1.977   1.218
 9271TIP3   OH227776   5.211   5.480   1.435
 9271TIP3    H127777   5.186   5.448   1.348
 9271TIP3    H227778   5.131   5.521   1.469
 9272TIP3   OH227779   6.319   5.556   3.379
 9272TIP3    H127780   6.265   5.482   3.408
 9272TIP3    H227781   6.327   5.611   3.457
 9273TIP3   OH227782   7.169   1.570   4.180
 9273TIP3    H127783   7.116   1.578   4.259
 9273TIP3    H227784   7.119   1.615   4.112
 9274TIP3   OH227785   4.965   3.428   0.438
 9274TIP3    H127786   5.043   3.376   0.423
 9274TIP3    H227787   4.997   3.511   0.473
 9275TIP3   OH227788   2.410   2.691   5.542
 9275TIP3    H127789   2.481   2.752   5.522
 9275TIP3    H227790   2.330   2.739   5.524
 9276TIP3   OH227791   5.507   1.396   4.815
 9276TIP3    H127792   5.579   1.459   4.828
 9276TIP3    H227793   5.515   1.335   4.888
 9277TIP3   OH227794   1.821   5.342   2.451
 9277TIP3    H127795   1.880   5.331   2.526
 9277TIP3    H227796   1.851   5.423   2.409
 9278TIP3   OH227797   6.369   3.326   1.058
 9278TIP3    H127798   6.406   3.253   1.107
 9278TIP3    H227799   6.403   3.404   1.103
 9279TIP3   OH227800   0.915   6.177   4.236
 9279TIP3    H127801   0.923   6.236   4.311
 9279TIP3    H227802   0.876   6.097   4.273
 9280TIP3   OH227803   5.955   3.100   4.893
 9280TIP3    H127804   5.955   3.151   4.974
 9280TIP3    H227805   5.910   3.156   4.829
 9281TIP3   OH227806   1.625   1.616   1.194
 9281TIP3    H127807   1.652   1.527   1.214
 9281TIP3    H227808   1.609   1.616   1.099
 9282TIP3   OH227809   4.028   3.925   4.043
 9282TIP3    H127810   4.050   3.836   4.016
 9282TIP3    H227811   4.099   3.951   4.102
 9283TIP3   OH227812   2.240   4.851   1.745
 9283TIP3    H127813   2.169   4.813   1.798
 9283TIP3    H227814   2.275   4.921   1.800
 9284TIP3   OH227815   4.152   1.438   3.258
 9284TIP3    H127816   4.206   1.496   3.312
 9284TIP3    H227817   4.063   1.452   3.289
 9285TIP3   OH227818   0.707   5.203   3.617
 9285TIP3    H127819   0.689   5.120   3.661
 9285TIP3    H227820   0.792   5.190   3.574
 9286TIP3   OH227821   0.124   2.095   3.820
 9286TIP3    H127822   0.130   2.168   3.882
 9286TIP3    H227823   0.156   2.131   3.737
 9287TIP3   OH227824   3.335   2.651   5.746
 9287TIP3    H127825   3.274   2.589   5.706
 9287TIP3    H227826   3.340   2.723   5.683
 9288TIP3   OH227827   1.264   5.015   5.481
 9288TIP3    H127828   1.215   4.990   5.559
 9288TIP3    H227829   1.316   4.937   5.460
 9289TIP3   OH227830   1.884   3.849   3.678
 9289TIP3    H127831   1.888   3.755   3.693
 9289TIP3    H227832   1.801   3.876   3.718
 9290TIP3   OH227833   5.540   0.894   1.415
 9290TIP3    H127834   5.534   0.987   1.433
 9290TIP3    H227835   5.453   0.871   1.380
 9291TIP3   OH227836   3.116   4.398   1.397
 9291TIP3    H127837   3.195   4.411   1.450
 9291TIP3    H227838   3.146   4.402   1.306
 9292TIP3   OH227839   6.098   4.058   1.980
 9292TIP3    H127840   6.011   4.020   1.977
 9292TIP3    H227841   6.099   4.122   1.908
 9293TIP3   OH227842   6.870   4.926   0.085
 9293TIP3    H127843   6.958   4.936   0.049
 9293TIP3    H227844   6.813   4.920   0.008
 9294TIP3   OH227845   0.050   5.548   3.007
 9294TIP3    H127846   0.054   5.590   2.921
 9294TIP3    H227847   0.115   5.595   3.059
 9295TIP3   OH227848   5.242   5.459   5.818
 9295TIP3    H127849   5.245   5.474   5.724
 9295TIP3    H227850   5.307   5.390   5.833
 9296TIP3   OH227851   3.609   5.119   1.816
 9296TIP3    H127852   3.652   5.132   1.732
 9296TIP3    H227853   3.523   5.083   1.794
 9297TIP3   OH227854   0.901   2.749   4.173
 9297TIP3    H127855   0.954   2.827   4.155
 9297TIP3    H227856   0.966   2.679   4.186
 9298TIP3   OH227857   0.688   2.445   5.158
 9298TIP3    H127858   0.609   2.478   5.201
 9298TIP3    H227859   0.738   2.524   5.137
 9299TIP3   OH227860   5.984   2.383   5.620
 9299TIP3    H127861   5.970   2.293   5.649
 9299TIP3    H227862   5.903   2.408   5.576
 9300TIP3   OH227863   1.014   3.705   0.272
 9300TIP3    H127864   1.101   3.666   0.275
 9300TIP3    H227865   0.981   3.698   0.361
 9301TIP3   OH227866   6.095   0.548   3.030
 9301TIP3    H127867   6.032   0.559   3.102
 9301TIP3    H227868   6.103   0.453   3.020
 9302TIP3   OH227869   0.631   0.875   1.747
 9302TIP3    H127870   0.665   0.921   1.669
 9302TIP3    H227871   0.701   0.885   1.812
 9303TIP3   OH227872   5.025   6.378   0.438
 9303TIP3    H127873   5.033   6.415   0.526
 9303TIP3    H227874   4.946   6.418   0.401
 9304TIP3   OH227875   5.080   0.337   4.985
 9304TIP3    H127876   5.175   0.330   4.997
 9304TIP3    H227877   5.066   0.317   4.893
 9305TIP3   OH227878   1.912   5.040   2.896
 9305TIP3    H127879   1.996   5.084   2.881
 9305TIP3    H227880   1.911   5.022   2.990
 9306TIP3   OH227881   6.440   5.051   4.669
 9306TIP3    H127882   6.353   5.037   4.707
 9306TIP3    H227883   6.490   4.974   4.695
 9307TIP3   OH227884   3.826   4.636   5.650
 9307TIP3    H127885   3.894   4.695   5.619
 9307TIP3    H227886   3.750   4.693   5.665
 9308TIP3   OH227887   2.608   0.264   3.354
 9308TIP3    H127888   2.613   0.229   3.266
 9308TIP3    H227889   2.580   0.355   3.343
 9309TIP3   OH227890   4.948   6.000   3.448
 9309TIP3    H127891   5.015   5.938   3.421
 9309TIP3    H227892   4.989   6.051   3.518
 9310TIP3   OH227893   4.678   0.882   5.068
 9310TIP3    H127894   4.746   0.860   5.132
 9310TIP3    H227895   4.715   0.955   5.018
 9311TIP3   OH227896   6.369   1.746   2.422
 9311TIP3    H127897   6.301   1.761   2.488
 9311TIP3    H227898   6.340   1.668   2.375
 9312TIP3   OH227899   2.127   4.480   2.027
 9312TIP3    H127900   2.093   4.566   2.003
 9312TIP3    H227901   2.085   4.419   1.966
 9313TIP3   OH227902   1.126   2.020   2.359
 9313TIP3    H127903   1.048   2.025   2.414
 9313TIP3    H227904   1.135   1.927   2.338
 9314TIP3   OH227905   4.300   0.397   3.211
 9314TIP3    H127906   4.316   0.441   3.295
 9314TIP3    H227907   4.278   0.468   3.151
 9315TIP3   OH227908   5.031   5.554   3.666
 9315TIP3    H127909   5.065   5.616   3.731
 9315TIP3    H227910   5.109   5.516   3.626
 9316TIP3   OH227911   2.174   5.901   2.975
 9316TIP3    H127912   2.204   5.989   2.955
 9316TIP3    H227913   2.100   5.887   2.916
 9317TIP3   OH227914   3.411   1.026   0.471
 9317TIP3    H127915   3.397   1.034   0.376
 9317TIP3    H227916   3.323   1.016   0.507
 9318TIP3   OH227917   6.400   1.042   2.076
 9318TIP3    H127918   6.429   1.123   2.034
 9318TIP3    H227919   6.477   1.010   2.122
 9319TIP3   OH227920   5.102   5.124   0.434
 9319TIP3    H127921   5.170   5.135   0.367
 9319TIP3    H227922   5.081   5.212   0.463
 9320TIP3   OH227923   4.711   5.430   4.449
 9320TIP3    H127924   4.712   5.444   4.543
 9320TIP3    H227925   4.642   5.488   4.416
 9321TIP3   OH227926   0.849   3.894   1.677
 9321TIP3    H127927   0.857   3.968   1.617
 9321TIP3    H227928   0.771   3.913   1.729
 9322TIP3   OH227929   0.662   1.148   0.938
 9322TIP3    H127930   0.596   1.193   0.885
 9322TIP3    H227931   0.640   1.056   0.930
 9323TIP3   OH227932   4.799   4.979   0.264
 9323TIP3    H127933   4.800   4.992   0.359
 9323TIP3    H227934   4.815   4.886   0.252
 9324TIP3   OH227935   2.152   6.517   1.086
 9324TIP3    H127936   2.228   6.467   1.055
 9324TIP3    H227937   2.115   6.555   1.006
 9325TIP3   OH227938   0.238   4.271   5.745
 9325TIP3    H127939   0.307   4.219   5.785
 9325TIP3    H227940   0.274   4.297   5.660
 9326TIP3   OH227941   3.256   1.758   4.717
 9326TIP3    H127942   3.312   1.711   4.779
 9326TIP3    H227943   3.243   1.844   4.757
 9327TIP3   OH227944   2.275   6.180   5.609
 9327TIP3    H127945   2.252   6.158   5.519
 9327TIP3    H227946   2.355   6.129   5.626
 9328TIP3   OH227947   5.384   4.710   4.632
 9328TIP3    H127948   5.380   4.625   4.589
 9328TIP3    H227949   5.349   4.772   4.567
 9329TIP3   OH227950   2.017   5.805   0.687
 9329TIP3    H127951   2.029   5.717   0.722
 9329TIP3    H227952   1.928   5.805   0.652
 9330TIP3   OH227953   3.997   5.142   4.360
 9330TIP3    H127954   4.055   5.072   4.331
 9330TIP3    H227955   3.910   5.103   4.359
 9331TIP3   OH227956   4.175   4.171   5.425
 9331TIP3    H127957   4.247   4.201   5.481
 9331TIP3    H227958   4.096   4.202   5.470
 9332TIP3   OH227959   5.792   4.839   2.492
 9332TIP3    H127960   5.733   4.880   2.428
 9332TIP3    H227961   5.831   4.912   2.539
 9333TIP3   OH227962   0.119   5.808   0.190
 9333TIP3    H127963   0.086   5.786   0.103
 9333TIP3    H227964   0.044   5.796   0.248
 9334TIP3   OH227965   6.684   2.983   0.425
 9334TIP3    H127966   6.696   2.913   0.489
 9334TIP3    H227967   6.686   2.937   0.340
 9335TIP3   OH227968   3.189   5.672   0.526
 9335TIP3    H127969   3.225   5.619   0.455
 9335TIP3    H227970   3.174   5.758   0.487
 9336TIP3   OH227971   4.147   6.164   4.515
 9336TIP3    H127972   4.218   6.156   4.578
 9336TIP3    H227973   4.190   6.184   4.432
 9337TIP3   OH227974   0.176   0.589   0.767
 9337TIP3    H127975   0.163   0.609   0.860
 9337TIP3    H227976   0.108   0.525   0.746
 9338TIP3   OH227977   2.293   1.068   1.134
 9338TIP3    H127978   2.237   1.134   1.175
 9338TIP3    H227979   2.250   1.047   1.052
 9339TIP3   OH227980   0.652   1.400   2.050
 9339TIP3    H127981   0.731   1.449   2.074
 9339TIP3    H227982   0.685   1.319   2.010
 9340TIP3   OH227983   0.789   1.792   5.836
 9340TIP3    H127984   0.811   1.882   5.812
 9340TIP3    H227985   0.755   1.753   5.756
 9341TIP3   OH227986   1.344   6.705   4.544
 9341TIP3    H127987   1.306   6.758   4.474
 9341TIP3    H227988   1.371   6.767   4.611
 9342TIP3   OH227989   0.595   6.218   2.395
 9342TIP3    H127990   0.549   6.155   2.339
 9342TIP3    H227991   0.527   6.253   2.452
 9343TIP3   OH227992   5.936   1.243   4.837
 9343TIP3    H127993   5.863   1.198   4.795
 9343TIP3    H227994   5.895   1.303   4.899
 9344TIP3   OH227995   2.436   6.356   1.328
 9344TIP3    H127996   2.404   6.439   1.293
 9344TIP3    H227997   2.507   6.381   1.387
 9345TIP3   OH227998   7.054   0.397   5.399
 9345TIP3    H127999   7.147   0.392   5.377
 9345TIP3    H228000   7.009   0.406   5.314
 9346TIP3   OH228001   3.045   1.926   3.164
 9346TIP3    H128002   3.048   1.959   3.254
 9346TIP3    H228003   2.957   1.946   3.133
 9347TIP3   OH228004   3.301   1.993   1.820
 9347TIP3    H128005   3.360   1.986   1.896
 9347TIP3    H228006   3.218   2.022   1.857
 9348TIP3   OH228007   7.062   4.179   5.255
 9348TIP3    H128008   7.102   4.187   5.342
 9348TIP3    H228009   7.132   4.205   5.195
 9349TIP3   OH228010   0.655   3.699   4.179
 9349TIP3    H128011   0.592   3.746   4.125
 9349TIP3    H228012   0.639   3.607   4.160
 9350TIP3   OH228013   5.549   6.260   1.866
 9350TIP3    H128014   5.514   6.172   1.852
 9350TIP3    H228015   5.478   6.318   1.840
 9351TIP3   OH228016   2.093   5.012   1.044
 9351TIP3    H128017   2.113   5.103   1.023
 9351TIP3    H228018   2.038   5.017   1.122
 9352TIP3   OH228019   6.142   4.980   2.564
 9352TIP3    H128020   6.050   5.001   2.548
 9352TIP3    H228021   6.188   5.062   2.545
 9353TIP3   OH228022   1.674   0.751   1.826
 9353TIP3    H128023   1.742   0.785   1.768
 9353TIP3    H228024   1.671   0.814   1.898
 9354TIP3   OH228025   4.496   2.718   4.986
 9354TIP3    H128026   4.459   2.723   5.074
 9354TIP3    H228027   4.452   2.788   4.937
 9355TIP3   OH228028   0.802   5.273   4.104
 9355TIP3    H128029   0.771   5.192   4.063
 9355TIP3    H228030   0.893   5.281   4.075
 9356TIP3   OH228031   4.319   0.096   5.276
 9356TIP3    H128032   4.278   0.047   5.205
 9356TIP3    H228033   4.372   0.162   5.231
 9357TIP3   OH228034   5.695   5.491   4.936
 9357TIP3    H128035   5.621   5.547   4.958
 9357TIP3    H228036   5.716   5.446   5.018
 9358TIP3   OH228037   3.834   5.278   1.127
 9358TIP3    H128038   3.898   5.310   1.191
 9358TIP3    H228039   3.779   5.218   1.176
 9359TIP3   OH228040   0.234   3.303   3.942
 9359TIP3    H128041   0.275   3.297   4.028
 9359TIP3    H228042   0.164   3.236   3.944
 9360TIP3   OH228043   0.009   0.994   3.889
 9360TIP3    H128044   0.053   0.909   3.881
 9360TIP3    H228045   0.033   1.026   3.976
 9361TIP3   OH228046   5.298   2.402   1.076
 9361TIP3    H128047   5.202   2.399   1.081
 9361TIP3    H228048   5.327   2.326   1.127
 9362TIP3   OH228049   0.592   4.441   0.014
 9362TIP3    H128050   0.687   4.439   0.022
 9362TIP3    H228051   0.562   4.362   0.059
 9363TIP3   OH228052   2.472   4.166   5.836
 9363TIP3    H128053   2.509   4.231   5.776
 9363TIP3    H228054   2.392   4.207   5.869
 9364TIP3   OH228055   5.921   3.711   3.389
 9364TIP3    H128056   5.903   3.649   3.459
 9364TIP3    H228057   5.946   3.657   3.315
 9365TIP3   OH228058   5.424   1.589   0.235
 9365TIP3    H128059   5.452   1.644   0.161
 9365TIP3    H228060   5.351   1.637   0.275
 9366TIP3   OH228061   3.004   4.861   1.092
 9366TIP3    H128062   2.922   4.825   1.124
 9366TIP3    H228063   2.981   4.948   1.059
 9367TIP3   OH228064   6.453   4.618   4.638
 9367TIP3    H128065   6.546   4.615   4.614
 9367TIP3    H228066   6.451   4.666   4.720
 9368TIP3   OH228067   6.130   5.583   3.946
 9368TIP3    H128068   6.098   5.526   3.875
 9368TIP3    H228069   6.214   5.616   3.914
 9369TIP3   OH228070   4.075   5.921   2.712
 9369TIP3    H128071   4.165   5.928   2.744
 9369TIP3    H228072   4.021   5.952   2.785
 9370TIP3   OH228073   6.822   3.004   2.868
 9370TIP3    H128074   6.768   3.076   2.836
 9370TIP3    H228075   6.844   3.028   2.958
 9371TIP3   OH228076   6.987   6.038   3.350
 9371TIP3    H128077   6.934   6.047   3.429
 9371TIP3    H228078   7.000   6.128   3.319
 9372TIP3   OH228079   2.589   3.426   4.224
 9372TIP3    H128080   2.634   3.376   4.156
 9372TIP3    H228081   2.621   3.515   4.213
 9373TIP3   OH228082   1.498   2.365   2.419
 9373TIP3    H128083   1.580   2.352   2.370
 9373TIP3    H228084   1.451   2.282   2.409
 9374TIP3   OH228085   4.973  -0.008   5.727
 9374TIP3    H128086   4.887   0.020   5.757
 9374TIP3    H228087   4.982   0.029   5.639
 9375TIP3   OH228088   2.998   4.848   0.787
 9375TIP3    H128089   2.971   4.914   0.851
 9375TIP3    H228090   3.093   4.844   0.796
 9376TIP3   OH228091   0.055   1.124   3.374
 9376TIP3    H128092  -0.012   1.106   3.309
 9376TIP3    H228093   0.006   1.137   3.456
 9377TIP3   OH228094   5.331   4.970   3.118
 9377TIP3    H128095   5.279   5.049   3.106
 9377TIP3    H228096   5.303   4.935   3.203
 9378TIP3   OH228097   5.423   3.148   3.266
 9378TIP3    H128098   5.480   3.209   3.221
 9378TIP3    H228099   5.456   3.061   3.242
 9379TIP3   OH228100   1.736   6.814   2.685
 9379TIP3    H128101   1.769   6.768   2.762
 9379TIP3    H228102   1.686   6.748   2.637
 9380TIP3   OH228103   3.841   1.205   3.889
 9380TIP3    H128104   3.786   1.157   3.951
 9380TIP3    H228105   3.899   1.258   3.944
 9381TIP3   OH228106   3.037   2.459   3.418
 9381TIP3    H128107   3.126   2.438   3.445
 9381TIP3    H228108   3.046   2.536   3.362
 9382TIP3   OH228109   2.868   2.245   1.372
 9382TIP3    H128110   2.907   2.158   1.377
 9382TIP3    H228111   2.824   2.257   1.456
 9383TIP3   OH228112   5.797   3.476   1.152
 9383TIP3    H128113   5.880   3.452   1.194
 9383TIP3    H228114   5.764   3.394   1.116
 9384TIP3   OH228115   3.140   5.182   3.837
 9384TIP3    H128116   3.084   5.210   3.909
 9384TIP3    H228117   3.177   5.099   3.866
 9385TIP3   OH228118   3.293   6.398   2.756
 9385TIP3    H128119   3.348   6.321   2.772
 9385TIP3    H228120   3.314   6.458   2.827
 9386TIP3   OH228121   2.579   2.863   3.123
 9386TIP3    H128122   2.619   2.776   3.127
 9386TIP3    H228123   2.618   2.904   3.045
 9387TIP3   OH228124   6.291   1.075   0.315
 9387TIP3    H128125   6.366   1.114   0.269
 9387TIP3    H228126   6.306   0.981   0.309
 9388TIP3   OH228127   6.149   5.927   4.593
 9388TIP3    H128128   6.065   5.960   4.624
 9388TIP3    H228129   6.162   5.970   4.508
 9389TIP3   OH228130   1.268   0.818   4.332
 9389TIP3    H128131   1.221   0.735   4.343
 9389TIP3    H228132   1.296   0.817   4.241
 9390TIP3   OH228133   5.202   2.580   3.333
 9390TIP3    H128134   5.147   2.621   3.401
 9390TIP3    H228135   5.245   2.507   3.378
 9391TIP3   OH228136   4.314   1.785   1.811
 9391TIP3    H128137   4.329   1.871   1.850
 9391TIP3    H228138   4.395   1.737   1.827
 9392TIP3   OH228139   2.420   5.150   5.702
 9392TIP3    H128140   2.381   5.106   5.626
 9392TIP3    H228141   2.451   5.234   5.668
 9393TIP3   OH228142   6.892   5.950   2.885
 9393TIP3    H128143   6.945   5.875   2.861
 9393TIP3    H228144   6.953   6.023   2.887
 9394TIP3   OH228145   6.540   6.057   2.968
 9394TIP3    H128146   6.575   6.015   2.890
 9394TIP3    H228147   6.545   5.989   3.036
 9395TIP3   OH228148   3.909   0.617   4.584
 9395TIP3    H128149   3.908   0.669   4.664
 9395TIP3    H228150   3.817   0.609   4.559
 9396TIP3   OH228151   1.455   2.348   5.284
 9396TIP3    H128152   1.470   2.313   5.372
 9396TIP3    H228153   1.542   2.370   5.252
 9397TIP3   OH228154   2.239   4.289   2.535
 9397TIP3    H128155   2.267   4.375   2.566
 9397TIP3    H228156   2.218   4.303   2.443
 9398TIP3   OH228157   4.316   3.277   3.721
 9398TIP3    H128158   4.377   3.214   3.683
 9398TIP3    H228159   4.241   3.276   3.662
 9399TIP3   OH228160   4.415   6.484   3.773
 9399TIP3    H128161   4.495   6.478   3.720
 9399TIP3    H228162   4.344   6.467   3.711
 9400TIP3   OH228163   2.976   3.519   2.588
 9400TIP3    H128164   2.932   3.435   2.594
 9400TIP3    H228165   3.063   3.504   2.623
 9401TIP3   OH228166   3.914   6.702   1.409
 9401TIP3    H128167   3.902   6.608   1.396
 9401TIP3    H228168   4.007   6.717   1.397
 9402TIP3   OH228169   6.464   6.436   4.990
 9402TIP3    H128170   6.412   6.499   4.941
 9402TIP3    H228171   6.455   6.354   4.941
 9403TIP3   OH228172   5.450   3.754   5.574
 9403TIP3    H128173   5.443   3.722   5.664
 9403TIP3    H228174   5.360   3.751   5.541
 9404TIP3   OH228175   6.418   4.104   4.995
 9404TIP3    H128176   6.395   4.158   5.070
 9404TIP3    H228177   6.512   4.118   4.983
 9405TIP3   OH228178   4.464   0.364   1.368
 9405TIP3    H128179   4.490   0.294   1.429
 9405TIP3    H228180   4.391   0.407   1.412
 9406TIP3   OH228181   6.658   0.246   3.920
 9406TIP3    H128182   6.748   0.243   3.885
 9406TIP3    H228183   6.670   0.259   4.014
 9407TIP3   OH228184   1.699   0.751   4.982
 9407TIP3    H128185   1.617   0.793   4.953
 9407TIP3    H228186   1.693   0.662   4.948
 9408TIP3   OH228187   5.554   5.560   0.066
 9408TIP3    H128188   5.618   5.511   0.016
 9408TIP3    H228189   5.503   5.493   0.112
 9409TIP3   OH228190   2.366   3.161   1.751
 9409TIP3    H128191   2.393   3.070   1.743
 9409TIP3    H228192   2.393   3.186   1.840
 9410TIP3   OH228193   0.898   5.860   4.969
 9410TIP3    H128194   0.840   5.929   4.999
 9410TIP3    H228195   0.839   5.790   4.939
 9411TIP3   OH228196   0.403   0.546   3.069
 9411TIP3    H128197   0.379   0.465   3.115
 9411TIP3    H228198   0.389   0.525   2.976
 9412TIP3   OH228199   1.824   3.279   2.990
 9412TIP3    H128200   1.858   3.205   2.940
 9412TIP3    H228201   1.730   3.263   2.997
 9413TIP3   OH228202   1.625   6.237   3.846
 9413TIP3    H128203   1.559   6.173   3.817
 9413TIP3    H228204   1.574   6.306   3.889
 9414TIP3   OH228205   4.601   4.795   2.778
 9414TIP3    H128206   4.693   4.821   2.780
 9414TIP3    H228207   4.565   4.830   2.860
 9415TIP3   OH228208   5.454   0.408   1.446
 9415TIP3    H128209   5.401   0.333   1.473
 9415TIP3    H228210   5.395   0.460   1.391
 9416TIP3   OH228211   3.024   0.318   2.966
 9416TIP3    H128212   3.067   0.377   2.904
 9416TIP3    H228213   3.091   0.297   3.030
 9417TIP3   OH228214   1.332   0.038   2.866
 9417TIP3    H128215   1.359   0.111   2.922
 9417TIP3    H228216   1.272   0.076   2.802
 9418TIP3   OH228217   2.313   1.598   5.364
 9418TIP3    H128218   2.259   1.596   5.443
 9418TIP3    H228219   2.342   1.507   5.353
 9419TIP3   OH228220   0.243   5.899   3.044
 9419TIP3    H128221   0.170   5.919   3.104
 9419TIP3    H228222   0.274   5.813   3.072
 9420TIP3   OH228223   0.918   2.909   2.051
 9420TIP3    H128224   0.825   2.922   2.037
 9420TIP3    H228225   0.957   2.996   2.038
 9421TIP3   OH228226   3.216   4.377   5.204
 9421TIP3    H128227   3.191   4.427   5.282
 9421TIP3    H228228   3.159   4.410   5.135
 9422TIP3   OH228229   2.335   0.961   2.880
 9422TIP3    H128230   2.415   0.909   2.867
 9422TIP3    H228231   2.264   0.902   2.853
 9423TIP3   OH228232   4.250   4.941   2.226
 9423TIP3    H128233   4.168   4.932   2.178
 9423TIP3    H228234   4.264   4.854   2.265
 9424TIP3   OH228235   6.437   5.468   0.321
 9424TIP3    H128236   6.496   5.541   0.339
 9424TIP3    H228237   6.350   5.502   0.341
 9425TIP3   OH228238   0.125   0.216   1.784
 9425TIP3    H128239   0.108   0.204   1.878
 9425TIP3    H228240   0.071   0.291   1.760
 9426TIP3   OH228241   2.807   5.361   3.610
 9426TIP3    H128242   2.784   5.451   3.634
 9426TIP3    H228243   2.726   5.312   3.624
 9427TIP3   OH228244   1.986   1.088   4.649
 9427TIP3    H128245   1.993   1.032   4.727
 9427TIP3    H228246   1.942   1.167   4.680
 9428TIP3   OH228247   3.991   5.890   0.789
 9428TIP3    H128248   3.997   5.820   0.855
 9428TIP3    H228249   4.081   5.918   0.776
 9429TIP3   OH228250   5.666   0.817   5.848
 9429TIP3    H128251   5.659   0.889   5.912
 9429TIP3    H228252   5.591   0.760   5.868
 9430TIP3   OH228253   3.609   6.770   2.471
 9430TIP3    H128254   3.664   6.717   2.528
 9430TIP3    H228255   3.519   6.750   2.498
 9431TIP3   OH228256   1.447   0.241   2.234
 9431TIP3    H128257   1.396   0.313   2.196
 9431TIP3    H228258   1.389   0.204   2.301
 9432TIP3   OH228259   2.129   5.174   1.748
 9432TIP3    H128260   2.203   5.213   1.794
 9432TIP3    H228261   2.067   5.247   1.739
 9433TIP3   OH228262   1.817   6.166   5.516
 9433TIP3    H128263   1.830   6.244   5.463
 9433TIP3    H228264   1.836   6.093   5.457
 9434TIP3   OH228265   0.976   3.114   2.989
 9434TIP3    H128266   0.956   3.206   3.006
 9434TIP3    H228267   0.903   3.084   2.934
 9435TIP3   OH228268   5.620   6.074   5.733
 9435TIP3    H128269   5.641   6.167   5.733
 9435TIP3    H228270   5.706   6.030   5.736
 9436TIP3   OH228271   5.380   5.156   0.346
 9436TIP3    H128272   5.402   5.065   0.325
 9436TIP3    H228273   5.403   5.165   0.439
 9437TIP3   OH228274   4.258   5.462   3.842
 9437TIP3    H128275   4.342   5.504   3.859
 9437TIP3    H228276   4.207   5.527   3.794
 9438TIP3   OH228277   4.763   1.593   1.080
 9438TIP3    H128278   4.736   1.652   1.009
 9438TIP3    H228279   4.682   1.547   1.104
 9439TIP3   OH228280   6.010   4.045   1.446
 9439TIP3    H128281   5.954   4.072   1.372
 9439TIP3    H228282   5.961   4.073   1.524
 9440TIP3   OH228283   6.707   5.945   0.378
 9440TIP3    H128284   6.625   5.966   0.421
 9440TIP3    H228285   6.770   6.008   0.413
 9441TIP3   OH228286   0.305   4.090   4.329
 9441TIP3    H128287   0.287   4.135   4.411
 9441TIP3    H228288   0.278   3.999   4.345
 9442TIP3   OH228289   4.837   1.088   4.980
 9442TIP3    H128290   4.850   1.183   4.984
 9442TIP3    H228291   4.925   1.052   4.990
 9443TIP3   OH228292   1.260   3.530   2.281
 9443TIP3    H128293   1.303   3.575   2.354
 9443TIP3    H228294   1.173   3.569   2.276
 9444TIP3   OH228295   5.211   0.691   3.459
 9444TIP3    H128296   5.259   0.649   3.531
 9444TIP3    H228297   5.137   0.633   3.444
 9445TIP3   OH228298   5.225   0.153   0.496
 9445TIP3    H128299   5.164   0.081   0.514
 9445TIP3    H228300   5.311   0.116   0.516
 9446TIP3   OH228301   1.424   5.407   4.638
 9446TIP3    H128302   1.482   5.469   4.682
 9446TIP3    H228303   1.468   5.388   4.555
 9447TIP3   OH228304   5.170   4.784   4.011
 9447TIP3    H128305   5.175   4.744   3.925
 9447TIP3    H228306   5.126   4.868   3.996
 9448TIP3   OH228307   7.123   2.299   0.863
 9448TIP3    H128308   7.029   2.316   0.863
 9448TIP3    H228309   7.138   2.244   0.787
 9449TIP3   OH228310   6.607   3.012   1.040
 9449TIP3    H128311   6.516   3.016   1.011
 9449TIP3    H228312   6.602   3.009   1.136
 9450TIP3   OH228313   6.211   1.931   1.680
 9450TIP3    H128314   6.249   1.900   1.598
 9450TIP3    H228315   6.117   1.937   1.663
 9451TIP3   OH228316   4.030   4.037   4.474
 9451TIP3    H128317   3.971   3.999   4.539
 9451TIP3    H228318   4.041   4.128   4.501
 9452TIP3   OH228319   6.384   5.300   2.839
 9452TIP3    H128320   6.437   5.294   2.919
 9452TIP3    H228321   6.360   5.209   2.820
 9453TIP3   OH228322   1.743   1.866   5.778
 9453TIP3    H128323   1.658   1.845   5.740
 9453TIP3    H228324   1.728   1.863   5.873
 9454TIP3   OH228325   5.066   2.642   2.812
 9454TIP3    H128326   5.018   2.573   2.767
 9454TIP3    H228327   4.998   2.692   2.858
 9455TIP3   OH228328   1.718   6.089   2.611
 9455TIP3    H128329   1.623   6.101   2.614
 9455TIP3    H228330   1.749   6.125   2.695
 9456TIP3   OH228331   6.404   0.868   3.872
 9456TIP3    H128332   6.373   0.785   3.907
 9456TIP3    H228333   6.334   0.899   3.815
 9457TIP3   OH228334   1.505   4.254   3.495
 9457TIP3    H128335   1.553   4.174   3.474
 9457TIP3    H228336   1.569   4.309   3.540
 9458TIP3   OH228337   5.832   1.013   4.041
 9458TIP3    H128338   5.740   1.024   4.018
 9458TIP3    H228339   5.834   1.022   4.136
 9459TIP3   OH228340   4.480   5.620   3.839
 9459TIP3    H128341   4.431   5.698   3.811
 9459TIP3    H228342   4.569   5.636   3.808
 9460TIP3   OH228343   5.872   1.839   5.683
 9460TIP3    H128344   5.901   1.843   5.774
 9460TIP3    H228345   5.903   1.755   5.651
 9461TIP3   OH228346   5.541   0.642   4.864
 9461TIP3    H128347   5.632   0.665   4.881
 9461TIP3    H228348   5.490   0.716   4.899
 9462TIP3   OH228349   0.746   2.288   1.520
 9462TIP3    H128350   0.828   2.334   1.499
 9462TIP3    H228351   0.725   2.240   1.440
 9463TIP3   OH228352   5.353   2.691   3.672
 9463TIP3    H128353   5.265   2.692   3.634
 9463TIP3    H228354   5.385   2.780   3.662
 9464TIP3   OH228355   3.047   1.782   5.695
 9464TIP3    H128356   3.091   1.769   5.779
 9464TIP3    H228357   3.078   1.709   5.641
 9465TIP3   OH228358   5.509   2.927   3.664
 9465TIP3    H128359   5.470   2.991   3.604
 9465TIP3    H228360   5.579   2.886   3.613
 9466TIP3   OH228361   4.117   2.071   3.412
 9466TIP3    H128362   4.168   2.033   3.484
 9466TIP3    H228363   4.158   2.157   3.397
 9467TIP3   OH228364   0.822   3.198   2.284
 9467TIP3    H128365   0.882   3.212   2.357
 9467TIP3    H228366   0.855   3.256   2.214
 9468TIP3   OH228367   1.791   2.144   3.192
 9468TIP3    H128368   1.836   2.063   3.171
 9468TIP3    H228369   1.714   2.117   3.242
 9469TIP3   OH228370   1.947   2.929   2.989
 9469TIP3    H128371   1.899   2.975   2.920
 9469TIP3    H228372   1.925   2.974   3.070
 9470TIP3   OH228373   0.960   3.851   4.990
 9470TIP3    H128374   0.970   3.946   4.990
 9470TIP3    H228375   0.871   3.836   4.956
 9471TIP3   OH228376   6.679   4.698   5.637
 9471TIP3    H128377   6.761   4.650   5.633
 9471TIP3    H228378   6.705   4.790   5.648
 9472TIP3   OH228379   1.262   1.234   3.985
 9472TIP3    H128380   1.299   1.148   4.005
 9472TIP3    H228381   1.333   1.280   3.940
 9473TIP3   OH228382   3.690   6.394   5.413
 9473TIP3    H128383   3.735   6.394   5.329
 9473TIP3    H228384   3.748   6.346   5.472
 9474TIP3   OH228385   1.645   2.717   5.292
 9474TIP3    H128386   1.641   2.662   5.213
 9474TIP3    H228387   1.598   2.667   5.358
 9475TIP3   OH228388   0.962   1.415   1.500
 9475TIP3    H128389   0.993   1.333   1.462
 9475TIP3    H228390   0.893   1.444   1.441
 9476TIP3   OH228391   4.342   4.227   0.935
 9476TIP3    H128392   4.323   4.287   0.863
 9476TIP3    H228393   4.309   4.142   0.906
 9477TIP3   OH228394   4.278   4.510   2.716
 9477TIP3    H128395   4.325   4.494   2.635
 9477TIP3    H228396   4.322   4.585   2.755
 9478TIP3   OH228397   1.919   4.269   5.290
 9478TIP3    H128398   2.007   4.299   5.267
 9478TIP3    H228399   1.876   4.347   5.324
 9479TIP3   OH228400   1.640   0.051   1.328
 9479TIP3    H128401   1.676   0.104   1.257
 9479TIP3    H228402   1.695   0.073   1.404
 9480TIP3   OH228403   4.705   4.671   1.901
 9480TIP3    H128404   4.673   4.581   1.911
 9480TIP3    H228405   4.789   4.661   1.857
 9481TIP3   OH228406   0.750   4.786   3.560
 9481TIP3    H128407   0.761   4.848   3.632
 9481TIP3    H228408   0.677   4.822   3.509
 9482TIP3   OH228409   6.409   2.166   1.060
 9482TIP3    H128410   6.490   2.216   1.073
 9482TIP3    H228411   6.429   2.078   1.092
 9483TIP3   OH228412   1.008   6.004   3.374
 9483TIP3    H128413   1.043   5.921   3.406
 9483TIP3    H228414   0.914   5.996   3.385
 9484TIP3   OH228415   4.846   4.195   0.949
 9484TIP3    H128416   4.891   4.183   0.865
 9484TIP3    H228417   4.802   4.279   0.941
 9485TIP3   OH228418   3.514   0.923   2.397
 9485TIP3    H128419   3.440   0.895   2.343
 9485TIP3    H228420   3.585   0.863   2.374
 9486TIP3   OH228421   4.798   1.396   2.347
 9486TIP3    H128422   4.822   1.318   2.397
 9486TIP3    H228423   4.813   1.469   2.408
 9487TIP3   OH228424   4.986   2.218   5.066
 9487TIP3    H128425   5.074   2.256   5.078
 9487TIP3    H228426   4.996   2.126   5.089
 9488TIP3   OH228427   4.687   2.577   0.273
 9488TIP3    H128428   4.760   2.516   0.258
 9488TIP3    H228429   4.711   2.623   0.354
 9489TIP3   OH228430   7.108   2.346   5.337
 9489TIP3    H128431   7.151   2.428   5.312
 9489TIP3    H228432   7.143   2.281   5.276
 9490TIP3   OH228433   5.389   1.908   1.917
 9490TIP3    H128434   5.324   1.867   1.861
 9490TIP3    H228435   5.473   1.892   1.873
 9491TIP3   OH228436   3.339   2.714   1.793
 9491TIP3    H128437   3.302   2.802   1.802
 9491TIP3    H228438   3.265   2.655   1.810
 9492TIP3   OH228439   4.098   6.601   2.920
 9492TIP3    H128440   4.041   6.570   2.850
 9492TIP3    H228441   4.091   6.696   2.917
 9493TIP3   OH228442   1.761   4.439   5.454
 9493TIP3    H128443   1.672   4.462   5.429
 9493TIP3    H228444   1.797   4.519   5.493
 9494TIP3   OH228445   2.820   2.032   3.730
 9494TIP3    H128446   2.804   2.084   3.651
 9494TIP3    H228447   2.832   1.943   3.699
 9495TIP3   OH228448   5.048   0.165   3.044
 9495TIP3    H128449   4.967   0.158   2.993
 9495TIP3    H228450   5.118   0.147   2.981
 9496TIP3   OH228451   0.474   4.785   0.778
 9496TIP3    H128452   0.480   4.690   0.785
 9496TIP3    H228453   0.381   4.804   0.788
 9497TIP3   OH228454   6.763   0.195   5.515
 9497TIP3    H128455   6.770   0.234   5.428
 9497TIP3    H228456   6.760   0.270   5.574
 9498TIP3   OH228457   2.716   1.390   3.300
 9498TIP3    H128458   2.663   1.445   3.243
 9498TIP3    H228459   2.654   1.350   3.360
 9499TIP3   OH228460   5.350   6.405   1.108
 9499TIP3    H128461   5.406   6.367   1.176
 9499TIP3    H228462   5.325   6.490   1.143
 9500TIP3   OH228463   2.633   2.333   5.571
 9500TIP3    H128464   2.623   2.264   5.505
 9500TIP3    H228465   2.589   2.409   5.533
 9501TIP3   OH228466   2.924   6.075   4.286
 9501TIP3    H128467   2.914   6.170   4.287
 9501TIP3    H228468   2.931   6.051   4.379
 9502TIP3   OH228469   7.084   5.782   5.553
 9502TIP3    H128470   7.064   5.849   5.618
 9502TIP3    H228471   7.016   5.716   5.565
 9503TIP3   OH228472   3.220   6.636   5.152
 9503TIP3    H128473   3.143   6.579   5.156
 9503TIP3    H228474   3.268   6.618   5.233
 9504TIP3   OH228475   6.531   2.229   4.264
 9504TIP3    H128476   6.575   2.239   4.180
 9504TIP3    H228477   6.467   2.301   4.266
 9505TIP3   OH228478   1.019   2.520   4.410
 9505TIP3    H128479   1.080   2.462   4.455
 9505TIP3    H228480   1.010   2.482   4.323
 9506TIP3   OH228481   4.125   0.366   3.459
 9506TIP3    H128482   4.198   0.388   3.517
 9506TIP3    H228483   4.071   0.445   3.456
 9507TIP3   OH228484   4.486   5.335   0.648
 9507TIP3    H128485   4.437   5.387   0.585
 9507TIP3    H228486   4.455   5.246   0.635
 9508TIP3   OH228487   4.039   1.930   4.590
 9508TIP3    H128488   4.045   1.845   4.546
 9508TIP3    H228489   4.056   1.910   4.682
 9509TIP3   OH228490   4.795   6.664   5.645
 9509TIP3    H128491   4.755   6.751   5.645
 9509TIP3    H228492   4.806   6.644   5.738
 9510TIP3   OH228493   6.089   5.044   3.144
 9510TIP3    H128494   6.082   4.961   3.191
 9510TIP3    H228495   6.127   5.020   3.059
 9511TIP3   OH228496   7.081   5.598   3.929
 9511TIP3    H128497   7.108   5.686   3.903
 9511TIP3    H228498   7.014   5.574   3.866
 9512TIP3   OH228499   6.409   0.741   3.400
 9512TIP3    H128500   6.444   0.794   3.328
 9512TIP3    H228501   6.466   0.761   3.474
 9513TIP3   OH228502   2.555   1.083   2.144
 9513TIP3    H128503   2.525   1.159   2.095
 9513TIP3    H228504   2.499   1.011   2.116
 9514TIP3   OH228505   1.282   3.842   3.522
 9514TIP3    H128506   1.286   3.924   3.571
 9514TIP3    H228507   1.279   3.774   3.589
 9515TIP3   OH228508   2.176   2.966   0.620
 9515TIP3    H128509   2.256   2.915   0.611
 9515TIP3    H228510   2.115   2.927   0.557
 9516TIP3   OH228511   5.826   1.900   1.295
 9516TIP3    H128512   5.742   1.946   1.291
 9516TIP3    H228513   5.803   1.808   1.290
 9517TIP3   OH228514   6.650   5.070   0.193
 9517TIP3    H128515   6.719   5.013   0.160
 9517TIP3    H228516   6.690   5.158   0.195
 9518TIP3   OH228517   4.404   6.412   2.031
 9518TIP3    H128518   4.496   6.386   2.032
 9518TIP3    H228519   4.361   6.353   2.092
 9519TIP3   OH228520   5.920   6.757   2.500
 9519TIP3    H128521   6.001   6.742   2.451
 9519TIP3    H228522   5.874   6.673   2.498
 9520TIP3   OH228523   4.568   5.629   4.338
 9520TIP3    H128524   4.480   5.605   4.367
 9520TIP3    H228525   4.555   5.681   4.259
 9521TIP3   OH228526   6.637   4.521   4.073
 9521TIP3    H128527   6.587   4.452   4.029
 9521TIP3    H228528   6.726   4.512   4.038
 9522TIP3   OH228529   2.256   1.008   2.272
 9522TIP3    H128530   2.330   1.020   2.212
 9522TIP3    H228531   2.259   0.916   2.296
 9523TIP3   OH228532   2.759   2.150   2.435
 9523TIP3    H128533   2.722   2.237   2.449
 9523TIP3    H228534   2.758   2.109   2.522
 9524TIP3   OH228535   4.628   3.399   2.579
 9524TIP3    H128536   4.667   3.312   2.568
 9524TIP3    H228537   4.688   3.458   2.533
 9525TIP3   OH228538   2.933   0.069   2.329
 9525TIP3    H128539   2.841   0.055   2.348
 9525TIP3    H228540   2.971  -0.018   2.328
 9526TIP3   OH228541   4.798   3.622   2.543
 9526TIP3    H128542   4.843   3.568   2.609
 9526TIP3    H228543   4.855   3.698   2.531
 9527TIP3   OH228544   3.729   5.860   2.272
 9527TIP3    H128545   3.755   5.768   2.268
 9527TIP3    H228546   3.656   5.862   2.335
 9528TIP3   OH228547   2.677   1.464   4.278
 9528TIP3    H128548   2.586   1.447   4.302
 9528TIP3    H228549   2.728   1.418   4.345
 9529TIP3   OH228550   7.246   0.125   0.774
 9529TIP3    H128551   7.215   0.201   0.725
 9529TIP3    H228552   7.174   0.062   0.771
 9530TIP3   OH228553   2.855   5.045   4.277
 9530TIP3    H128554   2.852   5.008   4.189
 9530TIP3    H228555   2.776   5.097   4.284
 9531TIP3   OH228556   1.408   1.148   0.496
 9531TIP3    H128557   1.489   1.113   0.460
 9531TIP3    H228558   1.348   1.073   0.500
 9532TIP3   OH228559   4.926   5.247   1.297
 9532TIP3    H128560   4.948   5.205   1.380
 9532TIP3    H228561   4.854   5.195   1.262
 9533TIP3   OH228562   1.947   6.387   5.393
 9533TIP3    H128563   1.993   6.398   5.476
 9533TIP3    H228564   2.012   6.349   5.334
 9534TIP3   OH228565   4.608   5.207   0.171
 9534TIP3    H128566   4.647   5.221   0.085
 9534TIP3    H228567   4.645   5.125   0.202
 9535TIP3   OH228568   1.895   5.249   5.285
 9535TIP3    H128569   1.860   5.163   5.263
 9535TIP3    H228570   1.877   5.259   5.379
 9536TIP3   OH228571   6.284   0.138   0.238
 9536TIP3    H128572   6.280   0.178   0.324
 9536TIP3    H228573   6.298   0.045   0.255
 9537TIP3   OH228574   4.798   1.937   2.878
 9537TIP3    H128575   4.711   1.925   2.917
 9537TIP3    H228576   4.780   1.966   2.788
 9538TIP3   OH228577   0.628   0.908   3.704
 9538TIP3    H128578   0.624   0.860   3.621
 9538TIP3    H228579   0.713   0.883   3.741
 9539TIP3   OH228580   2.930   3.890   5.701
 9539TIP3    H128581   2.858   3.846   5.745
 9539TIP3    H228582   2.989   3.819   5.674
 9540TIP3   OH228583   2.548   3.150   3.868
 9540TIP3    H128584   2.550   3.130   3.961
 9540TIP3    H228585   2.457   3.133   3.842
 9541TIP3   OH228586   6.916   3.579   5.654
 9541TIP3    H128587   6.903   3.494   5.697
 9541TIP3    H228588   6.894   3.643   5.721
 9542TIP3   OH228589   3.447   5.705   3.884
 9542TIP3    H128590   3.374   5.765   3.899
 9542TIP3    H228591   3.430   5.667   3.798
 9543TIP3   OH228592   1.984   2.877   3.776
 9543TIP3    H128593   1.929   2.813   3.821
 9543TIP3    H228594   2.067   2.832   3.760
 9544TIP3   OH228595   4.634   4.283   5.006
 9544TIP3    H128596   4.569   4.265   5.074
 9544TIP3    H228597   4.593   4.348   4.950
 9545TIP3   OH228598   4.383   4.822   0.749
 9545TIP3    H128599   4.394   4.895   0.688
 9545TIP3    H228600   4.388   4.744   0.693
 9546TIP3   OH228601   5.941   1.067   1.492
 9546TIP3    H128602   5.936   0.993   1.553
 9546TIP3    H228603   5.897   1.139   1.538
 9547TIP3   OH228604   6.179   3.327   2.444
 9547TIP3    H128605   6.117   3.364   2.506
 9547TIP3    H228606   6.242   3.397   2.427
 9548TIP3   OH228607   2.918   1.262   0.291
 9548TIP3    H128608   2.995   1.232   0.243
 9548TIP3    H228609   2.947   1.269   0.382
 9549TIP3   OH228610   3.362   6.651   2.229
 9549TIP3    H128611   3.347   6.592   2.302
 9549TIP3    H228612   3.457   6.661   2.224
 9550TIP3   OH228613   6.771   6.397   4.222
 9550TIP3    H128614   6.733   6.433   4.302
 9550TIP3    H228615   6.851   6.353   4.252
 9551TIP3   OH228616   5.745   2.000   2.886
 9551TIP3    H128617   5.698   2.066   2.937
 9551TIP3    H228618   5.837   2.020   2.899
 9552TIP3   OH228619   5.237   2.081   5.252
 9552TIP3    H128620   5.292   2.113   5.324
 9552TIP3    H228621   5.246   2.147   5.183
 9553TIP3   OH228622   1.004   1.719   3.082
 9553TIP3    H128623   0.912   1.729   3.055
 9553TIP3    H228624   1.055   1.748   3.007
 9554TIP3   OH228625   5.400   1.216   2.486
 9554TIP3    H128626   5.391   1.264   2.404
 9554TIP3    H228627   5.361   1.130   2.468
 9555TIP3   OH228628   2.606   3.655   2.251
 9555TIP3    H128629   2.513   3.632   2.259
 9555TIP3    H228630   2.637   3.603   2.177
 9556TIP3   OH228631   5.013   5.962   0.722
 9556TIP3    H128632   5.061   5.881   0.706
 9556TIP3    H228633   4.936   5.935   0.773
 9557TIP3   OH228634   0.657   5.833   4.171
 9557TIP3    H128635   0.686   5.851   4.081
 9557TIP3    H228636   0.612   5.748   4.164
 9558TIP3   OH228637   0.600   3.328   3.840
 9558TIP3    H128638   0.585   3.234   3.842
 9558TIP3    H228639   0.523   3.364   3.796
 9559TIP3   OH228640   1.986   5.863   2.764
 9559TIP3    H128641   1.901   5.837   2.730
 9559TIP3    H228642   1.978   5.958   2.778
 9560TIP3   OH228643   4.320   6.233   2.544
 9560TIP3    H128644   4.356   6.321   2.555
 9560TIP3    H228645   4.301   6.226   2.451
 9561TIP3   OH228646   7.281   4.679   2.317
 9561TIP3    H128647   7.202   4.726   2.342
 9561TIP3    H228648   7.256   4.630   2.239
 9562TIP3   OH228649   2.552   2.644   3.742
 9562TIP3    H128650   2.588   2.599   3.666
 9562TIP3    H228651   2.464   2.608   3.752
 9563TIP3   OH228652   4.107   4.347   1.416
 9563TIP3    H128653   4.044   4.284   1.451
 9563TIP3    H228654   4.142   4.392   1.493
 9564TIP3   OH228655   2.368   1.021  -0.003
 9564TIP3    H128656   2.341   1.109   0.023
 9564TIP3    H228657   2.380   0.974   0.080
 9565TIP3   OH228658   5.100   2.116   4.816
 9565TIP3    H128659   5.034   2.135   4.882
 9565TIP3    H228660   5.076   2.170   4.741
 9566TIP3   OH228661   1.186   0.492   0.095
 9566TIP3    H128662   1.229   0.511   0.011
 9566TIP3    H228663   1.176   0.577   0.137
 9567TIP3   OH228664   0.905   3.147   0.363
 9567TIP3    H128665   0.979   3.197   0.398
 9567TIP3    H228666   0.869   3.101   0.438
 9568TIP3   OH228667   1.214   1.069   3.596
 9568TIP3    H128668   1.259   1.030   3.670
 9568TIP3    H228669   1.209   1.162   3.617
 9569TIP3   OH228670   5.821   1.023   2.188
 9569TIP3    H128671   5.780   0.940   2.165
 9569TIP3    H228672   5.886   1.038   2.120
 9570TIP3   OH228673   0.398   3.867   2.435
 9570TIP3    H128674   0.382   3.893   2.344
 9570TIP3    H228675   0.490   3.839   2.436
 9571TIP3   OH228676   6.950   0.606   2.459
 9571TIP3    H128677   6.882   0.588   2.523
 9571TIP3    H228678   6.904   0.639   2.382
 9572TIP3   OH228679   3.022   5.216   1.664
 9572TIP3    H128680   3.050   5.140   1.612
 9572TIP3    H228681   3.089   5.225   1.732
 9573TIP3   OH228682   0.231   5.069   0.723
 9573TIP3    H128683   0.289   5.021   0.664
 9573TIP3    H228684   0.165   5.005   0.749
 9574TIP3   OH228685   5.960   4.081   5.225
 9574TIP3    H128686   5.890   4.132   5.183
 9574TIP3    H228687   5.915   4.005   5.262
 9575TIP3   OH228688   6.390   5.267   3.865
 9575TIP3    H128689   6.298   5.242   3.872
 9575TIP3    H228690   6.438   5.191   3.898
 9576TIP3   OH228691   1.650   2.266   0.187
 9576TIP3    H128692   1.566   2.312   0.184
 9576TIP3    H228693   1.637   2.196   0.251
 9577TIP3   OH228694   1.133   5.661   2.625
 9577TIP3    H128695   1.179   5.634   2.704
 9577TIP3    H228696   1.060   5.599   2.617
 9578TIP3   OH228697   6.519   1.095   1.702
 9578TIP3    H128698   6.521   1.191   1.703
 9578TIP3    H228699   6.426   1.073   1.712
 9579TIP3   OH228700   3.775   5.284  -0.041
 9579TIP3    H128701   3.770   5.375  -0.069
 9579TIP3    H228702   3.697   5.271   0.013
 9580TIP3   OH228703   4.423   3.019   1.166
 9580TIP3    H128704   4.460   3.090   1.219
 9580TIP3    H228705   4.333   3.046   1.148
 9581TIP3   OH228706   0.255   1.184   2.791
 9581TIP3    H128707   0.259   1.089   2.804
 9581TIP3    H228708   0.283   1.197   2.701
 9582TIP3   OH228709   4.296   0.249   4.571
 9582TIP3    H128710   4.207   0.279   4.590
 9582TIP3    H228711   4.348   0.329   4.569
 9583TIP3   OH228712   2.122   5.546   5.146
 9583TIP3    H128713   2.214   5.520   5.147
 9583TIP3    H228714   2.076   5.474   5.190
 9584TIP3   OH228715   5.644   3.483   4.995
 9584TIP3    H128716   5.735   3.511   5.003
 9584TIP3    H228717   5.594   3.552   5.039
 9585TIP3   OH228718   1.784   5.288   2.943
 9585TIP3    H128719   1.839   5.224   2.898
 9585TIP3    H228720   1.843   5.331   3.005
 9586TIP3   OH228721   5.996   2.488   3.911
 9586TIP3    H128722   5.980   2.542   3.833
 9586TIP3    H228723   6.029   2.549   3.976
 9587TIP3   OH228724   1.621   5.600   5.246
 9587TIP3    H128725   1.567   5.570   5.174
 9587TIP3    H228726   1.584   5.684   5.271
 9588TIP3   OH228727   4.236   4.557   5.509
 9588TIP3    H128728   4.283   4.569   5.426
 9588TIP3    H228729   4.272   4.624   5.566
 9589TIP3   OH228730   1.050   3.037   2.600
 9589TIP3    H128731   1.023   3.125   2.575
 9589TIP3    H228732   0.977   2.981   2.571
 9590TIP3   OH228733   2.377   3.612   5.688
 9590TIP3    H128734   2.327   3.689   5.713
 9590TIP3    H228735   2.427   3.639   5.611
 9591TIP3   OH228736   2.227   4.937   1.348
 9591TIP3    H128737   2.287   4.906   1.281
 9591TIP3    H228738   2.279   4.999   1.400
 9592TIP3   OH228739   4.060   2.250   2.667
 9592TIP3    H128740   4.060   2.345   2.667
 9592TIP3    H228741   4.141   2.226   2.621
 9593TIP3   OH228742   5.427   0.116   2.627
 9593TIP3    H128743   5.497   0.075   2.577
 9593TIP3    H228744   5.417   0.203   2.586
 9594TIP3   OH228745   2.743   3.265   5.356
 9594TIP3    H128746   2.793   3.308   5.287
 9594TIP3    H228747   2.700   3.191   5.313
 9595TIP3   OH228748   4.633   5.165   2.390
 9595TIP3    H128749   4.620   5.087   2.337
 9595TIP3    H228750   4.545   5.197   2.407
 9596TIP3   OH228751   2.063   0.142   1.902
 9596TIP3    H128752   2.119   0.194   1.959
 9596TIP3    H228753   1.986   0.197   1.888
 9597TIP3   OH228754   6.642   1.114   3.520
 9597TIP3    H128755   6.735   1.094   3.529
 9597TIP3    H228756   6.636   1.159   3.436
 9598TIP3   OH228757   5.426   1.335   4.073
 9598TIP3    H128758   5.461   1.282   4.145
 9598TIP3    H228759   5.331   1.322   4.079
 9599TIP3   OH228760   1.362   6.084   0.340
 9599TIP3    H128761   1.359   6.171   0.301
 9599TIP3    H228762   1.428   6.089   0.408
 9600TIP3   OH228763   3.287   0.890   1.964
 9600TIP3    H128764   3.219   0.837   1.923
 9600TIP3    H228765   3.243   0.973   1.986
 9601TIP3   OH228766   4.165   3.427   0.892
 9601TIP3    H128767   4.221   3.429   0.969
 9601TIP3    H228768   4.202   3.492   0.833
 9602TIP3   OH228769   7.092   5.697   0.816
 9602TIP3    H128770   7.095   5.658   0.729
 9602TIP3    H228771   7.041   5.777   0.806
 9603TIP3   OH228772   1.232   6.136   4.915
 9603TIP3    H128773   1.146   6.165   4.886
 9603TIP3    H228774   1.292   6.167   4.846
 9604TIP3   OH228775   0.930   0.536   4.435
 9604TIP3    H128776   0.951   0.620   4.477
 9604TIP3    H228777   0.848   0.509   4.475
 9605TIP3   OH228778   4.729   0.052   2.520
 9605TIP3    H128779   4.737   0.139   2.558
 9605TIP3    H228780   4.636   0.030   2.530
 9606TIP3   OH228781   3.976   6.583   5.731
 9606TIP3    H128782   4.058   6.565   5.776
 9606TIP3    H228783   3.998   6.651   5.667
 9607TIP3   OH228784   6.296   1.544   1.792
 9607TIP3    H128785   6.311   1.637   1.808
 9607TIP3    H228786   6.334   1.528   1.705
 9608TIP3   OH228787   1.999   3.823   2.386
 9608TIP3    H128788   2.064   3.892   2.395
 9608TIP3    H228789   1.960   3.814   2.473
 9609TIP3   OH228790   3.654   4.510   0.733
 9609TIP3    H128791   3.741   4.476   0.712
 9609TIP3    H228792   3.594   4.455   0.683
 9610TIP3   OH228793   2.391   3.619  -0.051
 9610TIP3    H128794   2.447   3.686  -0.011
 9610TIP3    H228795   2.410   3.539  -0.002
 9611TIP3   OH228796   4.621   1.132   0.980
 9611TIP3    H128797   4.579   1.125   0.894
 9611TIP3    H228798   4.707   1.169   0.960
 9612TIP3   OH228799   5.833   1.407   3.062
 9612TIP3    H128800   5.819   1.494   3.026
 9612TIP3    H228801   5.766   1.353   3.020
 9613TIP3   OH228802   1.660   0.830   3.602
 9613TIP3    H128803   1.749   0.814   3.569
 9613TIP3    H228804   1.632   0.910   3.557
 9614TIP3   OH228805   3.539   4.964   1.416
 9614TIP3    H128806   3.504   5.052   1.431
 9614TIP3    H228807   3.498   4.936   1.334
 9615TIP3   OH228808   6.625   5.499   0.722
 9615TIP3    H128809   6.720   5.501   0.712
 9615TIP3    H228810   6.594   5.457   0.641
 9616TIP3   OH228811   4.635   2.483   2.907
 9616TIP3    H128812   4.630   2.388   2.902
 9616TIP3    H228813   4.624   2.503   3.000
 9617TIP3   OH228814   6.914   6.455   2.673
 9617TIP3    H128815   6.999   6.412   2.666
 9617TIP3    H228816   6.881   6.458   2.583
 9618TIP3   OH228817   4.975   5.099   5.406
 9618TIP3    H128818   5.053   5.137   5.448
 9618TIP3    H228819   4.991   5.005   5.406
 9619TIP3   OH228820   5.638   3.817   3.431
 9619TIP3    H128821   5.733   3.827   3.426
 9619TIP3    H228822   5.604   3.876   3.363
 9620TIP3   OH228823   2.006   2.130   5.413
 9620TIP3    H128824   1.945   2.204   5.415
 9620TIP3    H228825   1.993   2.086   5.496
 9621TIP3   OH228826   4.231   5.435   4.100
 9621TIP3    H128827   4.250   5.436   4.006
 9621TIP3    H228828   4.161   5.498   4.112
 9622TIP3   OH228829   6.218   1.580   4.292
 9622TIP3    H128830   6.196   1.660   4.339
 9622TIP3    H228831   6.236   1.516   4.361
 9623TIP3   OH228832   5.075   2.197   2.156
 9623TIP3    H128833   5.093   2.280   2.201
 9623TIP3    H228834   5.010   2.153   2.212
 9624TIP3   OH228835   3.162   0.703   1.817
 9624TIP3    H128836   3.153   0.616   1.857
 9624TIP3    H228837   3.241   0.696   1.763
 9625TIP3   OH228838   4.898   5.227   1.610
 9625TIP3    H128839   4.958   5.268   1.673
 9625TIP3    H228840   4.821   5.203   1.663
 9626TIP3   OH228841   4.966   3.550   2.786
 9626TIP3    H128842   5.009   3.490   2.847
 9626TIP3    H228843   5.018   3.630   2.791
 9627TIP3   OH228844   2.502   1.541   3.942
 9627TIP3    H128845   2.512   1.612   3.879
 9627TIP3    H228846   2.497   1.585   4.027
 9628TIP3   OH228847   3.774   1.351   1.053
 9628TIP3    H128848   3.849   1.318   1.103
 9628TIP3    H228849   3.750   1.278   0.995
 9629TIP3   OH228850   1.755   1.095   2.761
 9629TIP3    H128851   1.816   1.043   2.709
 9629TIP3    H228852   1.791   1.183   2.758
 9630TIP3   OH228853   1.914   4.297   2.596
 9630TIP3    H128854   1.909   4.392   2.589
 9630TIP3    H228855   1.972   4.281   2.671
 9631TIP3   OH228856   4.244   4.335   0.377
 9631TIP3    H128857   4.179   4.392   0.336
 9631TIP3    H228858   4.193   4.263   0.413
 9632TIP3   OH228859   4.828   3.261   0.865
 9632TIP3    H128860   4.809   3.330   0.929
 9632TIP3    H228861   4.745   3.214   0.855
 9633TIP3   OH228862   2.826   2.725   1.153
 9633TIP3    H128863   2.839   2.692   1.242
 9633TIP3    H228864   2.780   2.807   1.164
 9634TIP3   OH228865   5.813   5.361   1.427
 9634TIP3    H128866   5.831   5.305   1.351
 9634TIP3    H228867   5.813   5.450   1.391
 9635TIP3   OH228868   0.357   3.449   3.758
 9635TIP3    H128869   0.299   3.421   3.828
 9635TIP3    H228870   0.331   3.396   3.682
 9636TIP3   OH228871   6.993   3.248   5.750
 9636TIP3    H128872   6.906   3.232   5.786
 9636TIP3    H228873   7.027   3.323   5.799
 9637TIP3   OH228874   4.903   4.151   5.802
 9637TIP3    H128875   4.865   4.141   5.715
 9637TIP3    H228876   4.828   4.144   5.861
 9638TIP3   OH228877   6.647   5.751   2.181
 9638TIP3    H128878   6.632   5.752   2.086
 9638TIP3    H228879   6.604   5.671   2.211
 9639TIP3   OH228880   6.970   2.180   3.024
 9639TIP3    H128881   7.008   2.118   3.087
 9639TIP3    H228882   6.974   2.265   3.069
 9640TIP3   OH228883   1.371   4.889   0.397
 9640TIP3    H128884   1.305   4.820   0.393
 9640TIP3    H228885   1.453   4.843   0.418
 9641TIP3   OH228886   0.484   1.477   2.953
 9641TIP3    H128887   0.512   1.466   2.862
 9641TIP3    H228888   0.545   1.423   3.003
 9642TIP3   OH228889   5.966   2.961   4.497
 9642TIP3    H128890   5.964   3.053   4.523
 9642TIP3    H228891   6.055   2.932   4.517
 9643TIP3   OH228892   1.854   3.817   4.498
 9643TIP3    H128893   1.943   3.800   4.467
 9643TIP3    H228894   1.814   3.868   4.427
 9644TIP3   OH228895   1.781   0.633   1.397
 9644TIP3    H128896   1.767   0.562   1.334
 9644TIP3    H228897   1.756   0.712   1.350
 9645TIP3   OH228898   0.921   1.864   0.920
 9645TIP3    H128899   0.933   1.852   0.826
 9645TIP3    H228900   1.006   1.845   0.959
 9646TIP3   OH228901   6.275   0.319   2.176
 9646TIP3    H128902   6.355   0.329   2.123
 9646TIP3    H228903   6.208   0.292   2.114
 9647TIP3   OH228904   3.160   3.666   1.643
 9647TIP3    H128905   3.195   3.591   1.691
 9647TIP3    H228906   3.125   3.724   1.711
 9648TIP3   OH228907   6.956   4.406   2.284
 9648TIP3    H128908   6.968   4.313   2.305
 9648TIP3    H228909   6.973   4.452   2.366
 9649TIP3   OH228910   3.991   1.479   4.561
 9649TIP3    H128911   4.042   1.512   4.634
 9649TIP3    H228912   4.020   1.530   4.486
 9650TIP3   OH228913   0.271   4.057   1.978
 9650TIP3    H128914   0.295   4.067   1.886
 9650TIP3    H228915   0.212   4.131   1.995
 9651TIP3   OH228916   0.451   0.110   2.675
 9651TIP3    H128917   0.515   0.042   2.651
 9651TIP3    H228918   0.380   0.100   2.612
 9652TIP3   OH228919   4.876   3.177   0.148
 9652TIP3    H128920   4.881   3.089   0.186
 9652TIP3    H228921   4.950   3.181   0.087
 9653TIP3   OH228922   6.498   2.646   4.309
 9653TIP3    H128923   6.429   2.711   4.323
 9653TIP3    H228924   6.450   2.566   4.286
 9654TIP3   OH228925   3.319   1.842   1.034
 9654TIP3    H128926   3.389   1.907   1.042
 9654TIP3    H228927   3.363   1.758   1.040
 9655TIP3   OH228928   2.842   1.933   4.025
 9655TIP3    H128929   2.750   1.957   4.040
 9655TIP3    H228930   2.866   1.980   3.944
 9656TIP3   OH228931   1.033   1.762   2.253
 9656TIP3    H128932   0.988   1.685   2.289
 9656TIP3    H228933   0.963   1.824   2.236
 9657TIP3   OH228934   6.606   1.294   5.717
 9657TIP3    H128935   6.537   1.308   5.653
 9657TIP3    H228936   6.568   1.325   5.800
 9658TIP3   OH228937   0.503   0.591   2.565
 9658TIP3    H128938   0.461   0.517   2.521
 9658TIP3    H228939   0.547   0.639   2.495
 9659TIP3   OH228940   0.496   5.393   3.290
 9659TIP3    H128941   0.497   5.332   3.364
 9659TIP3    H228942   0.433   5.355   3.229
 9660TIP3   OH228943   0.347   5.941   5.247
 9660TIP3    H128944   0.288   5.866   5.234
 9660TIP3    H228945   0.434   5.901   5.258
 9661TIP3   OH228946   6.886   0.204   4.346
 9661TIP3    H128947   6.844   0.176   4.428
 9661TIP3    H228948   6.977   0.218   4.370
 9662TIP3   OH228949   6.625   3.373   3.935
 9662TIP3    H128950   6.547   3.337   3.893
 9662TIP3    H228951   6.698   3.329   3.891
 9663TIP3   OH228952   3.025   3.885   5.164
 9663TIP3    H128953   2.954   3.827   5.137
 9663TIP3    H228954   3.001   3.910   5.254
 9664TIP3   OH228955   0.581   4.239   5.513
 9664TIP3    H128956   0.638   4.166   5.491
 9664TIP3    H228957   0.499   4.220   5.467
 9665TIP3   OH228958   2.154   2.693   0.928
 9665TIP3    H128959   2.097   2.633   0.976
 9665TIP3    H228960   2.239   2.683   0.969
 9666TIP3   OH228961   6.680   6.701   3.213
 9666TIP3    H128962   6.746   6.694   3.282
 9666TIP3    H228963   6.731   6.715   3.133
 9667TIP3   OH228964   5.197   3.643   4.569
 9667TIP3    H128965   5.177   3.700   4.495
 9667TIP3    H228966   5.133   3.572   4.563
 9668TIP3   OH228967   0.420   5.150   0.944
 9668TIP3    H128968   0.405   5.152   1.038
 9668TIP3    H228969   0.332   5.143   0.906
 9669TIP3   OH228970   2.219   3.799   5.449
 9669TIP3    H128971   2.288   3.756   5.399
 9669TIP3    H228972   2.252   3.800   5.539
 9670TIP3   OH228973   3.207   1.295   5.462
 9670TIP3    H128974   3.302   1.290   5.472
 9670TIP3    H228975   3.182   1.373   5.512
 9671TIP3   OH228976   0.829   4.119   5.760
 9671TIP3    H128977   0.886   4.090   5.831
 9671TIP3    H228978   0.868   4.083   5.681
 9672TIP3   OH228979   3.414   2.806   5.547
 9672TIP3    H128980   3.450   2.894   5.552
 9672TIP3    H228981   3.464   2.763   5.477
 9673TIP3   OH228982   1.537   2.111   1.574
 9673TIP3    H128983   1.460   2.148   1.618
 9673TIP3    H228984   1.596   2.088   1.645
 9674TIP3   OH228985   5.696   5.150   3.539
 9674TIP3    H128986   5.737   5.073   3.499
 9674TIP3    H228987   5.647   5.115   3.613
 9675TIP3   OH228988   5.628   0.120   3.366
 9675TIP3    H128989   5.597   0.151   3.281
 9675TIP3    H228990   5.677   0.194   3.402
 9676TIP3   OH228991   0.164   1.066   5.346
 9676TIP3    H128992   0.153   1.026   5.260
 9676TIP3    H228993   0.174   0.991   5.406
 9677TIP3   OH228994   4.062   4.742   0.791
 9677TIP3    H128995   4.121   4.667   0.789
 9677TIP3    H228996   4.060   4.769   0.883
 9678TIP3   OH228997   5.875   5.211   1.218
 9678TIP3    H128998   5.880   5.126   1.174
 9678TIP3    H228999   5.883   5.276   1.148
 9679TIP3   OH229000   3.831   1.570   1.817
 9679TIP3    H129001   3.758   1.559   1.879
 9679TIP3    H229002   3.895   1.623   1.865
 9680TIP3   OH229003   0.188   2.323   2.547
 9680TIP3    H129004   0.133   2.247   2.532
 9680TIP3    H229005   0.200   2.362   2.460
 9681TIP3   OH229006   1.892   3.350   2.070
 9681TIP3    H129007   1.961   3.406   2.035
 9681TIP3    H229008   1.819   3.409   2.086
 9682TIP3   OH229009   5.571   4.920   4.943
 9682TIP3    H129010   5.572   4.917   4.847
 9682TIP3    H229011   5.563   5.013   4.964
 9683TIP3   OH229012   5.482   2.814   4.752
 9683TIP3    H129013   5.430   2.874   4.806
 9683TIP3    H229014   5.571   2.848   4.758
 9684TIP3   OH229015   6.858   2.341   4.229
 9684TIP3    H129016   6.797   2.410   4.204
 9684TIP3    H229017   6.910   2.379   4.299
 9685TIP3   OH229018   5.564   3.667   3.724
 9685TIP3    H129019   5.551   3.756   3.691
 9685TIP3    H229020   5.636   3.632   3.672
 9686TIP3   OH229021   1.677   0.385   3.724
 9686TIP3    H129022   1.747   0.321   3.735
 9686TIP3    H229023   1.697   0.454   3.787
 9687TIP3   OH229024   2.504   3.756   4.964
 9687TIP3    H129025   2.542   3.691   4.905
 9687TIP3    H229026   2.412   3.761   4.939
 9688TIP3   OH229027   2.271   6.134   4.254
 9688TIP3    H129028   2.312   6.108   4.337
 9688TIP3    H229029   2.194   6.185   4.280
 9689TIP3   OH229030   2.789   6.335   4.287
 9689TIP3    H129031   2.862   6.395   4.271
 9689TIP3    H229032   2.732   6.348   4.211
 9690TIP3   OH229033   6.808   2.205   3.666
 9690TIP3    H129034   6.818   2.185   3.573
 9690TIP3    H229035   6.898   2.217   3.697
 9691TIP3   OH229036   2.255   1.839   5.583
 9691TIP3    H129037   2.279   1.922   5.542
 9691TIP3    H229038   2.315   1.830   5.657
 9692TIP3   OH229039   1.038   5.954   5.232
 9692TIP3    H129040   0.980   6.001   5.172
 9692TIP3    H229041   1.068   6.021   5.294
 9693TIP3   OH229042   6.295   2.785   5.596
 9693TIP3    H129043   6.369   2.725   5.600
 9693TIP3    H229044   6.269   2.786   5.504
 9694TIP3   OH229045   1.361   3.020   4.876
 9694TIP3    H129046   1.331   3.102   4.915
 9694TIP3    H229047   1.348   3.030   4.782
 9695TIP3   OH229048   3.936   0.755   5.132
 9695TIP3    H129049   4.021   0.785   5.101
 9695TIP3    H229050   3.915   0.816   5.204
 9696TIP3   OH229051   5.171   4.545   4.746
 9696TIP3    H129052   5.097   4.556   4.685
 9696TIP3    H229053   5.203   4.634   4.761
 9697TIP3   OH229054   4.812   0.863   2.078
 9697TIP3    H129055   4.843   0.800   2.013
 9697TIP3    H229056   4.851   0.946   2.052
 9698TIP3   OH229057   4.826   3.447   0.179
 9698TIP3    H129058   4.816   3.354   0.161
 9698TIP3    H229059   4.890   3.451   0.250
 9699TIP3   OH229060   4.044   3.504   2.806
 9699TIP3    H129061   4.034   3.421   2.759
 9699TIP3    H229062   4.083   3.563   2.743
 9700TIP3   OH229063   7.186   3.057   3.429
 9700TIP3    H129064   7.237   3.081   3.506
 9700TIP3    H229065   7.131   2.985   3.458
 9701TIP3   OH229066   4.676   5.851   5.498
 9701TIP3    H129067   4.597   5.798   5.490
 9701TIP3    H229068   4.744   5.789   5.526
 9702TIP3   OH229069   2.986   6.753   4.029
 9702TIP3    H129070   2.961   6.841   4.002
 9702TIP3    H229071   3.011   6.708   3.948
 9703TIP3   OH229072  -0.064   0.772   4.683
 9703TIP3    H129073  -0.028   0.860   4.671
 9703TIP3    H229074  -0.005   0.731   4.746
 9704TIP3   OH229075   4.342   5.187   2.370
 9704TIP3    H129076   4.301   5.181   2.457
 9704TIP3    H229077   4.294   5.123   2.317
 9705TIP3   OH229078   6.896   4.446   1.842
 9705TIP3    H129079   6.862   4.533   1.866
 9705TIP3    H229080   6.832   4.411   1.780
 9706TIP3   OH229081   1.480   6.220   1.265
 9706TIP3    H129082   1.538   6.291   1.289
 9706TIP3    H229083   1.503   6.200   1.174
 9707TIP3   OH229084   0.537   5.533   1.920
 9707TIP3    H129085   0.560   5.604   1.860
 9707TIP3    H229086   0.453   5.501   1.889
 9708TIP3   OH229087   2.296   5.855   4.419
 9708TIP3    H129088   2.224   5.889   4.365
 9708TIP3    H229089   2.279   5.760   4.423
 9709TIP3   OH229090   1.947   6.471   5.107
 9709TIP3    H129091   1.883   6.466   5.036
 9709TIP3    H229092   1.937   6.387   5.153
 9710TIP3   OH229093   3.026   0.192   1.460
 9710TIP3    H129094   3.090   0.160   1.396
 9710TIP3    H229095   3.016   0.285   1.441
 9711TIP3   OH229096   4.540   5.032   5.212
 9711TIP3    H129097   4.524   5.063   5.123
 9711TIP3    H229098   4.599   4.958   5.202
 9712TIP3   OH229099   5.605   6.396   5.075
 9712TIP3    H129100   5.586   6.435   5.160
 9712TIP3    H229101   5.666   6.324   5.095
 9713TIP3   OH229102   1.414   0.786   2.186
 9713TIP3    H129103   1.453   0.710   2.229
 9713TIP3    H229104   1.388   0.843   2.258
 9714TIP3   OH229105   4.695   6.558   4.277
 9714TIP3    H129106   4.711   6.520   4.191
 9714TIP3    H229107   4.668   6.649   4.259
 9715TIP3   OH229108   4.864   1.628   5.883
 9715TIP3    H129109   4.898   1.666   5.803
 9715TIP3    H229110   4.798   1.565   5.854
 9716TIP3   OH229111   1.866   2.285   3.412
 9716TIP3    H129112   1.842   2.233   3.335
 9716TIP3    H229113   1.962   2.291   3.407
 9717TIP3   OH229114   7.057   0.603   3.245
 9717TIP3    H129115   6.970   0.579   3.212
 9717TIP3    H229116   7.079   0.683   3.199
 9718TIP3   OH229117   4.619   4.930   3.889
 9718TIP3    H129118   4.633   4.847   3.935
 9718TIP3    H229119   4.620   4.996   3.958
 9719TIP3   OH229120   2.932   3.406   0.511
 9719TIP3    H129121   2.895   3.452   0.586
 9719TIP3    H229122   2.883   3.439   0.436
 9720TIP3   OH229123   1.120   4.014   0.219
 9720TIP3    H129124   1.194   3.967   0.183
 9720TIP3    H229125   1.118   3.990   0.311
 9721TIP3   OH229126   3.888   5.188   2.708
 9721TIP3    H129127   3.856   5.277   2.690
 9721TIP3    H229128   3.914   5.190   2.800
 9722TIP3   OH229129   3.149   1.853   0.696
 9722TIP3    H129130   3.209   1.904   0.750
 9722TIP3    H229131   3.065   1.859   0.741
 9723TIP3   OH229132   1.237   1.020   4.531
 9723TIP3    H129133   1.192   0.949   4.485
 9723TIP3    H229134   1.318   1.033   4.482
 9724TIP3   OH229135   0.742   2.486   3.227
 9724TIP3    H129136   0.717   2.577   3.211
 9724TIP3    H229137   0.826   2.491   3.271
 9725TIP3   OH229138   6.316   1.063   3.333
 9725TIP3    H129139   6.398   1.110   3.317
 9725TIP3    H229140   6.271   1.114   3.400
 9726TIP3   OH229141   5.504   2.492   1.696
 9726TIP3    H129142   5.557   2.444   1.760
 9726TIP3    H229143   5.416   2.494   1.733
 9727TIP3   OH229144   2.061   2.975   1.362
 9727TIP3    H129145   1.992   2.912   1.379
 9727TIP3    H229146   2.100   2.948   1.279
 9728TIP3   OH229147   6.104   5.799   0.034
 9728TIP3    H129148   6.147   5.717   0.060
 9728TIP3    H229149   6.175   5.862   0.026
 9729TIP3   OH229150   4.759   5.250   5.325
 9729TIP3    H129151   4.679   5.198   5.318
 9729TIP3    H229152   4.830   5.185   5.321
 9730TIP3   OH229153   3.211   4.400   3.403
 9730TIP3    H129154   3.304   4.378   3.416
 9730TIP3    H229155   3.172   4.318   3.374
 9731TIP3   OH229156   0.399   1.063   1.983
 9731TIP3    H129157   0.475   1.012   1.955
 9731TIP3    H229158   0.435   1.145   2.016
 9732TIP3   OH229159   2.951   1.317   2.447
 9732TIP3    H129160   2.918   1.247   2.390
 9732TIP3    H229161   3.026   1.277   2.492
 9733TIP3   OH229162   5.417   0.661   3.855
 9733TIP3    H129163   5.402   0.727   3.788
 9733TIP3    H229164   5.333   0.654   3.902
 9734TIP3   OH229165   1.406   0.559   5.816
 9734TIP3    H129166   1.423   0.515   5.733
 9734TIP3    H229167   1.312   0.580   5.813
 9735TIP3   OH229168   6.051   5.468   1.560
 9735TIP3    H129169   6.039   5.559   1.587
 9735TIP3    H229170   5.991   5.419   1.616
 9736TIP3   OH229171   3.524   2.542   4.980
 9736TIP3    H129172   3.505   2.602   4.908
 9736TIP3    H229173   3.620   2.541   4.986
 9737TIP3   OH229174   4.936   3.850   1.980
 9737TIP3    H129175   5.031   3.838   1.975
 9737TIP3    H229176   4.900   3.768   1.945
 9738TIP3   OH229177   2.646   5.540   2.189
 9738TIP3    H129178   2.587   5.478   2.146
 9738TIP3    H229179   2.726   5.490   2.205
 9739TIP3   OH229180   0.737   2.696   0.275
 9739TIP3    H129181   0.670   2.755   0.308
 9739TIP3    H229182   0.786   2.749   0.212
 9740TIP3   OH229183   3.394   5.917   5.192
 9740TIP3    H129184   3.450   5.855   5.145
 9740TIP3    H229185   3.323   5.937   5.130
 9741TIP3   OH229186   6.173   1.941   3.459
 9741TIP3    H129187   6.264   1.929   3.432
 9741TIP3    H229188   6.126   1.958   3.377
 9742TIP3   OH229189   3.136   2.867   2.486
 9742TIP3    H129190   3.141   2.899   2.396
 9742TIP3    H229191   3.128   2.772   2.478
 9743TIP3   OH229192   3.592   1.785   0.995
 9743TIP3    H129193   3.565   1.876   1.005
 9743TIP3    H229194   3.548   1.755   0.916
 9744TIP3   OH229195   1.033   1.639   1.100
 9744TIP3    H129196   1.035   1.559   1.047
 9744TIP3    H229197   1.119   1.641   1.143
 9745TIP3   OH229198   6.989   2.700   1.479
 9745TIP3    H129199   6.904   2.658   1.490
 9745TIP3    H229200   7.053   2.631   1.497
 9746TIP3   OH229201   0.185   3.856   1.557
 9746TIP3    H129202   0.120   3.901   1.504
 9746TIP3    H229203   0.224   3.792   1.497
 9747TIP3   OH229204   6.536   2.144   2.498
 9747TIP3    H129205   6.445   2.169   2.489
 9747TIP3    H229206   6.548   2.072   2.437
 9748TIP3   OH229207   0.618   0.350   0.501
 9748TIP3    H129208   0.641   0.287   0.569
 9748TIP3    H229209   0.532   0.321   0.469
 9749TIP3   OH229210   6.693   4.553   4.544
 9749TIP3    H129211   6.779   4.590   4.564
 9749TIP3    H229212   6.700   4.524   4.453
   7.21376   6.80120   5.89000   0.00000   0.00000  -2.40459   0.00000  -2.40459  -3.40060
