Title
44418
    1GLY      N    1   2.151   3.940   4.877  0.5188  0.5635 -0.2663
    1GLY    HT1    2   2.051   3.940   4.907  0.7565  0.0832  0.5249
    1GLY    HT2    3   2.210   3.973   4.955  2.9314  0.0101 -1.8193
    1GLY    HT3    4   2.165   3.838   4.859 -0.8470  0.2638  0.2541
    1GLY     CA    5   2.173   4.013   4.744 -0.5919  0.3527  0.1674
    1GLY    HA1    6   2.163   4.118   4.768 -1.1500  0.6587 -1.3604
    1GLY    HA2    7   2.095   3.984   4.675 -1.0492  0.5731  0.5935
    1GLY      C    8   2.309   3.995   4.686 -0.5099  0.2169  0.1818
    1GLY      O    9   2.364   3.888   4.709  0.0488 -0.2850  0.7841
    2PRO      N   10   2.361   4.088   4.602 -0.2146 -0.2252 -0.0562
    2PRO     CD   11   2.284   4.197   4.540  0.6460 -0.5346  0.0247
    2PRO    HD1   12   2.271   4.279   4.615  6.5404  0.5631  0.1189
    2PRO    HD2   13   2.193   4.154   4.494 -0.5119  0.4681  1.3340
    2PRO     CA   14   2.490   4.062   4.540  0.1154  0.6376 -0.1313
    2PRO     HA   15   2.475   3.995   4.456 -1.6264  0.6658  0.1536
    2PRO     CB   16   2.520   4.202   4.476 -0.5108 -0.4945  0.0519
    2PRO    HB1   17   2.573   4.192   4.379 -2.0154  1.4500 -1.0080
    2PRO    HB2   18   2.579   4.268   4.544  0.5852 -0.6804 -0.7063
    2PRO     CG   19   2.379   4.253   4.433 -0.1292  0.1139  0.2512
    2PRO    HG1   20   2.377   4.364   4.426 -2.0796  0.3116  2.8366
    2PRO    HG2   21   2.352   4.239   4.326 -1.1395 -1.6683  0.7254
    2PRO      C   22   2.604   4.012   4.621  0.6074 -0.5391  0.3980
    2PRO      O   23   2.634   4.078   4.718  0.1049 -0.0355 -0.3559
    3GLY      N   24   2.673   3.902   4.578 -0.2907  0.2779  0.5526
    3GLY     HN   25   2.634   3.849   4.504  0.3161  1.7189 -0.8284
    3GLY     CA   26   2.797   3.846   4.631  0.3208  0.1280 -0.4947
    3GLY    HA1   27   2.829   3.767   4.565 -2.0068 -1.8512  0.6700
    3GLY    HA2   28   2.772   3.812   4.731 -0.1995 -2.2932 -1.4063
    3GLY      C   29   2.917   3.941   4.649 -0.5879 -0.5432  0.6251
    3GLY      O   30   2.923   4.054   4.600 -0.4702  0.2479  0.0764
    4ASP      N   31   3.022   3.884   4.710 -0.3654  0.2709  0.0681
    4ASP     HN   32   3.023   3.789   4.740  0.4471  0.5439  0.9454
    4ASP     CA   33   3.143   3.956   4.748 -0.3473  0.5322  0.3510
    4ASP     HA   34   3.105   4.034   4.812  2.5692  1.2744  1.2624
    4ASP     CB   35   3.240   3.868   4.832  0.0667  0.2961 -0.0136
    4ASP    HB1   36   3.335   3.920   4.857 -0.8641  1.9484  0.1886
    4ASP    HB2   37   3.247   3.771   4.778 -0.4106 -0.3895  1.1314
    4ASP     CG   38   3.173   3.831   4.968  0.4965  0.0950  0.7248
    4ASP    OD1   39   3.108   3.918   5.032  0.5514 -0.4292  0.5439
    4ASP    OD2   40   3.199   3.720   5.019 -0.0011 -0.6827  0.4068
    4ASP      C   41   3.219   4.023   4.627 -0.0307 -0.1465 -0.1670
    4ASP      O   42   3.229   3.966   4.517  0.4322  0.0973 -0.0521
    5PRO      N   43   3.269   4.149   4.646  0.1541  0.4060  0.7061
    5PRO     CD   44   3.233   4.242   4.755  0.0792  0.3276 -0.4822
    5PRO    HD1   45   3.254   4.216   4.861  2.8297  2.0534 -0.5473
    5PRO    HD2   46   3.138   4.296   4.736 -0.4050 -0.1968  0.4459
    5PRO     CA   47   3.352   4.208   4.540  0.1138  0.2852  0.1612
    5PRO     HA   48   3.302   4.207   4.444 -1.4485  0.1767  0.9692
    5PRO     CB   49   3.384   4.341   4.594  0.2561 -0.6028  0.2111
    5PRO    HB1   50   3.339   4.424   4.535 -1.0576 -1.8676 -0.6074
    5PRO    HB2   51   3.491   4.366   4.575 -0.7113  2.5991 -1.5481
    5PRO     CG   52   3.344   4.347   4.743  0.6812  0.6030 -0.5536
    5PRO    HG1   53   3.428   4.322   4.812  1.1251 -0.5523 -1.4931
    5PRO    HG2   54   3.301   4.447   4.762 -1.1303  0.0822 -1.7973
    5PRO      C   55   3.481   4.126   4.515 -0.2306  0.3525 -0.9499
    5PRO      O   56   3.541   4.085   4.614 -0.1366 -0.1000  0.3116
    6GLY      N   57   3.512   4.087   4.386 -0.1027  0.2454  0.3988
    6GLY     HN   58   3.456   4.112   4.308  2.2485  2.5637 -0.6111
    6GLY     CA   59   3.624   4.002   4.350 -0.8275 -0.7863  0.1856
    6GLY    HA1   60   3.620   3.977   4.245  1.0265 -1.0414  0.1654
    6GLY    HA2   61   3.620   3.909   4.404  0.3201 -1.5731 -1.0715
    6GLY      C   62   3.761   4.057   4.380 -0.7315  0.2130  0.2872
    6GLY      O   63   3.790   4.181   4.385 -0.6282 -0.0811 -0.1305
    7SER      N   64   3.857   3.969   4.399 -0.1446  0.1297  0.2833
    7SER     HN   65   3.843   3.870   4.395 -0.0993  0.1170  0.4332
    7SER     CA   66   3.994   4.010   4.440 -0.1236 -0.5395  0.0482
    7SER     HA   67   3.998   4.065   4.533  0.8880 -0.3068 -0.1263
    7SER     CB   68   4.080   3.887   4.469 -0.6040  0.1024  0.2326
    7SER    HB1   69   4.184   3.920   4.493 -0.2880 -0.1708 -0.7293
    7SER    HB2   70   4.092   3.824   4.379 -0.9792 -2.8430  2.1674
    7SER     OG   71   4.022   3.805   4.565 -0.1305 -0.2253  0.3435
    7SER    HG1   72   4.019   3.851   4.649  3.2294 -1.0777  1.0185
    7SER      C   73   4.063   4.090   4.328  0.0068  0.3338  0.2466
    7SER      O   74   4.037   4.064   4.210  0.1001  0.9324 -0.2777
    8ASP      N   75   4.143   4.183   4.366  0.3624  0.0881  0.0404
    8ASP     HN   76   4.154   4.199   4.464  2.8948 -1.0222 -0.0154
    8ASP     CA   77   4.210   4.269   4.275 -0.7997  0.7385 -0.6476
    8ASP     HA   78   4.133   4.299   4.205 -1.7015  0.1630  0.0743
    8ASP     CB   79   4.269   4.399   4.342 -0.1574  0.1750  0.3017
    8ASP    HB1   80   4.313   4.461   4.261  0.6431 -1.6571 -0.6748
    8ASP    HB2   81   4.330   4.358   4.426  0.5344  0.2597 -0.1569
    8ASP     CG   82   4.154   4.481   4.397  0.4457  0.1928 -0.9605
    8ASP    OD1   83   4.035   4.465   4.369  0.1029  0.7807  0.3101
    8ASP    OD2   84   4.191   4.577   4.472  0.0668  0.3219  0.5844
    8ASP      C   85   4.327   4.198   4.205 -0.3568 -0.7823 -0.2224
    8ASP      O   86   4.381   4.098   4.253 -0.0392 -0.7472 -0.2975
    9GLY      N   87   4.360   4.239   4.077  0.2372  0.0581  0.4656
    9GLY     HN   88   4.300   4.304   4.030  1.3467  0.1341 -0.8750
    9GLY     CA   89   4.475   4.202   3.992  0.2824  0.1714 -0.2618
    9GLY    HA1   90   4.471   4.276   3.915  0.5039  0.5634  0.1041
    9GLY    HA2   91   4.448   4.101   3.962 -2.2420  0.7302 -0.0100
    9GLY      C   92   4.611   4.192   4.052 -0.2942 -0.5038 -1.0395
    9GLY      O   93   4.647   4.267   4.148 -0.6428  0.3806 -0.1249
   10SER      N   94   4.688   4.091   4.007  0.1431  0.3480 -0.2438
   10SER     HN   95   4.652   4.031   3.936  1.3241 -0.5536 -0.0822
   10SER     CA   96   4.832   4.077   4.033  0.0839 -0.5119  0.5219
   10SER     HA   97   4.840   4.059   4.139  0.2450  0.6496  0.7150
   10SER     CB   98   4.913   3.965   3.975  0.1347 -0.1360  0.3133
   10SER    HB1   99   4.884   3.874   4.032  0.8778 -0.9368 -0.5523
   10SER    HB2  100   5.024   3.970   3.982  0.1506 -0.0743  0.0275
   10SER     OG  101   4.894   3.950   3.835  0.2704 -0.5068  0.1215
   10SER    HG1  102   4.803   3.945   3.807 -0.1803  3.7634  0.5642
   10SER      C  103   4.906   4.207   4.008  0.4496  0.0694 -0.9737
   10SER      O  104   4.870   4.297   3.929  0.6411  0.1196  0.3415
   11GLY      N  105   5.020   4.217   4.074  0.1703 -0.4536  0.6250
   11GLY     HN  106   5.051   4.156   4.147 -0.2554 -0.0805  1.1227
   11GLY     CA  107   5.098   4.338   4.073  0.0431  0.1212 -0.7175
   11GLY    HA1  108   5.177   4.330   4.146 -1.0533  0.1736  0.5141
   11GLY    HA2  109   5.030   4.419   4.095  1.2748  0.8449  0.4952
   11GLY      C  110   5.156   4.359   3.937 -0.9745  0.6973 -0.0981
   11GLY      O  111   5.179   4.266   3.863  0.1409  0.1082 -0.2531
   12PRO      N  112   5.195   4.481   3.894  0.1283 -0.5139 -0.4131
   12PRO     CD  113   5.146   4.605   3.960  0.4027 -0.9500 -0.5804
   12PRO    HD1  114   5.192   4.630   4.058 -1.3358  1.8903 -0.4546
   12PRO    HD2  115   5.037   4.591   3.979  0.1552 -1.7404 -2.5287
   12PRO     CA  116   5.276   4.512   3.774 -0.4125 -0.3880 -0.1175
   12PRO     HA  117   5.217   4.479   3.689 -1.9440  2.2534 -0.1368
   12PRO     CB  118   5.288   4.668   3.786 -0.5337  0.0298 -0.3355
   12PRO    HB1  119   5.282   4.715   3.686  2.5785  0.7008 -0.2512
   12PRO    HB2  120   5.384   4.699   3.833 -0.1434 -1.7499  0.0960
   12PRO     CG  121   5.174   4.724   3.866  0.3619  0.1261 -0.3907
   12PRO    HG1  122   5.204   4.814   3.924 -0.1823  1.2471 -1.8528
   12PRO    HG2  123   5.081   4.748   3.812 -1.6883 -3.4334  1.3835
   12PRO      C  124   5.416   4.439   3.777  1.4964 -0.8451  0.1186
   12PRO      O  125   5.480   4.425   3.880  0.1586 -0.8515 -1.1017
   13GLY      N  126   5.453   4.389   3.665 -0.0673  0.3351 -1.1023
   13GLY     HN  127   5.392   4.362   3.591  0.3806 -1.6854 -0.7574
   13GLY     CA  128   5.583   4.326   3.650 -0.3948  0.0471  0.1982
   13GLY    HA1  129   5.586   4.305   3.544 -1.1294  0.8913  0.0025
   13GLY    HA2  130   5.581   4.242   3.717 -0.0574 -0.1921 -0.0908
   13GLY      C  131   5.698   4.420   3.683 -0.4851  0.0423 -0.4071
   13GLY      O  132   5.686   4.543   3.678  0.0168 -0.1743 -0.1312
   14ASP      N  133   5.817   4.360   3.720  0.4070  0.2468  0.0297
   14ASP     HN  134   5.828   4.264   3.744 -1.5888  0.3490  1.5308
   14ASP     CA  135   5.915   4.449   3.773 -0.6449  0.0790 -0.3538
   14ASP     HA  136   5.868   4.515   3.844  0.4084  1.4047 -0.8643
   14ASP     CB  137   6.008   4.358   3.847 -0.3148  0.1533 -1.0881
   14ASP    HB1  138   6.104   4.405   3.876  0.2166 -1.2455 -0.5433
   14ASP    HB2  139   6.021   4.277   3.771  1.2868 -0.3122 -0.3309
   14ASP     CG  140   5.941   4.296   3.970  0.6371  0.1156  0.1566
   14ASP    OD1  141   5.872   4.361   4.051 -0.8030 -0.8245 -0.1443
   14ASP    OD2  142   5.973   4.176   3.985 -0.1271 -0.3934  0.2584
   14ASP      C  143   6.001   4.531   3.668 -0.5270  0.0448  0.2549
   14ASP      O  144   5.990   4.490   3.552 -0.0730 -0.3744 -0.6323
   15PRO      N  145   6.050   4.646   3.700  0.1995  0.0733 -0.5037
   15PRO     CD  146   6.029   4.716   3.824 -1.0028  0.5951 -0.4245
   15PRO    HD1  147   6.075   4.666   3.912 -1.3773  1.3283  0.1936
   15PRO    HD2  148   5.920   4.720   3.844 -1.0103  1.4674 -0.6203
   15PRO     CA  149   6.086   4.737   3.602 -0.6395 -0.2773 -0.3452
   15PRO     HA  150   6.015   4.720   3.522 -1.2010 -2.1207  0.5253
   15PRO     CB  151   6.064   4.886   3.658  0.1738  0.2021  0.3825
   15PRO    HB1  152   5.959   4.911   3.630 -0.1709 -2.4183 -0.8187
   15PRO    HB2  153   6.138   4.963   3.626 -0.3351 -0.2176 -1.9515
   15PRO     CG  154   6.072   4.862   3.807 -0.0034  0.5809 -0.6441
   15PRO    HG1  155   6.180   4.865   3.832 -0.2471  0.5486  0.4348
   15PRO    HG2  156   6.007   4.938   3.856 -3.1149 -1.9763 -0.6231
   15PRO      C  157   6.223   4.709   3.546 -0.5792 -0.6374 -0.6051
   15PRO    OT1  158   6.299   4.646   3.623  0.4426 -0.1113 -0.2045
   15PRO    OT2  159   6.249   4.733   3.425  0.6575 -0.6793  0.0732
   16LIT    LIT  160   0.763   0.015   0.254 -0.1673  0.1365 -0.1801
   17LIT    LIT  161   3.573   1.010   5.298 -0.6883  0.5304 -0.1891
   18LIT    LIT  162   4.833   3.411   4.525 -0.7515 -0.8988 -0.6578
   19LIT    LIT  163   5.112   7.821   5.548  0.2588 -0.1096 -0.3612
   20LIT    LIT  164   7.569   6.687   1.980  0.0661  0.1247 -0.5325
   21LIT    LIT  165   3.478   1.346   4.931 -0.3616 -0.4615 -0.5672
   22LIT    LIT  166   4.975   0.408   6.409  0.0009 -0.5360 -0.7194
   23LIT    LIT  167   7.738   3.996   5.694  0.2344  0.5889  0.5539
   24LIT    LIT  168   8.015   7.673   5.353  0.8596  0.2004  0.9700
   25LIT    LIT  169   4.239   6.468   2.439 -0.2973  0.2105  0.0596
   26LIT    LIT  170   2.902   1.642   6.083  0.2592  1.3035 -0.4104
   27LIT    LIT  171   6.132   1.465   2.025 -0.7088  0.5036  1.0934
   28LIT    LIT  172   2.386   6.810   3.700  0.0301 -0.7393  0.4604
   29LIT    LIT  173   0.244   2.119   5.648  0.0994  0.1316  0.5003
   30LIT    LIT  174   8.067   2.609   5.218 -0.6623 -0.2464  0.2884
   31LIT    LIT  175   3.348   2.668   2.782 -0.5576 -0.9292  0.8921
   32LIT    LIT  176   2.524   5.765   4.323 -0.1180 -0.3581  1.1394
   33LIT    LIT  177   0.520   5.718   2.113  0.4719 -0.5228 -0.6898
   34LIT    LIT  178   2.125   3.728   2.128  1.4156 -1.0391  0.6495
   35LIT    LIT  179   0.377   7.033   5.849 -1.2619 -1.2552 -0.8085
   36LIT    LIT  180   0.808   6.353   5.957 -0.4405 -1.0910 -0.7671
   37LIT    LIT  181   3.772   7.849   3.614 -0.1667 -0.6794 -0.0068
   38LIT    LIT  182   2.950   1.688   0.222 -0.4179  0.2677 -0.4705
   39LIT    LIT  183   7.806   5.969   0.197  1.0583 -0.1865 -0.3191
   40LIT    LIT  184   2.195   4.928   6.507 -0.8834 -0.5981  0.4018
   41LIT    LIT  185   6.759   6.288   2.966  0.9492  0.7108  0.0419
   42LIT    LIT  186   0.584   7.682   2.890 -0.4337  0.3863 -0.4976
   43LIT    LIT  187   2.264   0.427   4.211  0.6628 -1.4068 -0.5224
   44LIT    LIT  188   7.938   5.218   2.663  0.7239  1.4892  0.2442
   45LIT    LIT  189   4.480   1.642   1.176 -0.3257  0.0460  1.2110
   46LIT    LIT  190   0.326   5.766   4.927 -0.4397 -1.0360  0.6529
   47LIT    LIT  191   8.153   7.712   4.431  0.7639 -0.8281  0.7301
   48LIT    LIT  192   6.313   3.204   1.188 -0.0997 -0.0658  0.1089
   49LIT    LIT  193   8.441   6.100   5.884 -0.1303  0.1948  0.4013
   50LIT    LIT  194   1.960   1.042   1.965 -0.7841 -0.5355  0.0046
   51LIT    LIT  195   7.615   0.652   2.020  0.0267 -0.2939 -0.5712
   52LIT    LIT  196   5.199   4.293   2.589  0.1528 -0.0412  0.0210
   53LIT    LIT  197   8.410   7.504   6.677 -0.1198 -0.0221  0.1194
   54LIT    LIT  198   0.454   5.301   1.810  0.5980  0.3994  1.1495
   55LIT    LIT  199   7.508   1.680   0.000 -0.1965  0.1969  0.5653
   56LIT    LIT  200   0.420   1.666   0.177 -0.0215 -0.9073 -0.1234
   57LIT    LIT  201   3.504   3.190   6.802 -0.3657  1.1352  0.4416
   58LIT    LIT  202   5.479   6.325   4.725 -0.1309  0.1970 -0.5076
   59LIT    LIT  203   3.864   2.987   3.855  0.6458 -0.1506 -1.1548
   60LIT    LIT  204   7.835   2.514   0.931  0.3275 -0.2229 -1.1630
   61CLA    CLA  205   6.699   0.733   3.330 -0.1258 -0.1304 -0.2191
   62CLA    CLA  206   7.365   5.746   3.671  0.0650  0.0780 -0.2569
   63CLA    CLA  207   0.375   4.867   1.998 -0.3861  0.2610 -0.3792
   64CLA    CLA  208   4.925   1.345   2.860 -0.2685 -0.0094 -0.1395
   65CLA    CLA  209   8.418   5.925   3.122  0.2499 -0.2850 -0.4835
   66CLA    CLA  210   0.244   1.442   5.994 -0.2900  0.0409 -0.7675
   67CLA    CLA  211   5.779   0.996   4.126  0.0859  0.3568  0.0585
   68CLA    CLA  212   4.558   7.564   4.676 -0.0071 -0.3085 -0.0807
   69CLA    CLA  213   3.747   2.214   3.698  0.3368  0.0943 -0.7728
   70CLA    CLA  214   0.909   3.886   0.955 -0.3189 -0.0890 -0.3498
   71CLA    CLA  215   6.940   1.611   6.211 -0.1916 -0.5034 -0.0543
   72CLA    CLA  216   8.267   7.948   0.323 -0.4596  0.0280 -0.1696
   73CLA    CLA  217   5.791   2.056   0.052  0.4018 -0.2182 -0.0746
   74CLA    CLA  218   8.345   5.978   0.488  0.0562  0.5137  0.0929
   75CLA    CLA  219   1.682   2.336   1.580  0.2916 -0.4351  0.6962
   76CLA    CLA  220   5.082   3.897   1.187 -0.1964 -0.2546 -0.0973
   77CLA    CLA  221   3.978   1.201   4.742  0.1947  0.2715  0.1816
   78CLA    CLA  222   6.066   6.362   2.516  0.1655 -0.1720 -0.0343
   79CLA    CLA  223   3.064   3.387   3.633  0.0635  0.0642  0.0620
   80CLA    CLA  224   1.817   0.270   3.905  0.1751  0.0446 -0.2195
   81CLA    CLA  225   7.685   4.391   6.129 -0.0429 -0.2614 -0.0085
   82CLA    CLA  226   2.832   4.609   5.340  0.2674  0.0120 -0.0426
   83CLA    CLA  227   0.964   6.124   2.893 -0.1833  0.0168  0.5828
   84CLA    CLA  228   4.164   7.522   6.937 -0.2950  0.0862  0.3563
   85CLA    CLA  229   1.517   4.492   2.403  0.0574 -0.1702  0.3396
   86CLA    CLA  230   6.212   6.580   4.718 -0.3347 -0.3662  0.0089
   87CLA    CLA  231   0.457   5.464   5.620 -0.2656  0.1617  0.3348
   88CLA    CLA  232   2.995   0.529   5.114 -0.0967 -0.1645  0.2612
   89CLA    CLA  233   2.781   1.266   0.162 -0.2020 -0.1568 -0.1539
   90CLA    CLA  234   4.057   3.001   5.977 -0.0506  0.3717 -0.1922
   91CLA    CLA  235   0.670   7.898   5.293  0.5199  0.1089  0.0196
   92CLA    CLA  236   0.022   6.270   6.022 -0.1549  0.3117  0.3521
   93CLA    CLA  237   1.648   5.493   2.145  0.0006  0.3633 -0.6174
   94CLA    CLA  238   3.397   4.423   6.632 -0.2734 -0.0069  0.1115
   95CLA    CLA  239   4.303   2.278   6.568 -0.4995  0.1717  0.0898
   96CLA    CLA  240   8.316   5.099   0.757  0.1933 -0.4375 -0.1810
   97CLA    CLA  241   4.878   5.805   4.982  0.2586  0.7586 -0.6682
   98CLA    CLA  242   7.445   6.818   2.790  0.0544 -0.1188  0.1168
   99CLA    CLA  243   5.915   2.855   0.465 -0.0784  0.0422  0.2159
  100CLA    CLA  244   4.868   3.188   4.445 -0.0775 -0.0377  0.2706
  101CLA    CLA  245   0.052   6.548   5.363  0.1158  0.2126 -0.0794
  102CLA    CLA  246   7.341   6.259   2.798 -0.1668  0.0464 -0.2211
  103TIP3   OH2  247   3.093   2.384   4.801  0.5115 -0.6343  0.5158
  103TIP3    H1  248   3.011   2.430   4.783  0.1544 -0.2916  2.8245
  103TIP3    H2  249   3.070   2.291   4.797  0.6076 -0.6016 -1.3564
  104TIP3   OH2  250   2.708   2.423   2.461  0.3308  0.6823  0.0641
  104TIP3    H1  251   2.735   2.342   2.504 -1.3085 -0.1304 -0.3742
  104TIP3    H2  252   2.787   2.455   2.416  0.9358 -0.7862  0.0694
  105TIP3   OH2  253   4.794   0.849   1.704 -0.2979  0.2493  0.5193
  105TIP3    H1  254   4.784   0.891   1.619 -1.2635  0.8172  0.9156
  105TIP3    H2  255   4.766   0.758   1.689 -0.2451  0.2897  0.1781
  106TIP3   OH2  256   1.871   0.472   2.069  0.1213  0.6136 -0.1541
  106TIP3    H1  257   1.799   0.420   2.106 -0.9849  0.3568 -2.5438
  106TIP3    H2  258   1.833   0.559   2.055  1.2867  1.4456  1.6600
  107TIP3   OH2  259   1.643   2.040   2.708  0.4819 -0.0236  0.1707
  107TIP3    H1  260   1.619   1.953   2.675  1.0429 -0.3474  0.6051
  107TIP3    H2  261   1.728   2.058   2.668  0.5141  0.1861  0.3321
  108TIP3   OH2  262   2.018   1.412   2.899 -0.0653  0.0707 -0.6136
  108TIP3    H1  263   1.997   1.419   2.806 -0.2530  2.6015 -0.4142
  108TIP3    H2  264   1.972   1.334   2.929 -1.1987  0.0801 -2.3222
  109TIP3   OH2  265   0.558   7.691   3.090  0.0301 -0.0204 -0.2691
  109TIP3    H1  266   0.562   7.610   3.140 -2.0099 -0.0528 -0.1168
  109TIP3    H2  267   0.564   7.760   3.156  0.0812 -0.0647 -0.2279
  110TIP3   OH2  268   2.405   1.094   0.637 -0.3352 -0.3253  0.2486
  110TIP3    H1  269   2.424   1.144   0.717 -0.4097  0.3114 -0.1292
  110TIP3    H2  270   2.474   1.119   0.576 -0.4976 -0.5231 -0.0174
  111TIP3   OH2  271   2.674   1.240   1.933 -0.0626  0.1186  0.5264
  111TIP3    H1  272   2.630   1.208   1.855  0.2164  0.1187  0.3664
  111TIP3    H2  273   2.691   1.161   1.985 -0.7084  0.1790  0.8251
  112TIP3   OH2  274   6.071   0.935   1.287  0.1344 -0.6240 -0.2454
  112TIP3    H1  275   6.020   0.932   1.206 -1.6323  0.9884  0.7965
  112TIP3    H2  276   6.030   0.869   1.343  0.9581 -1.2832 -0.4006
  113TIP3   OH2  277   2.609   7.842   2.107 -0.3572  0.2671  0.1421
  113TIP3    H1  278   2.590   7.748   2.099 -0.4252  0.3532 -0.6935
  113TIP3    H2  279   2.523   7.883   2.118 -0.2858  0.1772  1.0506
  114TIP3   OH2  280   3.164   0.968   3.001 -0.2053 -0.3401  0.3208
  114TIP3    H1  281   3.257   0.969   2.981 -0.3247  0.0304 -0.2056
  114TIP3    H2  282   3.130   0.889   2.960 -0.4149  0.3229 -0.7960
  115TIP3   OH2  283   1.703   7.881   2.422 -0.2524 -0.6310  0.4128
  115TIP3    H1  284   1.742   7.882   2.335  1.2715 -1.5844  1.0676
  115TIP3    H2  285   1.703   7.789   2.448 -0.7183 -0.3556  1.4193
  116TIP3   OH2  286   2.579   6.899   1.333 -0.1075  0.7056  0.2225
  116TIP3    H1  287   2.513   6.960   1.365 -0.6841  0.2782 -0.1503
  116TIP3    H2  288   2.636   6.883   1.408 -1.8399 -0.8115  1.2495
  117TIP3   OH2  289   6.546   1.462   1.139  0.6712 -0.0526  0.0543
  117TIP3    H1  290   6.565   1.550   1.110  0.9955 -0.6425 -1.5440
  117TIP3    H2  291   6.586   1.456   1.226 -1.3372  2.1018  1.1978
  118TIP3   OH2  292   7.340   0.674   2.297 -0.6334  0.3383  0.3846
  118TIP3    H1  293   7.362   0.726   2.374 -2.3933  0.7415  0.6322
  118TIP3    H2  294   7.421   0.672   2.246  0.0936  1.4200  1.4623
  119TIP3   OH2  295   4.526   0.648   0.744 -0.1403 -0.2793  0.3189
  119TIP3    H1  296   4.618   0.661   0.768  0.3966  2.2231 -2.8158
  119TIP3    H2  297   4.484   0.620   0.826  2.9637  0.6911  2.3319
  120TIP3   OH2  298   4.569   1.182   1.692  0.7365 -0.1548 -0.3706
  120TIP3    H1  299   4.563   1.250   1.759 -1.0803 -0.0931 -0.5910
  120TIP3    H2  300   4.501   1.119   1.715 -0.0108 -0.0708 -2.2311
  121TIP3   OH2  301   7.288   1.358   1.825 -0.1118 -0.1328 -0.7134
  121TIP3    H1  302   7.377   1.377   1.853 -0.0214 -0.3142 -0.8777
  121TIP3    H2  303   7.249   1.444   1.809  0.8159 -0.1142 -3.0727
  122TIP3   OH2  304   2.914   0.627   0.621  0.3246 -0.4130 -0.5445
  122TIP3    H1  305   2.997   0.674   0.606  0.2834 -1.0169 -2.7888
  122TIP3    H2  306   2.939   0.535   0.625 -0.3216 -0.6570 -1.9475
  123TIP3   OH2  307   4.228   2.792   4.390  0.2224 -0.4122 -0.0063
  123TIP3    H1  308   4.319   2.808   4.366  0.2722  0.5806  0.8196
  123TIP3    H2  309   4.231   2.716   4.447  0.3239 -1.5315 -1.4759
  124TIP3   OH2  310   5.926   1.363   1.080 -0.0209  0.3865  0.4152
  124TIP3    H1  311   5.957   1.322   1.160  0.2146 -0.0035  0.1307
  124TIP3    H2  312   5.978   1.322   1.011 -0.3884  0.5419  0.0429
  125TIP3   OH2  313   6.560   1.453   3.528  0.3629 -0.0434 -0.0828
  125TIP3    H1  314   6.611   1.394   3.471 -0.1376  0.2882 -0.8732
  125TIP3    H2  315   6.570   1.539   3.488 -0.0891  0.1693  0.2667
  126TIP3   OH2  316   2.841   7.819   1.924 -0.3464 -0.0073 -0.3943
  126TIP3    H1  317   2.759   7.802   1.878  0.5853 -1.5812 -1.5287
  126TIP3    H2  318   2.836   7.764   2.003  0.1797 -1.1680 -1.1511
  127TIP3   OH2  319   4.169   0.382   2.943  0.4273  0.2251  0.0820
  127TIP3    H1  320   4.226   0.445   2.900  1.8420 -1.2768 -0.2973
  127TIP3    H2  321   4.210   0.367   3.028  2.3807 -3.1434 -1.3513
  128TIP3   OH2  322   4.033   0.199   0.258 -0.5834  0.4075 -0.0042
  128TIP3    H1  323   3.938   0.206   0.269 -0.6456  0.4451 -0.5527
  128TIP3    H2  324   4.045   0.190   0.163 -0.0158  0.7876  0.0364
  129TIP3   OH2  325   1.379   7.602   1.483  0.4720 -0.5887  0.0467
  129TIP3    H1  326   1.458   7.574   1.528  0.5574  1.1516  1.0304
  129TIP3    H2  327   1.410   7.657   1.411  0.2228 -1.3752 -0.6771
  130TIP3   OH2  328   1.659   0.804   2.425 -0.5631 -0.1136  0.0052
  130TIP3    H1  329   1.571   0.840   2.439  0.3104  1.4931  1.4808
  130TIP3    H2  330   1.695   0.858   2.354 -0.4646 -0.2658 -0.0609
  131TIP3   OH2  331   5.161   0.846   2.609  0.2821  0.0961 -0.2599
  131TIP3    H1  332   5.194   0.766   2.568  0.4584 -0.1815  0.4151
  131TIP3    H2  333   5.240   0.896   2.630  0.2254 -0.1051  0.4303
  132TIP3   OH2  334   5.562   0.763   2.515  0.0446  0.2570 -0.3197
  132TIP3    H1  335   5.563   0.851   2.479  0.0787  1.4471  2.4629
  132TIP3    H2  336   5.472   0.733   2.504 -0.0178  0.7024 -1.0845
  133TIP3   OH2  337   1.654   6.868   2.812 -0.0354  0.2088 -0.0986
  133TIP3    H1  338   1.601   6.823   2.879 -0.2943  0.6709  0.0071
  133TIP3    H2  339   1.611   6.952   2.800 -0.9488 -0.4946 -2.0075
  134TIP3   OH2  340   5.098   2.259   4.263 -0.1840 -0.2507  0.8056
  134TIP3    H1  341   5.055   2.224   4.185  0.1611  1.6587 -0.2916
  134TIP3    H2  342   5.095   2.188   4.327 -2.3844 -1.1143 -0.2297
  135TIP3   OH2  343   4.151   0.247   2.232 -0.0904  0.4890  0.2667
  135TIP3    H1  344   4.200   0.328   2.245  0.8173 -0.0290  0.1264
  135TIP3    H2  345   4.182   0.189   2.303 -1.4880  0.6181  0.9904
  136TIP3   OH2  346   1.175   7.243   1.409 -0.4498 -0.0701 -0.1371
  136TIP3    H1  347   1.226   7.162   1.397  0.7041  0.7766 -1.1253
  136TIP3    H2  348   1.184   7.264   1.501  1.1765  0.1729 -0.3418
  137TIP3   OH2  349   5.324   0.672   2.398 -0.1892  0.3535 -0.0641
  137TIP3    H1  350   5.374   0.609   2.347  0.0303  1.0119 -0.6618
  137TIP3    H2  351   5.241   0.627   2.418  0.4582 -0.5750  0.5662
  138TIP3   OH2  352   6.411   0.030   2.456  0.1194  0.1086  0.5228
  138TIP3    H1  353   6.426   0.090   2.529  1.7211 -0.7217  0.9098
  138TIP3    H2  354   6.432  -0.057   2.492 -1.3040 -0.5865 -0.2786
  139TIP3   OH2  355   3.815   7.566   2.983  0.2186  0.4466 -0.2463
  139TIP3    H1  356   3.861   7.492   2.942  0.3667  0.8793 -0.8697
  139TIP3    H2  357   3.885   7.627   3.006  0.4655 -1.0082  3.2866
  140TIP3   OH2  358   6.479   1.548   2.673 -0.1609  0.1278 -0.1603
  140TIP3    H1  359   6.436   1.526   2.755 -2.1664  1.0992 -0.9182
  140TIP3    H2  360   6.529   1.628   2.692 -0.5354  0.2888  0.1461
  141TIP3   OH2  361   4.361   6.452   2.581 -0.2089  0.1763 -0.7440
  141TIP3    H1  362   4.333   6.409   2.662 -2.4019  2.2447 -0.3471
  141TIP3    H2  363   4.456   6.448   2.584 -0.2683 -0.3837  1.6146
  142TIP3   OH2  364   6.418   0.707   2.520 -0.6086  0.6333 -0.1489
  142TIP3    H1  365   6.463   0.642   2.466  0.5224  0.2063  1.2602
  142TIP3    H2  366   6.413   0.785   2.464 -0.1895 -0.0487 -1.1537
  143TIP3   OH2  367   0.337   7.952   2.509  0.1226 -0.1159 -0.7456
  143TIP3    H1  368   0.291   7.961   2.593 -0.2533 -0.6734 -0.8884
  143TIP3    H2  369   0.417   8.004   2.520 -0.1935  0.2709 -0.2403
  144TIP3   OH2  370   5.982   0.883   2.723 -0.4512  0.0028  0.2389
  144TIP3    H1  371   5.948   0.906   2.637 -1.2631 -1.3969  0.1716
  144TIP3    H2  372   5.947   0.949   2.783  1.0453  1.6591 -0.6647
  145TIP3   OH2  373   6.486   2.195   1.859  0.7364 -0.5651  0.1226
  145TIP3    H1  374   6.540   2.138   1.805  0.5382 -1.1055  0.4911
  145TIP3    H2  375   6.543   2.222   1.931 -0.0314 -2.7052  1.5907
  146TIP3   OH2  376   0.417   7.449   0.623 -0.3342  0.2682 -0.2548
  146TIP3    H1  377   0.328   7.444   0.588  0.1907  1.5160 -1.8205
  146TIP3    H2  378   0.474   7.437   0.546  0.8458  1.3896  0.4135
  147TIP3   OH2  379   4.865   1.278   2.030 -0.3254 -0.1414 -0.4947
  147TIP3    H1  380   4.908   1.360   2.055 -1.5964  0.4922 -0.2973
  147TIP3    H2  381   4.892   1.215   2.096  0.5078  0.1712 -0.5282
  148TIP3   OH2  382   5.740   1.578   0.986 -0.4284 -0.2022 -0.5337
  148TIP3    H1  383   5.814   1.571   1.046  1.1537 -1.1022 -2.5144
  148TIP3    H2  384   5.705   1.489   0.980  0.2602 -0.3864 -1.9579
  149TIP3   OH2  385   2.781   3.201   2.091 -0.1215 -0.0192 -0.3550
  149TIP3    H1  386   2.789   3.223   2.184 -0.8873  2.1104 -0.7785
  149TIP3    H2  387   2.709   3.137   2.088  0.5097 -0.7876  0.6067
  150TIP3   OH2  388   7.225   4.928   1.693  0.0765 -0.2777 -0.0103
  150TIP3    H1  389   7.258   4.979   1.768 -1.0150 -1.3021  1.1968
  150TIP3    H2  390   7.153   4.981   1.659  1.6197  0.9833 -1.3861
  151TIP3   OH2  391   4.210   0.395   3.518  0.2250 -0.6314  0.1942
  151TIP3    H1  392   4.299   0.407   3.484 -0.0266  1.1813  0.1056
  151TIP3    H2  393   4.223   0.364   3.608  0.9431 -0.9094 -0.0037
  152TIP3   OH2  394   4.491   0.778   3.053  0.1456 -0.4370 -0.3307
  152TIP3    H1  395   4.504   0.683   3.055 -1.9837 -0.7359  1.4799
  152TIP3    H2  396   4.458   0.799   3.140  1.0342  2.0548 -0.5667
  153TIP3   OH2  397   3.064   0.728   1.836  0.6172 -0.3080 -0.1948
  153TIP3    H1  398   2.985   0.781   1.824  0.1862 -0.6506  1.0752
  153TIP3    H2  399   3.054   0.656   1.773 -0.9601 -1.3347  1.1753
  154TIP3   OH2  400   1.719   0.553   4.677 -0.1424  0.1175  0.2886
  154TIP3    H1  401   1.678   0.549   4.591  1.2631 -0.9033 -0.3603
  154TIP3    H2  402   1.670   0.620   4.725 -1.2775  0.3014 -1.1176
  155TIP3   OH2  403   0.248   7.238   1.533 -0.6377  0.1732  0.1116
  155TIP3    H1  404   0.255   7.147   1.563  0.4815 -0.0985 -0.9409
  155TIP3    H2  405   0.155   7.257   1.537 -0.7856 -0.7226  1.2191
  156TIP3   OH2  406   4.498   1.058   1.115 -0.4426  0.1312  0.4493
  156TIP3    H1  407   4.412   1.035   1.081 -0.0858 -0.3883 -0.1261
  156TIP3    H2  408   4.549   1.081   1.037 -0.3763  1.4951  0.8861
  157TIP3   OH2  409   7.596   7.807   1.683  0.4496  0.4853  0.4388
  157TIP3    H1  410   7.640   7.801   1.598  0.0587 -2.9260  0.4042
  157TIP3    H2  411   7.515   7.855   1.664  1.1963  1.2986 -0.7570
  158TIP3   OH2  412   1.859   7.901   2.177  0.1578  0.0473  0.1831
  158TIP3    H1  413   1.816   7.896   2.092 -1.4387 -0.2696  0.9985
  158TIP3    H2  414   1.933   7.842   2.171  0.0386  0.0180 -0.9808
  159TIP3   OH2  415   3.705   1.489   1.037  0.1246  0.2445  0.1807
  159TIP3    H1  416   3.761   1.565   1.024 -0.9543  0.9594 -0.3540
  159TIP3    H2  417   3.645   1.515   1.108 -0.5178  0.0577 -0.2869
  160TIP3   OH2  418   4.933   3.551   2.819 -0.9835 -0.0971  0.0978
  160TIP3    H1  419   4.959   3.459   2.810  2.3458  0.7513  0.4797
  160TIP3    H2  420   4.937   3.567   2.913 -1.1566  0.5604 -0.0084
  161TIP3   OH2  421   0.602   7.484   2.920 -0.3742 -0.2494 -0.3954
  161TIP3    H1  422   0.635   7.427   2.989 -0.0331 -0.3326 -0.6255
  161TIP3    H2  423   0.578   7.424   2.849 -0.1648 -0.1204 -0.5757
  162TIP3   OH2  424   2.775   4.790   3.300  0.1391  0.2421 -0.5231
  162TIP3    H1  425   2.706   4.751   3.247 -0.1060  0.3252 -0.2629
  162TIP3    H2  426   2.846   4.725   3.298 -0.1595 -0.0908 -0.3317
  163TIP3   OH2  427   5.270   2.739   1.389 -0.1864  0.1890  0.3504
  163TIP3    H1  428   5.361   2.707   1.387  0.0018  0.4730  2.5362
  163TIP3    H2  429   5.220   2.665   1.425 -0.7235  0.2490 -0.2737
  164TIP3   OH2  430   3.924   2.329   3.206 -0.2354 -0.1247 -0.1382
  164TIP3    H1  431   3.885   2.392   3.266 -1.5883 -2.9421  2.1054
  164TIP3    H2  432   3.849   2.284   3.166  0.6649 -1.4053 -0.4440
  165TIP3   OH2  433   1.537   7.439   3.106 -0.0741 -0.0293 -0.3983
  165TIP3    H1  434   1.513   7.346   3.096 -0.8928  0.2751 -1.3295
  165TIP3    H2  435   1.558   7.448   3.199 -0.6303 -1.0082 -0.1671
  166TIP3   OH2  436   4.627   1.000   3.564  0.6008 -0.2602  0.1615
  166TIP3    H1  437   4.640   0.958   3.649 -0.5179 -1.0657 -0.0576
  166TIP3    H2  438   4.714   1.030   3.539  0.7658  1.0637  2.1420
  167TIP3   OH2  439   7.636   4.514   6.814  0.0211 -0.6586  0.5264
  167TIP3    H1  440   7.562   4.566   6.844 -0.7840 -2.0102  0.9166
  167TIP3    H2  441   7.686   4.573   6.758 -2.6808 -0.4659 -1.7698
  168TIP3   OH2  442   4.651   0.283   2.423  0.1686 -0.2480 -0.2316
  168TIP3    H1  443   4.663   0.374   2.449  2.8663 -0.5194 -0.3212
  168TIP3    H2  444   4.672   0.282   2.330  0.5214 -1.0128 -0.1454
  169TIP3   OH2  445   4.284   6.865   2.096  0.0976 -0.4335  0.3946
  169TIP3    H1  446   4.351   6.826   2.039 -0.3734 -0.5736 -0.0724
  169TIP3    H2  447   4.252   6.940   2.046 -0.4562 -0.6723  0.3876
  170TIP3   OH2  448   4.382   0.529   3.227  0.1215 -0.1698  0.5263
  170TIP3    H1  449   4.352   0.616   3.250 -0.3141 -0.8005  2.3995
  170TIP3    H2  450   4.432   0.499   3.303  1.0080 -1.2100 -0.4387
  171TIP3   OH2  451   0.584   7.757   3.428 -0.0592 -0.0532  0.7544
  171TIP3    H1  452   0.605   7.675   3.472  2.7677  0.1864 -0.0379
  171TIP3    H2  453   0.575   7.821   3.499 -0.6486 -0.7117  1.2750
  172TIP3   OH2  454   0.844   6.526   3.205  0.5706  0.3816 -0.6082
  172TIP3    H1  455   0.895   6.604   3.182 -0.9471  1.5975  0.0911
  172TIP3    H2  456   0.771   6.559   3.256  0.9729 -1.7281  1.4092
  173TIP3   OH2  457   4.326   0.957   2.698  0.0364  0.8605  0.0606
  173TIP3    H1  458   4.417   0.938   2.721  0.2236 -0.3111 -1.5500
  173TIP3    H2  459   4.332   1.018   2.625 -0.4437  0.0460 -0.6741
  174TIP3   OH2  460   3.807   7.208   3.024 -0.4528  0.0318 -0.5157
  174TIP3    H1  461   3.831   7.151   3.097  0.7035  1.4572  0.2264
  174TIP3    H2  462   3.711   7.212   3.028 -0.5066 -1.3293 -0.1864
  175TIP3   OH2  463   2.363   7.119   1.344  0.4495  0.1026 -0.8768
  175TIP3    H1  464   2.318   7.160   1.417  1.6714 -2.2484  1.2891
  175TIP3    H2  465   2.302   7.053   1.311  1.1220 -1.0703  0.1681
  176TIP3   OH2  466   3.598   7.396   2.129 -0.0496  0.2708  0.0355
  176TIP3    H1  467   3.565   7.432   2.212  0.2009  1.7942 -0.5133
  176TIP3    H2  468   3.520   7.360   2.086  0.0373 -1.8212  1.5463
  177TIP3   OH2  469   4.262   0.977   0.984 -0.1586 -0.3225 -0.5093
  177TIP3    H1  470   4.234   0.890   1.011  0.7341 -0.8543 -1.2801
  177TIP3    H2  471   4.184   1.016   0.944 -0.0814 -1.4513 -1.8137
  178TIP3   OH2  472   6.998   3.165   6.245  0.3072 -0.4770 -0.3648
  178TIP3    H1  473   6.928   3.170   6.310  0.2797  0.8986 -0.4693
  178TIP3    H2  474   6.978   3.088   6.193  0.0046 -1.2523  0.8848
  179TIP3   OH2  475   4.397   1.269   2.159  0.2780  0.1649 -0.0227
  179TIP3    H1  476   4.393   1.308   2.246  1.9830  0.2848  0.0101
  179TIP3    H2  477   4.398   1.175   2.175  1.0093  0.1917  0.1190
  180TIP3   OH2  478   1.789   7.362   2.123 -0.3457 -0.3010  0.2003
  180TIP3    H1  479   1.696   7.344   2.109 -0.6902  2.6926 -1.8802
  180TIP3    H2  480   1.834   7.311   2.055 -0.7214  0.6239 -0.7583
  181TIP3   OH2  481   3.474   1.038   3.315  0.2076  0.2585  0.5071
  181TIP3    H1  482   3.438   1.120   3.348  1.4427  1.8455 -2.0046
  181TIP3    H2  483   3.560   1.031   3.356 -0.1486 -0.1344  1.2092
  182TIP3   OH2  484   2.153   0.119   0.364  0.2823 -0.1241 -0.1672
  182TIP3    H1  485   2.212   0.054   0.401  0.2540 -0.1725 -0.2071
  182TIP3    H2  486   2.208   0.196   0.351 -0.1320  0.4952  1.6837
  183TIP3   OH2  487   4.416   2.054   3.735  0.4623  0.3763 -0.5049
  183TIP3    H1  488   4.382   2.107   3.663 -1.0627  0.1907  0.0694
  183TIP3    H2  489   4.511   2.060   3.726  0.3042  0.1241 -2.7065
  184TIP3   OH2  490   7.255   4.702   0.447 -0.0122  0.0635 -0.4268
  184TIP3    H1  491   7.284   4.756   0.520  0.5463  0.5443 -0.9973
  184TIP3    H2  492   7.308   4.622   0.453 -1.2754 -0.6970  0.7837
  185TIP3   OH2  493   6.070   0.344   3.033 -0.0827 -0.4139  0.3584
  185TIP3    H1  494   5.976   0.362   3.030  0.2392  1.8028  1.9406
  185TIP3    H2  495   6.078   0.262   3.081 -1.2250 -0.9291 -0.3182
  186TIP3   OH2  496   2.992   6.491   3.602 -0.7539 -0.1105  0.1531
  186TIP3    H1  497   2.992   6.396   3.612 -1.8676 -0.0921  0.3703
  186TIP3    H2  498   3.078   6.519   3.633 -0.0765 -1.1352 -0.7575
  187TIP3   OH2  499   2.958   6.308   1.187  0.2717  0.9236 -0.1983
  187TIP3    H1  500   2.957   6.402   1.206  0.3592  1.5576 -3.0494
  187TIP3    H2  501   2.866   6.284   1.179  0.2443  0.7250  0.6964
  188TIP3   OH2  502   5.201   2.701   0.820  0.6367 -0.7271  0.0238
  188TIP3    H1  503   5.163   2.789   0.813 -0.2975 -1.0112  1.3941
  188TIP3    H2  504   5.240   2.699   0.908 -0.3007 -2.0515  0.4201
  189TIP3   OH2  505   2.640   7.829   2.472  0.9692 -0.3175  0.0178
  189TIP3    H1  506   2.694   7.880   2.412  1.4399 -0.0387  0.6599
  189TIP3    H2  507   2.683   7.841   2.557  0.6104 -1.1239  0.3114
  190TIP3   OH2  508   3.260   7.665   2.678 -0.2570 -0.5094 -0.0491
  190TIP3    H1  509   3.297   7.580   2.656  0.2943 -0.5180  0.8946
  190TIP3    H2  510   3.290   7.723   2.608  0.5215 -0.7904  0.0506
  191TIP3   OH2  511   5.887   0.950   0.798  0.3329  0.4723  0.2838
  191TIP3    H1  512   5.918   1.016   0.737  0.2015 -0.2697 -0.5983
  191TIP3    H2  513   5.904   0.866   0.755  0.9070 -0.1024  1.5764
  192TIP3   OH2  514   2.587   7.470   2.342 -0.0230 -0.3808 -0.4263
  192TIP3    H1  515   2.547   7.383   2.351  0.1754 -0.4302  0.0308
  192TIP3    H2  516   2.541   7.524   2.406 -0.6861  0.0519 -1.2620
  193TIP3   OH2  517   6.202   0.081   2.818  0.0622  0.7383  0.3263
  193TIP3    H1  518   6.297   0.078   2.829 -0.0548  0.6215  1.3422
  193TIP3    H2  519   6.189   0.092   2.724  1.0810  0.7112  0.1791
  194TIP3   OH2  520   3.735   6.010   1.991 -0.6310 -0.1732  0.5577
  194TIP3    H1  521   3.643   6.035   1.999 -0.8789 -0.5285 -1.0985
  194TIP3    H2  522   3.763   6.044   1.906  0.8818  0.2748  1.2138
  195TIP3   OH2  523   1.494   7.764   2.762 -0.5604  0.1946 -0.4415
  195TIP3    H1  524   1.518   7.706   2.690 -0.4224  0.1742 -0.3779
  195TIP3    H2  525   1.568   7.761   2.822 -0.6071  0.3360 -0.3746
  196TIP3   OH2  526   5.520   6.332   3.745 -0.2133 -0.1099 -0.0646
  196TIP3    H1  527   5.520   6.313   3.651 -0.5310  0.6996 -0.2322
  196TIP3    H2  528   5.465   6.409   3.754 -0.7229 -0.5734  0.8739
  197TIP3   OH2  529   6.786   1.248   1.583  0.0096 -0.3257  0.2751
  197TIP3    H1  530   6.834   1.282   1.507 -1.4752  0.1621 -0.4707
  197TIP3    H2  531   6.854   1.220   1.643  1.2376 -1.9989 -1.8135
  198TIP3   OH2  532   4.421   3.013   4.118 -0.4787  0.2991  0.2091
  198TIP3    H1  533   4.489   2.994   4.182 -2.1240  1.3053  2.3193
  198TIP3    H2  534   4.468   3.022   4.034  1.6374 -1.5003  1.1723
  199TIP3   OH2  535   4.547   7.679   2.879 -0.2580  0.2847  0.0192
  199TIP3    H1  536   4.496   7.602   2.852  0.1585  0.0153 -0.0088
  199TIP3    H2  537   4.581   7.715   2.797 -0.0517  0.2155  0.0741
  200TIP3   OH2  538   3.482   7.518   2.339  0.3217 -0.3561  0.3168
  200TIP3    H1  539   3.493   7.433   2.381 -0.7457 -1.2173 -1.0714
  200TIP3    H2  540   3.442   7.574   2.406 -0.8583 -1.5394  0.6332
  201TIP3   OH2  541   5.273   1.336   2.082  0.1591 -0.4705  0.4474
  201TIP3    H1  542   5.258   1.256   2.032 -1.1982  0.8968 -1.4211
  201TIP3    H2  543   5.343   1.381   2.034  1.3037 -0.7698  1.8019
  202TIP3   OH2  544   5.321   0.229   1.313 -0.6996  0.2763 -0.8991
  202TIP3    H1  545   5.308   0.202   1.404 -0.7670  0.6156 -0.8071
  202TIP3    H2  546   5.280   0.160   1.261  0.9171 -0.8321 -0.7223
  203TIP3   OH2  547   4.064   7.597   1.407  0.0872  0.1238  0.0769
  203TIP3    H1  548   4.145   7.632   1.371  1.0674  0.3721  2.3879
  203TIP3    H2  549   4.010   7.674   1.423 -0.4574 -0.0095 -1.1238
  204TIP3   OH2  550   6.765   0.600   4.081 -0.3249  0.0217 -0.3045
  204TIP3    H1  551   6.734   0.509   4.081 -0.9377  0.2312 -0.9109
  204TIP3    H2  552   6.686   0.653   4.093 -0.1663  0.5399 -1.4632
  205TIP3   OH2  553   5.425   1.626   2.683 -0.0883 -0.1214 -0.0833
  205TIP3    H1  554   5.456   1.685   2.615  2.7119 -0.5560  0.7663
  205TIP3    H2  555   5.340   1.662   2.709  0.1209  1.6833 -1.7819
  206TIP3   OH2  556   5.703   1.281   2.636  0.0798 -0.4598 -0.3353
  206TIP3    H1  557   5.770   1.336   2.596 -0.0440 -0.4851 -0.5755
  206TIP3    H2  558   5.660   1.338   2.700 -0.3101 -0.1580 -0.8613
  207TIP3   OH2  559   6.816   1.376   2.072 -0.0418  0.1044 -0.1994
  207TIP3    H1  560   6.751   1.308   2.052  0.7133 -1.2294  1.7114
  207TIP3    H2  561   6.897   1.328   2.089  0.7047  1.5412  0.4113
  208TIP3   OH2  562   2.670   6.490   1.410 -0.0814  0.1665 -0.0002
  208TIP3    H1  563   2.649   6.401   1.438 -0.1805  0.1395 -0.1584
  208TIP3    H2  564   2.669   6.542   1.491  1.7005 -0.3045  0.3438
  209TIP3   OH2  565   4.408   2.165   2.198 -0.4037 -0.6172  0.4828
  209TIP3    H1  566   4.465   2.217   2.142 -0.4451 -0.2695  0.7594
  209TIP3    H2  567   4.340   2.133   2.139  0.0545 -1.0045  0.1604
  210TIP3   OH2  568   7.400   2.448   0.236  0.0663 -0.0149 -0.7861
  210TIP3    H1  569   7.342   2.524   0.243 -0.3011 -0.2558 -1.1723
  210TIP3    H2  570   7.371   2.403   0.157 -0.3419 -1.0711 -0.0568
  211TIP3   OH2  571   6.380   1.822   3.385 -0.1728  0.3775  0.3456
  211TIP3    H1  572   6.386   1.858   3.296 -1.2437 -2.0099 -0.7245
  211TIP3    H2  573   6.462   1.775   3.397  0.1464  1.0338  0.8075
  212TIP3   OH2  574   2.703   2.352   1.937  0.2734  0.7129  0.2160
  212TIP3    H1  575   2.726   2.260   1.921 -0.0741  0.6041  0.3556
  212TIP3    H2  576   2.749   2.374   2.018  1.2684  0.9900 -0.4138
  213TIP3   OH2  577   1.068   1.546   1.984  0.1277  0.6385  0.0604
  213TIP3    H1  578   1.050   1.518   1.894 -2.6344  2.3300  0.0445
  213TIP3    H2  579   1.045   1.471   2.038 -1.6915  0.8365 -0.4079
  214TIP3   OH2  580   1.920   1.661   0.950  0.3561 -0.6821  0.1079
  214TIP3    H1  581   1.855   1.614   1.003  0.6257 -1.4882 -0.2806
  214TIP3    H2  582   1.948   1.598   0.884  1.7033 -0.4043  0.4105
  215TIP3   OH2  583   3.715   2.232   3.058 -0.1599  0.2353 -0.1762
  215TIP3    H1  584   3.759   2.152   3.030 -0.8889  0.1474 -1.1043
  215TIP3    H2  585   3.628   2.203   3.085 -0.4273  0.7079 -0.5171
  216TIP3   OH2  586   1.974   1.448   0.215 -0.0854 -0.6712  0.8511
  216TIP3    H1  587   1.957   1.446   0.310 -1.7253  0.3370  0.5991
  216TIP3    H2  588   1.938   1.365   0.183 -1.6544 -0.0054  0.8078
  217TIP3   OH2  589   5.080   3.477   1.823 -0.2212 -0.0322 -0.2144
  217TIP3    H1  590   5.114   3.461   1.910 -0.4934  2.1571  0.3185
  217TIP3    H2  591   5.049   3.567   1.825 -1.6474 -0.4317 -2.1133
  218TIP3   OH2  592   8.290   7.965   3.215 -0.1540  0.4452  0.0172
  218TIP3    H1  593   8.347   8.041   3.226 -0.1157  0.3382  0.5728
  218TIP3    H2  594   8.241   7.960   3.297  0.0971 -0.3408  0.1232
  219TIP3   OH2  595   1.890   2.673   1.735 -0.2788  0.6182 -0.1446
  219TIP3    H1  596   1.797   2.678   1.756 -0.5238  0.4829 -1.1698
  219TIP3    H2  597   1.894   2.682   1.640  0.7545  0.5927 -0.1130
  220TIP3   OH2  598   4.769   7.292   4.435 -0.2771 -0.5450  0.5891
  220TIP3    H1  599   4.843   7.287   4.495  0.6646  1.9324 -0.2784
  220TIP3    H2  600   4.693   7.266   4.487  1.0793 -2.5015  1.6712
  221TIP3   OH2  601   5.555   2.361   2.068  0.0469 -0.1347 -0.7714
  221TIP3    H1  602   5.480   2.303   2.079  0.9166 -0.8564  1.6366
  221TIP3    H2  603   5.517   2.448   2.057 -1.1437 -0.4690  0.6166
  222TIP3   OH2  604   1.498   2.705   4.145 -0.7416 -0.2946 -0.2037
  222TIP3    H1  605   1.433   2.677   4.081 -1.2790 -1.2016  0.7290
  222TIP3    H2  606   1.582   2.676   4.110 -1.0030 -0.5141 -0.6380
  223TIP3   OH2  607   2.399   2.143   0.531  0.1219 -0.5987 -0.0645
  223TIP3    H1  608   2.447   2.105   0.605  1.0195 -0.0153 -0.3497
  223TIP3    H2  609   2.465   2.188   0.479 -0.5564 -0.7407 -1.0666
  224TIP3   OH2  610   3.891  -0.003   2.665 -0.1883 -0.3482 -0.2076
  224TIP3    H1  611   3.854   0.060   2.604  0.2266  1.5950  1.4930
  224TIP3    H2  612   3.924   0.050   2.738  2.0038 -2.3475  0.3475
  225TIP3   OH2  613   2.105   1.944   0.117 -0.1552  0.0450 -0.1830
  225TIP3    H1  614   2.053   1.874   0.157 -0.5718  0.9289  0.8518
  225TIP3    H2  615   2.184   1.948   0.170 -0.8314  1.4098  0.7333
  226TIP3   OH2  616   1.996   2.817   2.748  0.4924 -0.0977  0.1981
  226TIP3    H1  617   2.044   2.735   2.755 -1.2203 -1.2262 -1.2226
  226TIP3    H2  618   2.005   2.843   2.657 -3.2234 -1.3759 -0.6269
  227TIP3   OH2  619   3.550   0.598   0.289  0.0789  0.6722  0.4905
  227TIP3    H1  620   3.574   0.647   0.368 -1.6437  2.0292  0.1833
  227TIP3    H2  621   3.545   0.664   0.220 -1.0583 -0.1053 -0.1868
  228TIP3   OH2  622   5.070   5.689   6.760  0.2389  0.3084 -0.0326
  228TIP3    H1  623   5.076   5.783   6.778  0.6185  0.3274 -0.2640
  228TIP3    H2  624   5.157   5.655   6.779  0.4916  0.2267 -1.2818
  229TIP3   OH2  625   2.167   1.733   0.819  0.5946  0.0252 -0.2201
  229TIP3    H1  626   2.074   1.730   0.843  1.1888  0.2898  2.2116
  229TIP3    H2  627   2.184   1.825   0.799 -0.1144 -0.3374 -2.6392
  230TIP3   OH2  628   2.567   2.127   1.119  0.2151  0.6474  0.1664
  230TIP3    H1  629   2.584   2.157   1.209 -0.3768 -0.4801  0.6715
  230TIP3    H2  630   2.646   2.080   1.094  0.4594  1.1356  0.0260
  231TIP3   OH2  631   2.675   2.941   1.828  0.5380 -0.2772  0.2011
  231TIP3    H1  632   2.744   2.875   1.831  1.4569  0.6924  0.9122
  231TIP3    H2  633   2.707   3.008   1.768 -0.7235 -0.8117 -1.1105
  232TIP3   OH2  634   2.075   1.100   1.808 -0.0148  0.0915 -0.0355
  232TIP3    H1  635   2.119   1.020   1.777  0.2202  0.2031  0.0124
  232TIP3    H2  636   2.137   1.170   1.789 -0.5112  0.3530 -0.7266
  233TIP3   OH2  637   3.918   2.813   3.934 -0.0118 -0.3099 -0.1200
  233TIP3    H1  638   3.924   2.737   3.875 -1.3822 -1.2002  0.8623
  233TIP3    H2  639   3.999   2.809   3.986  0.7204 -0.1088 -1.2254
  234TIP3   OH2  640   3.242   1.198   3.883 -0.6865 -0.1047  0.6551
  234TIP3    H1  641   3.239   1.107   3.913 -3.3616  0.1748  1.3892
  234TIP3    H2  642   3.244   1.249   3.964 -2.3142  0.5369  0.3097
  235TIP3   OH2  643   3.138   0.776   0.587  0.1775 -0.0759 -0.3667
  235TIP3    H1  644   3.211   0.737   0.539 -0.6873 -0.9658 -0.9672
  235TIP3    H2  645   3.120   0.858   0.542  1.8964  0.9740  0.7986
  236TIP3   OH2  646   4.110   2.193   1.507 -0.2983  0.1228 -0.2820
  236TIP3    H1  647   4.162   2.169   1.431  1.1739  1.9863  0.0837
  236TIP3    H2  648   4.103   2.289   1.502 -0.3406  0.2619  1.8192
  237TIP3   OH2  649   3.537   2.225   1.118 -0.2976 -0.2439 -0.0835
  237TIP3    H1  650   3.618   2.191   1.155  0.5155  0.0578 -1.5333
  237TIP3    H2  651   3.564   2.271   1.039 -1.7226  1.2311  0.2682
  238TIP3   OH2  652   3.453   4.796   0.753 -0.3515 -0.1363 -0.2730
  238TIP3    H1  653   3.411   4.729   0.806 -0.6390  0.0478 -0.2731
  238TIP3    H2  654   3.442   4.765   0.663 -0.9408  0.1742 -0.3082
  239TIP3   OH2  655   4.238   3.289   1.480 -0.0037  0.0517 -0.0575
  239TIP3    H1  656   4.287   3.280   1.562  3.3467 -0.1301 -2.0281
  239TIP3    H2  657   4.246   3.204   1.438  0.0744  0.7983 -1.5621
  240TIP3   OH2  658   1.597   0.369   2.445 -0.0602  0.1517 -0.0179
  240TIP3    H1  659   1.628   0.316   2.518  0.6524  0.1627 -0.3090
  240TIP3    H2  660   1.658   0.443   2.441 -0.2793  0.3162 -0.4275
  241TIP3   OH2  661   2.507   3.825   1.022  0.4114  0.8149 -0.1229
  241TIP3    H1  662   2.570   3.879   0.974  1.5198 -0.5489 -0.2284
  241TIP3    H2  663   2.459   3.887   1.077  1.9920  1.8594  0.1116
  242TIP3   OH2  664   4.187   2.166   0.784 -0.1319  0.2099  0.4032
  242TIP3    H1  665   4.196   2.255   0.750  0.7502 -1.3288 -3.7693
  242TIP3    H2  666   4.277   2.135   0.795 -0.3977 -1.0645 -0.8266
  243TIP3   OH2  667   3.729   2.793   0.878  0.1061  0.5677 -0.6789
  243TIP3    H1  668   3.710   2.837   0.795 -0.7163  1.3493 -0.0956
  243TIP3    H2  669   3.766   2.863   0.933 -1.2793  0.5454  0.2838
  244TIP3   OH2  670   1.394   0.897   1.198  0.2733 -0.2615 -0.0658
  244TIP3    H1  671   1.451   0.885   1.122  1.0859 -0.4458  0.5670
  244TIP3    H2  672   1.343   0.816   1.202  0.7026 -0.5364 -0.0299
  245TIP3   OH2  673   1.260   1.963   3.872 -0.0904 -0.2736  0.3046
  245TIP3    H1  674   1.300   1.922   3.949 -0.1187 -0.2930  0.3089
  245TIP3    H2  675   1.166   1.959   3.890 -0.0547  0.5858  0.7164
  246TIP3   OH2  676   2.163   0.588   1.867  0.0244 -0.7583  0.5786
  246TIP3    H1  677   2.190   0.517   1.810  0.8290 -0.8372  1.0481
  246TIP3    H2  678   2.084   0.556   1.910 -2.4659  0.5385 -2.8585
  247TIP3   OH2  679   2.933   3.130   3.800 -0.2366  0.3117  0.2221
  247TIP3    H1  680   2.981   3.210   3.778  0.0615 -0.2070 -1.0482
  247TIP3    H2  681   2.842   3.157   3.804 -0.1675  0.6676 -0.4786
  248TIP3   OH2  682   1.124   3.631   2.370  0.1667  0.0190  0.4060
  248TIP3    H1  683   1.139   3.550   2.419 -1.8756  1.0617  2.9155
  248TIP3    H2  684   1.205   3.647   2.323  0.6950 -3.3441  0.0345
  249TIP3   OH2  685   0.427   7.695   2.779  0.7776 -0.4750  0.0624
  249TIP3    H1  686   0.343   7.731   2.807  0.3653 -2.9758  2.2148
  249TIP3    H2  687   0.407   7.651   2.696 -0.3145 -2.0924  1.1649
  250TIP3   OH2  688   3.022   2.278   2.125  0.5704  0.0595 -0.3554
  250TIP3    H1  689   3.086   2.239   2.185  0.6909  1.3734  0.3811
  250TIP3    H2  690   2.989   2.354   2.171 -0.1058  0.4997 -1.5447
  251TIP3   OH2  691   2.092   2.429   3.748 -0.2811 -0.2209 -0.2019
  251TIP3    H1  692   2.063   2.512   3.708  0.0713 -0.3270 -0.6831
  251TIP3    H2  693   2.122   2.376   3.674  0.9476 -0.1900  0.2690
  252TIP3   OH2  694   1.445   1.676   1.119  0.3944  0.7833 -0.1608
  252TIP3    H1  695   1.493   1.723   1.052  0.2664  0.0044 -0.8056
  252TIP3    H2  696   1.508   1.665   1.190  0.0452  3.0177  0.5207
  253TIP3   OH2  697   4.002   0.925   1.988  0.8548 -0.0402  0.0366
  253TIP3    H1  698   3.966   0.995   1.933 -0.0442 -0.4239  0.1320
  253TIP3    H2  699   4.061   0.877   1.930  0.0582 -0.3228 -0.5444
  254TIP3   OH2  700   2.439   1.299   1.372 -0.2573 -0.6314 -0.4028
  254TIP3    H1  701   2.367   1.285   1.310  0.3599 -0.9123 -1.0534
  254TIP3    H2  702   2.404   1.364   1.434 -0.6713  0.0989 -1.3834
  255TIP3   OH2  703   3.050   0.602   3.668 -0.2309 -0.1279 -0.0367
  255TIP3    H1  704   3.012   0.592   3.582 -0.2408  1.8102 -0.2725
  255TIP3    H2  705   3.104   0.523   3.680  0.3789 -0.0316 -2.1089
  256TIP3   OH2  706   4.035   2.082   1.752  0.1003 -0.0505 -0.6120
  256TIP3    H1  707   4.065   2.144   1.686  2.0047  0.0232  0.2947
  256TIP3    H2  708   4.077   1.999   1.728  2.2005  0.3616  1.4305
  257TIP3   OH2  709   2.812   1.682   2.522  0.0970 -0.2128 -0.3888
  257TIP3    H1  710   2.893   1.656   2.565  0.3217  2.3885  0.8351
  257TIP3    H2  711   2.841   1.739   2.450 -0.5888 -0.4273 -0.8435
  258TIP3   OH2  712   3.886   0.515   0.191 -0.1694 -0.1755 -0.3485
  258TIP3    H1  713   3.884   0.539   0.098  0.3588  0.0959 -0.2914
  258TIP3    H2  714   3.794   0.497   0.213 -0.1051 -1.7150 -1.3013
  259TIP3   OH2  715   2.034   1.346   2.311  0.1094  0.2353 -0.2826
  259TIP3    H1  716   2.104   1.353   2.376  0.7380 -1.6825 -0.7240
  259TIP3    H2  717   2.053   1.416   2.248  0.7469  0.7111  0.4350
  260TIP3   OH2  718   3.644   0.643   1.689 -0.1473  0.2431 -0.1298
  260TIP3    H1  719   3.561   0.660   1.734 -0.4926  0.1083 -0.6986
  260TIP3    H2  720   3.694   0.724   1.698 -0.6043  0.5502 -0.3379
  261TIP3   OH2  721   3.637   3.263   4.861  0.6515 -0.4824  0.0089
  261TIP3    H1  722   3.669   3.204   4.929  0.3411 -0.2552  0.3579
  261TIP3    H2  723   3.686   3.344   4.875  2.5010 -1.2634 -1.6974
  262TIP3   OH2  724   3.257   1.998   1.380 -0.1989  0.3313  0.1667
  262TIP3    H1  725   3.263   2.084   1.422  1.4157  0.9478 -1.2865
  262TIP3    H2  726   3.165   1.973   1.390 -0.5766  2.0057  1.0211
  263TIP3   OH2  727   0.156   7.397   1.881  0.1876 -0.4886  0.1568
  263TIP3    H1  728   0.203   7.434   1.956 -1.3880  3.6956 -0.7538
  263TIP3    H2  729   0.166   7.302   1.890  4.1478  0.0875  2.9155
  264TIP3   OH2  730   2.129   1.465  -0.019 -0.0493  0.1275 -0.1112
  264TIP3    H1  731   2.174   1.549  -0.026  1.2307 -0.3616  1.8553
  264TIP3    H2  732   2.085   1.468   0.066  0.7333 -1.5287  0.3686
  265TIP3   OH2  733   2.965   0.080   1.442  0.2879 -0.1478  0.0746
  265TIP3    H1  734   2.991  -0.012   1.436 -0.0190 -0.1790 -0.7485
  265TIP3    H2  735   2.921   0.098   1.360 -0.2475  0.5542  0.5128
  266TIP3   OH2  736   5.042   1.965   1.379 -0.3455 -0.1396  0.1932
  266TIP3    H1  737   5.123   1.916   1.363  0.3514  1.5628 -1.8348
  266TIP3    H2  738   4.975   1.898   1.390  0.9511 -1.5638 -0.3699
  267TIP3   OH2  739   2.541   7.999   3.876  0.5128 -0.3169  0.0695
  267TIP3    H1  740   2.570   8.040   3.794 -0.4380  2.6830  1.1671
  267TIP3    H2  741   2.455   7.963   3.856  0.4952 -0.0305 -0.3754
  268TIP3   OH2  742   2.014   7.933   0.145  0.1824 -0.3296  0.3365
  268TIP3    H1  743   2.032   7.981   0.064 -1.6984  0.8073  0.5753
  268TIP3    H2  744   1.952   7.865   0.120 -2.1249  1.3884  1.1872
  269TIP3   OH2  745   4.407   3.249   1.706 -0.0304  0.2225 -0.6065
  269TIP3    H1  746   4.416   3.344   1.700 -2.3159  0.4863 -0.2019
  269TIP3    H2  747   4.473   3.223   1.770 -0.0486  1.6632  0.0173
  270TIP3   OH2  748   5.129   6.135   5.853  0.1164  0.0781 -0.7162
  270TIP3    H1  749   5.083   6.186   5.786 -0.4569  0.6748  0.1222
  270TIP3    H2  750   5.066   6.067   5.878 -0.3022  0.8614  0.3932
  271TIP3   OH2  751   0.246   0.193   0.342 -0.6397  0.1454 -0.1802
  271TIP3    H1  752   0.217   0.205   0.432 -0.8457  0.7573 -0.3238
  271TIP3    H2  753   0.182   0.241   0.289 -1.5271 -1.6513 -0.7944
  272TIP3   OH2  754   1.840   1.177   2.030 -0.8358  0.0696  0.7794
  272TIP3    H1  755   1.819   1.197   2.121 -2.6593  1.2257  0.1390
  272TIP3    H2  756   1.775   1.226   1.979 -1.7645 -2.9264 -1.0587
  273TIP3   OH2  757   8.292   0.035   1.730  0.2016  0.7091  0.6087
  273TIP3    H1  758   8.268   0.125   1.707 -0.8286  0.2357 -0.1931
  273TIP3    H2  759   8.356   0.045   1.801  0.4054  2.0782  0.2408
  274TIP3   OH2  760   2.280   1.690   1.111 -0.3222 -0.1250  0.2951
  274TIP3    H1  761   2.281   1.597   1.135  1.1373 -0.1312  0.2845
  274TIP3    H2  762   2.361   1.702   1.061 -1.7636  0.5940 -1.9468
  275TIP3   OH2  763   1.522   1.362   0.758 -0.4923 -0.6570  0.2323
  275TIP3    H1  764   1.614   1.388   0.744 -0.2755 -0.5218  1.8676
  275TIP3    H2  765   1.524   1.267   0.757 -0.4633 -0.6534 -0.5022
  276TIP3   OH2  766   1.445   1.482   1.491 -0.1446  0.5539 -0.4078
  276TIP3    H1  767   1.411   1.511   1.575  0.5737  0.4172 -0.0631
  276TIP3    H2  768   1.435   1.387   1.493  2.6276  0.2404  0.7839
  277TIP3   OH2  769   0.797   2.646   1.539  0.2607 -0.1349  0.2227
  277TIP3    H1  770   0.747   2.699   1.477  0.1962 -1.8509 -1.2096
  277TIP3    H2  771   0.730   2.600   1.590  0.3385  0.3620  0.7870
  278TIP3   OH2  772   5.147   7.984   0.440 -0.4777  0.4452 -0.3642
  278TIP3    H1  773   5.215   7.988   0.372 -1.7281  2.1409 -1.5671
  278TIP3    H2  774   5.078   7.930   0.401 -0.7158  0.4686  0.0227
  279TIP3   OH2  775   1.954   0.826   3.360  0.1369 -0.4616 -0.5432
  279TIP3    H1  776   1.886   0.803   3.297 -0.9851  0.7974  0.1777
  279TIP3    H2  777   1.917   0.900   3.409  1.1522 -1.1798  1.3297
  280TIP3   OH2  778   3.590   7.589   6.777  0.0820  0.3253  0.2881
  280TIP3    H1  779   3.661   7.635   6.822  0.4518  0.1963 -0.1504
  280TIP3    H2  780   3.598   7.618   6.686 -0.6437  0.5711  0.3061
  281TIP3   OH2  781   1.311   1.938   0.757  0.3497 -0.1255 -0.9546
  281TIP3    H1  782   1.273   1.898   0.679 -1.6745  0.4450 -0.2992
  281TIP3    H2  783   1.320   2.031   0.734 -1.2182  0.2273 -0.1550
  282TIP3   OH2  784   2.946   2.135   1.253 -0.1641 -0.0962 -0.7999
  282TIP3    H1  785   2.905   2.105   1.172  0.2684 -0.2131 -0.9787
  282TIP3    H2  786   3.007   2.204   1.225 -0.2379  0.0753 -0.5402
  283TIP3   OH2  787   6.496   4.568   6.563  0.1798  0.3835 -0.3001
  283TIP3    H1  788   6.429   4.533   6.505  1.7461 -0.0080 -1.9136
  283TIP3    H2  789   6.575   4.573   6.509  1.6535  0.1371  1.7538
  284TIP3   OH2  790   7.349   6.110   6.347 -0.4598  0.4848 -0.0931
  284TIP3    H1  791   7.434   6.155   6.339  0.1894 -0.7431 -0.2758
  284TIP3    H2  792   7.291   6.176   6.384 -0.0944  2.1495 -2.3882
  285TIP3   OH2  793   4.826   3.067   2.030  0.5396  0.0586 -0.2182
  285TIP3    H1  794   4.758   2.999   2.035  1.7868 -1.1140  1.3561
  285TIP3    H2  795   4.808   3.124   2.105 -0.8298  1.8408 -1.8356
  286TIP3   OH2  796   7.092   5.249   6.803 -0.2111 -0.2751  0.2132
  286TIP3    H1  797   7.072   5.315   6.870 -0.6406 -0.6137  0.4227
  286TIP3    H2  798   7.171   5.205   6.835 -0.5319 -0.5757  0.6061
  287TIP3   OH2  799   4.126   1.932   2.483  0.6343  0.5927  0.0778
  287TIP3    H1  800   4.113   1.870   2.554  0.0414  1.0246  0.3496
  287TIP3    H2  801   4.110   1.881   2.403 -1.1925  0.7288  0.3511
  288TIP3   OH2  802   0.584   5.218   6.616  0.2419  0.0482 -0.2036
  288TIP3    H1  803   0.647   5.175   6.672  0.0194 -0.1536 -0.1079
  288TIP3    H2  804   0.511   5.156   6.608 -0.6753  0.9385  1.0245
  289TIP3   OH2  805   4.440   2.756   0.570  0.1520  0.3412  0.8024
  289TIP3    H1  806   4.421   2.767   0.663  0.7859  2.0203  0.7644
  289TIP3    H2  807   4.531   2.727   0.567  0.3695  1.0205  0.6923
  290TIP3   OH2  808   7.682   6.658   5.479 -0.4359 -0.0994 -0.3533
  290TIP3    H1  809   7.715   6.618   5.559  0.1024  0.0343 -0.5060
  290TIP3    H2  810   7.609   6.602   5.452  1.4330 -2.0326 -1.5437
  291TIP3   OH2  811   5.456   1.791   3.148  0.1518 -0.3939  0.1262
  291TIP3    H1  812   5.518   1.729   3.109  0.0712 -0.1975 -0.3155
  291TIP3    H2  813   5.509   1.839   3.212  0.7209  0.4596 -0.9514
  292TIP3   OH2  814   3.797   3.666   0.881 -0.1912  0.3237  0.2488
  292TIP3    H1  815   3.892   3.658   0.871 -0.3542 -2.8090  0.7784
  292TIP3    H2  816   3.762   3.585   0.844 -2.7285  1.7864 -0.6613
  293TIP3   OH2  817   5.293   1.995   1.709  0.3852  0.1646  0.1203
  293TIP3    H1  818   5.331   1.960   1.789  0.7282 -0.3581 -0.2657
  293TIP3    H2  819   5.218   2.047   1.738  0.3401 -0.2549  0.7605
  294TIP3   OH2  820   1.400   5.722   6.402 -0.1154 -0.1012  0.2518
  294TIP3    H1  821   1.330   5.710   6.466 -2.1897  2.1197 -1.4980
  294TIP3    H2  822   1.356   5.720   6.317  2.5364 -2.7331 -1.1727
  295TIP3   OH2  823   4.290   0.350   0.520  0.1044  0.1173 -0.2220
  295TIP3    H1  824   4.216   0.291   0.540 -1.6760  2.2046 -0.4580
  295TIP3    H2  825   4.305   0.337   0.426 -0.4332  0.2122 -0.3234
  296TIP3   OH2  826   5.163   5.230   6.158  0.4431 -0.4380 -0.4945
  296TIP3    H1  827   5.085   5.285   6.152  0.3419 -0.5404 -0.0895
  296TIP3    H2  828   5.235   5.292   6.170  0.2516 -0.4266  0.6649
  297TIP3   OH2  829   5.833   1.911   2.069 -0.2110 -0.1907  0.4669
  297TIP3    H1  830   5.808   1.842   2.131  1.3986 -1.6560 -0.4526
  297TIP3    H2  831   5.754   1.964   2.058 -1.1781 -1.2779  1.9998
  298TIP3   OH2  832   4.431   1.190   3.821 -0.2150  0.6997 -0.8785
  298TIP3    H1  833   4.476   1.146   3.893  0.6658 -0.4589 -2.1087
  298TIP3    H2  834   4.362   1.130   3.795 -1.0992  1.5085 -0.4417
  299TIP3   OH2  835   5.226   5.389   6.790  0.0510 -0.1920 -0.7099
  299TIP3    H1  836   5.149   5.402   6.845  0.1309 -1.2971 -0.3461
  299TIP3    H2  837   5.280   5.466   6.808 -1.4812  1.2168 -1.8526
  300TIP3   OH2  838   5.612   3.262   3.453 -0.1946  0.3136 -0.3654
  300TIP3    H1  839   5.609   3.180   3.503 -0.3925  0.9698  0.7259
  300TIP3    H2  840   5.693   3.304   3.482 -0.1877  0.5908 -0.7833
  301TIP3   OH2  841   4.386   2.273   1.588 -0.0974 -0.4029  0.0673
  301TIP3    H1  842   4.295   2.257   1.562 -0.1625  0.8524 -0.5036
  301TIP3    H2  843   4.431   2.295   1.506  1.5042 -4.3222 -0.2234
  302TIP3   OH2  844   6.307   1.857   1.694  0.4166 -0.0773 -0.1933
  302TIP3    H1  845   6.314   1.893   1.783 -0.6192 -0.7050  0.1550
  302TIP3    H2  846   6.231   1.901   1.656  0.2345 -0.5712 -0.4030
  303TIP3   OH2  847   3.502   0.943   2.631 -0.0256  0.0845 -0.2816
  303TIP3    H1  848   3.532   0.983   2.712  2.4965 -0.5798 -0.8491
  303TIP3    H2  849   3.489   0.850   2.652 -0.4879  0.1290 -0.3557
  304TIP3   OH2  850   4.254   6.849   6.489  0.2407 -0.1937 -0.0191
  304TIP3    H1  851   4.196   6.846   6.413 -0.4161 -2.4536  0.5215
  304TIP3    H2  852   4.337   6.813   6.457 -0.0541 -1.2021  0.3334
  305TIP3   OH2  853   5.203   1.568   1.845 -0.6291  0.2225  0.4970
  305TIP3    H1  854   5.288   1.528   1.830 -0.3924  0.7883  0.2878
  305TIP3    H2  855   5.146   1.527   1.780 -0.1109  1.0728 -0.5132
  306TIP3   OH2  856   7.622   7.990   2.357  0.0235  0.2136 -0.5442
  306TIP3    H1  857   7.532   7.959   2.351  0.7664 -1.9910 -0.7730
  306TIP3    H2  858   7.666   7.951   2.281  1.5437 -0.0929  0.4617
  307TIP3   OH2  859   5.217   5.132   6.747 -0.0270  0.5048  0.3786
  307TIP3    H1  860   5.242   5.222   6.768 -0.1478  0.0644  2.6161
  307TIP3    H2  861   5.150   5.140   6.680  0.9276  2.0228 -0.4232
  308TIP3   OH2  862   4.377   1.939   0.071 -0.2035  0.0316 -0.5904
  308TIP3    H1  863   4.393   1.856   0.115 -1.2241 -0.1118 -0.4868
  308TIP3    H2  864   4.296   1.925   0.023  0.0964  0.6801 -1.3000
  309TIP3   OH2  865   4.784   2.145   2.324  0.4857 -0.2004 -0.4532
  309TIP3    H1  866   4.751   2.115   2.239  0.1352  0.4765 -0.5597
  309TIP3    H2  867   4.714   2.201   2.357 -0.2089 -1.9554  1.1282
  310TIP3   OH2  868   5.084   1.149   2.373 -0.0151 -0.1615  0.2422
  310TIP3    H1  869   5.150   1.087   2.342 -1.2122 -0.8618 -0.9732
  310TIP3    H2  870   5.132   1.231   2.384  1.0674 -0.6595 -0.5917
  311TIP3   OH2  871   6.018   1.863   0.527  0.6459  0.5502  0.1941
  311TIP3    H1  872   6.112   1.853   0.535  0.4999 -0.7198  0.3668
  311TIP3    H2  873   5.981   1.795   0.583 -0.3814  1.6627  0.9056
  312TIP3   OH2  874   6.816   5.813   6.409  0.2035 -0.0870  0.4315
  312TIP3    H1  875   6.894   5.796   6.462 -0.3487  0.3793  1.4268
  312TIP3    H2  876   6.750   5.841   6.473 -0.0256  2.0440 -0.7071
  313TIP3   OH2  877   6.331   0.398   3.175  0.0781  0.0581  0.1811
  313TIP3    H1  878   6.273   0.408   3.099  1.3143 -1.9525 -1.0832
  313TIP3    H2  879   6.296   0.323   3.222  1.0154 -0.5148 -0.0180
  314TIP3   OH2  880   4.466   1.649   0.982 -0.3137  0.1627  0.1806
  314TIP3    H1  881   4.457   1.703   0.904 -1.8711  0.1669  0.3511
  314TIP3    H2  882   4.436   1.562   0.955 -0.0996 -0.0335  0.5613
  315TIP3   OH2  883   7.126   7.011   5.011 -0.2020 -0.2983 -0.6916
  315TIP3    H1  884   7.090   7.068   4.943 -0.2977  0.6728  0.1617
  315TIP3    H2  885   7.207   7.054   5.038 -0.9356  0.1463  0.8851
  316TIP3   OH2  886   4.162   0.981   0.637 -0.0293 -0.4938  0.3308
  316TIP3    H1  887   4.204   0.898   0.659  0.5272 -0.0745  0.8296
  316TIP3    H2  888   4.156   1.028   0.720  2.1033  1.0979 -0.3771
  317TIP3   OH2  889   7.486   4.087   6.533  0.0560 -0.8337 -1.0455
  317TIP3    H1  890   7.572   4.091   6.492 -0.0019 -0.6992 -1.1531
  317TIP3    H2  891   7.476   4.172   6.577  0.3585 -1.1918 -0.2662
  318TIP3   OH2  892   4.014   2.629   1.989  0.1794  0.4415 -0.1040
  318TIP3    H1  893   4.031   2.593   2.076  0.4861  0.2179 -0.2580
  318TIP3    H2  894   4.053   2.566   1.929 -0.9622  0.0480 -0.4471
  319TIP3   OH2  895   4.860   2.152   0.103  0.1887 -0.6316  0.3951
  319TIP3    H1  896   4.948   2.119   0.122 -0.0515 -1.9253 -0.7214
  319TIP3    H2  897   4.874   2.242   0.076  1.2189 -0.9327 -0.1193
  320TIP3   OH2  898   7.097   7.973   6.277  0.0403 -1.0231  0.0618
  320TIP3    H1  899   7.183   7.952   6.242 -0.0950 -0.2134 -0.8008
  320TIP3    H2  900   7.109   8.057   6.323 -0.9910  0.9733 -3.1230
  321TIP3   OH2  901   5.698   6.325   6.366  0.7762 -0.4592 -0.0162
  321TIP3    H1  902   5.646   6.281   6.299  0.0105 -0.8517  0.8171
  321TIP3    H2  903   5.787   6.326   6.331  0.5150 -1.3070 -0.7127
  322TIP3   OH2  904   4.016   1.326   1.714  0.3306 -0.6536  0.0178
  322TIP3    H1  905   4.020   1.313   1.619  2.1757  0.2110 -0.0252
  322TIP3    H2  906   4.013   1.421   1.725 -0.3794 -0.7638  0.8190
  323TIP3   OH2  907   4.386   3.916   0.039  0.5028  0.0157  0.2380
  323TIP3    H1  908   4.403   3.823   0.053  1.3754  0.1999  0.4281
  323TIP3    H2  909   4.332   3.943   0.113  0.6019 -0.2402  0.4027
  324TIP3   OH2  910   4.709   2.993   1.525  0.3191 -0.2012 -0.1300
  324TIP3    H1  911   4.695   3.071   1.470  0.7067 -1.4526 -2.0548
  324TIP3    H2  912   4.785   3.015   1.579  1.2789  0.2646 -1.6250
  325TIP3   OH2  913   1.956   3.333   1.438 -0.4026  0.6802  0.1576
  325TIP3    H1  914   1.912   3.253   1.410 -0.2620 -0.2436  2.5053
  325TIP3    H2  915   2.050   3.313   1.429 -0.3525  0.2993  1.4717
  326TIP3   OH2  916   5.483   3.607   1.734 -0.3196  0.7740  0.5586
  326TIP3    H1  917   5.427   3.588   1.658 -0.6916  0.3333  0.9420
  326TIP3    H2  918   5.447   3.553   1.805  1.0332 -0.0668  0.6292
  327TIP3   OH2  919   6.043   5.938   6.466  0.4340 -0.2522  0.8837
  327TIP3    H1  920   6.010   5.939   6.376 -0.5610 -1.3377  1.2229
  327TIP3    H2  921   5.979   5.990   6.515  0.0156 -1.1356  1.2804
  328TIP3   OH2  922   3.250   3.696   1.317  0.1117 -0.4872  0.0040
  328TIP3    H1  923   3.202   3.677   1.237 -1.4134  0.2723  0.7100
  328TIP3    H2  924   3.248   3.614   1.367 -1.4649 -0.1438  0.5304
  329TIP3   OH2  925   4.931   1.286   0.189  0.3835 -0.5702  0.0748
  329TIP3    H1  926   5.009   1.233   0.209  0.9554  0.2434  0.0143
  329TIP3    H2  927   4.858   1.237   0.229  1.2957  0.2118  2.7799
  330TIP3   OH2  928   3.332   1.879   1.131 -0.0482 -0.2823 -0.2863
  330TIP3    H1  929   3.276   1.894   1.207  0.0388  3.0047 -0.8243
  330TIP3    H2  930   3.421   1.883   1.166 -0.0587 -2.6327  0.0705
  331TIP3   OH2  931   7.804   7.648   6.540 -0.3560 -0.8298  0.3464
  331TIP3    H1  932   7.733   7.588   6.564 -0.3287 -1.2623 -0.6140
  331TIP3    H2  933   7.777   7.732   6.576 -1.3188 -1.0145  0.0748
  332TIP3   OH2  934   6.838   0.525   3.129  0.7496 -0.1760  1.0523
  332TIP3    H1  935   6.751   0.516   3.090  0.6963  2.5227  0.4685
  332TIP3    H2  936   6.828   0.596   3.193  2.3050 -0.4536  1.6075
  333TIP3   OH2  937   0.826   7.677   2.515 -0.6277 -0.6033 -0.6030
  333TIP3    H1  938   0.823   7.737   2.441 -1.3080 -0.1569 -0.2149
  333TIP3    H2  939   0.907   7.628   2.502  2.2325  3.3444  1.3679
  334TIP3   OH2  940   2.864   0.954   0.106  0.2469 -0.0239  0.1565
  334TIP3    H1  941   2.828   1.042   0.104  1.4757  0.4629 -0.6599
  334TIP3    H2  942   2.950   0.964   0.146  0.6514 -0.7564 -0.5249
  335TIP3   OH2  943   6.477   0.353   1.078  0.0834  0.5810  0.0387
  335TIP3    H1  944   6.391   0.347   1.119 -0.5619  1.3742 -1.1533
  335TIP3    H2  945   6.538   0.327   1.146 -1.0999  0.0225  0.9106
  336TIP3   OH2  946   5.589   1.949   2.931  0.6458  0.3968 -0.2155
  336TIP3    H1  947   5.551   1.942   3.018  1.7062  0.5909  0.2779
  336TIP3    H2  948   5.541   2.021   2.890  0.2705  0.4339  0.2766
  337TIP3   OH2  949   8.480   6.333   6.854 -0.0930  0.1027 -0.0727
  337TIP3    H1  950   8.408   6.378   6.899 -0.1290  1.2342 -1.2451
  337TIP3    H2  951   8.529   6.290   6.925 -1.0837  0.5109  0.8781
  338TIP3   OH2  952   3.010   3.206   3.245  0.4783 -0.1050 -0.4429
  338TIP3    H1  953   3.072   3.277   3.257  0.5055  0.0433 -1.4200
  338TIP3    H2  954   3.055   3.129   3.280  0.2055  0.4544  1.1784
  339TIP3   OH2  955   4.759   1.970   0.978 -0.0380  0.3601  0.1388
  339TIP3    H1  956   4.815   2.032   0.931  1.6200 -0.0940  1.4416
  339TIP3    H2  957   4.790   1.884   0.950  0.2716  0.1012  1.2324
  340TIP3   OH2  958   6.969   0.094   1.811  0.4682 -0.1591 -0.1931
  340TIP3    H1  959   6.982   0.017   1.756  0.7076 -1.0041  1.0027
  340TIP3    H2  960   7.057   0.126   1.829  0.4509 -0.4903  0.5069
  341TIP3   OH2  961   3.639   2.362   3.341 -0.3825  0.0414 -0.4749
  341TIP3    H1  962   3.647   2.267   3.341  2.2097  0.2224  1.0110
  341TIP3    H2  963   3.565   2.380   3.398  0.3257 -1.0237  0.8061
  342TIP3   OH2  964   6.518   3.134   2.410 -0.2171 -0.2243  0.1517
  342TIP3    H1  965   6.528   3.054   2.358 -2.7048  0.3350 -1.2690
  342TIP3    H2  966   6.486   3.103   2.495 -0.6246 -0.8068 -0.2027
  343TIP3   OH2  967   5.100   0.757   0.628 -0.1353  0.2001 -0.2774
  343TIP3    H1  968   5.052   0.705   0.564  0.0087 -1.1146  0.6798
  343TIP3    H2  969   5.100   0.704   0.708  2.5862  0.3357 -0.1437
  344TIP3   OH2  970   6.981   1.053   1.068 -0.3806 -0.1475 -0.0536
  344TIP3    H1  971   6.891   1.083   1.079  0.2337  0.8653  2.3432
  344TIP3    H2  972   7.007   1.087   0.982 -1.5118  1.5189  0.2474
  345TIP3   OH2  973   3.470   0.723   2.819 -0.8330  0.2413 -1.0831
  345TIP3    H1  974   3.445   0.631   2.829  4.3987 -1.0363  2.3623
  345TIP3    H2  975   3.438   0.765   2.898  0.2436  0.4716 -0.7616
  346TIP3   OH2  976   4.857   1.246   0.631 -0.3899  0.1877 -0.1269
  346TIP3    H1  977   4.819   1.158   0.638 -1.2993  0.5672 -0.2014
  346TIP3    H2  978   4.900   1.246   0.546 -0.1117 -0.2911  0.0084
  347TIP3   OH2  979   6.089   1.893   2.078  0.0761 -0.6795 -0.2827
  347TIP3    H1  980   6.088   1.846   2.162 -0.7624 -4.0256 -2.0577
  347TIP3    H2  981   5.999   1.924   2.067 -0.7324 -3.2933 -1.4906
  348TIP3   OH2  982   6.073   4.383   2.307 -0.0811 -0.2374 -0.7568
  348TIP3    H1  983   6.089   4.470   2.342 -0.4664 -1.3143  2.2074
  348TIP3    H2  984   6.008   4.397   2.238 -0.1400  1.8083 -0.3311
  349TIP3   OH2  985   4.552   1.382   0.540 -0.4963 -0.4895 -0.0362
  349TIP3    H1  986   4.532   1.289   0.531  1.8845 -1.2098  1.4982
  349TIP3    H2  987   4.641   1.383   0.575 -0.8424  2.3667  0.8292
  350TIP3   OH2  988   3.593   2.553   0.351  0.0179  0.0098 -0.3620
  350TIP3    H1  989   3.587   2.589   0.440  0.8591 -2.7276  0.8717
  350TIP3    H2  990   3.601   2.458   0.365  0.5807 -0.4114 -3.3601
  351TIP3   OH2  991   5.278   1.744   1.130  0.1963 -0.0961  0.0131
  351TIP3    H1  992   5.319   1.661   1.106 -0.0906 -0.7103  1.5625
  351TIP3    H2  993   5.324   1.810   1.079  0.9069 -1.1353 -0.7024
  352TIP3   OH2  994   5.702   1.267   0.032 -0.4721 -0.0133  0.3990
  352TIP3    H1  995   5.736   1.182   0.060  0.1951 -0.0992 -0.6278
  352TIP3    H2  996   5.669   1.251  -0.057  0.3580  0.9652 -0.0935
  353TIP3   OH2  997   4.919   1.281   3.367 -0.2574  0.1604  0.3629
  353TIP3    H1  998   4.993   1.340   3.375  0.0273 -0.0147 -0.9257
  353TIP3    H2  999   4.936   1.231   3.288 -0.4656 -1.7065  1.4819
  354TIP3   OH2 1000   4.942   1.352   1.497  0.1683  0.3710 -0.2322
  354TIP3    H1 1001   4.965   1.271   1.543  1.4160 -0.3240 -1.9974
  354TIP3    H2 1002   4.961   1.422   1.559 -0.3763 -0.6520  1.1151
  355TIP3   OH2 1003   4.057   7.621   0.664  0.0165  0.5998  0.5145
  355TIP3    H1 1004   3.980   7.568   0.685 -0.2148  0.7295 -0.0238
  355TIP3    H2 1005   4.130   7.573   0.703  0.0957 -1.2691 -1.8543
  356TIP3   OH2 1006   7.380   6.172   5.302  0.2513 -0.3726  0.6237
  356TIP3    H1 1007   7.388   6.174   5.207 -3.0235 -0.6969  0.2659
  356TIP3    H2 1008   7.323   6.246   5.323  1.3597  0.0126  2.4031
  357TIP3   OH2 1009   3.776   2.529   4.059  0.1067 -0.4992 -0.2201
  357TIP3    H1 1010   3.803   2.520   4.150 -2.1858  0.2918  0.5825
  357TIP3    H2 1011   3.706   2.595   4.061 -0.5534 -1.0751 -2.4230
  358TIP3   OH2 1012   4.598   1.815   1.782  0.3107  0.2076 -0.7811
  358TIP3    H1 1013   4.678   1.765   1.796  1.6733  1.8885 -2.4653
  358TIP3    H2 1014   4.571   1.794   1.693  1.8258  3.6866 -2.1442
  359TIP3   OH2 1015   3.480   2.838   0.248  0.3900  0.1552  0.1956
  359TIP3    H1 1016   3.536   2.760   0.244  0.3990  0.2268 -1.1747
  359TIP3    H2 1017   3.429   2.835   0.167 -0.0140  1.2779  0.4020
  360TIP3   OH2 1018   6.615   4.987   6.918 -0.0711  0.6313 -0.5065
  360TIP3    H1 1019   6.644   5.023   6.834 -0.4251  2.1206 -0.0145
  360TIP3    H2 1020   6.695   4.978   6.969  0.1922 -0.6246 -1.1161
  361TIP3   OH2 1021   4.871   2.425   2.222 -0.3963 -0.5139  0.1382
  361TIP3    H1 1022   4.848   2.362   2.290  0.4512  0.5960  1.4932
  361TIP3    H2 1023   4.789   2.442   2.176 -1.2605 -0.2920  1.7395
  362TIP3   OH2 1024   7.497   6.033   5.526  0.0436  0.7259  0.0583
  362TIP3    H1 1025   7.485   6.095   5.455  0.7799 -0.0879 -0.7847
  362TIP3    H2 1026   7.439   5.960   5.504  0.1727  0.5289  0.3666
  363TIP3   OH2 1027   8.500   5.721   6.418 -0.2728 -0.4618 -0.0940
  363TIP3    H1 1028   8.468   5.657   6.355 -2.1633 -1.3919  1.7287
  363TIP3    H2 1029   8.449   5.800   6.400 -1.8443 -1.1649  1.1546
  364TIP3   OH2 1030   0.254   3.466   0.515 -0.1502  0.8370 -0.4311
  364TIP3    H1 1031   0.334   3.426   0.550 -1.8854 -2.2119  0.1970
  364TIP3    H2 1032   0.264   3.461   0.420 -0.3658 -1.2149 -0.3669
  365TIP3   OH2 1033   3.502   1.907   0.715  0.1098  0.0518 -0.4882
  365TIP3    H1 1034   3.509   1.851   0.793 -0.9041 -0.3386 -0.6687
  365TIP3    H2 1035   3.447   1.980   0.744  2.4821  1.6486  0.1274
  366TIP3   OH2 1036   4.074   3.008   0.048 -0.2003  0.4635  0.3825
  366TIP3    H1 1037   3.998   2.974   0.095 -0.2949 -0.8225 -0.6970
  366TIP3    H2 1038   4.053   2.996  -0.045  0.8832  1.0527  0.0510
  367TIP3   OH2 1039   4.352   5.376   5.645  0.3589 -0.0350  0.1811
  367TIP3    H1 1040   4.402   5.454   5.623 -1.5645  0.3225 -3.3656
  367TIP3    H2 1041   4.285   5.406   5.706  1.3770  0.4905  1.0461
  368TIP3   OH2 1042   6.657   6.630   6.740 -0.5709 -0.5738  0.4353
  368TIP3    H1 1043   6.667   6.647   6.834  1.2458  0.5239  0.0712
  368TIP3    H2 1044   6.747   6.629   6.706 -1.1636 -1.8724 -1.1394
  369TIP3   OH2 1045   6.886   5.255   5.288 -0.6194 -0.4482  0.8629
  369TIP3    H1 1046   6.888   5.239   5.194  0.1354  0.8386  0.6570
  369TIP3    H2 1047   6.796   5.282   5.306 -0.8406 -0.9773  0.5625
  370TIP3   OH2 1048   2.882   2.956   3.386 -0.4338 -0.0022  0.6528
  370TIP3    H1 1049   2.859   2.890   3.451 -1.4664 -1.0738 -0.7533
  370TIP3    H2 1050   2.799   2.989   3.353  0.0806  2.3220  1.6209
  371TIP3   OH2 1051   4.890   3.008   0.818 -0.2760 -0.9256 -0.0657
  371TIP3    H1 1052   4.960   2.998   0.753  0.0104  0.0594  0.0811
  371TIP3    H2 1053   4.934   2.997   0.902 -0.3824 -0.7611  0.0111
  372TIP3   OH2 1054   3.552   1.196   3.714  0.3674 -0.0220  0.0578
  372TIP3    H1 1055   3.588   1.278   3.749  1.6761 -1.1126  1.3795
  372TIP3    H2 1056   3.462   1.195   3.745  0.8944  0.0425  1.6547
  373TIP3   OH2 1057   5.249   3.418   0.362  0.3308 -0.1546  0.0307
  373TIP3    H1 1058   5.182   3.403   0.295 -0.1574 -0.1440  0.5111
  373TIP3    H2 1059   5.220   3.497   0.407  1.0759  0.2813 -0.2549
  374TIP3   OH2 1060   3.078   2.907   0.989  0.3568 -0.3164 -0.7887
  374TIP3    H1 1061   3.092   2.906   1.083  0.1940 -3.9502 -0.7495
  374TIP3    H2 1062   3.008   2.843   0.974 -1.9856  2.6116 -3.0571
  375TIP3   OH2 1063   5.370   2.726   1.051 -0.2575 -0.9485  0.4719
  375TIP3    H1 1064   5.443   2.754   0.995 -0.8716  0.4273  0.3464
  375TIP3    H2 1065   5.406   2.727   1.139  0.1714 -1.2872  0.3027
  376TIP3   OH2 1066   5.148   1.093   3.061  0.6618 -0.0528 -0.2692
  376TIP3    H1 1067   5.060   1.123   3.082  0.4756 -0.2580 -0.7484
  376TIP3    H2 1068   5.134   1.009   3.018  1.0814  0.0432 -0.5859
  377TIP3   OH2 1069   6.012   0.655   1.386  0.1578  0.1581 -0.5230
  377TIP3    H1 1070   6.102   0.686   1.384  0.0402  0.5832  0.4962
  377TIP3    H2 1071   6.007   0.592   1.314  1.0669  0.6692 -1.0417
  378TIP3   OH2 1072   6.653   6.618   6.010 -0.0248  0.2081  0.3240
  378TIP3    H1 1073   6.736   6.595   5.969 -0.1643 -0.0291  0.1815
  378TIP3    H2 1074   6.670   6.704   6.049  0.3095  0.1294  0.3577
  379TIP3   OH2 1075   5.417   6.387   5.202 -0.2014 -0.7536  0.1152
  379TIP3    H1 1076   5.487   6.402   5.265  0.1255  0.5842 -0.5471
  379TIP3    H2 1077   5.422   6.462   5.142 -0.7282 -1.8187 -1.2908
  380TIP3   OH2 1078   5.825   7.642   5.834  0.6606 -0.2981 -0.7726
  380TIP3    H1 1079   5.845   7.688   5.915 -0.7137  1.3386 -1.3350
  380TIP3    H2 1080   5.905   7.649   5.782  0.8889  0.3406 -0.3391
  381TIP3   OH2 1081   7.800   6.918   6.480 -0.1251  0.1159  0.7985
  381TIP3    H1 1082   7.740   6.867   6.534 -1.2231  1.5404  0.9469
  381TIP3    H2 1083   7.773   7.009   6.492  0.2056  0.5492 -1.4065
  382TIP3   OH2 1084   6.560   7.528   6.659 -0.4090 -0.8973  0.0523
  382TIP3    H1 1085   6.593   7.609   6.621  0.4177 -2.3990 -2.5361
  382TIP3    H2 1086   6.464   7.539   6.660 -0.2402  0.6996  1.1994
  383TIP3   OH2 1087   5.571   1.424   2.831 -0.1908  0.0471  0.3399
  383TIP3    H1 1088   5.512   1.362   2.874 -1.4719  0.7584 -0.3479
  383TIP3    H2 1089   5.516   1.500   2.812  0.7909  0.4735 -0.9099
  384TIP3   OH2 1090   4.624   1.352   1.933 -0.0105 -0.1316 -0.2275
  384TIP3    H1 1091   4.713   1.331   1.961  0.4181  1.2134 -0.5520
  384TIP3    H2 1092   4.569   1.319   2.003  0.6561 -2.0076 -0.5591
  385TIP3   OH2 1093   4.543   1.816   0.773  0.0389 -1.0489  0.0570
  385TIP3    H1 1094   4.596   1.874   0.719  1.0409 -1.6249  0.4024
  385TIP3    H2 1095   4.507   1.752   0.712  2.0491 -2.3430  0.2137
  386TIP3   OH2 1096   3.909   2.932   1.990 -0.0876 -0.2836  0.2911
  386TIP3    H1 1097   3.863   2.921   1.907  0.8861  0.4216 -0.3584
  386TIP3    H2 1098   3.999   2.903   1.971  0.5115  1.2758  0.6865
  387TIP3   OH2 1099   5.192   1.142   1.653  1.2670  0.7497 -0.6907
  387TIP3    H1 1100   5.098   1.156   1.647  1.1851 -0.0859 -1.5184
  387TIP3    H2 1101   5.211   1.143   1.747  0.2148 -0.4540 -0.4443
  388TIP3   OH2 1102   4.757   3.123   2.733 -0.3863  0.0413  0.4604
  388TIP3    H1 1103   4.738   3.088   2.646 -0.2799  1.2393 -0.0468
  388TIP3    H2 1104   4.682   3.177   2.755 -0.3052 -0.0629  1.0176
  389TIP3   OH2 1105   2.613   2.687   1.488  0.3124 -0.3350  0.1582
  389TIP3    H1 1106   2.646   2.603   1.519 -0.5418 -0.9044 -0.4721
  389TIP3    H2 1107   2.574   2.668   1.403  0.5399  0.7873 -0.2159
  390TIP3   OH2 1108   4.251   5.619   6.137  0.4091  0.0879 -0.4192
  390TIP3    H1 1109   4.245   5.606   6.231  1.2407 -0.1794 -0.3998
  390TIP3    H2 1110   4.175   5.672   6.115 -0.3341 -0.6836  0.2499
  391TIP3   OH2 1111   3.268   1.645   2.721 -0.4160  0.6281  0.3231
  391TIP3    H1 1112   3.342   1.596   2.758 -0.2536  1.3119  0.9172
  391TIP3    H2 1113   3.250   1.713   2.786 -2.1077 -0.0428  0.5559
  392TIP3   OH2 1114   0.414   6.215   5.684  0.4933 -0.3949 -0.1865
  392TIP3    H1 1115   0.386   6.127   5.709  0.8566 -0.4213  0.1420
  392TIP3    H2 1116   0.357   6.273   5.734  1.4959 -0.4469  1.0521
  393TIP3   OH2 1117   2.915   0.934   3.489  0.2536 -0.2640  0.0251
  393TIP3    H1 1118   2.863   0.980   3.424 -1.4886 -0.3636  1.3243
  393TIP3    H2 1119   2.940   0.852   3.446 -0.9516 -0.3621 -0.5037
  394TIP3   OH2 1120   3.683   3.469   0.423  0.8375 -0.2597  0.0625
  394TIP3    H1 1121   3.671   3.488   0.330 -0.3593  0.1653  0.2931
  394TIP3    H2 1122   3.616   3.405   0.444  0.2908  0.5712  0.9056
  395TIP3   OH2 1123   4.964   5.934   5.777 -0.6275  0.1119 -0.0208
  395TIP3    H1 1124   5.017   5.916   5.699  0.1923  3.2076 -0.2191
  395TIP3    H2 1125   5.003   5.878   5.845  2.8683  2.1929 -0.1936
  396TIP3   OH2 1126   6.692   4.122   6.172  0.3009  0.2658 -0.1365
  396TIP3    H1 1127   6.711   4.173   6.251  0.2311  0.7556 -0.4394
  396TIP3    H2 1128   6.721   4.033   6.194 -1.9547 -0.1451  1.3227
  397TIP3   OH2 1129   3.939   1.206   3.497  0.0456 -0.1895 -0.5538
  397TIP3    H1 1130   3.902   1.276   3.551  1.6989 -0.6768  1.2676
  397TIP3    H2 1131   3.938   1.242   3.408 -0.4980  1.5867  0.1363
  398TIP3   OH2 1132   3.658   1.876   2.437  0.3007 -0.2916  0.0267
  398TIP3    H1 1133   3.603   1.934   2.489  0.4464 -0.4612  0.3734
  398TIP3    H2 1134   3.597   1.816   2.395  0.3484 -2.0416  2.3116
  399TIP3   OH2 1135   4.092   1.822   1.327 -0.3330  0.1771  0.4701
  399TIP3    H1 1136   4.058   1.911   1.317 -1.6736 -0.4115 -0.3638
  399TIP3    H2 1137   4.031   1.768   1.277  1.3570 -1.0290 -0.3170
  400TIP3   OH2 1138   5.474   0.878   0.211  0.2448 -0.2900  0.1895
  400TIP3    H1 1139   5.513   0.927   0.283  1.2237 -0.2608 -0.3548
  400TIP3    H2 1140   5.537   0.809   0.192  0.7457  0.6588 -1.6722
  401TIP3   OH2 1141   5.636   1.591   3.062  0.5487  0.0457 -0.9459
  401TIP3    H1 1142   5.721   1.577   3.103  0.5661  0.5680 -0.8034
  401TIP3    H2 1143   5.635   1.531   2.987  0.3226 -1.2679  0.0906
  402TIP3   OH2 1144   5.760   1.729   2.302 -0.2558  0.1557 -0.0429
  402TIP3    H1 1145   5.673   1.731   2.262 -0.8460 -0.6428  1.1617
  402TIP3    H2 1146   5.754   1.790   2.375 -0.4163 -1.3325  1.2167
  403TIP3   OH2 1147   4.751   2.773   1.675 -0.0375  0.2050 -0.0300
  403TIP3    H1 1148   4.758   2.794   1.768 -1.7129 -0.8014  0.3524
  403TIP3    H2 1149   4.728   2.856   1.634  0.5920  0.6297  0.4621
  404TIP3   OH2 1150   6.049   2.750   1.647 -0.5101 -0.1835 -0.3284
  404TIP3    H1 1151   6.011   2.830   1.612 -0.5364 -0.8478 -1.8782
  404TIP3    H2 1152   5.990   2.680   1.618 -0.4956 -0.7693  1.0029
  405TIP3   OH2 1153   4.898   7.100   6.171 -0.0063 -0.1807 -0.6384
  405TIP3    H1 1154   4.896   7.044   6.094 -1.1985  1.1504 -1.6262
  405TIP3    H2 1155   4.888   7.041   6.245 -0.0093 -1.3765 -1.5843
  406TIP3   OH2 1156   7.106   6.204   5.961 -0.6926 -0.1513 -0.6542
  406TIP3    H1 1157   7.023   6.159   5.979 -1.3517  0.5898 -1.7688
  406TIP3    H2 1158   7.080   6.294   5.941  0.4609  0.2866 -0.1650
  407TIP3   OH2 1159   4.633   2.624   2.952 -0.0483  0.6747 -0.0795
  407TIP3    H1 1160   4.577   2.688   2.908 -1.4395  0.0058  0.7038
  407TIP3    H2 1161   4.637   2.654   3.043  0.4668  0.4473 -0.0255
  408TIP3   OH2 1162   5.204   1.961   2.417  0.3086  0.4409  0.3067
  408TIP3    H1 1163   5.154   1.914   2.484 -0.7004  0.8542 -0.1612
  408TIP3    H2 1164   5.234   2.040   2.460  0.9419 -0.0173  0.7188
  409TIP3   OH2 1165   4.674   2.130   2.805  0.5375 -0.3915 -0.6418
  409TIP3    H1 1166   4.732   2.111   2.732  0.0032 -1.5071 -0.7803
  409TIP3    H2 1167   4.631   2.047   2.824 -1.5637  0.5664 -1.0275
  410TIP3   OH2 1168   3.210   3.035   2.906  0.0496  0.1186  0.2523
  410TIP3    H1 1169   3.196   3.129   2.898 -1.2096  0.0522  1.4231
  410TIP3    H2 1170   3.267   3.025   2.982 -0.1801 -0.0849  0.4001
  411TIP3   OH2 1171   5.377   1.053   2.616 -0.0195 -0.3516  0.0521
  411TIP3    H1 1172   5.351   1.144   2.621  1.7392  0.1425  0.7201
  411TIP3    H2 1173   5.403   1.040   2.525 -1.8216 -0.6479 -0.4353
  412TIP3   OH2 1174   4.336   3.184   3.870 -0.0927 -0.7170  0.7746
  412TIP3    H1 1175   4.419   3.228   3.891 -0.0080 -0.6848  0.3751
  412TIP3    H2 1176   4.301   3.158   3.955  0.4479 -0.9520  0.9260
  413TIP3   OH2 1177   3.448   2.193   3.704  0.2370  0.1151  0.3097
  413TIP3    H1 1178   3.414   2.186   3.793 -1.4307 -4.2333 -0.5449
  413TIP3    H2 1179   3.542   2.201   3.715  0.1321 -1.1085  2.4820
  414TIP3   OH2 1180   4.766   5.409   5.734 -0.1256 -0.3935  0.1582
  414TIP3    H1 1181   4.769   5.469   5.809  0.7866 -0.0071 -0.1721
  414TIP3    H2 1182   4.690   5.355   5.750  0.1106 -0.3813  1.4262
  415TIP3   OH2 1183   3.081   1.122   0.220  0.0844  0.2027 -0.1977
  415TIP3    H1 1184   3.144   1.144   0.151  0.4676  0.2571  0.1653
  415TIP3    H2 1185   3.018   1.195   0.220  0.1787  0.2813 -0.3809
  416TIP3   OH2 1186   5.822   1.808   1.537 -0.2890  0.2413  0.0311
  416TIP3    H1 1187   5.868   1.845   1.613 -1.3031  0.9124  0.3221
  416TIP3    H2 1188   5.735   1.847   1.540 -0.5947 -0.3405 -1.0343
  417TIP3   OH2 1189   4.275   2.112   2.731  0.2270  0.1384 -0.2276
  417TIP3    H1 1190   4.314   2.101   2.644  0.9266  0.6239  0.0282
  417TIP3    H2 1191   4.280   2.206   2.748  1.5137 -0.1393  1.0054
  418TIP3   OH2 1192   4.755   0.518   2.500 -0.1964 -0.3876 -0.0189
  418TIP3    H1 1193   4.692   0.575   2.544 -0.9515 -0.2136 -1.2741
  418TIP3    H2 1194   4.813   0.488   2.569 -1.1256  0.1599  1.0227
  419TIP3   OH2 1195   5.221   1.448   0.508  0.2678 -0.1474  0.1173
  419TIP3    H1 1196   5.305   1.493   0.502  0.2945 -0.2116 -0.0271
  419TIP3    H2 1197   5.187   1.470   0.594  0.9601 -1.0435  0.6326
  420TIP3   OH2 1198   2.084   6.974   0.166  0.1892 -0.1484  0.0498
  420TIP3    H1 1199   2.047   6.918   0.234 -0.6360  0.7211  0.3204
  420TIP3    H2 1200   2.106   7.055   0.211 -1.5721  0.9234 -0.9480
  421TIP3   OH2 1201   6.683   4.940   5.523 -0.6390  0.1530  0.2129
  421TIP3    H1 1202   6.674   5.004   5.452 -0.3454  1.3670  1.2349
  421TIP3    H2 1203   6.759   4.971   5.573  1.1776 -2.5238 -0.7803
  422TIP3   OH2 1204   4.190   0.771   1.864 -1.1020 -0.2019  0.0844
  422TIP3    H1 1205   4.183   0.748   1.771 -0.4923  1.8087 -0.4872
  422TIP3    H2 1206   4.283   0.788   1.877 -0.8456 -2.5510  1.6098
  423TIP3   OH2 1207   6.928   6.513   6.694 -0.1369 -0.3378  0.2233
  423TIP3    H1 1208   6.938   6.418   6.696  1.0520 -0.2090  0.8878
  423TIP3    H2 1209   6.998   6.546   6.750 -0.4285  0.9415 -0.1404
  424TIP3   OH2 1210   4.158   1.879   1.600 -0.4740  0.1143 -0.6711
  424TIP3    H1 1211   4.130   1.865   1.509  0.7747 -0.4953 -0.9713
  424TIP3    H2 1212   4.251   1.901   1.593  0.1325 -1.9906  0.6139
  425TIP3   OH2 1213   6.724   2.076   2.291 -0.2932  0.1464  0.0324
  425TIP3    H1 1214   6.790   2.008   2.278  0.0003  0.3038  0.7047
  425TIP3    H2 1215   6.660   2.061   2.220  0.9518  0.5869 -1.1963
  426TIP3   OH2 1216   3.753   2.638   1.525  0.0398 -0.2521  0.2095
  426TIP3    H1 1217   3.747   2.600   1.437 -0.4593  0.3223 -0.0091
  426TIP3    H2 1218   3.662   2.642   1.555  0.2106 -0.4407  0.7485
  427TIP3   OH2 1219   5.709   2.381   1.056  0.4412 -0.0289  0.5372
  427TIP3    H1 1220   5.778   2.434   1.095 -0.0100  0.9136  0.0977
  427TIP3    H2 1221   5.702   2.414   0.966  1.8555 -2.5296 -0.5368
  428TIP3   OH2 1222   3.376   0.576   0.600  0.4466  0.1825  0.2576
  428TIP3    H1 1223   3.459   0.607   0.564  1.3456 -1.2987  0.9701
  428TIP3    H2 1224   3.362   0.631   0.677  1.2982 -0.2181  0.7084
  429TIP3   OH2 1225   4.833   1.795   1.461 -0.1386  0.4390  0.8918
  429TIP3    H1 1226   4.799   1.728   1.402  2.8373  1.6461 -2.3834
  429TIP3    H2 1227   4.883   1.745   1.526  0.5491 -0.7009 -0.4513
  430TIP3   OH2 1228   6.217   3.146   0.077 -0.2812 -0.2808 -0.1683
  430TIP3    H1 1229   6.310   3.145   0.101 -0.9535  1.2287  2.6941
  430TIP3    H2 1230   6.196   3.240   0.072 -2.5708 -0.5395  3.1412
  431TIP3   OH2 1231   5.196   1.307   0.773 -0.6599  0.0325 -0.4063
  431TIP3    H1 1232   5.123   1.266   0.727  0.3150 -1.4008 -0.7397
  431TIP3    H2 1233   5.174   1.302   0.865 -0.1328 -2.1586 -0.3759
  432TIP3   OH2 1234   4.878   3.038   1.736  0.1843 -0.1209  0.2540
  432TIP3    H1 1235   4.878   3.134   1.733  0.4088 -0.1413 -0.6806
  432TIP3    H2 1236   4.865   3.017   1.828  1.0380  0.8174  0.6084
  433TIP3   OH2 1237   5.411   2.152   2.953 -0.2973  0.2376 -0.2382
  433TIP3    H1 1238   5.428   2.224   3.014 -0.4052  0.5650 -0.5889
  433TIP3    H2 1239   5.317   2.137   2.960 -0.0502 -0.8967  0.9560
  434TIP3   OH2 1240   3.855   0.797   0.338 -0.2227 -0.7541  0.2740
  434TIP3    H1 1241   3.927   0.767   0.394  0.9046  0.7245 -0.3370
  434TIP3    H2 1242   3.825   0.718   0.293  1.6053 -1.2750 -0.0900
  435TIP3   OH2 1243   1.583   0.439   0.858 -0.2060  0.5012  0.1981
  435TIP3    H1 1244   1.631   0.369   0.814 -1.5528 -1.8547  2.3449
  435TIP3    H2 1245   1.570   0.407   0.947 -1.4807  3.1943  1.0275
  436TIP3   OH2 1246   3.271   1.187   2.296 -0.2505  0.3344  0.5363
  436TIP3    H1 1247   3.178   1.211   2.293 -0.4820 -0.7266 -2.3493
  436TIP3    H2 1248   3.316   1.259   2.251  0.3833  0.8661  1.9612
  437TIP3   OH2 1249   2.203   7.370   2.599  0.4895 -0.2294 -0.0039
  437TIP3    H1 1250   2.261   7.437   2.635  0.6321  0.6161 -1.7427
  437TIP3    H2 1251   2.191   7.395   2.507  0.2552 -2.4016 -0.5987
  438TIP3   OH2 1252   2.023   1.007   6.234  0.2676  0.1647 -0.0295
  438TIP3    H1 1253   1.946   1.022   6.289  0.3376  0.1112  0.0812
  438TIP3    H2 1254   2.085   0.962   6.291  0.5372  0.5701 -0.0024
  439TIP3   OH2 1255   3.443   1.109   1.625 -0.1842 -0.2104  0.3002
  439TIP3    H1 1256   3.361   1.130   1.580  0.0728  1.5198  0.5876
  439TIP3    H2 1257   3.435   1.017   1.648 -3.1922  0.5642  2.6892
  440TIP3   OH2 1258   4.811   4.346   1.949 -0.1380 -0.8339 -0.0213
  440TIP3    H1 1259   4.800   4.400   1.871  1.6589 -0.9600 -0.4034
  440TIP3    H2 1260   4.731   4.358   1.999 -0.4170  0.9368 -0.8628
  441TIP3   OH2 1261   5.565   1.908   2.163  0.2761 -0.4575 -0.4927
  441TIP3    H1 1262   5.579   1.972   2.233  0.3638 -1.6936  0.6412
  441TIP3    H2 1263   5.475   1.877   2.177  0.2359 -0.5891 -1.0266
  442TIP3   OH2 1264   7.325   2.267   1.637  0.0358 -0.5681 -0.1388
  442TIP3    H1 1265   7.245   2.288   1.687 -1.0342 -0.7118 -1.7654
  442TIP3    H2 1266   7.358   2.352   1.610 -0.0921 -0.5617 -0.2759
  443TIP3   OH2 1267   1.925   2.976   2.532  0.5716 -0.5131  0.1280
  443TIP3    H1 1268   1.838   3.007   2.555  0.4860 -1.0664  0.5307
  443TIP3    H2 1269   1.981   3.052   2.545 -0.0665  0.2813 -1.5447
  444TIP3   OH2 1270   5.992   0.465   4.101 -0.2000  0.1717  0.1457
  444TIP3    H1 1271   6.021   0.453   4.011 -1.7087  3.3640 -0.8475
  444TIP3    H2 1272   5.993   0.560   4.114 -1.5241 -0.1499  2.9505
  445TIP3   OH2 1273   3.417   2.375   3.507 -0.6643  0.0722 -0.1404
  445TIP3    H1 1274   3.410   2.312   3.579  0.0627  0.6574  0.4336
  445TIP3    H2 1275   3.371   2.452   3.538  1.1931  0.9782  0.4187
  446TIP3   OH2 1276   6.441   4.507   6.871 -0.0519 -0.0923  0.2627
  446TIP3    H1 1277   6.422   4.591   6.914  2.1436  0.2994  0.5014
  446TIP3    H2 1278   6.461   4.531   6.780  1.5284 -0.2585  0.5674
  447TIP3   OH2 1279   7.328   6.426   4.992 -0.1005 -0.0648  0.0403
  447TIP3    H1 1280   7.398   6.412   5.056 -0.8221 -0.2773  0.7957
  447TIP3    H2 1281   7.368   6.402   4.908  0.2669 -1.6802  0.6587
  448TIP3   OH2 1282   4.907   1.102   3.594 -0.2675 -0.2187 -0.3775
  448TIP3    H1 1283   5.003   1.108   3.596 -0.2178 -0.3304 -1.6870
  448TIP3    H2 1284   4.879   1.186   3.557 -0.5828 -0.7521 -1.3679
  449TIP3   OH2 1285   5.822   4.451   2.507 -0.6555 -0.0578 -0.0415
  449TIP3    H1 1286   5.819   4.413   2.594  0.1068  1.3342  0.6056
  449TIP3    H2 1287   5.777   4.387   2.451 -1.5994 -0.7205  1.4470
  450TIP3   OH2 1288   3.039   1.860   0.180 -0.4538 -0.3503 -0.1606
  450TIP3    H1 1289   3.134   1.862   0.180 -0.4637  0.5373 -0.2849
  450TIP3    H2 1290   3.013   1.951   0.165 -1.3172 -0.6134 -0.3290
  451TIP3   OH2 1291   4.684   3.831   1.063  0.5367 -0.4007 -0.3647
  451TIP3    H1 1292   4.741   3.885   1.008 -0.5474  1.1812  0.0063
  451TIP3    H2 1293   4.614   3.802   1.005  0.2662 -0.0788 -0.2035
  452TIP3   OH2 1294   4.298   1.664   1.258 -0.1689 -0.1600  0.9288
  452TIP3    H1 1295   4.271   1.643   1.347  0.2150  0.4054  1.1858
  452TIP3    H2 1296   4.244   1.739   1.234  0.9335  0.7847  1.3371
  453TIP3   OH2 1297   4.263   1.269   0.398  0.0483 -0.3817  0.4678
  453TIP3    H1 1298   4.210   1.271   0.478  2.1101  0.3753  1.8762
  453TIP3    H2 1299   4.276   1.176   0.380 -1.2247 -0.5673  0.4530
  454TIP3   OH2 1300   5.333   2.188   1.148 -0.1106 -0.2257  0.4794
  454TIP3    H1 1301   5.381   2.146   1.220  1.6255 -1.1412 -1.1664
  454TIP3    H2 1302   5.323   2.279   1.176  0.2320 -0.6402  2.0268
  455TIP3   OH2 1303   4.642   3.951   0.593 -0.0929 -0.0885 -0.2675
  455TIP3    H1 1304   4.737   3.948   0.598 -0.1369  0.2967  0.8436
  455TIP3    H2 1305   4.624   4.008   0.517  0.5546  0.0243 -0.3369
  456TIP3   OH2 1306   4.021   1.389   0.584 -0.4983  0.0018  0.3254
  456TIP3    H1 1307   3.972   1.376   0.666 -1.3158 -0.1244 -0.1719
  456TIP3    H2 1308   3.994   1.316   0.528 -0.9261  0.7947 -0.5145
  457TIP3   OH2 1309   4.101   3.934   1.113  0.5421  0.1815 -0.2179
  457TIP3    H1 1310   4.156   4.009   1.087 -1.2449  1.4089 -0.5683
  457TIP3    H2 1311   4.140   3.904   1.195  0.4870  2.3700  0.6497
  458TIP3   OH2 1312   3.697   0.160   1.909 -0.6597  0.3241 -0.5683
  458TIP3    H1 1313   3.739   0.246   1.902 -0.4921  0.3419  0.5595
  458TIP3    H2 1314   3.718   0.130   1.997 -0.3882 -1.0632 -1.0957
  459TIP3   OH2 1315   3.754   4.669   0.647  0.2085  0.3145 -0.2619
  459TIP3    H1 1316   3.828   4.725   0.623 -0.2832  0.7975 -0.6456
  459TIP3    H2 1317   3.776   4.583   0.611  1.1414  0.1584  0.6483
  460TIP3   OH2 1318   5.224   3.020   0.232  0.0968  0.7405  0.0835
  460TIP3    H1 1319   5.239   3.040   0.140  1.9047  0.5936  0.3293
  460TIP3    H2 1320   5.236   2.925   0.238  1.6636  0.9754  0.7686
  461TIP3   OH2 1321   3.220   0.904   3.955 -0.3331 -0.2045 -0.0091
  461TIP3    H1 1322   3.141   0.851   3.969 -0.3308  0.2368  1.7703
  461TIP3    H2 1323   3.244   0.886   3.864 -1.7057 -1.3944 -0.1698
  462TIP3   OH2 1324   5.700   4.361   3.315 -0.0810 -0.4181 -0.3575
  462TIP3    H1 1325   5.764   4.293   3.338  0.5515  0.4868  0.6075
  462TIP3    H2 1326   5.615   4.318   3.323  0.3704 -1.4767 -1.1131
  463TIP3   OH2 1327   5.183   1.395   3.365  0.2920 -0.5716  0.5441
  463TIP3    H1 1328   5.230   1.405   3.447 -0.8340  0.9491  1.0301
  463TIP3    H2 1329   5.211   1.469   3.312 -2.1614  0.8776  1.1755
  464TIP3   OH2 1330   3.838   2.978   0.174  0.0099 -0.1488  0.2905
  464TIP3    H1 1331   3.857   3.015   0.261 -0.0945  0.1347  0.1936
  464TIP3    H2 1332   3.813   2.887   0.192  1.9896 -0.6991  0.3575
  465TIP3   OH2 1333   8.524   6.698   3.671  0.5685  0.5132  0.1904
  465TIP3    H1 1334   8.494   6.608   3.676  1.3252  0.1825 -1.2169
  465TIP3    H2 1335   8.443   6.750   3.671  0.1257 -0.1607  0.7060
  466TIP3   OH2 1336   5.885   2.555   1.527  0.0282  0.6295  0.2067
  466TIP3    H1 1337   5.866   2.469   1.564  0.3896  0.5151  0.1228
  466TIP3    H2 1338   5.810   2.609   1.554 -1.0946 -0.1589 -1.2963
  467TIP3   OH2 1339   5.607   1.460   4.808  0.4475  0.5920 -0.1679
  467TIP3    H1 1340   5.643   1.545   4.784  0.2895  0.6329 -0.2610
  467TIP3    H2 1341   5.578   1.422   4.724 -0.9749  1.1322  0.0621
  468TIP3   OH2 1342   6.308   2.584   2.800 -0.5775  0.3161 -0.3578
  468TIP3    H1 1343   6.319   2.672   2.835 -0.2374  0.2028 -0.1749
  468TIP3    H2 1344   6.380   2.574   2.737  0.8855 -0.7208  1.4308
  469TIP3   OH2 1345   4.125   7.629   2.498  0.0595 -0.0385 -0.4398
  469TIP3    H1 1346   4.100   7.599   2.586  0.3094 -0.4735 -0.5166
  469TIP3    H2 1347   4.071   7.577   2.439  0.5325 -0.3823 -0.5741
  470TIP3   OH2 1348   6.343   3.415   0.782 -0.0323  0.1833 -0.0302
  470TIP3    H1 1349   6.426   3.458   0.801 -0.0637 -0.2670  1.1799
  470TIP3    H2 1350   6.359   3.363   0.704  1.1329 -0.7555  0.8298
  471TIP3   OH2 1351   2.568   0.135   5.783 -0.0977 -0.0400 -0.3224
  471TIP3    H1 1352   2.493   0.076   5.785  0.6331 -0.9984 -0.5750
  471TIP3    H2 1353   2.572   0.165   5.692  0.7476 -1.2161 -0.6850
  472TIP3   OH2 1354   6.202   1.014   0.187 -0.1841 -0.1934  0.0220
  472TIP3    H1 1355   6.185   1.071   0.112  2.8359 -0.3764 -0.8720
  472TIP3    H2 1356   6.188   0.926   0.155  0.7674 -0.2520 -0.2493
  473TIP3   OH2 1357   7.243   4.129   1.348 -0.2581  0.4563  0.1616
  473TIP3    H1 1358   7.329   4.097   1.376 -1.0628  0.8837  3.2279
  473TIP3    H2 1359   7.257   4.222   1.332  0.1351  0.2677 -0.6498
  474TIP3   OH2 1360   3.894   2.029   1.430 -0.3151 -0.3253  0.4003
  474TIP3    H1 1361   3.811   2.012   1.475 -0.7536 -1.2254 -0.6894
  474TIP3    H2 1362   3.949   2.072   1.495 -2.1637  1.7055  0.6801
  475TIP3   OH2 1363   3.283   2.518   0.439 -0.1808 -0.4899  0.7053
  475TIP3    H1 1364   3.252   2.604   0.466  1.0831 -0.6759  2.8837
  475TIP3    H2 1365   3.364   2.535   0.392  0.5757 -0.5288  1.9692
  476TIP3   OH2 1366   6.859   0.916   1.746 -0.4835  0.2896 -0.2098
  476TIP3    H1 1367   6.876   0.827   1.775  0.1897  0.4319 -0.1629
  476TIP3    H2 1368   6.892   0.971   1.816 -0.3018  0.5931 -0.5333
  477TIP3   OH2 1369   7.395   3.263   0.551 -0.1768 -0.2898  0.0557
  477TIP3    H1 1370   7.386   3.264   0.646 -0.7108 -0.4006  0.0107
  477TIP3    H2 1371   7.393   3.170   0.528  0.3743 -0.2834 -0.0279
  478TIP3   OH2 1372   6.826   1.609   1.882  0.2197  0.3202 -0.1136
  478TIP3    H1 1373   6.839   1.555   1.960  2.5952 -0.6114 -1.1029
  478TIP3    H2 1374   6.793   1.547   1.816  0.2005  0.6707 -0.4308
  479TIP3   OH2 1375   3.503   0.297   6.466  0.3049 -0.0692 -0.6840
  479TIP3    H1 1376   3.444   0.366   6.436  1.4435  1.6883  0.9638
  479TIP3    H2 1377   3.446   0.233   6.507 -0.7165  0.2035 -1.6391
  480TIP3   OH2 1378   1.940   7.026   6.565 -0.2737  0.4316  0.0893
  480TIP3    H1 1379   1.939   7.080   6.485  3.1186  1.5243  0.7166
  480TIP3    H2 1380   2.000   7.072   6.624 -0.1100 -2.1718  1.9986
  481TIP3   OH2 1381   6.031   1.775   2.315  0.4547 -0.1878  0.4165
  481TIP3    H1 1382   6.080   1.734   2.386  1.5383  0.7631  0.2345
  481TIP3    H2 1383   5.941   1.743   2.326  0.6249 -0.1216  2.1555
  482TIP3   OH2 1384   5.626   3.828   1.543  0.3006  0.1535 -0.6091
  482TIP3    H1 1385   5.554   3.797   1.487 -0.0261  2.4811 -1.5102
  482TIP3    H2 1386   5.646   3.753   1.599 -3.6480 -0.1571  0.5020
  483TIP3   OH2 1387   5.898   2.840   1.139  0.3692 -0.5101 -0.1537
  483TIP3    H1 1388   5.965   2.873   1.080  0.4248  0.3050  0.3649
  483TIP3    H2 1389   5.825   2.816   1.082  0.2957  0.5791 -0.5174
  484TIP3   OH2 1390   6.560   2.894   0.900 -0.3489 -0.4402 -0.2111
  484TIP3    H1 1391   6.522   2.979   0.879 -1.9951 -0.7582  1.3291
  484TIP3    H2 1392   6.570   2.895   0.995  3.7897 -0.2928 -0.5585
  485TIP3   OH2 1393   4.763   2.451   1.650 -0.6897 -0.1163 -0.4107
  485TIP3    H1 1394   4.789   2.420   1.563 -2.2891 -0.9688 -0.6247
  485TIP3    H2 1395   4.750   2.545   1.639  0.6184  0.0425 -0.6960
  486TIP3   OH2 1396   8.024   1.286   0.808  0.0671 -0.2748  0.4324
  486TIP3    H1 1397   8.035   1.231   0.730  0.4924  1.3502 -0.6881
  486TIP3    H2 1398   7.972   1.233   0.868 -1.0289 -1.2306 -1.3288
  487TIP3   OH2 1399   8.010   2.347   0.435 -0.2982 -0.0994 -0.4666
  487TIP3    H1 1400   8.023   2.442   0.438 -0.9334 -0.0308  0.5304
  487TIP3    H2 1401   8.046   2.320   0.351  1.6052  0.7628  0.0514
  488TIP3   OH2 1402   5.447   0.513   2.206 -0.3641 -0.5798  0.0900
  488TIP3    H1 1403   5.480   0.428   2.176 -3.7802 -1.3558 -1.8023
  488TIP3    H2 1404   5.446   0.567   2.128  0.0660  0.6297  0.9119
  489TIP3   OH2 1405   6.847   0.871   1.199  0.4517  0.2988  0.5531
  489TIP3    H1 1406   6.845   0.878   1.295 -1.3941 -0.8617  0.6218
  489TIP3    H2 1407   6.916   0.931   1.172  0.7560  0.9007  2.5926
  490TIP3   OH2 1408   0.234   3.471   6.635 -0.3616 -0.2729 -0.1139
  490TIP3    H1 1409   0.264   3.559   6.659 -0.0798 -0.3600 -0.1394
  490TIP3    H2 1410   0.193   3.438   6.715  1.1545 -0.8093  0.4696
  491TIP3   OH2 1411   6.876   1.910   1.120  0.4679  0.5266 -0.2583
  491TIP3    H1 1412   6.797   1.941   1.164  0.2198 -0.6920  0.1542
  491TIP3    H2 1413   6.927   1.990   1.105 -0.2488  1.1611  0.6138
  492TIP3   OH2 1414   0.199   6.240   5.346 -0.3261 -0.1317 -0.1888
  492TIP3    H1 1415   0.292   6.262   5.346 -0.4462  0.6219 -3.6607
  492TIP3    H2 1416   0.154   6.325   5.346 -0.9594 -0.4581 -0.6206
  493TIP3   OH2 1417   4.818   3.718   1.631  0.5370 -0.4499  0.5637
  493TIP3    H1 1418   4.766   3.642   1.603 -0.7022  1.0431 -1.3884
  493TIP3    H2 1419   4.878   3.734   1.558  0.8882  0.3590  1.0264
  494TIP3   OH2 1420   5.793   5.170   1.079 -0.0423 -0.5949 -0.0894
  494TIP3    H1 1421   5.851   5.103   1.116 -0.2436  0.3401  2.0188
  494TIP3    H2 1422   5.837   5.253   1.096 -0.2514 -0.1197 -1.8149
  495TIP3   OH2 1423   0.371   5.834   6.222  0.4178  0.4120 -0.0391
  495TIP3    H1 1424   0.369   5.903   6.156  2.3872  0.1188 -0.4442
  495TIP3    H2 1425   0.327   5.872   6.298 -1.5752  0.8759 -1.3773
  496TIP3   OH2 1426   5.891   2.545   1.256  0.1635  0.4654 -0.1835
  496TIP3    H1 1427   5.877   2.548   1.351 -3.3160  1.8336 -0.6752
  496TIP3    H2 1428   5.907   2.636   1.231 -1.9006  0.5819 -1.2492
  497TIP3   OH2 1429   2.376   7.969   2.126  0.0834 -0.4061  0.0319
  497TIP3    H1 1430   2.320   7.895   2.099  0.7308 -0.7932 -0.2665
  497TIP3    H2 1431   2.324   8.047   2.103 -0.4821 -0.7630  0.0757
  498TIP3   OH2 1432   6.056   4.030   0.901 -0.4835  0.1702 -0.7375
  498TIP3    H1 1433   6.129   4.063   0.848  1.3845 -0.7559  1.1581
  498TIP3    H2 1434   6.076   3.937   0.914 -0.1377  0.6412  2.6493
  499TIP3   OH2 1435   8.284   7.437   6.554 -0.0806 -0.3732 -0.4434
  499TIP3    H1 1436   8.310   7.425   6.463  0.9122  1.1009 -0.3633
  499TIP3    H2 1437   8.199   7.481   6.549  0.7463  1.2641 -0.6809
  500TIP3   OH2 1438   6.444   3.966   1.139  0.0888 -0.3390  0.1524
  500TIP3    H1 1439   6.534   3.998   1.149  0.7539 -2.2120  0.2483
  500TIP3    H2 1440   6.420   3.937   1.227  0.4765 -2.6500 -0.4905
  501TIP3   OH2 1441   7.117   2.392   0.367  0.2140  0.8240 -0.0309
  501TIP3    H1 1442   7.156   2.436   0.292 -0.1337  0.6373 -0.3243
  501TIP3    H2 1443   7.023   2.387   0.346  0.0890  0.9372  0.4986
  502TIP3   OH2 1444   0.533   6.268   6.778 -0.1070 -0.2222 -0.1520
  502TIP3    H1 1445   0.485   6.240   6.856 -1.0512 -0.7236 -0.9099
  502TIP3    H2 1446   0.482   6.340   6.742 -0.9518 -1.5236 -1.6222
  503TIP3   OH2 1447   3.652   2.306   0.050 -0.7569  0.1352  0.0675
  503TIP3    H1 1448   3.738   2.346   0.061 -1.4862  1.9149 -0.4262
  503TIP3    H2 1449   3.629   2.323  -0.042 -1.1240 -1.3931 -0.1391
  504TIP3   OH2 1450   7.449   2.182   1.093  0.3719  0.2666  0.4039
  504TIP3    H1 1451   7.453   2.264   1.043 -1.8270  1.4872  2.1038
  504TIP3    H2 1452   7.464   2.209   1.184  0.4574 -1.3397  0.8855
  505TIP3   OH2 1453   6.386   6.605   6.703 -0.0746  0.0693 -0.0630
  505TIP3    H1 1454   6.404   6.534   6.764 -0.2798 -0.4684 -0.6280
  505TIP3    H2 1455   6.471   6.626   6.664 -0.2026 -0.6593 -0.7539
  506TIP3   OH2 1456   6.153   0.137   2.514  0.5636  0.0495  0.9565
  506TIP3    H1 1457   6.235   0.109   2.474  0.0768  0.7709 -0.5779
  506TIP3    H2 1458   6.146   0.230   2.492 -0.8123 -0.0898  0.7793
  507TIP3   OH2 1459   5.595   1.910   1.856  0.6116 -0.2302  0.9129
  507TIP3    H1 1460   5.532   1.868   1.915 -1.8575  1.2393 -0.5502
  507TIP3    H2 1461   5.597   2.001   1.883  1.2809 -0.0380  0.2449
  508TIP3   OH2 1462   0.903   6.530   6.378  0.1920 -0.0914  0.5291
  508TIP3    H1 1463   0.922   6.621   6.404 -0.1198 -0.2280  1.2692
  508TIP3    H2 1464   0.868   6.490   6.458  1.6263 -1.2529  0.6000
  509TIP3   OH2 1465   4.121   7.940   2.182 -0.1830 -0.0093  0.0233
  509TIP3    H1 1466   4.096   7.890   2.104 -0.1684 -1.3244  0.8439
  509TIP3    H2 1467   4.048   8.001   2.196 -2.4178 -2.9431  1.6581
  510TIP3   OH2 1468   5.830   1.471   2.255  0.5203  0.1627  0.5088
  510TIP3    H1 1469   5.821   1.564   2.275 -1.4469  0.0313  0.3909
  510TIP3    H2 1470   5.847   1.429   2.339  2.6601  0.7492  0.3918
  511TIP3   OH2 1471   6.679   2.423   3.223 -0.1725 -0.1248  0.2959
  511TIP3    H1 1472   6.753   2.443   3.166 -0.4183 -1.1875 -0.4182
  511TIP3    H2 1473   6.605   2.414   3.163 -1.0949  1.8622  1.0870
  512TIP3   OH2 1474   7.584   3.092   0.760 -0.3240 -0.2320  0.2505
  512TIP3    H1 1475   7.585   3.099   0.665 -2.2136 -2.0691  0.0583
  512TIP3    H2 1476   7.522   3.160   0.788  0.0944  0.1845  0.1814
  513TIP3   OH2 1477   5.319   2.020   2.666 -0.4153 -0.0060  0.0017
  513TIP3    H1 1478   5.379   2.067   2.724 -1.6047  0.8432  0.5616
  513TIP3    H2 1479   5.300   1.938   2.712  1.1137 -0.7615 -0.6593
  514TIP3   OH2 1480   0.583   3.543   6.699  0.2940  0.2335 -0.2103
  514TIP3    H1 1481   0.644   3.470   6.684  1.4615  1.0252  0.5875
  514TIP3    H2 1482   0.595   3.565   6.792 -1.0204  0.5853 -0.1164
  515TIP3   OH2 1483   6.752   1.429   2.607 -0.0175  0.1840 -0.0749
  515TIP3    H1 1484   6.779   1.520   2.594 -1.4459  0.5290 -0.8188
  515TIP3    H2 1485   6.709   1.430   2.693 -0.2805  0.2841 -0.2054
  516TIP3   OH2 1486   5.107   3.009   2.181 -0.0090  0.1867  0.3299
  516TIP3    H1 1487   5.109   2.966   2.095  0.5130 -0.9939  0.9140
  516TIP3    H2 1488   5.017   3.000   2.210  0.3272 -1.4982  0.9151
  517TIP3   OH2 1489   6.927   2.107   1.416  0.6095  0.1985 -0.6963
  517TIP3    H1 1490   6.971   2.191   1.401  1.0302  0.1680  0.3979
  517TIP3    H2 1491   6.993   2.041   1.394  0.8806  0.1544  0.2438
  518TIP3   OH2 1492   6.998   4.536   6.282 -0.4706  0.2856  0.4934
  518TIP3    H1 1493   7.035   4.624   6.287 -1.7309  0.7397  2.3449
  518TIP3    H2 1494   6.916   4.547   6.233  0.3793 -0.2331 -1.0862
  519TIP3   OH2 1495   8.375   5.006   6.068 -0.0481  0.0401 -0.0265
  519TIP3    H1 1496   8.313   4.978   6.134 -0.5923  0.7649 -0.2232
  519TIP3    H2 1497   8.442   5.054   6.117 -0.7099  1.0091 -0.0431
  520TIP3   OH2 1498   7.761   5.414   0.798 -0.0895 -0.3988  0.0944
  520TIP3    H1 1499   7.666   5.414   0.802 -0.0846  0.2148  0.3051
  520TIP3    H2 1500   7.789   5.419   0.889  0.1525 -1.5658  0.0876
  521TIP3   OH2 1501   6.684   4.413   1.567 -0.5911 -0.0756 -0.1082
  521TIP3    H1 1502   6.752   4.402   1.633 -0.7164  1.1514  0.2374
  521TIP3    H2 1503   6.604   4.385   1.611 -0.5549  0.0185  0.0194
  522TIP3   OH2 1504   7.980   0.694   0.486 -0.5323 -0.3047  0.1427
  522TIP3    H1 1505   7.964   0.677   0.393 -0.9701  1.2640 -0.0866
  522TIP3    H2 1506   8.069   0.728   0.490 -0.8093  0.4363  0.1777
  523TIP3   OH2 1507   5.753   2.478   1.915  0.9669  0.1591  0.2761
  523TIP3    H1 1508   5.832   2.429   1.938  0.9821 -0.1176 -0.3522
  523TIP3    H2 1509   5.689   2.453   1.981  1.3864  0.3347  0.7514
  524TIP3   OH2 1510   4.431   2.968   0.787 -0.2262 -0.5446  0.5816
  524TIP3    H1 1511   4.393   3.041   0.737  0.8518  0.5721  1.3585
  524TIP3    H2 1512   4.408   2.987   0.878  2.8222  0.6264  1.1925
  525TIP3   OH2 1513   1.342   0.460   6.608 -0.4825  0.0523 -0.0676
  525TIP3    H1 1514   1.267   0.402   6.595 -0.6136  0.5319 -1.5274
  525TIP3    H2 1515   1.367   0.448   6.700 -2.7291  0.3406  0.6053
  526TIP3   OH2 1516   6.833   1.481   1.080 -0.6151  0.3518 -0.0700
  526TIP3    H1 1517   6.929   1.480   1.082 -0.5860  0.4315 -1.1416
  526TIP3    H2 1518   6.808   1.526   1.161  0.3104  2.3715 -0.8597
  527TIP3   OH2 1519   6.883   2.423   0.221 -0.4332  0.3945  0.1974
  527TIP3    H1 1520   6.819   2.386   0.161 -0.9242 -0.5731  1.2980
  527TIP3    H2 1521   6.846   2.508   0.246 -0.4940  0.5515 -0.4054
  528TIP3   OH2 1522   5.698   4.489   3.061 -0.2282  0.1382  0.0616
  528TIP3    H1 1523   5.681   4.456   3.150  1.5194 -0.0500  0.3370
  528TIP3    H2 1524   5.793   4.484   3.052 -0.2911  1.4412 -1.3349
  529TIP3   OH2 1525   7.577   2.762   1.657 -0.3182 -0.4419 -0.0775
  529TIP3    H1 1526   7.595   2.791   1.568  0.2877 -2.6394 -0.6987
  529TIP3    H2 1527   7.519   2.830   1.693  0.3967  1.0778 -1.7167
  530TIP3   OH2 1528   6.819   1.633   5.023 -0.3802  0.1390  0.3892
  530TIP3    H1 1529   6.893   1.637   4.962 -1.5950 -1.5801 -1.2667
  530TIP3    H2 1530   6.769   1.713   5.005 -1.1091 -0.6857 -1.4309
  531TIP3   OH2 1531   0.276   7.581   6.496  0.3463 -0.2744 -0.2994
  531TIP3    H1 1532   0.326   7.534   6.563 -0.3871  2.2917  2.1590
  531TIP3    H2 1533   0.340   7.639   6.454  0.2955  0.0332  0.0388
  532TIP3   OH2 1534   1.643   6.704   6.876  0.7362 -0.1314  0.4831
  532TIP3    H1 1535   1.604   6.725   6.961 -0.4337 -2.0705  0.4639
  532TIP3    H2 1536   1.574   6.721   6.813  0.3984 -2.0188  0.2919
  533TIP3   OH2 1537   3.993   2.410   1.672 -0.1774  0.8180 -0.0287
  533TIP3    H1 1538   4.013   2.497   1.640  2.4366 -0.0127 -0.7634
  533TIP3    H2 1539   4.048   2.399   1.750  1.0536 -0.8875 -1.1015
  534TIP3   OH2 1540   3.645   1.490   0.480  0.0557 -0.1742  0.1405
  534TIP3    H1 1541   3.665   1.578   0.449 -2.1340  0.0789 -0.6494
  534TIP3    H2 1542   3.634   1.500   0.575  0.5746  0.2670  0.1520
  535TIP3   OH2 1543   6.162   2.900   0.643  0.3931 -0.2608  0.2157
  535TIP3    H1 1544   6.225   2.864   0.581  1.4768  0.4558  0.8988
  535TIP3    H2 1545   6.078   2.897   0.597  1.6297  2.9810 -2.4331
  536TIP3   OH2 1546   0.838   5.816   6.562  0.1946  0.4503  0.2398
  536TIP3    H1 1547   0.756   5.852   6.595  0.8859  1.9007  0.3959
  536TIP3    H2 1548   0.821   5.794   6.470 -1.1115 -1.6399  0.9494
  537TIP3   OH2 1549   6.888   0.884   3.146  0.0777 -0.2413  0.4609
  537TIP3    H1 1550   6.830   0.826   3.196 -0.3959  0.2433  0.4847
  537TIP3    H2 1551   6.970   0.885   3.195  0.4985 -1.8261 -0.1731
  538TIP3   OH2 1552   0.159   1.863   1.552  0.6686  0.5698 -0.1819
  538TIP3    H1 1553   0.175   1.847   1.645 -1.4764 -0.3478  0.0572
  538TIP3    H2 1554   0.157   1.775   1.513  2.0890  0.9723 -1.2051
  539TIP3   OH2 1555   3.939   2.513   0.978  0.4464 -0.4013 -0.7856
  539TIP3    H1 1556   3.905   2.602   0.987  1.3091 -0.2077  0.7482
  539TIP3    H2 1557   3.982   2.495   1.061 -1.5313 -3.0584 -0.2545
  540TIP3   OH2 1558   3.829   7.041   1.001  0.0880  0.1296 -0.1347
  540TIP3    H1 1559   3.743   7.004   0.981 -0.8434  1.6522  0.9431
  540TIP3    H2 1560   3.838   7.032   1.095  0.0720  2.1297  0.0775
  541TIP3   OH2 1561   2.002   6.682   6.067 -0.1324  0.0038  0.1706
  541TIP3    H1 1562   2.021   6.756   6.124  0.0906  0.8390 -0.9709
  541TIP3    H2 1563   2.007   6.718   5.978  0.0691 -1.3932 -0.3986
  542TIP3   OH2 1564   0.840   7.021   5.940  0.3547 -0.2929 -0.0162
  542TIP3    H1 1565   0.922   6.986   5.906 -0.8571 -1.0944 -2.2304
  542TIP3    H2 1566   0.818   6.965   6.014  0.3355 -1.8799 -1.2089
  543TIP3   OH2 1567   5.607   2.260   1.665 -0.6953  0.0352 -0.0909
  543TIP3    H1 1568   5.591   2.247   1.758 -1.1169 -1.7140 -0.3969
  543TIP3    H2 1569   5.581   2.351   1.649 -0.2674  0.4596  1.5619
  544TIP3   OH2 1570   5.628   4.361   1.112  0.1298 -0.3503 -0.2981
  544TIP3    H1 1571   5.539   4.326   1.112  0.5516 -1.5898  2.8466
  544TIP3    H2 1572   5.679   4.295   1.066 -0.2772 -0.4901 -0.5555
  545TIP3   OH2 1573   4.955   3.890   1.999 -0.0215  0.0290  0.7781
  545TIP3    H1 1574   5.015   3.894   1.924  0.2982  0.6608  1.0641
  545TIP3    H2 1575   4.930   3.798   2.004  1.5252 -0.3820  1.1285
  546TIP3   OH2 1576   5.720   3.283   0.664  0.1868 -0.1939  0.4867
  546TIP3    H1 1577   5.776   3.206   0.676 -0.0904 -0.2908  1.1817
  546TIP3    H2 1578   5.737   3.337   0.741 -0.0288  0.1827  0.2709
  547TIP3   OH2 1579   6.908   2.400   1.995 -0.0823  0.8630 -0.1608
  547TIP3    H1 1580   6.815   2.416   2.010  0.4145  2.9883  0.8441
  547TIP3    H2 1581   6.937   2.350   2.072  0.0718  2.1223  0.6082
  548TIP3   OH2 1582   6.006   0.378   1.653 -0.4109 -0.1492 -0.0035
  548TIP3    H1 1583   5.985   0.333   1.572 -0.2157  1.2312 -0.8248
  548TIP3    H2 1584   6.069   0.321   1.697 -0.8038 -1.0715 -0.6340
  549TIP3   OH2 1585   2.350   5.340   5.278 -0.2294 -0.4315  0.4901
  549TIP3    H1 1586   2.417   5.301   5.334 -0.5090  0.4576  1.4563
  549TIP3    H2 1587   2.271   5.339   5.330 -0.5543  0.1685  0.0188
  550TIP3   OH2 1588   4.846   3.387   0.293 -0.2570  0.4880  0.6031
  550TIP3    H1 1589   4.855   3.299   0.258  2.4707  0.8006  0.3814
  550TIP3    H2 1590   4.829   3.374   0.387  2.3233 -0.3126  1.0089
  551TIP3   OH2 1591   2.811   0.148   0.392  0.1543 -0.2669 -0.7683
  551TIP3    H1 1592   2.745   0.080   0.378  1.4909 -1.4133 -1.6912
  551TIP3    H2 1593   2.889   0.100   0.420  0.2238  1.1940  1.7493
  552TIP3   OH2 1594   5.312   3.679   1.121  0.6912  0.3952  0.4627
  552TIP3    H1 1595   5.255   3.743   1.164  1.0492  0.5439  0.7167
  552TIP3    H2 1596   5.298   3.693   1.028  0.8177  0.8831  0.5203
  553TIP3   OH2 1597   3.594   4.617   1.913  0.0684 -0.0413  0.4440
  553TIP3    H1 1598   3.511   4.646   1.874  0.3390  0.0575 -0.0629
  553TIP3    H2 1599   3.584   4.634   2.006 -0.1241  0.8522  0.2677
  554TIP3   OH2 1600   6.596   2.703   0.063  0.1291  0.4786  0.2455
  554TIP3    H1 1601   6.519   2.647   0.075 -0.5521  1.3456  0.0238
  554TIP3    H2 1602   6.623   2.686  -0.027 -0.7290  1.2740 -0.1828
  555TIP3   OH2 1603   3.074   7.311   6.343 -0.0889 -0.4497 -0.3070
  555TIP3    H1 1604   3.070   7.365   6.263 -1.7100  2.5685  1.7321
  555TIP3    H2 1605   3.161   7.327   6.378  0.4145 -1.3204 -1.1439
  556TIP3   OH2 1606   5.776   2.765   2.160  0.6083  0.6440 -0.3495
  556TIP3    H1 1607   5.689   2.730   2.139  0.4525  0.0270  1.3156
  556TIP3    H2 1608   5.820   2.770   2.075 -0.3822 -0.8118 -0.9668
  557TIP3   OH2 1609   1.624   5.832   6.318 -0.4786  0.2246 -0.0382
  557TIP3    H1 1610   1.578   5.762   6.364  0.8794 -1.0304 -0.5420
  557TIP3    H2 1611   1.636   5.799   6.229  1.0737  0.6669 -0.0099
  558TIP3   OH2 1612   6.159   2.112   0.439  0.4202  0.0482 -0.1233
  558TIP3    H1 1613   6.091   2.054   0.474  0.3635 -1.5542 -2.7061
  558TIP3    H2 1614   6.127   2.200   0.457 -1.5184 -0.7076  0.2458
  559TIP3   OH2 1615   7.591   4.487   1.295  0.0135  0.4451  0.5438
  559TIP3    H1 1616   7.625   4.400   1.318 -3.8938 -1.2969 -0.0184
  559TIP3    H2 1617   7.534   4.510   1.369 -1.8990  0.8506 -1.0344
  560TIP3   OH2 1618   6.274   2.138   1.345  0.3054  0.7118 -0.2034
  560TIP3    H1 1619   6.182   2.153   1.324  0.7787  2.2114 -1.3037
  560TIP3    H2 1620   6.293   2.200   1.416  0.0298 -0.8159  1.2317
  561TIP3   OH2 1621   4.636   2.067   0.595  0.0942 -0.1109  0.1224
  561TIP3    H1 1622   4.560   2.026   0.554 -0.6210  0.5753  0.7372
  561TIP3    H2 1623   4.688   2.099   0.522  0.8421 -2.4005 -0.3920
  562TIP3   OH2 1624   0.116   6.609   4.854  0.0584  0.2130 -0.7396
  562TIP3    H1 1625   0.091   6.518   4.868  0.0121  0.3008 -0.2712
  562TIP3    H2 1626   0.044   6.660   4.889  0.6778  0.4573  0.1969
  563TIP3   OH2 1627   0.251   5.862   6.453 -0.0588  0.4497  0.6159
  563TIP3    H1 1628   0.230   5.911   6.532  2.8362  0.9052  1.1684
  563TIP3    H2 1629   0.180   5.799   6.444 -1.7590  2.0894  2.1283
  564TIP3   OH2 1630   3.211   7.931   1.439  0.6159 -0.4779  0.4236
  564TIP3    H1 1631   3.254   7.852   1.471  2.2939 -0.0858 -0.7906
  564TIP3    H2 1632   3.149   7.900   1.372 -0.1596 -0.9371  1.3490
  565TIP3   OH2 1633   5.869   1.038   2.541  0.5101 -0.0577 -0.4215
  565TIP3    H1 1634   5.789   0.995   2.510  0.0925 -0.2978  0.9470
  565TIP3    H2 1635   5.840   1.124   2.571  0.9358  0.2209 -0.7862
  566TIP3   OH2 1636   1.273   0.303   5.968  0.2324  0.1085 -0.0376
  566TIP3    H1 1637   1.216   0.332   5.897 -0.2179 -1.7789 -0.4635
  566TIP3    H2 1638   1.216   0.251   6.025  1.0036  0.1221  0.7567
  567TIP3   OH2 1639   6.011   2.549   0.446 -0.4377 -0.4198  0.0908
  567TIP3    H1 1640   5.956   2.623   0.473 -0.4632 -0.3902 -0.0375
  567TIP3    H2 1641   6.098   2.588   0.435 -0.4443 -0.4148  0.0534
  568TIP3   OH2 1642   6.960   1.962   0.069  0.0487 -0.2060  0.3833
  568TIP3    H1 1643   6.951   2.038   0.126 -3.2109 -0.3689  0.2195
  568TIP3    H2 1644   6.951   1.996  -0.020 -1.3959 -0.7417  0.3058
  569TIP3   OH2 1645   8.130   1.820   0.305  0.2464  0.0834  0.0581
  569TIP3    H1 1646   8.146   1.908   0.338  2.2111 -0.4118  0.4955
  569TIP3    H2 1647   8.217   1.782   0.296 -0.6502 -2.5663  1.9823
  570TIP3   OH2 1648   4.156   7.033   1.313 -0.0512  0.0358  0.0412
  570TIP3    H1 1649   4.223   7.009   1.249 -1.3181 -1.4825 -0.7495
  570TIP3    H2 1650   4.192   7.004   1.397  0.3374 -0.6719 -0.3611
  571TIP3   OH2 1651   4.421   1.162   3.456  0.2191  0.3008  1.1502
  571TIP3    H1 1652   4.495   1.119   3.498  0.3031 -0.9816 -0.2611
  571TIP3    H2 1653   4.359   1.092   3.438 -0.3546  1.0133  0.2761
  572TIP3   OH2 1654   6.304   2.012   1.995  0.0713 -0.3290 -0.0590
  572TIP3    H1 1655   6.293   2.106   2.007  0.1537 -0.3341  0.0501
  572TIP3    H2 1656   6.223   1.974   2.030 -0.0239 -0.2900 -0.2307
  573TIP3   OH2 1657   6.274   2.016   2.504  0.5113 -0.0759 -0.2717
  573TIP3    H1 1658   6.369   2.030   2.509  0.4506 -0.2656  1.4671
  573TIP3    H2 1659   6.262   1.923   2.522  0.0804 -0.3150 -1.7383
  574TIP3   OH2 1660   5.184   2.136   3.568 -0.5449  0.6944 -0.0678
  574TIP3    H1 1661   5.226   2.213   3.607 -0.3511  0.8100 -0.4991
  574TIP3    H2 1662   5.230   2.061   3.606 -0.0985  0.8160 -0.3657
  575TIP3   OH2 1663   2.394   5.851   1.402 -0.2993 -0.7934 -0.2470
  575TIP3    H1 1664   2.371   5.786   1.468  1.2137 -1.9577 -0.8336
  575TIP3    H2 1665   2.490   5.853   1.402 -0.2619  3.4312  1.6530
  576TIP3   OH2 1666   7.217   0.350   2.103  0.0350  0.2307 -0.4290
  576TIP3    H1 1667   7.207   0.266   2.147 -2.6707 -0.1816 -1.7755
  576TIP3    H2 1668   7.210   0.330   2.010 -0.8138  1.9714 -0.7565
  577TIP3   OH2 1669   8.138   5.849   5.889 -0.1140 -0.3616  0.4937
  577TIP3    H1 1670   8.087   5.789   5.834 -1.4615 -0.3787  1.7482
  577TIP3    H2 1671   8.196   5.792   5.940  0.2936 -0.4212 -0.0291
  578TIP3   OH2 1672   4.246   1.916   0.652  0.5993 -0.1062  0.2913
  578TIP3    H1 1673   4.205   2.002   0.654  0.4402 -0.1486 -0.7930
  578TIP3    H2 1674   4.224   1.877   0.736 -0.1216  0.5463  0.4139
  579TIP3   OH2 1675   7.695   2.882   2.490 -0.4035  0.8155  0.1127
  579TIP3    H1 1676   7.620   2.919   2.443 -0.1690  0.9719 -0.1441
  579TIP3    H2 1677   7.677   2.788   2.495  0.3522  0.5567 -1.7490
  580TIP3   OH2 1678   6.292   3.365   1.285 -0.1525 -0.0108 -0.5671
  580TIP3    H1 1679   6.246   3.441   1.248 -0.0307  0.3546  0.0291
  580TIP3    H2 1680   6.298   3.383   1.378  1.3176  0.0175 -0.6452
  581TIP3   OH2 1681   0.196   5.498   6.839 -0.1343 -0.0934  0.7667
  581TIP3    H1 1682   0.125   5.440   6.866 -1.6896  1.5141  0.2652
  581TIP3    H2 1683   0.198   5.492   6.744 -0.2408  0.5845  0.7156
  582TIP3   OH2 1684   5.765   0.155   6.420 -0.8285  0.4318 -0.0110
  582TIP3    H1 1685   5.695   0.117   6.473 -0.2931 -0.0307  0.3768
  582TIP3    H2 1686   5.845   0.137   6.470 -0.3225  0.0200 -0.9643
  583TIP3   OH2 1687   6.962   3.507   1.595 -0.5140 -0.8271  0.1453
  583TIP3    H1 1688   6.883   3.517   1.649 -0.0507 -2.6589  1.2490
  583TIP3    H2 1689   7.002   3.593   1.595 -0.3623 -0.8157  3.0879
  584TIP3   OH2 1690   1.914   6.727   6.876 -0.0119 -0.2312 -0.3125
  584TIP3    H1 1691   1.925   6.656   6.940 -0.3741 -1.4836 -1.6187
  584TIP3    H2 1692   1.820   6.727   6.856  0.0090  0.5254 -0.4363
  585TIP3   OH2 1693   0.650   5.153   6.151  0.6374  0.3927  0.4841
  585TIP3    H1 1694   0.731   5.127   6.108  0.6068 -1.2198  1.3978
  585TIP3    H2 1695   0.581   5.119   6.094  0.5983 -0.7656  1.2247
  586TIP3   OH2 1696   6.357   2.249   1.616  0.5807 -0.1263 -0.2093
  586TIP3    H1 1697   6.363   2.217   1.706 -0.4762  0.6374  0.1398
  586TIP3    H2 1698   6.434   2.304   1.605 -0.6957  1.9917  1.1336
  587TIP3   OH2 1699   5.811   0.015   5.973 -0.7422 -0.1063  0.3049
  587TIP3    H1 1700   5.882  -0.026   6.022 -2.4581 -2.6378  0.8114
  587TIP3    H2 1701   5.772   0.077   6.035  1.1540  1.4902 -0.0715
  588TIP3   OH2 1702   7.772   2.208   2.008 -0.3686 -0.5070  0.0093
  588TIP3    H1 1703   7.696   2.255   1.974  1.6875  1.6290 -1.7775
  588TIP3    H2 1704   7.763   2.215   2.103 -1.8861  0.5774 -0.1810
  589TIP3   OH2 1705   5.032   2.097   0.448  0.4647 -0.0707  0.3908
  589TIP3    H1 1706   4.969   2.044   0.399 -0.7878  0.5082  1.3553
  589TIP3    H2 1707   5.087   2.033   0.493 -0.5144 -0.5813  0.8860
  590TIP3   OH2 1708   6.153   2.617   0.933  0.3501 -0.2013 -0.0578
  590TIP3    H1 1709   6.160   2.532   0.976 -0.2338 -0.8388 -1.1917
  590TIP3    H2 1710   6.128   2.596   0.843  0.3832  1.1620 -0.3948
  591TIP3   OH2 1711   4.337   2.497   0.932  0.0613  0.8066  0.4098
  591TIP3    H1 1712   4.317   2.490   0.839  2.0924  1.8132 -0.1378
  591TIP3    H2 1713   4.320   2.589   0.954  0.8388  0.8927  0.6992
  592TIP3   OH2 1714   4.729   7.376   1.196 -0.4813 -0.6889  0.2595
  592TIP3    H1 1715   4.686   7.460   1.180 -0.1941 -0.3296  1.3249
  592TIP3    H2 1716   4.657   7.316   1.217 -0.8183 -1.0688 -1.9139
  593TIP3   OH2 1717   5.410   1.329   1.630 -0.3604  0.1725  0.4040
  593TIP3    H1 1718   5.423   1.388   1.704  0.1501  1.4196 -0.6460
  593TIP3    H2 1719   5.336   1.274   1.655 -0.8652  1.2897  1.4102
  594TIP3   OH2 1720   5.932   1.969   1.759  0.4066 -0.7966  0.0465
  594TIP3    H1 1721   5.854   1.936   1.804  0.6237  0.1391  1.1128
  594TIP3    H2 1722   5.897   2.027   1.692  0.1891 -0.1430  0.7172
  595TIP3   OH2 1723   5.281   1.133   0.973  0.7447 -0.1162  0.1466
  595TIP3    H1 1724   5.334   1.177   0.906  0.8650 -0.7113 -0.1522
  595TIP3    H2 1725   5.330   1.145   1.054  0.4150  0.9310  0.2032
  596TIP3   OH2 1726   0.954   5.537   5.096  0.0421  0.0471  0.2478
  596TIP3    H1 1727   1.043   5.504   5.084 -0.3128 -1.2881  1.1413
  596TIP3    H2 1728   0.940   5.531   5.191 -1.0648  0.0426  0.0871
  597TIP3   OH2 1729   3.186   2.386   6.086  0.1102  0.1699 -0.0202
  597TIP3    H1 1730   3.119   2.396   6.018  1.4999  0.5775 -1.3455
  597TIP3    H2 1731   3.183   2.293   6.109  0.1833 -0.1299 -1.2009
  598TIP3   OH2 1732   3.907   3.695   1.189 -0.3155 -0.4443  0.0535
  598TIP3    H1 1733   3.930   3.780   1.152 -2.9231  0.3646  0.2040
  598TIP3    H2 1734   3.838   3.662   1.132  1.0594 -2.7541 -0.3400
  599TIP3   OH2 1735   5.630   1.889   1.226  0.5249  0.5657  0.2291
  599TIP3    H1 1736   5.638   1.984   1.215  0.6014  0.6908  1.3171
  599TIP3    H2 1737   5.556   1.879   1.286  0.5604 -0.0692  0.1617
  600TIP3   OH2 1738   5.849   2.351   2.869  0.3289  0.3822  0.1537
  600TIP3    H1 1739   5.910   2.277   2.867 -1.7118 -1.4546  2.5269
  600TIP3    H2 1740   5.778   2.324   2.810 -0.1197  0.7376  0.5348
  601TIP3   OH2 1741   2.984   2.478   2.400  0.7492 -0.2018  0.2068
  601TIP3    H1 1742   2.990   2.479   2.495  0.8559  0.7163  0.1862
  601TIP3    H2 1743   2.968   2.569   2.375 -0.3664 -0.6054 -0.5814
  602TIP3   OH2 1744   7.435   3.589   2.376 -0.1255 -0.2243  0.5271
  602TIP3    H1 1745   7.431   3.685   2.380  1.1371 -0.1021 -0.7005
  602TIP3    H2 1746   7.521   3.567   2.412  0.2485 -0.7843 -0.6869
  603TIP3   OH2 1747   6.181   6.530   6.512 -0.0534  0.1897  0.1474
  603TIP3    H1 1748   6.231   6.560   6.588  1.3660  0.9237 -1.0451
  603TIP3    H2 1749   6.138   6.609   6.479  0.9628  0.2789 -0.9969
  604TIP3   OH2 1750   4.791   1.474   0.736 -0.4029  0.4752  0.2503
  604TIP3    H1 1751   4.870   1.525   0.721  1.8618 -2.5915  1.0462
  604TIP3    H2 1752   4.811   1.387   0.701 -4.0733  0.0631 -1.0525
  605TIP3   OH2 1753   5.640   3.314   2.630 -0.1440 -0.4726 -0.3549
  605TIP3    H1 1754   5.587   3.304   2.551 -1.2489  1.3364  0.1192
  605TIP3    H2 1755   5.696   3.390   2.612 -0.4920  0.0248  0.6496
  606TIP3   OH2 1756   1.824   0.200   6.274  0.1606 -0.2261  0.2013
  606TIP3    H1 1757   1.846   0.271   6.214 -0.0627  0.0613  0.4540
  606TIP3    H2 1758   1.906   0.155   6.291  0.5083  0.6969  0.9692
  607TIP3   OH2 1759   2.914   6.581   6.673  0.2122  0.5932  0.0014
  607TIP3    H1 1760   2.882   6.660   6.631  0.8722  1.2737  0.7695
  607TIP3    H2 1761   2.997   6.562   6.629  0.0632  0.3290 -0.1716
  608TIP3   OH2 1762   3.514   2.455   2.399 -0.3869 -0.4862 -0.2562
  608TIP3    H1 1763   3.430   2.409   2.391 -0.7682  0.3566 -1.2073
  608TIP3    H2 1764   3.499   2.540   2.358  0.2426  0.5906  1.6714
  609TIP3   OH2 1765   7.684   7.237   6.363  0.1852 -0.3086  0.3508
  609TIP3    H1 1766   7.643   7.259   6.279  0.0215  1.3012  0.8423
  609TIP3    H2 1767   7.631   7.164   6.397 -0.1724 -0.5027 -0.6180
  610TIP3   OH2 1768   3.949   4.867   0.619 -0.2433 -0.1214  0.0904
  610TIP3    H1 1769   3.916   4.901   0.702  1.3410  0.1798  0.6117
  610TIP3    H2 1770   3.962   4.945   0.565  0.7728 -0.1370  0.3144
  611TIP3   OH2 1771   0.126   6.420   6.613 -0.0016 -0.4596 -0.2774
  611TIP3    H1 1772   0.155   6.339   6.570 -0.7375 -1.4638  1.0704
  611TIP3    H2 1773   0.075   6.390   6.688  1.0160  1.2778  1.1315
  612TIP3   OH2 1774   2.466   6.881   1.924 -0.4341 -0.2643  0.2670
  612TIP3    H1 1775   2.373   6.897   1.941 -0.5706 -1.2877  0.5139
  612TIP3    H2 1776   2.505   6.877   2.011  0.3503  2.9436  0.1417
  613TIP3   OH2 1777   4.885   2.054   2.630  0.3226 -0.5406  0.1280
  613TIP3    H1 1778   4.902   2.139   2.590 -1.6270 -0.1681  0.0515
  613TIP3    H2 1779   4.933   1.992   2.575 -0.5690  0.2163 -1.5446
  614TIP3   OH2 1780   1.653   7.621   5.713  0.7918  0.4387  0.3363
  614TIP3    H1 1781   1.588   7.665   5.767 -0.3994  0.7275 -1.2931
  614TIP3    H2 1782   1.657   7.673   5.633  0.3982 -1.5837 -1.0344
  615TIP3   OH2 1783   8.228   2.914   6.711 -0.1341  0.6973 -0.6590
  615TIP3    H1 1784   8.168   2.858   6.661 -1.4024  2.0112 -0.6166
  615TIP3    H2 1785   8.287   2.951   6.645  0.7129 -0.6462 -0.6915
  616TIP3   OH2 1786   6.673   2.034   1.310  0.4197  0.3394  0.3595
  616TIP3    H1 1787   6.611   2.002   1.377  0.2016 -0.1608 -0.0784
  616TIP3    H2 1788   6.753   2.053   1.359  0.2912 -0.1135  0.7510
  617TIP3   OH2 1789   6.500   2.480   1.676  0.3611 -0.5584 -0.1050
  617TIP3    H1 1790   6.562   2.504   1.746  0.0790  0.8551 -0.3190
  617TIP3    H2 1791   6.417   2.519   1.704 -0.8328 -3.7105  0.9313
  618TIP3   OH2 1792   1.964   7.526   5.531 -0.5470 -0.1033 -0.1494
  618TIP3    H1 1793   1.953   7.609   5.579 -2.5188 -0.3298 -0.1835
  618TIP3    H2 1794   1.965   7.459   5.599 -0.4421 -0.1757 -0.2220
  619TIP3   OH2 1795   5.349   0.157   5.460  0.6960  0.0555 -0.0495
  619TIP3    H1 1796   5.315   0.210   5.388  0.7057  0.5289  0.2894
  619TIP3    H2 1797   5.441   0.183   5.468  0.7974 -0.2799 -0.1226
  620TIP3   OH2 1798   2.238   6.030   6.302  0.3534  0.0633 -0.0717
  620TIP3    H1 1799   2.210   6.040   6.394  0.5050 -1.1741  0.1178
  620TIP3    H2 1800   2.169   5.977   6.262 -0.4346  1.7885 -1.0431
  621TIP3   OH2 1801   6.822   2.891   1.461 -0.2117  0.7278  0.1960
  621TIP3    H1 1802   6.883   2.825   1.494 -0.0530  0.2446 -1.0403
  621TIP3    H2 1803   6.838   2.968   1.515  0.6088  0.2074  0.7004
  622TIP3   OH2 1804   6.434   4.753   1.960  1.0368 -0.4099  0.0577
  622TIP3    H1 1805   6.443   4.785   2.050  0.9441 -2.7217  0.9260
  622TIP3    H2 1806   6.448   4.830   1.905 -3.7774  2.1178  2.1073
  623TIP3   OH2 1807   4.163   1.057   6.580 -0.0905  0.6265 -0.1535
  623TIP3    H1 1808   4.197   1.132   6.630  0.9354  0.1505 -0.1355
  623TIP3    H2 1809   4.228   1.042   6.512 -0.4262 -0.0905 -0.3186
  624TIP3   OH2 1810   7.894   3.633   0.050  0.0901  0.0762 -0.2244
  624TIP3    H1 1811   7.857   3.661  -0.034 -0.8766 -0.4609  0.0152
  624TIP3    H2 1812   7.859   3.696   0.113 -0.3022 -0.3551 -0.0148
  625TIP3   OH2 1813   7.451   3.083   1.313  0.7463  0.5495 -0.1607
  625TIP3    H1 1814   7.488   3.170   1.329 -1.1954  1.7341 -1.9355
  625TIP3    H2 1815   7.373   3.079   1.367  0.3944  0.2211 -0.6872
  626TIP3   OH2 1816   6.039   2.245   0.056  0.4124  0.3105 -0.5910
  626TIP3    H1 1817   6.005   2.334   0.049  0.7575  0.3653 -1.5760
  626TIP3    H2 1818   5.960   2.190   0.051  0.1539  0.5757  0.4992
  627TIP3   OH2 1819   6.240   5.497   0.890  0.4748  0.2597 -0.3553
  627TIP3    H1 1820   6.209   5.447   0.966 -1.1784  1.5354 -0.1416
  627TIP3    H2 1821   6.167   5.493   0.828  1.1728  0.5886 -1.2031
  628TIP3   OH2 1822   8.458   1.282   0.987 -0.4297  0.0068 -0.5053
  628TIP3    H1 1823   8.397   1.221   1.030 -0.3647  1.9332  2.4321
  628TIP3    H2 1824   8.402   1.342   0.938 -0.7671  0.3895  0.3474
  629TIP3   OH2 1825   7.607   3.810   0.563 -0.0566  0.0960  0.0113
  629TIP3    H1 1826   7.513   3.822   0.581 -0.4351 -0.1038 -1.7345
  629TIP3    H2 1827   7.616   3.827   0.469  1.6399 -0.0231  0.1389
  630TIP3   OH2 1828   8.404   1.132   0.280 -0.1413  0.2126 -0.2091
  630TIP3    H1 1829   8.493   1.130   0.315  0.0012  0.3920 -0.5652
  630TIP3    H2 1830   8.403   1.065   0.212 -0.0023  0.8885 -0.8761
  631TIP3   OH2 1831   1.603   7.062   6.228  0.4381  0.3262  0.4074
  631TIP3    H1 1832   1.545   7.093   6.158  1.1435  0.9619  0.1075
  631TIP3    H2 1833   1.543   7.027   6.294 -0.3410  1.9129  0.5602
  632TIP3   OH2 1834   7.706   0.264   1.778  0.4409  0.4327 -0.2172
  632TIP3    H1 1835   7.645   0.197   1.747 -0.5375  1.0025  0.4198
  632TIP3    H2 1836   7.746   0.299   1.699  1.6066 -1.4844 -0.5031
  633TIP3   OH2 1837   1.243   6.620   6.899  0.0646  0.0189  0.1961
  633TIP3    H1 1838   1.167   6.651   6.849 -1.6791 -2.3925  1.2525
  633TIP3    H2 1839   1.241   6.672   6.979  1.5264  2.2952 -1.1966
  634TIP3   OH2 1840   7.888   4.064   1.872 -0.8167  0.9705  0.5389
  634TIP3    H1 1841   7.856   4.053   1.961 -1.6453 -2.9821 -0.1677
  634TIP3    H2 1842   7.928   3.980   1.850 -0.6828  1.8323 -2.8269
  635TIP3   OH2 1843   7.107   5.499   0.464 -0.8909 -0.3161 -0.2937
  635TIP3    H1 1844   7.042   5.486   0.533  0.3307 -0.4271  0.8708
  635TIP3    H2 1845   7.056   5.513   0.384 -2.3427  1.1661  0.8650
  636TIP3   OH2 1846   4.172   1.422   6.509  0.3213  0.4052 -0.1145
  636TIP3    H1 1847   4.161   1.369   6.430  1.3725  0.5504 -0.3688
  636TIP3    H2 1848   4.216   1.501   6.479 -0.2726  0.9569  0.4446
  637TIP3   OH2 1849   6.647   3.548   1.581  0.0101 -0.1203 -0.3788
  637TIP3    H1 1850   6.591   3.543   1.658  0.7341 -0.2922  0.1454
  637TIP3    H2 1851   6.659   3.642   1.566 -2.3724 -0.0149 -1.9544
  638TIP3   OH2 1852   0.174   4.204   1.341  0.1929  0.2699  0.3567
  638TIP3    H1 1853   0.186   4.292   1.305  0.5427 -0.0133 -0.2153
  638TIP3    H2 1854   0.223   4.205   1.424  1.2006  0.2400 -0.2331
  639TIP3   OH2 1855   7.901   4.743   1.224 -0.6581  0.1797 -0.4362
  639TIP3    H1 1856   7.814   4.779   1.207 -1.5008 -0.5024  2.1536
  639TIP3    H2 1857   7.955   4.819   1.243 -1.8581  0.3433  2.6154
  640TIP3   OH2 1858   2.086   5.340   5.391 -0.3120 -0.1877 -0.4707
  640TIP3    H1 1859   2.047   5.421   5.359  1.4622  1.1155  0.5801
  640TIP3    H2 1860   2.023   5.272   5.368 -2.5531  1.6872  0.0045
  641TIP3   OH2 1861   7.712   2.714   1.270 -0.0294 -0.9499  0.5269
  641TIP3    H1 1862   7.673   2.791   1.311 -2.6278 -1.1979 -1.3211
  641TIP3    H2 1863   7.719   2.650   1.341 -1.3584 -0.2780  1.2821
  642TIP3   OH2 1864   7.646   1.495   1.654  0.3525 -0.3524 -0.0797
  642TIP3    H1 1865   7.711   1.565   1.646 -1.3009  1.2546  0.4156
  642TIP3    H2 1866   7.604   1.491   1.569  0.9941 -1.3161 -0.3617
  643TIP3   OH2 1867   2.346   7.417   6.130 -0.1676  0.2850  0.3599
  643TIP3    H1 1868   2.258   7.383   6.145 -0.0708 -1.0576 -1.8327
  643TIP3    H2 1869   2.332   7.509   6.106 -1.0201 -0.0461 -0.4320
  644TIP3   OH2 1870   0.439   5.257   5.197 -0.5889  0.6945  0.2410
  644TIP3    H1 1871   0.343   5.257   5.193 -0.6091  0.4451  0.7577
  644TIP3    H2 1872   0.465   5.174   5.157 -0.6109  0.4971  0.6334
  645TIP3   OH2 1873   0.220   5.510   4.572 -0.3896  0.4238 -0.0812
  645TIP3    H1 1874   0.270   5.565   4.511  1.3992 -1.0258  0.0434
  645TIP3    H2 1875   0.244   5.420   4.549 -1.1180 -0.2144  1.5633
  646TIP3   OH2 1876   6.412   4.486   0.851  0.4033  0.4146 -0.2304
  646TIP3    H1 1877   6.497   4.444   0.868  0.0840  0.1449  0.7480
  646TIP3    H2 1878   6.428   4.544   0.776  1.8782  1.6534  1.0103
  647TIP3   OH2 1879   7.584   3.880   0.299  0.6028 -0.4683 -0.5424
  647TIP3    H1 1880   7.623   3.953   0.251 -1.7887  1.0759 -0.1966
  647TIP3    H2 1881   7.545   3.824   0.232 -1.3239  0.8398 -0.5210
  648TIP3   OH2 1882   8.220   2.152   0.945 -0.4823  0.7692  0.2665
  648TIP3    H1 1883   8.234   2.242   0.976  0.1428  0.1747  1.7751
  648TIP3    H2 1884   8.293   2.103   0.983 -0.2212 -0.1792 -1.4418
  649TIP3   OH2 1885   2.385   7.012   6.235 -0.2663 -0.2349 -0.2756
  649TIP3    H1 1886   2.361   7.027   6.326  2.0705 -1.1254  0.5180
  649TIP3    H2 1887   2.421   7.096   6.206  3.2025 -1.1818  1.0450
  650TIP3   OH2 1888   6.404   2.134   0.637 -0.3923 -0.7303  0.0704
  650TIP3    H1 1889   6.394   2.199   0.707 -1.4317 -2.2489  1.3717
  650TIP3    H2 1890   6.322   2.140   0.587  0.2846  0.2462 -0.9193
  651TIP3   OH2 1891   8.275   2.740   1.013 -0.0649 -0.2897 -0.3955
  651TIP3    H1 1892   8.275   2.818   1.068  0.0766 -0.8150  0.3558
  651TIP3    H2 1893   8.361   2.701   1.026  0.1474 -0.1654 -1.3608
  652TIP3   OH2 1894   0.929   5.389   6.260  0.0652 -0.1975 -0.0877
  652TIP3    H1 1895   0.861   5.385   6.327  0.1511 -1.2245 -0.0464
  652TIP3    H2 1896   1.011   5.393   6.310  0.0701  0.2467 -0.1341
  653TIP3   OH2 1897   1.461   5.776   5.030  0.0866  0.0073 -0.0372
  653TIP3    H1 1898   1.430   5.791   4.941  0.0547 -0.6262 -0.1301
  653TIP3    H2 1899   1.492   5.862   5.059 -0.0941  0.2570 -0.5824
  654TIP3   OH2 1900   1.752   3.182   0.328 -0.1868  0.4522  0.1999
  654TIP3    H1 1901   1.671   3.143   0.297  0.3827 -0.3981 -0.2327
  654TIP3    H2 1902   1.773   3.249   0.264 -1.0631  1.3599  0.8398
  655TIP3   OH2 1903   1.328   5.531   2.098  0.4240 -0.5065  0.1715
  655TIP3    H1 1904   1.421   5.530   2.073  0.2610  0.2313 -0.4983
  655TIP3    H2 1905   1.325   5.486   2.182  1.6711  1.1573  1.1290
  656TIP3   OH2 1906   5.004   0.054   5.261 -0.7025 -0.3256 -0.5144
  656TIP3    H1 1907   4.961   0.060   5.347 -1.0900 -0.1681 -0.7204
  656TIP3    H2 1908   5.042   0.140   5.247  0.1017 -0.6092 -0.1116
  657TIP3   OH2 1909   1.370   1.193   3.481  0.6462  0.2415  0.3217
  657TIP3    H1 1910   1.447   1.136   3.475  0.1999 -0.2794 -0.4872
  657TIP3    H2 1911   1.297   1.138   3.452 -0.3143  0.2174  2.6533
  658TIP3   OH2 1912   6.993   8.015   0.723  0.7372  0.4387  0.2767
  658TIP3    H1 1913   6.911   8.010   0.675  0.3334  1.0365  0.8834
  658TIP3    H2 1914   7.003   7.930   0.765 -0.0719  0.6774  0.9789
  659TIP3   OH2 1915   0.961   5.927   3.585 -0.2661 -0.6784  0.2150
  659TIP3    H1 1916   0.987   5.990   3.653 -0.1303  0.7513 -1.1297
  659TIP3    H2 1917   0.887   5.880   3.624 -1.3542  1.3570  0.7018
  660TIP3   OH2 1918   7.497   3.474   2.091 -0.0176  0.0194  0.1309
  660TIP3    H1 1919   7.543   3.558   2.082  0.3087 -0.0379  1.1519
  660TIP3    H2 1920   7.452   3.481   2.175  0.3950 -1.0132  0.4433
  661TIP3   OH2 1921   2.433   3.992   0.252 -0.1204  0.0990  0.2817
  661TIP3    H1 1922   2.481   3.980   0.334 -0.3847  1.1403  0.6022
  661TIP3    H2 1923   2.408   3.904   0.226  0.3846 -0.2864  1.0708
  662TIP3   OH2 1924   2.905   1.141   3.298 -0.0865 -0.1763 -0.1755
  662TIP3    H1 1925   2.948   1.215   3.341 -2.0634  0.5420  0.6395
  662TIP3    H2 1926   2.846   1.181   3.234 -1.5272 -0.9811  0.5971
  663TIP3   OH2 1927   2.479   1.231   2.665 -0.3270  0.3675  0.4577
  663TIP3    H1 1928   2.444   1.182   2.740  1.4016  0.1048  1.1123
  663TIP3    H2 1929   2.443   1.319   2.676 -2.3557 -0.3821  0.0301
  664TIP3   OH2 1930   7.047   3.304   2.156  0.4379  0.6319  0.1202
  664TIP3    H1 1931   6.982   3.258   2.209 -1.8396  1.3101 -1.9794
  664TIP3    H2 1932   7.032   3.396   2.175 -0.3265  0.8728 -1.5851
  665TIP3   OH2 1933   7.694   1.321   2.780  0.2758 -0.1543  0.3713
  665TIP3    H1 1934   7.611   1.277   2.761 -0.7981  1.1488  2.0385
  665TIP3    H2 1935   7.713   1.299   2.871  1.0502  0.7071  0.4229
  666TIP3   OH2 1936   7.755   2.173   2.263  0.4786 -0.3428  0.2437
  666TIP3    H1 1937   7.699   2.135   2.330  1.1731 -0.3301  0.8353
  666TIP3    H2 1938   7.820   2.105   2.245  1.5039  0.4195  1.0448
  667TIP3   OH2 1939   2.266   3.383   2.818  0.2440  0.0512 -0.0560
  667TIP3    H1 1940   2.190   3.434   2.791 -0.0460 -0.9612 -1.1960
  667TIP3    H2 1941   2.232   3.318   2.880  0.5718  1.0633  1.2046
  668TIP3   OH2 1942   1.600   1.644   1.333  0.0722 -0.6798 -0.2854
  668TIP3    H1 1943   1.667   1.676   1.393 -1.1492 -0.3331  0.9238
  668TIP3    H2 1944   1.529   1.614   1.390 -1.3783  0.2394 -1.5650
  669TIP3   OH2 1945   2.937   2.771   2.459  0.0510  0.5423  0.2570
  669TIP3    H1 1946   2.891   2.795   2.539  0.2610  0.9986  0.2370
  669TIP3    H2 1947   2.867   2.764   2.393 -0.0847  0.4584  0.4086
  670TIP3   OH2 1948   2.680   2.615   0.618  0.6828  0.1647 -0.1684
  670TIP3    H1 1949   2.649   2.647   0.533  1.4760  1.5445  0.0619
  670TIP3    H2 1950   2.611   2.639   0.679 -0.2316 -1.4796 -0.5262
  671TIP3   OH2 1951   8.458   4.352   2.736  0.6265 -0.1363  0.0535
  671TIP3    H1 1952   8.539   4.394   2.707  1.6888 -1.5652  0.8881
  671TIP3    H2 1953   8.411   4.331   2.656  2.7945 -2.6395 -0.6171
  672TIP3   OH2 1954   2.418   2.351   2.702 -0.3231  0.2275  0.0001
  672TIP3    H1 1955   2.471   2.279   2.669  0.9576  0.7212  0.9216
  672TIP3    H2 1956   2.327   2.323   2.690  0.1103  0.0034 -3.0104
  673TIP3   OH2 1957   0.653   1.740   1.912  0.1188  0.3299 -0.5717
  673TIP3    H1 1958   0.650   1.657   1.959  1.0729 -0.3839 -1.7391
  673TIP3    H2 1959   0.630   1.806   1.977  0.0288 -0.7842  0.5322
  674TIP3   OH2 1960   3.773   5.825   6.820 -0.2211 -0.1598 -0.1999
  674TIP3    H1 1961   3.862   5.850   6.846 -0.4837  0.5958 -0.0359
  674TIP3    H2 1962   3.765   5.734   6.849  0.6163 -0.3470 -0.5196
  675TIP3   OH2 1963   3.054   3.549   1.116 -0.0650 -0.1974 -0.1280
  675TIP3    H1 1964   2.980   3.606   1.096  0.2756  0.5361  0.6410
  675TIP3    H2 1965   3.020   3.460   1.108 -1.0358  0.1378  0.2622
  676TIP3   OH2 1966   2.199   1.336   0.517 -0.2407  0.2826 -0.2434
  676TIP3    H1 1967   2.110   1.371   0.521 -0.8141 -1.0697 -0.8896
  676TIP3    H2 1968   2.224   1.324   0.609 -1.9031 -2.1809 -0.0566
  677TIP3   OH2 1969   8.433   4.215   2.083 -0.0524 -0.2619 -0.3965
  677TIP3    H1 1970   8.456   4.283   2.020 -0.1353  1.2153  1.1056
  677TIP3    H2 1971   8.417   4.137   2.031  0.5508  0.7470 -2.1222
  678TIP3   OH2 1972   1.822   2.328   3.915  0.2128  0.1763 -0.3324
  678TIP3    H1 1973   1.883   2.362   3.850  1.0188 -0.5789  0.0221
  678TIP3    H2 1974   1.804   2.238   3.886 -1.2580  0.6009 -0.8095
  679TIP3   OH2 1975   0.030   5.196   1.504 -0.0086  0.0767 -0.0491
  679TIP3    H1 1976   0.016   5.223   1.413 -2.7604 -2.1309 -0.3373
  679TIP3    H2 1977   0.125   5.193   1.513  0.3283 -1.3595 -3.4019
  680TIP3   OH2 1978   1.041   4.361   0.441 -0.6441 -0.5438  0.5365
  680TIP3    H1 1979   0.984   4.407   0.379  0.9529 -0.8254 -1.1778
  680TIP3    H2 1980   1.076   4.431   0.497 -0.7842 -0.0670  0.0358
  681TIP3   OH2 1981   7.648   2.023   1.661 -0.1140  0.0824 -0.2578
  681TIP3    H1 1982   7.567   2.063   1.693  0.6118  0.6297  0.9196
  681TIP3    H2 1983   7.661   1.945   1.715  1.0472  0.9395  0.7270
  682TIP3   OH2 1984   2.643   4.986   3.431  0.5615 -0.1798 -0.3206
  682TIP3    H1 1985   2.702   5.061   3.422  0.0712  0.4909  1.8565
  682TIP3    H2 1986   2.697   4.910   3.410  1.1428  0.7330 -2.2700
  683TIP3   OH2 1987   2.298   2.583   0.573  0.3934 -0.1297 -0.5741
  683TIP3    H1 1988   2.223   2.639   0.595  1.2233 -0.4752  3.5237
  683TIP3    H2 1989   2.257   2.500   0.547 -0.7070  0.8508 -2.0975
  684TIP3   OH2 1990   0.375   4.048   2.420  0.0904 -0.2726 -0.0237
  684TIP3    H1 1991   0.342   4.128   2.377 -0.5044 -0.1012  0.7418
  684TIP3    H2 1992   0.364   3.980   2.354  1.1836  0.3887 -0.9145
  685TIP3   OH2 1993   3.779   6.340   6.752  0.3269 -0.5285  0.3059
  685TIP3    H1 1994   3.693   6.374   6.729  0.1654 -1.3536 -0.3068
  685TIP3    H2 1995   3.795   6.375   6.840  0.0645  0.9299 -0.2212
  686TIP3   OH2 1996   1.503   3.566   1.848 -0.3053 -0.1542  0.2680
  686TIP3    H1 1997   1.408   3.563   1.848 -0.2942 -0.8020 -0.3833
  686TIP3    H2 1998   1.526   3.626   1.919 -1.1805 -0.3346  0.7057
  687TIP3   OH2 1999   1.522   0.690   0.202  0.0989 -0.5342  0.4303
  687TIP3    H1 2000   1.430   0.710   0.183 -0.1121 -0.1106  1.8038
  687TIP3    H2 2001   1.558   0.660   0.119 -1.4215 -1.1988 -0.0164
  688TIP3   OH2 2002   0.813   1.709   1.634 -0.0575 -0.1465 -0.0962
  688TIP3    H1 2003   0.792   1.697   1.726 -1.3535 -2.5432 -0.6685
  688TIP3    H2 2004   0.889   1.652   1.619  0.0602  0.1295 -0.5633
  689TIP3   OH2 2005   2.997   2.819   0.485 -0.4109  0.9645  0.9514
  689TIP3    H1 2006   2.944   2.794   0.410 -2.1078  0.7187  2.1913
  689TIP3    H2 2007   3.085   2.834   0.450 -0.7817 -0.8288 -0.7806
  690TIP3   OH2 2008   2.699   2.931   0.091 -0.0260  0.2466 -0.1731
  690TIP3    H1 2009   2.746   2.926   0.174 -0.2078 -1.6160 -0.1576
  690TIP3    H2 2010   2.624   2.872   0.102 -0.3616  0.4103 -1.4649
  691TIP3   OH2 2011   0.911   5.183   0.976 -0.8362  0.0069  0.0508
  691TIP3    H1 2012   0.927   5.147   0.889 -0.3157  1.5432 -0.4871
  691TIP3    H2 2013   0.950   5.118   1.035  0.9660  0.1467 -0.9477
  692TIP3   OH2 2014   8.289   3.252   1.603  0.2505 -0.0318 -0.1984
  692TIP3    H1 2015   8.207   3.297   1.622 -0.1477 -0.2204 -1.4340
  692TIP3    H2 2016   8.354   3.322   1.595  0.1593  0.1374  0.4577
  693TIP3   OH2 2017   1.530   1.005   4.130  0.0259 -0.5934 -0.1058
  693TIP3    H1 2018   1.610   1.042   4.093  0.2651 -2.0680 -1.1248
  693TIP3    H2 2019   1.496   1.073   4.188  2.2489 -0.1241  0.6979
  694TIP3   OH2 2020   0.679   3.074   2.743 -0.0314 -0.0586 -0.5263
  694TIP3    H1 2021   0.642   3.032   2.821  1.1492  0.4680  0.3210
  694TIP3    H2 2022   0.623   3.149   2.727 -1.1379 -0.9768 -1.0432
  695TIP3   OH2 2023   5.263   5.845   6.430 -0.4041  0.2982 -0.2420
  695TIP3    H1 2024   5.355   5.826   6.450 -0.3352 -0.9095 -1.6156
  695TIP3    H2 2025   5.259   5.941   6.427  0.5567  0.3855  0.9531
  696TIP3   OH2 2026   2.960   2.712   1.348  0.3697 -0.0823  0.0280
  696TIP3    H1 2027   2.954   2.807   1.351  2.1165  0.0333  0.1755
  696TIP3    H2 2028   2.959   2.685   1.440  0.9091 -0.1378  0.0176
  697TIP3   OH2 2029   1.576   4.353   0.553 -0.6960  0.2683  0.2724
  697TIP3    H1 2030   1.597   4.440   0.519  2.2244 -0.4985 -0.0230
  697TIP3    H2 2031   1.611   4.353   0.642  1.5048 -1.3419 -0.5320
  698TIP3   OH2 2032   2.058   3.574   0.641 -0.0931 -0.3363 -0.2409
  698TIP3    H1 2033   2.145   3.535   0.632  0.1573 -0.1087  1.0752
  698TIP3    H2 2034   2.008   3.509   0.689 -0.1658  0.2444  0.4692
  699TIP3   OH2 2035   5.667   0.194   6.156 -0.2058  0.2060 -0.3024
  699TIP3    H1 2036   5.721   0.273   6.150  1.6968 -1.0709 -0.1876
  699TIP3    H2 2037   5.674   0.167   6.248 -0.7207 -0.1929 -0.3812
  700TIP3   OH2 2038   2.000   3.690   1.370  0.0750 -0.0916 -0.2437
  700TIP3    H1 2039   2.060   3.639   1.316 -2.8349 -2.0525 -1.7951
  700TIP3    H2 2040   2.021   3.665   1.460  2.0756 -0.1553 -0.7174
  701TIP3   OH2 2041   2.566   7.919   6.749  0.2821  0.2482  0.0897
  701TIP3    H1 2042   2.515   7.839   6.734 -1.0483  1.2103 -0.6008
  701TIP3    H2 2043   2.632   7.894   6.814 -1.0164 -1.0421  0.9304
  702TIP3   OH2 2044   3.613   5.017   2.274  0.5978 -0.0025 -0.1385
  702TIP3    H1 2045   3.551   5.043   2.205 -0.6138  1.1752  1.3364
  702TIP3    H2 2046   3.602   4.923   2.282  1.9536 -0.4108 -2.6752
  703TIP3   OH2 2047   3.529   6.352   6.314  0.1815  0.2592 -0.1705
  703TIP3    H1 2048   3.545   6.301   6.235  0.4359 -0.2336  0.1891
  703TIP3    H2 2049   3.434   6.360   6.319  0.0788 -1.1598  0.3621
  704TIP3   OH2 2050   2.999   1.913   1.400  0.0063  0.0515 -0.1284
  704TIP3    H1 2051   2.951   1.978   1.349  1.0569  0.2407 -0.9120
  704TIP3    H2 2052   2.947   1.833   1.393 -0.5460  0.4300 -0.3770
  705TIP3   OH2 2053   6.373   2.042   6.940  0.3044  0.4532 -0.1399
  705TIP3    H1 2054   6.328   2.125   6.953 -1.2249 -0.1354 -1.4449
  705TIP3    H2 2055   6.333   2.005   6.861  1.5695 -1.1162 -0.0843
  706TIP3   OH2 2056   3.298   2.707   1.987 -0.0931 -0.2457 -0.4867
  706TIP3    H1 2057   3.230   2.643   1.966  0.3061 -1.6414  2.2773
  706TIP3    H2 2058   3.379   2.670   1.952 -0.2933  0.1174 -1.3584
  707TIP3   OH2 2059   2.059   2.523   2.396 -0.4009 -0.5084  0.3156
  707TIP3    H1 2060   2.075   2.613   2.423  2.9921 -0.0768 -2.7805
  707TIP3    H2 2061   1.987   2.529   2.334 -0.7704 -0.0352  0.7869
  708TIP3   OH2 2062   1.992   5.311   1.122  0.5788  0.1072  0.1628
  708TIP3    H1 2063   1.937   5.358   1.185 -0.3843 -0.0305 -0.5679
  708TIP3    H2 2064   2.031   5.380   1.069  0.2970  0.1548  0.0164
  709TIP3   OH2 2065   1.953   5.011   2.700 -0.0883  0.0354  0.3029
  709TIP3    H1 2066   1.932   5.014   2.793  1.4901 -1.5781  0.7210
  709TIP3    H2 2067   1.901   4.939   2.666  1.3652 -1.1012  0.4684
  710TIP3   OH2 2068   3.254   3.512   1.747  0.8398 -0.3606 -0.2383
  710TIP3    H1 2069   3.307   3.453   1.801 -0.6173 -0.6754  0.8711
  710TIP3    H2 2070   3.282   3.599   1.773  1.3286 -0.5269 -0.1891
  711TIP3   OH2 2071   2.554   7.080   5.753  0.0715  0.3932  0.0091
  711TIP3    H1 2072   2.544   7.142   5.680 -1.0956 -0.7939 -0.8550
  711TIP3    H2 2073   2.467   7.076   5.792  0.6009  0.7091  1.2205
  712TIP3   OH2 2074   0.635   3.415   2.271 -0.3875  0.0856  0.3083
  712TIP3    H1 2075   0.656   3.365   2.193 -0.2281 -0.1613  0.5078
  712TIP3    H2 2076   0.601   3.498   2.238 -0.2641  0.0068 -0.0211
  713TIP3   OH2 2077   0.638   4.295   1.223 -0.2861 -0.4155 -0.0690
  713TIP3    H1 2078   0.725   4.317   1.257 -0.1764 -0.5060 -0.2888
  713TIP3    H2 2079   0.655   4.264   1.134 -0.5995  0.0927 -0.3114
  714TIP3   OH2 2080   3.380   4.086   1.623 -0.2240 -0.0077 -0.5991
  714TIP3    H1 2081   3.321   4.022   1.583  0.1017 -0.5654 -0.1998
  714TIP3    H2 2082   3.453   4.034   1.656 -0.4554  0.4521  0.6710
  715TIP3   OH2 2083   3.801   2.829   2.228  0.3302 -0.1214  0.2276
  715TIP3    H1 2084   3.713   2.797   2.210 -0.9395  2.6416  1.3661
  715TIP3    H2 2085   3.839   2.846   2.142 -0.7458  0.0373 -0.2201
  716TIP3   OH2 2086   3.677   7.269   6.292 -0.1007  0.3290 -0.0276
  716TIP3    H1 2087   3.736   7.318   6.235  0.1693 -0.5653 -0.5127
  716TIP3    H2 2088   3.677   7.319   6.374  1.1521  0.4506 -0.0931
  717TIP3   OH2 2089   1.396   4.895   2.910  0.2693 -0.1853  0.6745
  717TIP3    H1 2090   1.478   4.943   2.899 -0.2948  0.4794 -0.7951
  717TIP3    H2 2091   1.329   4.962   2.923  0.2156 -0.7840  4.0272
  718TIP3   OH2 2092   1.421   2.959   2.398 -0.2191  0.9100  0.5830
  718TIP3    H1 2093   1.421   3.037   2.453  0.2646  3.2427 -2.5934
  718TIP3    H2 2094   1.337   2.963   2.352  0.4848  0.4335 -0.7641
  719TIP3   OH2 2095   4.052   6.653   5.444 -0.3553  0.3871 -0.5831
  719TIP3    H1 2096   3.987   6.588   5.416 -1.0673  0.6903  0.3277
  719TIP3    H2 2097   4.085   6.619   5.527 -0.9620  1.3298  0.0598
  720TIP3   OH2 2098   0.750   2.627   1.865 -0.1193  0.3088  0.2573
  720TIP3    H1 2099   0.792   2.633   1.950  1.3194 -0.7609 -0.3456
  720TIP3    H2 2100   0.743   2.717   1.835  1.4164  0.5495  0.5564
  721TIP3   OH2 2101   2.302   3.422   1.807  0.5437  0.1165 -0.5362
  721TIP3    H1 2102   2.275   3.347   1.754 -1.0481  0.5248 -0.3407
  721TIP3    H2 2103   2.367   3.468   1.754  0.4988 -0.6345 -1.2432
  722TIP3   OH2 2104   0.708   3.560   3.060 -0.6635 -0.2549 -0.0051
  722TIP3    H1 2105   0.672   3.509   2.988 -1.0005  0.5731 -0.4315
  722TIP3    H2 2106   0.721   3.497   3.131  0.7313 -1.2954 -1.1543
  723TIP3   OH2 2107   2.265   3.309   3.254  0.2959  0.0103 -0.1176
  723TIP3    H1 2108   2.312   3.271   3.180  0.5963  0.7680 -0.3114
  723TIP3    H2 2109   2.200   3.242   3.278  1.0478 -0.7753 -0.2479
  724TIP3   OH2 2110   2.058   4.633   0.407  0.3841 -0.6282  0.4455
  724TIP3    H1 2111   2.057   4.716   0.454  3.0611 -0.0119 -0.4837
  724TIP3    H2 2112   2.016   4.571   0.467 -0.2370  1.0650  1.7940
  725TIP3   OH2 2113   2.098   4.521   1.343  0.4286  0.1033  0.2857
  725TIP3    H1 2114   2.020   4.548   1.391  0.9264  1.1321  0.5370
  725TIP3    H2 2115   2.169   4.529   1.407  1.3532  3.0381 -1.0503
  726TIP3   OH2 2116   2.062   2.480   0.926  0.3387  0.2694  0.2021
  726TIP3    H1 2117   2.053   2.558   0.872  2.9126  0.4278 -0.0462
  726TIP3    H2 2118   1.972   2.454   0.946 -0.5970  1.7633 -1.8988
  727TIP3   OH2 2119   1.382   2.730   4.428  0.0891 -0.9930 -0.4081
  727TIP3    H1 2120   1.460   2.729   4.372 -0.2081 -4.0047 -0.8131
  727TIP3    H2 2121   1.310   2.706   4.370 -0.8612 -0.0835  0.3825
  728TIP3   OH2 2122   1.378   4.919   1.497  0.2874  0.3782  0.1963
  728TIP3    H1 2123   1.296   4.876   1.472  0.8485 -0.5857  0.0339
  728TIP3    H2 2124   1.355   4.969   1.576 -0.0983 -1.0662  1.0083
  729TIP3   OH2 2125   4.774   7.445   4.996  0.3903  0.4433 -0.1724
  729TIP3    H1 2126   4.684   7.436   4.964  0.2431  1.0806  0.0432
  729TIP3    H2 2127   4.793   7.362   5.039  0.4995 -0.3276 -1.6854
  730TIP3   OH2 2128   0.942   2.966   3.485  0.4917 -0.4381  0.7039
  730TIP3    H1 2129   0.951   3.037   3.549  0.4627  0.6264 -0.4292
  730TIP3    H2 2130   0.920   3.012   3.403  1.9053 -1.6477 -0.3640
  731TIP3   OH2 2131   1.648   5.539   2.730  0.1173  0.0498 -0.1215
  731TIP3    H1 2132   1.630   5.448   2.710 -2.2687  0.2007  1.2031
  731TIP3    H2 2133   1.564   5.584   2.719  1.4760  2.3161 -1.8781
  732TIP3   OH2 2134   1.319   5.919   2.893  0.4813 -0.5732  0.1450
  732TIP3    H1 2135   1.263   5.956   2.825  0.1860  0.2581  0.8381
  732TIP3    H2 2136   1.263   5.857   2.939  0.7280 -1.2605 -0.4548
  733TIP3   OH2 2137   2.702   2.742   2.301  0.0114  0.4646  0.3158
  733TIP3    H1 2138   2.613   2.717   2.275 -0.7067  1.9957  1.2253
  733TIP3    H2 2139   2.690   2.788   2.384  1.8518 -0.8350  1.3212
  734TIP3   OH2 2140   0.149   4.203   0.677 -0.1608 -0.0990  0.2980
  734TIP3    H1 2141   0.175   4.114   0.652 -1.0333 -0.1055 -0.6269
  734TIP3    H2 2142   0.100   4.192   0.758  0.6109 -0.3430  0.7407
  735TIP3   OH2 2143   3.606   7.986   6.406  0.2183 -0.4273 -0.1487
  735TIP3    H1 2144   3.586   8.055   6.344  1.3741 -0.4304 -0.5292
  735TIP3    H2 2145   3.702   7.983   6.410  0.2330  1.5858  3.8491
  736TIP3   OH2 2146   1.998   3.993   1.027  0.0213 -0.2725 -1.1899
  736TIP3    H1 2147   1.977   3.923   0.966  0.5213 -2.1531  0.7437
  736TIP3    H2 2148   1.916   4.011   1.072 -0.5026  1.5493 -2.7675
  737TIP3   OH2 2149   1.409   2.687   0.412 -0.0135  0.3394  0.6081
  737TIP3    H1 2150   1.468   2.655   0.481 -0.0742  0.6013  0.7827
  737TIP3    H2 2151   1.459   2.678   0.331 -0.5620 -1.6120  0.4597
  738TIP3   OH2 2152   0.253   4.442   1.860  0.6025  0.8594  0.1830
  738TIP3    H1 2153   0.321   4.374   1.855 -0.4859 -0.1792 -1.3221
  738TIP3    H2 2154   0.300   4.522   1.881  1.8782 -0.4122  2.3684
  739TIP3   OH2 2155   4.749   7.994   6.646 -0.0835 -0.2807 -0.3133
  739TIP3    H1 2156   4.777   8.083   6.670 -1.4845 -0.1828  0.9664
  739TIP3    H2 2157   4.825   7.939   6.667  0.0125  0.3123  0.9364
  740TIP3   OH2 2158   1.789   2.646   0.459  0.8509 -0.3619  0.8475
  740TIP3    H1 2159   1.740   2.711   0.509  1.1086  1.6831 -1.4718
  740TIP3    H2 2160   1.740   2.565   0.471 -2.6147  1.3991 -0.6017
  741TIP3   OH2 2161   1.615   3.362   3.010 -0.2425  0.5247  0.0158
  741TIP3    H1 2162   1.638   3.400   3.095  1.5042  1.6777 -0.9496
  741TIP3    H2 2163   1.622   3.434   2.948  0.1562 -0.6847 -1.3768
  742TIP3   OH2 2164   2.350   7.564   6.512  0.5001 -0.0990  0.0307
  742TIP3    H1 2165   2.263   7.588   6.480  0.0918 -1.7925 -0.1970
  742TIP3    H2 2166   2.409   7.584   6.440 -0.0279 -1.1387 -0.7040
  743TIP3   OH2 2167   5.321   7.502   6.726 -0.2976  0.2814 -0.2166
  743TIP3    H1 2168   5.291   7.427   6.776 -0.5983  0.4483 -0.1475
  743TIP3    H2 2169   5.403   7.528   6.769 -1.1704  1.1655  0.9356
  744TIP3   OH2 2170   1.237   1.750   2.242  0.4383  0.2876  0.0804
  744TIP3    H1 2171   1.182   1.810   2.293  1.7606  1.4588  0.1262
  744TIP3    H2 2172   1.314   1.737   2.297  0.3610 -1.1308 -0.1252
  745TIP3   OH2 2173   2.573   2.980   1.210 -0.5750 -0.0660 -0.0387
  745TIP3    H1 2174   2.553   3.007   1.120  1.0771  1.1134 -0.0788
  745TIP3    H2 2175   2.622   2.899   1.201 -0.3906  0.0641 -0.2113
  746TIP3   OH2 2176   1.243   1.413   2.972 -0.1164 -0.2222  0.4050
  746TIP3    H1 2177   1.212   1.367   3.050 -0.5397 -0.3957  0.1353
  746TIP3    H2 2178   1.339   1.413   2.981 -0.2246  1.4911  1.9059
  747TIP3   OH2 2179   4.180   2.465   1.392  0.3134 -0.0243  0.0391
  747TIP3    H1 2180   4.273   2.451   1.375  0.1580  0.2592 -1.0723
  747TIP3    H2 2181   4.138   2.452   1.307 -0.4660  1.6361  0.1617
  748TIP3   OH2 2182   1.089   2.255   0.433  0.9077  0.8272 -0.3127
  748TIP3    H1 2183   1.146   2.322   0.396  1.8250  0.3846  0.2728
  748TIP3    H2 2184   1.022   2.305   0.480  0.7001  1.3533 -1.1486
  749TIP3   OH2 2185   8.112   0.148   6.565  0.0619  0.2127 -0.2513
  749TIP3    H1 2186   8.104   0.105   6.650  1.3216  2.3355  0.9563
  749TIP3    H2 2187   8.161   0.085   6.512  0.8424 -0.3722  1.1272
  750TIP3   OH2 2188   1.128   3.022   1.455 -0.1909  0.0361  0.0834
  750TIP3    H1 2189   1.180   3.015   1.535 -1.0393  2.5707  0.9054
  750TIP3    H2 2190   1.051   3.073   1.480 -1.9520 -1.6444 -1.6667
  751TIP3   OH2 2191   1.179   4.710   1.620  0.3671  0.0679  0.2245
  751TIP3    H1 2192   1.242   4.726   1.690  0.3854  0.4597  0.1187
  751TIP3    H2 2193   1.132   4.792   1.611 -2.1841 -1.0895  2.3220
  752TIP3   OH2 2194   1.758   3.239   0.931  1.0978  0.3843 -0.0089
  752TIP3    H1 2195   1.673   3.269   0.963  0.5924 -0.2158 -0.7696
  752TIP3    H2 2196   1.821   3.273   0.994  0.5245  2.8860 -0.7513
  753TIP3   OH2 2197   1.650   4.909   0.695  0.0002  0.1174  0.4504
  753TIP3    H1 2198   1.586   4.943   0.633  0.1323  1.5694  1.0864
  753TIP3    H2 2199   1.598   4.880   0.770  0.0040  0.3403  0.5396
  754TIP3   OH2 2200   3.247   3.108   1.516  0.1721 -0.5998  0.1317
  754TIP3    H1 2201   3.273   3.049   1.587  0.1953 -1.7705 -0.8392
  754TIP3    H2 2202   3.304   3.184   1.525  0.9867 -1.2688  0.6284
  755TIP3   OH2 2203   7.754   4.247   0.742  0.1831  0.7783  0.0574
  755TIP3    H1 2204   7.690   4.248   0.814  0.0364  0.8965 -0.0746
  755TIP3    H2 2205   7.753   4.157   0.710 -0.9343  1.1032 -0.8503
  756TIP3   OH2 2206   1.880   2.342   1.331 -1.3141 -0.3351 -0.6294
  756TIP3    H1 2207   1.836   2.359   1.415 -0.5344  1.6164 -0.5996
  756TIP3    H2 2208   1.888   2.247   1.328 -2.9993 -0.5618  0.6658
  757TIP3   OH2 2209   0.996   2.523   0.908 -0.2284 -0.2226  0.0054
  757TIP3    H1 2210   0.935   2.456   0.941 -2.1320  1.5021  0.0956
  757TIP3    H2 2211   1.037   2.558   0.987  0.3434 -0.8723  0.0015
  758TIP3   OH2 2212   8.494   4.041   3.201  0.2837  0.3743  0.3747
  758TIP3    H1 2213   8.475   3.950   3.224  2.2035  0.1224  0.9987
  758TIP3    H2 2214   8.417   4.069   3.150 -1.9745 -0.4745  3.1957
  759TIP3   OH2 2215   3.530   3.428   1.196  0.1806  0.0612 -0.1356
  759TIP3    H1 2216   3.542   3.393   1.284  3.7578 -0.7325 -0.8497
  759TIP3    H2 2217   3.538   3.523   1.207 -0.1506  0.0131  0.5203
  760TIP3   OH2 2218   1.943   4.223   1.262  0.4045 -0.5396  0.0025
  760TIP3    H1 2219   1.941   4.290   1.194 -0.9943 -1.1182 -0.5601
  760TIP3    H2 2220   2.035   4.216   1.287  0.6248  1.2827 -0.2238
  761TIP3   OH2 2221   7.595   1.450   5.957 -0.5529  0.4045 -0.8213
  761TIP3    H1 2222   7.523   1.396   5.988 -0.7110  0.2923 -1.3896
  761TIP3    H2 2223   7.668   1.389   5.946 -0.6183  0.3755 -1.0842
  762TIP3   OH2 2224   0.280   1.779   2.040  0.0768  0.4525 -0.5938
  762TIP3    H1 2225   0.188   1.804   2.034 -0.5963 -1.5456  0.9166
  762TIP3    H2 2226   0.317   1.841   2.103 -0.7000  0.0897  0.2388
  763TIP3   OH2 2227   4.747   6.754   6.648 -0.1130 -0.2138 -0.0402
  763TIP3    H1 2228   4.660   6.771   6.683  0.6322  1.6843  1.0165
  763TIP3    H2 2229   4.787   6.694   6.711  0.1341  0.7448  0.7344
  764TIP3   OH2 2230   2.935   3.154   4.599  0.2873  0.1169 -0.5322
  764TIP3    H1 2231   2.889   3.238   4.590  0.7285  0.2586 -1.5215
  764TIP3    H2 2232   3.013   3.164   4.546  0.7659 -0.6322  0.0300
  765TIP3   OH2 2233   0.196   4.494   2.722  0.6111  0.1033  0.1094
  765TIP3    H1 2234   0.206   4.579   2.765 -1.9748  1.1639 -1.2790
  765TIP3    H2 2235   0.237   4.505   2.637  2.6874 -0.9369  0.9318
  766TIP3   OH2 2236   3.543   5.673   5.348  0.0397  0.1670 -1.1019
  766TIP3    H1 2237   3.621   5.723   5.369 -0.7850  1.4363 -0.9939
  766TIP3    H2 2238   3.523   5.696   5.257  0.1688 -0.6775 -1.3534
  767TIP3   OH2 2239   1.477   2.440   1.834  0.6658  0.8025  0.5789
  767TIP3    H1 2240   1.400   2.441   1.776  1.8574  1.5916 -1.0337
  767TIP3    H2 2241   1.546   2.399   1.781  1.2973 -0.1734  2.1132
  768TIP3   OH2 2242   0.483   4.687   1.640 -0.1502 -0.5259  0.1111
  768TIP3    H1 2243   0.431   4.620   1.595  1.6036 -1.4805 -0.5396
  768TIP3    H2 2244   0.475   4.664   1.733 -1.7067 -0.0487  0.1167
  769TIP3   OH2 2245   2.578   3.555   0.264  0.1324  0.3393  0.6795
  769TIP3    H1 2246   2.515   3.613   0.223 -0.1340 -2.1781 -2.7013
  769TIP3    H2 2247   2.525   3.485   0.302  0.6879 -0.2491  0.3881
  770TIP3   OH2 2248   2.380   1.931   1.860  0.0876  0.5445 -0.0185
  770TIP3    H1 2249   2.398   2.009   1.807  0.3916  0.2082 -0.4170
  770TIP3    H2 2250   2.448   1.932   1.926  1.8672 -0.9450 -1.7679
  771TIP3   OH2 2251   4.348   6.847   6.931  0.4888 -0.8086 -0.5426
  771TIP3    H1 2252   4.405   6.863   6.856 -0.0497 -1.2794 -1.0589
  771TIP3    H2 2253   4.259   6.861   6.898  0.3887  1.8126  0.7519
  772TIP3   OH2 2254   7.997   5.246   1.919  0.2919  0.0591 -0.3482
  772TIP3    H1 2255   7.943   5.322   1.898 -1.9000 -1.0063  1.2139
  772TIP3    H2 2256   8.079   5.262   1.873  0.9434  4.6886  2.0657
  773TIP3   OH2 2257   2.566   1.059   1.761  0.5277  0.3279  0.5594
  773TIP3    H1 2258   2.540   0.994   1.826  0.4775 -2.0989 -1.8137
  773TIP3    H2 2259   2.585   1.008   1.682  1.5847  3.0970 -1.0403
  774TIP3   OH2 2260   0.761   2.607   0.607 -0.4814 -0.4625 -0.0241
  774TIP3    H1 2261   0.714   2.616   0.523  0.5629 -0.6457 -0.6363
  774TIP3    H2 2262   0.850   2.635   0.587 -0.3261 -0.1131  1.1375
  775TIP3   OH2 2263   1.565   3.070   0.144 -0.2503  0.5009  0.0279
  775TIP3    H1 2264   1.479   3.113   0.144 -0.2912  0.4207 -0.0191
  775TIP3    H2 2265   1.545   2.978   0.124 -0.1547  0.4796  0.0319
  776TIP3   OH2 2266  -0.003   2.925   2.179 -0.7026  0.3886 -0.0606
  776TIP3    H1 2267   0.063   2.988   2.209 -1.8114  1.7836 -0.4885
  776TIP3    H2 2268   0.043   2.872   2.113 -0.3787  2.2995 -1.4257
  777TIP3   OH2 2269   1.750   2.354   0.572 -0.2132  0.2881  0.2068
  777TIP3    H1 2270   1.835   2.326   0.540 -0.3158 -0.1591  0.3228
  777TIP3    H2 2271   1.707   2.274   0.601 -1.0376  0.3840 -0.7206
  778TIP3   OH2 2272   3.235   4.448   0.473 -0.3466 -0.0743 -0.2302
  778TIP3    H1 2273   3.170   4.406   0.529  0.3730  0.8653  1.3747
  778TIP3    H2 2274   3.195   4.531   0.446  0.5322  1.0069  1.6363
  779TIP3   OH2 2275   1.058   4.003   0.670 -0.0081  0.5770 -0.1755
  779TIP3    H1 2276   1.138   3.950   0.665  0.7470  1.8181 -1.4404
  779TIP3    H2 2277   1.004   3.958   0.736  1.2471 -0.9074 -0.1252
  780TIP3   OH2 2278   0.274   3.909   4.011  0.3211 -0.2285  0.2381
  780TIP3    H1 2279   0.291   3.994   3.968  0.2739 -0.7323 -0.8033
  780TIP3    H2 2280   0.181   3.914   4.035  0.1447 -0.2287 -0.4123
  781TIP3   OH2 2281   1.016   4.765   3.278 -0.6436  0.1599 -0.3730
  781TIP3    H1 2282   1.044   4.743   3.367 -2.1710 -2.4509 -0.4629
  781TIP3    H2 2283   1.096   4.761   3.226 -0.2079 -1.2650  0.3820
  782TIP3   OH2 2284   5.588   6.194   6.102 -0.3601 -0.0615  0.7753
  782TIP3    H1 2285   5.600   6.112   6.150 -0.5383  0.5222  1.8294
  782TIP3    H2 2286   5.498   6.189   6.069  0.9580 -2.1445 -2.7642
  783TIP3   OH2 2287   1.537   2.344   3.364  0.1796 -0.3805 -0.7024
  783TIP3    H1 2288   1.478   2.388   3.303 -0.6278 -0.5696 -0.0611
  783TIP3    H2 2289   1.553   2.409   3.433 -0.0487 -0.6636 -0.3807
  784TIP3   OH2 2290   2.960   2.766   4.281 -0.4708 -0.1041 -0.3831
  784TIP3    H1 2291   2.929   2.676   4.292 -0.4023  0.0775  1.3932
  784TIP3    H2 2292   2.924   2.813   4.357 -0.7069  1.4237 -1.4225
  785TIP3   OH2 2293   1.938   5.475   1.609 -0.5308  0.9263 -0.2143
  785TIP3    H1 2294   1.911   5.384   1.599 -0.3349  0.7916  0.4923
  785TIP3    H2 2295   1.959   5.484   1.701  1.6031  1.0817 -0.6870
  786TIP3   OH2 2296   1.873   3.105   1.288 -0.4399  0.0188  0.1875
  786TIP3    H1 2297   1.813   3.058   1.230  0.6085  0.5741 -1.3825
  786TIP3    H2 2298   1.952   3.051   1.288  0.3185  1.1352 -0.6066
  787TIP3   OH2 2299   3.684   3.886   2.080  0.1875 -0.0281  0.2809
  787TIP3    H1 2300   3.673   3.950   2.150  1.0488 -0.3267  0.6985
  787TIP3    H2 2301   3.777   3.862   2.084  0.3159  0.1685 -1.1448
  788TIP3   OH2 2302   1.278   3.955   1.816 -0.3668 -0.6193 -0.5623
  788TIP3    H1 2303   1.254   4.023   1.753  1.6628 -0.0468 -0.7759
  788TIP3    H2 2304   1.373   3.946   1.805  0.0586 -0.4016  2.4980
  789TIP3   OH2 2305   1.364   2.768   1.228  0.1581 -0.7209  0.0040
  789TIP3    H1 2306   1.380   2.789   1.321  0.6224  0.8113 -0.4103
  789TIP3    H2 2307   1.383   2.674   1.221  0.5678 -0.7504  1.3624
  790TIP3   OH2 2308   2.332   3.704   1.565  0.2535  0.8781  0.6788
  790TIP3    H1 2309   2.299   3.761   1.495  0.9174 -0.4304 -0.7411
  790TIP3    H2 2310   2.368   3.764   1.631  3.7711  2.1014 -2.1666
  791TIP3   OH2 2311   1.448   3.000   3.297 -0.2829  0.1123 -0.3072
  791TIP3    H1 2312   1.375   3.043   3.341  1.3634  0.8401  1.8351
  791TIP3    H2 2313   1.421   2.994   3.205 -2.2343  2.0507  0.0971
  792TIP3   OH2 2314   1.362   7.502   0.512  0.4452  0.5955  0.3057
  792TIP3    H1 2315   1.397   7.464   0.432  1.4760 -0.2238  1.1279
  792TIP3    H2 2316   1.321   7.584   0.484  3.0252  1.5842 -0.6909
  793TIP3   OH2 2317   2.511   3.477   2.265 -0.1130 -0.1823  0.2286
  793TIP3    H1 2318   2.545   3.428   2.340 -0.5996 -0.9338 -0.0473
  793TIP3    H2 2319   2.590   3.511   2.222  0.3419 -2.3318 -0.6969
  794TIP3   OH2 2320   4.422   5.197   1.669 -0.5343 -0.3333 -0.3236
  794TIP3    H1 2321   4.408   5.122   1.727  1.3362  0.5025  1.3060
  794TIP3    H2 2322   4.402   5.273   1.724 -1.6011  0.3767 -1.6951
  795TIP3   OH2 2323   3.347   2.231   2.050 -0.2353 -0.1762 -0.0335
  795TIP3    H1 2324   3.402   2.282   1.991  0.8636 -0.1566  0.9774
  795TIP3    H2 2325   3.409   2.173   2.095 -1.0684 -0.2403  1.0364
  796TIP3   OH2 2326   1.021   3.481   2.722 -0.6836 -0.5792  0.1149
  796TIP3    H1 2327   0.953   3.547   2.711 -0.0252  0.2137  0.7059
  796TIP3    H2 2328   1.016   3.457   2.815 -0.5734 -0.9659  0.0209
  797TIP3   OH2 2329   2.922   1.917   1.677 -0.2139 -0.4374  0.7053
  797TIP3    H1 2330   2.978   1.849   1.640  0.8555  1.0850 -0.5759
  797TIP3    H2 2331   2.922   1.986   1.611 -2.3384  0.2668  1.3965
  798TIP3   OH2 2332   3.182   4.139   2.054 -0.4143 -0.1072  0.3578
  798TIP3    H1 2333   3.136   4.188   2.122 -0.6942 -0.2884  0.2980
  798TIP3    H2 2334   3.188   4.050   2.089 -0.4462 -0.1708  0.1992
  799TIP3   OH2 2335   1.257   5.088   3.010  0.2378 -0.2034 -0.1586
  799TIP3    H1 2336   1.185   5.075   3.072  1.2786  0.2702  1.1611
  799TIP3    H2 2337   1.220   5.145   2.942 -0.3717  0.7516  0.9622
  800TIP3   OH2 2338   3.252   1.219   2.597  0.1147 -0.3178  0.2200
  800TIP3    H1 2339   3.247   1.231   2.502 -0.4948 -0.8801  0.1877
  800TIP3    H2 2340   3.193   1.147   2.616 -0.0802  0.0627  1.0835
  801TIP3   OH2 2341   3.037   1.244   1.986  0.4826  0.2826  0.8133
  801TIP3    H1 2342   3.084   1.210   1.910 -0.3441  0.0248  0.4112
  801TIP3    H2 2343   2.984   1.316   1.953  0.9728  0.9021  1.3603
  802TIP3   OH2 2344   1.403   4.790   2.372 -0.5290  0.1546  0.5028
  802TIP3    H1 2345   1.429   4.699   2.360  1.1918  0.8300 -1.2022
  802TIP3    H2 2346   1.412   4.806   2.466 -0.9397 -1.4281  0.8331
  803TIP3   OH2 2347   1.706   4.388   0.801  0.3913  0.2654  0.2743
  803TIP3    H1 2348   1.701   4.300   0.839 -2.0069  0.0425 -0.4887
  803TIP3    H2 2349   1.690   4.447   0.875  1.9123  0.0712  0.7702
  804TIP3   OH2 2350   1.979   2.722   0.800 -0.1238  0.1309 -0.0509
  804TIP3    H1 2351   1.998   2.757   0.713 -2.7792  0.1083 -0.6907
  804TIP3    H2 2352   1.945   2.797   0.849  1.4033  0.1544  1.0008
  805TIP3   OH2 2353   4.310   3.046   1.046 -0.5549 -0.1712 -0.2797
  805TIP3    H1 2354   4.243   2.996   1.091 -1.4288  0.6467 -0.6425
  805TIP3    H2 2355   4.261   3.102   0.985  0.4663  0.2629 -0.7163
  806TIP3   OH2 2356   7.174   7.336   3.662  0.2317  0.7252 -0.3348
  806TIP3    H1 2357   7.266   7.325   3.637 -0.1023 -1.1497 -0.8829
  806TIP3    H2 2358   7.128   7.344   3.579 -0.5864 -2.9325 -0.3353
  807TIP3   OH2 2359   2.163   2.643   0.162  0.3249 -0.0306  0.5696
  807TIP3    H1 2360   2.191   2.561   0.120  0.2770  0.1677  0.1423
  807TIP3    H2 2361   2.074   2.624   0.193 -0.8385  0.7497 -2.1094
  808TIP3   OH2 2362   1.895   3.346   1.114  0.9372 -0.1299 -0.6244
  808TIP3    H1 2363   1.879   3.424   1.168  1.7216  0.9551 -1.9186
  808TIP3    H2 2364   1.909   3.276   1.178  0.4749  0.8409  0.5723
  809TIP3   OH2 2365   2.371   5.556   0.541 -0.4052  0.1393  0.0407
  809TIP3    H1 2366   2.343   5.647   0.544  0.5069  0.4410 -0.4821
  809TIP3    H2 2367   2.293   5.506   0.564 -1.7028  0.9138 -2.4324
  810TIP3   OH2 2368   4.708   5.635   3.659 -0.1096  0.2170 -0.0074
  810TIP3    H1 2369   4.620   5.669   3.649 -0.6577 -1.2522 -0.3108
  810TIP3    H2 2370   4.697   5.540   3.671  1.4170  0.0001 -0.1225
  811TIP3   OH2 2371   2.971   3.331   0.568 -0.0101  0.1275 -0.0035
  811TIP3    H1 2372   3.012   3.245   0.556  0.0089 -0.0057  0.9882
  811TIP3    H2 2373   3.036   3.394   0.535 -0.4299 -0.2851 -1.6855
  812TIP3   OH2 2374   3.143   4.894   0.628  0.4298 -0.1373  0.6934
  812TIP3    H1 2375   3.198   4.972   0.632 -0.5776  0.5824  1.0081
  812TIP3    H2 2376   3.173   4.846   0.551  0.3110  1.1359 -0.1583
  813TIP3   OH2 2377   2.033   4.649   2.151 -0.4086 -0.3520  0.4221
  813TIP3    H1 2378   2.041   4.737   2.113  1.1998 -0.3784  0.6648
  813TIP3    H2 2379   1.944   4.646   2.187 -0.8068  0.8304 -0.4486
  814TIP3   OH2 2380   7.849   0.253   6.078  0.5094 -0.3036  0.0283
  814TIP3    H1 2381   7.826   0.182   6.138  0.6783 -0.0961  0.3347
  814TIP3    H2 2382   7.825   0.333   6.125 -1.4797 -0.2281 -1.0682
  815TIP3   OH2 2383   1.874   1.563   1.509 -0.2103 -0.2526 -0.5233
  815TIP3    H1 2384   1.951   1.545   1.562 -0.9536 -0.8979  0.3535
  815TIP3    H2 2385   1.906   1.620   1.439  0.8682  0.2355  0.3543
  816TIP3   OH2 2386   3.603   1.742   2.726 -0.2433 -0.4544  0.8123
  816TIP3    H1 2387   3.614   1.759   2.632 -1.1206 -0.7984  0.6437
  816TIP3    H2 2388   3.685   1.773   2.765  0.4657 -1.0706 -0.1569
  817TIP3   OH2 2389   0.489   4.583   1.897  0.5703 -0.5051  0.2163
  817TIP3    H1 2390   0.530   4.520   1.956  1.8281 -0.2183 -0.3428
  817TIP3    H2 2391   0.497   4.667   1.942 -1.3581 -0.7711  1.0902
  818TIP3   OH2 2392   3.623   3.368   2.379  0.4274  0.1243 -0.2493
  818TIP3    H1 2393   3.606   3.397   2.290 -0.3527 -1.4009 -0.6166
  818TIP3    H2 2394   3.638   3.274   2.371 -0.7562 -0.2318  1.3436
  819TIP3   OH2 2395   0.702   0.667   1.725 -0.4903 -0.3649 -0.0512
  819TIP3    H1 2396   0.762   0.715   1.668 -1.3981 -0.1222 -0.8110
  819TIP3    H2 2397   0.747   0.663   1.809  0.2502  0.5060 -0.3964
  820TIP3   OH2 2398   2.715   1.606   0.516 -0.5413 -0.0422 -0.2608
  820TIP3    H1 2399   2.689   1.603   0.608 -1.0407 -1.3122 -0.4361
  820TIP3    H2 2400   2.657   1.543   0.473  0.1061  0.0917 -1.3413
  821TIP3   OH2 2401   3.722   5.759   5.679  0.1534 -0.6842  0.2563
  821TIP3    H1 2402   3.763   5.706   5.611 -0.3859 -2.3914  1.2347
  821TIP3    H2 2403   3.628   5.753   5.661  0.1864  1.7460 -0.9160
  822TIP3   OH2 2404   4.122   4.949   6.422  0.4889  0.7751  0.0015
  822TIP3    H1 2405   4.092   5.019   6.365 -0.2958  0.3669 -0.0965
  822TIP3    H2 2406   4.183   4.899   6.367 -0.5751  0.1405 -0.6440
  823TIP3   OH2 2407   7.422   6.045   3.023 -0.4651  0.1855  0.4806
  823TIP3    H1 2408   7.461   6.097   2.953 -2.2664 -0.5256 -1.0885
  823TIP3    H2 2409   7.328   6.062   3.016 -0.6581  0.3693  2.9544
  824TIP3   OH2 2410   1.369   4.394   2.768  0.1734 -0.0552 -0.4711
  824TIP3    H1 2411   1.357   4.305   2.801 -0.0031  0.6711  1.5173
  824TIP3    H2 2412   1.460   4.396   2.737  0.6936 -0.4943  0.9614
  825TIP3   OH2 2413   2.760   2.734   0.369  0.1614 -0.3135 -0.5485
  825TIP3    H1 2414   2.719   2.818   0.349  0.7032 -0.2890 -1.5897
  825TIP3    H2 2415   2.695   2.669   0.346 -0.5186 -0.1615  0.9095
  826TIP3   OH2 2416   2.148   3.681   4.817 -0.2620  0.4755  0.1396
  826TIP3    H1 2417   2.147   3.606   4.876 -0.0722  1.3513  1.2686
  826TIP3    H2 2418   2.205   3.655   4.745 -1.6015 -1.1246 -0.3562
  827TIP3   OH2 2419   6.320   0.497   6.911  0.1653  0.0379 -0.6146
  827TIP3    H1 2420   6.392   0.545   6.871  0.6245 -0.4918 -0.4176
  827TIP3    H2 2421   6.317   0.528   7.001  0.5967 -0.4600 -0.4296
  828TIP3   OH2 2422   1.058   5.120   2.108  0.0587  0.3711 -0.5908
  828TIP3    H1 2423   0.968   5.142   2.081  0.2334  2.5980  0.4803
  828TIP3    H2 2424   1.074   5.176   2.184  2.6728  0.6758 -1.3192
  829TIP3   OH2 2425   7.122   0.316   6.588  0.0799 -0.4358 -0.1134
  829TIP3    H1 2426   7.176   0.371   6.645  1.0802  0.7644 -2.1542
  829TIP3    H2 2427   7.179   0.242   6.566  0.2141 -0.1661 -0.6875
  830TIP3   OH2 2428   7.367   2.982   6.818 -0.1365  0.3961  0.0916
  830TIP3    H1 2429   7.458   3.011   6.811 -0.0473 -0.1665 -1.3487
  830TIP3    H2 2430   7.361   2.941   6.904  1.6764 -1.8714 -0.8108
  831TIP3   OH2 2431   2.957   4.276   1.416  0.1908 -0.3366 -0.3464
  831TIP3    H1 2432   2.898   4.211   1.455  0.1218  0.1657  0.3942
  831TIP3    H2 2433   2.927   4.284   1.326 -1.3507  0.4564  0.2260
  832TIP3   OH2 2434   8.315   5.362   0.938  0.3401 -0.1579  0.3137
  832TIP3    H1 2435   8.234   5.407   0.914  1.0314  0.2614 -1.2832
  832TIP3    H2 2436   8.332   5.303   0.864  0.6666 -1.3799  1.3472
  833TIP3   OH2 2437   0.357   4.166   3.924 -0.2539 -0.5463 -0.5859
  833TIP3    H1 2438   0.355   4.210   3.839 -0.4340 -0.0795 -0.3440
  833TIP3    H2 2439   0.446   4.181   3.956 -0.3468 -0.2644 -0.4571
  834TIP3   OH2 2440   0.866   4.774   0.553 -0.3181  0.0876 -0.0234
  834TIP3    H1 2441   0.775   4.798   0.540 -0.8568 -1.6217  0.4948
  834TIP3    H2 2442   0.915   4.832   0.495 -1.7296  1.0061 -0.3104
  835TIP3   OH2 2443   0.116   2.551   1.265 -0.2167 -0.4433 -0.1152
  835TIP3    H1 2444   0.114   2.609   1.189 -2.5927  1.0710  1.0315
  835TIP3    H2 2445   0.137   2.465   1.229  1.1296  0.6950 -2.1442
  836TIP3   OH2 2446   3.080   1.624   0.347  0.3378 -0.3248  0.5098
  836TIP3    H1 2447   3.114   1.535   0.341  0.5239 -0.1776 -0.7545
  836TIP3    H2 2448   3.082   1.644   0.441  0.4674 -1.5752  0.7858
  837TIP3   OH2 2449   1.658   3.765   0.729 -0.0939  0.4661 -0.6188
  837TIP3    H1 2450   1.673   3.812   0.647  1.6276 -0.3657 -0.8060
  837TIP3    H2 2451   1.643   3.675   0.703  2.3107 -0.1744  0.0504
  838TIP3   OH2 2452   7.323   0.707   5.531  0.1669  0.1483  0.4041
  838TIP3    H1 2453   7.310   0.743   5.618  1.1798  0.0010  0.6203
  838TIP3    H2 2454   7.235   0.702   5.493 -0.2284  0.5660  1.2709
  839TIP3   OH2 2455   0.762   3.728   3.502 -0.0869 -0.3864 -0.0317
  839TIP3    H1 2456   0.773   3.637   3.526 -0.6806 -0.2761  0.6909
  839TIP3    H2 2457   0.806   3.777   3.571  1.2014 -0.1497 -1.0056
  840TIP3   OH2 2458   4.835   5.218   6.898  0.1803  0.4807  0.3333
  840TIP3    H1 2459   4.819   5.200   6.991  0.0769  2.9601  0.8572
  840TIP3    H2 2460   4.893   5.294   6.899  1.4392 -0.4415 -1.6482
  841TIP3   OH2 2461   1.073   1.388   4.097  0.2803 -0.4729 -0.0726
  841TIP3    H1 2462   1.026   1.315   4.137 -0.6167 -0.0687 -0.3802
  841TIP3    H2 2463   1.038   1.393   4.008  0.1549  0.4906  0.0279
  842TIP3   OH2 2464   2.240   2.700   1.782  0.6910  0.2793 -0.1847
  842TIP3    H1 2465   2.314   2.744   1.740 -0.9195  1.4438 -1.8376
  842TIP3    H2 2466   2.190   2.771   1.823 -0.2000 -0.3705 -0.1354
  843TIP3   OH2 2467   0.705   1.548   3.256  0.0425 -0.4894  0.3058
  843TIP3    H1 2468   0.655   1.620   3.217  0.1736 -0.6268 -0.1148
  843TIP3    H2 2469   0.666   1.537   3.343  0.4970  0.5732  0.6513
  844TIP3   OH2 2470   1.982   0.464   4.797  0.0016 -0.1426 -0.0098
  844TIP3    H1 2471   1.911   0.434   4.855  0.0611 -1.0263 -0.3809
  844TIP3    H2 2472   1.950   0.547   4.761 -0.5127 -0.1423  0.4362
  845TIP3   OH2 2473   3.519   2.706   0.573  0.7071  1.0773 -0.3229
  845TIP3    H1 2474   3.515   2.798   0.601 -0.8160  0.7974  0.4412
  845TIP3    H2 2475   3.535   2.657   0.653 -0.2709  0.5461 -0.4326
  846TIP3   OH2 2476   5.818   7.836   5.575 -0.4901  0.0863 -0.3630
  846TIP3    H1 2477   5.766   7.806   5.650  0.8346  1.3100  1.0834
  846TIP3    H2 2478   5.856   7.757   5.539  0.0339 -0.3830  1.1675
  847TIP3   OH2 2479   2.636   5.680   0.090  0.0411 -0.4945 -0.6579
  847TIP3    H1 2480   2.671   5.736   0.160 -0.2165 -0.1278 -0.8202
  847TIP3    H2 2481   2.711   5.629   0.060 -0.1446 -1.7286  0.8984
  848TIP3   OH2 2482   6.702   7.514   6.239 -0.3757 -0.1557  0.3024
  848TIP3    H1 2483   6.695   7.580   6.170 -1.8281 -0.4262  0.1926
  848TIP3    H2 2484   6.655   7.551   6.313  1.2423  0.1641  1.1901
  849TIP3   OH2 2485   2.286   2.196   1.235 -0.3552  0.1940  0.0054
  849TIP3    H1 2486   2.355   2.175   1.172 -1.1582 -2.0890 -0.1793
  849TIP3    H2 2487   2.322   2.169   1.320 -0.4239  0.4520  0.1167
  850TIP3   OH2 2488   6.750   6.010   6.734 -0.3420 -0.7307  0.5514
  850TIP3    H1 2489   6.724   5.973   6.649 -1.3217  3.3782 -1.0489
  850TIP3    H2 2490   6.667   6.023   6.781 -0.0260 -0.4188  1.0307
  851TIP3   OH2 2491   2.079   2.270   0.110 -0.1643  0.1723 -0.2544
  851TIP3    H1 2492   2.134   2.293   0.035  0.6513 -2.1767 -0.4050
  851TIP3    H2 2493   2.073   2.175   0.108 -0.8042  0.1148  2.1982
  852TIP3   OH2 2494   2.843   3.224   0.781 -0.7469 -0.3780 -0.0201
  852TIP3    H1 2495   2.838   3.135   0.746 -3.2353  0.2211 -1.3242
  852TIP3    H2 2496   2.869   3.278   0.706 -0.5012  0.1560  0.4448
  853TIP3   OH2 2497   4.628   4.076   0.367 -0.1672  0.1430 -0.4363
  853TIP3    H1 2498   4.603   4.161   0.331 -0.3841  0.4540  0.4334
  853TIP3    H2 2499   4.610   4.014   0.297  0.2308  0.8519 -1.1596
  854TIP3   OH2 2500   4.750   7.941   6.109  0.3525  0.0603  0.2309
  854TIP3    H1 2501   4.718   7.888   6.182 -0.4198  0.5326  0.2336
  854TIP3    H2 2502   4.672   7.983   6.073  0.9707  1.3686  0.3743
  855TIP3   OH2 2503   4.822   3.721   1.263 -0.6081  0.2896 -0.1148
  855TIP3    H1 2504   4.761   3.752   1.196 -0.0791 -0.3095 -0.8911
  855TIP3    H2 2505   4.907   3.757   1.236 -0.3184 -0.3037 -0.0076
  856TIP3   OH2 2506   0.134   5.628   6.063 -0.5176 -0.0203 -0.2887
  856TIP3    H1 2507   0.213   5.646   6.114 -0.2198  0.4468 -0.9074
  856TIP3    H2 2508   0.167   5.590   5.981 -0.9893 -0.7580 -0.1418
  857TIP3   OH2 2509   3.675   2.543   1.286 -0.1515 -0.0877 -0.2333
  857TIP3    H1 2510   3.628   2.566   1.206 -1.4336 -1.3122  0.1330
  857TIP3    H2 2511   3.700   2.451   1.274 -1.5426 -0.7128  1.2835
  858TIP3   OH2 2512   3.863   5.573   2.513 -0.1783  0.5437  0.1075
  858TIP3    H1 2513   3.919   5.579   2.591 -0.3528 -0.4812  0.3148
  858TIP3    H2 2514   3.876   5.484   2.481  0.1208  1.0593 -1.2203
  859TIP3   OH2 2515   6.340   3.837   1.364 -0.5661 -0.3078  0.0058
  859TIP3    H1 2516   6.425   3.834   1.407 -0.3131 -2.4989 -0.5899
  859TIP3    H2 2517   6.277   3.837   1.436 -0.1263 -2.7731  0.4457
  860TIP3   OH2 2518   4.537   4.443   0.560  0.6118 -0.1258  0.1559
  860TIP3    H1 2519   4.579   4.386   0.625 -0.0322 -1.6251 -0.7130
  860TIP3    H2 2520   4.479   4.384   0.511 -1.2893  1.5907  0.2858
  861TIP3   OH2 2521   3.613   6.178   0.719 -0.3175 -0.4145  0.2681
  861TIP3    H1 2522   3.561   6.119   0.774 -1.5384  0.1168 -0.2885
  861TIP3    H2 2523   3.703   6.167   0.749 -0.5357 -2.5113  0.2366
  862TIP3   OH2 2524   4.215   4.053   0.223  0.3642  0.0509  0.4829
  862TIP3    H1 2525   4.215   4.143   0.190  0.9489 -0.3575 -0.6433
  862TIP3    H2 2526   4.205   4.062   0.318 -3.1566  1.1827  0.0540
  863TIP3   OH2 2527   5.507   2.930   1.962  0.0770 -0.8210 -0.3597
  863TIP3    H1 2528   5.441   2.889   1.906  0.7797 -2.0165 -0.3236
  863TIP3    H2 2529   5.472   3.017   1.981 -0.8584 -0.9517 -1.4440
  864TIP3   OH2 2530   4.267   2.520   0.670  0.3408 -0.1219  0.1121
  864TIP3    H1 2531   4.186   2.474   0.647  0.3087 -0.0843  0.1497
  864TIP3    H2 2532   4.333   2.483   0.611  0.2500  0.0021 -0.0653
  865TIP3   OH2 2533   3.211   5.747   2.035 -0.0644  0.0013 -0.2619
  865TIP3    H1 2534   3.197   5.820   2.096 -0.7785  1.0817 -1.6821
  865TIP3    H2 2535   3.300   5.718   2.052  0.2048  1.1696  0.3731
  866TIP3   OH2 2536   2.384   3.381   0.386  0.1171 -0.1056 -0.1925
  866TIP3    H1 2537   2.325   3.433   0.440  0.4147 -1.4102  1.4119
  866TIP3    H2 2538   2.341   3.296   0.378  0.6327 -0.2961 -1.0410
  867TIP3   OH2 2539   2.291   2.422   5.642 -0.5500 -0.2449  0.1799
  867TIP3    H1 2540   2.293   2.369   5.722 -0.6025 -2.2532 -1.1026
  867TIP3    H2 2541   2.215   2.480   5.654 -1.2231 -1.2964  1.1225
  868TIP3   OH2 2542   4.441   5.753   0.243  0.6844 -0.0138 -0.2895
  868TIP3    H1 2543   4.535   5.740   0.258  1.3441  2.2698 -2.1768
  868TIP3    H2 2544   4.423   5.840   0.279  0.6157  2.1339 -5.1836
  869TIP3   OH2 2545   4.860   3.449   1.247 -0.8180  0.5272 -0.2210
  869TIP3    H1 2546   4.907   3.432   1.166  1.0231  0.2492  0.8668
  869TIP3    H2 2547   4.846   3.544   1.247 -2.6704  0.2726 -1.8169
  870TIP3   OH2 2548   6.965   7.306   6.610  0.6216  0.2055  0.4457
  870TIP3    H1 2549   7.055   7.277   6.591  0.4178 -2.7411  3.5218
  870TIP3    H2 2550   6.972   7.354   6.692 -0.6302 -0.2957  0.8622
  871TIP3   OH2 2551   7.335   7.644   6.516 -0.3856 -0.1310 -0.0736
  871TIP3    H1 2552   7.328   7.575   6.450 -2.7817 -0.6042  0.6198
  871TIP3    H2 2553   7.396   7.610   6.581  0.3639 -0.5363 -0.9775
  872TIP3   OH2 2554   1.737   5.732   1.411 -0.1809 -0.5382 -0.3186
  872TIP3    H1 2555   1.819   5.736   1.461  0.5325 -2.1006 -1.3421
  872TIP3    H2 2556   1.698   5.648   1.436 -1.4707  0.1799  0.1380
  873TIP3   OH2 2557   2.412   1.723   0.498 -0.0319  0.6335 -0.2546
  873TIP3    H1 2558   2.444   1.634   0.487 -0.4421  0.1713  2.0989
  873TIP3    H2 2559   2.487   1.778   0.476  1.0967 -0.3611  1.0366
  874TIP3   OH2 2560   4.262   4.503   4.729 -0.1710  0.6867  0.0531
  874TIP3    H1 2561   4.234   4.526   4.640  0.5583  1.9431  0.1345
  874TIP3    H2 2562   4.223   4.570   4.785 -2.3622 -1.2662  0.9784
  875TIP3   OH2 2563   1.198   3.210   2.981 -0.7774 -0.2429  0.0882
  875TIP3    H1 2564   1.119   3.263   2.988 -0.5435 -0.0899  2.1068
  875TIP3    H2 2565   1.265   3.262   3.025  0.1847 -0.8563 -0.6390
  876TIP3   OH2 2566   2.629   0.070   6.049 -0.0581  0.1382 -0.3477
  876TIP3    H1 2567   2.627   0.089   5.955 -0.0898 -0.3759 -0.4530
  876TIP3    H2 2568   2.720   0.043   6.065 -0.3873 -1.0639 -0.4899
  877TIP3   OH2 2569   3.010   2.627   1.085  0.7590  0.2586 -0.9180
  877TIP3    H1 2570   3.022   2.666   1.172 -0.4542 -0.6897 -0.3208
  877TIP3    H2 2571   2.915   2.624   1.072  0.9248  0.4700 -2.3266
  878TIP3   OH2 2572   3.264   4.191   0.033  0.2417  0.4431 -0.4943
  878TIP3    H1 2573   3.303   4.274   0.004 -2.0679  2.0311  0.7828
  878TIP3    H2 2574   3.312   4.169   0.113 -0.2104  1.4112  0.0543
  879TIP3   OH2 2575   0.020   1.372   6.736 -0.4908  0.1646 -0.4481
  879TIP3    H1 2576  -0.014   1.442   6.681  1.7381  1.6822  0.0261
  879TIP3    H2 2577   0.044   1.415   6.818  0.1281 -1.2893  0.1609
  880TIP3   OH2 2578   3.293   2.414   3.113  0.0604 -0.1264 -0.9667
  880TIP3    H1 2579   3.359   2.419   3.044  0.5419  1.3256 -0.4256
  880TIP3    H2 2580   3.293   2.322   3.140  0.3764 -0.5524 -2.3942
  881TIP3   OH2 2581   4.796   4.808   0.394  0.0389 -0.3394  0.7292
  881TIP3    H1 2582   4.732   4.778   0.458 -0.5797 -0.3481  0.1162
  881TIP3    H2 2583   4.815   4.898   0.419 -0.7111 -0.1214  0.5256
  882TIP3   OH2 2584   5.560   3.953   2.017  0.2956 -0.0087  0.4377
  882TIP3    H1 2585   5.509   3.919   1.943 -0.4260  0.5047  0.6873
  882TIP3    H2 2586   5.540   4.047   2.018 -0.4333 -0.1707  1.8524
  883TIP3   OH2 2587   2.316   1.097   6.159 -0.8126 -0.3001 -0.1010
  883TIP3    H1 2588   2.370   1.125   6.233 -2.7738 -1.5074  1.8543
  883TIP3    H2 2589   2.239   1.057   6.199 -1.0329 -2.7592 -2.8103
  884TIP3   OH2 2590   6.644   7.281   6.701  0.1859  0.3620 -0.2125
  884TIP3    H1 2591   6.602   7.366   6.687  1.5827  0.9366 -0.9886
  884TIP3    H2 2592   6.709   7.275   6.631  0.9847 -0.7829  0.6151
  885TIP3   OH2 2593   7.995   7.318   5.995  0.6561  0.1716 -0.1869
  885TIP3    H1 2594   7.964   7.238   6.036 -2.1439  0.7065 -1.1475
  885TIP3    H2 2595   8.069   7.346   6.049  1.7371 -3.0516  0.1136
  886TIP3   OH2 2596   2.731   4.413   2.055 -0.0824  0.1840 -0.8297
  886TIP3    H1 2597   2.749   4.359   1.978 -0.0480 -1.4648  0.3170
  886TIP3    H2 2598   2.714   4.350   2.125  1.8877  1.6327  1.0174
  887TIP3   OH2 2599   4.387   3.563   1.167  0.4055 -0.1680 -0.1202
  887TIP3    H1 2600   4.349   3.623   1.102  2.1179 -0.1063 -1.1068
  887TIP3    H2 2601   4.362   3.476   1.136  0.4878 -0.0923 -0.4073
  888TIP3   OH2 2602   3.524   3.305   1.450 -0.3569 -0.3875  0.1736
  888TIP3    H1 2603   3.604   3.325   1.498 -0.0574  0.3585 -0.6075
  888TIP3    H2 2604   3.537   3.216   1.417 -0.0653 -0.4582  0.4829
  889TIP3   OH2 2605   3.512   3.603   1.869 -0.2624  0.6902  0.2822
  889TIP3    H1 2606   3.595   3.617   1.824 -0.8522  0.9607 -0.7648
  889TIP3    H2 2607   3.497   3.508   1.862 -0.1499  0.6736  0.2629
  890TIP3   OH2 2608   2.366   4.255   0.928 -0.0639 -0.1277 -0.0081
  890TIP3    H1 2609   2.322   4.202   0.995  0.7574  0.4128  0.9707
  890TIP3    H2 2610   2.305   4.327   0.911 -0.3171 -0.3182  0.0807
  891TIP3   OH2 2611   5.413   3.735   1.411 -0.0443 -0.4109 -0.7203
  891TIP3    H1 2612   5.319   3.749   1.404  0.0229  0.1092 -0.6202
  891TIP3    H2 2613   5.434   3.678   1.337 -0.2319  0.5478 -1.5259
  892TIP3   OH2 2614   1.883   2.598   1.208  0.7225 -0.0430 -0.3214
  892TIP3    H1 2615   1.845   2.615   1.122  0.0518 -0.2979 -0.0829
  892TIP3    H2 2616   1.867   2.505   1.224 -0.6902  0.3663  0.8001
  893TIP3   OH2 2617   5.894   5.495   1.527 -0.1903  0.0176 -0.5126
  893TIP3    H1 2618   5.967   5.480   1.467  0.2318 -1.5361  0.3640
  893TIP3    H2 2619   5.855   5.408   1.541 -0.4428  0.3899  1.2525
  894TIP3   OH2 2620   1.865   2.075   1.548  0.1171  0.0111 -0.2767
  894TIP3    H1 2621   1.827   2.032   1.471 -0.9185 -0.4158  0.4684
  894TIP3    H2 2622   1.807   2.149   1.565  1.3631  1.1632 -0.9801
  895TIP3   OH2 2623   8.066   6.343   6.732 -0.1010  0.0684 -0.2234
  895TIP3    H1 2624   8.028   6.264   6.692 -0.5477  0.1732 -0.0020
  895TIP3    H2 2625   8.079   6.403   6.658  1.3861 -0.6664 -0.5838
  896TIP3   OH2 2626   3.884   5.672   0.117  0.0160  0.5545  0.1612
  896TIP3    H1 2627   3.797   5.657   0.081  0.0917  1.5958 -0.4820
  896TIP3    H2 2628   3.909   5.588   0.156 -1.6170  0.5007  1.1273
  897TIP3   OH2 2629   4.323   3.095   1.948  0.0695 -0.8658 -0.6716
  897TIP3    H1 2630   4.314   3.167   1.885 -0.6201  0.7270  1.1700
  897TIP3    H2 2631   4.235   3.060   1.956  0.1884 -1.1751 -0.7255
  898TIP3   OH2 2632   1.523   2.475   0.912  0.2749  0.1985  0.2919
  898TIP3    H1 2633   1.523   2.382   0.888 -0.3591  0.2320  0.1506
  898TIP3    H2 2634   1.493   2.476   1.003  2.6978  0.0693  1.1174
  899TIP3   OH2 2635   6.679   7.718   5.716  0.2588  0.0435 -0.3213
  899TIP3    H1 2636   6.764   7.701   5.675  1.1763 -1.3832  2.0907
  899TIP3    H2 2637   6.698   7.782   5.785 -0.1120 -2.1588  1.8947
  900TIP3   OH2 2638   4.929   2.993   1.106  0.3903  0.4409  0.1381
  900TIP3    H1 2639   5.021   2.984   1.128  0.3021 -1.3434 -0.1639
  900TIP3    H2 2640   4.898   3.065   1.161  0.8591 -1.9611  3.6641
  901TIP3   OH2 2641   7.166   7.859   6.519  0.1548  0.1862  0.4976
  901TIP3    H1 2642   7.192   7.931   6.461 -2.1563  1.1075  0.5908
  901TIP3    H2 2643   7.228   7.789   6.497  1.2816  1.5613 -0.8830
  902TIP3   OH2 2644   6.503   5.634   2.333 -0.5149  0.1059  0.0418
  902TIP3    H1 2645   6.525   5.627   2.426 -0.4474 -1.6310 -0.1018
  902TIP3    H2 2646   6.434   5.701   2.330  0.3066  1.0248  1.1992
  903TIP3   OH2 2647   4.831   6.060   6.446 -0.1715  0.5326 -0.0478
  903TIP3    H1 2648   4.791   5.976   6.423  0.2084  0.1097  0.7810
  903TIP3    H2 2649   4.759   6.112   6.481 -0.4000  0.5419 -0.5241
  904TIP3   OH2 2650   2.633   2.421   1.537 -0.5111  0.1602  0.7114
  904TIP3    H1 2651   2.642   2.351   1.603  0.1720  0.0614  0.5148
  904TIP3    H2 2652   2.646   2.376   1.453  0.5770  0.6297  0.6184
  905TIP3   OH2 2653   3.385   3.231   0.431 -0.1265  0.1799  0.4710
  905TIP3    H1 2654   3.439   3.223   0.353  0.6146 -0.6499  1.0632
  905TIP3    H2 2655   3.431   3.180   0.497 -0.5875  1.1442  1.5401
  906TIP3   OH2 2656   1.576   4.098   2.178  0.0578 -0.2797 -0.3682
  906TIP3    H1 2657   1.516   4.164   2.214  0.4269  0.4760 -1.1429
  906TIP3    H2 2658   1.543   4.015   2.214 -2.6446 -0.1313 -2.2972
  907TIP3   OH2 2659   3.485   2.579   1.553 -0.6007  0.8737 -0.3591
  907TIP3    H1 2660   3.394   2.590   1.580 -0.0414  0.0390  2.0497
  907TIP3    H2 2661   3.492   2.488   1.526  0.2953 -0.1135  2.9484
  908TIP3   OH2 2662   3.133   4.067   1.011 -0.1322  0.1761  0.3025
  908TIP3    H1 2663   3.211   4.120   1.026  0.2007 -0.3469  0.4483
  908TIP3    H2 2664   3.129   4.007   1.086 -1.7694  1.4925  1.3060
  909TIP3   OH2 2665   7.172   4.814   6.742  0.3790  0.1353 -0.2184
  909TIP3    H1 2666   7.151   4.873   6.670  0.1956  0.0708 -0.2191
  909TIP3    H2 2667   7.142   4.728   6.712  0.3957  0.0901 -0.1087
  910TIP3   OH2 2668   6.388   7.171   6.600 -0.3680 -0.1458  0.1249
  910TIP3    H1 2669   6.474   7.209   6.620 -0.0831 -0.5939 -0.2425
  910TIP3    H2 2670   6.327   7.223   6.652  0.1125  0.2491  0.3062
  911TIP3   OH2 2671   5.730   6.636   6.876  0.2060 -0.8668 -0.0181
  911TIP3    H1 2672   5.692   6.694   6.810 -0.5796  0.1959  1.3465
  911TIP3    H2 2673   5.818   6.672   6.891  0.1189 -0.6757  0.0365
  912TIP3   OH2 2674   1.309   3.305   0.671 -0.1844  0.3592  0.1660
  912TIP3    H1 2675   1.243   3.236   0.662 -0.1246  0.1922  0.9269
  912TIP3    H2 2676   1.258   3.384   0.691 -0.3460  0.8152 -1.9631
  913TIP3   OH2 2677   3.712   0.606   0.773 -0.6295 -0.0342 -0.0654
  913TIP3    H1 2678   3.669   0.528   0.809  0.0194 -0.5760 -0.4484
  913TIP3    H2 2679   3.799   0.606   0.813 -1.0487  1.1490  0.8301
  914TIP3   OH2 2680   7.712   5.864   5.816  0.4784 -0.4976  0.2221
  914TIP3    H1 2681   7.744   5.789   5.865 -0.8978 -1.2545  0.0042
  914TIP3    H2 2682   7.679   5.924   5.883  1.4397 -0.1460  0.3875
  915TIP3   OH2 2683   2.290   5.463   1.309 -0.2017  0.3811 -0.0971
  915TIP3    H1 2684   2.223   5.514   1.355 -0.1053  1.3612 -1.0246
  915TIP3    H2 2685   2.350   5.435   1.377 -1.4552 -0.3576  0.7273
  916TIP3   OH2 2686   2.829   2.964   0.679 -0.2049  0.0253 -0.2745
  916TIP3    H1 2687   2.870   2.917   0.607 -0.1383  1.3279 -1.1121
  916TIP3    H2 2688   2.830   2.902   0.752  1.5116 -0.6394 -0.8233
  917TIP3   OH2 2689   3.533   3.297   0.947 -0.8228  0.0235 -0.8984
  917TIP3    H1 2690   3.455   3.244   0.965 -1.2996  0.5961 -1.2726
  917TIP3    H2 2691   3.540   3.356   1.022  1.5013 -2.6356  1.0857
  918TIP3   OH2 2692   5.342   6.042   6.921 -0.2712 -0.2800 -0.3591
  918TIP3    H1 2693   5.381   6.110   6.865 -0.4705 -0.3239 -0.5506
  918TIP3    H2 2694   5.262   6.016   6.875 -1.4900  1.1018  0.9218
  919TIP3   OH2 2695   3.458   5.769   1.295 -0.4336 -0.3899  0.2790
  919TIP3    H1 2696   3.512   5.776   1.374 -1.3574  1.7033  0.7609
  919TIP3    H2 2697   3.370   5.750   1.327 -1.0367  1.5600 -0.1545
  920TIP3   OH2 2698   7.585   7.482   6.583  0.6671 -0.2709  0.0353
  920TIP3    H1 2699   7.601   7.426   6.507  4.1074 -0.3822  0.7339
  920TIP3    H2 2700   7.543   7.425   6.647  1.6067 -1.3224 -0.2687
  921TIP3   OH2 2701   5.156   2.490   1.443  1.0565 -0.1538  0.3532
  921TIP3    H1 2702   5.073   2.527   1.474 -0.3903 -0.8663 -2.5554
  921TIP3    H2 2703   5.179   2.424   1.509  1.3334  2.6670  3.1980
  922TIP3   OH2 2704   7.491   7.916   5.657 -0.0783  0.6949 -0.1161
  922TIP3    H1 2705   7.483   7.840   5.600  1.2221  0.3445  0.1535
  922TIP3    H2 2706   7.402   7.950   5.665 -0.0960  1.5061 -3.3575
  923TIP3   OH2 2707   1.256   3.776   0.661  0.1680 -0.2418 -0.5360
  923TIP3    H1 2708   1.313   3.836   0.709  1.2772 -0.2013 -1.8659
  923TIP3    H2 2709   1.270   3.799   0.569 -3.1244  0.7803 -0.8418
  924TIP3   OH2 2710   6.059   7.034   6.906  0.3663 -0.0319 -0.4233
  924TIP3    H1 2711   6.084   7.123   6.930  1.0371 -0.2489 -0.3293
  924TIP3    H2 2712   6.141   6.987   6.897 -0.0253 -1.6323  3.2826
  925TIP3   OH2 2713   4.934   3.922   2.802 -0.2506  0.1559 -0.3634
  925TIP3    H1 2714   4.969   3.962   2.882  0.2358 -1.3356  0.1931
  925TIP3    H2 2715   5.008   3.875   2.764 -1.2248 -1.7386  0.0003
  926TIP3   OH2 2716   6.567   7.895   4.945 -0.7729  0.4539  0.0309
  926TIP3    H1 2717   6.633   7.936   4.888 -1.9360  1.4334 -0.6271
  926TIP3    H2 2718   6.519   7.969   4.982 -0.9214 -0.2299  1.2233
  927TIP3   OH2 2719   3.135   3.520   2.593 -0.5770  0.2208  0.0481
  927TIP3    H1 2720   3.178   3.538   2.509 -0.4054 -1.0584 -0.1623
  927TIP3    H2 2721   3.177   3.439   2.623 -0.4652  0.8167  1.4915
  928TIP3   OH2 2722   3.246   3.803   0.223 -0.3810 -0.4568  0.2646
  928TIP3    H1 2723   3.282   3.890   0.206 -0.2457 -0.5016  0.3154
  928TIP3    H2 2724   3.310   3.762   0.281 -1.4165  0.1216  1.8440
  929TIP3   OH2 2725   1.951   2.970   0.404 -0.1270 -0.2950  0.1983
  929TIP3    H1 2726   1.956   2.939   0.313 -0.7065  1.7755 -0.5530
  929TIP3    H2 2727   1.879   3.033   0.404  0.2128  0.1070  1.9923
  930TIP3   OH2 2728   0.325   0.632   6.926 -0.3512 -0.6229  0.0786
  930TIP3    H1 2729   0.257   0.587   6.977 -0.1713 -0.6094  0.3292
  930TIP3    H2 2730   0.352   0.567   6.861 -0.3646 -0.7457  0.1936
  931TIP3   OH2 2731   2.459   2.822   1.673 -0.3657  0.2827 -0.5017
  931TIP3    H1 2732   2.499   2.791   1.592 -0.1239 -0.0154 -0.2716
  931TIP3    H2 2733   2.533   2.840   1.731 -0.5018  1.3643 -0.6552
  932TIP3   OH2 2734   3.016   2.410   0.333 -0.0180  0.8639  0.1115
  932TIP3    H1 2735   3.089   2.361   0.370 -0.7888  0.6078  1.3251
  932TIP3    H2 2736   3.057   2.482   0.286  1.0401  0.4217  0.3450
  933TIP3   OH2 2737   1.594   4.966   1.212  0.0227 -0.4493  0.4257
  933TIP3    H1 2738   1.631   4.903   1.150 -0.0906 -0.8332  0.7512
  933TIP3    H2 2739   1.608   4.927   1.298 -0.1801 -0.0976  0.6189
  934TIP3   OH2 2740   4.860   2.414   1.400 -0.1536 -0.2515  0.1352
  934TIP3    H1 2741   4.898   2.364   1.327  2.0155 -0.1198  1.1128
  934TIP3    H2 2742   4.868   2.505   1.372 -0.7770 -0.2797 -0.1302
  935TIP3   OH2 2743   4.216   6.119   1.345 -0.8187 -0.2225  0.4132
  935TIP3    H1 2744   4.198   6.087   1.257 -0.6046 -1.1273  0.6941
  935TIP3    H2 2745   4.168   6.202   1.351 -1.3922 -0.5023 -0.3122
  936TIP3   OH2 2746   3.406   1.960   3.498 -0.5442  0.1085 -0.0777
  936TIP3    H1 2747   3.462   2.034   3.473 -1.9326  1.4914  0.8108
  936TIP3    H2 2748   3.348   1.996   3.566 -2.3898 -1.3128 -0.8628
  937TIP3   OH2 2749   1.555   0.632   6.619 -0.3255 -0.2016 -0.0815
  937TIP3    H1 2750   1.525   0.661   6.706 -1.1675  0.1607 -0.4851
  937TIP3    H2 2751   1.484   0.578   6.586 -0.5324  0.6413 -1.0469
  938TIP3   OH2 2752   4.600   6.517   6.879  0.0719  0.0963  0.0425
  938TIP3    H1 2753   4.529   6.521   6.944  0.3179 -0.5010  0.3541
  938TIP3    H2 2754   4.558   6.486   6.799  0.3431 -2.3997  0.7979
  939TIP3   OH2 2755   4.749   6.093   5.821  0.1641 -0.1498  1.0793
  939TIP3    H1 2756   4.807   6.023   5.789 -1.5505 -1.4228  0.6700
  939TIP3    H2 2757   4.807   6.152   5.868  1.8872 -1.1095  0.2251
  940TIP3   OH2 2758   1.662   0.677   0.601 -0.3141  0.0240  0.2384
  940TIP3    H1 2759   1.577   0.700   0.564 -0.2489 -0.3460 -0.1484
  940TIP3    H2 2760   1.666   0.581   0.594  0.0779  0.0304  0.3740
  941TIP3   OH2 2761   5.709   6.593   6.523  0.8825  0.3823 -0.2733
  941TIP3    H1 2762   5.723   6.684   6.495 -0.8273  0.9712  0.7578
  941TIP3    H2 2763   5.693   6.546   6.441 -0.2347  1.3870 -0.6537
  942TIP3   OH2 2764   3.129   3.493   0.176  0.2017  0.4095  0.0148
  942TIP3    H1 2765   3.217   3.531   0.169 -0.7077  2.3481 -1.6671
  942TIP3    H2 2766   3.098   3.520   0.263  1.3447 -0.4748  0.7007
  943TIP3   OH2 2767   6.944   7.358   6.074  0.5354 -0.0794 -0.2085
  943TIP3    H1 2768   6.856   7.344   6.038  0.3629 -1.5345  0.7347
  943TIP3    H2 2769   6.929   7.409   6.154  0.6727  0.7826 -0.7275
  944TIP3   OH2 2770   7.706   7.345   4.407 -0.3827 -0.2377 -0.2020
  944TIP3    H1 2771   7.731   7.351   4.315 -2.5255  1.5157 -0.7314
  944TIP3    H2 2772   7.663   7.259   4.415 -0.8709 -0.0650 -1.0099
  945TIP3   OH2 2773   1.538   3.589   1.582 -0.3935  0.1999 -0.1271
  945TIP3    H1 2774   1.530   3.579   1.677 -0.3511  0.8157 -0.0561
  945TIP3    H2 2775   1.606   3.527   1.557  0.5396  0.9742  0.4341
  946TIP3   OH2 2776   1.681   3.045   2.650  0.4179  0.0102 -0.2424
  946TIP3    H1 2777   1.592   3.077   2.632 -0.2937 -2.2478 -0.9863
  946TIP3    H2 2778   1.725   3.118   2.692 -1.7624  1.2278  0.0073
  947TIP3   OH2 2779   2.851   4.214   0.413  0.4047  0.2473 -0.5089
  947TIP3    H1 2780   2.926   4.240   0.465  0.2932  0.3987 -0.4238
  947TIP3    H2 2781   2.883   4.143   0.357  0.2540 -0.6125  0.4917
  948TIP3   OH2 2782   5.233   6.506   5.655  0.6526 -0.9190  0.3120
  948TIP3    H1 2783   5.256   6.542   5.569 -0.5971  1.3082  0.8825
  948TIP3    H2 2784   5.141   6.480   5.646  0.7463 -1.3967  0.7376
  949TIP3   OH2 2785   6.861   7.796   6.696  0.0301 -0.0650 -0.2594
  949TIP3    H1 2786   6.796   7.732   6.724  1.4229 -1.5253 -0.3020
  949TIP3    H2 2787   6.932   7.788   6.761  0.2348  1.4220 -0.2762
  950TIP3   OH2 2788   7.598   6.776   5.780  0.0352 -0.0504  0.6859
  950TIP3    H1 2789   7.509   6.749   5.801  0.1597  0.2394  1.6060
  950TIP3    H2 2790   7.589   6.825   5.698 -1.0177  2.1135  2.0589
  951TIP3   OH2 2791   4.224   3.611   0.205 -0.6108  0.2513  0.1533
  951TIP3    H1 2792   4.205   3.541   0.267  1.2781 -0.1328  0.3185
  951TIP3    H2 2793   4.140   3.654   0.191 -1.5291 -1.2243  1.0560
  952TIP3   OH2 2794   4.722   2.834   1.103  0.9675  0.1438  0.5795
  952TIP3    H1 2795   4.792   2.897   1.119  1.2112 -0.2091  0.9361
  952TIP3    H2 2796   4.728   2.814   1.009  2.1102 -0.7597  0.8236
  953TIP3   OH2 2797   3.450   2.969   1.135 -0.0662 -0.6660  0.4786
  953TIP3    H1 2798   3.379   2.915   1.168 -0.7091  0.0177  0.2289
  953TIP3    H2 2799   3.409   3.026   1.070  0.6832 -0.1762  0.4233
  954TIP3   OH2 2800   7.539   6.787   6.536  0.1258  0.1943 -0.1870
  954TIP3    H1 2801   7.475   6.813   6.602  0.5774 -2.3787  1.3231
  954TIP3    H2 2802   7.487   6.757   6.462 -0.4006 -0.2531  0.3672
  955TIP3   OH2 2803   5.756   6.380   6.689  0.1264  0.1080  0.3228
  955TIP3    H1 2804   5.758   6.450   6.755 -2.8343 -0.5248  1.1499
  955TIP3    H2 2805   5.769   6.426   6.606 -1.4919  1.6574  0.8799
  956TIP3   OH2 2806   5.555   7.635   5.911 -0.0760 -0.5775  0.2601
  956TIP3    H1 2807   5.553   7.731   5.912  0.3448 -0.5415  2.8929
  956TIP3    H2 2808   5.643   7.613   5.880  0.4563 -0.0614  1.3604
  957TIP3   OH2 2809   4.172   0.976   0.356 -0.0849  0.2417 -0.2781
  957TIP3    H1 2810   4.196   0.995   0.446  1.4247  0.0427 -0.6220
  957TIP3    H2 2811   4.118   0.897   0.361 -1.6200  1.3108  0.6047
  958TIP3   OH2 2812   3.949   1.375   0.878 -0.0972 -0.3967  0.2564
  958TIP3    H1 2813   3.860   1.405   0.896 -0.4324 -0.2731 -1.4761
  958TIP3    H2 2814   4.005   1.434   0.928 -1.0259 -1.4057  2.5646
  959TIP3   OH2 2815   5.697   6.880   6.510  0.2451  0.1971  0.1168
  959TIP3    H1 2816   5.663   6.856   6.596  0.5912 -0.1138  0.1710
  959TIP3    H2 2817   5.743   6.963   6.524  0.5326  0.0103  0.2899
  960TIP3   OH2 2818   4.364   2.613   3.287  0.1452 -0.3162 -0.6950
  960TIP3    H1 2819   4.371   2.706   3.308  0.1653 -0.8638  1.8988
  960TIP3    H2 2820   4.454   2.586   3.268 -0.1048  0.5775 -3.4426
  961TIP3   OH2 2821   4.845   3.181   1.340 -0.2274  0.0824 -0.3288
  961TIP3    H1 2822   4.841   3.276   1.332  0.6179  0.2394  0.8959
  961TIP3    H2 2823   4.920   3.165   1.397 -0.5358 -1.3078 -0.2897
  962TIP3   OH2 2824   0.061   1.986   0.395 -0.4344 -0.6262 -0.0990
  962TIP3    H1 2825   0.092   1.902   0.427  0.1207  0.0197  1.0881
  962TIP3    H2 2826   0.017   2.026   0.470 -1.2284 -0.1167 -0.8240
  963TIP3   OH2 2827   2.180   2.244   0.988 -0.1207  0.7432 -0.0708
  963TIP3    H1 2828   2.153   2.333   0.963 -0.0382  1.1869  1.3956
  963TIP3    H2 2829   2.203   2.251   1.081 -0.2227 -0.8419  0.0797
  964TIP3   OH2 2830   5.458   3.436   0.888  0.2066 -0.0654 -0.1736
  964TIP3    H1 2831   5.449   3.517   0.836  1.5506 -1.3455 -2.4844
  964TIP3    H2 2832   5.454   3.366   0.823 -1.2698 -1.9017  1.8543
  965TIP3   OH2 2833   3.296   2.022   0.430 -0.3073 -0.6306  0.3765
  965TIP3    H1 2834   3.346   1.947   0.462  1.2445  0.2474  0.0713
  965TIP3    H2 2835   3.302   2.016   0.335  1.0172  0.6560  0.3702
  966TIP3   OH2 2836   4.030   4.067  -0.001 -0.3337 -0.2132 -0.0696
  966TIP3    H1 2837   4.038   4.161   0.012  1.7547 -0.2552 -0.9060
  966TIP3    H2 2838   4.100   4.029   0.052 -2.1463 -1.4112  1.5176
  967TIP3   OH2 2839   2.158   2.596   2.705 -0.1639 -0.7829 -0.0902
  967TIP3    H1 2840   2.174   2.505   2.732  0.0741 -0.9492 -0.7700
  967TIP3    H2 2841   2.241   2.624   2.665  0.2871  0.2590  1.5316
  968TIP3   OH2 2842   5.775   7.701   6.325  0.4111 -0.0691  0.0946
  968TIP3    H1 2843   5.707   7.739   6.270  0.6833 -1.0380 -0.9371
  968TIP3    H2 2844   5.727   7.650   6.391  0.1553 -1.7292 -1.3607
  969TIP3   OH2 2845   5.652   2.748   0.580  0.0170  0.4668 -0.5574
  969TIP3    H1 2846   5.590   2.696   0.528  1.2903 -0.6436 -0.9874
  969TIP3    H2 2847   5.733   2.746   0.529  1.2764 -0.5963  1.4359
  970TIP3   OH2 2848   2.219   4.150   1.134 -0.2108 -0.0898 -0.9606
  970TIP3    H1 2849   2.149   4.086   1.120 -1.2938  0.8070  0.1650
  970TIP3    H2 2850   2.174   4.235   1.132  1.1049  0.6068 -1.7835
  971TIP3   OH2 2851   3.448   4.404   0.271 -0.1639 -0.0236 -0.2581
  971TIP3    H1 2852   3.368   4.432   0.314  0.8470  0.4380  1.3568
  971TIP3    H2 2853   3.469   4.474   0.210 -1.5728 -0.6564 -1.5137
  972TIP3   OH2 2854   3.507   6.777   6.039  0.4947 -0.3775  0.2019
  972TIP3    H1 2855   3.582   6.826   6.073  0.7889 -0.2151 -0.6670
  972TIP3    H2 2856   3.432   6.814   6.084  0.8298  0.1870  0.2980
  973TIP3   OH2 2857   1.656   2.679   1.866  0.6510  0.7571 -0.0982
  973TIP3    H1 2858   1.578   2.712   1.911  1.5062  0.5900  1.5380
  973TIP3    H2 2859   1.639   2.586   1.855  0.2009  0.8983 -0.6116
  974TIP3   OH2 2860   4.911   3.573   0.674  0.1972  0.1340 -0.5494
  974TIP3    H1 2861   4.876   3.659   0.649  1.6860  0.6434 -0.9320
  974TIP3    H2 2862   4.860   3.511   0.623 -0.5133  0.8284 -0.7001
  975TIP3   OH2 2863   2.351   5.774   1.713  0.0565  0.7304  0.2455
  975TIP3    H1 2864   2.382   5.865   1.709 -1.5606  1.2657 -0.8737
  975TIP3    H2 2865   2.256   5.782   1.722 -0.2043 -0.8531 -0.8704
  976TIP3   OH2 2866   4.026   4.012   0.775  0.0992 -0.3672 -0.1891
  976TIP3    H1 2867   4.104   4.041   0.821  0.7996 -3.5181  0.7890
  976TIP3    H2 2868   3.955   4.023   0.839  0.0509  0.8310 -0.4519
  977TIP3   OH2 2869   2.687   1.941   0.753  0.1532 -0.3460  0.5836
  977TIP3    H1 2870   2.665   1.892   0.674  1.1378  0.2007 -0.0416
  977TIP3    H2 2871   2.721   2.025   0.720 -1.3058  0.6932  1.6201
  978TIP3   OH2 2872   6.288   4.873   2.669 -0.4071 -0.1033  0.1486
  978TIP3    H1 2873   6.377   4.844   2.647  0.8486  1.7833  2.4749
  978TIP3    H2 2874   6.276   4.953   2.618 -0.9447 -0.5830 -0.4825
  979TIP3   OH2 2875   3.005   5.816   5.452  0.1710  0.0804  0.1749
  979TIP3    H1 2876   2.928   5.839   5.505  0.9419  0.9862  0.9155
  979TIP3    H2 2877   2.999   5.721   5.442 -1.7412  0.2846 -0.8611
  980TIP3   OH2 2878   2.740   2.711   3.492 -0.2020 -0.0984  0.1434
  980TIP3    H1 2879   2.714   2.621   3.474 -0.2727  0.1992 -1.2944
  980TIP3    H2 2880   2.678   2.740   3.559  1.0788 -1.7447  2.0903
  981TIP3   OH2 2881   2.472   3.399   0.999 -0.4803  0.1259  0.1990
  981TIP3    H1 2882   2.458   3.448   1.080 -1.0681 -1.2207  0.9255
  981TIP3    H2 2883   2.557   3.428   0.968 -1.4480  2.6818 -0.1467
  982TIP3   OH2 2884   4.325   6.493   6.447 -0.1312  0.6482 -0.1065
  982TIP3    H1 2885   4.349   6.585   6.436 -1.6447  1.0501 -0.1514
  982TIP3    H2 2886   4.230   6.495   6.460  0.0859 -0.7480  1.8162
  983TIP3   OH2 2887   3.980   3.885   2.194 -0.4215  0.7312  0.5435
  983TIP3    H1 2888   3.989   3.806   2.247  0.4493  1.6926  1.8904
  983TIP3    H2 2889   4.069   3.920   2.188 -0.6803  1.2122 -0.6776
  984TIP3   OH2 2890   4.416   2.170   2.484 -0.0361  0.1760  0.4750
  984TIP3    H1 2891   4.320   2.164   2.484  0.0438 -1.3427  0.7283
  984TIP3    H2 2892   4.442   2.138   2.398  0.2947 -0.3671  0.7784
  985TIP3   OH2 2893   2.886   4.813   0.018  0.6719 -0.7741 -0.3263
  985TIP3    H1 2894   2.878   4.723   0.050 -0.0302 -0.2471  1.0492
  985TIP3    H2 2895   2.962   4.848   0.066  0.7243 -0.5221 -0.5940
  986TIP3   OH2 2896   5.092   6.140   6.546  0.3119 -0.2042  0.3651
  986TIP3    H1 2897   5.164   6.150   6.484  1.3707 -2.8263  1.1146
  986TIP3    H2 2898   5.032   6.077   6.505  0.3861 -0.9775  1.4095
  987TIP3   OH2 2899   2.462   3.596   1.192  0.5170  0.1423 -0.3786
  987TIP3    H1 2900   2.468   3.668   1.129 -4.1828 -0.9692 -2.3827
  987TIP3    H2 2901   2.477   3.637   1.277 -0.2046  3.1810 -1.6426
  988TIP3   OH2 2902   2.471   1.064   1.001 -0.1263 -1.0139 -0.2574
  988TIP3    H1 2903   2.541   0.999   0.997  0.8655  0.0711 -0.7825
  988TIP3    H2 2904   2.513   1.143   1.032 -1.4623 -0.7769  0.9830
  989TIP3   OH2 2905   5.115   6.788   6.262 -0.5508 -0.7051  0.2952
  989TIP3    H1 2906   5.140   6.816   6.174 -0.7765 -0.7411  0.2182
  989TIP3    H2 2907   5.166   6.709   6.278 -0.5802 -0.7508  0.1597
  990TIP3   OH2 2908   3.164   2.687   0.041  0.2355 -0.6754  0.3976
  990TIP3    H1 2909   3.118   2.730   0.113  0.0686 -2.2595  1.2772
  990TIP3    H2 2910   3.173   2.596   0.070  1.3839 -1.0267 -1.0059
  991TIP3   OH2 2911   2.985   3.151   1.940 -0.0943 -0.5696  0.2792
  991TIP3    H1 2912   2.909   3.162   1.998 -0.0284 -0.6313  0.3753
  991TIP3    H2 2913   2.997   3.238   1.901  0.5370 -0.2475  1.1768
  992TIP3   OH2 2914   5.158   3.198   1.736 -0.5753 -0.4959  0.0420
  992TIP3    H1 2915   5.073   3.156   1.718 -0.2960 -0.8145 -0.5594
  992TIP3    H2 2916   5.136   3.289   1.755 -0.8567  0.0167 -2.5858
  993TIP3   OH2 2917   4.478   2.052   0.918 -0.5484 -0.2964 -0.4475
  993TIP3    H1 2918   4.511   1.970   0.881  0.5398  0.7040 -1.7583
  993TIP3    H2 2919   4.556   2.096   0.950 -1.2439 -0.1781  1.1207
  994TIP3   OH2 2920   5.960   6.018   4.733  0.3996  0.4921 -0.1914
  994TIP3    H1 2921   6.047   5.999   4.698  0.4057  1.6298 -0.8115
  994TIP3    H2 2922   5.977   6.051   4.821  0.5509  0.0901 -0.0675
  995TIP3   OH2 2923   3.760   3.221   0.037  0.1738  0.4801  0.7502
  995TIP3    H1 2924   3.796   3.226  -0.052 -1.7897 -1.5656 -0.2003
  995TIP3    H2 2925   3.795   3.139   0.072 -0.1879  0.5873  1.3668
  996TIP3   OH2 2926   2.086   4.676   2.511  0.3713  0.2132 -0.3138
  996TIP3    H1 2927   2.137   4.749   2.548  0.6891 -0.1606 -0.0192
  996TIP3    H2 2928   2.043   4.715   2.434 -0.1568  0.9397  0.3372
  997TIP3   OH2 2929   1.459   4.901   0.404  0.8147 -0.0246 -0.5692
  997TIP3    H1 2930   1.458   4.864   0.315 -0.3079  0.5356 -0.8013
  997TIP3    H2 2931   1.540   4.952   0.407  0.9749 -0.2289 -1.1937
  998TIP3   OH2 2932   8.067   6.274   4.514  0.5780  0.7391  0.1878
  998TIP3    H1 2933   8.014   6.349   4.490  0.8646  1.3823  1.5203
  998TIP3    H2 2934   8.147   6.283   4.462 -0.0967  0.4354 -0.9042
  999TIP3   OH2 2935   4.957   4.071   0.412  0.6255  0.1996  0.1300
  999TIP3    H1 2936   4.865   4.077   0.438  0.1436  0.8229 -1.6914
  999TIP3    H2 2937   4.994   4.157   0.433  0.3788  0.5117 -0.7222
 1000TIP3   OH2 2938   3.988   3.284   2.343  0.1112 -0.4295  0.0230
 1000TIP3    H1 2939   3.988   3.277   2.439  3.3985 -2.5339 -0.0407
 1000TIP3    H2 2940   4.007   3.376   2.325  0.6794 -0.2527  1.4448
 1001TIP3   OH2 2941   2.236   3.585   2.062  0.5806  0.2858  0.5477
 1001TIP3    H1 2942   2.239   3.493   2.037  1.0864  0.4906 -0.1427
 1001TIP3    H2 2943   2.320   3.621   2.034  0.4880  0.9008  1.0417
 1002TIP3   OH2 2944   0.143   7.030   5.510 -0.1224  0.0397 -0.2502
 1002TIP3    H1 2945   0.140   6.935   5.511 -1.0812  0.0325 -1.6282
 1002TIP3    H2 2946   0.231   7.051   5.478 -0.6238 -0.4336 -2.0073
 1003TIP3   OH2 2947   2.920   3.770   2.010 -0.3312 -0.1142 -0.3927
 1003TIP3    H1 2948   2.934   3.729   1.924 -1.3366 -0.8122 -0.2350
 1003TIP3    H2 2949   3.007   3.794   2.040  0.0381  0.0901 -1.5928
 1004TIP3   OH2 2950   0.238   2.578   6.624 -0.4932  0.2908  0.2603
 1004TIP3    H1 2951   0.160   2.630   6.602 -0.2904  0.7760  0.6873
 1004TIP3    H2 2952   0.205   2.488   6.632 -1.1264  0.5791  1.0314
 1005TIP3   OH2 2953   5.553   7.578   6.422 -0.1002 -0.5232  0.7204
 1005TIP3    H1 2954   5.530   7.505   6.365  0.5492  0.1268 -0.3957
 1005TIP3    H2 2955   5.511   7.654   6.382  1.7865  0.2336  0.1081
 1006TIP3   OH2 2956   6.357   7.110   5.919  0.1813 -0.5462  0.5701
 1006TIP3    H1 2957   6.377   7.017   5.907 -0.0891 -0.4587 -0.6166
 1006TIP3    H2 2958   6.295   7.130   5.850  0.6496  0.6527  0.4830
 1007TIP3   OH2 2959   6.942   6.920   6.061 -0.2599 -0.0104 -0.0986
 1007TIP3    H1 2960   6.919   6.966   5.981  0.9203 -0.6066 -0.8003
 1007TIP3    H2 2961   6.956   6.989   6.126  1.2831  0.6282 -1.0781
 1008TIP3   OH2 2962   6.992   7.479   6.812 -0.1534  0.4027 -0.0772
 1008TIP3    H1 2963   7.035   7.565   6.812 -0.3344  0.5187  1.6468
 1008TIP3    H2 2964   6.913   7.491   6.864  0.0696 -0.9280  0.6003
 1009TIP3   OH2 2965   0.243   0.297   6.351  0.7528  0.4117  0.5004
 1009TIP3    H1 2966   0.244   0.229   6.284 -0.1238 -0.3217  1.2142
 1009TIP3    H2 2967   0.300   0.366   6.317  0.2234  0.0986 -1.0297
 1010TIP3   OH2 2968   4.505   3.839   2.143 -0.1899  0.5360 -0.7280
 1010TIP3    H1 2969   4.535   3.918   2.099 -2.1070  1.7394  0.0306
 1010TIP3    H2 2970   4.525   3.768   2.082  3.7545  1.2736 -0.3777
 1011TIP3   OH2 2971   5.015   4.983   1.963 -0.3205  0.6950  0.0649
 1011TIP3    H1 2972   5.011   5.001   1.869  0.2830  0.7603  0.0500
 1011TIP3    H2 2973   5.109   4.983   1.984 -0.3141 -1.8710  0.1708
 1012TIP3   OH2 2974   4.588   4.273   0.940 -0.6707 -0.0520  0.0407
 1012TIP3    H1 2975   4.645   4.350   0.941 -1.2219  0.3696 -0.4935
 1012TIP3    H2 2976   4.622   4.217   1.009 -2.2723  2.1546  2.7565
 1013TIP3   OH2 2977   1.535   0.128   6.703  0.5880 -0.2074  0.0802
 1013TIP3    H1 2978   1.451   0.103   6.665  0.6520  0.6686 -0.6746
 1013TIP3    H2 2979   1.517   0.211   6.748  0.7698 -0.6638  0.9984
 1014TIP3   OH2 2980   3.148   2.456   0.820 -0.5727  0.2951  0.1422
 1014TIP3    H1 2981   3.108   2.543   0.828  0.3187  0.7171  0.1682
 1014TIP3    H2 2982   3.233   2.465   0.863  0.3414 -0.0425 -1.5218
 1015TIP3   OH2 2983   2.577   2.547   5.268 -0.1946 -0.6983 -0.0427
 1015TIP3    H1 2984   2.578   2.476   5.203 -0.9195 -0.2711 -0.5280
 1015TIP3    H2 2985   2.558   2.503   5.351 -1.3801 -1.0067 -0.4552
 1016TIP3   OH2 2986   7.115   4.217   2.419 -0.1853  0.3406  0.1609
 1016TIP3    H1 2987   7.027   4.218   2.382 -0.9543  1.6975  1.9704
 1016TIP3    H2 2988   7.161   4.287   2.374 -0.0945 -0.1972 -0.5973
 1017TIP3   OH2 2989   2.718   3.470   0.017  0.1064  0.3217 -0.3119
 1017TIP3    H1 2990   2.680   3.383   0.002 -0.4714  1.0408 -3.2447
 1017TIP3    H2 2991   2.651   3.517   0.068 -0.4703 -0.2757 -0.5172
 1018TIP3   OH2 2992   4.561   0.675   2.597  0.3457  0.0732 -0.9906
 1018TIP3    H1 2993   4.473   0.638   2.586  0.3114 -0.8197  1.7729
 1018TIP3    H2 2994   4.548   0.753   2.650  1.4089 -1.5785  1.8737
 1019TIP3   OH2 2995   5.318   2.244   2.101  0.0739  0.3653 -0.0354
 1019TIP3    H1 2996   5.339   2.267   2.192  0.8746  1.4414 -0.4876
 1019TIP3    H2 2997   5.272   2.160   2.108  1.5837 -0.3819  1.2323
 1020TIP3   OH2 2998   5.613   2.928   1.374  0.4470  0.4292  0.7053
 1020TIP3    H1 2999   5.697   2.973   1.369  0.3474  0.6109  0.6489
 1020TIP3    H2 3000   5.548   2.997   1.357  0.2356  0.4992  1.7399
 1021TIP3   OH2 3001   5.199   2.985   3.075 -0.3729 -0.5551  0.1643
 1021TIP3    H1 3002   5.262   2.974   3.146 -3.4384 -2.1583  2.7641
 1021TIP3    H2 3003   5.123   3.026   3.116 -2.3179 -1.6668 -2.1588
 1022TIP3   OH2 3004   1.923   2.109   0.449  0.1784  0.4952  0.0578
 1022TIP3    H1 3005   1.900   2.041   0.385 -1.5931  0.7194  0.4089
 1022TIP3    H2 3006   1.926   2.190   0.398  0.0117  0.4898  0.0392
 1023TIP3   OH2 3007   4.467   6.721   6.405 -0.7960  0.9592 -0.4339
 1023TIP3    H1 3008   4.528   6.704   6.333  0.5317  0.1587  0.8633
 1023TIP3    H2 3009   4.522   6.729   6.483 -2.3563 -0.2925  0.8476
 1024TIP3   OH2 3010   3.577   0.985   1.291 -0.0273 -0.4092 -0.0723
 1024TIP3    H1 3011   3.497   0.963   1.339 -1.1248  3.1053 -0.1720
 1024TIP3    H2 3012   3.629   1.035   1.354  0.2786  0.8240 -1.2992
 1025TIP3   OH2 3013   3.863   2.710   1.177  0.1270 -0.5815 -0.1328
 1025TIP3    H1 3014   3.806   2.717   1.101 -0.0523 -0.7226 -0.0100
 1025TIP3    H2 3015   3.814   2.657   1.240 -1.0515  2.1179  1.3169
 1026TIP3   OH2 3016   7.974   1.148   6.665 -0.5009 -0.3959  0.5296
 1026TIP3    H1 3017   7.951   1.055   6.661 -1.4919 -0.0719 -3.0213
 1026TIP3    H2 3018   8.034   1.162   6.592 -1.4342  2.0022  0.1615
 1027TIP3   OH2 3019   2.813   4.930   0.363  0.3896 -0.3987  0.4369
 1027TIP3    H1 3020   2.805   4.850   0.414  0.3655  0.4756  1.8526
 1027TIP3    H2 3021   2.819   5.000   0.429 -1.7443  0.9832 -0.7360
 1028TIP3   OH2 3022   4.615   4.299   2.139  0.1647 -0.0484  0.0693
 1028TIP3    H1 3023   4.551   4.301   2.068  0.7472 -1.8785 -0.5414
 1028TIP3    H2 3024   4.659   4.215   2.129  1.2449  0.2924  1.7398
 1029TIP3   OH2 3025   6.084   3.346   1.033 -0.3131 -0.7190 -0.0366
 1029TIP3    H1 3026   6.075   3.324   0.941 -0.1985 -2.1303  0.2714
 1029TIP3    H2 3027   6.025   3.420   1.046  1.1914  0.8053 -1.6671
 1030TIP3   OH2 3028   3.351   5.204   1.916 -0.2304  0.4644 -0.1096
 1030TIP3    H1 3029   3.320   5.256   1.841  0.1318 -0.3940 -0.8667
 1030TIP3    H2 3030   3.417   5.260   1.957 -0.0624  0.7437 -0.7370
 1031TIP3   OH2 3031   1.077   4.959   1.165 -0.3541  0.9315 -0.0079
 1031TIP3    H1 3032   1.116   4.872   1.172 -2.4462 -0.4000 -3.2604
 1031TIP3    H2 3033   1.098   5.002   1.247  3.0000 -1.6962  0.6249
 1032TIP3   OH2 3034   2.081   3.745   0.428  0.1521  0.2338  0.2168
 1032TIP3    H1 3035   2.173   3.773   0.429  0.6389 -1.2705 -1.2417
 1032TIP3    H2 3036   2.078   3.672   0.489  0.2162 -0.5852 -0.7545
 1033TIP3   OH2 3037   4.584   4.094   0.036  0.1880 -0.2284  0.3184
 1033TIP3    H1 3038   4.646   4.070  -0.033 -0.7940 -0.1799 -0.6014
 1033TIP3    H2 3039   4.514   4.029   0.030 -1.0854  1.1644 -0.3168
 1034TIP3   OH2 3040   6.661   6.256   0.626 -0.1293  1.2802  0.0414
 1034TIP3    H1 3041   6.731   6.224   0.683  1.2647  2.1116 -1.1648
 1034TIP3    H2 3042   6.665   6.351   0.634  0.1518  1.4193 -1.4777
 1035TIP3   OH2 3043   4.882   6.651   5.922  0.6522 -0.6711 -0.0883
 1035TIP3    H1 3044   4.922   6.564   5.922  0.1847 -0.8983  1.2216
 1035TIP3    H2 3045   4.796   6.637   5.960  1.4966  0.7667  2.4334
 1036TIP3   OH2 3046   1.106   0.435   5.098 -0.1829  0.5378  0.3947
 1036TIP3    H1 3047   1.094   0.436   5.193  0.6016  0.2150  0.4989
 1036TIP3    H2 3048   1.018   0.421   5.063 -0.5461  1.1040  1.0587
 1037TIP3   OH2 3049   5.335   6.926   6.132  0.1433 -0.2882  0.0099
 1037TIP3    H1 3050   5.365   6.903   6.220 -0.5330 -1.0833  0.0465
 1037TIP3    H2 3051   5.415   6.936   6.081  0.5415  0.3722  0.7673
 1038TIP3   OH2 3052   4.745   3.188   2.302  0.3134 -0.2173  0.1234
 1038TIP3    H1 3053   4.817   3.179   2.364  0.9905 -1.4279 -0.8014
 1038TIP3    H2 3054   4.685   3.116   2.325 -1.7978  2.1595  2.3868
 1039TIP3   OH2 3055   5.537   3.956   0.293  0.9787 -0.0974 -0.1817
 1039TIP3    H1 3056   5.467   3.988   0.349  1.5101 -0.7982  0.9138
 1039TIP3    H2 3057   5.616   3.964   0.347  1.6471  0.1239 -1.1804
 1040TIP3   OH2 3058   6.272   2.091   0.175  0.0794  0.2685  0.5558
 1040TIP3    H1 3059   6.234   2.114   0.260 -0.3318 -3.8723  1.6131
 1040TIP3    H2 3060   6.199   2.058   0.124  0.9508 -0.7935 -0.0364
 1041TIP3   OH2 3061   5.637   6.743   5.607  0.5035 -0.3450  0.2997
 1041TIP3    H1 3062   5.672   6.656   5.623 -0.4488 -0.5776  1.1404
 1041TIP3    H2 3063   5.648   6.789   5.690 -0.5803 -0.2164  0.3803
 1042TIP3   OH2 3064   3.533   6.034   6.234  0.5166 -0.4612  0.0118
 1042TIP3    H1 3065   3.613   6.009   6.281  0.2960 -1.1088  0.0391
 1042TIP3    H2 3066   3.478   5.956   6.237  1.0232 -0.9525 -2.4569
 1043TIP3   OH2 3067   0.955   2.236   2.152 -0.1411  0.3145 -0.0697
 1043TIP3    H1 3068   1.015   2.293   2.103  0.7476 -0.2369  0.3766
 1043TIP3    H2 3069   1.006   2.204   2.226 -0.1251 -2.3388 -1.1661
 1044TIP3   OH2 3070   5.510   2.903   0.086  0.3012 -0.2002  0.9152
 1044TIP3    H1 3071   5.601   2.878   0.073  1.3929  3.1597  1.4797
 1044TIP3    H2 3072   5.505   2.929   0.178 -0.3730  2.7275  0.1116
 1045TIP3   OH2 3073   8.046   6.882   5.797  0.4705 -0.6446 -0.1632
 1045TIP3    H1 3074   8.047   6.933   5.716 -1.3811  0.1970  0.3236
 1045TIP3    H2 3075   8.109   6.927   5.853  0.0560  0.1442 -0.3179
 1046TIP3   OH2 3076   0.821   0.082   5.508  0.0752  0.2251  0.4643
 1046TIP3    H1 3077   0.793   0.127   5.428 -1.4365  0.2771  1.0065
 1046TIP3    H2 3078   0.774  -0.001   5.506  0.3050  0.0762  1.1242
 1047TIP3   OH2 3079   7.309   7.751   4.718  0.3323 -0.5689 -0.1421
 1047TIP3    H1 3080   7.368   7.757   4.642  3.3817  0.8101  2.2152
 1047TIP3    H2 3081   7.253   7.828   4.710  1.2673  0.0940 -0.5155
 1048TIP3   OH2 3082   1.276   5.574   1.764  0.3124 -0.2097 -0.5382
 1048TIP3    H1 3083   1.320   5.523   1.696  1.7727 -1.0586  0.9895
 1048TIP3    H2 3084   1.286   5.665   1.737  0.2398 -0.5761 -1.8121
 1049TIP3   OH2 3085   0.274   0.518   3.351 -0.7237  0.2170  0.4522
 1049TIP3    H1 3086   0.264   0.492   3.259  0.0439 -0.5888  0.5885
 1049TIP3    H2 3087   0.257   0.438   3.401  1.1173  0.0798  0.9021
 1050TIP3   OH2 3088   3.769   5.964   1.393 -0.1486 -0.3375 -0.0600
 1050TIP3    H1 3089   3.861   5.970   1.418 -0.0938  0.6176 -0.4746
 1050TIP3    H2 3090   3.730   5.907   1.459  0.9509 -1.6025 -0.4825
 1051TIP3   OH2 3091   3.309   2.618   0.996  0.0053  0.4592 -0.5069
 1051TIP3    H1 3092   3.265   2.628   1.081  1.3457  0.1735  0.2338
 1051TIP3    H2 3093   3.255   2.668   0.935 -1.2712  0.2405  0.4065
 1052TIP3   OH2 3094   3.494   3.622   2.615 -0.9518 -0.0459 -0.1081
 1052TIP3    H1 3095   3.566   3.686   2.617 -1.8372  0.9848 -0.4227
 1052TIP3    H2 3096   3.432   3.659   2.552 -2.1923 -0.4552  0.8660
 1053TIP3   OH2 3097   2.620   2.971   0.382  0.0572  0.2014 -0.1535
 1053TIP3    H1 3098   2.641   3.003   0.470 -0.8777 -0.6921  0.3958
 1053TIP3    H2 3099   2.605   3.050   0.330 -0.8024  0.6826  0.8353
 1054TIP3   OH2 3100   4.319   2.960   3.068 -0.4342 -0.5310 -0.5635
 1054TIP3    H1 3101   4.235   2.999   3.045 -0.1635  0.2770 -0.2072
 1054TIP3    H2 3102   4.325   2.882   3.013 -1.8942 -1.1905  0.1891
 1055TIP3   OH2 3103   4.312   2.731   2.837 -0.4684 -0.1432 -0.3584
 1055TIP3    H1 3104   4.295   2.677   2.759 -0.4033  0.2668 -0.6597
 1055TIP3    H2 3105   4.285   2.676   2.911 -2.6812  0.3168 -0.7880
 1056TIP3   OH2 3106   4.432   4.230   2.429 -0.2571 -0.3048 -0.0475
 1056TIP3    H1 3107   4.361   4.192   2.377 -0.9146  0.7932  0.0166
 1056TIP3    H2 3108   4.462   4.305   2.377  1.0526 -0.9256 -0.1985
 1057TIP3   OH2 3109   3.317   0.411   6.124 -0.1870 -0.6046 -0.2491
 1057TIP3    H1 3110   3.252   0.370   6.181  0.1052 -0.9100 -0.1319
 1057TIP3    H2 3111   3.398   0.363   6.142  0.9310  2.0721  2.1562
 1058TIP3   OH2 3112   5.693   4.164   1.635  0.3633 -0.2390  0.1426
 1058TIP3    H1 3113   5.691   4.145   1.541  0.2202  1.3773 -0.1835
 1058TIP3    H2 3114   5.609   4.206   1.653  0.7328  0.2009  0.8457
 1059TIP3   OH2 3115   7.169   6.992   6.831  0.4054  0.6975  0.5239
 1059TIP3    H1 3116   7.106   7.035   6.889 -0.1829  1.1099 -0.4156
 1059TIP3    H2 3117   7.119   6.971   6.752  0.9149 -0.8917  0.5976
 1060TIP3   OH2 3118   5.003   3.173   2.500  0.2880  0.0880 -0.1391
 1060TIP3    H1 3119   5.002   3.092   2.448 -1.4759  0.5986 -0.9256
 1060TIP3    H2 3120   5.088   3.172   2.543  0.9697 -1.3666 -1.4523
 1061TIP3   OH2 3121   8.094   6.621   5.851  0.2190 -0.0641 -0.3413
 1061TIP3    H1 3122   8.189   6.617   5.842  0.2702 -1.3510  0.6245
 1061TIP3    H2 3123   8.071   6.711   5.829  1.5521 -0.0180 -1.5970
 1062TIP3   OH2 3124   3.404   2.236   0.190  0.0499  0.3155 -0.8033
 1062TIP3    H1 3125   3.498   2.248   0.180  0.0025  0.2991 -1.2624
 1062TIP3    H2 3126   3.374   2.205   0.104 -0.1541 -1.0641 -0.2527
 1063TIP3   OH2 3127   7.964   6.162   5.310 -0.5106 -0.0247 -0.0679
 1063TIP3    H1 3128   7.984   6.112   5.231  1.5500 -2.5393  1.9614
 1063TIP3    H2 3129   8.048   6.200   5.337 -0.4540 -1.8784  2.6482
 1064TIP3   OH2 3130   8.401   5.571   6.228  0.0438 -0.0723  0.1657
 1064TIP3    H1 3131   8.490   5.572   6.195  0.2107 -1.8758  0.5013
 1064TIP3    H2 3132   8.347   5.595   6.153  0.6434 -1.1867 -0.6282
 1065TIP3   OH2 3133   6.732   2.508   1.318 -0.0869 -0.1616  0.3928
 1065TIP3    H1 3134   6.705   2.549   1.236 -0.3131  0.8746  0.9686
 1065TIP3    H2 3135   6.722   2.414   1.303  0.0938  0.0127 -0.8356
 1066TIP3   OH2 3136   6.076   3.603   5.259 -0.3284 -0.1267 -0.2502
 1066TIP3    H1 3137   6.044   3.623   5.170 -0.1029 -1.4906 -0.6399
 1066TIP3    H2 3138   6.104   3.512   5.255 -2.3933 -0.9067  1.8158
 1067TIP3   OH2 3139   5.945   4.243   1.396 -0.2207 -0.1868 -0.4222
 1067TIP3    H1 3140   5.890   4.166   1.383  0.4894 -1.5503  3.9667
 1067TIP3    H2 3141   6.033   4.214   1.371  0.2736 -1.2841  2.4133
 1068TIP3   OH2 3142   4.417   1.970   0.418  0.0323  0.1172 -0.4792
 1068TIP3    H1 3143   4.446   1.906   0.353 -0.4000  0.5333 -1.0869
 1068TIP3    H2 3144   4.351   1.923   0.470  1.2874 -0.6243  0.4942
 1069TIP3   OH2 3145   5.352   5.509   0.074  0.3078 -0.0145 -0.2605
 1069TIP3    H1 3146   5.430   5.513   0.019 -1.9519  0.5414 -3.6385
 1069TIP3    H2 3147   5.334   5.600   0.097 -0.4207  0.0688 -1.1346
 1070TIP3   OH2 3148   4.476   2.964   0.130  0.1936 -0.4248 -0.2248
 1070TIP3    H1 3149   4.438   2.957   0.042  1.5954  0.6147 -0.9485
 1070TIP3    H2 3150   4.423   3.030   0.175 -2.1631 -2.8612  0.6286
 1071TIP3   OH2 3151   7.286   3.222   1.595  0.4760 -0.1164 -0.3118
 1071TIP3    H1 3152   7.301   3.292   1.532 -1.7250  3.2541  2.7404
 1071TIP3    H2 3153   7.359   3.229   1.657  0.0628 -0.3204  0.1980
 1072TIP3   OH2 3154   0.945   1.963   6.805 -0.0638 -0.5273 -0.5457
 1072TIP3    H1 3155   0.947   1.911   6.724  2.0639 -0.9864 -0.2303
 1072TIP3    H2 3156   0.992   2.043   6.784 -0.7333 -0.0277 -0.1617
 1073TIP3   OH2 3157   1.390   2.874   6.535  0.0640  0.4637 -0.0712
 1073TIP3    H1 3158   1.414   2.911   6.450  1.3375 -0.0045  0.0759
 1073TIP3    H2 3159   1.435   2.789   6.538  0.0445  0.4845  1.0764
 1074TIP3   OH2 3160   4.521   3.978   1.871 -0.2819  0.2136  0.5463
 1074TIP3    H1 3161   4.555   3.996   1.784 -0.6810  0.7703  0.5032
 1074TIP3    H2 3162   4.504   4.064   1.909 -1.4624 -0.0460  0.6381
 1075TIP3   OH2 3163   8.127   3.177   0.667  0.3704 -0.5559 -0.1691
 1075TIP3    H1 3164   8.118   3.092   0.711  1.2055 -1.1664 -1.1559
 1075TIP3    H2 3165   8.038   3.211   0.662  0.0301 -1.3733  0.2374
 1076TIP3   OH2 3166   5.627   2.576   0.355  0.1047  0.6262 -0.1924
 1076TIP3    H1 3167   5.669   2.492   0.336  0.4242  0.5829  0.7187
 1076TIP3    H2 3168   5.534   2.560   0.342  0.1177 -0.0121  0.5121
 1077TIP3   OH2 3169   6.135   2.900   0.945 -0.3904  0.1636 -0.5060
 1077TIP3    H1 3170   6.184   2.895   0.862 -1.5517 -0.7305 -1.1582
 1077TIP3    H2 3171   6.112   2.809   0.964  0.8671  0.2369  1.4217
 1078TIP3   OH2 3172   5.167   4.268   0.453  0.4960  0.6864  0.2108
 1078TIP3    H1 3173   5.196   4.359   0.448 -1.2640  1.2058 -0.9254
 1078TIP3    H2 3174   5.178   4.235   0.364  0.4587  0.0012  0.4582
 1079TIP3   OH2 3175   6.767   2.869   0.421 -0.4281 -0.2638 -0.0525
 1079TIP3    H1 3176   6.735   2.844   0.508  1.0941  0.0367  0.6031
 1079TIP3    H2 3177   6.783   2.963   0.428  0.9876 -0.4898 -0.2584
 1080TIP3   OH2 3178   3.016   0.774   6.719  0.4105 -0.5447  0.2799
 1080TIP3    H1 3179   3.084   0.727   6.671  1.5369 -0.1759  1.4970
 1080TIP3    H2 3180   3.006   0.724   6.800  1.6728  1.3683  1.6201
 1081TIP3   OH2 3181   3.683   3.790   2.652  0.1429  0.1973 -0.0043
 1081TIP3    H1 3182   3.747   3.846   2.609 -1.4184  1.7169 -0.3703
 1081TIP3    H2 3183   3.624   3.850   2.697 -1.6301 -1.1336 -0.5103
 1082TIP3   OH2 3184   8.267   7.668   6.258  0.3192 -0.6251 -0.4305
 1082TIP3    H1 3185   8.362   7.672   6.262  0.3370 -0.2540 -1.2581
 1082TIP3    H2 3186   8.247   7.574   6.264  0.7205 -0.6915 -0.0789
 1083TIP3   OH2 3187   6.108   3.800   0.113  0.1727 -0.3466 -0.1007
 1083TIP3    H1 3188   6.049   3.782   0.039 -0.4232 -3.2007  0.9985
 1083TIP3    H2 3189   6.186   3.748   0.094  1.3045  1.3689 -0.2352
 1084TIP3   OH2 3190   4.593   4.706   0.555  0.3468  0.1025  0.2702
 1084TIP3    H1 3191   4.579   4.616   0.527  2.9009 -0.0924 -0.4555
 1084TIP3    H2 3192   4.583   4.704   0.650  0.9631 -1.0562  0.3146
 1085TIP3   OH2 3193   1.793   1.129   6.841 -0.1452  0.6132 -0.3738
 1085TIP3    H1 3194   1.826   1.113   6.929  0.1188 -3.1244 -1.0713
 1085TIP3    H2 3195   1.867   1.171   6.795  0.6064  0.2459  0.4778
 1086TIP3   OH2 3196   0.213   2.052   6.884 -0.2260  0.4351 -0.9436
 1086TIP3    H1 3197   0.164   2.029   6.963 -0.1443 -0.4183 -1.1414
 1086TIP3    H2 3198   0.200   2.147   6.875 -0.1621  0.5570  0.1432
 1087TIP3   OH2 3199   5.788   7.241   5.651  0.1794 -0.2371  0.1527
 1087TIP3    H1 3200   5.855   7.178   5.623  0.5092  0.3439 -0.3794
 1087TIP3    H2 3201   5.797   7.244   5.746  0.3080 -0.8328  0.1618
 1088TIP3   OH2 3202   3.274   3.422   1.464  0.5546 -0.1952  0.2474
 1088TIP3    H1 3203   3.359   3.390   1.436 -0.0990  0.0111 -2.0409
 1088TIP3    H2 3204   3.284   3.437   1.558  1.7217 -4.2787  0.8539
 1089TIP3   OH2 3205   8.203   6.297   2.550 -0.2641  0.3148 -0.0201
 1089TIP3    H1 3206   8.277   6.235   2.545  0.3156  1.0781 -0.9990
 1089TIP3    H2 3207   8.156   6.271   2.630  0.2412 -1.0905 -0.1640
 1090TIP3   OH2 3208   3.660   3.475   0.145  0.5605 -0.6564  0.4160
 1090TIP3    H1 3209   3.683   3.405   0.085 -0.7261  0.1439 -1.0334
 1090TIP3    H2 3210   3.574   3.506   0.116  1.1555  1.6264  0.9231
 1091TIP3   OH2 3211   2.349   1.307   6.872  0.2075 -0.1048  0.0619
 1091TIP3    H1 3212   2.394   1.375   6.922  0.9523 -0.1165 -0.5782
 1091TIP3    H2 3213   2.331   1.349   6.787 -1.7563  0.1893  0.5979
 1092TIP3   OH2 3214   2.009   0.544   6.479 -0.5054  0.1672 -0.3360
 1092TIP3    H1 3215   1.923   0.581   6.457 -0.6125 -0.6076 -1.2449
 1092TIP3    H2 3216   2.034   0.493   6.402  0.4343 -0.2208  0.2152
 1093TIP3   OH2 3217   6.291   2.763   1.441  0.1694 -0.0708  0.4762
 1093TIP3    H1 3218   6.226   2.725   1.500 -0.2865  0.6099  0.4255
 1093TIP3    H2 3219   6.306   2.851   1.475  1.2333 -0.3029  0.6084
 1094TIP3   OH2 3220   6.607   3.299   1.701 -0.0165 -0.2984  0.2673
 1094TIP3    H1 3221   6.643   3.357   1.634 -1.9327  0.3158 -0.2379
 1094TIP3    H2 3222   6.570   3.358   1.767 -1.3815 -0.9323  0.0803
 1095TIP3   OH2 3223   7.325   4.791   1.304 -0.1764  0.3468 -0.0341
 1095TIP3    H1 3224   7.288   4.733   1.237  0.3110  0.0370 -0.0374
 1095TIP3    H2 3225   7.250   4.839   1.339 -0.4639  0.3400 -0.6433
 1096TIP3   OH2 3226   3.886   3.243   2.890  0.1521  0.3678  0.4240
 1096TIP3    H1 3227   3.851   3.332   2.894 -2.4765 -0.6411  1.4778
 1096TIP3    H2 3228   3.850   3.207   2.809 -0.7297 -0.4636  1.1668
 1097TIP3   OH2 3229   6.504   7.293   4.737 -0.3347  0.5959  0.5542
 1097TIP3    H1 3230   6.520   7.232   4.665 -1.5365 -0.2455  0.9939
 1097TIP3    H2 3231   6.569   7.269   4.803 -0.1839  0.4278  0.3476
 1098TIP3   OH2 3232   1.081   0.038   6.694  0.2441  0.5504 -0.5987
 1098TIP3    H1 3233   1.121  -0.045   6.668 -1.7448 -0.1157 -1.6440
 1098TIP3    H2 3234   1.093   0.042   6.789 -2.0589 -2.2825 -0.1144
 1099TIP3   OH2 3235   5.000   0.936   0.163 -0.1297 -0.2187 -0.0429
 1099TIP3    H1 3236   5.083   0.983   0.153 -0.2841 -0.0164 -0.4082
 1099TIP3    H2 3237   5.025   0.845   0.179  0.1642 -0.1503 -0.1151
 1100TIP3   OH2 3238   0.257   5.501   5.847  0.6701 -0.1106  0.2386
 1100TIP3    H1 3239   0.199   5.440   5.801  2.1791  0.4054 -2.4449
 1100TIP3    H2 3240   0.340   5.494   5.801  1.6437  1.9682  1.6357
 1101TIP3   OH2 3241   5.674   2.768   1.594 -0.2332  0.6049  0.1785
 1101TIP3    H1 3242   5.651   2.816   1.514 -0.8491 -1.4754 -0.9233
 1101TIP3    H2 3243   5.701   2.836   1.655  0.5237  2.2344 -1.8851
 1102TIP3   OH2 3244   8.035   7.525   6.483 -0.6095  0.2025 -0.4753
 1102TIP3    H1 3245   7.987   7.472   6.420  1.7955 -2.1567 -0.4313
 1102TIP3    H2 3246   7.968   7.559   6.543 -2.3335 -1.9133 -1.1474
 1103TIP3   OH2 3247   6.273   2.939   1.665 -0.6384  0.8689  0.6020
 1103TIP3    H1 3248   6.234   2.864   1.710 -0.7969  1.4572  1.4442
 1103TIP3    H2 3249   6.206   3.007   1.666 -0.6128  0.9187 -0.4542
 1104TIP3   OH2 3250   5.435   3.255   1.078  0.1074  0.3344  0.3250
 1104TIP3    H1 3251   5.452   3.329   1.020  0.7306  0.2749  0.4302
 1104TIP3    H2 3252   5.428   3.180   1.019  0.6852  0.2831  0.3233
 1105TIP3   OH2 3253   7.126   6.640   6.866 -0.9499 -0.3808  0.5316
 1105TIP3    H1 3254   7.104   6.618   6.957  1.3536 -1.2809  0.8833
 1105TIP3    H2 3255   7.220   6.657   6.867 -1.0483  0.3787 -1.5394
 1106TIP3   OH2 3256   8.431   6.526   5.863  0.8651 -0.2784 -0.5998
 1106TIP3    H1 3257   8.423   6.456   5.928 -1.3537 -0.0055 -0.5314
 1106TIP3    H2 3258   8.461   6.482   5.784  1.2663 -0.9925 -0.0641
 1107TIP3   OH2 3259   5.689   1.557   1.588  0.3091 -0.2679 -0.0010
 1107TIP3    H1 3260   5.696   1.518   1.501  0.4081  0.7543 -0.4675
 1107TIP3    H2 3261   5.738   1.639   1.581  0.8626 -0.4859  1.2077
 1108TIP3   OH2 3262   7.784   5.402   1.562  0.2336 -0.3158 -0.9533
 1108TIP3    H1 3263   7.822   5.322   1.526 -0.2052 -1.2019  0.4785
 1108TIP3    H2 3264   7.692   5.399   1.536  0.3152 -0.0447 -1.2777
 1109TIP3   OH2 3265   0.569   6.655   6.133  0.1416  0.0140  0.1088
 1109TIP3    H1 3266   0.514   6.667   6.056  1.2642  0.1058 -0.6936
 1109TIP3    H2 3267   0.615   6.738   6.143  0.5560 -0.2522  0.4300
 1110TIP3   OH2 3268   4.803   4.396   0.382  0.1900  0.5252 -0.2553
 1110TIP3    H1 3269   4.835   4.323   0.436 -0.5173 -0.8332 -1.6333
 1110TIP3    H2 3270   4.727   4.429   0.429 -1.0515 -1.3246 -0.8798
 1111TIP3   OH2 3271   4.092   7.009   6.033 -0.0959  0.2556 -0.1139
 1111TIP3    H1 3272   4.089   6.956   6.112 -3.0051  0.3148 -0.1265
 1111TIP3    H2 3273   4.184   7.034   6.024  1.1117 -3.6230  0.6166
 1112TIP3   OH2 3274   6.583   1.394   0.289  0.0722  0.5377  0.0838
 1112TIP3    H1 3275   6.643   1.449   0.339  0.6523 -1.4971  1.6906
 1112TIP3    H2 3276   6.638   1.357   0.219 -0.2510  1.7533 -0.8234
 1113TIP3   OH2 3277   5.628   4.502   0.036 -0.3472  0.0560  0.8137
 1113TIP3    H1 3278   5.659   4.530   0.122 -0.5450  1.6570  0.3756
 1113TIP3    H2 3279   5.552   4.557   0.019  0.3869  0.5800 -0.8926
 1114TIP3   OH2 3280   8.097   5.854   4.196 -0.5269 -0.0778  0.1927
 1114TIP3    H1 3281   8.029   5.791   4.174 -2.3300  1.6671  0.6359
 1114TIP3    H2 3282   8.178   5.802   4.200 -1.3834 -1.7645 -2.7895
 1115TIP3   OH2 3283   2.891   4.993   0.703  0.2515 -0.5551  0.2354
 1115TIP3    H1 3284   2.984   4.971   0.697  0.6032  1.1428 -0.9178
 1115TIP3    H2 3285   2.849   4.912   0.731  2.0911 -1.2985  0.9189
 1116TIP3   OH2 3286   6.539   7.957   6.314 -0.5649 -0.2738 -0.1864
 1116TIP3    H1 3287   6.546   7.980   6.222 -2.0313  0.8660 -0.0357
 1116TIP3    H2 3288   6.557   8.039   6.361  0.2988 -0.8688  0.5394
 1117TIP3   OH2 3289   7.279   6.506   5.785 -0.2785  0.2661  0.4758
 1117TIP3    H1 3290   7.310   6.434   5.730 -1.5950  0.0425 -0.0023
 1117TIP3    H2 3291   7.347   6.518   5.851 -0.6263 -2.2619  1.3299
 1118TIP3   OH2 3292   6.489   4.410   0.054  0.1116 -0.3083 -0.0142
 1118TIP3    H1 3293   6.413   4.453   0.092 -0.3614  0.3376 -1.6311
 1118TIP3    H2 3294   6.453   4.343  -0.004  0.8400 -2.5932  2.0893
 1119TIP3   OH2 3295   5.898   3.125   0.275  0.2078 -0.2352 -0.2945
 1119TIP3    H1 3296   5.812   3.165   0.287  0.7956  0.1768  2.9509
 1119TIP3    H2 3297   5.891   3.039   0.316  1.9240  0.6303  1.9309
 1120TIP3   OH2 3298   2.135   7.662   6.352 -0.0168  0.8198 -0.8872
 1120TIP3    H1 3299   2.141   7.589   6.290  1.3596  0.0815  0.0793
 1120TIP3    H2 3300   2.041   7.674   6.367 -0.2273 -1.8964  0.2423
 1121TIP3   OH2 3301   5.786   4.052   0.456 -0.5269  0.0805  0.0764
 1121TIP3    H1 3302   5.873   4.035   0.492 -0.5626  0.3566  0.2884
 1121TIP3    H2 3303   5.796   4.035   0.362 -0.4839 -0.8119  0.2350
 1122TIP3   OH2 3304   5.506   2.358   0.621 -0.0306  0.0832 -0.0450
 1122TIP3    H1 3305   5.420   2.386   0.651  1.1267  1.1911  2.4028
 1122TIP3    H2 3306   5.489   2.283   0.563 -2.4916 -1.1597  2.1959
 1123TIP3   OH2 3307   4.416   2.748   0.270 -0.0635  0.1348  0.4652
 1123TIP3    H1 3308   4.395   2.767   0.361 -1.3238 -0.9503  0.4097
 1123TIP3    H2 3309   4.424   2.835   0.229 -0.0514  0.6142  1.4775
 1124TIP3   OH2 3310   6.776   6.301   6.928  0.2587 -0.1051 -0.0359
 1124TIP3    H1 3311   6.820   6.231   6.976  1.5338  0.6015 -0.1471
 1124TIP3    H2 3312   6.825   6.307   6.846  0.7853  1.5703  0.3837
 1125TIP3   OH2 3313   8.127   5.968   6.810 -0.2351 -0.2265 -0.7533
 1125TIP3    H1 3314   8.189   6.009   6.751  0.6462  0.0328  0.3265
 1125TIP3    H2 3315   8.172   5.889   6.840 -1.5581 -1.5355 -2.1275
 1126TIP3   OH2 3316   6.045   5.566   0.090 -0.0859  0.0648 -0.3355
 1126TIP3    H1 3317   6.115   5.547   0.027  0.3292  2.5194 -0.6634
 1126TIP3    H2 3318   6.089   5.567   0.175 -0.1198 -0.5239 -0.3133
 1127TIP3   OH2 3319   3.697   2.336   0.917  0.3042  0.3343  0.1679
 1127TIP3    H1 3320   3.744   2.402   0.968 -0.1747  0.1330  0.8742
 1127TIP3    H2 3321   3.763   2.301   0.857  0.9568  0.3066  0.9036
 1128TIP3   OH2 3322   3.538   2.205   0.665  0.1329 -0.7168  0.1647
 1128TIP3    H1 3323   3.562   2.279   0.720  0.2427 -0.5832 -0.0664
 1128TIP3    H2 3324   3.485   2.149   0.722  0.1163 -0.5004  0.3589
 1129TIP3   OH2 3325   4.309   3.759   1.812 -0.3201 -0.1640  0.6843
 1129TIP3    H1 3326   4.260   3.807   1.745  1.4009  0.0213 -0.4645
 1129TIP3    H2 3327   4.375   3.822   1.842 -0.5493 -0.5266  1.9669
 1130TIP3   OH2 3328   6.795   7.703   6.032  0.3758 -0.0055  0.1700
 1130TIP3    H1 3329   6.860   7.633   6.032  0.2558 -0.1208  1.0700
 1130TIP3    H2 3330   6.846   7.784   6.024  0.7303 -0.0198  1.9678
 1131TIP3   OH2 3331   4.401   3.387  -0.007 -0.3443 -0.1970 -0.2565
 1131TIP3    H1 3332   4.311   3.375  -0.036 -0.8628 -0.5232  1.4160
 1131TIP3    H2 3333   4.395   3.388   0.089  1.5591 -1.3204 -0.0962
 1132TIP3   OH2 3334   5.120   3.028   0.654 -0.2145 -0.2511 -0.0400
 1132TIP3    H1 3335   5.176   2.967   0.606  0.7442  0.7149 -0.1507
 1132TIP3    H2 3336   5.156   3.114   0.635 -0.7134  0.2504  1.2638
 1133TIP3   OH2 3337   6.641   6.658   6.354 -0.1693 -0.4598  0.1629
 1133TIP3    H1 3338   6.728   6.656   6.396 -0.4527 -1.2830  0.7207
 1133TIP3    H2 3339   6.654   6.711   6.276  0.5657  0.4032  0.8657
 1134TIP3   OH2 3340   8.307   7.599   6.803  0.2788 -0.4105  0.3149
 1134TIP3    H1 3341   8.228   7.561   6.840 -1.4261  1.2464 -1.5492
 1134TIP3    H2 3342   8.333   7.666   6.867  0.5076 -1.3303  1.1944
 1135TIP3   OH2 3343   4.735   3.818   0.119 -0.1672  0.2822 -0.1466
 1135TIP3    H1 3344   4.729   3.863   0.034  0.1967 -0.9161 -0.8239
 1135TIP3    H2 3345   4.663   3.755   0.117  1.3669 -1.5020 -0.6451
 1136TIP3   OH2 3346   5.340   2.502   0.334  0.2002  0.7862  0.1548
 1136TIP3    H1 3347   5.318   2.409   0.339  2.2349  0.2655 -0.0548
 1136TIP3    H2 3348   5.299   2.541   0.411 -1.9619  0.0137 -0.5643
 1137TIP3   OH2 3349   5.007   2.707   1.545  0.0727 -0.6763  0.0579
 1137TIP3    H1 3350   5.053   2.786   1.574  1.1878 -1.6136  0.8471
 1137TIP3    H2 3351   4.916   2.735   1.533 -0.0169  0.1724  2.5750
 1138TIP3   OH2 3352   4.959   4.024   0.091 -0.0318 -0.0998 -0.4489
 1138TIP3    H1 3353   4.903   3.980   0.027 -1.1305  0.2616  0.2453
 1138TIP3    H2 3354   4.918   4.109   0.104  0.8131  0.2545 -0.0954
 1139TIP3   OH2 3355   4.297   5.101   0.478  0.8111 -0.2809  0.3784
 1139TIP3    H1 3356   4.363   5.152   0.525 -0.1759  1.2940  0.0925
 1139TIP3    H2 3357   4.342   5.021   0.452  3.1808  1.6331 -1.5752
 1140TIP3   OH2 3358   6.151   3.897   1.557  0.7351 -0.2686 -0.2042
 1140TIP3    H1 3359   6.063   3.908   1.594  0.0142 -2.2280 -1.2621
 1140TIP3    H2 3360   6.199   3.975   1.587 -1.2697  0.7151  0.5893
 1141TIP3   OH2 3361   5.217   3.388   1.138 -0.0612 -0.1355  0.2859
 1141TIP3    H1 3362   5.299   3.430   1.112 -1.2629  1.0262 -1.8469
 1141TIP3    H2 3363   5.233   3.295   1.127  0.6507  0.1403 -1.2500
 1142TIP3   OH2 3364   4.969   4.286   1.239  0.7591 -0.0794 -0.2250
 1142TIP3    H1 3365   5.012   4.338   1.171  0.6617 -1.6889 -1.5319
 1142TIP3    H2 3366   5.040   4.237   1.280  0.4144 -1.4243 -1.2223
 1143TIP3   OH2 3367   8.245   7.014   6.544  0.7676 -0.5352 -0.3625
 1143TIP3    H1 3368   8.181   6.944   6.540  0.8484 -0.5630 -1.5321
 1143TIP3    H2 3369   8.196   7.090   6.576  0.3290 -0.7580 -0.4989
 1144TIP3   OH2 3370   6.418   5.632   1.461  0.1053 -0.0593 -0.4937
 1144TIP3    H1 3371   6.434   5.541   1.435  1.5194  0.0218  0.0279
 1144TIP3    H2 3372   6.417   5.630   1.556 -1.5730  0.2098 -0.4898
 1145TIP3   OH2 3373   4.338   4.805   0.196  0.5266 -0.4854  0.7013
 1145TIP3    H1 3374   4.335   4.803   0.292 -1.4778 -0.3450  0.6660
 1145TIP3    H2 3375   4.305   4.892   0.174  1.9440 -0.1315 -0.1210
 1146TIP3   OH2 3376   4.503   2.338   1.058 -0.7979  0.2554  0.2911
 1146TIP3    H1 3377   4.590   2.365   1.026 -0.0962 -2.0357  0.1835
 1146TIP3    H2 3378   4.442   2.394   1.011  0.4298 -0.6235 -2.4461
 1147TIP3   OH2 3379   5.911   2.747   1.924  0.0246  0.1144 -0.1559
 1147TIP3    H1 3380   5.897   2.824   1.868 -0.6782 -0.5348 -0.8776
 1147TIP3    H2 3381   5.849   2.682   1.892  0.3488 -0.6320  0.7055
 1148TIP3   OH2 3382   4.613   2.457   2.130 -0.7680 -0.3989 -0.4885
 1148TIP3    H1 3383   4.574   2.544   2.125 -2.0085 -0.9428 -0.4646
 1148TIP3    H2 3384   4.581   2.412   2.052  0.6387 -0.5386 -1.0027
 1149TIP3   OH2 3385   4.465   3.661   0.103  0.2511  0.5641  0.1038
 1149TIP3    H1 3386   4.382   3.629   0.139  1.0862 -0.4035  1.1674
 1149TIP3    H2 3387   4.500   3.587   0.054  0.4611  0.9979 -0.4068
 1150TIP3   OH2 3388   5.547   4.060   0.012 -0.0769  0.1100 -0.1308
 1150TIP3    H1 3389   5.473   4.021  -0.035 -0.0252  0.8596 -0.8589
 1150TIP3    H2 3390   5.523   4.054   0.104 -0.2685 -1.2172 -0.2607
 1151TIP3   OH2 3391   5.335   4.773   0.784 -0.0577  0.3750  0.1754
 1151TIP3    H1 3392   5.386   4.769   0.703 -0.0619 -2.2204  0.2757
 1151TIP3    H2 3393   5.399   4.766   0.854 -0.0371  2.8102  0.4646
 1152TIP3   OH2 3394   8.515   7.529   5.704 -0.2976  0.0414  0.1369
 1152TIP3    H1 3395   8.502   7.617   5.670 -0.1091 -0.1153 -0.3447
 1152TIP3    H2 3396   8.444   7.478   5.666 -1.2988  0.3070  1.6048
 1153TIP3   OH2 3397   5.327   4.399   0.973  0.3305  0.3590 -0.5863
 1153TIP3    H1 3398   5.254   4.337   0.976  0.5455  0.1521  0.3155
 1153TIP3    H2 3399   5.337   4.429   1.063  0.9883  0.8274 -0.8130
 1154TIP3   OH2 3400   6.290   4.137   1.562 -0.2806  0.1588 -0.1292
 1154TIP3    H1 3401   6.368   4.157   1.613 -0.5815  1.6727 -0.2304
 1154TIP3    H2 3402   6.244   4.221   1.555 -0.0169  0.0809 -3.2637
 1155TIP3   OH2 3403   7.452   4.152   1.757 -0.1535  0.2064  0.1535
 1155TIP3    H1 3404   7.409   4.235   1.778 -0.0052  1.1856 -3.1764
 1155TIP3    H2 3405   7.381   4.094   1.730  0.0524  0.1863 -0.3487
 1156TIP3   OH2 3406   7.363   4.520   2.460  1.0712  0.1612  0.2723
 1156TIP3    H1 3407   7.306   4.474   2.399  0.8466 -0.5409  1.0030
 1156TIP3    H2 3408   7.314   4.599   2.485  1.4754  0.8292 -1.0142
 1157TIP3   OH2 3409   6.844   3.078   1.104  0.1907  0.4229  0.0314
 1157TIP3    H1 3410   6.815   2.991   1.075 -0.8129  0.3757  1.1332
 1157TIP3    H2 3411   6.800   3.091   1.188  0.1571  2.0965 -0.2271
 1158TIP3   OH2 3412   0.175   7.573   5.250 -0.0571 -0.0866  0.0419
 1158TIP3    H1 3413   0.158   7.480   5.268 -1.4318 -0.1353 -1.3897
 1158TIP3    H2 3414   0.257   7.592   5.297 -0.9866 -1.3935  2.2959
 1159TIP3   OH2 3415   5.596   3.591   1.164  0.0622  0.0567 -0.3183
 1159TIP3    H1 3416   5.626   3.677   1.133  1.0375  0.0031  0.4750
 1159TIP3    H2 3417   5.506   3.585   1.133 -0.4971  1.9881  0.8854
 1160TIP3   OH2 3418   6.042   3.887   1.849 -0.1143  0.1593 -0.4500
 1160TIP3    H1 3419   5.981   3.922   1.784 -1.1946  0.3233  0.6302
 1160TIP3    H2 3420   6.049   3.955   1.915  0.7474 -0.1253 -0.2415
 1161TIP3   OH2 3421   1.679   0.058   5.868  0.6306  0.9473  0.0278
 1161TIP3    H1 3422   1.624   0.055   5.946 -1.6932 -1.5127 -1.6077
 1161TIP3    H2 3423   1.644   0.132   5.817 -1.2412 -0.5929 -0.9958
 1162TIP3   OH2 3424   6.517   2.557   0.811  0.3465  0.6296 -0.0670
 1162TIP3    H1 3425   6.473   2.504   0.745  1.2134  0.8838 -0.8615
 1162TIP3    H2 3426   6.464   2.547   0.890  0.0701 -0.7753 -0.4251
 1163TIP3   OH2 3427   5.229   2.265   0.374 -0.1938 -0.4201 -0.0269
 1163TIP3    H1 3428   5.145   2.219   0.383 -1.4072  1.1966 -2.4884
 1163TIP3    H2 3429   5.283   2.206   0.321 -0.7611 -0.2655 -0.7891
 1164TIP3   OH2 3430   0.186   7.412   6.296 -0.0858 -0.2070  0.7375
 1164TIP3    H1 3431   0.143   7.331   6.323 -2.6057  1.2643  1.3090
 1164TIP3    H2 3432   0.187   7.466   6.375  1.0901  0.5485  0.2293
 1165TIP3   OH2 3433   5.096   3.113   1.397  0.2353 -0.7322 -0.1208
 1165TIP3    H1 3434   5.097   3.049   1.468  1.2917  1.3579  1.8091
 1165TIP3    H2 3435   5.188   3.125   1.374  0.0089 -0.2842 -0.8031
 1166TIP3   OH2 3436   6.343   3.329   2.334  0.3528 -0.4086  0.2480
 1166TIP3    H1 3437   6.407   3.265   2.364  1.4747  0.5615 -0.0506
 1166TIP3    H2 3438   6.392   3.411   2.327 -0.2880 -0.2109 -2.4836
 1167TIP3   OH2 3439   6.993   3.717   0.005 -0.6435  0.0981 -0.4008
 1167TIP3    H1 3440   6.994   3.634   0.053 -0.9047 -1.0478 -2.3355
 1167TIP3    H2 3441   6.994   3.784   0.074 -0.8169 -1.4913  1.1962
 1168TIP3   OH2 3442   5.647   2.170   1.913 -0.1552 -0.0311  0.2417
 1168TIP3    H1 3443   5.743   2.174   1.920 -0.0827  2.7170 -1.6913
 1168TIP3    H2 3444   5.615   2.239   1.971 -1.0283 -1.3841  1.4013
 1169TIP3   OH2 3445   3.526   4.595   0.075 -0.1166 -0.1648  0.6134
 1169TIP3    H1 3446   3.503   4.536   0.004  1.2311 -0.7899  0.6829
 1169TIP3    H2 3447   3.621   4.599   0.074 -0.0841  0.0485  2.1909
 1170TIP3   OH2 3448   6.616   4.064   1.835 -0.0336  0.4261  0.3895
 1170TIP3    H1 3449   6.653   3.995   1.890  1.2590  0.3507 -0.5490
 1170TIP3    H2 3450   6.569   4.120   1.896 -4.6505 -3.4702  0.6885
 1171TIP3   OH2 3451   5.221   2.142   0.860 -0.4660  0.1149 -0.5762
 1171TIP3    H1 3452   5.258   2.061   0.895  0.2057  0.9121  0.5837
 1171TIP3    H2 3453   5.193   2.191   0.937  2.0682  2.3969 -1.0274
 1172TIP3   OH2 3454   4.216   1.659   0.095  0.0871 -0.5933 -0.4411
 1172TIP3    H1 3455   4.182   1.745   0.068  0.7447  0.8059  3.0069
 1172TIP3    H2 3456   4.260   1.626   0.016 -1.0525  1.7443 -2.1396
 1173TIP3   OH2 3457   1.092   1.013   6.623 -0.0297 -0.0713 -0.4779
 1173TIP3    H1 3458   1.066   1.105   6.621  0.0560 -0.0217  0.4966
 1173TIP3    H2 3459   1.018   0.967   6.582 -1.1426  0.1977  1.1729
 1174TIP3   OH2 3460   1.294   0.234   4.091 -0.2684  0.1481 -0.1067
 1174TIP3    H1 3461   1.331   0.317   4.120 -0.9988 -0.1114  1.6714
 1174TIP3    H2 3462   1.351   0.205   4.021 -0.1321  2.2619 -0.9182
 1175TIP3   OH2 3463   6.572   4.886   0.291  0.2386  0.0837  0.6338
 1175TIP3    H1 3464   6.666   4.898   0.308  0.5136 -1.4725  0.2374
 1175TIP3    H2 3465   6.561   4.792   0.281 -1.3909  0.2516  0.7399
 1176TIP3   OH2 3466   4.724   5.623   0.764 -0.0273 -0.1055  0.5956
 1176TIP3    H1 3467   4.811   5.616   0.805  1.3828 -1.2557 -2.4355
 1176TIP3    H2 3468   4.698   5.532   0.748 -0.9493  0.2956 -0.2482
 1177TIP3   OH2 3469   6.981   3.441   0.970 -0.1075 -0.0430 -0.1219
 1177TIP3    H1 3470   6.963   3.528   0.936 -0.3835  0.8404  2.1761
 1177TIP3    H2 3471   7.015   3.457   1.058  0.2156 -2.2447  0.1699
 1178TIP3   OH2 3472   5.714   3.545   0.010  0.1529 -0.4992 -0.6438
 1178TIP3    H1 3473   5.624   3.573   0.022 -0.2777 -1.5301 -1.3877
 1178TIP3    H2 3474   5.740   3.511   0.096  0.3890  1.2967  0.0134
 1179TIP3   OH2 3475   1.037   0.920   5.635  0.0151 -0.0163 -0.6996
 1179TIP3    H1 3476   0.961   0.933   5.578 -0.0235 -0.4917 -0.7572
 1179TIP3    H2 3477   1.094   0.994   5.616  0.0456 -0.2224 -1.4266
 1180TIP3   OH2 3478   3.671   0.233   5.830  0.5710  0.6499 -0.0464
 1180TIP3    H1 3479   3.712   0.319   5.844 -1.0509  1.5111 -0.4235
 1180TIP3    H2 3480   3.708   0.202   5.747  0.3001  1.5146 -0.4960
 1181TIP3   OH2 3481   7.487   4.873   0.976 -0.5845  0.0958  0.3906
 1181TIP3    H1 3482   7.468   4.803   0.914 -1.3918  0.1958  0.5159
 1181TIP3    H2 3483   7.537   4.831   1.046 -0.2655 -0.1587  0.0158
 1182TIP3   OH2 3484   6.091   7.574   5.813  0.0551  0.2295 -0.3970
 1182TIP3    H1 3485   6.116   7.517   5.740 -1.8082  0.0926 -0.9462
 1182TIP3    H2 3486   6.081   7.515   5.888  0.1230  0.1162 -0.4764
 1183TIP3   OH2 3487   4.608   3.527   0.376  0.6629 -0.1866  0.3961
 1183TIP3    H1 3488   4.534   3.488   0.330 -0.2075  0.9418  0.7969
 1183TIP3    H2 3489   4.685   3.505   0.323  0.0533 -1.4536  0.0360
 1184TIP3   OH2 3490   3.998   2.730   2.416  0.2671 -0.4283 -0.1733
 1184TIP3    H1 3491   3.942   2.764   2.345 -0.2715  1.9065  1.3152
 1184TIP3    H2 3492   4.087   2.752   2.389  0.0701  0.3894 -0.1781
 1185TIP3   OH2 3493   5.829   4.722   0.035 -0.2387 -0.2745  0.2725
 1185TIP3    H1 3494   5.896   4.770   0.084  0.7736  0.0036 -1.3197
 1185TIP3    H2 3495   5.830   4.634   0.071  0.1527  0.0450  1.0508
 1186TIP3   OH2 3496   8.080   3.441   1.190  0.2107 -0.1785 -0.0725
 1186TIP3    H1 3497   8.000   3.417   1.144  0.9697 -1.3513 -0.7896
 1186TIP3    H2 3498   8.096   3.532   1.164 -1.6677  0.5695  1.2333
 1187TIP3   OH2 3499   5.706   3.441   1.376  0.1406  0.4061  0.3187
 1187TIP3    H1 3500   5.651   3.461   1.300  0.2906 -0.4585 -0.0233
 1187TIP3    H2 3501   5.644   3.413   1.444  0.0445  0.7378  0.3664
 1188TIP3   OH2 3502   8.205   6.994   5.359 -0.7356  0.3016 -0.6315
 1188TIP3    H1 3503   8.198   7.025   5.268  0.6551  0.9253 -0.5451
 1188TIP3    H2 3504   8.239   6.905   5.351 -0.4091  0.4308 -0.7316
 1189TIP3   OH2 3505   7.364   6.909   6.189  0.3402  0.2357  0.0886
 1189TIP3    H1 3506   7.321   6.898   6.104  1.7464 -1.4705 -0.4179
 1189TIP3    H2 3507   7.398   6.822   6.210 -0.4431  0.5111  2.6597
 1190TIP3   OH2 3508   5.134   2.040   0.076  0.8602  0.3158  0.1853
 1190TIP3    H1 3509   5.128   1.957   0.124 -0.4557  0.5961  0.5229
 1190TIP3    H2 3510   5.219   2.037   0.033  0.7465 -1.2881  0.0591
 1191TIP3   OH2 3511   6.852   5.096   5.724  0.0431 -1.1080 -0.0449
 1191TIP3    H1 3512   6.799   5.155   5.670 -0.1999  0.8055  2.1978
 1191TIP3    H2 3513   6.940   5.132   5.720  0.0616 -1.0588  0.6512
 1192TIP3   OH2 3514   3.676   3.762   1.572  0.6496  0.4144  0.4294
 1192TIP3    H1 3515   3.619   3.747   1.496  1.4328 -1.8000  0.2242
 1192TIP3    H2 3516   3.764   3.738   1.541  1.0091 -0.3488  1.9888
 1193TIP3   OH2 3517   5.454   4.619   1.419  0.3428  0.2569  0.0594
 1193TIP3    H1 3518   5.470   4.538   1.467 -1.5702  0.4312  1.0182
 1193TIP3    H2 3519   5.541   4.646   1.388  0.8075 -2.9821 -1.6599
 1194TIP3   OH2 3520   3.954   3.937   0.524 -0.1604  0.1782  0.3332
 1194TIP3    H1 3521   3.963   3.921   0.618 -1.0539 -0.7281  0.2749
 1194TIP3    H2 3522   3.944   4.032   0.516 -0.4165  0.2273  1.1814
 1195TIP3   OH2 3523   6.090   1.820   1.440 -0.1580  0.1484 -0.7793
 1195TIP3    H1 3524   6.014   1.825   1.499  0.0398  1.2238 -0.6039
 1195TIP3    H2 3525   6.111   1.912   1.421  2.2827 -0.0530  0.7105
 1196TIP3   OH2 3526   6.165   3.103   1.130  0.2168  0.5682 -0.3951
 1196TIP3    H1 3527   6.142   3.030   1.073  1.5271 -0.0097 -0.1983
 1196TIP3    H2 3528   6.128   3.180   1.086 -3.3461 -0.4412  0.6518
 1197TIP3   OH2 3529   7.788   2.827   0.668 -0.2897 -0.1372  0.4721
 1197TIP3    H1 3530   7.768   2.752   0.612 -0.1568  0.3436 -0.2253
 1197TIP3    H2 3531   7.723   2.822   0.738 -0.3697 -0.8213  0.3592
 1198TIP3   OH2 3532   5.054   5.384   1.767 -0.2434  0.5234  0.7320
 1198TIP3    H1 3533   5.091   5.367   1.854  0.0387 -0.0714  0.4955
 1198TIP3    H2 3534   5.099   5.323   1.709 -1.8124 -0.4374  0.4985
 1199TIP3   OH2 3535   4.695   2.787   2.303  0.0841  0.0873 -0.1775
 1199TIP3    H1 3536   4.620   2.729   2.290 -1.4579  2.4526 -2.2244
 1199TIP3    H2 3537   4.716   2.819   2.216  3.1654 -0.1013  0.4541
 1200TIP3   OH2 3538   3.356   3.100   6.285 -0.3433  0.5058  0.1433
 1200TIP3    H1 3539   3.431   3.053   6.248 -1.1824 -2.1746  1.6862
 1200TIP3    H2 3540   3.280   3.062   6.243 -1.0654  0.2037  1.6786
 1201TIP3   OH2 3541   7.776   0.504   0.645 -0.2525 -0.2101  0.3658
 1201TIP3    H1 3542   7.759   0.523   0.553 -1.9129 -2.3466  0.1848
 1201TIP3    H2 3543   7.838   0.431   0.643 -1.9117 -1.6808  0.8705
 1202TIP3   OH2 3544   1.762   2.619   0.957  0.0040 -0.2719 -0.1908
 1202TIP3    H1 3545   1.784   2.668   0.877 -0.8392  2.1799  1.0201
 1202TIP3    H2 3546   1.672   2.590   0.943 -0.4244  0.8536  0.1842
 1203TIP3   OH2 3547   7.317   5.429   2.091  0.7073  0.1991  0.1045
 1203TIP3    H1 3548   7.314   5.467   2.179  1.2616  0.8628 -0.1530
 1203TIP3    H2 3549   7.306   5.504   2.033 -1.1026 -0.4258 -0.3819
 1204TIP3   OH2 3550   5.505   1.400   0.170  0.3788  0.6893  0.0406
 1204TIP3    H1 3551   5.567   1.385   0.098 -0.3259  1.0386 -0.6466
 1204TIP3    H2 3552   5.471   1.312   0.190  2.4273  0.2168  1.6634
 1205TIP3   OH2 3553   4.178   0.225   6.774  0.0316  0.0301  0.3859
 1205TIP3    H1 3554   4.206   0.303   6.821  1.9423 -0.2706 -0.2289
 1205TIP3    H2 3555   4.124   0.177   6.837 -0.4869  1.4372  1.0255
 1206TIP3   OH2 3556   5.675   2.036   0.883 -0.3612 -0.0095 -0.0227
 1206TIP3    H1 3557   5.693   2.087   0.804 -0.0112 -0.9495 -0.5673
 1206TIP3    H2 3558   5.733   1.960   0.876 -0.8444 -0.4650  0.7811
 1207TIP3   OH2 3559   5.781   1.744   0.158 -0.2556  0.5095  0.5633
 1207TIP3    H1 3560   5.871   1.712   0.146 -0.4864  0.1132 -0.1340
 1207TIP3    H2 3561   5.786   1.837   0.136 -0.3379  0.1404 -1.0991
 1208TIP3   OH2 3562   6.911   4.785   0.134  0.5546  0.6191  0.5492
 1208TIP3    H1 3563   6.982   4.721   0.137  0.1748  0.1584 -0.1598
 1208TIP3    H2 3564   6.835   4.735   0.103  0.5730  1.6987 -1.3170
 1209TIP3   OH2 3565   3.243   7.375   5.748 -0.6675  0.2471 -0.6677
 1209TIP3    H1 3566   3.194   7.439   5.798  1.8447  0.0709  2.1502
 1209TIP3    H2 3567   3.298   7.426   5.689 -1.4893  0.5482 -1.1748
 1210TIP3   OH2 3568   3.537   0.611   6.591 -0.6163  0.4526 -0.2192
 1210TIP3    H1 3569   3.520   0.549   6.662 -1.1275  0.7004 -0.1213
 1210TIP3    H2 3570   3.611   0.662   6.621 -1.0885  0.8304  0.3226
 1211TIP3   OH2 3571   2.696   6.235   5.574  0.5245  0.0074 -0.1247
 1211TIP3    H1 3572   2.700   6.298   5.646  0.1066  0.8798 -0.8452
 1211TIP3    H2 3573   2.742   6.158   5.606 -0.1219  0.1933  1.2701
 1212TIP3   OH2 3574   7.053   3.192   0.882 -0.4189  0.3319 -0.0390
 1212TIP3    H1 3575   6.993   3.130   0.924 -0.2949  1.6154  2.0836
 1212TIP3    H2 3576   7.028   3.278   0.916  1.5574  1.0761 -0.3846
 1213TIP3   OH2 3577   2.766   5.607   5.939 -0.2179 -0.1312  0.2555
 1213TIP3    H1 3578   2.722   5.524   5.957 -0.3520 -0.3817 -1.1853
 1213TIP3    H2 3579   2.765   5.653   6.023 -3.1812 -0.1362  0.2863
 1214TIP3   OH2 3580   0.974   4.425   0.766 -0.4591 -0.3269 -0.4384
 1214TIP3    H1 3581   0.981   4.345   0.819 -0.9916  0.0183  0.1580
 1214TIP3    H2 3582   0.880   4.445   0.765 -0.4124 -0.1233 -1.2153
 1215TIP3   OH2 3583   7.975   4.756   0.175 -0.0460  0.5954 -0.2191
 1215TIP3    H1 3584   7.930   4.749   0.259  0.7211 -1.6497  0.0349
 1215TIP3    H2 3585   7.992   4.850   0.164 -0.2815  0.9271  2.0498
 1216TIP3   OH2 3586   7.679   3.318   0.445  0.4610  0.0819 -0.1288
 1216TIP3    H1 3587   7.586   3.318   0.470  0.7872  0.3251  1.1513
 1216TIP3    H2 3588   7.679   3.311   0.350 -0.8396 -1.6621 -0.0217
 1217TIP3   OH2 3589   8.229   3.499   2.090 -0.1718  0.3055  0.2853
 1217TIP3    H1 3590   8.286   3.510   2.166  0.4652 -1.4122  0.0789
 1217TIP3    H2 3591   8.175   3.578   2.088  0.4814  0.7987  1.9513
 1218TIP3   OH2 3592   6.702   2.815   1.202  0.3064  0.0090  0.2536
 1218TIP3    H1 3593   6.611   2.796   1.225  0.3901 -0.3984  0.2594
 1218TIP3    H2 3594   6.747   2.820   1.286  0.3300 -0.0069  0.2417
 1219TIP3   OH2 3595   5.548   2.926   0.359  0.2652  0.3483  0.2609
 1219TIP3    H1 3596   5.636   2.899   0.385  0.7729  1.6431 -0.0722
 1219TIP3    H2 3597   5.531   3.006   0.409 -1.0057 -0.2686  0.8380
 1220TIP3   OH2 3598   6.956   2.653   0.657 -0.0463 -0.0344 -0.5098
 1220TIP3    H1 3599   6.930   2.565   0.685 -0.2347 -0.1541 -1.0499
 1220TIP3    H2 3600   6.873   2.697   0.640  0.0772 -0.0780 -1.2256
 1221TIP3   OH2 3601   8.364   4.536   1.289 -0.3119  0.2455  0.1966
 1221TIP3    H1 3602   8.317   4.497   1.363  0.9759 -0.1796  0.8044
 1221TIP3    H2 3603   8.418   4.466   1.255 -1.8391  0.0683 -1.9953
 1222TIP3   OH2 3604   1.436   7.384   5.783  0.3684 -0.2567  0.4693
 1222TIP3    H1 3605   1.368   7.450   5.766  1.3452  0.7138  0.2947
 1222TIP3    H2 3606   1.489   7.384   5.703 -0.1545 -1.9203  0.0938
 1223TIP3   OH2 3607   6.930   3.946   0.469 -0.0979  0.5818 -0.2486
 1223TIP3    H1 3608   6.954   4.038   0.464  0.3564  0.4607 -0.3512
 1223TIP3    H2 3609   6.840   3.942   0.436 -1.1050  1.3603  2.2436
 1224TIP3   OH2 3610   7.969   3.909   0.071  0.1755 -0.0154  0.1569
 1224TIP3    H1 3611   8.033   3.980   0.065 -0.7021  0.8739  1.1753
 1224TIP3    H2 3612   8.019   3.830   0.050  0.9035  1.0092 -2.1943
 1225TIP3   OH2 3613   8.178   3.612   0.981  0.2789 -0.3319  0.1127
 1225TIP3    H1 3614   8.210   3.523   0.969 -0.6096 -0.8211  1.2857
 1225TIP3    H2 3615   8.237   3.666   0.927 -0.0514 -1.7669 -1.7486
 1226TIP3   OH2 3616   4.914   3.134   0.210  0.0166  0.3261 -0.0215
 1226TIP3    H1 3617   4.884   3.067   0.271  0.5438  0.1614  0.0499
 1226TIP3    H2 3618   4.999   3.104   0.179 -0.0174  0.6600 -0.4518
 1227TIP3   OH2 3619   3.928   0.042   6.877  0.2848 -0.2083 -0.1591
 1227TIP3    H1 3620   3.923  -0.053   6.872  2.0608 -0.3797  0.7635
 1227TIP3    H2 3621   3.900   0.073   6.791  2.0649 -1.6809 -1.3088
 1228TIP3   OH2 3622   1.039   7.391   5.491  0.0367 -0.0878  0.2279
 1228TIP3    H1 3623   1.081   7.317   5.448  0.4185 -0.1592  0.7117
 1228TIP3    H2 3624   0.949   7.390   5.460  0.5179  0.3772 -1.2147
 1229TIP3   OH2 3625   7.108   3.909   1.268  0.0222 -0.5480  0.2874
 1229TIP3    H1 3626   7.142   3.988   1.310  2.3081 -0.4001 -1.7827
 1229TIP3    H2 3627   7.066   3.940   1.188  1.7931 -1.5081 -1.0294
 1230TIP3   OH2 3628   8.292   3.685   1.745  0.9637 -0.1211  0.0575
 1230TIP3    H1 3629   8.241   3.604   1.752  1.3206 -0.4773 -1.1916
 1230TIP3    H2 3630   8.381   3.655   1.723  1.1722  0.6014 -0.0939
 1231TIP3   OH2 3631   0.253   4.479   2.242 -0.3190 -0.4454 -0.2160
 1231TIP3    H1 3632   0.177   4.535   2.257  0.9299  1.2284  0.0155
 1231TIP3    H2 3633   0.304   4.526   2.176  0.7211 -1.3450 -0.0687
 1232TIP3   OH2 3634   7.002   6.891   2.580  0.4721 -0.0365  0.4126
 1232TIP3    H1 3635   7.014   6.980   2.614  0.6592  0.2703 -0.4622
 1232TIP3    H2 3636   7.089   6.851   2.586  0.4148 -0.1260  0.6838
 1233TIP3   OH2 3637   0.536   5.690   0.052 -0.2391 -0.4654  0.1152
 1233TIP3    H1 3638   0.605   5.706  -0.013  0.0531 -0.7713  0.3457
 1233TIP3    H2 3639   0.552   5.756   0.119 -2.1294  1.5499 -1.3578
 1234TIP3   OH2 3640   1.062   6.290   1.594  0.6400  0.7916 -0.1165
 1234TIP3    H1 3641   1.025   6.377   1.577 -0.4366 -0.0381 -2.2426
 1234TIP3    H2 3642   0.991   6.229   1.572  1.9354 -0.6951 -0.2724
 1235TIP3   OH2 3643   0.887   3.439   1.200 -0.6895  0.2390 -0.1820
 1235TIP3    H1 3644   0.857   3.436   1.290  0.3324 -1.0119  0.1431
 1235TIP3    H2 3645   0.838   3.370   1.156 -0.1777 -0.0846 -0.2507
 1236TIP3   OH2 3646   7.755   5.722   3.693 -0.7160  0.1091 -0.2811
 1236TIP3    H1 3647   7.816   5.650   3.677 -1.8520 -0.8497 -0.4452
 1236TIP3    H2 3648   7.674   5.678   3.722 -0.5783  1.4606  2.3288
 1237TIP3   OH2 3649   2.149   7.578   1.124 -0.4595 -0.2040  0.2771
 1237TIP3    H1 3650   2.054   7.566   1.118 -0.3734 -0.1543 -1.2840
 1237TIP3    H2 3651   2.160   7.635   1.201 -1.7170  0.1519  0.2200
 1238TIP3   OH2 3652   7.726   5.871   0.898 -0.2465 -0.0916  0.3523
 1238TIP3    H1 3653   7.802   5.836   0.851 -1.4173  0.5458 -2.0922
 1238TIP3    H2 3654   7.763   5.934   0.959  1.1474  0.7947 -1.3483
 1239TIP3   OH2 3655   0.510   3.779   4.971 -0.3098 -0.0224 -0.2447
 1239TIP3    H1 3656   0.495   3.827   4.889 -1.7626  2.0853  1.1927
 1239TIP3    H2 3657   0.429   3.731   4.986 -0.8604  1.2397  0.9755
 1240TIP3   OH2 3658   0.271   3.485   2.787 -0.2603  0.3979 -0.2365
 1240TIP3    H1 3659   0.327   3.501   2.863 -0.0884  1.8618 -0.6467
 1240TIP3    H2 3660   0.252   3.573   2.753 -1.2822 -0.1856 -1.1969
 1241TIP3   OH2 3661   0.816   2.553   3.199 -0.0925 -0.1342 -0.4597
 1241TIP3    H1 3662   0.828   2.568   3.292 -1.3949  0.2483 -0.3448
 1241TIP3    H2 3663   0.782   2.464   3.192 -1.2511  0.3030 -0.4669
 1242TIP3   OH2 3664   7.292   5.370   2.759  0.3952 -0.0596 -0.4395
 1242TIP3    H1 3665   7.252   5.438   2.706  0.1603 -1.5482 -2.2361
 1242TIP3    H2 3666   7.221   5.337   2.813 -0.3231 -1.1675 -2.0122
 1243TIP3   OH2 3667   7.380   1.293   6.112  0.4112 -0.0248 -0.8514
 1243TIP3    H1 3668   7.291   1.327   6.123  0.4962 -0.0732  0.0366
 1243TIP3    H2 3669   7.386   1.222   6.176  1.5773  0.9418  0.1255
 1244TIP3   OH2 3670   8.288   5.118   1.726 -0.0190  0.2777 -0.5359
 1244TIP3    H1 3671   8.384   5.115   1.730 -0.0376  1.2342  1.1758
 1244TIP3    H2 3672   8.262   5.028   1.707  1.2387  0.1285 -1.6417
 1245TIP3   OH2 3673   0.545   3.941   0.936  0.0018 -0.1048  0.0001
 1245TIP3    H1 3674   0.545   3.965   0.844 -0.7883 -1.5018 -0.3853
 1245TIP3    H2 3675   0.636   3.954   0.965 -0.3294  3.0179 -0.2183
 1246TIP3   OH2 3676   0.745   4.745   1.741  0.2399 -0.4748 -0.0799
 1246TIP3    H1 3677   0.822   4.733   1.685  0.6182 -0.3413  0.4056
 1246TIP3    H2 3678   0.681   4.682   1.708 -0.9259  2.1353 -3.1075
 1247TIP3   OH2 3679   0.255   4.876   1.288 -0.1177 -0.7703  0.4630
 1247TIP3    H1 3680   0.211   4.799   1.251  1.6365 -1.3350 -0.4941
 1247TIP3    H2 3681   0.220   4.950   1.238 -0.0251 -1.2091 -0.2607
 1248TIP3   OH2 3682   7.897   6.542   3.229 -0.6615  0.0880 -0.1035
 1248TIP3    H1 3683   7.913   6.477   3.160 -1.3249 -1.6468  1.3649
 1248TIP3    H2 3684   7.804   6.534   3.249 -0.5474  0.8556  0.7571
 1249TIP3   OH2 3685   1.841   6.605   2.425 -0.0139  0.0589 -0.0125
 1249TIP3    H1 3686   1.830   6.510   2.424 -0.5044  0.1185 -0.2035
 1249TIP3    H2 3687   1.752   6.640   2.418  0.2902  0.5416 -1.5911
 1250TIP3   OH2 3688   7.989   3.207   3.075 -0.8136 -0.7571 -0.2350
 1250TIP3    H1 3689   7.900   3.204   3.110 -0.8734 -0.1930 -0.3322
 1250TIP3    H2 3690   8.025   3.120   3.092 -0.6583 -0.3368  1.6633
 1251TIP3   OH2 3691   2.060   5.788   0.357  0.3660  0.0208  0.1060
 1251TIP3    H1 3692   2.120   5.852   0.396  2.3567 -0.5700 -1.9003
 1251TIP3    H2 3693   1.980   5.839   0.340  1.5824  1.7512 -0.5887
 1252TIP3   OH2 3694   6.577   6.040   3.199 -0.9648  0.4968 -0.5820
 1252TIP3    H1 3695   6.618   5.989   3.269  0.0614 -1.5098 -2.5666
 1252TIP3    H2 3696   6.500   6.079   3.240 -0.2808 -0.4546  1.7147
 1253TIP3   OH2 3697   0.982   4.882   1.638 -0.3358  0.2198 -0.0544
 1253TIP3    H1 3698   0.989   4.970   1.675 -0.0025 -0.0895  0.6236
 1253TIP3    H2 3699   0.959   4.896   1.546 -0.7353  1.0043  0.1632
 1254TIP3   OH2 3700   0.547   5.339   2.306  0.1840  0.3717 -0.0696
 1254TIP3    H1 3701   0.453   5.344   2.293  0.0828 -0.7238  0.1807
 1254TIP3    H2 3702   0.558   5.322   2.399  0.5253 -2.0635 -0.5350
 1255TIP3   OH2 3703   8.452   4.143   2.915  0.2282 -0.2572 -0.3190
 1255TIP3    H1 3704   8.546   4.128   2.921  0.1228 -0.3856  1.1884
 1255TIP3    H2 3705   8.442   4.204   2.842  1.3965 -0.8769 -1.0198
 1256TIP3   OH2 3706   7.791   3.323   1.256 -0.7275 -0.0736 -0.3185
 1256TIP3    H1 3707   7.826   3.389   1.197 -2.3862 -0.2901 -1.5897
 1256TIP3    H2 3708   7.756   3.255   1.198 -1.2688 -0.8836  0.9265
 1257TIP3   OH2 3709   8.462   5.371   3.611  0.1178  0.1118  0.4749
 1257TIP3    H1 3710   8.550   5.334   3.611  0.3983  0.7725 -0.4804
 1257TIP3    H2 3711   8.418   5.327   3.684  1.8105  1.1114  2.1744
 1258TIP3   OH2 3712   0.782   2.115   2.876  0.4714 -0.6571  0.2759
 1258TIP3    H1 3713   0.696   2.074   2.861  0.2159  0.1862 -0.6026
 1258TIP3    H2 3714   0.828   2.053   2.932 -0.8802 -0.9224  1.1342
 1259TIP3   OH2 3715   7.474   5.032   2.594 -0.3810 -0.1733  0.2697
 1259TIP3    H1 3716   7.492   5.027   2.688 -3.0178 -1.1990  0.7535
 1259TIP3    H2 3717   7.559   5.055   2.555  0.4164  1.8305  3.0132
 1260TIP3   OH2 3718   8.405   3.287   2.395 -0.0675 -0.0031 -0.5434
 1260TIP3    H1 3719   8.364   3.202   2.378  1.7341 -0.9402 -0.2808
 1260TIP3    H2 3720   8.496   3.267   2.414 -0.4599  1.5678  3.5901
 1261TIP3   OH2 3721   2.265   2.638   1.479 -0.0090  0.0793  0.5904
 1261TIP3    H1 3722   2.218   2.564   1.441  2.3381 -1.8802  1.3574
 1261TIP3    H2 3723   2.255   2.626   1.574  0.4929  0.6865  0.7200
 1262TIP3   OH2 3724   8.359   6.065   2.353  0.5577  0.3270  0.1833
 1262TIP3    H1 3725   8.432   6.026   2.305  0.7202  1.5328 -0.5808
 1262TIP3    H2 3726   8.285   6.006   2.338  1.3037 -0.7610  0.7389
 1263TIP3   OH2 3727   8.450   5.675   3.977 -0.0603 -0.0783 -0.5322
 1263TIP3    H1 3728   8.380   5.739   3.989 -0.0817 -0.1120 -0.4745
 1263TIP3    H2 3729   8.460   5.668   3.882 -0.4276 -0.3902 -0.5466
 1264TIP3   OH2 3730   1.575   7.033   2.012 -0.1587  0.5123 -0.0564
 1264TIP3    H1 3731   1.635   6.991   1.950  1.2429  2.0928  0.2193
 1264TIP3    H2 3732   1.516   6.963   2.038  1.9657 -1.2452  0.1724
 1265TIP3   OH2 3733   6.698   3.521   6.785 -0.3503  0.4408 -0.1701
 1265TIP3    H1 3734   6.778   3.538   6.734 -1.0618  3.9792 -0.2095
 1265TIP3    H2 3735   6.636   3.486   6.720  0.7425 -1.0780 -0.4077
 1266TIP3   OH2 3736   0.360   5.691   2.230  0.3468 -0.4378 -0.2005
 1266TIP3    H1 3737   0.342   5.745   2.307 -0.8333  0.4618 -1.1000
 1266TIP3    H2 3738   0.359   5.601   2.263  3.0918  0.0850  1.4579
 1267TIP3   OH2 3739   0.226   4.998   3.342  0.1024  0.2933 -0.3027
 1267TIP3    H1 3740   0.198   4.906   3.337 -0.0784  0.1761  2.3285
 1267TIP3    H2 3741   0.154   5.043   3.385  1.2657  1.1954  0.7289
 1268TIP3   OH2 3742   1.656   5.905   0.478  0.2601  0.1126 -0.9252
 1268TIP3    H1 3743   1.583   5.939   0.529  1.1520  2.0178 -0.8614
 1268TIP3    H2 3744   1.630   5.816   0.454 -0.5773 -0.4921  2.0625
 1269TIP3   OH2 3745   1.283   3.578   1.477 -0.0156  0.3786  0.8811
 1269TIP3    H1 3746   1.271   3.655   1.422  0.7389 -1.1997 -1.6191
 1269TIP3    H2 3747   1.376   3.578   1.499  0.4300 -0.8681 -0.8567
 1270TIP3   OH2 3748   8.373   3.094   0.030 -0.4776  0.0418  0.1518
 1270TIP3    H1 3749   8.329   3.010   0.027  0.0153 -0.2109 -0.1220
 1270TIP3    H2 3750   8.311   3.153   0.072 -0.3979 -0.7126  1.3488
 1271TIP3   OH2 3751   8.009   2.536   0.125 -0.0951  0.8696  0.9548
 1271TIP3    H1 3752   8.086   2.481   0.139 -0.9854 -0.5985  0.2510
 1271TIP3    H2 3753   8.016   2.564   0.033 -0.3066  0.8752  0.9405
 1272TIP3   OH2 3754   1.186   3.860   2.821  0.1755  0.1618 -0.9701
 1272TIP3    H1 3755   1.105   3.864   2.872  1.5520  0.8616  1.2355
 1272TIP3    H2 3756   1.158   3.876   2.731 -2.1374  0.4028 -0.2543
 1273TIP3   OH2 3757   7.828   6.977   0.439 -0.0357 -0.1314 -1.2635
 1273TIP3    H1 3758   7.739   6.969   0.404  0.2579  0.1839 -2.0774
 1273TIP3    H2 3759   7.818   6.956   0.532 -0.9883  0.0531 -1.3160
 1274TIP3   OH2 3760   1.782   5.486   0.757 -0.1423 -0.3186  0.7732
 1274TIP3    H1 3761   1.850   5.426   0.787 -0.2717 -0.8181  0.0690
 1274TIP3    H2 3762   1.781   5.555   0.823 -0.1128 -1.1749  1.6862
 1275TIP3   OH2 3763   2.049   4.716   3.081 -0.0150  0.4039  0.2418
 1275TIP3    H1 3764   2.081   4.794   3.037  2.1596 -0.3077  0.5172
 1275TIP3    H2 3765   2.114   4.698   3.149 -1.4820 -0.5558  1.4180
 1276TIP3   OH2 3766   0.795   6.291   1.960 -0.4740 -0.5125 -0.0252
 1276TIP3    H1 3767   0.876   6.342   1.954 -1.1306  0.5423 -0.2422
 1276TIP3    H2 3768   0.779   6.261   1.871 -0.9492  0.3097 -0.2282
 1277TIP3   OH2 3769   2.598   6.801   1.073 -0.1171  0.1471  0.0587
 1277TIP3    H1 3770   2.600   6.829   1.164 -0.2474 -0.0276  0.1157
 1277TIP3    H2 3771   2.668   6.850   1.031 -0.4985  0.7341  0.1048
 1278TIP3   OH2 3772   8.094   6.890   0.798  0.0275 -0.4956  0.2144
 1278TIP3    H1 3773   8.160   6.853   0.739  0.2816  2.5761 -1.5199
 1278TIP3    H2 3774   8.117   6.983   0.804 -2.6076  0.0988  1.7082
 1279TIP3   OH2 3775   8.093   4.181   1.493  0.1816  0.0110  0.8903
 1279TIP3    H1 3776   8.041   4.187   1.413 -1.4185  0.9935  1.9733
 1279TIP3    H2 3777   8.127   4.269   1.506 -1.9800  0.6442  2.8218
 1280TIP3   OH2 3778   0.248   4.441   1.225  0.6593  0.1894 -0.0459
 1280TIP3    H1 3779   0.334   4.478   1.246  1.7054 -3.0905  1.9389
 1280TIP3    H2 3780   0.242   4.445   1.130  2.8531  0.8259 -0.1724
 1281TIP3   OH2 3781   2.945   6.534   2.182  0.1259 -0.2009  0.1295
 1281TIP3    H1 3782   2.988   6.609   2.223 -0.6759  0.4087 -0.1242
 1281TIP3    H2 3783   2.936   6.558   2.090 -0.9693 -0.2071  0.2218
 1282TIP3   OH2 3784   2.087   4.086   0.799  0.3818  0.1093 -0.3715
 1282TIP3    H1 3785   2.070   4.058   0.889 -0.2057  0.9373 -0.2146
 1282TIP3    H2 3786   2.006   4.065   0.752 -0.8755  3.3190  0.1945
 1283TIP3   OH2 3787   5.039   7.229   6.554 -0.0999 -0.4259  0.0245
 1283TIP3    H1 3788   4.953   7.188   6.548 -0.5541  0.7251 -2.1170
 1283TIP3    H2 3789   5.097   7.172   6.504  0.2893 -0.9745  1.0998
 1284TIP3   OH2 3790   2.616   7.844   6.032  0.3089 -0.1016 -0.6952
 1284TIP3    H1 3791   2.684   7.861   6.097 -0.7027 -1.7799  0.8661
 1284TIP3    H2 3792   2.594   7.930   5.997  0.1776  0.9978  1.9577
 1285TIP3   OH2 3793   1.646   4.128   0.881  0.2377  0.0564  0.0990
 1285TIP3    H1 3794   1.649   4.046   0.930 -0.1327 -1.0190 -1.6444
 1285TIP3    H2 3795   1.555   4.156   0.886 -0.1613 -0.9277 -1.3566
 1286TIP3   OH2 3796   0.618   4.935   1.540  0.3130  0.0654  0.2017
 1286TIP3    H1 3797   0.546   4.876   1.561  0.1301 -0.1085 -0.8957
 1286TIP3    H2 3798   0.692   4.902   1.590  0.0301 -0.6821  0.1241
 1287TIP3   OH2 3799   8.062   6.808   1.083 -0.1911  0.0122 -0.0726
 1287TIP3    H1 3800   7.991   6.869   1.104 -0.7457 -0.4016 -0.6980
 1287TIP3    H2 3801   8.058   6.798   0.988 -1.1093 -2.1577  0.1542
 1288TIP3   OH2 3802   2.683   4.220   0.636 -0.1706 -0.3116  0.7229
 1288TIP3    H1 3803   2.701   4.311   0.657 -2.0391  0.1027  0.6131
 1288TIP3    H2 3804   2.734   4.203   0.557  1.9056 -0.0242  1.9734
 1289TIP3   OH2 3805   2.804   3.754   2.773  0.3943 -0.0794  0.5418
 1289TIP3    H1 3806   2.835   3.738   2.862 -0.8686 -0.7930  0.8643
 1289TIP3    H2 3807   2.709   3.750   2.779  0.3051 -1.2402 -1.0272
 1290TIP3   OH2 3808   1.611   6.635   2.124 -0.1149  0.0036 -0.3395
 1290TIP3    H1 3809   1.696   6.676   2.110 -0.7121  1.0900 -0.7846
 1290TIP3    H2 3810   1.569   6.688   2.192 -1.1396  0.5342 -1.3610
 1291TIP3   OH2 3811   1.024   6.720   3.092  0.8158  0.0288  0.2417
 1291TIP3    H1 3812   0.958   6.737   3.025  0.8532  1.0381  0.4645
 1291TIP3    H2 3813   1.098   6.776   3.069  2.0825 -1.9252 -0.6678
 1292TIP3   OH2 3814   2.480   2.700   3.696  0.6044 -0.4305 -0.0320
 1292TIP3    H1 3815   2.413   2.735   3.754  1.0950  1.4142 -0.5465
 1292TIP3    H2 3816   2.438   2.698   3.610  0.9375 -0.0268 -0.2081
 1293TIP3   OH2 3817   1.250   6.284   1.380 -0.2231 -0.1300 -0.2809
 1293TIP3    H1 3818   1.203   6.301   1.298  0.8043 -0.0767 -0.8568
 1293TIP3    H2 3819   1.180   6.268   1.444 -0.9983 -1.6419 -1.4664
 1294TIP3   OH2 3820   1.675   7.414   0.932 -0.2226  0.1968  0.0939
 1294TIP3    H1 3821   1.724   7.335   0.954  1.0329  0.9167 -0.0883
 1294TIP3    H2 3822   1.649   7.402   0.840  1.4297  0.7330 -0.4570
 1295TIP3   OH2 3823   1.853   7.168   1.907  0.6043 -0.0061 -0.4632
 1295TIP3    H1 3824   1.822   7.077   1.904 -2.7947  1.1348 -0.6857
 1295TIP3    H2 3825   1.875   7.189   1.816 -0.2821 -0.0552 -0.6946
 1296TIP3   OH2 3826   2.073   4.381   1.082 -0.4316  0.5061 -0.2829
 1296TIP3    H1 3827   2.081   4.421   0.995  0.0258 -0.0192 -0.4836
 1296TIP3    H2 3828   2.103   4.449   1.142 -0.4166  0.7487 -0.5623
 1297TIP3   OH2 3829   4.728   7.344   6.596  0.0549  0.1608  0.5666
 1297TIP3    H1 3830   4.788   7.396   6.544  0.1756  0.9477  1.4774
 1297TIP3    H2 3831   4.642   7.385   6.582  0.0759  0.3286  0.9422
 1298TIP3   OH2 3832   1.368   6.937   0.160 -0.4380  0.4166 -0.0249
 1298TIP3    H1 3833   1.311   6.939   0.083 -0.6587 -2.4533  0.0091
 1298TIP3    H2 3834   1.440   6.880   0.135 -0.4233 -0.4114  1.7959
 1299TIP3   OH2 3835   1.487   7.065   2.363 -0.0053  0.3909  0.2315
 1299TIP3    H1 3836   1.427   7.076   2.288  1.0506  2.1663 -0.3764
 1299TIP3    H2 3837   1.442   7.110   2.435 -0.7121 -0.7441  0.5148
 1300TIP3   OH2 3838   7.600   1.667   6.923 -0.2688  0.2817 -0.3076
 1300TIP3    H1 3839   7.508   1.686   6.906 -0.7538 -0.8455  0.9787
 1300TIP3    H2 3840   7.637   1.752   6.948 -1.2132  0.5386  0.2568
 1301TIP3   OH2 3841   1.128   2.954   0.844  0.4611 -0.5198  0.3527
 1301TIP3    H1 3842   1.113   2.931   0.935  3.4211  0.3314  1.1223
 1301TIP3    H2 3843   1.173   2.878   0.807  0.4104 -0.3531 -0.0632
 1302TIP3   OH2 3844   0.958   4.839   0.224 -0.1935 -0.5649 -0.2851
 1302TIP3    H1 3845   1.047   4.827   0.256  0.2597 -1.2107 -1.7844
 1302TIP3    H2 3846   0.967   4.896   0.148 -1.0668 -0.5735 -0.3990
 1303TIP3   OH2 3847   5.051   0.405   1.673  0.0301  0.4885  0.5495
 1303TIP3    H1 3848   5.026   0.439   1.587 -2.3939 -4.0273 -0.7207
 1303TIP3    H2 3849   4.978   0.429   1.731  0.6495  1.6808  0.8377
 1304TIP3   OH2 3850   0.264   2.282   1.236 -0.4616 -0.0105 -0.2995
 1304TIP3    H1 3851   0.229   2.292   1.324  0.1487 -0.7865  0.0354
 1304TIP3    H2 3852   0.322   2.206   1.241 -0.4136 -0.0574 -1.3652
 1305TIP3   OH2 3853   1.367   6.565   0.284  0.2193 -0.3527 -0.5023
 1305TIP3    H1 3854   1.434   6.588   0.220 -0.0576 -2.1248 -1.4557
 1305TIP3    H2 3855   1.291   6.618   0.261  0.7922  0.5326 -0.3563
 1306TIP3   OH2 3856   2.041   7.619   1.540 -0.3208 -0.6113  0.4434
 1306TIP3    H1 3857   2.088   7.649   1.462 -1.5264  0.6691  0.1810
 1306TIP3    H2 3858   2.105   7.568   1.589  0.2332 -2.0973 -1.7721
 1307TIP3   OH2 3859   1.008   5.465   0.928  0.2603 -1.0105 -0.5232
 1307TIP3    H1 3860   0.974   5.470   0.838  0.4271 -1.8917 -0.6451
 1307TIP3    H2 3861   0.957   5.395   0.968  0.7249 -1.1502 -0.1715
 1308TIP3   OH2 3862   0.341   6.119   1.121 -0.0273  0.0225  0.0941
 1308TIP3    H1 3863   0.359   6.210   1.099 -0.0277  0.5484  2.1351
 1308TIP3    H2 3864   0.246   6.115   1.132 -0.1850 -0.5582 -1.3127
 1309TIP3   OH2 3865   3.565   7.242   0.814 -0.0411 -0.0968  0.1025
 1309TIP3    H1 3866   3.503   7.315   0.811 -1.6964 -1.4551  0.5673
 1309TIP3    H2 3867   3.584   7.223   0.722 -1.2641 -0.4333 -0.0990
 1310TIP3   OH2 3868   1.418   6.157   2.999  0.4163  0.1595 -0.4047
 1310TIP3    H1 3869   1.439   6.152   3.092  1.0545 -0.5707 -0.5850
 1310TIP3    H2 3870   1.388   6.069   2.976 -0.1031  0.4398 -0.8012
 1311TIP3   OH2 3871   5.851   4.678   6.807  0.2028  0.0278 -0.6626
 1311TIP3    H1 3872   5.845   4.773   6.817  1.8328  0.0788 -0.0273
 1311TIP3    H2 3873   5.830   4.643   6.894 -1.6758 -0.2712 -1.2099
 1312TIP3   OH2 3874   0.298   2.632   1.908  0.4267  0.3291  0.0454
 1312TIP3    H1 3875   0.289   2.727   1.902  1.5441  0.4238 -0.0964
 1312TIP3    H2 3876   0.262   2.611   1.995 -0.1115  0.8340 -0.0475
 1313TIP3   OH2 3877   8.236   6.628   2.227  0.1443  0.6096  0.0866
 1313TIP3    H1 3878   8.278   6.584   2.153 -0.1189  0.4819  0.0137
 1313TIP3    H2 3879   8.180   6.562   2.266  1.3172  0.2734  1.2338
 1314TIP3   OH2 3880   6.556   0.282   6.649 -0.3082 -0.3489 -0.7889
 1314TIP3    H1 3881   6.553   0.213   6.715 -0.6410 -0.6351 -1.0989
 1314TIP3    H2 3882   6.648   0.291   6.626 -0.4130 -1.6913 -1.7929
 1315TIP3   OH2 3883   2.903   7.150   1.075 -0.6957 -0.2907 -0.3468
 1315TIP3    H1 3884   2.998   7.148   1.082 -0.7162  1.1118  0.6919
 1315TIP3    H2 3885   2.875   7.206   1.148 -2.3381 -1.0664 -0.3523
 1316TIP3   OH2 3886   2.746   7.096   3.792  0.3074 -0.1665 -0.3151
 1316TIP3    H1 3887   2.782   7.170   3.841 -1.0946  0.4057 -0.1425
 1316TIP3    H2 3888   2.737   7.027   3.858  1.2094 -0.3527 -0.3859
 1317TIP3   OH2 3889   1.439   7.128   0.690  0.3558  0.1768 -0.1255
 1317TIP3    H1 3890   1.442   7.041   0.730 -0.8480 -1.0240 -2.5892
 1317TIP3    H2 3891   1.356   7.165   0.720  0.7308  0.3906  0.6791
 1318TIP3   OH2 3892   1.761   6.144   1.443 -0.6709 -0.1039 -0.7550
 1318TIP3    H1 3893   1.739   6.237   1.446 -0.6985 -0.1312  0.0444
 1318TIP3    H2 3894   1.680   6.101   1.414 -1.2752 -0.0642  0.8087
 1319TIP3   OH2 3895   7.594   6.504   2.081 -0.4148  0.2790  0.1825
 1319TIP3    H1 3896   7.539   6.434   2.116 -0.8687 -0.1549 -1.3717
 1319TIP3    H2 3897   7.657   6.522   2.151 -1.7117 -0.0945  1.4902
 1320TIP3   OH2 3898   1.414   4.253   0.903 -0.1777 -0.4275 -0.2160
 1320TIP3    H1 3899   1.329   4.217   0.929 -0.4664  0.0004 -0.5485
 1320TIP3    H2 3900   1.402   4.348   0.908  0.4634 -0.3695  0.3011
 1321TIP3   OH2 3901   4.311   3.171   0.623 -0.0358  0.3121  0.5000
 1321TIP3    H1 3902   4.302   3.243   0.685  0.7657  1.0362 -0.2217
 1321TIP3    H2 3903   4.254   3.195   0.549 -0.2987 -0.1183  0.5611
 1322TIP3   OH2 3904   2.286   5.360   2.473 -0.9560 -0.1667  0.7559
 1322TIP3    H1 3905   2.197   5.369   2.509 -1.7274 -0.5093 -1.0034
 1322TIP3    H2 3906   2.342   5.408   2.534 -2.5294  1.1536  1.1802
 1323TIP3   OH2 3907   6.460   3.404   6.110  1.1265  0.1391 -0.1470
 1323TIP3    H1 3908   6.402   3.371   6.178 -1.6274  2.5998 -1.1832
 1323TIP3    H2 3909   6.516   3.330   6.087 -0.7638 -1.9462  1.7754
 1324TIP3   OH2 3910   5.338   0.444   5.752  0.1890 -0.0018 -0.0857
 1324TIP3    H1 3911   5.392   0.447   5.673  0.1192 -1.4951 -0.2061
 1324TIP3    H2 3912   5.268   0.382   5.732 -0.5972  0.6199  0.6787
 1325TIP3   OH2 3913   0.832   5.887   0.794 -0.1230 -0.3728 -0.7522
 1325TIP3    H1 3914   0.767   5.957   0.803 -0.9184 -1.0714 -1.0270
 1325TIP3    H2 3915   0.781   5.806   0.799  0.7899 -0.9350 -0.4559
 1326TIP3   OH2 3916   7.277   5.711   0.895 -0.5745 -0.1000 -0.6408
 1326TIP3    H1 3917   7.228   5.634   0.924  1.8651 -2.0666 -1.5273
 1326TIP3    H2 3918   7.274   5.706   0.800  2.0592 -0.7666 -0.7176
 1327TIP3   OH2 3919   1.698   2.058   0.628  0.6070  0.4448 -0.0154
 1327TIP3    H1 3920   1.762   2.084   0.561  1.8646 -2.3475  0.0162
 1327TIP3    H2 3921   1.636   2.002   0.580 -0.1708  0.8138  0.5606
 1328TIP3   OH2 3922   1.764   5.026   2.044 -0.0503 -0.3906 -0.5341
 1328TIP3    H1 3923   1.691   5.070   2.088 -1.2303  0.9447 -3.6962
 1328TIP3    H2 3924   1.728   4.942   2.017  0.2124 -0.5675 -0.3392
 1329TIP3   OH2 3925   8.410   6.130   2.620  0.0970 -0.4472  0.2879
 1329TIP3    H1 3926   8.416   6.117   2.525 -0.3491 -0.7820  0.3074
 1329TIP3    H2 3927   8.436   6.046   2.657  1.4519  0.0445  0.4895
 1330TIP3   OH2 3928   7.418   4.578   1.517  0.4426 -0.5021  0.5915
 1330TIP3    H1 3929   7.334   4.600   1.557  0.1307  1.2310 -0.9604
 1330TIP3    H2 3930   7.483   4.617   1.575 -0.0147  2.1778 -0.6399
 1331TIP3   OH2 3931   2.370   5.166   1.881  0.6535  0.7822  0.4653
 1331TIP3    H1 3932   2.404   5.119   1.804  1.1983  0.3484  0.9667
 1331TIP3    H2 3933   2.446   5.178   1.938  0.2886  1.2721  0.8552
 1332TIP3   OH2 3934   1.106   6.673   0.171 -0.2272  0.4912 -0.1933
 1332TIP3    H1 3935   1.082   6.710   0.086  0.3534  2.4260  0.4549
 1332TIP3    H2 3936   1.129   6.582   0.152  0.2198  0.9900 -2.1529
 1333TIP3   OH2 3937   0.459   3.359   2.027  0.3921 -0.2298 -0.0181
 1333TIP3    H1 3938   0.505   3.378   1.945 -1.0611 -0.5659 -0.9236
 1333TIP3    H2 3939   0.391   3.427   2.032  0.8578  0.1564  1.2174
 1334TIP3   OH2 3940   2.636   5.920   0.530  0.2387  0.1227  0.3101
 1334TIP3    H1 3941   2.552   5.940   0.571  0.1027  0.1743  0.0086
 1334TIP3    H2 3942   2.675   6.006   0.513 -0.5703  0.1750 -1.4559
 1335TIP3   OH2 3943   6.090   0.173   1.829 -0.0849 -0.8690  0.6128
 1335TIP3    H1 3944   6.053   0.210   1.909 -0.5698 -0.2171  0.0917
 1335TIP3    H2 3945   6.018   0.125   1.789  0.2789 -1.5718  0.7922
 1336TIP3   OH2 3946   7.801   3.892   6.689 -0.3921 -0.1464  0.1447
 1336TIP3    H1 3947   7.744   3.957   6.730 -0.5381 -0.6058  0.6756
 1336TIP3    H2 3948   7.744   3.817   6.672 -0.3498  0.0634 -0.9674
 1337TIP3   OH2 3949   0.304   4.505   1.553  0.0693  0.2280 -0.2897
 1337TIP3    H1 3950   0.263   4.470   1.632 -0.4922  0.3903 -0.5072
 1337TIP3    H2 3951   0.233   4.550   1.507  0.7925  1.7066  0.0167
 1338TIP3   OH2 3952   3.708   7.399   6.564 -0.0806 -0.4180  0.7302
 1338TIP3    H1 3953   3.782   7.455   6.589  0.7136 -1.3243  0.4626
 1338TIP3    H2 3954   3.729   7.314   6.603 -1.0910 -0.6240  0.8249
 1339TIP3   OH2 3955   7.689   4.225   1.386  0.0504 -0.1110 -0.6486
 1339TIP3    H1 3956   7.679   4.190   1.475 -1.8121  1.0315 -0.3666
 1339TIP3    H2 3957   7.775   4.195   1.358 -0.5003 -2.9028  0.4543
 1340TIP3   OH2 3958   4.204   6.987   1.593  0.3270  0.2455 -0.1400
 1340TIP3    H1 3959   4.184   7.066   1.643  0.5987  0.5024 -0.4331
 1340TIP3    H2 3960   4.166   6.916   1.645 -1.0132  0.6798 -0.4940
 1341TIP3   OH2 3961   0.765   7.592   1.066  0.1660  0.3415 -0.4139
 1341TIP3    H1 3962   0.794   7.547   1.146 -1.2484  0.0595 -0.0421
 1341TIP3    H2 3963   0.825   7.561   0.998  0.7913 -0.1498  0.3489
 1342TIP3   OH2 3964   0.684   7.415   2.462 -0.2630 -0.0127 -0.0388
 1342TIP3    H1 3965   0.758   7.407   2.522 -0.6409 -1.7038  0.2334
 1342TIP3    H2 3966   0.607   7.393   2.515 -0.8170  0.4389 -0.6441
 1343TIP3   OH2 3967   1.238   4.516   0.653  0.4418  0.4512 -0.2986
 1343TIP3    H1 3968   1.153   4.492   0.689  0.9927 -0.7162  0.2622
 1343TIP3    H2 3969   1.292   4.438   0.664  2.4473  2.0646  2.0334
 1344TIP3   OH2 3970   6.251   0.558   5.114 -0.3898  0.1364 -0.1456
 1344TIP3    H1 3971   6.342   0.528   5.120 -0.4832  0.0105  0.6670
 1344TIP3    H2 3972   6.245   0.629   5.178 -0.9020  0.0623 -0.1123
 1345TIP3   OH2 3973   1.389   6.427   0.791 -0.5956  0.5318 -0.4053
 1345TIP3    H1 3974   1.366   6.478   0.713 -0.2048 -3.4319 -3.3025
 1345TIP3    H2 3975   1.478   6.396   0.774 -1.2478 -2.0641  0.6233
 1346TIP3   OH2 3976   5.085   0.804   1.570  0.2302  0.6526 -0.3944
 1346TIP3    H1 3977   5.040   0.720   1.564  1.6798 -0.2567  0.9806
 1346TIP3    H2 3978   5.037   0.853   1.636 -0.7602  1.0197 -1.3670
 1347TIP3   OH2 3979   2.816   4.858   1.307  0.1984 -0.6353  0.1717
 1347TIP3    H1 3980   2.722   4.855   1.321  0.2431 -0.3809  0.5382
 1347TIP3    H2 3981   2.832   4.942   1.265  0.6143  0.7207  2.9167
 1348TIP3   OH2 3982   0.948   6.399   0.714 -0.3022 -0.2540  0.0904
 1348TIP3    H1 3983   0.913   6.377   0.628 -2.0509 -0.6943  0.9049
 1348TIP3    H2 3984   0.879   6.449   0.757  0.9019  0.7515  0.9112
 1349TIP3   OH2 3985   0.988   3.389   0.863  0.1062 -0.4020  0.3563
 1349TIP3    H1 3986   1.032   3.312   0.899 -0.7556 -1.1549 -0.1517
 1349TIP3    H2 3987   1.054   3.458   0.864  1.7345 -1.8545 -1.6474
 1350TIP3   OH2 3988   1.436   5.557   2.382 -0.3344  0.1498  0.3033
 1350TIP3    H1 3989   1.490   5.596   2.451  0.9848 -1.9161  0.4779
 1350TIP3    H2 3990   1.497   5.546   2.309 -0.9959 -0.4603 -0.1470
 1351TIP3   OH2 3991   3.010   5.779   0.400  0.2202  0.2171 -0.4647
 1351TIP3    H1 3992   3.038   5.861   0.441 -0.1422 -0.6769  1.6502
 1351TIP3    H2 3993   3.089   5.743   0.360  0.7678  0.7059  0.1742
 1352TIP3   OH2 3994   4.839   0.476   2.982  0.3235 -0.0074 -0.2184
 1352TIP3    H1 3995   4.846   0.530   3.061 -0.4513  0.0879 -0.2023
 1352TIP3    H2 3996   4.747   0.449   2.981  0.0504  0.9419 -1.7161
 1353TIP3   OH2 3997   2.232   5.174   1.234 -0.1295  0.7030 -0.2576
 1353TIP3    H1 3998   2.165   5.224   1.187  0.2823  1.7788  0.2882
 1353TIP3    H2 3999   2.310   5.230   1.233  0.3959  0.0013  0.2117
 1354TIP3   OH2 4000   8.368   5.779   0.953 -0.1576  0.2675 -0.0666
 1354TIP3    H1 4001   8.348   5.869   0.929 -0.2480  0.2509 -0.0558
 1354TIP3    H2 4002   8.371   5.732   0.870 -0.3836  0.2264 -0.0508
 1355TIP3   OH2 4003   0.637   4.548   3.888 -0.3634 -0.2777 -0.0139
 1355TIP3    H1 4004   0.570   4.573   3.824 -1.4563 -2.6116  0.1512
 1355TIP3    H2 4005   0.703   4.502   3.836 -0.2834 -0.4470  0.2365
 1356TIP3   OH2 4006   0.168   3.993   2.608 -0.0306  0.1281  0.0453
 1356TIP3    H1 4007   0.161   4.076   2.656 -0.9003  1.1419 -1.7562
 1356TIP3    H2 4008   0.241   4.007   2.547 -0.3095 -0.3529 -0.4032
 1357TIP3   OH2 4009   5.661   0.443   6.694  0.0494  0.2148  0.7054
 1357TIP3    H1 4010   5.726   0.428   6.763 -0.3351 -0.1567  0.9935
 1357TIP3    H2 4011   5.584   0.477   6.741 -0.8134 -1.6354  0.6984
 1358TIP3   OH2 4012   1.738   5.159   1.059  0.3374  0.0135  0.0372
 1358TIP3    H1 4013   1.823   5.167   1.102  0.3544  2.3672 -0.3967
 1358TIP3    H2 4014   1.702   5.076   1.093  2.5530 -0.7445  0.6167
 1359TIP3   OH2 4015   0.224   5.416   0.693  0.3211 -0.0938  0.0503
 1359TIP3    H1 4016   0.318   5.433   0.695  0.2558  0.6348 -2.2869
 1359TIP3    H2 4017   0.184   5.503   0.701 -0.1382 -0.2183 -0.9113
 1360TIP3   OH2 4018   1.376   3.920   2.329  0.6944 -0.1657 -0.3120
 1360TIP3    H1 4019   1.324   3.920   2.249 -0.3529 -0.8168  0.3680
 1360TIP3    H2 4020   1.368   4.009   2.363  1.1197  0.1036 -0.9191
 1361TIP3   OH2 4021   8.325   3.399   0.882  0.2543  0.0289 -0.0983
 1361TIP3    H1 4022   8.418   3.417   0.893  0.0505  2.1245 -1.4747
 1361TIP3    H2 4023   8.319   3.352   0.798  0.1275 -0.7926  0.3599
 1362TIP3   OH2 4024   0.577   4.413   2.072  0.7454  0.2035 -0.0074
 1362TIP3    H1 4025   0.570   4.390   2.164  1.7947 -0.8262 -0.1705
 1362TIP3    H2 4026   0.669   4.438   2.060  0.6566  0.1841 -0.7917
 1363TIP3   OH2 4027   1.611   6.626   0.870 -0.6362 -0.1058 -0.2823
 1363TIP3    H1 4028   1.704   6.648   0.869 -0.5278 -0.4393  1.4639
 1363TIP3    H2 4029   1.609   6.530   0.868 -0.9261 -0.1094  0.1354
 1364TIP3   OH2 4030   1.443   8.009   2.395 -0.6365 -0.2217 -0.2954
 1364TIP3    H1 4031   1.369   7.973   2.444  0.1487  0.3568  1.3395
 1364TIP3    H2 4032   1.513   7.945   2.407 -1.6958 -2.3214 -4.3489
 1365TIP3   OH2 4033   0.390   3.299   4.028  0.3755 -0.3135  0.2565
 1365TIP3    H1 4034   0.329   3.229   4.054 -1.1844  0.7105 -0.6274
 1365TIP3    H2 4035   0.397   3.355   4.106 -0.8118  0.2767 -0.0614
 1366TIP3   OH2 4036   0.861   6.122   0.489  0.2367 -0.0456  0.0482
 1366TIP3    H1 4037   0.861   6.049   0.428 -0.7051  0.6760 -0.8350
 1366TIP3    H2 4038   0.941   6.171   0.468 -1.0837  1.2963 -1.9624
 1367TIP3   OH2 4039   7.345   7.122   1.861 -0.3362  0.5499 -0.0830
 1367TIP3    H1 4040   7.342   7.130   1.957  2.0017 -1.5875  0.2011
 1367TIP3    H2 4041   7.261   7.082   1.839 -0.3543 -0.1891  1.2344
 1368TIP3   OH2 4042   2.592   7.365   1.532 -0.2407 -0.0531 -0.0153
 1368TIP3    H1 4043   2.680   7.343   1.563 -0.9243 -1.4946  0.9845
 1368TIP3    H2 4044   2.534   7.314   1.589 -1.7362  1.1739 -0.4218
 1369TIP3   OH2 4045   0.461   5.666   3.341 -0.5892 -0.0744  0.2156
 1369TIP3    H1 4046   0.440   5.736   3.403 -1.0615  0.6455 -0.7566
 1369TIP3    H2 4047   0.377   5.624   3.323 -0.7384  0.8645 -1.3255
 1370TIP3   OH2 4048   2.064   5.813   2.383 -0.2248 -0.1849 -0.0676
 1370TIP3    H1 4049   2.047   5.731   2.336 -1.0004  0.4347 -0.8814
 1370TIP3    H2 4050   1.989   5.824   2.441 -0.0458 -0.1204  0.1528
 1371TIP3   OH2 4051   5.538   0.437   1.732  0.1892  0.0373 -0.2698
 1371TIP3    H1 4052   5.507   0.446   1.822 -1.7237  0.0346 -0.9139
 1371TIP3    H2 4053   5.628   0.404   1.742  0.3603  0.9729  1.6440
 1372TIP3   OH2 4054   8.359   6.252   1.348 -0.5458  0.3011  0.0015
 1372TIP3    H1 4055   8.378   6.236   1.255 -0.3268  2.2095 -0.2900
 1372TIP3    H2 4056   8.305   6.331   1.349  0.4479  0.9777  1.5808
 1373TIP3   OH2 4057   0.470   5.614   0.533 -0.0757 -0.0466  0.3295
 1373TIP3    H1 4058   0.454   5.707   0.546 -1.1854  0.2384 -2.6490
 1373TIP3    H2 4059   0.420   5.592   0.455  1.9895 -2.6378 -0.3367
 1374TIP3   OH2 4060   0.458   6.389   0.430 -0.1941 -0.2348  0.4987
 1374TIP3    H1 4061   0.428   6.450   0.363  1.0865  0.5214  0.5882
 1374TIP3    H2 4062   0.496   6.445   0.498  1.0434 -1.1228  0.5643
 1375TIP3   OH2 4063   2.255   5.137   2.156 -0.1374 -0.0935 -0.3272
 1375TIP3    H1 4064   2.277   5.139   2.063  0.5293 -0.3316 -0.1767
 1375TIP3    H2 4065   2.305   5.064   2.191 -0.9424 -0.4537  0.0829
 1376TIP3   OH2 4066   5.914   5.597   6.730  0.4364 -0.1626  0.6973
 1376TIP3    H1 4067   5.887   5.557   6.813 -1.6915  0.0179  0.1249
 1376TIP3    H2 4068   5.832   5.619   6.686  1.5388 -0.3343 -1.5100
 1377TIP3   OH2 4069   0.417   4.280   4.719 -0.6135 -0.0019  0.2482
 1377TIP3    H1 4070   0.437   4.314   4.631 -2.0154 -2.0291 -0.9037
 1377TIP3    H2 4071   0.321   4.277   4.722 -0.5480 -3.0835  0.5568
 1378TIP3   OH2 4072   0.650   5.934   3.436 -0.6846 -0.6242 -0.1565
 1378TIP3    H1 4073   0.560   5.945   3.405 -0.2442 -0.4564 -1.4261
 1378TIP3    H2 4074   0.691   5.878   3.369  0.4532  0.1912 -0.1505
 1379TIP3   OH2 4075   1.364   5.112   1.196 -0.4729 -0.1186  0.4119
 1379TIP3    H1 4076   1.384   5.199   1.230 -1.0980  0.2664 -0.2037
 1379TIP3    H2 4077   1.443   5.061   1.214  0.4807  0.9794 -0.6253
 1380TIP3   OH2 4078   1.647   4.877   1.471 -0.1249 -0.3149  0.2956
 1380TIP3    H1 4079   1.678   4.867   1.562 -1.4157 -0.9879  0.6604
 1380TIP3    H2 4080   1.553   4.888   1.479 -0.1344  0.5491 -0.9170
 1381TIP3   OH2 4081   8.157   4.719   2.635 -0.3597 -0.3436  0.7203
 1381TIP3    H1 4082   8.138   4.635   2.677 -2.4313 -1.4553 -2.2614
 1381TIP3    H2 4083   8.102   4.719   2.557  0.2075  3.4757  0.2517
 1382TIP3   OH2 4084   1.442   5.828   1.900  0.0147  0.7441 -0.0337
 1382TIP3    H1 4085   1.487   5.911   1.919  0.2447  0.9307 -1.3546
 1382TIP3    H2 4086   1.379   5.818   1.972 -0.1768  2.1807  0.0218
 1383TIP3   OH2 4087   7.783   5.231   2.229 -0.2374 -0.1377  0.2376
 1383TIP3    H1 4088   7.691   5.216   2.207 -0.8462  0.2417  2.4701
 1383TIP3    H2 4089   7.803   5.317   2.193 -1.1640  0.3876  0.9664
 1384TIP3   OH2 4090   1.497   5.139   2.075 -0.3962 -0.0165 -0.3218
 1384TIP3    H1 4091   1.427   5.202   2.062 -0.2271 -0.1004 -1.7541
 1384TIP3    H2 4092   1.476   5.096   2.158 -0.5886  1.8014  0.5833
 1385TIP3   OH2 4093   0.233   5.603   3.979  0.2267 -1.1182 -1.1427
 1385TIP3    H1 4094   0.232   5.602   3.884 -1.2575 -0.4175 -1.1588
 1385TIP3    H2 4095   0.146   5.634   4.003  1.8118  2.4988  0.3657
 1386TIP3   OH2 4096   2.053   3.643   2.288  0.0928  0.1660  0.3243
 1386TIP3    H1 4097   2.070   3.549   2.295  1.1064  0.4190  1.5967
 1386TIP3    H2 4098   1.988   3.661   2.357 -0.0408  0.4100  0.1370
 1387TIP3   OH2 4099   0.855   4.521   1.053  0.0916 -0.0582  0.1790
 1387TIP3    H1 4100   0.876   4.456   1.120 -1.3698 -1.4990 -0.7167
 1387TIP3    H2 4101   0.800   4.473   0.990  1.4392  1.2321 -2.0491
 1388TIP3   OH2 4102   4.282   0.555   1.404  0.2840  0.5365 -0.4146
 1388TIP3    H1 4103   4.249   0.640   1.374 -1.1651 -0.4254 -1.5900
 1388TIP3    H2 4104   4.374   0.555   1.377 -0.6716  0.1889 -3.9062
 1389TIP3   OH2 4105   1.180   5.517   1.422 -0.2245 -0.4307 -0.2650
 1389TIP3    H1 4106   1.254   5.521   1.362 -0.4295  0.0527 -0.4835
 1389TIP3    H2 4107   1.135   5.601   1.412 -1.5333 -1.2063 -1.0780
 1390TIP3   OH2 4108   1.107   7.572   1.351  0.5596 -0.2009  0.0705
 1390TIP3    H1 4109   1.065   7.656   1.371  1.1712  0.3640 -0.9778
 1390TIP3    H2 4110   1.194   7.579   1.390 -0.1566 -1.2436  1.9536
 1391TIP3   OH2 4111   7.443   0.648   4.699 -0.0669  0.0277 -0.0798
 1391TIP3    H1 4112   7.401   0.577   4.747  1.8993 -1.2992 -0.2745
 1391TIP3    H2 4113   7.410   0.639   4.610  0.8801 -1.2507 -0.3184
 1392TIP3   OH2 4114   8.510   0.745   6.705 -0.6758 -0.0870  0.1222
 1392TIP3    H1 4115   8.535   0.779   6.790 -0.1322 -1.0268  0.3507
 1392TIP3    H2 4116   8.416   0.763   6.698 -0.7930 -0.3048  1.0636
 1393TIP3   OH2 4117   1.760   5.134   1.419  0.4805  0.1885 -0.4987
 1393TIP3    H1 4118   1.717   5.049   1.409 -1.9725  1.2742  0.5198
 1393TIP3    H2 4119   1.823   5.138   1.347  1.1805 -2.8010 -0.1149
 1394TIP3   OH2 4120   4.084   0.611   2.107 -0.0117 -0.2685  0.0050
 1394TIP3    H1 4121   4.064   0.682   2.047  0.8641 -1.1488 -1.3593
 1394TIP3    H2 4122   3.998   0.578   2.135 -0.4165  0.5585 -0.2447
 1395TIP3   OH2 4123   6.442   0.541   6.305  0.3185  0.4903  0.8726
 1395TIP3    H1 4124   6.473   0.631   6.295  2.7616 -0.4587 -0.7043
 1395TIP3    H2 4125   6.466   0.518   6.395 -0.0364  1.3097  1.1805
 1396TIP3   OH2 4126   2.317   3.441   0.638  0.2491  0.1299  0.4128
 1396TIP3    H1 4127   2.328   3.348   0.658  0.3624  0.0261 -0.1185
 1396TIP3    H2 4128   2.367   3.486   0.706 -0.5975 -0.1644  1.2440
 1397TIP3   OH2 4129   5.949   3.395   6.139 -0.0995 -0.3327 -0.0221
 1397TIP3    H1 4130   5.932   3.487   6.160  0.1845 -0.4801  0.8738
 1397TIP3    H2 4131   5.978   3.397   6.048  1.2437  0.6267  0.4093
 1398TIP3   OH2 4132   7.870   5.365   0.554 -0.6552  0.1762  0.5852
 1398TIP3    H1 4133   7.834   5.367   0.643  1.9139 -0.7793  1.6852
 1398TIP3    H2 4134   7.923   5.286   0.551 -0.9727 -0.0047 -1.9462
 1399TIP3   OH2 4135   2.254   5.116   0.468  0.1983 -0.2071 -0.2403
 1399TIP3    H1 4136   2.277   5.200   0.427 -2.0326 -0.5506 -2.2641
 1399TIP3    H2 4137   2.279   5.050   0.403 -2.1807 -0.8399 -0.5375
 1400TIP3   OH2 4138   2.564   4.992   1.280 -0.0866 -0.5218  0.3842
 1400TIP3    H1 4139   2.531   4.956   1.198 -2.5264  0.4827  0.8533
 1400TIP3    H2 4140   2.573   5.086   1.264 -1.1854 -0.2208  1.4224
 1401TIP3   OH2 4141   7.139   0.634   6.160  0.2645  0.1044 -0.4099
 1401TIP3    H1 4142   7.149   0.572   6.232 -1.8334  0.4713  0.2338
 1401TIP3    H2 4143   7.158   0.583   6.082 -0.4264 -1.0985  0.1959
 1402TIP3   OH2 4144   7.139   0.701   6.480  0.5735  0.1279 -0.2763
 1402TIP3    H1 4145   7.168   0.698   6.571  1.6248  0.1517 -0.5925
 1402TIP3    H2 4146   7.051   0.665   6.481  1.2240 -1.4722  0.5070
 1403TIP3   OH2 4147   2.346   4.216   0.069  0.6587 -0.2096 -0.4094
 1403TIP3    H1 4148   2.394   4.135   0.086  1.6128 -0.1168 -2.4959
 1403TIP3    H2 4149   2.409   4.273   0.025 -1.2349  0.0187 -2.9596
 1404TIP3   OH2 4150   2.482   7.067   0.789 -0.0146  0.5117 -0.2429
 1404TIP3    H1 4151   2.504   7.151   0.829  0.2022 -0.6975  2.3488
 1404TIP3    H2 4152   2.564   7.037   0.750  0.3236  0.7690  0.2558
 1405TIP3   OH2 4153   7.217   7.616   1.670  0.3748  0.1996  0.4386
 1405TIP3    H1 4154   7.188   7.698   1.710 -0.0603  0.1051  0.3170
 1405TIP3    H2 4155   7.139   7.581   1.627  0.9499  0.5338 -0.9049
 1406TIP3   OH2 4156   8.138   6.482   3.380  0.2823 -0.0171 -0.9197
 1406TIP3    H1 4157   8.044   6.488   3.364  0.4171 -0.7978 -2.0309
 1406TIP3    H2 4158   8.171   6.571   3.368 -0.4416  0.4253  0.3250
 1407TIP3   OH2 4159   1.349   2.966   3.030 -0.4558  0.3082  0.3011
 1407TIP3    H1 4160   1.342   2.912   2.951  2.9335  1.9913 -1.2095
 1407TIP3    H2 4161   1.304   3.047   3.008 -2.1204 -0.3101  1.2302
 1408TIP3   OH2 4162   0.272   5.715   1.747  0.0656 -0.0372 -0.1440
 1408TIP3    H1 4163   0.336   5.656   1.707  1.0829  0.6899  0.3805
 1408TIP3    H2 4164   0.268   5.789   1.687 -0.4050 -0.1567 -0.2572
 1409TIP3   OH2 4165   0.027   5.616   1.356  0.1598 -0.0829 -0.1699
 1409TIP3    H1 4166  -0.020   5.626   1.274 -0.6131  0.1356  0.2946
 1409TIP3    H2 4167   0.090   5.688   1.357  0.2626 -0.1658 -0.6267
 1410TIP3   OH2 4168   3.160   4.056   0.497 -0.2027 -0.2486  0.2671
 1410TIP3    H1 4169   3.090   4.020   0.442 -2.0098  3.6674 -0.1372
 1410TIP3    H2 4170   3.131   4.039   0.587 -2.2892  2.2947  0.1268
 1411TIP3   OH2 4171   1.423   3.282   1.219  0.1616 -0.1465  0.0186
 1411TIP3    H1 4172   1.454   3.364   1.258  1.5799 -0.7738  0.2342
 1411TIP3    H2 4173   1.450   3.287   1.128  0.8109 -0.6528  0.1827
 1412TIP3   OH2 4174   2.686   4.012   2.421  0.5311 -0.0837 -0.1972
 1412TIP3    H1 4175   2.706   3.919   2.412  0.9304 -0.0970  0.7739
 1412TIP3    H2 4176   2.611   4.015   2.481 -0.3400  0.1558 -1.2698
 1413TIP3   OH2 4177   7.160   1.509   6.796 -0.1659 -0.0799  0.0370
 1413TIP3    H1 4178   7.102   1.483   6.867  0.1026 -2.8910 -0.6894
 1413TIP3    H2 4179   7.170   1.429   6.743  3.3713  0.6371 -0.5267
 1414TIP3   OH2 4180   2.367   6.700   4.467  0.6018  0.3671  0.0566
 1414TIP3    H1 4181   2.305   6.759   4.510  0.8356 -0.2168  1.2130
 1414TIP3    H2 4182   2.432   6.681   4.534  1.4817  0.1642 -0.8378
 1415TIP3   OH2 4183   4.315   0.168   1.066 -0.1919 -0.3397 -0.2952
 1415TIP3    H1 4184   4.346   0.081   1.040  0.3743 -0.4883  0.8388
 1415TIP3    H2 4185   4.393   0.211   1.101 -0.4943  0.5967 -0.7545
 1416TIP3   OH2 4186   2.283   6.353   3.197 -0.7227  0.3503  0.1024
 1416TIP3    H1 4187   2.342   6.392   3.132  1.3864  1.6456  2.7038
 1416TIP3    H2 4188   2.211   6.318   3.146  1.7675 -0.3194 -3.1245
 1417TIP3   OH2 4189   0.691   4.788   2.240 -0.2380  0.3148  0.2768
 1417TIP3    H1 4190   0.774   4.749   2.267 -0.8571 -1.3479 -0.1240
 1417TIP3    H2 4191   0.706   4.815   2.149  0.4520  1.7738  0.8225
 1418TIP3   OH2 4192   8.448   5.359   1.283  0.3611  0.0874 -0.9842
 1418TIP3    H1 4193   8.504   5.335   1.209  1.7994  0.7861 -0.1501
 1418TIP3    H2 4194   8.463   5.453   1.294  0.7481 -0.1623  0.6791
 1419TIP3   OH2 4195   2.589   7.241   1.773  0.4208 -0.5357 -0.1546
 1419TIP3    H1 4196   2.666   7.261   1.826 -1.5956 -0.5963  2.9334
 1419TIP3    H2 4197   2.516   7.246   1.835 -1.9984 -0.9420 -2.9012
 1420TIP3   OH2 4198   6.523   1.431   6.250 -0.0733 -0.1225 -0.0543
 1420TIP3    H1 4199   6.593   1.407   6.311  1.1502  1.2382 -0.9024
 1420TIP3    H2 4200   6.545   1.520   6.222 -1.3335 -0.2522 -1.4952
 1421TIP3   OH2 4201   2.112   4.271   2.086  0.1323 -0.0502  0.2260
 1421TIP3    H1 4202   2.058   4.257   2.008  2.3031 -0.0579 -1.3091
 1421TIP3    H2 4203   2.122   4.366   2.091  0.8007 -0.1056 -0.0671
 1422TIP3   OH2 4204   1.366   4.494   0.354  0.1493  0.2876 -0.6029
 1422TIP3    H1 4205   1.402   4.490   0.443 -1.5301  1.8493  0.1856
 1422TIP3    H2 4206   1.408   4.422   0.308 -0.2052 -1.6178  1.9398
 1423TIP3   OH2 4207   1.407   4.178   2.460 -0.0909  0.0895 -0.3273
 1423TIP3    H1 4208   1.463   4.146   2.532 -0.5772  0.9037  0.4201
 1423TIP3    H2 4209   1.436   4.268   2.446  0.3772 -0.2492 -1.5390
 1424TIP3   OH2 4210   3.703   7.158   6.677 -0.4915  0.2040  0.1589
 1424TIP3    H1 4211   3.729   7.120   6.760  0.1383 -2.6001 -1.2427
 1424TIP3    H2 4212   3.608   7.147   6.675 -0.4811  0.0563  0.4281
 1425TIP3   OH2 4213   1.501   3.848   1.267  0.3394  0.1210 -0.2316
 1425TIP3    H1 4214   1.406   3.839   1.266  0.2833  0.6618 -0.1623
 1425TIP3    H2 4215   1.516   3.941   1.284  0.8855 -0.0897  0.4613
 1426TIP3   OH2 4216   2.205   2.582   1.168  0.7877  0.0622 -0.6051
 1426TIP3    H1 4217   2.171   2.521   1.102  0.9574 -1.2386  0.4872
 1426TIP3    H2 4218   2.128   2.608   1.219  0.6947  0.8855 -1.1485
 1427TIP3   OH2 4219   7.759   0.479   6.203  0.1042  0.2145 -0.3540
 1427TIP3    H1 4220   7.819   0.549   6.227  0.2055 -0.1735  0.5687
 1427TIP3    H2 4221   7.686   0.523   6.160  0.8774  0.7248 -1.1455
 1428TIP3   OH2 4222   8.003   3.296   1.526 -0.5059  0.6498  0.0627
 1428TIP3    H1 4223   8.047   3.288   1.441 -0.2578 -0.1104  0.2640
 1428TIP3    H2 4224   7.984   3.206   1.552 -3.2444  1.0202 -0.5601
 1429TIP3   OH2 4225   1.506   4.124   1.521  0.1415 -0.4786  0.0017
 1429TIP3    H1 4226   1.534   4.109   1.431 -0.3037 -1.4247  0.0178
 1429TIP3    H2 4227   1.497   4.036   1.558 -1.1006 -0.1287  0.5322
 1430TIP3   OH2 4228   4.434   0.284   1.727 -0.4448  0.5914  0.2115
 1430TIP3    H1 4229   4.345   0.258   1.752 -0.5114 -0.4643 -1.1231
 1430TIP3    H2 4230   4.422   0.346   1.655 -0.1554  1.9394  1.2955
 1431TIP3   OH2 4231   8.269   3.059   6.965 -0.0230 -0.3050 -0.4424
 1431TIP3    H1 4232   8.242   3.017   6.883  0.4594  0.3781 -0.9575
 1431TIP3    H2 4233   8.365   3.058   6.962  0.0120 -1.6484  0.8283
 1432TIP3   OH2 4234   4.221   7.862   6.523  0.4063  0.3091 -0.3069
 1432TIP3    H1 4235   4.241   7.821   6.439 -1.5582 -0.7677 -0.2819
 1432TIP3    H2 4236   4.262   7.804   6.588  0.7555  0.3990 -0.4435
 1433TIP3   OH2 4237   1.943   6.513   1.286  0.0680  0.1313 -0.4856
 1433TIP3    H1 4238   2.013   6.460   1.323  1.4431  1.1883 -1.4800
 1433TIP3    H2 4239   1.937   6.485   1.195 -1.0357 -0.1691 -0.3319
 1434TIP3   OH2 4240   3.529   5.004   0.142  0.0546  0.0818  0.2190
 1434TIP3    H1 4241   3.481   4.953   0.076 -1.0462  0.5350  0.6544
 1434TIP3    H2 4242   3.612   5.026   0.099  0.2376 -1.4434 -0.2341
 1435TIP3   OH2 4243   2.650   6.238   1.525  0.0204  0.3889 -0.1194
 1435TIP3    H1 4244   2.568   6.190   1.529  0.4633 -0.4875 -1.0377
 1435TIP3    H2 4245   2.715   6.172   1.501  0.9543  1.1078  0.3851
 1436TIP3   OH2 4246   5.511   7.275   5.659  0.1273  0.3332  0.2138
 1436TIP3    H1 4247   5.604   7.260   5.640 -0.0797 -0.1219 -0.4560
 1436TIP3    H2 4248   5.474   7.304   5.575 -0.1288  1.5039  0.7226
 1437TIP3   OH2 4249   2.585   4.412   1.184  0.1370  0.0798  0.1482
 1437TIP3    H1 4250   2.668   4.411   1.135  1.1537 -0.5074  1.8663
 1437TIP3    H2 4251   2.519   4.388   1.119  1.4929 -0.8353 -0.9186
 1438TIP3   OH2 4252   1.808   5.482   1.244 -0.4343 -0.3249  0.2323
 1438TIP3    H1 4253   1.761   5.480   1.327 -0.8536 -1.0538 -0.0239
 1438TIP3    H2 4254   1.787   5.568   1.206  1.4053  0.8669  1.8259
 1439TIP3   OH2 4255   1.181   5.987   0.134 -0.6873  0.1663 -0.1486
 1439TIP3    H1 4256   1.249   6.051   0.114  0.4282 -1.1584 -0.6564
 1439TIP3    H2 4257   1.114   6.001   0.067 -0.2656  0.5265 -0.4930
 1440TIP3   OH2 4258   8.303   2.221   6.238 -0.0582  0.0627  0.6258
 1440TIP3    H1 4259   8.303   2.151   6.304  3.3635  0.7076  1.3970
 1440TIP3    H2 4260   8.384   2.207   6.189 -1.0759  1.4216 -1.5284
 1441TIP3   OH2 4261   2.226   2.976   1.571  0.0327 -0.2915  0.2034
 1441TIP3    H1 4262   2.313   2.944   1.597  0.4620  1.2128  0.6497
 1441TIP3    H2 4263   2.219   2.952   1.479  1.3941  0.5734 -0.1430
 1442TIP3   OH2 4264   3.970   7.787   6.292 -0.3074  0.1661  0.7612
 1442TIP3    H1 4265   3.913   7.863   6.277 -1.1746 -0.3598  1.3593
 1442TIP3    H2 4266   3.937   7.748   6.373 -1.4602 -2.2496 -0.7931
 1443TIP3   OH2 4267   1.372   1.939   6.739 -0.2221 -0.3375  0.4864
 1443TIP3    H1 4268   1.449   1.971   6.786  0.1938 -0.3650 -0.1751
 1443TIP3    H2 4269   1.314   1.906   6.808  0.3005 -0.1971  0.9960
 1444TIP3   OH2 4270   2.270   2.895   0.174  0.6318 -0.2971 -0.2243
 1444TIP3    H1 4271   2.347   2.882   0.119  0.0042 -2.2364 -0.6780
 1444TIP3    H2 4272   2.216   2.817   0.160 -1.8680  1.4094 -0.6354
 1445TIP3   OH2 4273   5.447   3.013   6.831  0.5906 -0.2438  0.4209
 1445TIP3    H1 4274   5.541   3.026   6.820  0.8777 -2.3705  0.0842
 1445TIP3    H2 4275   5.435   3.003   6.925  0.5197  1.1930  0.5749
 1446TIP3   OH2 4276   4.821   2.332   0.967  0.0834 -0.1476 -0.2525
 1446TIP3    H1 4277   4.910   2.339   1.001 -0.6683  1.0292  1.5759
 1446TIP3    H2 4278   4.824   2.377   0.883  0.9004  1.1053  0.4320
 1447TIP3   OH2 4279   7.247   1.870   5.533  0.2856  0.0521  0.3310
 1447TIP3    H1 4280   7.213   1.919   5.608 -0.9665 -0.0487 -0.1598
 1447TIP3    H2 4281   7.176   1.812   5.507  0.9605 -0.4327 -0.4954
 1448TIP3   OH2 4282   7.639   0.696   6.716  0.1570 -0.0316 -0.0657
 1448TIP3    H1 4283   7.730   0.682   6.690 -0.1122 -0.3743 -0.8327
 1448TIP3    H2 4284   7.642   0.774   6.770  1.0257 -0.4965  0.5738
 1449TIP3   OH2 4285   0.488   6.723   2.403  0.1160 -0.0731  0.2843
 1449TIP3    H1 4286   0.432   6.739   2.479 -0.8289 -2.3813  0.1310
 1449TIP3    H2 4287   0.564   6.677   2.438  0.0812 -0.3786 -0.0320
 1450TIP3   OH2 4288   8.348   6.695   6.728 -0.2858  0.9974  0.4646
 1450TIP3    H1 4289   8.430   6.656   6.760 -0.4817  0.9029  0.8594
 1450TIP3    H2 4290   8.373   6.783   6.701 -0.1692  1.1942  1.1793
 1451TIP3   OH2 4291   2.135   5.089   0.709  0.6120  0.4304  0.0182
 1451TIP3    H1 4292   2.063   5.070   0.649 -0.0625  1.2736  0.5267
 1451TIP3    H2 4293   2.205   5.124   0.654  0.2665  0.5239 -0.3625
 1452TIP3   OH2 4294   2.824   4.440   2.603  0.1196  0.0021 -0.1865
 1452TIP3    H1 4295   2.767   4.472   2.533  0.7068 -0.8127 -1.0456
 1452TIP3    H2 4296   2.777   4.463   2.683 -0.3255  1.3896 -0.8204
 1453TIP3   OH2 4297   2.363   6.745   1.235 -0.0046  0.6517  0.8964
 1453TIP3    H1 4298   2.440   6.802   1.231  0.2689  0.2152 -0.1709
 1453TIP3    H2 4299   2.289   6.806   1.239  0.2270  1.1316 -1.3494
 1454TIP3   OH2 4300   3.413   6.815   0.132  0.3238  0.1463  0.2255
 1454TIP3    H1 4301   3.375   6.894   0.170  0.5207 -0.0808  0.8952
 1454TIP3    H2 4302   3.415   6.752   0.203  1.0661 -0.1514 -0.0464
 1455TIP3   OH2 4303   2.937   5.568   0.550 -0.3276 -0.2154  0.4012
 1455TIP3    H1 4304   2.843   5.564   0.566  0.0143  0.9596  2.8864
 1455TIP3    H2 4305   2.951   5.652   0.508 -0.4087 -0.5134 -0.2300
 1456TIP3   OH2 4306   0.264   2.127   5.836 -0.0006  0.3079  0.2202
 1456TIP3    H1 4307   0.289   2.211   5.874  1.2629 -0.3307  0.8558
 1456TIP3    H2 4308   0.268   2.066   5.910  1.0705 -0.6804 -0.6186
 1457TIP3   OH2 4309   5.126   6.751   5.759  0.4394 -0.2056 -0.3168
 1457TIP3    H1 4310   5.166   6.670   5.729  1.5574 -0.1713  1.0522
 1457TIP3    H2 4311   5.039   6.724   5.791 -0.8839 -0.1953 -3.7356
 1458TIP3   OH2 4312   3.962   5.219   0.057  0.3467 -0.3345 -0.1853
 1458TIP3    H1 4313   3.916   5.141   0.027  1.1937 -0.9097 -0.0345
 1458TIP3    H2 4314   3.951   5.218   0.152  2.4867 -1.6971  0.0931
 1459TIP3   OH2 4315   2.733   3.795   0.528  0.2792 -0.1478  0.5544
 1459TIP3    H1 4316   2.654   3.848   0.539 -0.1026 -1.1297  2.7972
 1459TIP3    H2 4317   2.756   3.805   0.436 -1.3410  1.7140  0.3130
 1460TIP3   OH2 4318   5.571   7.999   4.681 -0.1575  0.5783 -1.2947
 1460TIP3    H1 4319   5.631   7.924   4.683  0.7314  1.2927 -0.1546
 1460TIP3    H2 4320   5.499   7.974   4.738  0.1041  0.5730 -0.9678
 1461TIP3   OH2 4321   1.635   0.902   6.479  0.5604 -0.0708 -0.2346
 1461TIP3    H1 4322   1.572   0.974   6.485 -0.3604 -0.5805 -2.9794
 1461TIP3    H2 4323   1.605   0.838   6.543 -1.6598 -0.2177 -1.3633
 1462TIP3   OH2 4324   0.257   3.962   1.172  0.0373 -0.1510 -0.1807
 1462TIP3    H1 4325   0.164   3.984   1.168  0.4605  2.2427  1.9126
 1462TIP3    H2 4326   0.301   4.036   1.129  0.9750 -1.1820 -1.0094
 1463TIP3   OH2 4327   7.925   2.166   3.347  0.2355 -0.0508 -0.3479
 1463TIP3    H1 4328   7.906   2.115   3.426 -1.5879 -0.2822 -0.8954
 1463TIP3    H2 4329   8.003   2.125   3.311  0.5229 -0.5685  0.8153
 1464TIP3   OH2 4330   1.568   5.281   1.271  0.0294  0.1547  0.2394
 1464TIP3    H1 4331   1.626   5.244   1.338 -1.5819 -2.2716  0.3381
 1464TIP3    H2 4332   1.612   5.264   1.188  0.5478  0.3767  0.4692
 1465TIP3   OH2 4333   3.156   5.182   0.785  0.9176  0.1081  0.0232
 1465TIP3    H1 4334   3.112   5.260   0.750  0.4954  0.0283  0.3756
 1465TIP3    H2 4335   3.235   5.173   0.731  0.4480  0.1879 -0.6825
 1466TIP3   OH2 4336   2.156   5.188   3.147  0.1273 -0.3509  0.0520
 1466TIP3    H1 4337   2.066   5.223   3.142 -0.1552 -0.9636  0.7250
 1466TIP3    H2 4338   2.209   5.254   3.103 -0.5552  0.4082  0.3332
 1467TIP3   OH2 4339   4.188   6.774   0.372  0.9347 -0.5228 -0.4843
 1467TIP3    H1 4340   4.232   6.764   0.456  2.3341  1.7139 -0.9230
 1467TIP3    H2 4341   4.244   6.727   0.310  2.8848  2.4412 -1.0663
 1468TIP3   OH2 4342   7.488   1.808   6.708 -0.7562  0.2032  1.2262
 1468TIP3    H1 4343   7.415   1.785   6.765 -0.0967 -0.3496  1.8735
 1468TIP3    H2 4344   7.516   1.724   6.671 -0.9425  0.5134  0.3898
 1469TIP3   OH2 4345   1.730   1.692   6.015 -0.1180  1.5406 -0.1529
 1469TIP3    H1 4346   1.737   1.756   6.086 -1.3603  0.1007  1.2929
 1469TIP3    H2 4347   1.675   1.622   6.050  0.6827 -0.0371 -1.9260
 1470TIP3   OH2 4348   7.631   0.149   5.668 -0.4928 -0.4384  0.2119
 1470TIP3    H1 4349   7.709   0.095   5.684 -0.7646 -0.7998  0.3294
 1470TIP3    H2 4350   7.582   0.144   5.750 -1.3862 -1.4476 -0.3768
 1471TIP3   OH2 4351   3.453   5.483   1.257 -0.7510  0.2262  0.0237
 1471TIP3    H1 4352   3.506   5.559   1.282  2.3804 -2.1029  0.7049
 1471TIP3    H2 4353   3.422   5.448   1.341  2.3733 -2.3840  0.1689
 1472TIP3   OH2 4354   2.136   6.336   1.435 -0.4947  0.3884 -0.0568
 1472TIP3    H1 4355   2.184   6.366   1.357  0.3321 -0.2064  0.2131
 1472TIP3    H2 4356   2.165   6.394   1.505  0.1358 -0.2248  0.1921
 1473TIP3   OH2 4357   4.549   6.127   0.245  0.1663 -0.0839 -0.5496
 1473TIP3    H1 4358   4.501   6.065   0.300  1.4387  0.8686  1.6729
 1473TIP3    H2 4359   4.574   6.075   0.168  1.6101 -2.4848  1.4789
 1474TIP3   OH2 4360   3.111   6.107   1.311  0.1335 -0.3309 -0.4002
 1474TIP3    H1 4361   3.100   6.197   1.280  0.3725  0.1632  0.9060
 1474TIP3    H2 4362   3.157   6.062   1.240  3.1918  1.4930  0.3230
 1475TIP3   OH2 4363   4.966   7.656   6.139  0.2386 -0.8547  0.2122
 1475TIP3    H1 4364   4.944   7.573   6.180 -1.0937 -0.2944  0.6463
 1475TIP3    H2 4365   4.893   7.676   6.082  0.4502  0.1215  0.2672
 1476TIP3   OH2 4366   3.398   5.150   0.373  0.7173 -0.3100  0.5375
 1476TIP3    H1 4367   3.431   5.065   0.343  0.2442 -0.7370  1.2191
 1476TIP3    H2 4368   3.308   5.153   0.342  1.0746  0.4453 -0.4786
 1477TIP3   OH2 4369   2.212   6.139   0.856 -0.0403  0.0943 -0.1939
 1477TIP3    H1 4370   2.256   6.222   0.839 -0.9718  0.8210  0.8353
 1477TIP3    H2 4371   2.283   6.074   0.860  0.7350  0.9148 -0.5075
 1478TIP3   OH2 4372   5.169   4.900   0.111  0.0492  0.3559  0.1300
 1478TIP3    H1 4373   5.215   4.848   0.177  1.2678  0.1585 -0.8587
 1478TIP3    H2 4374   5.143   4.980   0.157 -0.1090 -0.2671  1.1434
 1479TIP3   OH2 4375   0.949   0.860   6.431  0.0702  0.2502  0.0166
 1479TIP3    H1 4376   0.981   0.913   6.359 -0.0846 -0.3877 -0.5249
 1479TIP3    H2 4377   0.866   0.823   6.400 -0.2460  0.3692  0.6987
 1480TIP3   OH2 4378   3.347   7.216   2.042  0.7233  0.5527 -0.1855
 1480TIP3    H1 4379   3.266   7.197   2.089  1.1067 -0.3890  0.1154
 1480TIP3    H2 4380   3.320   7.232   1.952  0.1393  0.8578  0.0434
 1481TIP3   OH2 4381   0.648   7.408   6.761  0.5423 -0.0788  0.2613
 1481TIP3    H1 4382   0.584   7.337   6.752  0.6560 -0.2075  0.4624
 1481TIP3    H2 4383   0.624   7.471   6.694 -0.1813  0.1618  0.7427
 1482TIP3   OH2 4384   2.517   6.513   1.002 -0.2581  0.3139  0.5862
 1482TIP3    H1 4385   2.425   6.539   0.996  0.0759  1.3647  0.0246
 1482TIP3    H2 4386   2.566   6.595   1.004  0.8549 -0.2202 -2.4074
 1483TIP3   OH2 4387   4.923   7.818   5.525  0.7179  0.5514 -0.0170
 1483TIP3    H1 4388   4.876   7.900   5.507  0.9825  1.1186  1.8090
 1483TIP3    H2 4389   4.872   7.751   5.479 -0.2020  1.5649 -0.4956
 1484TIP3   OH2 4390   3.255   3.855   1.527 -0.1560  0.2830  0.0132
 1484TIP3    H1 4391   3.160   3.847   1.538 -0.3602  1.2721 -0.8979
 1484TIP3    H2 4392   3.272   3.814   1.442  0.2561 -0.0891  0.2803
 1485TIP3   OH2 4393   5.504   6.851   0.221  0.3951  0.1518 -0.6146
 1485TIP3    H1 4394   5.565   6.915   0.258  0.1866 -0.3731  0.6759
 1485TIP3    H2 4395   5.534   6.767   0.256 -1.5716 -0.0161  0.7347
 1486TIP3   OH2 4396   1.051   0.095   6.060  0.3870 -0.1887  0.0396
 1486TIP3    H1 4397   1.100   0.018   6.032  1.0369  0.0824  0.4281
 1486TIP3    H2 4398   0.980   0.102   5.997  0.5605 -0.8707 -0.2383
 1487TIP3   OH2 4399   6.220   0.173   1.124 -0.1940  0.6014 -0.5676
 1487TIP3    H1 4400   6.157   0.111   1.159  1.8536  0.1021  2.3471
 1487TIP3    H2 4401   6.224   0.153   1.030 -2.0587 -1.3792 -0.2464
 1488TIP3   OH2 4402   1.820   2.971   6.103  0.5395 -0.0096 -0.4562
 1488TIP3    H1 4403   1.850   2.963   6.194 -0.2329  3.3035  0.1548
 1488TIP3    H2 4404   1.805   3.065   6.091 -0.6335 -0.5464 -3.6192
 1489TIP3   OH2 4405   3.565   4.692   2.185 -0.1595  0.1017  0.1562
 1489TIP3    H1 4406   3.478   4.720   2.211 -0.2686 -0.6225  0.5832
 1489TIP3    H2 4407   3.598   4.642   2.260  0.1527 -0.6397 -0.4636
 1490TIP3   OH2 4408   2.964   4.487   0.100  0.2218  0.4933 -0.0037
 1490TIP3    H1 4409   2.992   4.407   0.146  0.4566  0.6718  0.1669
 1490TIP3    H2 4410   2.877   4.506   0.135  0.2658  0.4458  0.1321
 1491TIP3   OH2 4411   1.398   5.817   0.141 -0.4535  0.1462  0.3991
 1491TIP3    H1 4412   1.347   5.835   0.220 -1.2541  1.9197 -0.4852
 1491TIP3    H2 4413   1.405   5.902   0.097 -0.7934 -0.9688 -1.8983
 1492TIP3   OH2 4414   2.529   3.986   0.569  0.4267 -0.0137 -0.3183
 1492TIP3    H1 4415   2.598   4.052   0.577  1.0744 -0.3625 -2.6661
 1492TIP3    H2 4416   2.455   4.024   0.616  2.1441  0.4211  2.1546
 1493TIP3   OH2 4417   2.052   4.708   0.129 -0.3138 -0.0890  0.3078
 1493TIP3    H1 4418   2.130   4.660   0.100  1.0241  1.9378  0.3650
 1493TIP3    H2 4419   2.057   4.705   0.225 -0.8464 -0.8040  0.3102
 1494TIP3   OH2 4420   1.814   3.428   6.950 -0.5376  0.2063  0.6329
 1494TIP3    H1 4421   1.761   3.431   6.869 -0.0673 -1.0964  0.2596
 1494TIP3    H2 4422   1.904   3.424   6.919 -0.3594 -0.3664  1.2300
 1495TIP3   OH2 4423   2.511   6.603   2.779 -0.1516 -0.2917 -0.3756
 1495TIP3    H1 4424   2.477   6.650   2.703  0.0784  0.0468 -0.2716
 1495TIP3    H2 4425   2.435   6.589   2.835 -0.1882  0.1243 -0.3196
 1496TIP3   OH2 4426   3.485   6.520   0.025  0.1564  0.1612 -0.2364
 1496TIP3    H1 4427   3.411   6.557  -0.023  0.3865 -0.4551 -1.0796
 1496TIP3    H2 4428   3.461   6.429   0.040 -0.1205  0.4587  1.2593
 1497TIP3   OH2 4429   1.656   4.109   6.676  0.0724  0.1780  0.0079
 1497TIP3    H1 4430   1.623   4.151   6.596  0.9927  0.8371 -0.0423
 1497TIP3    H2 4431   1.748   4.089   6.656  0.0757 -0.4109  0.6080
 1498TIP3   OH2 4432   2.000   5.923   0.070  0.3579  0.6340  0.1912
 1498TIP3    H1 4433   1.999   5.999   0.011  2.1769  1.2903  0.9852
 1498TIP3    H2 4434   1.951   5.952   0.147 -0.0212  0.5555 -0.0141
 1499TIP3   OH2 4435   3.070   5.457   0.755  0.4968 -0.4252  0.8421
 1499TIP3    H1 4436   3.018   5.502   0.688  0.7370 -0.1344  0.8501
 1499TIP3    H2 4437   3.013   5.455   0.832  0.3898 -0.3661  0.7656
 1500TIP3   OH2 4438   8.366   1.198   6.871 -0.3353 -0.3016  0.7106
 1500TIP3    H1 4439   8.427   1.243   6.813  0.9290 -0.0764  2.1975
 1500TIP3    H2 4440   8.319   1.138   6.813 -0.2832  1.1026 -0.8450
 1501TIP3   OH2 4441   6.870   7.026   6.725 -1.0174 -0.1177 -0.2382
 1501TIP3    H1 4442   6.818   6.985   6.657 -2.5116  0.9879  0.2056
 1501TIP3    H2 4443   6.889   7.114   6.692 -1.6309  0.3766  0.6805
 1502TIP3   OH2 4444   0.017   0.456   6.273  0.1412  0.3462  0.3874
 1502TIP3    H1 4445   0.074   0.389   6.311  2.6475  2.0467 -0.2443
 1502TIP3    H2 4446   0.065   0.487   6.196 -1.3540  2.2846  0.2062
 1503TIP3   OH2 4447   5.813   7.505   6.866  0.5549 -0.1409 -0.1655
 1503TIP3    H1 4448   5.868   7.503   6.945  1.2510  0.8619 -0.6092
 1503TIP3    H2 4449   5.724   7.491   6.899  0.8776 -0.0945  0.7550
 1504TIP3   OH2 4450   4.346   6.702   0.602  0.1358  0.3129 -0.2229
 1504TIP3    H1 4451   4.441   6.707   0.593  0.6368 -1.6350  3.0644
 1504TIP3    H2 4452   4.325   6.763   0.672 -0.9454  0.1755 -0.4158
 1505TIP3   OH2 4453   2.003   5.214   0.171  0.5307 -0.1780  0.1991
 1505TIP3    H1 4454   2.068   5.223   0.102  2.0198 -0.4459  1.5175
 1505TIP3    H2 4455   1.987   5.120   0.177 -0.7922 -0.0355 -0.8275
 1506TIP3   OH2 4456   2.484   6.912   2.595  0.0238  0.2089 -0.1992
 1506TIP3    H1 4457   2.407   6.945   2.642  0.1991  0.1455  0.1377
 1506TIP3    H2 4458   2.453   6.836   2.547 -0.5606  1.2888 -1.5696
 1507TIP3   OH2 4459   3.940   5.796   2.398 -0.4625 -0.1511  0.0308
 1507TIP3    H1 4460   3.964   5.849   2.474  1.4270  1.5557 -1.6899
 1507TIP3    H2 4461   3.917   5.711   2.434 -2.0182  1.3462  2.7230
 1508TIP3   OH2 4462   2.429   6.292   0.315 -0.2001 -0.5012  0.5321
 1508TIP3    H1 4463   2.359   6.303   0.380  0.2514 -0.6714  1.0532
 1508TIP3    H2 4464   2.510   6.299   0.366  0.1662 -0.0031 -0.1129
 1509TIP3   OH2 4465   5.964   0.550   0.810 -0.7523 -0.2537 -0.3407
 1509TIP3    H1 4466   5.915   0.507   0.740 -1.3491  0.8580 -0.6252
 1509TIP3    H2 4467   6.027   0.485   0.840 -0.9119 -0.9432 -1.4955
 1510TIP3   OH2 4468   4.327   7.705   6.711  0.2509 -0.4228  0.3408
 1510TIP3    H1 4469   4.402   7.749   6.751 -0.6650 -0.7150  2.4710
 1510TIP3    H2 4470   4.291   7.652   6.782 -1.4626 -0.9464 -0.8988
 1511TIP3   OH2 4471   2.556   7.383   0.766 -0.5401 -0.1226  0.0074
 1511TIP3    H1 4472   2.590   7.359   0.680  0.5826  1.8961 -0.1521
 1511TIP3    H2 4473   2.461   7.370   0.759 -0.4371 -0.0978 -1.5020
 1512TIP3   OH2 4474   5.128   0.287   6.442 -0.3990 -0.1673 -0.6148
 1512TIP3    H1 4475   5.137   0.193   6.451 -0.5912 -0.2690 -1.4418
 1512TIP3    H2 4476   5.201   0.324   6.492  1.2540 -0.8271 -2.4868
 1513TIP3   OH2 4477   1.725   6.921   0.212  0.4493  0.2080  0.1488
 1513TIP3    H1 4478   1.803   6.904   0.264  0.4133  1.9638  0.8125
 1513TIP3    H2 4479   1.675   6.839   0.215  1.7281 -0.5555  0.6477
 1514TIP3   OH2 4480   0.405   0.421   6.694 -0.4245  0.0506  0.3521
 1514TIP3    H1 4481   0.312   0.429   6.672 -0.7063  0.9709  1.7891
 1514TIP3    H2 4482   0.450   0.472   6.627 -0.9853  0.0192 -0.0554
 1515TIP3   OH2 4483   3.347   6.451   0.555 -0.1562  0.3184  0.1119
 1515TIP3    H1 4484   3.268   6.453   0.609  0.9538 -0.2472  1.7889
 1515TIP3    H2 4485   3.335   6.522   0.492 -2.8037 -0.8754 -0.8277
 1516TIP3   OH2 4486   6.313   7.208   5.172 -0.0477  0.0730  0.2492
 1516TIP3    H1 4487   6.257   7.286   5.171 -0.8040 -0.4656  0.8570
 1516TIP3    H2 4488   6.401   7.243   5.155 -0.5371  0.9334 -0.5940
 1517TIP3   OH2 4489   1.060   7.587   0.816  0.2596 -0.3569  0.4506
 1517TIP3    H1 4490   1.109   7.667   0.834 -1.4860  0.2603  2.7895
 1517TIP3    H2 4491   1.065   7.537   0.898 -2.6226 -0.4505  0.6333
 1518TIP3   OH2 4492   1.671   6.854   0.556  0.0645  0.2332 -0.0653
 1518TIP3    H1 4493   1.724   6.777   0.578 -0.6429 -0.4621 -0.7813
 1518TIP3    H2 4494   1.598   6.852   0.619 -0.5492 -0.3045 -0.7819
 1519TIP3   OH2 4495   2.017   6.029   1.047 -0.3385 -0.0132 -0.0472
 1519TIP3    H1 4496   2.010   6.049   1.141 -0.8563 -0.7265  0.0691
 1519TIP3    H2 4497   2.103   6.063   1.022 -0.1734  0.1361  0.7009
 1520TIP3   OH2 4498   5.829   1.993   6.072 -0.1081  0.0716  0.1369
 1520TIP3    H1 4499   5.830   2.055   6.146  0.2644  1.0403 -0.6730
 1520TIP3    H2 4500   5.888   1.923   6.099  1.0601  1.0741  0.2189
 1521TIP3   OH2 4501   3.775   3.112   0.923 -0.0972 -0.3429  0.3207
 1521TIP3    H1 4502   3.692   3.156   0.941 -0.0228 -0.0596 -0.0337
 1521TIP3    H2 4503   3.842   3.170   0.960 -0.0127 -0.2580  0.0343
 1522TIP3   OH2 4504   7.806   7.834   5.703  0.1940  0.0426 -0.1821
 1522TIP3    H1 4505   7.720   7.874   5.715  0.3567 -0.2127  1.9681
 1522TIP3    H2 4506   7.822   7.787   5.784  1.8589 -0.8904 -1.0323
 1523TIP3   OH2 4507   3.314   5.558   0.624  0.2533  0.0370 -0.0527
 1523TIP3    H1 4508   3.227   5.524   0.642  0.0116  0.7434  0.1096
 1523TIP3    H2 4509   3.336   5.523   0.538 -0.1198 -0.2800 -0.0187
 1524TIP3   OH2 4510   3.095   6.286   0.936 -0.3151  0.3110  0.9874
 1524TIP3    H1 4511   3.070   6.299   1.027  0.1661  1.7515  0.9291
 1524TIP3    H2 4512   3.016   6.305   0.886 -0.2277  0.7978  1.0343
 1525TIP3   OH2 4513   7.849   1.240   6.913 -0.2140 -0.5791 -0.2340
 1525TIP3    H1 4514   7.870   1.333   6.914  0.0841 -0.6473 -0.2746
 1525TIP3    H2 4515   7.881   1.209   6.828 -1.0843 -0.5393 -0.5813
 1526TIP3   OH2 4516   0.155   0.179   4.375 -0.3385 -0.3726 -0.4629
 1526TIP3    H1 4517   0.215   0.152   4.306  0.5069  1.7968 -0.6300
 1526TIP3    H2 4518   0.201   0.163   4.457 -0.0138  0.1109 -0.5469
 1527TIP3   OH2 4519   3.814   6.219   2.273 -0.0328 -0.5465 -0.1596
 1527TIP3    H1 4520   3.891   6.208   2.217 -0.8844 -1.4619 -1.1705
 1527TIP3    H2 4521   3.781   6.130   2.285  0.0157 -0.3361  1.6454
 1528TIP3   OH2 4522   0.068   2.178   5.620 -0.2519  0.6255 -0.1454
 1528TIP3    H1 4523   0.047   2.264   5.656  0.8577  0.2494  1.4731
 1528TIP3    H2 4524   0.015   2.117   5.673 -1.1755  0.3272 -1.4055
 1529TIP3   OH2 4525   8.335   0.333   5.715  0.3398  0.5113 -0.3681
 1529TIP3    H1 4526   8.316   0.239   5.724 -0.0400  0.5435 -0.8483
 1529TIP3    H2 4527   8.334   0.366   5.805 -3.5043  0.8287 -0.4662
 1530TIP3   OH2 4528   0.667   4.249   0.074  0.1568 -0.3487  0.2155
 1530TIP3    H1 4529   0.640   4.332   0.036  1.3827  0.5669  1.2681
 1530TIP3    H2 4530   0.745   4.224   0.025  0.5005 -0.2437  0.6968
 1531TIP3   OH2 4531   3.385   4.542   1.320 -0.0389  0.3796 -0.0981
 1531TIP3    H1 4532   3.373   4.461   1.370  1.9212 -0.0491 -0.2940
 1531TIP3    H2 4533   3.364   4.612   1.381  0.2166 -0.2141  0.6728
 1532TIP3   OH2 4534   2.014   5.345   0.410 -1.0569  0.4690 -0.1406
 1532TIP3    H1 4535   1.973   5.286   0.347 -0.0611 -0.0249 -0.3353
 1532TIP3    H2 4536   2.067   5.403   0.357 -0.3115  0.1278  0.2278
 1533TIP3   OH2 4537   3.054   7.785   1.271  0.1736 -0.3223 -0.1353
 1533TIP3    H1 4538   3.044   7.694   1.244  0.6441 -0.4231  0.0286
 1533TIP3    H2 4539   2.964   7.819   1.273  0.0795 -0.5011 -1.1574
 1534TIP3   OH2 4540   5.932   7.572   0.615  0.0989 -0.0367  0.2096
 1534TIP3    H1 4541   5.866   7.587   0.548  0.0313 -0.5965  0.1472
 1534TIP3    H2 4542   5.941   7.656   0.659 -2.5490 -0.6202  1.9487
 1535TIP3   OH2 4543   2.657   5.654   0.569  0.0099  0.1953  0.6871
 1535TIP3    H1 4544   2.656   5.750   0.572 -1.0379  0.1521  2.6733
 1535TIP3    H2 4545   2.577   5.630   0.522 -0.0978  0.2794  0.8281
 1536TIP3   OH2 4546   2.010   4.663   1.030  0.5042  0.1152  0.3286
 1536TIP3    H1 4547   1.969   4.738   0.986  0.5192  0.8245  1.4971
 1536TIP3    H2 4548   2.050   4.612   0.960  0.2733  1.0748 -0.5038
 1537TIP3   OH2 4549   4.160   5.418   1.042 -0.4081  0.4166  0.0462
 1537TIP3    H1 4550   4.183   5.331   1.010 -0.0492  0.6015 -0.1972
 1537TIP3    H2 4551   4.143   5.469   0.963 -0.5434  0.5915  0.1861
 1538TIP3   OH2 4552   3.056   6.730   1.381 -0.3223 -0.4215 -0.6132
 1538TIP3    H1 4553   3.064   6.747   1.474 -0.1146 -0.7533 -0.5680
 1538TIP3    H2 4554   3.096   6.806   1.339 -1.0375  0.0560 -0.4466
 1539TIP3   OH2 4555   1.691   5.313   1.639 -0.7698  0.1655 -0.2026
 1539TIP3    H1 4556   1.772   5.332   1.688 -0.7145 -0.6534  0.0290
 1539TIP3    H2 4557   1.720   5.261   1.565 -1.1194 -0.3838  0.0415
 1540TIP3   OH2 4558   3.020   4.632   0.608 -0.9572  0.1443 -0.1069
 1540TIP3    H1 4559   3.000   4.692   0.680  0.7928  1.5542 -0.7356
 1540TIP3    H2 4560   3.072   4.563   0.648 -1.8545 -0.2542  0.3824
 1541TIP3   OH2 4561   4.918   0.401   0.593  0.3234 -0.3206  0.2311
 1541TIP3    H1 4562   4.930   0.488   0.555  0.3317 -0.3817  0.0923
 1541TIP3    H2 4563   4.824   0.385   0.589  0.4480 -0.8233 -0.8756
 1542TIP3   OH2 4564   1.888   6.626   0.899  0.2326 -0.6571  0.9324
 1542TIP3    H1 4565   1.930   6.546   0.929  1.9060  0.0802  0.5726
 1542TIP3    H2 4566   1.912   6.633   0.806  0.2000  0.3405  0.9926
 1543TIP3   OH2 4567   4.690   4.520   0.933  0.5705 -0.3389  0.8197
 1543TIP3    H1 4568   4.595   4.526   0.943  0.3836  0.3687 -1.0259
 1543TIP3    H2 4569   4.725   4.589   0.989 -0.0987  0.2761  0.4881
 1544TIP3   OH2 4570   7.702   0.372   6.442  0.2169  0.6419 -0.3989
 1544TIP3    H1 4571   7.739   0.404   6.359 -0.0591  2.0836  0.0266
 1544TIP3    H2 4572   7.652   0.446   6.476  3.0698  1.2272  2.7241
 1545TIP3   OH2 4573   1.328   5.104   0.185  0.3073  0.0308 -0.0032
 1545TIP3    H1 4574   1.306   5.044   0.114 -0.8116  0.2034  0.1856
 1545TIP3    H2 4575   1.262   5.173   0.180  0.7202  0.4829  0.6796
 1546TIP3   OH2 4576   7.658   0.237   6.727 -0.2509  0.3008 -0.0325
 1546TIP3    H1 4577   7.618   0.315   6.764  1.7330  2.0456 -1.4726
 1546TIP3    H2 4578   7.658   0.251   6.633 -0.9449 -1.9887 -0.4206
 1547TIP3   OH2 4579   0.125   0.483   6.728  0.1455  0.5181 -0.4723
 1547TIP3    H1 4580   0.111   0.578   6.719 -1.5515  0.1541 -1.8718
 1547TIP3    H2 4581   0.102   0.464   6.819  0.7039  1.4702 -0.1226
 1548TIP3   OH2 4582   2.372   4.580   1.555  0.5634 -0.1479 -0.3917
 1548TIP3    H1 4583   2.438   4.648   1.543 -0.0560  1.1772  3.1080
 1548TIP3    H2 4584   2.421   4.499   1.564  1.6354  0.6149  0.6919
 1549TIP3   OH2 4585   2.697   4.147   1.784  0.0341  0.3434 -0.5797
 1549TIP3    H1 4586   2.766   4.208   1.811  1.5849 -0.8165 -1.8747
 1549TIP3    H2 4587   2.670   4.104   1.865  0.9143  0.7103 -0.0850
 1550TIP3   OH2 4588   2.521   4.736   3.956 -0.7298  0.6072  0.0111
 1550TIP3    H1 4589   2.449   4.722   3.894 -0.7952 -0.5583  0.3456
 1550TIP3    H2 4590   2.594   4.765   3.902 -0.8016 -0.3443 -0.6056
 1551TIP3   OH2 4591   5.155   7.935   6.891  0.7933  0.2475 -0.2407
 1551TIP3    H1 4592   5.081   7.992   6.912 -0.3005 -0.8898 -0.9604
 1551TIP3    H2 4593   5.222   7.994   6.855  0.3304  1.3074  0.6297
 1552TIP3   OH2 4594   7.513   0.510   6.858  0.2852 -0.1223 -0.2523
 1552TIP3    H1 4595   7.510   0.540   6.949 -1.1017 -0.0387 -0.3088
 1552TIP3    H2 4596   7.574   0.570   6.815  0.7231  0.0171  0.5674
 1553TIP3   OH2 4597   5.791   1.041   6.507 -0.1758 -0.4098  0.4415
 1553TIP3    H1 4598   5.781   0.978   6.435  0.6206 -0.0590  0.0087
 1553TIP3    H2 4599   5.724   1.017   6.570  0.8479 -2.4372  0.8083
 1554TIP3   OH2 4600   1.684   5.657   2.445  0.3554  0.2232  0.8319
 1554TIP3    H1 4601   1.729   5.618   2.370 -0.9927 -0.7594  0.5112
 1554TIP3    H2 4602   1.665   5.746   2.417  0.6221  0.1248  0.3290
 1555TIP3   OH2 4603   0.978   3.541   3.502  0.1601  0.1351  0.3492
 1555TIP3    H1 4604   1.025   3.614   3.544 -1.1201  1.2992 -0.1797
 1555TIP3    H2 4605   1.010   3.463   3.546  0.3926  1.1583  2.0508
 1556TIP3   OH2 4606   7.375   1.938   6.093 -0.3643  0.3527  0.3857
 1556TIP3    H1 4607   7.442   1.899   6.037 -0.7735  1.4275 -0.8811
 1556TIP3    H2 4608   7.358   1.871   6.159 -0.8433 -1.5178 -1.5606
 1557TIP3   OH2 4609   1.281   4.527   1.995  0.0327 -0.9019 -0.4109
 1557TIP3    H1 4610   1.293   4.541   1.901 -1.7873 -3.4335 -1.0679
 1557TIP3    H2 4611   1.247   4.610   2.027  1.3101  0.2138 -1.8385
 1558TIP3   OH2 4612   5.218   7.798   5.388  0.5840  0.4204 -0.0466
 1558TIP3    H1 4613   5.173   7.785   5.304  0.7257 -0.7963  0.0567
 1558TIP3    H2 4614   5.305   7.831   5.363 -0.0930  2.0479 -0.2784
 1559TIP3   OH2 4615   6.323   7.593   6.920  0.3411  0.3298  0.1870
 1559TIP3    H1 4616   6.238   7.636   6.933  0.1480 -0.0783  0.2720
 1559TIP3    H2 4617   6.356   7.630   6.838 -0.5562 -0.5442 -0.5779
 1560TIP3   OH2 4618   2.946   5.214   0.522  0.0824 -0.0462  0.1581
 1560TIP3    H1 4619   2.869   5.271   0.517 -0.6243 -0.9329  0.8258
 1560TIP3    H2 4620   2.925   5.150   0.590  0.7433 -1.2973 -0.7870
 1561TIP3   OH2 4621   7.134   2.357   4.642  0.0414 -1.0448 -0.0506
 1561TIP3    H1 4622   7.174   2.400   4.717 -0.3699  0.6083 -0.7342
 1561TIP3    H2 4623   7.195   2.374   4.570 -0.7135 -0.5410 -0.5832
 1562TIP3   OH2 4624   5.631   7.636   5.327  0.1181  0.3220  0.2134
 1562TIP3    H1 4625   5.586   7.647   5.243  0.5471  0.5841  0.0188
 1562TIP3    H2 4626   5.687   7.713   5.335  2.1883 -1.0744 -0.5532
 1563TIP3   OH2 4627   7.795   0.092   6.912  0.5770 -0.0219 -0.3129
 1563TIP3    H1 4628   7.758   0.143   6.839 -0.2625 -0.9314 -0.5366
 1563TIP3    H2 4629   7.852   0.154   6.957 -0.1669  1.0356 -0.7730
 1564TIP3   OH2 4630   3.314   5.147  -0.005  0.6395 -0.1625  0.4945
 1564TIP3    H1 4631   3.255   5.084  -0.046 -0.6630  0.7593  0.9421
 1564TIP3    H2 4632   3.330   5.113   0.083  0.8493 -0.4585  0.3414
 1565TIP3   OH2 4633   0.545   3.406   6.196  0.9918  0.3053  0.2409
 1565TIP3    H1 4634   0.453   3.432   6.195  1.0312  0.4442  0.3070
 1565TIP3    H2 4635   0.586   3.461   6.262  1.2588  0.6973 -0.2447
 1566TIP3   OH2 4636   0.645   1.389   6.685 -0.2564 -0.0123  0.5048
 1566TIP3    H1 4637   0.606   1.470   6.719 -0.9085  1.7204 -3.9947
 1566TIP3    H2 4638   0.713   1.418   6.625  0.1896 -2.8386 -0.4302
 1567TIP3   OH2 4639   0.204   2.539   4.499 -0.3275 -0.1047  0.0325
 1567TIP3    H1 4640   0.215   2.631   4.472 -0.2197 -0.2597 -0.4588
 1567TIP3    H2 4641   0.119   2.514   4.463  0.5104 -0.7802 -1.4964
 1568TIP3   OH2 4642   2.254   1.635   6.075 -0.3630 -0.4589 -0.0135
 1568TIP3    H1 4643   2.206   1.583   6.140 -1.9153 -0.3235 -1.0202
 1568TIP3    H2 4644   2.202   1.714   6.064 -0.7112 -0.9437 -2.1874
 1569TIP3   OH2 4645   3.528   3.786   0.670 -0.7257  0.4014 -0.0393
 1569TIP3    H1 4646   3.458   3.825   0.721  0.4858  0.8608  1.3091
 1569TIP3    H2 4647   3.592   3.856   0.659  0.4134 -0.5313  0.4463
 1570TIP3   OH2 4648   1.260   5.112   1.662 -0.1539  0.5365 -0.1560
 1570TIP3    H1 4649   1.339   5.153   1.697  0.9517 -0.6054 -1.2694
 1570TIP3    H2 4650   1.222   5.178   1.604  0.8682  0.4981 -0.8784
 1571TIP3   OH2 4651   7.107   1.999   5.754 -0.6059  0.3063 -0.0870
 1571TIP3    H1 4652   7.103   2.086   5.793 -1.2844 -1.2995  3.6393
 1571TIP3    H2 4653   7.119   1.940   5.828 -1.1214 -2.8675 -2.4213
 1572TIP3   OH2 4654   3.602   5.115   0.960  0.1783  0.1604  0.5865
 1572TIP3    H1 4655   3.515   5.078   0.973  0.5730 -0.2770  2.0801
 1572TIP3    H2 4656   3.607   5.188   1.022 -0.1188  1.9520 -1.4282
 1573TIP3   OH2 4657   5.521   7.085   4.706  0.1663  0.2821 -0.5504
 1573TIP3    H1 4658   5.510   7.101   4.800 -0.4221  0.2723 -0.6153
 1573TIP3    H2 4659   5.452   7.138   4.665  0.8637  0.8334 -1.0209
 1574TIP3   OH2 4660   1.785   3.607   1.015  0.3289 -0.0652 -0.5862
 1574TIP3    H1 4661   1.799   3.670   0.944 -1.5076 -0.1845 -1.0821
 1574TIP3    H2 4662   1.856   3.544   1.005  1.6404  1.4010 -0.6577
 1575TIP3   OH2 4663   5.485   5.227   1.466 -0.2847 -1.1105 -0.2233
 1575TIP3    H1 4664   5.469   5.294   1.399 -1.2302 -2.4213 -1.3327
 1575TIP3    H2 4665   5.438   5.259   1.543  0.6017  0.2932 -0.2505
 1576TIP3   OH2 4666   2.664   3.516   0.612 -0.1698  0.5044 -0.1063
 1576TIP3    H1 4667   2.691   3.460   0.539 -1.1890  0.1208 -0.1973
 1576TIP3    H2 4668   2.624   3.592   0.572 -2.5220 -0.5989  0.0293
 1577TIP3   OH2 4669   1.502   2.024   1.149 -0.6355 -0.3540  0.0040
 1577TIP3    H1 4670   1.463   2.072   1.076  0.2955  0.9924  0.3866
 1577TIP3    H2 4671   1.430   2.010   1.210 -1.1307 -0.3647 -0.5802
 1578TIP3   OH2 4672   2.173   4.757   0.762  0.0985 -0.3028 -0.7988
 1578TIP3    H1 4673   2.131   4.791   0.682 -1.9603 -2.5700 -0.7282
 1578TIP3    H2 4674   2.148   4.820   0.830  1.7664  1.5817 -1.8867
 1579TIP3   OH2 4675   4.215   6.028   1.081 -0.1960  0.0862  0.6145
 1579TIP3    H1 4676   4.284   6.016   1.016 -1.3600  0.1050 -0.6664
 1579TIP3    H2 4677   4.179   5.940   1.094 -1.4822  0.4156 -0.5276
 1580TIP3   OH2 4678   0.333   1.855   6.698 -0.0748  0.4093 -0.1896
 1580TIP3    H1 4679   0.321   1.936   6.748 -1.9354 -0.3578  0.6468
 1580TIP3    H2 4680   0.377   1.796   6.759 -1.2737 -0.1392  0.1389
 1581TIP3   OH2 4681   8.199   0.592   5.124  0.1617  0.7095 -0.8771
 1581TIP3    H1 4682   8.293   0.598   5.111  0.1526  0.6757 -0.9619
 1581TIP3    H2 4683   8.180   0.498   5.123  0.1401  0.7135 -0.7676
 1582TIP3   OH2 4684   3.599   3.062   1.348 -0.3806  0.2224 -0.1854
 1582TIP3    H1 4685   3.576   3.038   1.258  0.3666  0.5058 -0.4550
 1582TIP3    H2 4686   3.579   2.984   1.399 -0.0154 -0.2338 -0.7255
 1583TIP3   OH2 4687   1.819   4.547   1.434  0.0287 -0.4968 -0.0436
 1583TIP3    H1 4688   1.829   4.602   1.512 -0.7182 -0.5892  0.1179
 1583TIP3    H2 4689   1.823   4.458   1.467  0.2056 -0.5375 -0.1757
 1584TIP3   OH2 4690   6.360   2.637   6.775 -0.1545 -0.2295 -0.5110
 1584TIP3    H1 4691   6.410   2.714   6.800 -1.2705 -0.1295  1.4705
 1584TIP3    H2 4692   6.396   2.567   6.830 -0.8093 -0.5960 -0.5514
 1585TIP3   OH2 4693   2.969   7.088   1.369 -0.2674 -0.2686  0.2473
 1585TIP3    H1 4694   3.046   7.053   1.325 -0.5364 -1.0751  0.4083
 1585TIP3    H2 4695   2.929   7.013   1.412 -2.5625 -0.3815 -1.9209
 1586TIP3   OH2 4696   4.117   6.171   2.173  0.0817 -0.1258  0.1048
 1586TIP3    H1 4697   4.137   6.234   2.104 -1.0450 -0.1264 -0.2270
 1586TIP3    H2 4698   4.111   6.087   2.127 -0.5787 -0.1415  0.2182
 1587TIP3   OH2 4699   5.077   5.635   1.479 -0.3024 -0.0831 -0.1806
 1587TIP3    H1 4700   4.990   5.598   1.494 -1.2764  1.8829 -0.8719
 1587TIP3    H2 4701   5.114   5.646   1.566 -1.8544  1.6434  0.2873
 1588TIP3   OH2 4702   5.736   1.421   1.827  0.0964  0.2502  0.0294
 1588TIP3    H1 4703   5.715   1.465   1.745 -4.1334 -0.0369  0.8397
 1588TIP3    H2 4704   5.732   1.328   1.806  0.5158  0.1894  0.2190
 1589TIP3   OH2 4705   3.500   6.001   0.881  0.8429 -0.2594  0.2877
 1589TIP3    H1 4706   3.506   6.058   0.957  0.3536 -1.8115  1.5172
 1589TIP3    H2 4707   3.465   5.918   0.915 -1.2796 -0.3617 -1.9493
 1590TIP3   OH2 4708   3.998   5.118   0.534  0.6059 -0.1947 -0.0030
 1590TIP3    H1 4709   3.964   5.156   0.615  0.6167  2.7392 -1.2915
 1590TIP3    H2 4710   4.089   5.146   0.531  0.1214  1.3468 -1.8727
 1591TIP3   OH2 4711   2.209   0.847   6.360  0.3135  0.2228  0.3631
 1591TIP3    H1 4712   2.299   0.876   6.351  0.7238 -1.0795  0.1613
 1591TIP3    H2 4713   2.214   0.770   6.416 -0.0936 -2.7008 -3.4011
 1592TIP3   OH2 4714   2.887   1.690   5.655  0.0531  0.6711 -0.3131
 1592TIP3    H1 4715   2.876   1.671   5.562 -1.5789 -2.6831  0.4820
 1592TIP3    H2 4716   2.803   1.729   5.681 -0.1303  0.0251  0.0841
 1593TIP3   OH2 4717   4.222   2.588   0.193  0.1697 -0.3770  0.3193
 1593TIP3    H1 4718   4.239   2.496   0.214  0.3359 -0.3127  0.4618
 1593TIP3    H2 4719   4.302   2.634   0.218  0.2492 -0.2566 -0.1650
 1594TIP3   OH2 4720   2.326   3.770   0.551 -0.2003 -0.0504  0.2000
 1594TIP3    H1 4721   2.345   3.711   0.623  2.4116 -1.2076 -1.3363
 1594TIP3    H2 4722   2.379   3.848   0.569 -1.6658  0.7883  0.9202
 1595TIP3   OH2 4723   5.523   0.639   6.402  0.4767  0.1692  0.4844
 1595TIP3    H1 4724   5.527   0.562   6.346  2.5853  0.6607 -0.1026
 1595TIP3    H2 4725   5.437   0.634   6.444  0.1286 -1.8781 -0.4018
 1596TIP3   OH2 4726   7.928   2.839   6.935 -0.1308  0.2007 -0.0023
 1596TIP3    H1 4727   7.887   2.809   6.854  0.1695 -1.1268  0.3306
 1596TIP3    H2 4728   7.858   2.880   6.985 -1.0301 -1.9351  0.5115
 1597TIP3   OH2 4729   3.331   5.011   0.924  0.1345 -0.3195 -0.4514
 1597TIP3    H1 4730   3.320   4.957   0.846 -2.8478 -0.7689  0.2426
 1597TIP3    H2 4731   3.285   5.092   0.904  0.6313  0.1575  0.2925
 1598TIP3   OH2 4732   1.199   0.698   6.428  0.4910  0.1173  0.0340
 1598TIP3    H1 4733   1.188   0.616   6.477  2.7593 -0.5025 -0.4543
 1598TIP3    H2 4734   1.124   0.752   6.455 -1.8047 -2.5814 -0.6516
 1599TIP3   OH2 4735   7.165   6.472   6.148  0.3115  0.4714 -0.8398
 1599TIP3    H1 4736   7.143   6.391   6.194 -0.0233  0.9702 -0.1037
 1599TIP3    H2 4737   7.080   6.508   6.121  0.3011  1.5921  0.6022
 1600TIP3   OH2 4738   2.369   5.508   1.062  0.0401 -0.3400  0.3770
 1600TIP3    H1 4739   2.294   5.538   1.012 -1.0716 -0.2649  2.0486
 1600TIP3    H2 4740   2.334   5.485   1.148  2.0716  0.7046  1.5352
 1601TIP3   OH2 4741   1.463   5.765   1.642 -0.1845 -0.4699  0.3372
 1601TIP3    H1 4742   1.457   5.786   1.735  2.1215 -1.4966  0.7405
 1601TIP3    H2 4743   1.448   5.848   1.597 -2.3715 -0.1663  1.5794
 1602TIP3   OH2 4744   3.233   4.517   1.996 -0.7921 -0.2702  0.2042
 1602TIP3    H1 4745   3.224   4.443   1.936 -1.0555 -1.1111  1.2523
 1602TIP3    H2 4746   3.309   4.565   1.964 -1.0314 -0.6123 -0.8936
 1603TIP3   OH2 4747   1.957   5.035   1.251  0.4458 -0.5460  0.3268
 1603TIP3    H1 4748   2.040   5.068   1.216 -0.9631  0.2594 -2.3762
 1603TIP3    H2 4749   1.973   4.942   1.268  1.9078 -0.3881 -0.1664
 1604TIP3   OH2 4750   7.773   1.862   6.695 -0.2118 -0.1855  0.0224
 1604TIP3    H1 4751   7.752   1.887   6.605  1.5771 -1.0633 -0.6527
 1604TIP3    H2 4752   7.688   1.841   6.734 -1.3001  2.8086 -0.6270
 1605TIP3   OH2 4753   1.553   0.168   6.405 -0.5770 -0.3894 -0.2271
 1605TIP3    H1 4754   1.640   0.179   6.367  0.2266 -2.9627  0.7626
 1605TIP3    H2 4755   1.568   0.120   6.487 -2.7179  1.1190  1.0915
 1606TIP3   OH2 4756   0.057   7.860   6.448 -0.3074  0.0477 -0.2350
 1606TIP3    H1 4757   0.032   7.947   6.418 -0.1281  0.3299  0.4116
 1606TIP3    H2 4758   0.074   7.811   6.368  1.7311  1.2506 -0.5966
 1607TIP3   OH2 4759   8.263   7.418   6.020  0.5440 -0.3207 -0.5868
 1607TIP3    H1 4760   8.290   7.361   5.948 -1.2846 -1.0394 -0.7393
 1607TIP3    H2 4761   8.251   7.504   5.980  0.7610 -0.4352 -0.8950
 1608TIP3   OH2 4762   3.376   3.270   1.898 -0.0659 -0.1872 -0.2185
 1608TIP3    H1 4763   3.331   3.243   1.978 -0.7380  0.4545 -0.3794
 1608TIP3    H2 4764   3.469   3.264   1.921 -0.2547  0.4540  0.7784
 1609TIP3   OH2 4765   0.937   1.491   6.236  0.5170 -0.2806 -0.1191
 1609TIP3    H1 4766   0.953   1.397   6.236  1.2883 -0.1579 -0.8200
 1609TIP3    H2 4767   1.025   1.530   6.241  0.1890  0.3986  0.4388
 1610TIP3   OH2 4768   0.244   6.818   6.484 -0.0666 -0.7053  0.1602
 1610TIP3    H1 4769   0.235   6.737   6.433 -0.6703  0.3102 -1.3841
 1610TIP3    H2 4770   0.162   6.825   6.532  0.0532 -1.0972  0.4216
 1611TIP3   OH2 4771   1.726   5.238   0.450  0.0474 -0.2061 -0.2600
 1611TIP3    H1 4772   1.775   5.320   0.452 -0.5432  0.2725 -2.9938
 1611TIP3    H2 4773   1.636   5.265   0.432 -0.3566 -1.3788 -0.0272
 1612TIP3   OH2 4774   8.078   7.241   6.624  0.0791  0.2146  0.5207
 1612TIP3    H1 4775   8.033   7.235   6.539  0.4688 -0.3200  0.3504
 1612TIP3    H2 4776   8.133   7.319   6.616 -2.7946  2.4429  1.6919
 1613TIP3   OH2 4777   7.132   7.729   5.919 -0.2171  0.2250 -0.3579
 1613TIP3    H1 4778   7.155   7.688   5.835  0.3771 -0.5421  0.1794
 1613TIP3    H2 4779   7.170   7.672   5.985  1.5175  2.1694  0.3775
 1614TIP3   OH2 4780   2.828   5.198   0.175  0.3596 -0.4262  0.3009
 1614TIP3    H1 4781   2.776   5.128   0.214 -2.8788  0.8231 -1.5763
 1614TIP3    H2 4782   2.803   5.198   0.083  0.8402  2.7060  0.1265
 1615TIP3   OH2 4783   6.317   5.695   0.528  0.1304  0.1826  0.3316
 1615TIP3    H1 4784   6.396   5.702   0.582  1.3984 -0.6986 -1.3583
 1615TIP3    H2 4785   6.329   5.762   0.460 -0.2440 -0.4118 -0.3272
 1616TIP3   OH2 4786   7.854   7.745   5.965  0.6030 -0.1679  0.6369
 1616TIP3    H1 4787   7.869   7.660   5.923  2.0264  1.0017 -1.3261
 1616TIP3    H2 4788   7.937   7.766   6.007  0.1031  0.0353  1.5238
 1617TIP3   OH2 4789   5.856   5.068   0.321  0.3342  0.4797 -0.4587
 1617TIP3    H1 4790   5.869   5.163   0.311  0.7230  0.3296 -1.4284
 1617TIP3    H2 4791   5.771   5.060   0.364  0.6886  1.2977  0.3991
 1618TIP3   OH2 4792   7.410   5.199   0.831  0.0082 -0.0011  0.3648
 1618TIP3    H1 4793   7.414   5.294   0.834 -1.9757  0.0649  2.5033
 1618TIP3    H2 4794   7.472   5.170   0.899  3.6656 -0.4132 -2.9783
 1619TIP3   OH2 4795   5.575   4.181   0.559  0.3132 -0.0507  0.2066
 1619TIP3    H1 4796   5.647   4.135   0.514  0.9525  0.0453  1.1132
 1619TIP3    H2 4797   5.612   4.266   0.582  0.7235 -0.9116  2.8581
 1620TIP3   OH2 4798   1.213   2.701   5.980  0.1115  0.1021  0.2404
 1620TIP3    H1 4799   1.200   2.795   5.970  0.1804  0.0202 -0.5884
 1620TIP3    H2 4800   1.155   2.661   5.915  1.2173 -0.3880 -0.4675
 1621TIP3   OH2 4801   2.868   6.577   1.238 -0.5373  0.3593  0.3346
 1621TIP3    H1 4802   2.896   6.647   1.298 -0.1064  0.5046 -0.0350
 1621TIP3    H2 4803   2.797   6.533   1.285 -0.6839  0.9235  0.6511
 1622TIP3   OH2 4804   5.398   7.542   6.101 -0.0388  0.7503 -0.0001
 1622TIP3    H1 4805   5.430   7.454   6.121 -0.6159  1.0723  2.5384
 1622TIP3    H2 4806   5.468   7.582   6.049  0.9407 -0.6364  0.2155
 1623TIP3   OH2 4807   6.032   3.788   0.511  0.4466 -0.1904  0.1772
 1623TIP3    H1 4808   6.005   3.743   0.591 -0.6762  1.3274  0.6612
 1623TIP3    H2 4809   6.033   3.881   0.534 -0.6703  0.3383 -1.7904
 1624TIP3   OH2 4810   2.090   4.095   1.444 -0.3567 -0.5978 -0.0875
 1624TIP3    H1 4811   2.064   4.131   1.529 -1.0573 -0.1734 -0.4776
 1624TIP3    H2 4812   2.010   4.053   1.411 -0.0997 -0.7071 -0.5689
 1625TIP3   OH2 4813   2.142   1.230   5.445  0.0063  0.2606 -0.2474
 1625TIP3    H1 4814   2.178   1.316   5.469  4.2382 -1.7378  1.1914
 1625TIP3    H2 4815   2.134   1.233   5.350  1.7596  1.6907 -0.3913
 1626TIP3   OH2 4816   2.722   2.291   4.842  0.0273  0.0327  0.6071
 1626TIP3    H1 4817   2.708   2.247   4.758  1.4669 -1.4753  1.1292
 1626TIP3    H2 4818   2.667   2.369   4.838  0.0831 -0.0238 -1.7329
 1627TIP3   OH2 4819   1.033   2.610   5.784  0.0882  0.2474  0.2580
 1627TIP3    H1 4820   1.091   2.618   5.708 -0.5826  0.4028 -0.2467
 1627TIP3    H2 4821   0.961   2.555   5.754 -1.3718  2.2051  0.0346
 1628TIP3   OH2 4822   3.704   7.357   0.193  1.0082  0.4614  0.3541
 1628TIP3    H1 4823   3.742   7.320   0.114 -0.4111 -0.5690  0.1346
 1628TIP3    H2 4824   3.651   7.286   0.230  0.6715  1.3222  1.5471
 1629TIP3   OH2 4825   6.913   7.728   6.444  0.0282  0.2935 -0.2839
 1629TIP3    H1 4826   6.968   7.789   6.394 -1.1510  1.6839  0.0825
 1629TIP3    H2 4827   6.917   7.761   6.534  1.5582 -1.7749  0.4331
 1630TIP3   OH2 4828   2.016   4.195   6.064  0.1426 -0.2812 -0.2785
 1630TIP3    H1 4829   2.061   4.138   6.001  0.4788 -1.2262  0.8124
 1630TIP3    H2 4830   2.086   4.246   6.104  0.1340 -1.0307  0.6914
 1631TIP3   OH2 4831   3.770   0.321   6.564 -0.1272  0.2828 -0.0696
 1631TIP3    H1 4832   3.691   0.281   6.528  0.8137 -0.4267 -1.3794
 1631TIP3    H2 4833   3.837   0.254   6.555  1.4571  2.0839 -2.2294
 1632TIP3   OH2 4834   6.088   5.842   0.461  0.4524  0.2213  0.2112
 1632TIP3    H1 4835   6.139   5.763   0.477 -0.0454  0.1552  1.6012
 1632TIP3    H2 4836   6.041   5.825   0.380  1.7569 -0.1665 -0.4705
 1633TIP3   OH2 4837   2.203   0.164   6.554 -0.2569 -0.2498  0.0116
 1633TIP3    H1 4838   2.283   0.210   6.580  0.8739 -2.1977  0.0261
 1633TIP3    H2 4839   2.190   0.190   6.463  1.1019 -0.9228 -0.3817
 1634TIP3   OH2 4840   3.210   7.986   1.139 -0.3172 -0.4069 -0.1459
 1634TIP3    H1 4841   3.150   7.917   1.168 -0.2812 -0.6538 -0.6603
 1634TIP3    H2 4842   3.158   8.038   1.077 -0.2266 -0.1948 -0.0435
 1635TIP3   OH2 4843   2.318   2.796   5.506  0.2797  0.5070  0.5058
 1635TIP3    H1 4844   2.393   2.777   5.562  0.5433 -1.1818 -0.3841
 1635TIP3    H2 4845   2.355   2.840   5.430  0.4085 -0.3887  0.0342
 1636TIP3   OH2 4846   2.044   4.908   2.039  0.1514  0.1093  0.9182
 1636TIP3    H1 4847   1.955   4.941   2.027 -0.2195 -1.1248  0.1951
 1636TIP3    H2 4848   2.095   4.952   1.971 -0.6818 -2.0254 -1.1648
 1637TIP3   OH2 4849   2.911   2.789   6.223  0.7343 -0.0588 -0.1717
 1637TIP3    H1 4850   2.901   2.694   6.219  1.4502 -0.1254 -0.4990
 1637TIP3    H2 4851   3.004   2.804   6.209  0.3053  0.8261 -2.3441
 1638TIP3   OH2 4852   4.465   4.941   1.312  0.4322 -1.1014  0.5440
 1638TIP3    H1 4853   4.467   4.855   1.353  0.0356 -1.0891  0.5925
 1638TIP3    H2 4854   4.396   4.988   1.360  0.7083 -0.7290  0.5806
 1639TIP3   OH2 4855   6.190   6.288   4.509 -0.0480 -0.3288  0.0584
 1639TIP3    H1 4856   6.228   6.370   4.539  2.0663 -2.2198  2.8525
 1639TIP3    H2 4857   6.220   6.278   4.419 -0.7957  2.1933 -0.4936
 1640TIP3   OH2 4858   3.037   0.070   5.189 -0.9508  0.0729 -0.3431
 1640TIP3    H1 4859   2.956   0.044   5.233 -0.8237  0.3476  0.0554
 1640TIP3    H2 4860   3.081  -0.012   5.168 -1.6445 -0.0938 -1.1438
 1641TIP3   OH2 4861   8.147   0.597   5.810  0.0443  0.2566  0.2319
 1641TIP3    H1 4862   8.104   0.538   5.749  1.3851 -0.7377  0.2350
 1641TIP3    H2 4863   8.165   0.543   5.887  1.7145  0.5247  0.0467
 1642TIP3   OH2 4864   2.039   2.963   4.432 -0.2850 -0.5856 -0.7534
 1642TIP3    H1 4865   1.965   3.016   4.462  0.6815 -0.1260  0.9034
 1642TIP3    H2 4866   2.038   2.886   4.490  1.7630  0.4394  0.7304
 1643TIP3   OH2 4867   1.423   1.548   6.520  0.0494 -0.1849 -0.0809
 1643TIP3    H1 4868   1.419   1.639   6.548  0.1712 -0.2793  0.2514
 1643TIP3    H2 4869   1.362   1.503   6.579  0.8197 -0.5014  0.4807
 1644TIP3   OH2 4870   3.153   0.721   5.849 -0.6170  0.1645 -0.1156
 1644TIP3    H1 4871   3.090   0.764   5.791  1.1111  2.2381 -0.5184
 1644TIP3    H2 4872   3.231   0.708   5.794  1.1574  2.4477  1.7520
 1645TIP3   OH2 4873   0.242   1.924   5.609 -0.2738  0.2217  0.7375
 1645TIP3    H1 4874   0.207   1.844   5.649  0.6249 -0.8145 -0.5128
 1645TIP3    H2 4875   0.329   1.899   5.579 -0.2055  1.5292 -0.1734
 1646TIP3   OH2 4876   2.701   4.528   0.686  0.5466 -0.9442  0.2460
 1646TIP3    H1 4877   2.618   4.565   0.656  1.4374 -0.6440 -1.9650
 1646TIP3    H2 4878   2.697   4.534   0.782 -1.9616 -0.9523  0.1682
 1647TIP3   OH2 4879   1.967   2.647   6.696  0.3605  0.0455  0.6335
 1647TIP3    H1 4880   1.969   2.679   6.606 -0.7182  0.1131  0.6257
 1647TIP3    H2 4881   1.926   2.718   6.746 -1.2483 -0.9316  0.7585
 1648TIP3   OH2 4882   3.442   5.491   0.855 -0.5589  0.1523 -0.2746
 1648TIP3    H1 4883   3.399   5.485   0.770 -0.2153 -2.2394 -0.3161
 1648TIP3    H2 4884   3.534   5.505   0.834 -0.6663  0.9852 -0.2412
 1649TIP3   OH2 4885   5.152   6.237   0.453  0.4677 -0.4365 -0.3948
 1649TIP3    H1 4886   5.209   6.309   0.425  0.7493 -0.9511 -1.1675
 1649TIP3    H2 4887   5.064   6.276   0.457  0.6097 -0.0617 -0.8584
 1650TIP3   OH2 4888   1.452   5.129   0.727  0.0789 -0.3045 -0.1716
 1650TIP3    H1 4889   1.508   5.205   0.742 -2.0237  1.3436 -0.3975
 1650TIP3    H2 4890   1.402   5.120   0.808 -1.9261  0.5098 -1.2910
 1651TIP3   OH2 4891   7.340   2.766   0.656 -0.5524  0.4769  0.3610
 1651TIP3    H1 4892   7.287   2.764   0.736 -2.2233  0.2503 -0.7359
 1651TIP3    H2 4893   7.277   2.754   0.585  1.1483 -1.2526 -0.8924
 1652TIP3   OH2 4894   4.752   7.090   0.651 -0.4319  0.4116  0.3406
 1652TIP3    H1 4895   4.775   7.138   0.571  1.2480  1.3654  1.3638
 1652TIP3    H2 4896   4.697   7.150   0.700 -1.6232 -0.2479 -0.1719
 1653TIP3   OH2 4897   3.999   3.346   0.813 -0.1218 -0.1484 -0.0595
 1653TIP3    H1 4898   3.930   3.398   0.771  0.2911  1.7173  1.4773
 1653TIP3    H2 4899   4.080   3.375   0.770  0.2015  1.1142  1.3808
 1654TIP3   OH2 4900   5.862   5.079   1.963 -0.0323  0.3088 -0.1316
 1654TIP3    H1 4901   5.820   5.000   1.998  1.0614 -0.6807 -1.0277
 1654TIP3    H2 4902   5.953   5.073   1.994  0.9418 -0.5408 -3.0103
 1655TIP3   OH2 4903   6.559   6.137   0.397 -0.4474  0.3694  0.0407
 1655TIP3    H1 4904   6.564   6.177   0.483 -2.5236  2.0886 -0.5998
 1655TIP3    H2 4905   6.546   6.210   0.337 -2.0566 -1.0536 -1.4087
 1656TIP3   OH2 4906   4.340   4.872   0.985 -0.2925  0.0727  0.0879
 1656TIP3    H1 4907   4.367   4.941   1.045  1.0496 -0.6206  0.2937
 1656TIP3    H2 4908   4.336   4.793   1.039  0.8652 -0.5461 -0.7200
 1657TIP3   OH2 4909   0.547   0.067   6.215 -0.2428 -0.2100  0.0969
 1657TIP3    H1 4910   0.594  -0.016   6.222 -1.5300 -0.8523  1.3169
 1657TIP3    H2 4911   0.604   0.122   6.161  0.5590 -1.9162 -0.8488
 1658TIP3   OH2 4912   3.355   0.729   6.403  0.3690  0.0413 -0.1631
 1658TIP3    H1 4913   3.264   0.716   6.429  0.3774  0.2096 -0.0517
 1658TIP3    H2 4914   3.406   0.697   6.477  0.3833  1.5304  0.4943
 1659TIP3   OH2 4915   3.779   4.662   1.102 -0.3520 -0.4064  0.2527
 1659TIP3    H1 4916   3.745   4.739   1.147 -0.7365  0.8243 -2.0937
 1659TIP3    H2 4917   3.718   4.647   1.030  0.6509 -1.9164 -0.3088
 1660TIP3   OH2 4918   8.144   3.242   6.350  0.2692  0.2035  0.5210
 1660TIP3    H1 4919   8.087   3.231   6.426  0.4555  0.6159  0.7230
 1660TIP3    H2 4920   8.218   3.294   6.382  0.9646 -0.6753  0.3587
 1661TIP3   OH2 4921   4.690   4.003   1.570 -0.0983  0.6000 -0.5573
 1661TIP3    H1 4922   4.757   4.035   1.509 -0.6768 -0.0048 -1.5292
 1661TIP3    H2 4923   4.728   3.923   1.607  0.6278  1.4467  0.5759
 1662TIP3   OH2 4924   0.885   3.304   6.479 -0.2606 -0.1303  0.4912
 1662TIP3    H1 4925   0.961   3.346   6.439 -1.5472  1.7926 -0.0065
 1662TIP3    H2 4926   0.899   3.313   6.573 -0.6259  1.6476  0.3838
 1663TIP3   OH2 4927   7.247   7.194   6.293 -0.3117 -1.0016  0.1692
 1663TIP3    H1 4928   7.289   7.113   6.267 -0.2543 -1.5467  1.8736
 1663TIP3    H2 4929   7.153   7.176   6.290 -0.3837 -0.4395 -1.5634
 1664TIP3   OH2 4930   2.418   6.333   0.807  0.5493 -0.9570  0.0936
 1664TIP3    H1 4931   2.489   6.362   0.750  1.0336 -0.5585  0.9004
 1664TIP3    H2 4932   2.419   6.394   0.881  0.6174 -2.1117  1.0593
 1665TIP3   OH2 4933   0.341  -0.023   6.457 -0.0808 -0.4569 -0.0668
 1665TIP3    H1 4934   0.324   0.065   6.491 -0.9372 -1.0593  1.0935
 1665TIP3    H2 4935   0.299  -0.024   6.371 -1.4698 -0.2345  0.5960
 1666TIP3   OH2 4936   6.191   5.025   0.106 -0.1535  0.4507 -0.2271
 1666TIP3    H1 4937   6.152   5.034   0.019  0.0585  0.4015 -0.3263
 1666TIP3    H2 4938   6.165   5.105   0.152  0.5298  0.9130 -0.6414
 1667TIP3   OH2 4939   5.272   3.301   6.088 -0.2762  0.0264  0.3379
 1667TIP3    H1 4940   5.189   3.262   6.059 -1.1336  1.4410  0.8339
 1667TIP3    H2 4941   5.335   3.275   6.021 -2.3676  3.8461 -3.4537
 1668TIP3   OH2 4942   0.064   6.611   0.211 -0.0407 -0.0202  0.0549
 1668TIP3    H1 4943   0.158   6.595   0.202  0.0799  1.8764 -2.8602
 1668TIP3    H2 4944   0.024   6.531   0.178  0.5852  0.6340 -2.4127
 1669TIP3   OH2 4945   0.931   7.879   2.890  0.0458 -0.0845 -0.3619
 1669TIP3    H1 4946   0.975   7.904   2.971 -1.2256  1.3496 -0.0971
 1669TIP3    H2 4947   0.964   7.941   2.824 -0.5091  0.1061 -0.4661
 1670TIP3   OH2 4948   2.277   4.374   0.616 -0.4253  0.3063  0.0476
 1670TIP3    H1 4949   2.244   4.333   0.536  0.8278  0.8071 -0.7479
 1670TIP3    H2 4950   2.348   4.316   0.645 -0.7290  0.2418  0.6856
 1671TIP3   OH2 4951   4.106   7.261   1.151  0.2233 -0.0559  0.2856
 1671TIP3    H1 4952   4.025   7.280   1.200  0.8223  2.1861  0.4677
 1671TIP3    H2 4953   4.165   7.224   1.216 -0.5602 -1.4797  0.2069
 1672TIP3   OH2 4954   3.775   2.664   2.543  0.5311  0.1952 -0.6515
 1672TIP3    H1 4955   3.778   2.570   2.526  1.5276  0.0266  0.4132
 1672TIP3    H2 4956   3.863   2.695   2.520  0.0275  0.9724 -1.5736
 1673TIP3   OH2 4957   0.760   6.660   0.834  0.4620  0.0720 -0.3932
 1673TIP3    H1 4958   0.770   6.756   0.837 -1.6985  0.3082  1.5248
 1673TIP3    H2 4959   0.807   6.629   0.911 -0.3857 -0.2255  0.0078
 1674TIP3   OH2 4960   1.426   0.410   2.870 -0.2793  0.0292  0.2270
 1674TIP3    H1 4961   1.358   0.463   2.827 -0.1607  0.0008 -0.0005
 1674TIP3    H2 4962   1.384   0.325   2.884  0.4046 -0.6987 -1.9382
 1675TIP3   OH2 4963   2.307   0.018   0.581  0.0009  0.0080  0.0846
 1675TIP3    H1 4964   2.308   0.097   0.635 -0.3493 -1.5441  2.4183
 1675TIP3    H2 4965   2.391  -0.024   0.597 -0.5303 -1.0031  0.2901
 1676TIP3   OH2 4966   4.155   0.163   1.765 -0.4042 -0.5280  0.4298
 1676TIP3    H1 4967   4.138   0.252   1.796  0.9762  0.0437 -0.4059
 1676TIP3    H2 4968   4.092   0.148   1.695 -0.7801 -0.2906  0.7205
 1677TIP3   OH2 4969   4.259   0.899   4.103 -0.3194 -0.1677  0.1736
 1677TIP3    H1 4970   4.172   0.870   4.130 -0.2795 -0.9151 -0.4727
 1677TIP3    H2 4971   4.294   0.944   4.179 -1.1734 -0.0853  0.5228
 1678TIP3   OH2 4972   2.938   0.431   3.197  0.0803  0.8036  0.0025
 1678TIP3    H1 4973   2.928   0.438   3.102  0.2830  0.6698 -0.0299
 1678TIP3    H2 4974   2.855   0.396   3.228  0.1360  0.5241 -0.1654
 1679TIP3   OH2 4975   1.504   5.061   1.789 -0.0459  0.1586  0.1158
 1679TIP3    H1 4976   1.595   5.049   1.763 -0.0779 -0.0677  0.1071
 1679TIP3    H2 4977   1.508   5.098   1.877  0.0461 -1.0312  0.6220
 1680TIP3   OH2 4978   7.460   5.863   1.888  0.1862 -0.4206  0.1488
 1680TIP3    H1 4979   7.550   5.862   1.855  0.7478 -0.6017  1.6382
 1680TIP3    H2 4980   7.467   5.901   1.975 -1.1853 -0.4763  0.2906
 1681TIP3   OH2 4981   4.040   3.808   6.720  0.3200 -0.5917 -0.9271
 1681TIP3    H1 4982   4.104   3.805   6.649  2.5065  0.2072  0.9766
 1681TIP3    H2 4983   4.077   3.869   6.784 -2.7006  0.4761 -0.1293
 1682TIP3   OH2 4984   1.994   7.662   2.455  1.4217 -0.4783 -0.2687
 1682TIP3    H1 4985   1.939   7.659   2.533 -0.3129 -0.0461 -1.4267
 1682TIP3    H2 4986   2.040   7.746   2.461 -0.8021  0.8372 -1.0547
 1683TIP3   OH2 4987   4.891   0.050   1.988  0.5582 -0.0690 -0.6718
 1683TIP3    H1 4988   4.918  -0.027   2.038  1.1406 -0.4305 -1.5429
 1683TIP3    H2 4989   4.819   0.087   2.039  1.5336 -0.0985  0.7454
 1684TIP3   OH2 4990   0.991   5.851   0.304  0.1874 -0.0705  0.2358
 1684TIP3    H1 4991   1.065   5.906   0.277  0.3491  0.1498  1.1140
 1684TIP3    H2 4992   0.993   5.854   0.399 -0.2953 -0.9495  0.2780
 1685TIP3   OH2 4993   1.560   7.416   0.673  0.1599 -0.0040  0.2281
 1685TIP3    H1 4994   1.513   7.333   0.679  0.8484 -0.2877  1.8118
 1685TIP3    H2 4995   1.500   7.474   0.625 -0.4717 -1.2962 -0.5507
 1686TIP3   OH2 4996   4.336   0.300   0.259  0.0770 -0.5074  0.3655
 1686TIP3    H1 4997   4.266   0.256   0.211 -0.2504  1.7966 -1.3890
 1686TIP3    H2 4998   4.401   0.320   0.191  1.4685 -0.7513  1.6128
 1687TIP3   OH2 4999   7.375   3.148   5.921 -0.0739 -0.0831 -0.0135
 1687TIP3    H1 5000   7.303   3.208   5.902  1.6487  1.2454 -2.7313
 1687TIP3    H2 5001   7.351   3.066   5.877 -0.7001 -0.2058  0.5512
 1688TIP3   OH2 5002   2.306   5.952   2.466  0.2240  0.5461  0.2187
 1688TIP3    H1 5003   2.252   6.014   2.515 -0.4755 -0.9623  1.3903
 1688TIP3    H2 5004   2.243   5.892   2.426  0.9273  0.1289 -0.2742
 1689TIP3   OH2 5005   2.651   6.218   1.934 -0.0376  0.5708 -0.1326
 1689TIP3    H1 5006   2.664   6.193   2.025  0.2018  1.3897  0.0665
 1689TIP3    H2 5007   2.603   6.145   1.895  0.4761 -0.0859  0.4734
 1690TIP3   OH2 5008   0.455   7.119   2.907 -0.4304 -0.7642  0.0169
 1690TIP3    H1 5009   0.399   7.144   2.980 -0.0802 -0.7703  0.2912
 1690TIP3    H2 5010   0.479   7.028   2.926 -0.1566 -0.6929  0.0123
 1691TIP3   OH2 5011   3.658   6.304   2.666 -0.5361  0.1036  0.4180
 1691TIP3    H1 5012   3.616   6.262   2.741  2.6691 -0.0531  2.1898
 1691TIP3    H2 5013   3.674   6.394   2.695  1.3756 -0.1614  0.2096
 1692TIP3   OH2 5014   1.874   7.820   1.683  0.2259  0.5450  0.3518
 1692TIP3    H1 5015   1.919   7.747   1.640  0.4971  0.9988 -0.1313
 1692TIP3    H2 5016   1.791   7.828   1.636 -0.5771 -0.5651  1.5092
 1693TIP3   OH2 5017   2.719   7.652   0.731  0.0827 -0.1841  0.2040
 1693TIP3    H1 5018   2.681   7.711   0.666  1.7313 -0.2425 -0.8307
 1693TIP3    H2 5019   2.661   7.576   0.730 -0.2774  0.0885 -0.7288
 1694TIP3   OH2 5020   0.662   5.516   1.401  0.1931 -0.4111  0.3430
 1694TIP3    H1 5021   0.713   5.466   1.464  1.2633  1.1218  0.7171
 1694TIP3    H2 5022   0.669   5.466   1.320 -0.6807 -2.0701  1.2617
 1695TIP3   OH2 5023   2.340   6.486   1.302  0.1533 -0.3361  0.3915
 1695TIP3    H1 5024   2.431   6.461   1.314  0.6874 -0.8748 -3.8287
 1695TIP3    H2 5025   2.342   6.581   1.287 -0.1267 -0.1887  1.2260
 1696TIP3   OH2 5026   1.397   3.336   6.823  0.5068  0.1614 -0.1864
 1696TIP3    H1 5027   1.388   3.249   6.784  0.0269  0.5832 -1.0310
 1696TIP3    H2 5028   1.418   3.319   6.915  0.9264 -0.8450 -0.4592
 1697TIP3   OH2 5029   3.165   7.520   0.968 -0.2422  0.2981  0.2043
 1697TIP3    H1 5030   3.108   7.568   0.908  0.0840  0.0937 -0.2734
 1697TIP3    H2 5031   3.109   7.498   1.043 -0.7325  0.2749 -0.1693
 1698TIP3   OH2 5032   0.297   3.215   2.843  0.1324 -0.0948 -0.3925
 1698TIP3    H1 5033   0.217   3.179   2.805 -1.7167  1.7930  1.5102
 1698TIP3    H2 5034   0.305   3.302   2.804  0.8943 -0.0210 -0.0877
 1699TIP3   OH2 5035   3.254   5.983   1.862  0.3068 -0.3425 -0.3686
 1699TIP3    H1 5036   3.205   5.949   1.787  1.5938 -2.2234 -0.4152
 1699TIP3    H2 5037   3.260   5.908   1.922  0.1185  0.8612  1.1837
 1700TIP3   OH2 5038   6.126   2.537   6.473  0.0166  0.6258 -0.3555
 1700TIP3    H1 5039   6.057   2.485   6.430  1.1930 -0.7984 -0.5632
 1700TIP3    H2 5040   6.079   2.606   6.518 -1.4539  0.5809 -1.7638
 1701TIP3   OH2 5041   7.651   3.241   5.915  0.8975 -0.8571 -0.4324
 1701TIP3    H1 5042   7.688   3.260   6.001  0.6337 -1.5625 -0.1561
 1701TIP3    H2 5043   7.564   3.205   5.933 -0.4718  1.9969 -1.1392
 1702TIP3   OH2 5044   4.117   6.428   1.182  0.6194 -0.0516  0.5306
 1702TIP3    H1 5045   4.056   6.357   1.164  0.1210  0.2151  1.1893
 1702TIP3    H2 5046   4.203   6.392   1.157  0.5477 -1.3223  2.0547
 1703TIP3   OH2 5047   1.608   5.517   1.499  0.2892 -0.0192 -0.2652
 1703TIP3    H1 5048   1.532   5.573   1.515 -0.0768 -0.6105  0.0953
 1703TIP3    H2 5049   1.609   5.457   1.573  1.7155  0.6394  0.2570
 1704TIP3   OH2 5050   2.055   0.777   6.615  0.0446 -0.7095 -0.5059
 1704TIP3    H1 5051   1.967   0.793   6.649 -0.9675  0.4048 -3.5433
 1704TIP3    H2 5052   2.056   0.684   6.592 -0.4516 -0.6452 -0.7838
 1705TIP3   OH2 5053   5.208   0.195   0.129 -0.6361  0.2215 -0.3353
 1705TIP3    H1 5054   5.125   0.236   0.105 -1.3768 -0.0961  1.5965
 1705TIP3    H2 5055   5.264   0.268   0.153  0.6328  0.6884 -4.3307
 1706TIP3   OH2 5056   6.995   4.837   5.213 -0.0110 -0.0052 -0.2648
 1706TIP3    H1 5057   6.931   4.768   5.232 -1.9208  1.4891 -1.1215
 1706TIP3    H2 5058   7.078   4.802   5.246 -0.7951 -3.0073 -1.3241
 1707TIP3   OH2 5059   0.498   7.152   1.024 -0.1788 -0.0103  0.1059
 1707TIP3    H1 5060   0.406   7.150   0.997  0.0077  0.0751 -0.5469
 1707TIP3    H2 5061   0.544   7.188   0.948  0.7037 -2.2044 -0.4330
 1708TIP3   OH2 5062   8.310   2.617   6.656  0.3289 -0.0292  0.1631
 1708TIP3    H1 5063   8.235   2.602   6.599 -0.3203  2.6850  0.2195
 1708TIP3    H2 5064   8.274   2.610   6.745  0.4826 -0.2917  0.2054
 1709TIP3   OH2 5065   1.899   7.743   1.945  0.0767 -0.8802 -0.5369
 1709TIP3    H1 5066   1.881   7.748   1.851 -0.8466 -0.6863 -0.3449
 1709TIP3    H2 5067   1.992   7.767   1.952  0.4488 -1.9707 -1.5074
 1710TIP3   OH2 5068   4.727   5.060   0.149  0.6219 -0.6557 -0.0313
 1710TIP3    H1 5069   4.709   5.060   0.243 -0.0363 -0.4406 -0.1603
 1710TIP3    H2 5070   4.812   5.104   0.141  0.5154 -0.3733  0.4293
 1711TIP3   OH2 5071   3.425   4.104   2.318 -0.8519 -0.2692 -0.3934
 1711TIP3    H1 5072   3.338   4.077   2.288 -0.5506 -0.1851 -1.3776
 1711TIP3    H2 5073   3.430   4.197   2.295 -0.3167 -0.3984 -0.8061
 1712TIP3   OH2 5074   3.836   5.230   0.737  0.4955  0.3458 -0.0265
 1712TIP3    H1 5075   3.742   5.214   0.731  0.8071 -1.0537 -1.5743
 1712TIP3    H2 5076   3.864   5.182   0.815  0.6867 -3.2074 -2.2046
 1713TIP3   OH2 5077   2.029   7.130   2.167  0.3655 -0.4420  0.0361
 1713TIP3    H1 5078   2.001   7.064   2.230 -1.3409  1.2104  1.0843
 1713TIP3    H2 5079   1.961   7.197   2.171  1.1931  0.5820 -2.2246
 1714TIP3   OH2 5080   0.329   2.236   6.210 -0.3782 -0.1689  0.2138
 1714TIP3    H1 5081   0.276   2.282   6.275  0.2235 -0.0801  0.6436
 1714TIP3    H2 5082   0.375   2.305   6.162 -1.2173 -0.2009 -0.6656
 1715TIP3   OH2 5083   5.129   1.786   0.212  0.2874 -0.2058  0.0551
 1715TIP3    H1 5084   5.164   1.764   0.299  0.3283 -1.1624 -0.1956
 1715TIP3    H2 5085   5.088   1.705   0.182  1.7252 -0.3646 -1.5294
 1716TIP3   OH2 5086   0.275   3.194   6.608  0.5373 -0.3796  0.0565
 1716TIP3    H1 5087   0.242   3.282   6.625 -0.1121 -0.3411 -1.2969
 1716TIP3    H2 5088   0.363   3.207   6.573  0.0624 -0.2135 -1.0817
 1717TIP3   OH2 5089   1.988   5.367   1.882  0.6394  0.2042  0.1924
 1717TIP3    H1 5090   2.017   5.276   1.875 -0.8502 -0.1991 -0.8190
 1717TIP3    H2 5091   2.067   5.418   1.864  0.7294 -0.8734 -2.7155
 1718TIP3   OH2 5092   4.016   5.941   1.547 -0.3011  0.2750 -0.3148
 1718TIP3    H1 5093   4.081   5.978   1.488  0.0923 -2.4123 -1.6325
 1718TIP3    H2 5094   4.066   5.918   1.626  0.3642 -1.7585 -1.3120
 1719TIP3   OH2 5095   5.538   0.841   1.284  0.3963 -0.0117  0.1091
 1719TIP3    H1 5096   5.459   0.834   1.338  1.1692 -0.2449  1.2313
 1719TIP3    H2 5097   5.600   0.782   1.326  1.1976  0.2354 -0.7241
 1720TIP3   OH2 5098   2.476   7.718   1.238  0.4536  0.0315 -0.2769
 1720TIP3    H1 5099   2.486   7.687   1.327 -1.1735  1.8090  0.5557
 1720TIP3    H2 5100   2.438   7.644   1.191 -1.1874 -0.0366  1.1288
 1721TIP3   OH2 5101   3.415   6.693   1.382  0.1696  0.0316  0.0350
 1721TIP3    H1 5102   3.503   6.714   1.412  0.7603 -0.0817 -1.5869
 1721TIP3    H2 5103   3.414   6.598   1.372  0.3177  0.1568 -1.2899
 1722TIP3   OH2 5104   0.593   7.451   0.876  0.6143  0.5066 -0.1026
 1722TIP3    H1 5105   0.652   7.524   0.858  0.7630  0.2585 -0.6516
 1722TIP3    H2 5106   0.517   7.469   0.821  0.8812 -0.0306 -0.6569
 1723TIP3   OH2 5107   7.133   2.909   6.296  0.1959 -0.1050 -0.0753
 1723TIP3    H1 5108   7.050   2.898   6.250  0.1064  2.0474 -0.4777
 1723TIP3    H2 5109   7.176   2.982   6.252  1.6966 -0.3026  1.0072
 1724TIP3   OH2 5110   5.548   0.924   1.592  0.0533 -0.1487  0.0749
 1724TIP3    H1 5111   5.464   0.878   1.586 -0.1469  0.1788  0.3794
 1724TIP3    H2 5112   5.595   0.897   1.513 -0.0410 -0.9265  0.2817
 1725TIP3   OH2 5113   7.030   0.580   1.166  0.2840  0.5023  0.1672
 1725TIP3    H1 5114   7.031   0.511   1.100 -0.8776  0.9067 -0.2832
 1725TIP3    H2 5115   6.953   0.633   1.144  1.0869  1.8511  0.5914
 1726TIP3   OH2 5116   4.592   0.885   1.313  0.2227 -0.0350 -0.2337
 1726TIP3    H1 5117   4.538   0.940   1.256 -0.2318 -1.0523 -0.8024
 1726TIP3    H2 5118   4.550   0.890   1.398  0.2044  0.5374 -0.2787
 1727TIP3   OH2 5119   0.593   2.686   6.002 -0.4108 -0.3753 -0.1804
 1727TIP3    H1 5120   0.619   2.778   6.012 -2.0855  0.0255  0.6792
 1727TIP3    H2 5121   0.607   2.667   5.910 -0.0619  0.7601 -0.3679
 1728TIP3   OH2 5122   7.658   3.855   5.227  0.2448 -0.1150 -0.2939
 1728TIP3    H1 5123   7.663   3.787   5.160  0.6582 -1.2948  0.9221
 1728TIP3    H2 5124   7.639   3.808   5.308 -0.8828  1.3608  0.3196
 1729TIP3   OH2 5125   2.347   4.046   0.737 -0.5474  0.1791 -0.6730
 1729TIP3    H1 5126   2.386   4.123   0.779  0.2491 -0.2836 -0.5473
 1729TIP3    H2 5127   2.254   4.050   0.761 -0.3859  0.7345 -0.1182
 1730TIP3   OH2 5128   6.171   5.485   6.713  0.7473  0.0112 -0.3598
 1730TIP3    H1 5129   6.169   5.393   6.684 -1.5102 -0.2793  0.6319
 1730TIP3    H2 5130   6.085   5.519   6.690  0.6679  1.1634  1.5978
 1731TIP3   OH2 5131   3.160   6.504   0.744 -0.2084 -0.6387  0.5347
 1731TIP3    H1 5132   3.081   6.545   0.709 -0.2121  0.3420  1.6614
 1731TIP3    H2 5133   3.157   6.523   0.838  2.5143  1.3784  0.2670
 1732TIP3   OH2 5134   8.194   4.096   6.858  0.4135 -0.1602  0.0504
 1732TIP3    H1 5135   8.134   4.116   6.930  1.0014 -1.6410  0.9586
 1732TIP3    H2 5136   8.184   4.171   6.798 -0.2969  0.9423  1.5065
 1733TIP3   OH2 5137   0.534   3.143   5.073 -1.0994  0.6250  0.4938
 1733TIP3    H1 5138   0.582   3.225   5.062 -0.2176 -0.0377 -0.6806
 1733TIP3    H2 5139   0.599   3.075   5.056 -1.6986 -0.3397  1.9353
 1734TIP3   OH2 5140   2.998   7.195   1.941  0.0616 -0.5506 -0.3539
 1734TIP3    H1 5141   3.016   7.154   1.857  0.5233 -1.6203  0.2605
 1734TIP3    H2 5142   3.016   7.288   1.927  1.0944 -0.8694 -1.1527
 1735TIP3   OH2 5143   4.621   4.522   6.907 -0.1361  0.3200 -0.6055
 1735TIP3    H1 5144   4.687   4.534   6.838 -0.3640 -1.9286 -1.2658
 1735TIP3    H2 5145   4.671   4.523   6.989  0.6297 -0.6689 -1.0556
 1736TIP3   OH2 5146   0.706   6.032   5.819 -0.4823  0.2386 -0.6951
 1736TIP3    H1 5147   0.781   5.974   5.807  0.3789  0.9144  1.3076
 1736TIP3    H2 5148   0.638   5.995   5.762  1.0546 -0.9018 -1.8359
 1737TIP3   OH2 5149   2.036   6.868   0.917 -0.4413 -0.1983  0.7888
 1737TIP3    H1 5150   2.036   6.925   0.841  0.5298  0.9888  1.6471
 1737TIP3    H2 5151   1.966   6.805   0.901 -0.2663  0.0529 -1.0567
 1738TIP3   OH2 5152   8.203   7.847   0.950 -0.0122 -0.0047  0.1628
 1738TIP3    H1 5153   8.157   7.836   1.033 -0.5765 -0.3961 -0.1998
 1738TIP3    H2 5154   8.204   7.759   0.911 -2.2316  0.6699 -1.5487
 1739TIP3   OH2 5155   2.322   6.826   0.752 -0.4691 -0.4238  0.0649
 1739TIP3    H1 5156   2.378   6.901   0.773  1.7395 -1.9649 -0.1303
 1739TIP3    H2 5157   2.280   6.804   0.835 -3.2019  2.5801 -0.3925
 1740TIP3   OH2 5158   4.276   6.487   1.569 -0.0207 -0.5511 -0.7145
 1740TIP3    H1 5159   4.208   6.500   1.635  0.5000  0.1878 -0.3181
 1740TIP3    H2 5160   4.249   6.541   1.495  1.9283  2.5586  0.7742
 1741TIP3   OH2 5161   0.612   5.886   4.649  0.0547  0.0615 -0.2651
 1741TIP3    H1 5162   0.704   5.894   4.623 -0.8489  1.5001 -3.2364
 1741TIP3    H2 5163   0.588   5.974   4.678 -0.4622 -0.2485  0.2481
 1742TIP3   OH2 5164   6.946   2.655   6.499 -0.1633  0.0417 -0.1801
 1742TIP3    H1 5165   6.989   2.606   6.428 -0.1752  1.0399 -0.8962
 1742TIP3    H2 5166   6.853   2.644   6.482 -0.1819 -0.6355  0.3324
 1743TIP3   OH2 5167   5.994   0.468   0.439 -0.5593  0.3217  0.1785
 1743TIP3    H1 5168   6.043   0.528   0.496  0.8005 -0.9330  0.3705
 1743TIP3    H2 5169   5.971   0.520   0.362  0.4746  1.1353  0.4157
 1744TIP3   OH2 5170   4.001   7.842   1.199  0.2776  0.2481  0.2590
 1744TIP3    H1 5171   4.077   7.838   1.257 -0.2682  1.0586  1.0246
 1744TIP3    H2 5172   3.993   7.934   1.175  2.1227 -0.4039 -3.2867
 1745TIP3   OH2 5173   7.505   1.737   5.574  0.1467  0.5630 -0.3100
 1745TIP3    H1 5174   7.526   1.812   5.518 -0.7709  1.8709  1.0652
 1745TIP3    H2 5175   7.410   1.727   5.568  0.3450 -1.0557 -1.1579
 1746TIP3   OH2 5176   2.562   7.272   1.278  0.1033 -0.0670 -0.5247
 1746TIP3    H1 5177   2.514   7.190   1.290  0.4980 -0.1758  0.4122
 1746TIP3    H2 5178   2.560   7.314   1.365  1.1798  0.2062 -0.6140
 1747TIP3   OH2 5179   0.150   6.649   3.111 -0.6389 -0.2578 -0.6775
 1747TIP3    H1 5180   0.085   6.624   3.176 -0.3405  0.9503  0.1014
 1747TIP3    H2 5181   0.147   6.579   3.046 -0.4193 -1.8499  1.0008
 1748TIP3   OH2 5182   4.085   6.634   1.381 -0.7856  0.2577 -0.0496
 1748TIP3    H1 5183   4.025   6.613   1.453 -1.2909  2.2766  0.1395
 1748TIP3    H2 5184   4.058   6.575   1.310 -0.6462 -1.3575  1.2117
 1749TIP3   OH2 5185   2.311   7.950   0.048  0.3375  0.7492  0.0653
 1749TIP3    H1 5186   2.254   7.975  -0.025  0.2594  1.1592  0.2679
 1749TIP3    H2 5187   2.334   8.032   0.091 -0.6466  0.4190  1.2709
 1750TIP3   OH2 5188   3.675   7.851   1.574 -0.2340 -0.2944  0.4957
 1750TIP3    H1 5189   3.623   7.811   1.505  2.7146 -1.2795 -1.2633
 1750TIP3    H2 5190   3.644   7.942   1.578 -0.2472 -0.1139 -2.3851
 1751TIP3   OH2 5191   6.289   0.652   1.331  0.3895 -0.1488  0.4084
 1751TIP3    H1 5192   6.285   0.612   1.418 -0.4023 -0.1287  0.3898
 1751TIP3    H2 5193   6.368   0.705   1.332 -0.8175  1.6909  1.9337
 1752TIP3   OH2 5194   2.531   7.502   1.033 -0.4417  0.3994  0.2001
 1752TIP3    H1 5195   2.503   7.428   1.087 -1.1360  0.3059 -0.2809
 1752TIP3    H2 5196   2.541   7.465   0.945  1.1288  0.4448  0.3426
 1753TIP3   OH2 5197   1.952   7.396   3.170 -0.4041  0.1359 -0.0657
 1753TIP3    H1 5198   1.921   7.360   3.253  1.4265 -0.0794  0.5604
 1753TIP3    H2 5199   1.940   7.325   3.107 -1.0237  0.0112  0.1942
 1754TIP3   OH2 5200   1.263   5.114   0.522 -0.4082 -0.0744  0.7862
 1754TIP3    H1 5201   1.321   5.098   0.447 -0.8073 -1.0400  0.6782
 1754TIP3    H2 5202   1.322   5.123   0.597 -0.0523  0.2019  0.4752
 1755TIP3   OH2 5203   0.094   5.661   0.708  0.1657 -0.3616 -0.2356
 1755TIP3    H1 5204   0.120   5.753   0.709  1.5976 -0.7272 -1.7808
 1755TIP3    H2 5205  -0.002   5.663   0.711  0.1575  1.2025 -1.0222
 1756TIP3   OH2 5206   5.308   6.107   1.342 -0.6717 -0.4853  0.2395
 1756TIP3    H1 5207   5.252   6.147   1.408  0.2925  0.9722  0.2065
 1756TIP3    H2 5208   5.252   6.099   1.264 -0.1890  3.4629 -0.6604
 1757TIP3   OH2 5209   7.535   7.871   0.007  0.0435  0.3347 -0.4602
 1757TIP3    H1 5210   7.472   7.814  -0.038  1.2586 -1.2038 -0.2689
 1757TIP3    H2 5211   7.579   7.813   0.069  2.0524  1.2388 -1.0196
 1758TIP3   OH2 5212   1.051   2.933   5.496 -0.5029 -0.1641 -0.4916
 1758TIP3    H1 5213   1.004   2.944   5.579  1.3037 -0.1947  0.5744
 1758TIP3    H2 5214   0.982   2.923   5.430 -1.9754  0.2695  0.9455
 1759TIP3   OH2 5215   7.443   2.532   6.267  0.5291  0.2290 -0.5715
 1759TIP3    H1 5216   7.452   2.461   6.331  2.2597 -0.5747 -1.6517
 1759TIP3    H2 5217   7.523   2.526   6.213 -0.6112  1.2491 -2.4354
 1760TIP3   OH2 5218   4.933   7.814   6.748  0.5787 -0.2484 -0.1008
 1760TIP3    H1 5219   4.905   7.738   6.800  0.0740  0.8041  1.1797
 1760TIP3    H2 5220   5.002   7.854   6.801 -0.7233  1.4905  0.2994
 1761TIP3   OH2 5221   1.843   4.055   0.694 -0.0087  0.2008 -0.2635
 1761TIP3    H1 5222   1.790   4.103   0.758 -0.8236  1.0615 -1.5548
 1761TIP3    H2 5223   1.791   4.058   0.613  0.9292 -1.0066 -0.9270
 1762TIP3   OH2 5224   2.237   6.305   1.098  0.1335  0.1646 -0.2853
 1762TIP3    H1 5225   2.323   6.264   1.094  0.2454  0.3963 -0.2629
 1762TIP3    H2 5226   2.254   6.394   1.129  0.1186  0.8291 -2.0774
 1763TIP3   OH2 5227   4.902   6.729   1.088  0.6341 -0.0502  0.2141
 1763TIP3    H1 5228   4.845   6.683   1.149  0.9633 -0.4598  0.2100
 1763TIP3    H2 5229   4.849   6.803   1.057 -0.1955 -0.8898 -0.4087
 1764TIP3   OH2 5230   1.143   7.528   1.075  0.1324  0.0996  0.6572
 1764TIP3    H1 5231   1.155   7.537   1.170  1.8992  3.2422  0.1866
 1764TIP3    H2 5232   1.214   7.470   1.048 -0.9484 -1.5947  1.3455
 1765TIP3   OH2 5233   1.848   4.594   4.476  0.3524  0.9834  0.6602
 1765TIP3    H1 5234   1.756   4.575   4.455  0.6053  1.5522 -1.0250
 1765TIP3    H2 5235   1.884   4.627   4.395  2.1574  0.4417  1.2277
 1766TIP3   OH2 5236   0.557   1.450   5.936 -0.3448 -0.0340 -0.0141
 1766TIP3    H1 5237   0.626   1.480   5.996  0.9390 -1.2789 -0.8302
 1766TIP3    H2 5238   0.476   1.483   5.974  0.4682 -0.6042  2.2938
 1767TIP3   OH2 5239   2.863   7.832   0.140  0.2288  0.9046 -0.3217
 1767TIP3    H1 5240   2.785   7.793   0.180  0.1882  1.5831  0.2845
 1767TIP3    H2 5241   2.829   7.903   0.086  0.3816  0.7873 -0.5746
 1768TIP3   OH2 5242   4.067   7.281   0.464  0.0474 -0.2926  0.0897
 1768TIP3    H1 5243   4.146   7.286   0.518 -0.1728  0.9470  0.3036
 1768TIP3    H2 5244   4.050   7.187   0.455  1.8524 -0.5888 -0.4174
 1769TIP3   OH2 5245   3.592   2.492   6.470 -0.1860  0.1106  0.0869
 1769TIP3    H1 5246   3.674   2.492   6.520  0.1554  0.5271 -0.4608
 1769TIP3    H2 5247   3.610   2.435   6.396  0.3986  2.0127 -1.2830
 1770TIP3   OH2 5248   8.365   4.404   6.170  0.4465  0.0208  0.5321
 1770TIP3    H1 5249   8.308   4.329   6.185  0.1000 -0.2373 -1.8794
 1770TIP3    H2 5250   8.454   4.368   6.173  0.3265 -0.2709  0.5471
 1771TIP3   OH2 5251   4.372   7.803   0.884  0.1249  0.5196 -0.0129
 1771TIP3    H1 5252   4.446   7.862   0.899 -1.5776  2.5333  0.8189
 1771TIP3    H2 5253   4.361   7.804   0.789  0.6104  0.9415 -0.0704
 1772TIP3   OH2 5254   2.805   6.142   0.521  0.1535 -0.6249  0.2118
 1772TIP3    H1 5255   2.886   6.126   0.474  0.5265  0.5052  0.4639
 1772TIP3    H2 5256   2.828   6.129   0.613  0.2008  0.3081  0.3330
 1773TIP3   OH2 5257   2.809   2.441   6.544  0.2622  0.0069  0.2336
 1773TIP3    H1 5258   2.781   2.436   6.636  0.1146  1.0265  0.2491
 1773TIP3    H2 5259   2.849   2.528   6.536 -0.7941  0.3981 -0.9538
 1774TIP3   OH2 5260   6.725   6.900   2.559 -0.6435 -0.4573  0.6913
 1774TIP3    H1 5261   6.700   6.816   2.520 -1.8370  0.7101 -1.1675
 1774TIP3    H2 5262   6.820   6.903   2.552 -0.7481 -0.7533 -1.2526
 1775TIP3   OH2 5263   5.978   7.046   4.482  0.4068  0.0759 -1.1535
 1775TIP3    H1 5264   5.933   7.116   4.435  1.2438  0.2841 -1.6644
 1775TIP3    H2 5265   6.058   7.088   4.516  0.3101 -0.3269 -0.4229
 1776TIP3   OH2 5266   0.961   7.107   2.980  0.7158 -0.0688 -0.7243
 1776TIP3    H1 5267   0.939   7.164   3.054 -0.1104 -0.4178 -0.7088
 1776TIP3    H2 5268   1.047   7.139   2.951  1.6938 -0.8413  1.2684
 1777TIP3   OH2 5269   2.326   0.764   2.792 -0.1153  0.1165  0.8614
 1777TIP3    H1 5270   2.307   0.857   2.797  0.2585  0.2414 -0.0757
 1777TIP3    H2 5271   2.418   0.759   2.766 -0.3618 -0.5047  0.0796
 1778TIP3   OH2 5272   7.897   7.612   4.113 -0.0724 -0.0697 -0.2592
 1778TIP3    H1 5273   7.827   7.642   4.055  0.7095 -0.1272 -1.2409
 1778TIP3    H2 5274   7.883   7.661   4.194 -2.4212 -1.5203  0.2589
 1779TIP3   OH2 5275   1.375   7.420   5.435  0.0277  0.2663  0.2315
 1779TIP3    H1 5276   1.319   7.498   5.442 -1.3340 -0.9157  3.2294
 1779TIP3    H2 5277   1.314   7.347   5.425  1.1947 -0.7090  0.0732
 1780TIP3   OH2 5278   1.390   0.138   4.391  0.6447  0.1182 -0.5885
 1780TIP3    H1 5279   1.317   0.200   4.390 -0.1046 -0.7430 -2.4767
 1780TIP3    H2 5280   1.407   0.121   4.484 -2.3373 -0.5431 -0.1250
 1781TIP3   OH2 5281   2.250   1.509   3.026 -0.3645 -0.2616 -0.0704
 1781TIP3    H1 5282   2.247   1.461   3.109  1.0069  0.2353  0.2749
 1781TIP3    H2 5283   2.174   1.477   2.977 -1.6168 -0.0417  1.6605
 1782TIP3   OH2 5284   1.931   0.539   5.843  0.4178 -0.0447  0.2962
 1782TIP3    H1 5285   1.914   0.551   5.936  1.2109  0.3828  0.3875
 1782TIP3    H2 5286   2.026   0.529   5.836  0.7414  3.1654 -0.7873
 1783TIP3   OH2 5287   7.363   6.135   4.613 -0.7605  0.4350 -0.4269
 1783TIP3    H1 5288   7.331   6.049   4.640  1.3440 -0.4584 -0.6821
 1783TIP3    H2 5289   7.301   6.164   4.546 -1.1957 -1.1114 -0.7171
 1784TIP3   OH2 5290   2.230   0.498   5.119 -0.1541 -0.1522  0.5247
 1784TIP3    H1 5291   2.147   0.511   5.163  1.0750  1.7074  2.3956
 1784TIP3    H2 5292   2.233   0.566   5.051  0.2590  0.4339  1.1232
 1785TIP3   OH2 5293   7.492   6.908   4.855 -0.3013  0.0142 -0.3261
 1785TIP3    H1 5294   7.522   6.885   4.943 -0.2741 -0.2663 -0.4079
 1785TIP3    H2 5295   7.413   6.856   4.842 -1.4617  1.6082  0.3277
 1786TIP3   OH2 5296   2.054   0.612   6.105  0.2284 -0.0127 -0.1199
 1786TIP3    H1 5297   2.034   0.697   6.066  0.5787  0.1827  0.1243
 1786TIP3    H2 5298   2.141   0.622   6.142  0.4552 -0.6166 -0.4833
 1787TIP3   OH2 5299   6.419   7.738   4.398 -0.0732  0.2169  0.6243
 1787TIP3    H1 5300   6.394   7.668   4.337  2.4004 -0.9072  0.8592
 1787TIP3    H2 5301   6.480   7.697   4.458  0.6237  2.3487  1.4200
 1788TIP3   OH2 5302   2.071   0.197   4.498 -0.0895  0.1562  0.2217
 1788TIP3    H1 5303   2.111   0.224   4.415  0.7380 -1.6079  0.0345
 1788TIP3    H2 5304   1.977   0.202   4.481  0.0210  2.5423  0.0882
 1789TIP3   OH2 5305   0.382   0.562   5.416  0.2623  0.0841  0.0255
 1789TIP3    H1 5306   0.354   0.583   5.327  0.0553  0.6062  0.2148
 1789TIP3    H2 5307   0.477   0.565   5.413  0.3153 -1.4097 -0.5505
 1790TIP3   OH2 5308   6.468   6.682   4.293  0.2218 -0.2288 -0.2950
 1790TIP3    H1 5309   6.480   6.611   4.356 -0.6010 -0.3754 -0.2976
 1790TIP3    H2 5310   6.519   6.656   4.217 -1.1237 -1.4455 -0.7931
 1791TIP3   OH2 5311   6.649   6.700   3.196 -1.1861 -0.1898  0.4421
 1791TIP3    H1 5312   6.711   6.661   3.258 -0.5155 -1.2620 -0.8767
 1791TIP3    H2 5313   6.603   6.768   3.247 -0.4602 -0.8612  2.0196
 1792TIP3   OH2 5314   6.944   7.511   5.111 -0.5499 -0.3385  0.5444
 1792TIP3    H1 5315   6.980   7.524   5.199  0.4909  0.4075  0.0080
 1792TIP3    H2 5316   7.010   7.459   5.066 -1.3853 -1.2988  0.3898
 1793TIP3   OH2 5317   1.517   4.330   6.129  0.2935 -0.2193 -0.0916
 1793TIP3    H1 5318   1.611   4.344   6.117  0.0487  1.2687 -0.3291
 1793TIP3    H2 5319   1.476   4.378   6.057 -0.6759 -0.2389  0.4408
 1794TIP3   OH2 5320   0.522   0.342   4.705 -0.0965 -0.3676  0.4900
 1794TIP3    H1 5321   0.539   0.344   4.799  1.9706  1.5662  0.1239
 1794TIP3    H2 5322   0.583   0.277   4.671 -0.1548 -0.3483  0.3479
 1795TIP3   OH2 5323   7.170   6.656   4.321 -0.1118 -0.3451 -0.1662
 1795TIP3    H1 5324   7.222   6.668   4.242  0.1337 -0.1612  0.0218
 1795TIP3    H2 5325   7.149   6.745   4.350 -3.0756 -0.4065 -1.8927
 1796TIP3   OH2 5326   1.198   0.989   3.052 -0.0059 -0.1862  0.0717
 1796TIP3    H1 5327   1.119   0.987   2.999 -0.0405  0.8862  0.0764
 1796TIP3    H2 5328   1.218   1.082   3.063  1.7911 -0.4387 -0.7403
 1797TIP3   OH2 5329   0.415   6.878   1.490  0.0623  0.0591  0.2581
 1797TIP3    H1 5330   0.496   6.928   1.479 -0.1935  0.2814 -0.6155
 1797TIP3    H2 5331   0.376   6.913   1.570 -0.9438  2.4245 -1.2139
 1798TIP3   OH2 5332   2.327   0.937   3.477  0.2993  0.1260  0.6024
 1798TIP3    H1 5333   2.329   0.985   3.560  1.2427 -0.8703  1.1754
 1798TIP3    H2 5334   2.392   0.980   3.422  1.2382 -0.5479  1.1628
 1799TIP3   OH2 5335   0.098   0.252   6.576  0.2390 -0.2776  0.1459
 1799TIP3    H1 5336   0.149   0.250   6.496 -0.0104 -1.6808  0.0020
 1799TIP3    H2 5337   0.109   0.341   6.610  0.1489  0.3970 -1.5577
 1800TIP3   OH2 5338   5.414   6.886   5.470 -0.1988  0.1082 -0.2240
 1800TIP3    H1 5339   5.362   6.943   5.526  0.4912  0.5875 -0.0783
 1800TIP3    H2 5340   5.459   6.826   5.530  0.1741  0.3178 -0.2924
 1801TIP3   OH2 5341   7.621   6.558   4.660 -0.3033  0.0330 -0.1864
 1801TIP3    H1 5342   7.685   6.622   4.628 -1.1550  1.4313  0.8269
 1801TIP3    H2 5343   7.629   6.484   4.601  0.0257  1.4854 -1.9950
 1802TIP3   OH2 5344   0.795   6.467   6.119  0.1737  0.1775 -0.5763
 1802TIP3    H1 5345   0.850   6.466   6.197  0.3244  0.8306 -0.6691
 1802TIP3    H2 5346   0.723   6.526   6.142 -1.5084 -2.0963  0.2271
 1803TIP3   OH2 5347   2.351   1.008   3.878 -0.6832  0.0035  0.1266
 1803TIP3    H1 5348   2.261   1.035   3.897 -0.5483 -0.1583  1.0009
 1803TIP3    H2 5349   2.347   0.913   3.873 -0.2549 -0.1084  1.7946
 1804TIP3   OH2 5350   1.404   0.469   4.195  0.7137  0.0328 -0.4847
 1804TIP3    H1 5351   1.467   0.540   4.203  0.2938  0.5060 -1.3052
 1804TIP3    H2 5352   1.320   0.510   4.216  0.7171 -0.6886  1.0425
 1805TIP3   OH2 5353   1.459   1.250   4.945  0.2711  0.1196 -0.2393
 1805TIP3    H1 5354   1.511   1.258   5.025 -2.4666  0.6140  1.5252
 1805TIP3    H2 5355   1.504   1.305   4.882  3.3677 -1.4866  0.4396
 1806TIP3   OH2 5356   7.499   1.776   3.697  0.0627  0.4302  0.0875
 1806TIP3    H1 5357   7.570   1.711   3.701 -0.7440 -0.3476  2.2184
 1806TIP3    H2 5358   7.543   1.857   3.668  1.1101 -0.9716 -2.4259
 1807TIP3   OH2 5359   6.393   6.992   4.676 -0.1934 -0.3546  0.2391
 1807TIP3    H1 5360   6.386   7.009   4.582  0.1599 -1.5662 -0.0172
 1807TIP3    H2 5361   6.308   6.957   4.701 -0.3412  0.1195  0.4103
 1808TIP3   OH2 5362   0.581   1.154   3.155 -0.1681 -0.1763  0.4255
 1808TIP3    H1 5363   0.534   1.076   3.127 -0.0811 -0.0389 -0.1075
 1808TIP3    H2 5364   0.670   1.142   3.121  0.2496 -0.5519  1.6463
 1809TIP3   OH2 5365   5.080   5.734   3.285  0.0110  0.4207  0.6002
 1809TIP3    H1 5366   5.050   5.792   3.355  0.7108  1.6572 -0.1231
 1809TIP3    H2 5367   5.150   5.782   3.241  0.8249 -1.1037  0.1994
 1810TIP3   OH2 5368   7.211   6.901   5.944  0.3309  0.0897 -0.3347
 1810TIP3    H1 5369   7.199   6.995   5.959  0.4813  0.0384  0.0932
 1810TIP3    H2 5370   7.131   6.860   5.977  0.0677  0.1076 -0.9378
 1811TIP3   OH2 5371   1.948   0.406   1.790  0.0486 -0.0687  0.1301
 1811TIP3    H1 5372   1.959   0.406   1.886  0.8667 -0.0373  0.0444
 1811TIP3    H2 5373   1.942   0.313   1.767 -1.7890 -0.0198  0.3815
 1812TIP3   OH2 5374   2.364   7.983   3.230 -0.2933  0.3268  0.3901
 1812TIP3    H1 5375   2.342   8.017   3.143 -0.7438 -1.2813 -0.1267
 1812TIP3    H2 5376   2.279   7.963   3.270  0.0130 -1.1053  0.3233
 1813TIP3   OH2 5377   0.608   6.644   4.567 -0.5373  0.3690  0.1135
 1813TIP3    H1 5378   0.530   6.608   4.524 -1.6588  0.6509  1.8250
 1813TIP3    H2 5379   0.601   6.612   4.657  2.1098 -0.8107 -0.0448
 1814TIP3   OH2 5380   2.600   1.510   5.400 -0.0826 -0.4023  0.2270
 1814TIP3    H1 5381   2.545   1.542   5.471 -0.2821 -0.2376  0.0021
 1814TIP3    H2 5382   2.568   1.422   5.382  0.9725 -1.0413  1.3658
 1815TIP3   OH2 5383   7.864   8.003   3.597 -0.3355 -0.1917 -0.2530
 1815TIP3    H1 5384   7.792   7.952   3.632  0.0482 -0.2362  0.4690
 1815TIP3    H2 5385   7.920   7.939   3.553 -0.1487 -0.3126  0.1635
 1816TIP3   OH2 5386   7.165   7.140   5.609 -0.5786 -0.3467 -0.0522
 1816TIP3    H1 5387   7.076   7.175   5.613 -0.5165 -0.1197 -0.7059
 1816TIP3    H2 5388   7.202   7.159   5.695 -0.5198  1.2673 -0.4254
 1817TIP3   OH2 5389   0.448   7.163   5.717 -0.7402  0.1118  0.0166
 1817TIP3    H1 5390   0.428   7.257   5.715 -0.0309  0.2962  0.9949
 1817TIP3    H2 5391   0.543   7.158   5.714 -0.7757 -0.5786 -0.0822
 1818TIP3   OH2 5392   2.979   0.758   2.115  0.1844 -1.0796 -0.6473
 1818TIP3    H1 5393   3.034   0.703   2.170  0.5659  0.0888  0.1737
 1818TIP3    H2 5394   2.989   0.723   2.027  1.8433 -1.1900 -0.4189
 1819TIP3   OH2 5395   2.356   0.597   1.087  0.5758 -0.0843 -0.0764
 1819TIP3    H1 5396   2.444   0.617   1.055  0.5551  0.5838  0.2778
 1819TIP3    H2 5397   2.322   0.533   1.025  1.2423 -0.2052 -0.3202
 1820TIP3   OH2 5398   3.410   0.144   2.950 -0.2881  0.8734 -0.1408
 1820TIP3    H1 5399   3.461   0.076   2.993  0.1073 -0.0133 -1.9713
 1820TIP3    H2 5400   3.406   0.117   2.858 -1.0193  2.7763 -0.6939
 1821TIP3   OH2 5401   6.135   6.711   4.199  0.0291  0.0655 -0.3427
 1821TIP3    H1 5402   6.070   6.781   4.208  0.0864  0.0893 -0.1134
 1821TIP3    H2 5403   6.168   6.697   4.287 -0.0711 -0.3388 -0.3682
 1822TIP3   OH2 5404   3.079   0.740   2.870  0.2580 -0.3531  0.0920
 1822TIP3    H1 5405   3.028   0.662   2.891 -0.0545 -0.1331  0.1432
 1822TIP3    H2 5406   3.062   0.755   2.777  0.6080 -0.5607 -0.0062
 1823TIP3   OH2 5407   1.959   1.469   2.643 -0.4043 -0.6057 -0.0753
 1823TIP3    H1 5408   2.050   1.474   2.613 -0.2323 -0.9977  0.3826
 1823TIP3    H2 5409   1.908   1.510   2.573 -0.0014 -1.5015 -0.8968
 1824TIP3   OH2 5410   8.443   7.520   3.729  0.1326  0.9557  0.1394
 1824TIP3    H1 5411   8.380   7.466   3.681  0.0516  0.8628  0.3509
 1824TIP3    H2 5412   8.528   7.484   3.703  0.0769  0.6815  0.3290
 1825TIP3   OH2 5413   4.077   0.465   4.041  0.3145 -0.2446 -0.1242
 1825TIP3    H1 5414   4.118   0.383   4.014  1.0350  0.1251 -0.1782
 1825TIP3    H2 5415   4.137   0.533   4.009 -0.6563  0.3320 -0.7433
 1826TIP3   OH2 5416   7.076   0.342   2.367  0.3093  0.1964  0.0574
 1826TIP3    H1 5417   7.095   0.274   2.303 -1.6964 -0.6351  0.3045
 1826TIP3    H2 5418   7.043   0.416   2.315  2.1394  0.8737 -0.1760
 1827TIP3   OH2 5419   4.876   0.743   2.659  0.1718 -1.0043 -0.5108
 1827TIP3    H1 5420   4.826   0.749   2.577  1.6688  1.5036 -1.2993
 1827TIP3    H2 5421   4.882   0.833   2.690  0.3549 -1.8307  1.9623
 1828TIP3   OH2 5422   0.894   7.106   5.161 -0.4582 -0.3951  0.1108
 1828TIP3    H1 5423   0.906   7.035   5.098  1.7294  1.0609 -1.1828
 1828TIP3    H2 5424   0.975   7.157   5.156 -1.1460  1.0225  2.5136
 1829TIP3   OH2 5425   0.975   7.341   3.195 -0.5462 -0.8838  0.2923
 1829TIP3    H1 5426   1.013   7.429   3.187 -1.0300 -0.7067 -0.1499
 1829TIP3    H2 5427   1.031   7.296   3.257 -0.3350 -0.2326  0.5830
 1830TIP3   OH2 5428   1.542   1.790   3.522  0.1114 -0.1349 -0.0286
 1830TIP3    H1 5429   1.520   1.804   3.614  1.0112  0.7181  0.0600
 1830TIP3    H2 5430   1.467   1.825   3.474  0.0613  0.2944  0.3536
 1831TIP3   OH2 5431   7.917   7.179   1.825 -0.7515 -0.1164 -0.3396
 1831TIP3    H1 5432   8.008   7.206   1.819 -0.5034 -0.8229  0.1908
 1831TIP3    H2 5433   7.918   7.084   1.809 -1.1947 -0.4064  1.2300
 1832TIP3   OH2 5434   3.259   2.337   2.308 -0.1742  0.0235  0.1361
 1832TIP3    H1 5435   3.229   2.427   2.297  2.4661  0.7676 -1.2992
 1832TIP3    H2 5436   3.299   2.315   2.224  0.0783 -2.1611  0.8085
 1833TIP3   OH2 5437   2.552   2.168   5.396 -0.2264 -0.3421  0.3234
 1833TIP3    H1 5438   2.475   2.209   5.356  0.2024 -1.0286 -1.2485
 1833TIP3    H2 5439   2.576   2.227   5.467 -0.9728  0.9682 -0.4838
 1834TIP3   OH2 5440   3.830   1.130   4.125 -0.4608 -0.0495  0.8996
 1834TIP3    H1 5441   3.817   1.143   4.219 -0.6991  1.1943  0.7131
 1834TIP3    H2 5442   3.751   1.086   4.095 -1.7483  2.2352  0.7880
 1835TIP3   OH2 5443   7.164   7.043   4.093 -0.2232 -0.0552  0.4658
 1835TIP3    H1 5444   7.147   6.980   4.163  1.1165 -1.7683 -0.7084
 1835TIP3    H2 5445   7.083   7.045   4.043 -0.0449 -1.4479  0.0833
 1836TIP3   OH2 5446   1.664   1.132   3.213 -0.0678  0.2723  0.1512
 1836TIP3    H1 5447   1.722   1.056   3.217 -0.7669 -0.3554 -1.3127
 1836TIP3    H2 5448   1.576   1.095   3.206 -0.5354  1.2187  0.8671
 1837TIP3   OH2 5449   2.511   1.021   4.112  0.5454  0.3452  0.1868
 1837TIP3    H1 5450   2.486   1.020   4.019  2.0300 -0.7548 -0.2243
 1837TIP3    H2 5451   2.446   0.965   4.155  0.1848  0.3946 -0.2929
 1838TIP3   OH2 5452   3.476   1.771   3.335  0.4378 -0.0455  0.3039
 1838TIP3    H1 5453   3.447   1.831   3.403 -1.9383 -0.0511 -0.6633
 1838TIP3    H2 5454   3.427   1.690   3.352  2.3127 -1.1714  0.5561
 1839TIP3   OH2 5455   0.222   6.344   3.897 -0.5657 -0.6701  0.6167
 1839TIP3    H1 5456   0.148   6.310   3.847 -0.3780 -1.5871  0.9616
 1839TIP3    H2 5457   0.299   6.304   3.855 -0.2484  0.4068  0.1513
 1840TIP3   OH2 5458   0.705   0.197   4.558  0.0110  0.1956  0.0045
 1840TIP3    H1 5459   0.735   0.107   4.544 -0.8870  0.1273 -1.5966
 1840TIP3    H2 5460   0.734   0.243   4.480  0.7860  1.3935  0.9833
 1841TIP3   OH2 5461   7.391   7.865   2.556 -0.1455  0.2820 -0.6706
 1841TIP3    H1 5462   7.467   7.904   2.599  0.0756 -0.3868 -0.4403
 1841TIP3    H2 5463   7.346   7.817   2.625  0.4841 -1.2084 -1.2558
 1842TIP3   OH2 5464   1.863   0.063   5.110  0.2971 -0.2471  0.0093
 1842TIP3    H1 5465   1.801   0.126   5.073 -0.4420  0.1778  1.9087
 1842TIP3    H2 5466   1.853  -0.015   5.056  0.4712  0.9160 -1.7268
 1843TIP3   OH2 5467   8.237   6.988   3.409 -0.6576 -0.2449 -0.0705
 1843TIP3    H1 5468   8.294   7.023   3.477 -0.0077 -2.0707  0.3527
 1843TIP3    H2 5469   8.151   6.981   3.451 -0.2222 -1.5218  0.6358
 1844TIP3   OH2 5470   0.424   7.833   2.276  0.0356  0.1089 -0.3981
 1844TIP3    H1 5471   0.386   7.857   2.360  1.2704  0.6401  0.0180
 1844TIP3    H2 5472   0.517   7.853   2.285  0.6511 -2.3523 -0.9761
 1845TIP3   OH2 5473   4.052   0.964   2.261  0.0422 -0.6515  0.1337
 1845TIP3    H1 5474   4.059   0.964   2.165  2.6176 -2.8878  0.2505
 1845TIP3    H2 5475   4.121   1.022   2.291 -2.5969  2.3856  0.6532
 1846TIP3   OH2 5476   0.505   7.002   5.984 -0.2492 -0.3980 -0.3032
 1846TIP3    H1 5477   0.561   7.031   6.056  1.9446  0.6548 -2.3862
 1846TIP3    H2 5478   0.541   6.918   5.957  0.2768  0.2181 -1.5653
 1847TIP3   OH2 5479   1.491   1.717   4.576  0.0814 -0.8008 -0.6783
 1847TIP3    H1 5480   1.421   1.693   4.516 -0.2283 -0.6458 -0.3839
 1847TIP3    H2 5481   1.510   1.809   4.557 -1.8564  0.0569  1.2358
 1848TIP3   OH2 5482   0.877   0.369   4.713 -0.2240 -0.5307  0.0325
 1848TIP3    H1 5483   0.857   0.310   4.640 -1.5941  0.1550 -0.1678
 1848TIP3    H2 5484   0.901   0.452   4.672  0.2684 -0.5229  0.3369
 1849TIP3   OH2 5485   1.579   1.467   3.935 -0.0502 -0.5628  0.6109
 1849TIP3    H1 5486   1.486   1.456   3.955 -0.6019 -0.5470 -1.8499
 1849TIP3    H2 5487   1.597   1.399   3.869  1.0089  1.1869 -0.9327
 1850TIP3   OH2 5488   0.693   7.139   3.505  0.0645  0.2520 -0.3187
 1850TIP3    H1 5489   0.625   7.075   3.528  0.6753  0.4030  2.0933
 1850TIP3    H2 5490   0.645   7.219   3.486 -0.6085 -0.4606 -1.6599
 1851TIP3   OH2 5491   3.812   1.109   4.421 -0.2538  1.3704 -0.2018
 1851TIP3    H1 5492   3.895   1.092   4.465 -0.6529 -0.9492 -0.2661
 1851TIP3    H2 5493   3.759   1.154   4.487 -0.7739 -1.8836  1.7524
 1852TIP3   OH2 5494   4.378   8.040   5.008 -0.1276  0.1045 -0.1665
 1852TIP3    H1 5495   4.421   7.957   5.026  0.5764  0.4322 -0.3005
 1852TIP3    H2 5496   4.320   8.022   4.935  0.6217 -0.0842 -0.7207
 1853TIP3   OH2 5497   3.980   2.097   4.801 -0.1350  0.0344  0.1840
 1853TIP3    H1 5498   3.949   2.010   4.824 -1.1547  1.0581  2.9203
 1853TIP3    H2 5499   3.901   2.148   4.785  0.4819  0.1032 -3.0211
 1854TIP3   OH2 5500   3.200   0.441   2.973 -0.9076  0.2457  0.4504
 1854TIP3    H1 5501   3.196   0.492   2.892  0.8378 -0.0550  0.1684
 1854TIP3    H2 5502   3.243   0.499   3.036  1.2705 -0.9404  0.0757
 1855TIP3   OH2 5503   1.690   0.896   5.841 -0.1223 -0.6263  0.4677
 1855TIP3    H1 5504   1.622   0.940   5.791 -0.9406  0.1084  2.1978
 1855TIP3    H2 5505   1.645   0.824   5.884  0.2189 -0.2187  1.5098
 1856TIP3   OH2 5506   8.183   7.217   4.489 -0.2880  0.1778  0.2446
 1856TIP3    H1 5507   8.095   7.255   4.481  0.3954  1.6652 -0.4434
 1856TIP3    H2 5508   8.178   7.162   4.567 -1.6640  0.7284  0.5697
 1857TIP3   OH2 5509   2.147   7.636   5.341  0.1552  0.0366  0.7464
 1857TIP3    H1 5510   2.065   7.594   5.367  0.0637 -0.2966 -0.0630
 1857TIP3    H2 5511   2.177   7.681   5.420 -0.4589 -0.4005  1.2346
 1858TIP3   OH2 5512   1.945   0.857   1.576 -0.8559  0.3653  0.6244
 1858TIP3    H1 5513   2.040   0.849   1.573 -1.0487 -1.7892 -0.8879
 1858TIP3    H2 5514   1.922   0.903   1.495 -1.3561 -2.7405 -1.0901
 1859TIP3   OH2 5515   2.370   0.378   3.510  0.5255 -0.3736 -0.5061
 1859TIP3    H1 5516   2.437   0.446   3.511  0.6125 -0.4581 -0.5698
 1859TIP3    H2 5517   2.401   0.314   3.446  2.0869 -2.1284  1.9229
 1860TIP3   OH2 5518   3.510   1.573   1.506  0.1183 -0.0485 -0.0310
 1860TIP3    H1 5519   3.426   1.527   1.506 -0.0383  0.2347  0.6623
 1860TIP3    H2 5520   3.486   1.666   1.516  0.6018 -0.1448  2.2889
 1861TIP3   OH2 5521   7.447   7.912   4.333 -0.2694  0.3129 -0.0924
 1861TIP3    H1 5522   7.518   7.910   4.268 -0.6498  2.2876 -0.6000
 1861TIP3    H2 5523   7.373   7.951   4.286 -0.8542  0.8251  1.2390
 1862TIP3   OH2 5524   3.329   0.371   4.442  0.3331 -0.1298  0.5425
 1862TIP3    H1 5525   3.252   0.428   4.447 -0.3416 -0.6068 -3.0021
 1862TIP3    H2 5526   3.294   0.283   4.456  0.6018 -0.1544  1.0805
 1863TIP3   OH2 5527   1.509   0.695   4.387  0.1944  0.3346  0.0124
 1863TIP3    H1 5528   1.573   0.758   4.421 -0.7995  0.3097  2.0451
 1863TIP3    H2 5529   1.441   0.749   4.346  0.4838  0.4709 -0.2845
 1864TIP3   OH2 5530   0.686   7.363   5.783  0.2159 -0.1117  0.0476
 1864TIP3    H1 5531   0.760   7.422   5.771 -0.7840  0.9554 -1.0943
 1864TIP3    H2 5532   0.705   7.288   5.726 -0.3953  0.9821 -1.6552
 1865TIP3   OH2 5533   2.235   0.992   2.984 -0.1770  0.5293 -0.2231
 1865TIP3    H1 5534   2.199   1.024   3.067  1.6350 -2.8415  1.9677
 1865TIP3    H2 5535   2.324   1.027   2.982  0.3892 -0.8542  0.1656
 1866TIP3   OH2 5536   3.180   1.655   5.088  0.0088  0.1074  0.1599
 1866TIP3    H1 5537   3.100   1.690   5.128  0.0576 -0.0068  0.3586
 1866TIP3    H2 5538   3.202   1.578   5.141 -1.6392 -1.8772 -1.9060
 1867TIP3   OH2 5539   1.662   7.768   4.521 -0.0862  0.2310 -0.1595
 1867TIP3    H1 5540   1.660   7.841   4.583  1.8666  0.7978 -0.7405
 1867TIP3    H2 5541   1.647   7.690   4.574 -0.2752  0.8751  0.7411
 1868TIP3   OH2 5542   3.238   0.902   4.435 -0.1945  0.0158  0.1034
 1868TIP3    H1 5543   3.259   0.930   4.524 -2.8613  0.2400  0.7205
 1868TIP3    H2 5544   3.271   0.972   4.379  1.7038 -0.2318  0.8908
 1869TIP3   OH2 5545   0.716   7.913   2.294  0.2427 -0.2021 -0.3811
 1869TIP3    H1 5546   0.715   7.877   2.205 -0.3342  2.3661 -1.4574
 1869TIP3    H2 5547   0.808   7.928   2.313  0.2385  1.0105 -1.3010
 1870TIP3   OH2 5548   1.617   6.703   5.754 -0.0350 -0.6300 -0.4105
 1870TIP3    H1 5549   1.523   6.713   5.766  0.1260 -1.3777  1.8058
 1870TIP3    H2 5550   1.649   6.675   5.840  2.0533 -1.4772 -1.4201
 1871TIP3   OH2 5551   0.596   8.023   2.723  0.2894  0.5139  0.4400
 1871TIP3    H1 5552   0.616   8.070   2.642 -1.5881  1.5819  0.5474
 1871TIP3    H2 5553   0.572   7.935   2.694 -1.2436  1.1421 -0.2751
 1872TIP3   OH2 5554   0.567   7.798   5.709 -0.0861 -0.2436  0.1655
 1872TIP3    H1 5555   0.632   7.782   5.640 -0.6922 -0.1905 -0.4117
 1872TIP3    H2 5556   0.538   7.888   5.695  0.1172 -0.0825  0.7652
 1873TIP3   OH2 5557   4.066   1.947   3.287 -0.4358  0.0443  0.2811
 1873TIP3    H1 5558   4.149   1.906   3.309 -1.2694 -1.0543  1.4330
 1873TIP3    H2 5559   4.050   2.009   3.358 -2.0677 -1.9428  1.7251
 1874TIP3   OH2 5560   2.600   0.740   2.839 -0.5799 -0.0116 -0.1661
 1874TIP3    H1 5561   2.555   0.667   2.881  0.6031 -0.4901  0.2916
 1874TIP3    H2 5562   2.613   0.803   2.909  2.5444 -1.3567  0.5354
 1875TIP3   OH2 5563   3.570   1.871   1.353 -0.1761  0.0544 -0.4958
 1875TIP3    H1 5564   3.655   1.889   1.313  0.0902  0.0739  0.0668
 1875TIP3    H2 5565   3.568   1.928   1.430 -1.0912  0.7478 -1.0110
 1876TIP3   OH2 5566   3.199   0.437   1.439 -0.3171  0.0930 -0.0837
 1876TIP3    H1 5567   3.118   0.411   1.396  0.7258  1.0433 -2.7557
 1876TIP3    H2 5568   3.223   0.362   1.493 -3.0138 -0.1446  0.8233
 1877TIP3   OH2 5569   3.008   1.535   2.642  0.4433  0.1316 -0.2132
 1877TIP3    H1 5570   3.099   1.566   2.642  0.3741  0.3553  0.6269
 1877TIP3    H2 5571   2.992   1.508   2.733  0.7562 -3.1937 -1.0965
 1878TIP3   OH2 5572   0.911   6.966   1.646  0.0067 -0.2832 -0.2448
 1878TIP3    H1 5573   0.953   6.930   1.568  0.6809 -0.2606  0.1049
 1878TIP3    H2 5574   0.902   6.892   1.705 -2.1414 -0.6777 -1.0303
 1879TIP3   OH2 5575   8.418   7.538   4.869 -0.1414 -0.0482  0.7320
 1879TIP3    H1 5576   8.459   7.456   4.842 -2.5173 -1.2293  0.5231
 1879TIP3    H2 5577   8.453   7.603   4.808 -0.5036 -1.4831 -1.0868
 1880TIP3   OH2 5578   0.987   7.455   3.700 -0.0789  0.3340  0.7972
 1880TIP3    H1 5579   1.052   7.430   3.765  0.2132 -0.4015  0.2289
 1880TIP3    H2 5580   0.904   7.421   3.734  0.4205 -2.1639 -0.3407
 1881TIP3   OH2 5581   4.191   1.180   1.858 -0.0316 -0.3341 -0.8418
 1881TIP3    H1 5582   4.145   1.192   1.941  1.5027  1.8537 -0.2846
 1881TIP3    H2 5583   4.142   1.233   1.795  1.3281  1.5105 -0.3772
 1882TIP3   OH2 5584   7.890   6.982   2.993 -0.5547  0.3954 -0.1708
 1882TIP3    H1 5585   7.919   7.058   3.043 -0.1659 -0.2063  0.5262
 1882TIP3    H2 5586   7.847   7.019   2.916  1.2978  1.2987 -0.7861
 1883TIP3   OH2 5587   0.432   2.038   0.637 -0.0331 -0.3870  0.4614
 1883TIP3    H1 5588   0.488   1.971   0.597  0.2314  0.5611 -0.7985
 1883TIP3    H2 5589   0.468   2.121   0.605 -1.0208  0.3055  1.1326
 1884TIP3   OH2 5590   2.017   0.115   4.073 -0.6640 -0.4992 -0.2878
 1884TIP3    H1 5591   1.956   0.042   4.084 -0.1769 -0.7494  0.8981
 1884TIP3    H2 5592   1.970   0.178   4.019 -1.4575 -1.2753 -0.5115
 1885TIP3   OH2 5593   2.617   0.986   3.620  0.3134  0.4278 -0.0862
 1885TIP3    H1 5594   2.557   1.059   3.635  0.7450  0.7546  0.0429
 1885TIP3    H2 5595   2.609   0.968   3.526 -1.4440 -0.8062  0.2534
 1886TIP3   OH2 5596   3.093   1.713   4.771 -0.0366 -0.1136 -0.6454
 1886TIP3    H1 5597   3.087   1.703   4.866  0.5362  0.3583 -0.5603
 1886TIP3    H2 5598   3.157   1.783   4.758  1.1788 -1.3569 -1.4342
 1887TIP3   OH2 5599   0.332   6.286   3.424  0.3453 -0.6304 -0.9138
 1887TIP3    H1 5600   0.325   6.192   3.405 -1.0192 -0.7793  0.2391
 1887TIP3    H2 5601   0.407   6.293   3.483 -0.3126 -1.1622 -0.0041
 1888TIP3   OH2 5602   4.519   1.070   4.043  0.4597 -0.3586 -1.1032
 1888TIP3    H1 5603   4.553   0.982   4.032  0.1555 -0.3320 -2.3955
 1888TIP3    H2 5604   4.484   1.072   4.132  2.8315 -0.7117 -0.1182
 1889TIP3   OH2 5605   0.279   7.550   3.031  0.1649 -1.1325  0.0376
 1889TIP3    H1 5606   0.373   7.566   3.021  0.3102 -1.5344  0.7718
 1889TIP3    H2 5607   0.238   7.633   3.005  0.7907 -0.4483  1.1730
 1890TIP3   OH2 5608   0.758   6.506   2.576 -0.0665  0.1185  1.0410
 1890TIP3    H1 5609   0.851   6.493   2.597  0.4718  0.3537 -1.0796
 1890TIP3    H2 5610   0.746   6.601   2.582  0.5611  0.3810 -1.4979
 1891TIP3   OH2 5611   8.332   6.766   5.133 -0.3089 -0.2166 -0.3674
 1891TIP3    H1 5612   8.293   6.705   5.197 -0.7660  0.0135 -0.4282
 1891TIP3    H2 5613   8.347   6.712   5.056 -0.0208 -0.4297 -0.1657
 1892TIP3   OH2 5614   6.965   7.220   1.034  0.3190  0.2812  0.1132
 1892TIP3    H1 5615   6.903   7.208   0.961  0.6505  3.2422 -0.7005
 1892TIP3    H2 5616   6.909   7.239   1.109  0.1051 -0.3149  0.1137
 1893TIP3   OH2 5617   1.026   0.980   3.645  0.2551  0.0437  0.7403
 1893TIP3    H1 5618   1.095   1.017   3.700 -0.3315  1.5486  0.4928
 1893TIP3    H2 5619   0.958   1.047   3.644 -0.8960 -1.1087  0.3669
 1894TIP3   OH2 5620   1.789   1.844   3.351 -0.8389  0.2281 -0.0183
 1894TIP3    H1 5621   1.778   1.939   3.359 -0.1838  0.2308  1.0115
 1894TIP3    H2 5622   1.716   1.808   3.401 -0.3840  0.1995  0.6275
 1895TIP3   OH2 5623   7.566   4.906   5.992 -0.0398  0.3626  0.5159
 1895TIP3    H1 5624   7.605   4.821   5.969  0.2357  0.1982  1.5568
 1895TIP3    H2 5625   7.640   4.958   6.023 -0.0784  1.2592 -0.8411
 1896TIP3   OH2 5626   2.806   2.284   2.888 -0.6500 -0.1195 -0.0795
 1896TIP3    H1 5627   2.716   2.250   2.898 -0.8093  0.4824  0.5900
 1896TIP3    H2 5628   2.859   2.206   2.875 -1.2067 -0.5205  0.0102
 1897TIP3   OH2 5629   2.092   0.988   2.095  0.3123  0.2196 -0.0062
 1897TIP3    H1 5630   2.118   0.907   2.139  0.8663  0.1415 -0.4720
 1897TIP3    H2 5631   2.164   1.049   2.110  0.2238  0.3929 -0.2709
 1898TIP3   OH2 5632   0.443   7.856   3.652 -0.5451 -0.5889 -0.4723
 1898TIP3    H1 5633   0.366   7.905   3.625 -1.8854 -1.8336  0.9768
 1898TIP3    H2 5634   0.494   7.919   3.705 -0.5872  0.2097 -1.3721
 1899TIP3   OH2 5635   0.885   0.109   2.144 -0.4053 -0.0774  0.6029
 1899TIP3    H1 5636   0.976   0.088   2.125 -0.4045  1.1327 -0.7801
 1899TIP3    H2 5637   0.890   0.181   2.207 -0.4176 -1.1040  1.7973
 1900TIP3   OH2 5638   2.296   3.046   5.753  0.3230 -0.0303  0.2224
 1900TIP3    H1 5639   2.268   3.103   5.681  1.3038 -0.5612 -0.5823
 1900TIP3    H2 5640   2.376   3.086   5.786  0.4595 -0.3901  0.3254
 1901TIP3   OH2 5641   3.422   2.237   2.841 -0.3296 -0.3195 -0.0150
 1901TIP3    H1 5642   3.430   2.213   2.934 -0.1687 -0.1946  0.0026
 1901TIP3    H2 5643   3.511   2.257   2.813 -0.5907  1.2602  0.2383
 1902TIP3   OH2 5644   4.369   0.995   1.755  0.2423  0.2049  0.3351
 1902TIP3    H1 5645   4.296   1.056   1.760 -0.6033 -0.7179 -0.4738
 1902TIP3    H2 5646   4.389   0.974   1.846  0.7803  1.9353  0.6354
 1903TIP3   OH2 5647   3.458   1.406   4.561  0.0341 -0.1040 -0.2117
 1903TIP3    H1 5648   3.498   1.334   4.610 -0.1651  0.3990  0.6953
 1903TIP3    H2 5649   3.525   1.430   4.496  0.1993 -0.9319 -0.3549
 1904TIP3   OH2 5650   3.667   0.751   1.124  0.3003 -0.0367 -0.0530
 1904TIP3    H1 5651   3.647   0.827   1.070 -1.2500 -0.7334 -0.4906
 1904TIP3    H2 5652   3.648   0.780   1.214 -2.5605 -0.5955 -0.4327
 1905TIP3   OH2 5653   2.348   7.444   5.398 -0.0049 -0.2456  0.0425
 1905TIP3    H1 5654   2.303   7.524   5.371  0.0474 -0.7358 -1.5577
 1905TIP3    H2 5655   2.277   7.383   5.418 -0.0608 -0.4867 -0.8640
 1906TIP3   OH2 5656   0.886   7.768   4.977  0.0452 -0.0440  0.3665
 1906TIP3    H1 5657   0.970   7.803   4.946 -1.2822  1.4166 -1.8086
 1906TIP3    H2 5658   0.827   7.843   4.972 -1.2144 -0.8610  2.6205
 1907TIP3   OH2 5659   2.817   2.527   2.117 -0.6870 -0.1045 -0.5593
 1907TIP3    H1 5660   2.804   2.594   2.185 -1.0832  0.9065 -1.5972
 1907TIP3    H2 5661   2.780   2.567   2.038  0.2091 -1.0679 -1.4772
 1908TIP3   OH2 5662   0.702   7.532   3.909  0.1134  0.6451 -0.2288
 1908TIP3    H1 5663   0.742   7.449   3.933  1.1125  0.8779 -1.0610
 1908TIP3    H2 5664   0.621   7.536   3.961  0.7339 -0.2258  0.8115
 1909TIP3   OH2 5665   0.597   6.748   5.867  0.1510  0.7257  0.3919
 1909TIP3    H1 5666   0.664   6.786   5.811  0.3729  1.8408  1.3849
 1909TIP3    H2 5667   0.569   6.669   5.821  2.5939 -0.1133  0.2632
 1910TIP3   OH2 5668   1.687   6.916   5.025 -0.2507 -0.6217 -0.4392
 1910TIP3    H1 5669   1.701   6.941   5.117 -1.2748 -0.8889 -0.2147
 1910TIP3    H2 5670   1.759   6.959   4.978 -0.4672  0.5914  0.3152
 1911TIP3   OH2 5671   4.298   0.235   4.774  0.7982 -0.2043 -0.4396
 1911TIP3    H1 5672   4.279   0.194   4.689  0.6812 -1.8651  0.3658
 1911TIP3    H2 5673   4.218   0.222   4.825  0.2164  2.3548 -0.6481
 1912TIP3   OH2 5674   4.077   0.945   0.098  0.2405 -0.5502  0.0357
 1912TIP3    H1 5675   4.161   0.978   0.069 -0.3653  0.2740 -0.8191
 1912TIP3    H2 5676   4.078   0.956   0.193  0.9181 -0.1393 -0.0172
 1913TIP3   OH2 5677   1.595   6.790   4.528 -0.0036 -0.0693  0.3947
 1913TIP3    H1 5678   1.661   6.795   4.598  1.2007  0.8686 -0.7703
 1913TIP3    H2 5679   1.515   6.761   4.572  1.5353 -2.6636  1.6183
 1914TIP3   OH2 5680   5.482   0.713   5.394  0.3831  0.0905  0.6719
 1914TIP3    H1 5681   5.429   0.741   5.319  2.1627  0.0813 -0.6209
 1914TIP3    H2 5682   5.571   0.737   5.370  1.0320 -0.3388  2.6078
 1915TIP3   OH2 5683   7.936   7.558   3.770  0.1333 -0.2394  0.3977
 1915TIP3    H1 5684   7.976   7.631   3.722 -0.3323 -0.6333 -0.6102
 1915TIP3    H2 5685   7.979   7.480   3.734 -1.1522 -0.6241 -0.3038
 1916TIP3   OH2 5686   2.983   1.922   3.822  0.0313  0.5480  0.0208
 1916TIP3    H1 5687   2.919   1.942   3.890 -0.0196 -1.8566  0.7254
 1916TIP3    H2 5688   2.943   1.956   3.742 -1.5766  0.2081  0.6482
 1917TIP3   OH2 5689   1.081   7.006   5.779 -0.1643 -0.2722  0.4722
 1917TIP3    H1 5690   1.080   6.998   5.684  0.5082 -0.7121  0.5004
 1917TIP3    H2 5691   1.109   7.096   5.795 -0.1729 -0.2306  0.2518
 1918TIP3   OH2 5692   4.232   0.176   5.395 -0.0052 -0.0773  0.4033
 1918TIP3    H1 5693   4.323   0.165   5.423  0.0588 -0.5347  0.0200
 1918TIP3    H2 5694   4.237   0.239   5.323 -0.0648  0.3808  0.7967
 1919TIP3   OH2 5695   2.801   0.589   1.434  0.0667  0.1506  0.0076
 1919TIP3    H1 5696   2.719   0.605   1.481 -0.0411  3.4700 -1.1683
 1919TIP3    H2 5697   2.777   0.588   1.341  1.2684  0.8368 -0.3366
 1920TIP3   OH2 5698   2.139   0.697   3.795  0.0813  0.4486 -1.2500
 1920TIP3    H1 5699   2.092   0.624   3.833  1.7107  0.2816  0.5430
 1920TIP3    H2 5700   2.152   0.673   3.704 -2.6289  0.1985 -1.6034
 1921TIP3   OH2 5701   0.821   0.113   5.921 -0.1737 -0.5327  0.1857
 1921TIP3    H1 5702   0.790   0.142   5.835  1.0762  0.0481 -0.0745
 1921TIP3    H2 5703   0.813   0.018   5.919 -1.1042 -0.4505 -0.1980
 1922TIP3   OH2 5704   5.456   2.502   5.097  0.0446 -0.1731  0.5081
 1922TIP3    H1 5705   5.462   2.552   5.015 -2.5966  1.0145  0.9911
 1922TIP3    H2 5706   5.544   2.468   5.111  0.4647 -0.7102 -3.0224
 1923TIP3   OH2 5707   2.092   2.267   3.492  0.4920  0.0026  0.2943
 1923TIP3    H1 5708   2.015   2.255   3.549 -0.5677 -2.4510 -1.5499
 1923TIP3    H2 5709   2.060   2.319   3.419  0.2900 -1.7695 -0.9230
 1924TIP3   OH2 5710   3.637   0.546   3.347  0.0125 -0.2395 -0.2285
 1924TIP3    H1 5711   3.676   0.507   3.425 -1.6340  1.3090  1.4145
 1924TIP3    H2 5712   3.688   0.626   3.331  0.6734 -0.8180 -1.0599
 1925TIP3   OH2 5713   3.472   0.114   1.508 -0.5166  0.5987 -0.2347
 1925TIP3    H1 5714   3.486   0.073   1.423 -0.0521 -2.8408  1.4251
 1925TIP3    H2 5715   3.394   0.071   1.543  0.5982  0.3435  2.0193
 1926TIP3   OH2 5716   0.251   7.890   4.652  0.2426  0.3750  0.2662
 1926TIP3    H1 5717   0.220   7.980   4.662  0.2542  0.3824  0.2379
 1926TIP3    H2 5718   0.320   7.896   4.586  0.2829  0.3543  0.3070
 1927TIP3   OH2 5719   3.426   1.692   4.577  0.1731  0.3931  0.0467
 1927TIP3    H1 5720   3.445   1.601   4.600  0.1087  0.5492  0.7301
 1927TIP3    H2 5721   3.350   1.686   4.519 -0.0451  0.0340  0.3639
 1928TIP3   OH2 5722   3.663   1.017   2.867 -0.2649  0.5594  0.1411
 1928TIP3    H1 5723   3.725   0.956   2.908 -0.4681  1.0970  1.2760
 1928TIP3    H2 5724   3.700   1.104   2.885 -1.1322  0.8663  0.4733
 1929TIP3   OH2 5725   3.139   0.834   1.113  0.5376  0.7091 -0.4066
 1929TIP3    H1 5726   3.083   0.797   1.182 -0.7050  2.0240 -0.6761
 1929TIP3    H2 5727   3.170   0.758   1.064 -1.9078  0.0047 -0.9237
 1930TIP3   OH2 5728   0.487   7.470   4.094  0.2750  0.0227  0.4492
 1930TIP3    H1 5729   0.411   7.455   4.038  0.2122 -1.8722  1.0004
 1930TIP3    H2 5730   0.462   7.430   4.178  1.2033  0.9196  1.1556
 1931TIP3   OH2 5731   7.290   5.738   4.038 -0.8638 -0.1921 -0.2758
 1931TIP3    H1 5732   7.260   5.809   3.981  0.0688  0.4764  0.0522
 1931TIP3    H2 5733   7.272   5.770   4.127  2.7131  1.1513  0.0423
 1932TIP3   OH2 5734   4.327   0.286   3.764 -0.1615  0.0485  0.9176
 1932TIP3    H1 5735   4.260   0.239   3.814  0.0625 -2.9017 -1.4135
 1932TIP3    H2 5736   4.406   0.280   3.819 -1.1605  1.3245  2.5143
 1933TIP3   OH2 5737   3.284   1.586   2.445 -0.6297 -0.1584 -0.0704
 1933TIP3    H1 5738   3.289   1.610   2.538 -0.7518 -1.5364  0.3142
 1933TIP3    H2 5739   3.330   1.501   2.441 -1.4974 -0.5829 -1.0875
 1934TIP3   OH2 5740   2.170   0.674   4.603 -0.0799  0.1451 -0.6651
 1934TIP3    H1 5741   2.105   0.733   4.640  0.9297  0.0317  1.3867
 1934TIP3    H2 5742   2.161   0.594   4.654  0.7769 -0.3341 -1.2520
 1935TIP3   OH2 5743   3.637  -0.004   4.301 -0.5053 -0.0801  0.5660
 1935TIP3    H1 5744   3.622   0.089   4.316 -0.0405 -0.0767  1.0283
 1935TIP3    H2 5745   3.611  -0.046   4.383 -0.8530 -0.3759  0.3087
 1936TIP3   OH2 5746   1.496   6.981   4.821 -0.7599  0.5654  0.0844
 1936TIP3    H1 5747   1.567   6.938   4.774 -2.6237 -1.6540 -0.8044
 1936TIP3    H2 5748   1.516   6.967   4.913 -1.1726 -2.0248 -0.1850
 1937TIP3   OH2 5749   3.106   0.288   5.538  0.2857  0.1175 -0.5231
 1937TIP3    H1 5750   3.055   0.283   5.457 -0.4945  0.5703 -0.0627
 1937TIP3    H2 5751   3.192   0.319   5.509 -0.0982  0.6412 -1.1353
 1938TIP3   OH2 5752   8.356   5.359   4.701 -0.0448  0.1262 -0.0902
 1938TIP3    H1 5753   8.442   5.318   4.702  0.0551  0.3347  1.2672
 1938TIP3    H2 5754   8.368   5.441   4.748 -1.6429 -1.2919  2.9278
 1939TIP3   OH2 5755   1.577   1.468   5.573  0.4896  0.1430 -0.1968
 1939TIP3    H1 5756   1.564   1.545   5.628  0.6502 -0.9418  1.4102
 1939TIP3    H2 5757   1.672   1.467   5.556  0.0904  2.0173 -2.8622
 1940TIP3   OH2 5758   3.573   3.120   3.635  0.3244 -0.1914 -0.0773
 1940TIP3    H1 5759   3.479   3.138   3.641  0.3173 -0.1884 -0.2066
 1940TIP3    H2 5760   3.610   3.197   3.591  0.6528  0.6993  1.6936
 1941TIP3   OH2 5761   8.019   6.986   4.580 -0.7754  0.3586 -0.1879
 1941TIP3    H1 5762   7.980   7.032   4.654 -0.3136  0.2316  0.1383
 1941TIP3    H2 5763   8.041   6.900   4.614  0.4393  0.6688 -0.1682
 1942TIP3   OH2 5764   0.527   6.838   6.505  0.1275 -0.0578  0.7738
 1942TIP3    H1 5765   0.437   6.811   6.523 -0.7317  2.6011  0.6926
 1942TIP3    H2 5766   0.519   6.915   6.449  2.2642  3.1606  4.6359
 1943TIP3   OH2 5767   2.681   0.747   3.732 -0.4803 -0.0957 -0.0544
 1943TIP3    H1 5768   2.670   0.693   3.653 -1.1212 -0.7699  0.4905
 1943TIP3    H2 5769   2.657   0.835   3.705 -1.8172 -0.5385 -0.3167
 1944TIP3   OH2 5770   2.983   1.364   3.441 -0.8365 -0.2231 -0.2469
 1944TIP3    H1 5771   2.928   1.325   3.509  1.8232 -3.1691  0.3332
 1944TIP3    H2 5772   3.023   1.440   3.483 -0.7338 -0.8730  0.8339
 1945TIP3   OH2 5773   8.342   7.954   2.654 -0.3473 -0.1875  0.0411
 1945TIP3    H1 5774   8.328   7.873   2.605 -0.2270  1.1668 -2.3305
 1945TIP3    H2 5775   8.407   8.002   2.602 -0.7692  1.6394  1.1528
 1946TIP3   OH2 5776   1.039   7.404   4.214 -0.4051  0.2524 -0.1570
 1946TIP3    H1 5777   0.964   7.463   4.215 -1.7965 -1.4523 -1.5028
 1946TIP3    H2 5778   1.043   7.372   4.124  2.1000  0.5027 -0.1714
 1947TIP3   OH2 5779   0.135   7.892   3.457 -0.2721 -0.2517 -0.2542
 1947TIP3    H1 5780   0.158   7.904   3.549 -0.6115  0.1205 -0.2147
 1947TIP3    H2 5781   0.193   7.823   3.426 -0.3022 -0.5225  0.2947
 1948TIP3   OH2 5782   1.188   0.704   4.086 -0.1203  0.3830 -0.0710
 1948TIP3    H1 5783   1.107   0.655   4.100  0.2085 -0.3166 -0.6125
 1948TIP3    H2 5784   1.173   0.788   4.130 -0.9187  0.0374  0.3230
 1949TIP3   OH2 5785   1.370   2.189   3.751  0.9375 -0.5395 -0.2501
 1949TIP3    H1 5786   1.317   2.256   3.793  0.4857 -0.1773 -1.3792
 1949TIP3    H2 5787   1.328   2.106   3.776  1.3099 -0.3921  0.8826
 1950TIP3   OH2 5788   2.778   0.817   4.127  0.1060 -0.2991  0.0346
 1950TIP3    H1 5789   2.700   0.791   4.078  1.2026 -0.1256 -1.8512
 1950TIP3    H2 5790   2.823   0.734   4.145 -0.2645 -0.3570  0.7512
 1951TIP3   OH2 5791   1.786   0.247   3.321  0.3764 -0.5427 -0.4439
 1951TIP3    H1 5792   1.754   0.158   3.339 -0.4809  0.0347  0.9487
 1951TIP3    H2 5793   1.792   0.288   3.407 -2.5193  1.8640 -1.2781
 1952TIP3   OH2 5794   2.484   2.729   2.116 -0.1403 -0.7597  0.4368
 1952TIP3    H1 5795   2.470   2.637   2.093 -2.3097 -0.2631 -0.3694
 1952TIP3    H2 5796   2.396   2.767   2.119  0.5609  0.8090  2.8857
 1953TIP3   OH2 5797   6.460   6.714   4.637  0.2187  0.0040 -0.4399
 1953TIP3    H1 5798   6.385   6.670   4.676 -0.2402 -0.0491 -1.3689
 1953TIP3    H2 5799   6.440   6.807   4.644 -0.2460 -0.0291 -1.2940
 1954TIP3   OH2 5800   5.858   3.885   2.975  0.3676 -1.1983 -0.3383
 1954TIP3    H1 5801   5.794   3.920   2.913  0.6070 -2.5677 -1.3719
 1954TIP3    H2 5802   5.912   3.961   2.999 -0.0353 -0.5595 -1.4241
 1955TIP3   OH2 5803   4.544   0.099   2.623 -0.2262  0.3984 -0.2467
 1955TIP3    H1 5804   4.541   0.019   2.572 -0.9107  0.6863 -0.6637
 1955TIP3    H2 5805   4.578   0.165   2.562  0.5615  0.3780  0.1612
 1956TIP3   OH2 5806   1.491   7.340   5.173  0.4567  0.5809 -0.7662
 1956TIP3    H1 5807   1.448   7.423   5.154  2.1768  1.8151  0.5328
 1956TIP3    H2 5808   1.493   7.336   5.269  0.3329 -0.9874 -0.8231
 1957TIP3   OH2 5809   6.382   2.459   1.993  0.5700  0.3021 -0.2765
 1957TIP3    H1 5810   6.308   2.487   1.939  0.9273 -0.9108 -1.4150
 1957TIP3    H2 5811   6.380   2.364   1.990  1.6866  0.2512  0.3653
 1958TIP3   OH2 5812   5.214   0.350   3.169 -0.3542  0.2241 -0.2268
 1958TIP3    H1 5813   5.231   0.304   3.251  2.3369 -0.0949 -0.8978
 1958TIP3    H2 5814   5.176   0.433   3.195  0.0760 -0.0529  1.3406
 1959TIP3   OH2 5815   4.055   1.101   3.002  0.2954 -0.2102  0.0665
 1959TIP3    H1 5816   4.146   1.103   2.972  0.3028  0.8332  0.1398
 1959TIP3    H2 5817   4.010   1.045   2.939  1.2046 -1.6330  0.6566
 1960TIP3   OH2 5818   4.942   2.046   3.471  0.0737 -0.5979 -0.5859
 1960TIP3    H1 5819   4.933   2.037   3.376 -1.4338 -1.1247 -0.3974
 1960TIP3    H2 5820   5.017   2.104   3.482 -0.2421  0.1243 -2.1181
 1961TIP3   OH2 5821   5.464   1.555   1.793 -0.4771  0.0972 -0.2272
 1961TIP3    H1 5822   5.517   1.550   1.872  0.2244  2.0978 -0.5493
 1961TIP3    H2 5823   5.524   1.584   1.725 -1.5758  0.6581 -0.9811
 1962TIP3   OH2 5824   2.968   2.394   3.374 -0.2815 -0.3221 -0.2009
 1962TIP3    H1 5825   2.913   2.422   3.447  1.0018  0.9821  0.2702
 1962TIP3    H2 5826   3.019   2.321   3.409 -1.5569 -1.4350 -0.5942
 1963TIP3   OH2 5827   1.056   7.260   4.845 -0.0526  1.0288  0.2343
 1963TIP3    H1 5828   1.098   7.220   4.921 -2.2177  0.0474  0.9797
 1963TIP3    H2 5829   1.007   7.334   4.882 -1.8126  0.0294 -0.0268
 1964TIP3   OH2 5830   4.107   0.749   2.961  0.2430  0.2499 -0.5379
 1964TIP3    H1 5831   4.098   0.694   2.884  1.3395 -1.4635  0.5199
 1964TIP3    H2 5832   4.183   0.804   2.942  0.1407  0.2633 -0.9214
 1965TIP3   OH2 5833   3.739   7.574   4.829 -0.1557 -0.0582  0.3657
 1965TIP3    H1 5834   3.777   7.499   4.784  0.9878  0.5838  0.2521
 1965TIP3    H2 5835   3.771   7.650   4.781 -1.1836  0.5119  0.5735
 1966TIP3   OH2 5836   2.769   7.546   3.602 -0.3703  0.4386  0.4731
 1966TIP3    H1 5837   2.685   7.511   3.573 -0.7190  2.0800 -0.5529
 1966TIP3    H2 5838   2.831   7.473   3.589 -0.9837  0.3460 -2.0960
 1967TIP3   OH2 5839   2.124   5.384   2.151 -0.4386  0.1686 -0.8439
 1967TIP3    H1 5840   2.037   5.355   2.125 -0.1257 -0.4830 -1.1661
 1967TIP3    H2 5841   2.170   5.304   2.177 -0.4871  0.7011  0.9987
 1968TIP3   OH2 5842   4.177   7.872   3.908  0.6142  0.3879 -0.6549
 1968TIP3    H1 5843   4.109   7.805   3.919  0.9198  0.1680 -0.0704
 1968TIP3    H2 5844   4.136   7.939   3.854  0.0919  0.0237 -0.7159
 1969TIP3   OH2 5845   5.456   1.801   2.470  0.7418  0.0471 -0.5593
 1969TIP3    H1 5846   5.403   1.880   2.471 -0.5881 -0.8442  0.4016
 1969TIP3    H2 5847   5.546   1.833   2.479  0.4707  1.6092 -2.9820
 1970TIP3   OH2 5848   1.685   7.613   2.909  0.1847 -0.0840  0.2073
 1970TIP3    H1 5849   1.656   7.543   2.968  0.3415 -0.2193  0.1258
 1970TIP3    H2 5850   1.759   7.574   2.861 -0.1111 -0.0654 -0.2690
 1971TIP3   OH2 5851   3.756   2.852   2.738 -0.1538  0.0203 -0.1184
 1971TIP3    H1 5852   3.846   2.846   2.769  0.4839  0.4797 -1.8511
 1971TIP3    H2 5853   3.756   2.807   2.654 -1.5078  0.1887 -0.2212
 1972TIP3   OH2 5854   4.739   2.455   4.364 -0.3554  1.0055  0.1704
 1972TIP3    H1 5855   4.804   2.473   4.296 -0.7839 -0.8620 -0.7444
 1972TIP3    H2 5856   4.771   2.377   4.408 -0.4313  1.8224  1.6934
 1973TIP3   OH2 5857   5.357   2.297   3.770 -0.0226  0.2515 -0.3461
 1973TIP3    H1 5858   5.341   2.305   3.864 -1.5081 -1.0245 -0.4718
 1973TIP3    H2 5859   5.451   2.307   3.761  0.0466  1.1739  1.1901
 1974TIP3   OH2 5860   5.864   1.514   3.181 -0.2162 -0.2980 -0.3166
 1974TIP3    H1 5861   5.835   1.437   3.228 -0.1330  0.4054  0.9020
 1974TIP3    H2 5862   5.904   1.570   3.248  0.0219  0.6525 -1.2352
 1975TIP3   OH2 5863   3.797   3.586   1.835 -0.4347 -0.2448  0.4978
 1975TIP3    H1 5864   3.824   3.669   1.795  0.6981 -1.0529 -0.4464
 1975TIP3    H2 5865   3.822   3.594   1.927  3.4744 -1.0966 -0.4098
 1976TIP3   OH2 5866   3.063   0.208   3.866 -0.5620 -0.2428  0.2763
 1976TIP3    H1 5867   3.046   0.292   3.823 -0.5550 -0.3852 -0.0050
 1976TIP3    H2 5868   3.158   0.207   3.880 -0.6771  0.2268  1.1757
 1977TIP3   OH2 5869   6.028   5.693   2.064 -0.3873 -0.1734  0.0739
 1977TIP3    H1 5870   6.042   5.602   2.035  0.2182  0.1221 -0.5967
 1977TIP3    H2 5871   6.116   5.731   2.064 -0.4253 -0.0672  2.0183
 1978TIP3   OH2 5872   5.413   1.201   2.934 -0.2536  0.3092  0.3670
 1978TIP3    H1 5873   5.330   1.170   2.971  0.2958  0.3882  1.6623
 1978TIP3    H2 5874   5.433   1.137   2.865  0.1177 -1.4109  2.0450
 1979TIP3   OH2 5875   1.342   7.444   2.452  0.5609  0.3889  0.0235
 1979TIP3    H1 5876   1.374   7.505   2.518 -0.9349  2.0939 -0.7984
 1979TIP3    H2 5877   1.274   7.492   2.405 -0.9124 -2.0202 -0.4167
 1980TIP3   OH2 5878   6.863   1.297   4.340 -0.2636  0.2893  0.5806
 1980TIP3    H1 5879   6.774   1.310   4.307 -0.4980  0.2404  1.1911
 1980TIP3    H2 5880   6.917   1.357   4.288 -0.7497  0.7966  0.6616
 1981TIP3   OH2 5881   4.067   0.688   1.631  0.3733 -1.0798  0.1103
 1981TIP3    H1 5882   3.996   0.715   1.573  0.1084 -1.1681  0.3933
 1981TIP3    H2 5883   4.073   0.593   1.620 -1.3270 -1.4581  2.0656
 1982TIP3   OH2 5884   3.296   1.336   3.638 -0.2384 -0.6509 -0.1196
 1982TIP3    H1 5885   3.268   1.322   3.728 -0.4250 -1.0145 -0.2315
 1982TIP3    H2 5886   3.263   1.259   3.591 -0.9284 -0.0280 -0.6679
 1983TIP3   OH2 5887   3.838   0.368   3.417  0.5473  0.0370  0.2692
 1983TIP3    H1 5888   3.885   0.286   3.408  0.1514 -0.1439 -0.2057
 1983TIP3    H2 5889   3.883   0.428   3.357  1.9172  0.6719  1.8912
 1984TIP3   OH2 5890   4.061   0.181   3.362 -0.0330  0.1022 -0.5631
 1984TIP3    H1 5891   4.123   0.109   3.367  1.1262  1.2023  1.0397
 1984TIP3    H2 5892   4.094   0.247   3.423 -2.6211  0.8233  0.1298
 1985TIP3   OH2 5893   3.355   0.416   3.456 -0.5817  0.3516 -0.1496
 1985TIP3    H1 5894   3.284   0.373   3.409  0.4292 -0.7659 -0.6664
 1985TIP3    H2 5895   3.427   0.418   3.394  0.4045 -0.1207  0.9604
 1986TIP3   OH2 5896   5.098   0.398   2.941  0.4029 -0.3874 -0.0236
 1986TIP3    H1 5897   5.116   0.356   3.025  0.9211 -0.7221 -0.3007
 1986TIP3    H2 5898   5.014   0.441   2.953  0.3556 -0.6525  0.5878
 1987TIP3   OH2 5899   2.767   7.759   1.592 -0.4269  0.0136  0.0977
 1987TIP3    H1 5900   2.726   7.736   1.676 -0.2289  0.6407  0.3699
 1987TIP3    H2 5901   2.810   7.842   1.609 -1.7180  0.9415 -1.0668
 1988TIP3   OH2 5902   3.699   0.184   1.121  0.1078  0.1421 -0.4062
 1988TIP3    H1 5903   3.759   0.259   1.115 -1.5715  1.5261 -0.5728
 1988TIP3    H2 5904   3.668   0.172   1.031 -2.2470  1.5075  0.1743
 1989TIP3   OH2 5905   5.291   1.891   3.678  0.2439  0.1652 -0.0198
 1989TIP3    H1 5906   5.213   1.837   3.668 -0.9177  1.7614  0.1756
 1989TIP3    H2 5907   5.363   1.829   3.687 -0.8326 -1.3228 -1.4794
 1990TIP3   OH2 5908   3.738   1.492   1.681  0.3716  0.4961  0.1065
 1990TIP3    H1 5909   3.684   1.419   1.713  1.2021 -0.2994 -0.2670
 1990TIP3    H2 5910   3.689   1.527   1.607 -0.6167  1.0969  1.0294
 1991TIP3   OH2 5911   8.319   4.651   0.120 -0.0636 -0.0078 -0.0334
 1991TIP3    H1 5912   8.299   4.593   0.047 -1.7884  2.0457 -1.2551
 1991TIP3    H2 5913   8.394   4.702   0.089  0.0088 -0.0160  0.1290
 1992TIP3   OH2 5914   0.129   6.709   3.955 -0.0945 -0.8511  0.2460
 1992TIP3    H1 5915   0.097   6.699   3.866 -1.6124  1.2168  0.5266
 1992TIP3    H2 5916   0.054   6.689   4.011 -0.2315  1.5555  0.9667
 1993TIP3   OH2 5917   6.954   0.733   2.513  0.1064  0.4319 -0.2721
 1993TIP3    H1 5918   6.956   0.660   2.451  1.9854  0.3146 -0.1012
 1993TIP3    H2 5919   6.922   0.695   2.595 -0.2699  0.1156 -0.5642
 1994TIP3   OH2 5920   3.837   0.491   3.139 -0.5183 -0.2240 -0.2118
 1994TIP3    H1 5921   3.763   0.543   3.170  0.5036 -0.3932  2.5946
 1994TIP3    H2 5922   3.911   0.552   3.141 -0.2290 -0.5088 -1.4771
 1995TIP3   OH2 5923   6.155   0.940   4.363 -0.0314 -0.2216 -0.0662
 1995TIP3    H1 5924   6.108   0.998   4.303 -1.1394  0.2897  1.2773
 1995TIP3    H2 5925   6.089   0.912   4.426  1.2255 -0.3283  1.2249
 1996TIP3   OH2 5926   4.939   2.852   6.140  0.0221  0.1111  0.8609
 1996TIP3    H1 5927   4.975   2.782   6.194 -1.3744  0.6997  2.6028
 1996TIP3    H2 5928   4.854   2.819   6.111  0.9590 -0.3929 -1.4188
 1997TIP3   OH2 5929   5.509   0.970   2.347  0.4570  0.8781  0.0683
 1997TIP3    H1 5930   5.427   0.992   2.303 -0.1678  1.0339  1.2760
 1997TIP3    H2 5931   5.553   0.910   2.288 -0.7313  0.4609 -0.4089
 1998TIP3   OH2 5932   2.587   1.713   3.337 -0.0793  0.5613 -0.1043
 1998TIP3    H1 5933   2.587   1.618   3.343  0.2071  0.6191  0.8234
 1998TIP3    H2 5934   2.515   1.741   3.394  1.3078  1.0031  1.4925
 1999TIP3   OH2 5935   4.984   1.567   1.662  0.6904  0.3106  0.2338
 1999TIP3    H1 5936   4.969   1.649   1.710  0.9203  0.6144 -0.2089
 1999TIP3    H2 5937   5.040   1.592   1.588 -1.2748  0.2265 -1.3366
 2000TIP3   OH2 5938   2.846   7.237   3.262  0.1516  0.4622  0.0068
 2000TIP3    H1 5939   2.826   7.223   3.354 -0.4009  1.8423  0.0991
 2000TIP3    H2 5940   2.841   7.150   3.223  1.3032 -0.2740  1.4481
 2001TIP3   OH2 5941   6.658   2.597   3.510  0.5263 -0.3424 -0.4628
 2001TIP3    H1 5942   6.749   2.626   3.516  0.8066 -1.4646  1.4043
 2001TIP3    H2 5943   6.655   2.541   3.433  1.8401 -1.6198  0.3828
 2002TIP3   OH2 5944   2.796   1.227   2.544  0.4982 -0.3205 -0.0827
 2002TIP3    H1 5945   2.739   1.260   2.614  0.3175 -1.0633  0.1275
 2002TIP3    H2 5946   2.761   1.266   2.464  0.7640  0.6170  0.2496
 2003TIP3   OH2 5947   2.597   5.214   4.458 -0.0982  0.0781  0.2116
 2003TIP3    H1 5948   2.669   5.189   4.400 -0.2267 -0.3523  0.2370
 2003TIP3    H2 5949   2.518   5.186   4.411 -0.2985  1.2825 -0.1924
 2004TIP3   OH2 5950   3.441   1.227   0.548 -0.3220 -0.0073  0.3111
 2004TIP3    H1 5951   3.511   1.291   0.553 -0.5223  0.2663 -0.3626
 2004TIP3    H2 5952   3.422   1.219   0.454  1.5547 -3.0320  0.0935
 2005TIP3   OH2 5953   3.198   1.691   4.411  0.8906  0.1822  0.1966
 2005TIP3    H1 5954   3.233   1.759   4.354  0.8142 -0.1028 -0.1905
 2005TIP3    H2 5955   3.190   1.614   4.355  1.3947 -0.2718  0.7366
 2006TIP3   OH2 5956   3.261   2.046   2.735  0.1213  0.6743 -0.6010
 2006TIP3    H1 5957   3.288   1.958   2.764  0.6941  0.2277 -2.3942
 2006TIP3    H2 5958   3.315   2.106   2.786 -0.3150 -0.0011  0.6870
 2007TIP3   OH2 5959   3.841   0.762   3.294 -0.4430  0.1278 -0.3809
 2007TIP3    H1 5960   3.904   0.724   3.354 -2.6477 -0.6158  1.5315
 2007TIP3    H2 5961   3.880   0.846   3.268  0.0837  1.0015  2.9849
 2008TIP3   OH2 5962   1.802   7.427   4.249 -0.0747  0.5253  0.2203
 2008TIP3    H1 5963   1.779   7.358   4.186  1.3150 -0.0928  0.3704
 2008TIP3    H2 5964   1.798   7.384   4.334 -0.1867  0.8983  0.4034
 2009TIP3   OH2 5965   3.652   1.290   3.171  0.6255  0.5696  0.4160
 2009TIP3    H1 5966   3.563   1.263   3.194  0.8133 -1.2595 -0.8595
 2009TIP3    H2 5967   3.674   1.357   3.236 -1.8488  1.4168  0.4273
 2010TIP3   OH2 5968   2.813   6.891   3.464 -0.5423 -0.5165  0.1175
 2010TIP3    H1 5969   2.904   6.882   3.493 -0.1532  0.2571 -0.8067
 2010TIP3    H2 5970   2.787   6.803   3.439  0.2758 -0.5859 -0.5035
 2011TIP3   OH2 5971   8.388   6.981   4.653 -0.5072 -0.4821 -0.1911
 2011TIP3    H1 5972   8.365   6.891   4.630  1.5161 -1.1574  0.3820
 2011TIP3    H2 5973   8.316   7.010   4.710 -0.4656 -2.2283  0.7888
 2012TIP3   OH2 5974   3.825   0.021   3.304 -0.6037  0.1193 -0.1937
 2012TIP3    H1 5975   3.815   0.088   3.237 -0.7099  0.1483 -0.1489
 2012TIP3    H2 5976   3.875   0.063   3.374 -1.2497  0.3612  0.1287
 2013TIP3   OH2 5977   4.432   0.833   1.541  0.1170 -0.1421  0.4315
 2013TIP3    H1 5978   4.362   0.837   1.476  0.5680  0.6449 -0.0180
 2013TIP3    H2 5979   4.406   0.898   1.607 -0.6560 -1.3830  1.3681
 2014TIP3   OH2 5980   2.834   0.561   2.268 -0.4684  0.5810  0.0651
 2014TIP3    H1 5981   2.746   0.527   2.284  0.0666 -0.8084  0.0781
 2014TIP3    H2 5982   2.893   0.494   2.302  0.6114  1.1485 -0.6489
 2015TIP3   OH2 5983   2.419   1.198   3.659  0.2856 -0.0165 -0.0979
 2015TIP3    H1 5984   2.412   1.288   3.625  0.7775  0.4537  1.0070
 2015TIP3    H2 5985   2.461   1.209   3.745  0.0584 -1.2786  0.1740
 2016TIP3   OH2 5986   6.934   1.630   4.437  0.0667  0.0573  0.0095
 2016TIP3    H1 5987   6.947   1.556   4.497 -0.6735 -0.6176 -0.6398
 2016TIP3    H2 5988   7.021   1.668   4.427  0.3646 -0.3926  0.7800
 2017TIP3   OH2 5989   5.339   0.360   4.675 -0.1666 -0.0471  0.0660
 2017TIP3    H1 5990   5.258   0.401   4.644 -0.9194 -0.9870  0.7698
 2017TIP3    H2 5991   5.328   0.267   4.657  1.0020 -0.1141 -0.3433
 2018TIP3   OH2 5992   5.657   0.345   4.557 -0.1541  0.0689  0.0638
 2018TIP3    H1 5993   5.602   0.327   4.481  1.3237 -1.4298 -0.6951
 2018TIP3    H2 5994   5.739   0.300   4.538  0.5744  0.4672  2.1311
 2019TIP3   OH2 5995   2.178   6.743   4.860  0.2307  0.0799 -0.3052
 2019TIP3    H1 5996   2.145   6.701   4.940  1.1021 -0.0413 -0.0024
 2019TIP3    H2 5997   2.223   6.821   4.891 -1.6160  1.4062 -0.8935
 2020TIP3   OH2 5998   4.332   1.888   3.126 -0.0696  0.1001 -0.7121
 2020TIP3    H1 5999   4.371   1.975   3.136  1.0651 -0.3630 -0.9924
 2020TIP3    H2 6000   4.398   1.828   3.161 -0.9435 -0.6286 -0.3003
 2021TIP3   OH2 6001   6.874   1.421   4.626 -0.0081  0.0320  0.0883
 2021TIP3    H1 6002   6.860   1.357   4.557 -0.6804 -1.2533  1.3923
 2021TIP3    H2 6003   6.790   1.426   4.673  0.2546  1.3174  0.4687
 2022TIP3   OH2 6004   4.157   2.198   2.461 -0.4539 -0.9483 -0.0669
 2022TIP3    H1 6005   4.119   2.112   2.481  0.9536 -2.5475 -3.8680
 2022TIP3    H2 6006   4.131   2.215   2.370  1.5005  1.4325 -0.2320
 2023TIP3   OH2 6007   4.825   1.192   4.839 -0.4853  0.9576  0.4761
 2023TIP3    H1 6008   4.741   1.147   4.827  0.0711  0.5424 -2.2701
 2023TIP3    H2 6009   4.812   1.278   4.799  0.4741  0.7551 -0.3057
 2024TIP3   OH2 6010   0.840   7.574   1.778 -0.8384  0.2906 -0.0270
 2024TIP3    H1 6011   0.805   7.655   1.741 -2.4343 -0.3629  0.0176
 2024TIP3    H2 6012   0.764   7.517   1.787 -0.0837 -0.4348  1.9929
 2025TIP3   OH2 6013   0.930   6.716   3.732  0.0316 -0.1510 -0.4306
 2025TIP3    H1 6014   0.944   6.710   3.637 -1.1163 -2.1285 -0.5021
 2025TIP3    H2 6015   0.992   6.654   3.770  0.4849  0.6327  0.1158
 2026TIP3   OH2 6016   4.701   0.196   2.167  0.4649  0.3088  0.0529
 2026TIP3    H1 6017   4.687   0.101   2.174 -0.3429  0.2982 -1.4380
 2026TIP3    H2 6018   4.624   0.227   2.120 -0.5151  2.0840  2.7067
 2027TIP3   OH2 6019   1.487   6.479   4.422 -0.0989 -0.6722 -0.1772
 2027TIP3    H1 6020   1.497   6.493   4.328 -1.3380 -1.1313 -0.3840
 2027TIP3    H2 6021   1.538   6.550   4.463 -0.2333  0.0042 -1.1874
 2028TIP3   OH2 6022   3.639   1.400   4.873  0.3172 -0.0063  0.5338
 2028TIP3    H1 6023   3.693   1.328   4.905  1.3650  0.5488  0.0503
 2028TIP3    H2 6024   3.701   1.458   4.828 -0.5099  1.1705  0.8774
 2029TIP3   OH2 6025   5.030   1.036   4.759  0.3892 -0.4478  0.0205
 2029TIP3    H1 6026   4.956   1.086   4.793  0.6976 -0.7676  1.1897
 2029TIP3    H2 6027   5.076   1.005   4.837  2.0443  0.1662 -0.6927
 2030TIP3   OH2 6028   4.213   1.042   3.225 -0.2014 -0.3772 -0.0703
 2030TIP3    H1 6029   4.137   1.047   3.167 -1.2286  2.5969  1.4599
 2030TIP3    H2 6030   4.282   1.091   3.179 -0.5697  0.7274  0.5518
 2031TIP3   OH2 6031   1.149   7.558   2.262  0.5519 -0.1942 -0.3987
 2031TIP3    H1 6032   1.184   7.632   2.212 -0.9036  1.0118  0.2976
 2031TIP3    H2 6033   1.110   7.500   2.197 -2.3155  1.9079 -0.6420
 2032TIP3   OH2 6034   2.128   7.896   2.411 -0.2389 -0.0049 -0.3745
 2032TIP3    H1 6035   2.210   7.901   2.459 -0.6183 -1.3761  0.4301
 2032TIP3    H2 6036   2.084   7.979   2.431 -0.2649 -0.4262  1.4539
 2033TIP3   OH2 6037   4.872   1.187   4.295  0.4838 -0.5209  0.1164
 2033TIP3    H1 6038   4.825   1.121   4.347  1.0568 -1.7015 -0.8276
 2033TIP3    H2 6039   4.804   1.233   4.247  0.4129 -4.0688 -3.3772
 2034TIP3   OH2 6040   3.813   1.925   1.205 -0.1576  0.1200 -0.0574
 2034TIP3    H1 6041   3.853   1.981   1.138 -1.2076  0.5321 -0.3535
 2034TIP3    H2 6042   3.854   1.953   1.287  0.2674  0.4404 -0.3800
 2035TIP3   OH2 6043   3.159   0.165   4.473 -0.0679  0.1034  0.6552
 2035TIP3    H1 6044   3.064   0.166   4.473 -0.1429  0.2594 -2.8788
 2035TIP3    H2 6045   3.182   0.106   4.401  2.5076 -0.6656  2.0612
 2036TIP3   OH2 6046   1.287   7.719   4.831  0.0103 -0.1466 -0.7944
 2036TIP3    H1 6047   1.371   7.755   4.802 -0.2534 -0.1726 -1.6056
 2036TIP3    H2 6048   1.291   7.627   4.805 -0.2929 -0.1329 -0.8832
 2037TIP3   OH2 6049   5.431   3.096   3.688  0.3322  0.3451  0.3503
 2037TIP3    H1 6050   5.345   3.106   3.647  0.1213  0.7664  0.8890
 2037TIP3    H2 6051   5.428   3.153   3.765  0.4511 -0.9932  1.3672
 2038TIP3   OH2 6052   5.138   1.319   2.638 -0.4899  0.1744 -0.3549
 2038TIP3    H1 6053   5.089   1.247   2.599 -2.7627  0.6857  1.4302
 2038TIP3    H2 6054   5.092   1.337   2.720  1.4769  2.0766  0.3691
 2039TIP3   OH2 6055   6.378   0.360   4.652  0.0214  0.0483 -0.1188
 2039TIP3    H1 6056   6.421   0.276   4.639  0.0634  0.1513 -0.6233
 2039TIP3    H2 6057   6.289   0.338   4.678  0.6765 -0.1864  2.0410
 2040TIP3   OH2 6058   6.613   0.881   5.373  0.2937  0.0064 -0.2883
 2040TIP3    H1 6059   6.618   0.803   5.430  1.0504 -0.6171 -1.1862
 2040TIP3    H2 6060   6.683   0.938   5.404  0.1092  0.0753  0.0009
 2041TIP3   OH2 6061   5.825   1.852   2.834  0.4277 -1.0026 -0.1301
 2041TIP3    H1 6062   5.739   1.869   2.874  0.0376  1.2045 -1.8087
 2041TIP3    H2 6063   5.884   1.842   2.908 -0.5314  1.5703  1.0443
 2042TIP3   OH2 6064   4.591   3.324   0.861 -0.6247  0.4314 -0.1397
 2042TIP3    H1 6065   4.605   3.294   0.951 -2.5821 -0.3587 -0.0752
 2042TIP3    H2 6066   4.625   3.253   0.807 -0.3497  0.4716 -0.0217
 2043TIP3   OH2 6067   3.777   1.066   2.185  0.3409  0.2648 -0.1593
 2043TIP3    H1 6068   3.768   1.084   2.279 -0.8043  0.6726 -0.3419
 2043TIP3    H2 6069   3.853   1.009   2.179  0.0073 -0.3393  1.0976
 2044TIP3   OH2 6070   3.493   0.053   0.647  0.1420 -0.7088  0.5407
 2044TIP3    H1 6071   3.435  -0.021   0.630  0.1952 -0.7302  0.4552
 2044TIP3    H2 6072   3.567   0.041   0.588  0.2569 -0.7069  0.6822
 2045TIP3   OH2 6073   3.379   1.318   3.241 -0.2595 -0.1451 -0.0339
 2045TIP3    H1 6074   3.298   1.269   3.224 -0.0240 -0.9758  1.1584
 2045TIP3    H2 6075   3.365   1.358   3.326 -0.2589  1.5073 -0.8028
 2046TIP3   OH2 6076   1.597   7.325   1.353  0.2286 -0.3461 -0.0431
 2046TIP3    H1 6077   1.657   7.400   1.355 -1.5130  1.1106 -1.6048
 2046TIP3    H2 6078   1.644   7.258   1.302  0.6401  0.6888 -1.0297
 2047TIP3   OH2 6079   3.684   1.087   2.442  0.5260  0.3789 -0.5509
 2047TIP3    H1 6080   3.739   1.131   2.506  1.7571  1.0480 -2.0309
 2047TIP3    H2 6081   3.646   1.013   2.489  0.5314  1.4940  1.2287
 2048TIP3   OH2 6082   4.480   3.039   2.284 -0.2437  0.1010  0.0855
 2048TIP3    H1 6083   4.400   3.089   2.272 -0.5900 -0.3345  0.5425
 2048TIP3    H2 6084   4.457   2.950   2.259  0.4353  0.2165 -0.9633
 2049TIP3   OH2 6085   7.950   7.968   3.264 -0.4911  0.1800 -0.0741
 2049TIP3    H1 6086   7.863   8.007   3.271 -1.3116 -1.8158  1.1676
 2049TIP3    H2 6087   7.939   7.896   3.202  0.5159  0.5534 -0.6969
 2050TIP3   OH2 6088   0.194   7.952   3.723  0.0685  0.5449 -0.2114
 2050TIP3    H1 6089   0.193   8.044   3.749 -3.3821  0.9006 -1.3514
 2050TIP3    H2 6090   0.155   7.906   3.797  1.4361 -0.0060  0.1950
 2051TIP3   OH2 6091   6.923   2.481   2.730  0.0956  0.0109 -0.2919
 2051TIP3    H1 6092   6.841   2.530   2.737  0.3051  0.3773 -0.3601
 2051TIP3    H2 6093   6.989   2.548   2.712  0.1552 -0.4893 -1.9379
 2052TIP3   OH2 6094   0.697   7.569   3.621  0.1661  0.0389  0.5725
 2052TIP3    H1 6095   0.734   7.485   3.593 -0.2928  0.0997 -0.2341
 2052TIP3    H2 6096   0.715   7.573   3.715  0.5119 -0.7953  0.5463
 2053TIP3   OH2 6097   3.306   0.878   1.638 -0.6102 -0.3706  0.2060
 2053TIP3    H1 6098   3.293   0.844   1.549  1.1267 -1.9097  0.4921
 2053TIP3    H2 6099   3.325   0.801   1.690 -0.2209  0.6766  1.6434
 2054TIP3   OH2 6100   3.968   1.487   4.664  0.0397  0.2446 -0.9606
 2054TIP3    H1 6101   3.969   1.399   4.703 -0.9350  0.0899 -1.2780
 2054TIP3    H2 6102   4.043   1.532   4.705  1.8400 -1.3889 -2.3772
 2055TIP3   OH2 6103   0.989   7.981   2.106 -0.5162 -0.4074 -0.7768
 2055TIP3    H1 6104   1.042   8.059   2.121  0.2807 -0.7121 -1.9705
 2055TIP3    H2 6105   1.040   7.928   2.045  0.1368 -3.0741  1.9837
 2056TIP3   OH2 6106   5.449   2.969   6.038  0.3220 -0.4698  0.1170
 2056TIP3    H1 6107   5.525   3.006   6.083  1.9115 -2.3399 -0.9756
 2056TIP3    H2 6108   5.414   2.905   6.100  0.2352 -0.3216  0.2214
 2057TIP3   OH2 6109   4.543   2.032   4.845  0.4552  0.2820  0.0773
 2057TIP3    H1 6110   4.523   1.945   4.880  1.9510 -0.0430  0.1974
 2057TIP3    H2 6111   4.634   2.025   4.815  0.7189  1.9145  0.4386
 2058TIP3   OH2 6112   5.934   2.096   2.860 -0.5754  0.5731 -0.3337
 2058TIP3    H1 6113   5.908   2.113   2.951  1.0854  1.8942 -0.0800
 2058TIP3    H2 6114   5.903   2.008   2.842 -0.2793  0.0114  1.7810
 2059TIP3   OH2 6115   4.733   1.982   4.059 -0.6471 -0.4049 -0.2907
 2059TIP3    H1 6116   4.692   2.052   4.110  1.0685 -0.2730  0.9561
 2059TIP3    H2 6117   4.661   1.944   4.009 -2.5001 -0.7254  2.4700
 2060TIP3   OH2 6118   6.816   1.710   2.558  0.2176  0.1311  0.2871
 2060TIP3    H1 6119   6.883   1.660   2.605  0.4171  0.9271  0.8653
 2060TIP3    H2 6120   6.758   1.742   2.627  0.0460  0.6284 -0.0889
 2061TIP3   OH2 6121   0.694   7.435   1.474  0.5487 -0.5794  0.0736
 2061TIP3    H1 6122   0.736   7.359   1.434  0.6346  1.0828 -3.1811
 2061TIP3    H2 6123   0.616   7.449   1.422 -0.2917  0.6538  1.6282
 2062TIP3   OH2 6124   5.833   2.105   0.357 -0.4022  0.5602 -0.5002
 2062TIP3    H1 6125   5.834   2.083   0.264  1.1340 -0.6732 -0.2104
 2062TIP3    H2 6126   5.803   2.025   0.400  0.1810  0.6967  0.1621
 2063TIP3   OH2 6127   5.304   0.132   4.932  0.1578 -0.1473 -0.3299
 2063TIP3    H1 6128   5.344   0.054   4.969 -0.0063 -1.2324 -2.4001
 2063TIP3    H2 6129   5.369   0.165   4.870 -0.5321  0.3216 -0.8057
 2064TIP3   OH2 6130   2.870   0.062   4.042 -0.5740  0.0115 -0.0490
 2064TIP3    H1 6131   2.951   0.096   4.006 -0.1519 -0.5813  0.3333
 2064TIP3    H2 6132   2.837   0.133   4.098  1.6268 -1.1418  2.7991
 2065TIP3   OH2 6133   8.020   3.067   3.807 -0.3825  0.0698  0.4800
 2065TIP3    H1 6134   8.048   3.024   3.887  0.2561 -1.8179 -0.7259
 2065TIP3    H2 6135   8.093   3.124   3.783  0.1194 -0.6252  0.3495
 2066TIP3   OH2 6136   0.798   7.186   4.308  0.7827 -0.2418  0.5819
 2066TIP3    H1 6137   0.880   7.230   4.331 -0.2433  1.4578  1.0207
 2066TIP3    H2 6138   0.745   7.254   4.265  0.0164 -1.6034 -0.6793
 2067TIP3   OH2 6139   3.277   0.766   3.720  0.1009  0.4966 -0.3624
 2067TIP3    H1 6140   3.327   0.751   3.640 -0.4892  0.3500 -0.6989
 2067TIP3    H2 6141   3.213   0.695   3.722 -0.8347  1.3302 -0.4924
 2068TIP3   OH2 6142   3.290   2.263   5.767 -0.4494  0.0197  0.3953
 2068TIP3    H1 6143   3.316   2.258   5.675  2.3622  0.3180  1.1420
 2068TIP3    H2 6144   3.212   2.319   5.767 -0.3768  0.1564 -1.7697
 2069TIP3   OH2 6145   6.580   1.383   2.223 -0.5389  0.0656  0.0860
 2069TIP3    H1 6146   6.674   1.396   2.208 -0.7421  0.2578 -1.0190
 2069TIP3    H2 6147   6.538   1.411   2.142 -1.6502  1.0962  0.9898
 2070TIP3   OH2 6148   4.301   2.532   4.492  0.4659 -0.2664 -0.0725
 2070TIP3    H1 6149   4.350   2.547   4.573 -0.6796  0.7520  0.4542
 2070TIP3    H2 6150   4.231   2.471   4.518  2.1192 -2.6848 -1.0847
 2071TIP3   OH2 6151   6.704   0.267   2.958 -0.5281 -0.1311 -0.2056
 2071TIP3    H1 6152   6.789   0.278   2.916 -0.9366  0.7823 -0.8254
 2071TIP3    H2 6153   6.657   0.349   2.939 -0.9099  0.1006  1.5926
 2072TIP3   OH2 6154   1.571   5.714   3.118 -0.2532 -0.2731  0.3587
 2072TIP3    H1 6155   1.594   5.624   3.141 -1.4575 -0.8583 -0.6819
 2072TIP3    H2 6156   1.476   5.719   3.131 -0.4526  0.3453 -1.1961
 2073TIP3   OH2 6157   1.094   6.255   3.399 -0.4685 -0.0441  0.5135
 2073TIP3    H1 6158   1.032   6.217   3.337 -0.8585 -0.0994  0.9354
 2073TIP3    H2 6159   1.154   6.307   3.345 -0.5512 -0.4344  0.0492
 2074TIP3   OH2 6160   4.732   3.200   3.405 -0.3773 -0.6631  0.1193
 2074TIP3    H1 6161   4.770   3.234   3.324 -1.2266  0.3344  0.1239
 2074TIP3    H2 6162   4.785   3.123   3.426 -0.2031 -0.9950 -1.4394
 2075TIP3   OH2 6163   2.497   7.405   4.819  0.0410 -0.8214 -0.1199
 2075TIP3    H1 6164   2.508   7.490   4.777 -1.6229 -0.3792  0.3027
 2075TIP3    H2 6165   2.585   7.380   4.847  0.5818  0.6320 -0.4884
 2076TIP3   OH2 6166   2.544   0.714   3.983 -0.0485 -0.3593  0.1635
 2076TIP3    H1 6167   2.489   0.639   3.962 -2.5449  1.4719 -0.0950
 2076TIP3    H2 6168   2.591   0.733   3.902 -0.0848 -1.0871 -0.0304
 2077TIP3   OH2 6169   1.263   5.523   3.219  0.4445 -0.1959  0.9558
 2077TIP3    H1 6170   1.352   5.502   3.191  0.3877 -0.2465  0.8155
 2077TIP3    H2 6171   1.257   5.618   3.210 -0.2467 -0.4291 -1.1579
 2078TIP3   OH2 6172   3.291   1.789   1.541 -0.6064 -0.5305 -0.3794
 2078TIP3    H1 6173   3.199   1.769   1.559 -0.7021  0.0301 -0.2167
 2078TIP3    H2 6174   3.288   1.872   1.493 -0.1853 -0.4643 -0.2925
 2079TIP3   OH2 6175   3.465   1.305   5.122  0.3871 -0.3044 -0.1562
 2079TIP3    H1 6176   3.540   1.265   5.166  1.2491  1.1611 -0.2595
 2079TIP3    H2 6177   3.423   1.358   5.189 -0.7531 -1.3607 -0.0209
 2080TIP3   OH2 6178   1.480   0.096   2.162  0.4031 -0.2410 -0.7927
 2080TIP3    H1 6179   1.446   0.030   2.103  0.4512 -0.5506 -0.4758
 2080TIP3    H2 6180   1.454   0.066   2.249 -0.8589  0.8983 -0.7504
 2081TIP3   OH2 6181   3.598   1.662   5.031  0.1243 -0.1250 -0.5326
 2081TIP3    H1 6182   3.513   1.704   5.018  0.6119  0.8178 -0.7281
 2081TIP3    H2 6183   3.615   1.617   4.947 -0.4363 -0.7946 -0.2918
 2082TIP3   OH2 6184   5.166   2.358   2.821  0.0176 -0.4279  0.2511
 2082TIP3    H1 6185   5.085   2.367   2.771 -0.3011  1.4177  1.0466
 2082TIP3    H2 6186   5.140   2.313   2.901 -0.6089  1.7318  1.3089
 2083TIP3   OH2 6187   3.411   2.980   2.616 -0.3844  0.2912  0.2911
 2083TIP3    H1 6188   3.497   3.014   2.642 -0.3970  0.6474 -0.1251
 2083TIP3    H2 6189   3.430   2.919   2.544 -0.2272 -1.6507  1.9484
 2084TIP3   OH2 6190   4.959   2.529   4.586 -0.4709  0.2669  0.3367
 2084TIP3    H1 6191   4.870   2.500   4.604 -1.8224  2.9375 -1.6231
 2084TIP3    H2 6192   4.952   2.625   4.580  1.9570  0.3344 -2.6324
 2085TIP3   OH2 6193   3.320   7.464   3.377 -0.2121 -0.2670  0.2167
 2085TIP3    H1 6194   3.246   7.445   3.319 -0.9485  0.5161  0.8924
 2085TIP3    H2 6195   3.364   7.538   3.335 -1.4740  1.1197  1.2900
 2086TIP3   OH2 6196   6.579   2.945   2.211  0.0049  0.4480  0.0266
 2086TIP3    H1 6197   6.674   2.943   2.197  0.0768 -1.0294  0.6376
 2086TIP3    H2 6198   6.548   2.862   2.176 -1.2276  1.3612 -1.1167
 2087TIP3   OH2 6199   5.638   2.814   3.250  0.3659 -0.4863 -0.0817
 2087TIP3    H1 6200   5.692   2.828   3.328  0.8122 -0.9662 -0.3039
 2087TIP3    H2 6201   5.689   2.753   3.196 -0.0633 -0.3671 -0.6256
 2088TIP3   OH2 6202   4.331   0.636   4.014  0.1744 -0.0270  0.6806
 2088TIP3    H1 6203   4.310   0.728   4.028  1.4842  0.3245  0.4209
 2088TIP3    H2 6204   4.374   0.609   4.095 -0.1886 -0.4016  0.7477
 2089TIP3   OH2 6205   2.037   5.938   3.215  0.1157 -0.8103  0.3145
 2089TIP3    H1 6206   2.038   6.003   3.285  0.8829  0.1320 -0.5604
 2089TIP3    H2 6207   2.061   5.986   3.136 -0.9683 -1.8091 -0.6566
 2090TIP3   OH2 6208   3.498   0.412   1.507  0.5201  0.0546  0.0695
 2090TIP3    H1 6209   3.438   0.421   1.433 -0.6782  1.2026  1.1544
 2090TIP3    H2 6210   3.512   0.317   1.516  0.9832 -0.0680 -1.8434
 2091TIP3   OH2 6211   4.570   2.213   5.082 -0.5075  0.1895  0.0504
 2091TIP3    H1 6212   4.504   2.194   5.016 -0.2484  1.2686 -0.5281
 2091TIP3    H2 6213   4.652   2.220   5.033  0.0018 -0.8291  0.7211
 2092TIP3   OH2 6214   2.483   5.864   4.492 -0.6714 -0.6585  0.4613
 2092TIP3    H1 6215   2.543   5.883   4.564  0.9504  0.9175 -1.2516
 2092TIP3    H2 6216   2.419   5.936   4.495 -0.0991 -0.1260 -0.2112
 2093TIP3   OH2 6217   3.337   7.492   3.890  0.2478 -0.2070 -0.2616
 2093TIP3    H1 6218   3.419   7.523   3.929 -0.1897  0.5088  0.0981
 2093TIP3    H2 6219   3.338   7.398   3.905  0.0726  0.0648  1.5141
 2094TIP3   OH2 6220   4.570   1.223   2.787 -0.1201  0.4716 -0.2464
 2094TIP3    H1 6221   4.665   1.238   2.793 -0.0439 -0.6385  2.0699
 2094TIP3    H2 6222   4.532   1.297   2.834 -0.5267  1.8644 -2.6887
 2095TIP3   OH2 6223   6.539   1.649   2.316 -0.5472 -0.4880  0.2170
 2095TIP3    H1 6224   6.612   1.696   2.358 -1.9537  0.6896  1.4125
 2095TIP3    H2 6225   6.557   1.557   2.333  0.5600 -0.1971  0.6844
 2096TIP3   OH2 6226   4.399   0.005   3.740 -0.0908  0.1668  0.0523
 2096TIP3    H1 6227   4.403   0.100   3.732 -2.5472  0.4210  1.4299
 2096TIP3    H2 6228   4.436  -0.028   3.658 -1.8544  2.3228 -1.6565
 2097TIP3   OH2 6229   4.873   0.572   5.353  0.1058  0.0779  0.0900
 2097TIP3    H1 6230   4.810   0.560   5.282  0.4655 -1.5624  0.0156
 2097TIP3    H2 6231   4.957   0.584   5.309  0.1801  0.0053  0.2111
 2098TIP3   OH2 6232   2.936   5.422   4.206  0.2049  0.3583 -0.0199
 2098TIP3    H1 6233   2.928   5.364   4.281 -0.7354  0.6175  0.0895
 2098TIP3    H2 6234   3.029   5.426   4.188  0.3459 -0.4832  0.5238
 2099TIP3   OH2 6235   5.748   1.575   3.962 -0.2147  0.5403  0.0429
 2099TIP3    H1 6236   5.693   1.509   3.920 -0.1483  0.3370  0.2782
 2099TIP3    H2 6237   5.817   1.592   3.898 -0.5110  0.7527 -0.2296
 2100TIP3   OH2 6238   7.233   3.492   1.443  0.2464  0.0775  0.0270
 2100TIP3    H1 6239   7.284   3.563   1.403 -0.3819  0.8347  0.5487
 2100TIP3    H2 6240   7.172   3.465   1.375  1.1808 -0.6794 -0.5262
 2101TIP3   OH2 6241   2.522   1.232   5.365  0.3327 -0.0848 -0.5480
 2101TIP3    H1 6242   2.498   1.223   5.457 -2.0009 -1.2915 -1.2341
 2101TIP3    H2 6243   2.552   1.145   5.339 -0.6633 -0.1906 -1.3683
 2102TIP3   OH2 6244   4.929   0.571   4.481 -0.3589 -0.1322 -0.1103
 2102TIP3    H1 6245   4.963   0.651   4.522 -0.3957 -1.1790  2.0118
 2102TIP3    H2 6246   4.840   0.563   4.514  0.0630 -1.7101  0.6591
 2103TIP3   OH2 6247   5.382   1.187   3.552 -0.2632  0.0659  0.1473
 2103TIP3    H1 6248   5.448   1.143   3.606 -0.8368 -0.3878  0.4830
 2103TIP3    H2 6249   5.400   1.157   3.463  0.2470  0.2764  0.1731
 2104TIP3   OH2 6250   3.712   1.230   5.739 -0.1117 -0.7541 -0.4208
 2104TIP3    H1 6251   3.695   1.167   5.809 -0.8352 -1.3295 -1.0971
 2104TIP3    H2 6252   3.798   1.204   5.704 -0.4462 -1.4260 -0.7527
 2105TIP3   OH2 6253   5.042   2.160   4.895  0.4383 -0.0006  0.7542
 2105TIP3    H1 6254   5.047   2.071   4.858  0.6260  0.3546 -0.0867
 2105TIP3    H2 6255   5.065   2.217   4.822 -1.5101  0.8451  0.7896
 2106TIP3   OH2 6256   4.845   0.739   5.021  0.0428  0.3463 -0.0196
 2106TIP3    H1 6257   4.785   0.740   4.947 -1.9093  1.1571  1.5104
 2106TIP3    H2 6258   4.903   0.665   5.004 -3.2476 -2.3636 -0.1626
 2107TIP3   OH2 6259   3.952   1.180   3.881  0.2138 -0.9517 -0.2361
 2107TIP3    H1 6260   3.896   1.135   3.818  0.5397 -1.2714 -0.2965
 2107TIP3    H2 6261   3.913   1.159   3.966 -1.0823  0.6618 -0.4058
 2108TIP3   OH2 6262   4.428   2.079   5.290  0.0463 -0.5672  0.1066
 2108TIP3    H1 6263   4.440   2.094   5.384 -1.1027  0.3390  0.1067
 2108TIP3    H2 6264   4.489   2.140   5.248 -0.5291  0.0879  0.2276
 2109TIP3   OH2 6265   4.982   7.836   4.075  0.1133 -0.0259  0.0578
 2109TIP3    H1 6266   5.021   7.921   4.057  0.8215  0.1006  2.1069
 2109TIP3    H2 6267   4.888   7.850   4.068  0.0875  1.6046  3.0922
 2110TIP3   OH2 6268   4.356   0.578   5.109 -0.2716 -0.0494  0.0534
 2110TIP3    H1 6269   4.375   0.672   5.110 -0.7083  0.1768 -3.4571
 2110TIP3    H2 6270   4.281   0.570   5.050 -0.3200 -2.6091  0.3943
 2111TIP3   OH2 6271   4.092   1.770   2.998  0.0055  1.3583 -0.2603
 2111TIP3    H1 6272   4.109   1.843   3.058 -2.3777  3.4086 -1.9446
 2111TIP3    H2 6273   4.162   1.775   2.933 -0.0694  2.0639 -0.2895
 2112TIP3   OH2 6274   3.926   1.389   3.285 -0.0747  0.5466  0.4674
 2112TIP3    H1 6275   3.940   1.419   3.195 -0.1678 -0.6027  0.0601
 2112TIP3    H2 6276   3.899   1.467   3.332  0.2795  1.2255 -0.4386
 2113TIP3   OH2 6277   1.593   7.512   4.604 -0.0841  0.3049  0.1672
 2113TIP3    H1 6278   1.513   7.463   4.625 -0.2687  1.1000  1.3271
 2113TIP3    H2 6279   1.662   7.445   4.601 -0.8397 -0.4509 -1.2564
 2114TIP3   OH2 6280   4.158   0.535   0.258  0.0963  0.3698 -0.0967
 2114TIP3    H1 6281   4.194   0.449   0.279  0.3056  1.1104  2.7516
 2114TIP3    H2 6282   4.068   0.517   0.231 -0.3043 -0.6560  1.8135
 2115TIP3   OH2 6283   7.480   1.818   1.114 -0.3772 -0.9345 -0.3379
 2115TIP3    H1 6284   7.394   1.859   1.128 -0.1368 -0.2117 -0.9662
 2115TIP3    H2 6285   7.539   1.892   1.099  0.2197 -1.4771 -0.6336
 2116TIP3   OH2 6286   4.488   1.401   3.662 -0.7241 -0.3778  0.4198
 2116TIP3    H1 6287   4.467   1.321   3.710  0.9028 -0.2252  1.4359
 2116TIP3    H2 6288   4.550   1.373   3.594 -1.9098 -0.3534 -0.6753
 2117TIP3   OH2 6289   5.621   1.195   3.135  0.4801 -0.1522  0.2019
 2117TIP3    H1 6290   5.526   1.198   3.144  0.3949 -3.7577  1.0053
 2117TIP3    H2 6291   5.636   1.196   3.040 -0.3161  0.5856  0.0719
 2118TIP3   OH2 6292   6.371   0.857   1.721  0.2514  0.5518  0.2264
 2118TIP3    H1 6293   6.450   0.909   1.735 -0.1345  1.1949  0.0446
 2118TIP3    H2 6294   6.303   0.921   1.699 -0.1627 -0.0535 -0.2974
 2119TIP3   OH2 6295   3.296   6.933   1.728  0.0315  0.2239 -0.1226
 2119TIP3    H1 6296   3.301   6.840   1.751  0.6843  0.4750  0.7891
 2119TIP3    H2 6297   3.372   6.947   1.671 -0.7080 -0.0490 -1.1923
 2120TIP3   OH2 6298   5.623   1.178   1.682  0.1721  1.0288 -0.6813
 2120TIP3    H1 6299   5.558   1.242   1.652 -2.0550  0.1032  2.0411
 2120TIP3    H2 6300   5.596   1.096   1.641  0.9525  1.0693 -1.3008
 2121TIP3   OH2 6301   5.004   6.553   2.914  0.1358 -0.2107  0.9413
 2121TIP3    H1 6302   4.975   6.586   3.000  1.3573  1.5010  0.7212
 2121TIP3    H2 6303   5.089   6.513   2.931  1.3256  1.9159  0.2257
 2122TIP3   OH2 6304   7.320   2.359   4.167 -0.4836  0.1829 -0.0673
 2122TIP3    H1 6305   7.283   2.443   4.140  0.2852  0.6678  0.3698
 2122TIP3    H2 6306   7.299   2.352   4.260 -1.9341 -0.8559 -0.4491
 2123TIP3   OH2 6307   5.482   0.278   0.521  0.3990 -0.1635  0.5429
 2123TIP3    H1 6308   5.514   0.224   0.594  0.8235 -0.3481  0.2243
 2123TIP3    H2 6309   5.465   0.215   0.451  2.9298  0.3154 -0.5538
 2124TIP3   OH2 6310   2.072   7.907   2.742 -0.0562 -0.2256  0.5402
 2124TIP3    H1 6311   2.126   7.984   2.724 -2.1342  0.6340 -2.3379
 2124TIP3    H2 6312   1.999   7.940   2.795  0.1248 -0.6157  1.0372
 2125TIP3   OH2 6313   5.980   0.452   0.080  0.2180 -0.3938 -0.2054
 2125TIP3    H1 6314   6.050   0.408   0.032  0.2003  0.7516 -1.2994
 2125TIP3    H2 6315   5.917   0.383   0.099  1.1383 -1.2252 -0.1536
 2126TIP3   OH2 6316   5.987   1.728   3.362  0.1204  0.2412  0.5992
 2126TIP3    H1 6317   5.911   1.729   3.421 -0.3176 -0.5803  0.0635
 2126TIP3    H2 6318   6.056   1.684   3.412  0.3347  1.2039  1.1777
 2127TIP3   OH2 6319   7.393   0.137   3.352 -0.0649  0.5388 -0.1046
 2127TIP3    H1 6320   7.472   0.151   3.300 -0.1722  1.4221 -0.0354
 2127TIP3    H2 6321   7.377   0.043   3.347  2.2195  0.0044  1.6640
 2128TIP3   OH2 6322   6.539   2.056   2.504  0.2544  0.7840 -0.6508
 2128TIP3    H1 6323   6.599   2.031   2.574 -0.6724 -1.6244 -0.6763
 2128TIP3    H2 6324   6.596   2.081   2.431  1.2190  0.0686 -0.1489
 2129TIP3   OH2 6325   2.143   1.147   4.049 -0.2692 -0.5487 -0.0395
 2129TIP3    H1 6326   2.207   1.209   4.085 -0.7759  0.4988 -0.8758
 2129TIP3    H2 6327   2.087   1.124   4.123 -0.2878  0.2745  0.2108
 2130TIP3   OH2 6328   4.915   0.466   2.699  0.0330  0.6707 -0.1684
 2130TIP3    H1 6329   4.869   0.420   2.770  1.3791  0.6969  0.7535
 2130TIP3    H2 6330   4.932   0.553   2.735  3.7965 -0.4088  0.8509
 2131TIP3   OH2 6331   7.418   2.611   3.587  0.7929  0.1405  0.3767
 2131TIP3    H1 6332   7.352   2.637   3.651  0.6839  0.0596  0.2984
 2131TIP3    H2 6333   7.394   2.659   3.507  1.8273  1.4422  0.8218
 2132TIP3   OH2 6334   8.256   1.759   2.272 -0.2861 -0.1163 -0.8687
 2132TIP3    H1 6335   8.285   1.800   2.353  0.8044 -1.6943 -0.4349
 2132TIP3    H2 6336   8.162   1.748   2.282 -0.9228  3.8000 -1.7143
 2133TIP3   OH2 6337   7.201   0.913   3.233 -0.1614 -0.5146  0.3088
 2133TIP3    H1 6338   7.270   0.847   3.232 -0.6698 -1.1036  1.8269
 2133TIP3    H2 6339   7.222   0.971   3.161  2.9115  0.3252  1.8228
 2134TIP3   OH2 6340   7.859   1.091   0.972 -0.3214  0.2142 -0.4283
 2134TIP3    H1 6341   7.795   1.147   0.928 -1.0449 -0.5497 -0.3470
 2134TIP3    H2 6342   7.823   1.003   0.966  1.1760 -0.3610 -1.2115
 2135TIP3   OH2 6343   4.272   1.992   5.078  1.0307 -0.2955 -0.0429
 2135TIP3    H1 6344   4.316   2.011   5.161 -2.2167 -0.2011  1.7688
 2135TIP3    H2 6345   4.246   2.078   5.044 -0.3802 -0.5030  0.4691
 2136TIP3   OH2 6346   4.664   0.841   3.999 -0.5274 -0.1611 -0.0440
 2136TIP3    H1 6347   4.730   0.854   3.932 -2.5827  1.0038 -1.9289
 2136TIP3    H2 6348   4.646   0.747   3.999 -0.1306 -0.2360 -0.7672
 2137TIP3   OH2 6349   1.434   7.047   3.012  0.3639  0.2430 -0.2932
 2137TIP3    H1 6350   1.500   7.047   3.081 -0.3350 -1.4436  0.3967
 2137TIP3    H2 6351   1.483   7.030   2.932  0.9647  0.5908 -0.0006
 2138TIP3   OH2 6352   6.295   0.840   3.106 -0.3596  0.9052 -0.0689
 2138TIP3    H1 6353   6.308   0.775   3.174  0.6816  0.0659 -1.0454
 2138TIP3    H2 6354   6.251   0.794   3.035 -2.1061  1.9520  0.2894
 2139TIP3   OH2 6355   6.238   0.705   0.806  0.2290  0.1042 -0.1523
 2139TIP3    H1 6356   6.150   0.667   0.804  0.7386 -1.0314 -1.8294
 2139TIP3    H2 6357   6.284   0.654   0.873  0.3497 -1.0066 -1.0660
 2140TIP3   OH2 6358   6.421   0.287   2.274  0.3190 -0.3015  0.2832
 2140TIP3    H1 6359   6.450   0.195   2.270  0.7128 -0.1819  0.3586
 2140TIP3    H2 6360   6.406   0.312   2.183  0.8488 -0.2400  0.2121
 2141TIP3   OH2 6361   0.516   1.640   3.643  0.1645  0.6202 -0.1879
 2141TIP3    H1 6362   0.478   1.726   3.623 -1.2478  0.0381 -0.0245
 2141TIP3    H2 6363   0.506   1.590   3.562 -0.4089  0.1093  0.1945
 2142TIP3   OH2 6364   6.921   1.791   0.538 -0.1331 -0.3985 -0.2155
 2142TIP3    H1 6365   6.988   1.850   0.502 -0.1746  0.6195  1.3643
 2142TIP3    H2 6366   6.840   1.842   0.536 -0.5804 -1.1093 -0.6995
 2143TIP3   OH2 6367   8.283   1.383   0.795  0.0482 -0.0074 -0.6536
 2143TIP3    H1 6368   8.295   1.374   0.701 -1.4464  0.1548 -0.8779
 2143TIP3    H2 6369   8.189   1.371   0.809  0.1879  0.3815  0.7699
 2144TIP3   OH2 6370   5.490   7.598   2.550  0.6288 -0.0100 -0.5255
 2144TIP3    H1 6371   5.444   7.629   2.472 -0.4274  0.0070  0.0972
 2144TIP3    H2 6372   5.545   7.671   2.576  0.9334  0.0126 -1.1980
 2145TIP3   OH2 6373   7.556   1.125   1.800 -0.5805  0.9380  0.1276
 2145TIP3    H1 6374   7.582   1.039   1.768  0.2271 -0.0202  3.1535
 2145TIP3    H2 6375   7.463   1.133   1.779 -0.7746 -0.8854  0.2705
 2146TIP3   OH2 6376   4.143   2.104   3.021  0.0086  1.1483 -0.2553
 2146TIP3    H1 6377   4.172   2.189   3.055  0.6583  0.0574  2.0216
 2146TIP3    H2 6378   4.155   2.044   3.094 -0.0389 -1.0048 -1.9664
 2147TIP3   OH2 6379   6.370   1.004   2.911  0.7259 -0.0793 -0.0733
 2147TIP3    H1 6380   6.439   0.966   2.856 -0.2543 -0.6337 -0.9339
 2147TIP3    H2 6381   6.342   0.932   2.967  1.8137  0.5193  1.2662
 2148TIP3   OH2 6382   5.737   0.592   2.383  0.0002 -0.4886  0.1670
 2148TIP3    H1 6383   5.687   0.648   2.441  0.5311 -0.7427  0.8742
 2148TIP3    H2 6384   5.746   0.642   2.302  3.7420  2.0897  2.0424
 2149TIP3   OH2 6385   6.506   2.701   2.073  0.1117 -0.8918  0.7224
 2149TIP3    H1 6386   6.508   2.754   1.993  1.8931 -0.6128  0.9157
 2149TIP3    H2 6387   6.463   2.620   2.047  0.4001 -0.6825 -0.4650
 2150TIP3   OH2 6388   7.329   1.523   2.917  0.1163  0.0930  0.3398
 2150TIP3    H1 6389   7.355   1.521   2.825 -0.5918 -0.3447  0.1418
 2150TIP3    H2 6390   7.410   1.541   2.965  0.5273  0.0919 -0.3537
 2151TIP3   OH2 6391   5.598   1.946   1.581  0.1681 -0.1198 -0.1301
 2151TIP3    H1 6392   5.588   1.936   1.676  2.2347 -0.1856  0.0943
 2151TIP3    H2 6393   5.596   2.040   1.566  4.4218  0.1664  0.5582
 2152TIP3   OH2 6394   6.540   0.717   4.546 -0.0105 -0.4439  0.0481
 2152TIP3    H1 6395   6.585   0.760   4.474 -0.4104 -0.7863 -0.4084
 2152TIP3    H2 6396   6.448   0.718   4.520 -0.3816  0.9902  1.3420
 2153TIP3   OH2 6397   3.575   7.279   4.263 -0.7575 -0.4048 -0.4331
 2153TIP3    H1 6398   3.572   7.347   4.329 -1.0417 -1.3764  0.5700
 2153TIP3    H2 6399   3.485   7.246   4.259 -0.3809 -1.4997 -0.0719
 2154TIP3   OH2 6400   7.180   2.701   3.678 -0.6808  0.0585 -0.4781
 2154TIP3    H1 6401   7.132   2.685   3.759 -0.9046  1.0383 -0.4130
 2154TIP3    H2 6402   7.126   2.662   3.609 -0.8739 -0.0856 -0.2449
 2155TIP3   OH2 6403   3.627   1.780   3.108 -0.2840  0.0059 -0.3457
 2155TIP3    H1 6404   3.591   1.780   3.197 -1.2346  1.1266 -0.7179
 2155TIP3    H2 6405   3.613   1.690   3.077  0.3907 -0.5001  0.7599
 2156TIP3   OH2 6406   6.600   0.145   0.927 -0.3085  0.1856 -0.2854
 2156TIP3    H1 6407   6.559   0.226   0.957  0.5122  0.1240  1.0729
 2156TIP3    H2 6408   6.530   0.079   0.932 -0.8033  0.6765 -0.7623
 2157TIP3   OH2 6409   8.241   1.529   3.619  0.0159  0.4182 -0.2844
 2157TIP3    H1 6410   8.288   1.462   3.669 -2.0989 -0.6372  0.3541
 2157TIP3    H2 6411   8.172   1.481   3.573  0.8899  1.6309 -2.9206
 2158TIP3   OH2 6412   4.551   1.259   4.586 -0.1384 -0.7403  0.4394
 2158TIP3    H1 6413   4.580   1.186   4.532  1.2071  0.0566  0.0361
 2158TIP3    H2 6414   4.592   1.336   4.546 -1.4584  0.2238  0.9082
 2159TIP3   OH2 6415   6.371   2.772   3.340 -0.3056  0.1371  0.1794
 2159TIP3    H1 6416   6.301   2.732   3.289 -1.3118  0.8752  0.9217
 2159TIP3    H2 6417   6.351   2.748   3.431 -1.3324  2.7739  0.7269
 2160TIP3   OH2 6418   0.351   0.849   3.776 -0.5253  0.4917 -0.1107
 2160TIP3    H1 6419   0.424   0.863   3.716  0.1413 -1.4095  0.2191
 2160TIP3    H2 6420   0.275   0.838   3.719  0.0802 -1.1757 -0.6206
 2161TIP3   OH2 6421   7.895   0.999   1.774  0.4042 -0.3209 -0.7118
 2161TIP3    H1 6422   7.867   1.089   1.759 -1.5265 -0.8727 -0.5182
 2161TIP3    H2 6423   7.831   0.946   1.727  0.5885 -1.6576  0.5156
 2162TIP3   OH2 6424   5.855   0.689   3.265 -0.2597  0.2804 -0.1675
 2162TIP3    H1 6425   5.859   0.768   3.211  1.4514 -0.6392 -1.4266
 2162TIP3    H2 6426   5.762   0.667   3.269 -0.5912  1.4313 -1.1500
 2163TIP3   OH2 6427   5.906   6.996   3.260 -0.3183  0.2109 -0.7508
 2163TIP3    H1 6428   5.878   7.043   3.181 -0.8171  2.3557  0.6378
 2163TIP3    H2 6429   5.965   7.058   3.304 -0.5637 -0.6946  0.8632
 2164TIP3   OH2 6430   7.327   0.579   1.718  0.9466  0.3234 -0.1356
 2164TIP3    H1 6431   7.412   0.622   1.708  0.3189  1.4489 -0.7023
 2164TIP3    H2 6432   7.344   0.487   1.698  2.0236  0.5477 -0.2805
 2165TIP3   OH2 6433   8.079   1.322   4.320 -0.3760  0.2106  0.0548
 2165TIP3    H1 6434   8.099   1.280   4.404  0.8825 -0.4977 -0.5818
 2165TIP3    H2 6435   8.034   1.255   4.270 -0.5630  0.4305 -0.0737
 2166TIP3   OH2 6436   4.897   0.561   4.186  0.2422  0.5080 -0.1829
 2166TIP3    H1 6437   4.910   0.551   4.281 -0.1212  0.7854 -0.1008
 2166TIP3    H2 6438   4.939   0.644   4.165 -0.1645  0.7185 -0.1656
 2167TIP3   OH2 6439   6.015   1.519   4.826 -0.4496 -0.4417 -0.5633
 2167TIP3    H1 6440   6.108   1.535   4.811  0.1052 -0.6948  2.2206
 2167TIP3    H2 6441   5.999   1.433   4.787  0.6522 -0.7068 -0.4522
 2168TIP3   OH2 6442   6.906   0.892   1.464 -0.5737 -0.4078  0.1453
 2168TIP3    H1 6443   6.864   0.906   1.549  0.5757  0.5128  0.5692
 2168TIP3    H2 6444   6.969   0.963   1.456  0.3835 -1.3415 -0.8179
 2169TIP3   OH2 6445   2.498   5.545   1.704  0.1567  0.3551  0.5427
 2169TIP3    H1 6446   2.582   5.586   1.724  1.1547 -0.2914 -2.0542
 2169TIP3    H2 6447   2.442   5.618   1.675  0.3458  0.5693  0.7186
 2170TIP3   OH2 6448   8.288   1.020   1.038  0.0538  0.1829  0.5415
 2170TIP3    H1 6449   8.233   0.972   0.977 -0.0721 -0.0888  0.8682
 2170TIP3    H2 6450   8.315   0.955   1.103  1.9639 -0.0250 -0.4372
 2171TIP3   OH2 6451   7.776   1.008   3.646 -0.8406  0.2495 -1.2545
 2171TIP3    H1 6452   7.728   0.928   3.621  1.0201 -0.7939 -1.5402
 2171TIP3    H2 6453   7.707   1.074   3.658 -2.3636 -1.2504 -1.5421
 2172TIP3   OH2 6454   6.151   0.496   2.787 -0.0510  0.3707  0.5906
 2172TIP3    H1 6455   6.102   0.436   2.843 -0.7917  0.8450  0.4615
 2172TIP3    H2 6456   6.139   0.462   2.698 -0.1936  0.5171  0.5533
 2173TIP3   OH2 6457   5.873   3.485   4.367 -0.3677  0.4309  0.0622
 2173TIP3    H1 6458   5.864   3.580   4.380 -1.4415  0.4026 -0.4544
 2173TIP3    H2 6459   5.839   3.446   4.448 -2.3170  0.4161 -0.7416
 2174TIP3   OH2 6460   4.930   0.801   2.371 -0.4150 -0.3960  0.4283
 2174TIP3    H1 6461   5.011   0.802   2.422  0.2973 -0.5136 -0.6897
 2174TIP3    H2 6462   4.917   0.710   2.347  0.0481 -0.1422 -0.8352
 2175TIP3   OH2 6463   1.207   1.914   0.010 -0.1252 -0.0730 -0.3479
 2175TIP3    H1 6464   1.193   2.008   0.001  0.6556 -0.0702 -1.7298
 2175TIP3    H2 6465   1.232   1.902   0.101  1.3897  1.2761 -0.5690
 2176TIP3   OH2 6466   6.072   1.607   1.264  0.1921 -0.0700 -0.2036
 2176TIP3    H1 6467   5.981   1.637   1.259  0.4626  0.6375 -1.0137
 2176TIP3    H2 6468   6.115   1.670   1.321  0.2417 -0.2259 -0.0700
 2177TIP3   OH2 6469   2.932   0.635   3.913 -0.3282  0.4741  0.3005
 2177TIP3    H1 6470   2.884   0.701   3.863 -0.5435 -0.3765 -0.6265
 2177TIP3    H2 6471   3.005   0.610   3.855 -0.4505 -0.3528  0.4948
 2178TIP3   OH2 6472   7.807   1.056   2.035  0.3437  0.0141 -0.0730
 2178TIP3    H1 6473   7.878   1.070   2.098 -0.1307  0.2516  0.4222
 2178TIP3    H2 6474   7.849   1.017   1.959  1.2704  1.5564 -0.3919
 2179TIP3   OH2 6475   3.468   0.674   2.451  0.5203  0.5434 -0.0604
 2179TIP3    H1 6476   3.382   0.693   2.490  1.4660 -0.1971  2.5191
 2179TIP3    H2 6477   3.488   0.751   2.398 -0.6540  1.8118  1.2791
 2180TIP3   OH2 6478   7.285   1.176   2.492  0.2129  0.1096 -0.1765
 2180TIP3    H1 6479   7.239   1.093   2.504 -0.7032  0.8394  1.3652
 2180TIP3    H2 6480   7.304   1.179   2.398 -0.1914 -1.6084 -0.3215
 2181TIP3   OH2 6481   7.874   0.236   3.050 -0.0835 -0.3082 -0.0680
 2181TIP3    H1 6482   7.956   0.278   3.077 -0.1455 -0.5933  0.5640
 2181TIP3    H2 6483   7.881   0.229   2.955  0.2203  0.5259 -0.1080
 2182TIP3   OH2 6484   5.585   6.989   1.628 -0.1169  0.8816  0.3096
 2182TIP3    H1 6485   5.508   7.034   1.594 -1.7477 -1.7690  0.3936
 2182TIP3    H2 6486   5.572   6.986   1.722  0.4018  0.9912  0.3873
 2183TIP3   OH2 6487   4.349   7.690   3.121 -0.2655  0.2604 -0.2167
 2183TIP3    H1 6488   4.318   7.770   3.165  2.4824  1.1018  0.3064
 2183TIP3    H2 6489   4.408   7.722   3.052  0.0787 -1.2678 -0.6448
 2184TIP3   OH2 6490   3.408   7.793   2.452  0.3223  0.3218  0.3266
 2184TIP3    H1 6491   3.326   7.837   2.474  0.0275 -0.5706  1.0331
 2184TIP3    H2 6492   3.441   7.841   2.376 -1.0338  0.4478 -0.1873
 2185TIP3   OH2 6493   4.759   6.582   3.122 -0.3522  0.0996  0.1139
 2185TIP3    H1 6494   4.692   6.640   3.157 -0.7252  0.5699 -1.3388
 2185TIP3    H2 6495   4.716   6.537   3.049  0.1135 -1.5757  0.8455
 2186TIP3   OH2 6496   6.319   0.310   1.997  0.0813  0.4671 -0.2572
 2186TIP3    H1 6497   6.371   0.258   1.936  0.2140  1.0796 -0.6745
 2186TIP3    H2 6498   6.229   0.280   1.982  0.5334 -2.5197  2.3707
 2187TIP3   OH2 6499   6.471   0.592   1.821 -0.3549 -0.0502  0.1411
 2187TIP3    H1 6500   6.469   0.586   1.917  0.4748 -2.3582  0.0365
 2187TIP3    H2 6501   6.446   0.683   1.803  0.4317  0.7087  2.5872
 2188TIP3   OH2 6502   3.744   2.122   4.167 -0.2697 -0.3712  0.2633
 2188TIP3    H1 6503   3.800   2.181   4.218  1.5727 -2.2368  0.4538
 2188TIP3    H2 6504   3.798   2.096   4.092 -1.9097  0.0337 -1.0934
 2189TIP3   OH2 6505   3.714   7.052   2.292  0.0267 -0.0303 -0.2846
 2189TIP3    H1 6506   3.782   6.987   2.277 -0.3843 -0.7087  0.7065
 2189TIP3    H2 6507   3.642   7.027   2.234  0.0373 -0.2040 -0.2225
 2190TIP3   OH2 6508   7.074   0.348   3.559 -0.1126 -0.1735 -0.1974
 2190TIP3    H1 6509   7.088   0.413   3.628  2.1107 -0.4437 -0.3567
 2190TIP3    H2 6510   6.984   0.363   3.530 -0.6854  0.6944  1.9646
 2191TIP3   OH2 6511   0.249   1.173   3.322 -0.0031 -0.0784 -0.7797
 2191TIP3    H1 6512   0.331   1.152   3.367  1.1098  1.5312 -1.9872
 2191TIP3    H2 6513   0.264   1.144   3.232 -0.6453  0.4906 -1.0718
 2192TIP3   OH2 6514   7.268   0.651   1.301 -0.0790  0.1266 -0.2981
 2192TIP3    H1 6515   7.293   0.715   1.233  0.0740  0.2246 -0.1514
 2192TIP3    H2 6516   7.196   0.602   1.262 -0.0406  0.2316 -0.5049
 2193TIP3   OH2 6517   6.346   0.306   3.652 -0.8426  0.5013 -0.4221
 2193TIP3    H1 6518   6.355   0.316   3.747 -0.9229 -0.3871 -0.3195
 2193TIP3    H2 6519   6.427   0.341   3.616  0.2702 -1.4762  0.1229
 2194TIP3   OH2 6520   3.088   7.602   3.085 -0.2546 -0.0268  0.2897
 2194TIP3    H1 6521   3.010   7.658   3.089 -1.7627 -2.0824  0.4632
 2194TIP3    H2 6522   3.138   7.637   3.012 -1.4469  1.1935  0.0209
 2195TIP3   OH2 6523   7.391   1.045   1.507 -0.2722  0.0575 -0.3956
 2195TIP3    H1 6524   7.458   1.053   1.440  0.3288  1.0767  0.3123
 2195TIP3    H2 6525   7.383   0.951   1.522  2.0233 -0.0286  0.5315
 2196TIP3   OH2 6526   5.802   0.904   3.852 -0.0615 -0.1813  0.2656
 2196TIP3    H1 6527   5.807   0.949   3.936  1.1241 -0.1971  0.2186
 2196TIP3    H2 6528   5.888   0.862   3.842 -0.4017 -0.6797 -0.6727
 2197TIP3   OH2 6529   5.432   0.651   1.968  0.0804 -0.2234 -0.0559
 2197TIP3    H1 6530   5.392   0.585   1.911 -0.3153  0.0963 -0.1549
 2197TIP3    H2 6531   5.370   0.724   1.966 -0.6571 -0.7584  1.9210
 2198TIP3   OH2 6532   6.165   1.262   2.953  0.2325 -0.2677  0.6447
 2198TIP3    H1 6533   6.234   1.271   2.888 -0.0838  3.0091  0.7002
 2198TIP3    H2 6534   6.210   1.230   3.031  1.3542 -0.0277  0.1030
 2199TIP3   OH2 6535   7.272   1.147   2.212  0.1568 -0.6508  0.5977
 2199TIP3    H1 6536   7.279   1.056   2.186  0.0281 -0.0377 -1.6816
 2199TIP3    H2 6537   7.352   1.188   2.180 -0.7830  0.4695 -0.3660
 2200TIP3   OH2 6538   0.672   0.558   2.903  0.4489  0.2557  0.3835
 2200TIP3    H1 6539   0.626   0.526   2.825 -0.8982 -0.4082  1.4275
 2200TIP3    H2 6540   0.604   0.567   2.969  2.0868 -3.0108  2.7048
 2201TIP3   OH2 6541   5.341   2.237   2.412 -0.0304  0.7087  0.0562
 2201TIP3    H1 6542   5.247   2.246   2.393 -0.2442 -0.2893  0.5992
 2201TIP3    H2 6543   5.351   2.273   2.500  0.2542  1.6108 -0.3388
 2202TIP3   OH2 6544   7.948   3.160   2.022  0.3323 -0.4858 -0.3174
 2202TIP3    H1 6545   7.951   3.109   1.941  0.9162  0.4564 -0.9013
 2202TIP3    H2 6546   7.857   3.154   2.051 -0.3373  0.7242 -2.0560
 2203TIP3   OH2 6547   0.682   0.963   3.744  0.4218  0.5038 -0.2440
 2203TIP3    H1 6548   0.618   0.947   3.674  0.4892 -1.4499  0.1013
 2203TIP3    H2 6549   0.709   0.875   3.772  0.7551  1.2566  1.9112
 2204TIP3   OH2 6550   5.540   2.544   3.898  0.2649  0.2156  0.3230
 2204TIP3    H1 6551   5.598   2.608   3.940  0.4827  0.1319  0.1483
 2204TIP3    H2 6552   5.459   2.593   3.881  0.1070  0.2071  0.9941
 2205TIP3   OH2 6553   0.230   0.894   0.634 -0.2136  0.0824 -0.4561
 2205TIP3    H1 6554   0.221   0.948   0.713 -0.8265 -0.1346 -0.3765
 2205TIP3    H2 6555   0.324   0.896   0.615 -0.0840  0.2890  0.1727
 2206TIP3   OH2 6556   6.467   2.881   1.847 -0.3400 -0.2020 -0.8774
 2206TIP3    H1 6557   6.547   2.933   1.858 -0.4552 -0.5145  1.9121
 2206TIP3    H2 6558   6.430   2.911   1.764  0.5977  2.7948 -0.2893
 2207TIP3   OH2 6559   6.146   1.720   4.466  0.3473 -0.0436 -0.2556
 2207TIP3    H1 6560   6.088   1.795   4.459  0.4057 -0.1590 -2.3545
 2207TIP3    H2 6561   6.139   1.677   4.381  2.2141 -1.0151  0.0672
 2208TIP3   OH2 6562   4.069   0.121   2.899 -0.0168 -0.4060 -0.1259
 2208TIP3    H1 6563   4.162   0.114   2.880  0.4674 -0.0300  1.9814
 2208TIP3    H2 6564   4.060   0.206   2.942 -1.5961  0.2642 -1.7227
 2209TIP3   OH2 6565   4.976   2.003   1.641 -0.3452 -0.5431 -0.1809
 2209TIP3    H1 6566   5.023   2.007   1.558 -0.5835 -0.2615 -0.3039
 2209TIP3    H2 6567   4.991   2.088   1.682 -1.4145 -0.1539 -0.5915
 2210TIP3   OH2 6568   1.459   1.408   2.409  0.1893 -0.0420 -0.5574
 2210TIP3    H1 6569   1.384   1.383   2.356 -0.7220  1.2797  0.0720
 2210TIP3    H2 6570   1.509   1.468   2.353 -0.5918  1.0844 -0.0717
 2211TIP3   OH2 6571   1.958   7.503   2.758  0.2686 -0.6297 -0.1460
 2211TIP3    H1 6572   1.933   7.473   2.670  1.2807  0.5312 -0.8537
 2211TIP3    H2 6573   1.957   7.424   2.812  1.0153 -1.6164 -1.5323
 2212TIP3   OH2 6574   7.583   0.729   3.011 -0.0032 -0.1031  0.0585
 2212TIP3    H1 6575   7.582   0.813   2.966  0.9117 -0.3217 -0.3744
 2212TIP3    H2 6576   7.610   0.666   2.945  0.0302 -0.6326  0.5652
 2213TIP3   OH2 6577   5.563   2.077   2.377 -0.5345  0.5846 -0.3283
 2213TIP3    H1 6578   5.492   2.136   2.402 -1.3378 -1.2218  1.8206
 2213TIP3    H2 6579   5.642   2.118   2.414 -1.1827 -0.0082  1.7610
 2214TIP3   OH2 6580   4.512   6.390   1.409 -0.1025 -0.1999 -0.0670
 2214TIP3    H1 6581   4.591   6.414   1.457  1.2756 -1.7032 -1.5296
 2214TIP3    H2 6582   4.443   6.442   1.450  1.7984  1.9532  0.5279
 2215TIP3   OH2 6583   8.109   0.525   1.900  0.2560  0.4091  0.2717
 2215TIP3    H1 6584   8.022   0.508   1.935 -0.0524 -0.8944 -1.0819
 2215TIP3    H2 6585   8.104   0.614   1.864 -0.1626  0.7753  1.2241
 2216TIP3   OH2 6586   7.618   2.921   1.432  0.0923 -0.3734  0.1089
 2216TIP3    H1 6587   7.560   2.988   1.396 -0.6670  0.0046  1.9890
 2216TIP3    H2 6588   7.698   2.969   1.454  1.1079 -0.8663 -2.3396
 2217TIP3   OH2 6589   5.972   1.911   3.956 -0.7836  0.1918  0.5554
 2217TIP3    H1 6590   5.941   1.918   3.866  0.8284 -0.7396 -0.1001
 2217TIP3    H2 6591   5.986   1.817   3.969 -0.0289  0.4164  1.4211
 2218TIP3   OH2 6592   7.836   0.522   0.906  0.4643 -0.3550 -0.0740
 2218TIP3    H1 6593   7.786   0.511   0.826  0.6285  0.1380 -0.2471
 2218TIP3    H2 6594   7.834   0.436   0.948 -2.3850  0.1912  1.0291
 2219TIP3   OH2 6595   6.421   2.186   3.208  0.4255  0.7908 -0.4554
 2219TIP3    H1 6596   6.470   2.183   3.291 -0.4286 -1.0313  0.0117
 2219TIP3    H2 6597   6.336   2.223   3.232  0.2782  0.5319 -0.5845
 2220TIP3   OH2 6598   7.363   1.067   4.154  0.1516  0.3083 -0.2218
 2220TIP3    H1 6599   7.363   1.141   4.093 -0.2386 -0.9245 -1.7433
 2220TIP3    H2 6600   7.336   1.105   4.238  3.2448  2.5623 -0.1225
 2221TIP3   OH2 6601   5.741   2.460   2.513 -0.1113 -0.2502 -0.2027
 2221TIP3    H1 6602   5.762   2.539   2.562  0.0187  0.7667 -1.8347
 2221TIP3    H2 6603   5.756   2.484   2.421  0.1960 -2.2516 -0.7054
 2222TIP3   OH2 6604   3.154   6.776   4.040 -0.4051 -0.0081 -0.1069
 2222TIP3    H1 6605   3.064   6.781   4.073  0.7525  1.0094  3.1395
 2222TIP3    H2 6606   3.167   6.683   4.021 -1.1295 -0.7226  2.6107
 2223TIP3   OH2 6607   6.204   7.961   1.353 -0.4340  0.1795 -0.0734
 2223TIP3    H1 6608   6.140   7.891   1.369  0.5379 -1.0325 -1.3478
 2223TIP3    H2 6609   6.206   7.971   1.258 -0.2784  1.6900  0.0756
 2224TIP3   OH2 6610   6.460   1.276   6.505 -0.1491 -0.1501  0.0577
 2224TIP3    H1 6611   6.486   1.368   6.498  0.7817 -0.4637 -0.5994
 2224TIP3    H2 6612   6.364   1.279   6.501 -0.1419  0.8267  0.4668
 2225TIP3   OH2 6613   6.429   1.421   3.942 -0.2143  0.4364 -0.1632
 2225TIP3    H1 6614   6.351   1.468   3.915 -0.7118 -1.2881 -1.8722
 2225TIP3    H2 6615   6.418   1.407   4.036 -1.7158  0.6372 -0.3039
 2226TIP3   OH2 6616   7.464   3.025   3.417  0.5545  0.2203  0.2026
 2226TIP3    H1 6617   7.548   2.997   3.381  0.7401  0.1260  0.7090
 2226TIP3    H2 6618   7.484   3.056   3.505 -0.0493 -0.4132  0.5650
 2227TIP3   OH2 6619   6.303   1.336   3.518 -0.1440  0.0748  0.0700
 2227TIP3    H1 6620   6.259   1.257   3.486 -0.9117  0.0110  1.2550
 2227TIP3    H2 6621   6.396   1.311   3.522 -0.0962 -0.0627 -1.6122
 2228TIP3   OH2 6622   7.378   0.199   2.678 -0.4534  0.2680  0.1686
 2228TIP3    H1 6623   7.371   0.170   2.769 -0.6194  0.3778  0.1911
 2228TIP3    H2 6624   7.288   0.221   2.652 -0.7573 -1.9186 -0.7402
 2229TIP3   OH2 6625   5.173   0.020   2.963 -0.2513 -0.2174  0.1365
 2229TIP3    H1 6626   5.102   0.022   2.899  1.6069 -0.4110 -2.0193
 2229TIP3    H2 6627   5.247   0.061   2.917  1.5312 -1.6150  1.6748
 2230TIP3   OH2 6628   8.293   1.882   1.842 -0.2604 -0.3958 -0.1654
 2230TIP3    H1 6629   8.228   1.944   1.809  0.3535 -0.4108 -1.4282
 2230TIP3    H2 6630   8.335   1.847   1.764  0.9723 -0.7152  0.6242
 2231TIP3   OH2 6631   7.208   0.390   2.941  0.3301  0.2727  0.3144
 2231TIP3    H1 6632   7.243   0.301   2.941  0.5784  0.3639 -0.8042
 2231TIP3    H2 6633   7.260   0.436   2.875  1.2641  1.6761  1.9902
 2232TIP3   OH2 6634   5.149   6.390   3.263 -0.1236  0.3564 -0.3344
 2232TIP3    H1 6635   5.185   6.401   3.175  0.2671 -0.7172 -0.3102
 2232TIP3    H2 6636   5.183   6.306   3.293 -2.1737 -0.4274 -0.0952
 2233TIP3   OH2 6637   5.334   6.984   3.588  0.7336  0.4233 -0.0522
 2233TIP3    H1 6638   5.299   7.036   3.661 -2.8129 -1.4202 -0.3668
 2233TIP3    H2 6639   5.359   6.901   3.627 -2.6239 -1.1518 -1.1262
 2234TIP3   OH2 6640   6.268   3.152   3.576 -0.0810 -0.4688 -0.5901
 2234TIP3    H1 6641   6.325   3.136   3.651  2.2480 -0.7655 -2.3677
 2234TIP3    H2 6642   6.210   3.076   3.574 -1.5495  0.5171  2.0787
 2235TIP3   OH2 6643   5.656   7.125   2.321 -0.7107 -0.1532  0.6568
 2235TIP3    H1 6644   5.668   7.193   2.388 -0.6006 -1.5144  2.0324
 2235TIP3    H2 6645   5.744   7.097   2.299 -0.6962  1.0692 -0.8833
 2236TIP3   OH2 6646   7.830   0.355   3.664 -0.4549 -0.6612  0.2260
 2236TIP3    H1 6647   7.818   0.263   3.689  0.9134 -1.2910 -1.3790
 2236TIP3    H2 6648   7.808   0.358   3.571 -0.6238  0.6831  0.2972
 2237TIP3   OH2 6649   2.370   7.846   2.547 -0.3488 -0.0265 -0.3715
 2237TIP3    H1 6650   2.394   7.909   2.614 -1.0109 -1.6924  1.5028
 2237TIP3    H2 6651   2.452   7.824   2.503  0.3282  0.0489  0.8348
 2238TIP3   OH2 6652   6.982   2.525   3.736  0.4263 -0.5783 -0.7071
 2238TIP3    H1 6653   7.027   2.454   3.692  2.5403  1.5244 -2.0593
 2238TIP3    H2 6654   7.014   2.522   3.826  0.1309 -1.6329 -0.6349
 2239TIP3   OH2 6655   6.384   0.339   3.948 -0.2173 -0.0246 -0.1205
 2239TIP3    H1 6656   6.475   0.315   3.927  1.0544  3.4210  1.1385
 2239TIP3    H2 6657   6.370   0.306   4.036  0.9760  2.2502  0.9681
 2240TIP3   OH2 6658   6.698   1.413   3.957 -0.1972  0.3413 -0.5469
 2240TIP3    H1 6659   6.604   1.413   3.941 -0.5132 -0.0317  1.2174
 2240TIP3    H2 6660   6.707   1.436   4.049  1.3994 -0.4807 -0.4753
 2241TIP3   OH2 6661   0.847   1.216   1.889  0.3777  0.1451  0.2222
 2241TIP3    H1 6662   0.778   1.149   1.886  0.4029  0.0504  1.6070
 2241TIP3    H2 6663   0.866   1.234   1.797  1.8530 -3.2739 -0.2271
 2242TIP3   OH2 6664   0.292   1.494   2.148  0.2004 -0.1226 -0.2062
 2242TIP3    H1 6665   0.302   1.574   2.200 -1.1882 -0.2615  0.2869
 2242TIP3    H2 6666   0.210   1.506   2.100 -0.0707 -1.2860 -0.0527
 2243TIP3   OH2 6667   6.676   2.468   3.761  0.7615  0.4624  0.0490
 2243TIP3    H1 6668   6.770   2.451   3.767  0.4216 -1.5339  0.1592
 2243TIP3    H2 6669   6.663   2.501   3.672  1.3264 -0.9925 -0.5903
 2244TIP3   OH2 6670   8.041   1.312   1.373 -0.8461  0.3464 -0.3196
 2244TIP3    H1 6671   7.977   1.267   1.318  0.5361 -0.5427 -1.2347
 2244TIP3    H2 6672   8.126   1.291   1.334  0.1887 -0.3318  2.1942
 2245TIP3   OH2 6673   7.544   1.966   1.395  0.1231  0.5631  0.1365
 2245TIP3    H1 6674   7.573   1.987   1.483 -0.8334  0.4604  0.4865
 2245TIP3    H2 6675   7.527   2.051   1.354 -0.0663  0.5895  0.2701
 2246TIP3   OH2 6676   6.218   7.671   1.647 -0.1609 -0.2729 -0.0217
 2246TIP3    H1 6677   6.304   7.629   1.648 -0.2947 -0.5523 -0.2416
 2246TIP3    H2 6678   6.170   7.629   1.719  0.4130  0.9934  1.1242
 2247TIP3   OH2 6679   2.662   7.388   2.732 -0.6257  0.1432 -0.1649
 2247TIP3    H1 6680   2.579   7.419   2.770  0.6559  0.7348  2.2250
 2247TIP3    H2 6681   2.636   7.319   2.671 -2.8860  0.3199  0.5559
 2248TIP3   OH2 6682   4.002   2.088   2.767 -0.1752  0.1980  0.1493
 2248TIP3    H1 6683   4.023   2.081   2.860  0.3243 -2.0037 -0.1027
 2248TIP3    H2 6684   4.086   2.103   2.725 -0.1346 -0.7934 -0.1287
 2249TIP3   OH2 6685   7.332   1.056   5.006  0.8641 -0.1594  0.2058
 2249TIP3    H1 6686   7.349   1.115   5.080  0.7035 -0.0552  0.1593
 2249TIP3    H2 6687   7.248   1.086   4.971 -0.3614 -1.8718  1.6063
 2250TIP3   OH2 6688   7.062   0.960   3.830  0.1646  0.0858 -0.6017
 2250TIP3    H1 6689   7.081   1.014   3.906  0.1331 -0.7711  0.0329
 2250TIP3    H2 6690   6.966   0.956   3.826  0.1136 -2.8618  1.5471
 2251TIP3   OH2 6691   8.490   2.469   1.604  0.1836  0.5277 -0.2705
 2251TIP3    H1 6692   8.536   2.536   1.655 -0.8229  1.5404 -0.6584
 2251TIP3    H2 6693   8.414   2.514   1.569  0.4077 -0.3703 -1.9898
 2252TIP3   OH2 6694   6.543   7.459   2.209 -0.1904  0.1066 -0.2564
 2252TIP3    H1 6695   6.512   7.526   2.147 -1.7096 -0.8872 -0.5897
 2252TIP3    H2 6696   6.466   7.405   2.226 -0.0489  0.9053  3.2275
 2253TIP3   OH2 6697   2.283   6.461   1.643 -0.2813 -0.5086 -0.2675
 2253TIP3    H1 6698   2.315   6.543   1.678  1.0773 -0.5072 -1.4509
 2253TIP3    H2 6699   2.290   6.399   1.715 -1.1396  0.3622  0.5702
 2254TIP3   OH2 6700   7.109   1.189   4.239  0.1601  0.3757  0.2643
 2254TIP3    H1 6701   7.024   1.207   4.279 -0.9262 -1.6126 -1.0694
 2254TIP3    H2 6702   7.096   1.206   4.146  1.2541  0.1372  0.0555
 2255TIP3   OH2 6703   5.978   1.492   2.917  0.2595 -0.0375 -0.6256
 2255TIP3    H1 6704   5.933   1.507   3.000  2.3840  2.0574  0.2060
 2255TIP3    H2 6705   6.010   1.401   2.924  1.0703  0.3458  1.2091
 2256TIP3   OH2 6706   7.352   0.320   1.624 -0.2709 -0.4033  0.1354
 2256TIP3    H1 6707   7.313   0.353   1.544  0.2264  1.5910  0.6933
 2256TIP3    H2 6708   7.425   0.265   1.595 -1.1299 -1.0711 -0.7942
 2257TIP3   OH2 6709   4.881   1.198   3.111 -0.6264 -0.5837  0.5826
 2257TIP3    H1 6710   4.878   1.245   3.028 -0.5603 -0.8443  0.4327
 2257TIP3    H2 6711   4.809   1.234   3.162  0.5782  1.0225  1.1853
 2258TIP3   OH2 6712   4.069   1.736   2.311  0.0890 -0.4328 -0.0658
 2258TIP3    H1 6713   3.984   1.692   2.315 -0.4063  0.6087  1.3168
 2258TIP3    H2 6714   4.116   1.691   2.241 -0.9032 -2.2426  0.4058
 2259TIP3   OH2 6715   7.046   1.617   2.677  0.6932  0.1489  0.6147
 2259TIP3    H1 6716   7.111   1.559   2.638  1.2052 -1.0707  3.1766
 2259TIP3    H2 6717   7.096   1.692   2.708  0.6401  0.0383  0.9767
 2260TIP3   OH2 6718   5.422   2.438   3.458  0.3949 -0.0220  0.1392
 2260TIP3    H1 6719   5.496   2.449   3.398  0.6421 -2.0224  0.0540
 2260TIP3    H2 6720   5.461   2.401   3.537 -0.5497 -1.3733 -0.0207
 2261TIP3   OH2 6721   4.759   8.043   2.950 -0.7459  0.1624  0.1659
 2261TIP3    H1 6722   4.791   8.025   2.862 -0.3295  2.3741 -0.1697
 2261TIP3    H2 6723   4.783   7.966   3.001 -0.0574 -0.6866 -1.4244
 2262TIP3   OH2 6724   4.946   0.029   3.327 -0.2090 -0.4167 -0.9678
 2262TIP3    H1 6725   4.937   0.065   3.239 -1.1338 -0.8734 -1.0693
 2262TIP3    H2 6726   4.981   0.101   3.379 -0.3923  0.0928 -1.5440
 2263TIP3   OH2 6727   6.305   7.875   4.783 -0.0122 -0.3024  0.4429
 2263TIP3    H1 6728   6.218   7.914   4.776 -0.0081 -0.1310  1.3425
 2263TIP3    H2 6729   6.297   7.811   4.854  0.6193 -0.2332  0.5815
 2264TIP3   OH2 6730   0.035   1.747   5.176  0.0670  0.5326 -0.4026
 2264TIP3    H1 6731   0.020   1.838   5.151 -0.4295 -0.0159 -2.1819
 2264TIP3    H2 6732  -0.027   1.697   5.122  0.6126 -0.8804  0.2633
 2265TIP3   OH2 6733   8.399   3.222   0.645 -0.4656 -0.1801  0.0282
 2265TIP3    H1 6734   8.450   3.145   0.620 -1.5144 -0.9348  0.1697
 2265TIP3    H2 6735   8.308   3.193   0.643 -0.8073  0.7254  1.2370
 2266TIP3   OH2 6736   4.129   1.354   2.846 -0.2757 -0.0981 -0.1434
 2266TIP3    H1 6737   4.155   1.276   2.894 -0.5912 -0.6251 -0.8076
 2266TIP3    H2 6738   4.060   1.394   2.900  1.3330  0.8678  1.2140
 2267TIP3   OH2 6739   8.425   1.995   1.082  0.2576 -0.2099  0.1353
 2267TIP3    H1 6740   8.390   1.914   1.117  0.6582 -0.5942 -0.3390
 2267TIP3    H2 6741   8.519   1.990   1.098  0.1175  0.7474  1.2668
 2268TIP3   OH2 6742   7.747   1.563   2.502 -0.3134  0.4980  0.0847
 2268TIP3    H1 6743   7.775   1.475   2.525 -1.7133 -0.4367 -1.6814
 2268TIP3    H2 6744   7.825   1.617   2.515  0.3414 -0.8410  1.9169
 2269TIP3   OH2 6745   4.960   1.794   1.809 -0.6462 -0.2991  0.8528
 2269TIP3    H1 6746   4.973   1.867   1.749  2.0425 -1.7041 -0.3889
 2269TIP3    H2 6747   5.005   1.820   1.889  1.5379 -1.0981 -0.0675
 2270TIP3   OH2 6748   7.573   1.884   1.928 -0.4339  0.0217  0.3276
 2270TIP3    H1 6749   7.497   1.939   1.909  0.1068  0.6257 -0.1120
 2270TIP3    H2 6750   7.536   1.801   1.959 -1.2502  0.7371  1.2929
 2271TIP3   OH2 6751   6.210   2.583   1.838 -0.3436  0.2158  0.4380
 2271TIP3    H1 6752   6.157   2.645   1.787 -0.5389 -0.0636  0.3027
 2271TIP3    H2 6753   6.195   2.609   1.929 -0.9721 -0.0656  0.4201
 2272TIP3   OH2 6754   5.692   0.128   2.804  0.2082  0.5488  0.1689
 2272TIP3    H1 6755   5.780   0.165   2.815  0.0452  0.7570  0.7325
 2272TIP3    H2 6756   5.642   0.197   2.761  0.0575  0.7683  0.7080
 2273TIP3   OH2 6757   6.933   0.581   2.776  0.0587 -0.0509 -0.3033
 2273TIP3    H1 6758   6.845   0.608   2.800  0.0141  0.2632 -0.8146
 2273TIP3    H2 6759   6.988   0.615   2.846 -0.4381 -1.8580  0.9898
 2274TIP3   OH2 6760   7.923   0.424   2.095 -0.9800  0.2521 -0.1552
 2274TIP3    H1 6761   7.892   0.438   2.184  0.4054 -0.1068  0.3972
 2274TIP3    H2 6762   7.944   0.331   2.090  0.0776  0.5049 -0.4898
 2275TIP3   OH2 6763   8.086   2.684   1.798 -0.1962  0.2958 -0.5166
 2275TIP3    H1 6764   7.992   2.688   1.815 -0.2107 -1.8176 -0.0285
 2275TIP3    H2 6765   8.127   2.707   1.881 -0.2931 -0.3238 -0.2928
 2276TIP3   OH2 6766   7.143   7.981   3.756 -0.3339 -0.5180 -0.1741
 2276TIP3    H1 6767   7.082   7.975   3.682 -1.8287  0.7974  0.8921
 2276TIP3    H2 6768   7.118   7.909   3.813 -1.8263  0.7990  0.8923
 2277TIP3   OH2 6769   5.345   7.722   3.116 -0.0976 -0.0743 -0.2581
 2277TIP3    H1 6770   5.289   7.661   3.164 -0.5510  0.4574 -0.1139
 2277TIP3    H2 6771   5.396   7.766   3.184  0.9578 -1.0104 -0.4310
 2278TIP3   OH2 6772   5.993   7.680   2.920 -0.1705  0.2512  0.0042
 2278TIP3    H1 6773   5.979   7.585   2.928  0.1103  0.1582 -0.5317
 2278TIP3    H2 6774   6.084   7.693   2.946 -0.9524  0.7308  2.5885
 2279TIP3   OH2 6775   8.089   3.733   2.098 -0.0339  0.0515  0.2200
 2279TIP3    H1 6776   8.032   3.699   2.167 -1.0770 -0.8642 -1.0546
 2279TIP3    H2 6777   8.156   3.782   2.144 -1.4138  0.4938  1.8134
 2280TIP3   OH2 6778   7.790   2.983   0.450  0.2304 -0.6730  0.2044
 2280TIP3    H1 6779   7.812   2.924   0.522  0.0684  0.8329  1.5066
 2280TIP3    H2 6780   7.762   2.925   0.379  1.4696 -2.2312  0.9638
 2281TIP3   OH2 6781   4.133   7.923   2.447  0.2835  0.0809 -0.0221
 2281TIP3    H1 6782   4.142   7.833   2.479  3.1019  0.3241 -0.0096
 2281TIP3    H2 6783   4.151   7.918   2.354 -0.9482  0.4461 -0.2943
 2282TIP3   OH2 6784   6.916   3.711   0.859  0.5240 -0.0236 -0.7439
 2282TIP3    H1 6785   6.838   3.764   0.846  0.0847 -0.2573  0.8435
 2282TIP3    H2 6786   6.988   3.769   0.836  0.0849  1.5282  1.6625
 2283TIP3   OH2 6787   6.929   6.944   3.408 -0.6916 -0.2200 -0.0006
 2283TIP3    H1 6788   6.888   7.031   3.414 -0.1498  0.0559 -0.3259
 2283TIP3    H2 6789   7.000   6.955   3.345 -0.6976 -0.9333 -0.1380
 2284TIP3   OH2 6790   7.566   1.484   3.567 -0.0317  0.7579  0.1010
 2284TIP3    H1 6791   7.651   1.507   3.605  0.5485 -1.7363  0.4044
 2284TIP3    H2 6792   7.554   1.546   3.495  1.6010  1.7376  0.6451
 2285TIP3   OH2 6793   1.465   1.594   3.114  0.8896 -0.0981  0.5187
 2285TIP3    H1 6794   1.475   1.684   3.083 -0.5883  0.2160  0.9043
 2285TIP3    H2 6795   1.540   1.548   3.077  0.8856  0.9697 -0.8776
 2286TIP3   OH2 6796   7.516   0.851   2.450  0.5320  0.1387 -0.0219
 2286TIP3    H1 6797   7.511   0.884   2.540  0.6304  0.5922 -0.1811
 2286TIP3    H2 6798   7.571   0.915   2.404  0.4707 -0.0832 -0.4063
 2287TIP3   OH2 6799   6.016   7.614   2.325  0.7367 -0.4036  0.0976
 2287TIP3    H1 6800   5.929   7.639   2.357  0.8131 -0.8696  0.6846
 2287TIP3    H2 6801   6.067   7.596   2.404  1.3894 -0.0633 -0.2443
 2288TIP3   OH2 6802   7.794   0.236   0.908 -0.2240  0.3884 -0.1771
 2288TIP3    H1 6803   7.778   0.213   0.999  1.2037 -0.4778 -0.1417
 2288TIP3    H2 6804   7.743   0.174   0.857  0.2014 -0.1139  0.0070
 2289TIP3   OH2 6805   7.910   2.076   1.133  0.2109 -0.0384  0.6705
 2289TIP3    H1 6806   7.875   2.059   1.221  1.5419  0.4631  1.3147
 2289TIP3    H2 6807   7.986   2.133   1.148  0.8118 -0.4388 -0.7585
 2290TIP3   OH2 6808   5.022   6.495   1.409 -0.1477 -0.5293 -0.5924
 2290TIP3    H1 6809   5.111   6.505   1.444 -0.2254  1.0907 -0.8078
 2290TIP3    H2 6810   5.024   6.541   1.325 -1.1986 -0.4349 -0.5719
 2291TIP3   OH2 6811   0.451   2.071   1.259 -0.0936  0.1633  1.2425
 2291TIP3    H1 6812   0.435   1.991   1.310 -0.2662  0.5426  1.7816
 2291TIP3    H2 6813   0.544   2.089   1.273  0.7331 -1.6534 -1.3394
 2292TIP3   OH2 6814   6.320   7.984   3.192  0.3474 -0.1211  0.0102
 2292TIP3    H1 6815   6.255   7.941   3.247  0.6526  0.7773  1.1194
 2292TIP3    H2 6816   6.329   7.928   3.115 -1.4316 -0.4548  0.0327
 2293TIP3   OH2 6817   5.073   6.982   2.193 -0.9038  0.6094  0.2553
 2293TIP3    H1 6818   5.119   6.909   2.236 -1.2049 -0.4205 -1.1135
 2293TIP3    H2 6819   5.130   7.006   2.120  0.0095  2.9046  1.6840
 2294TIP3   OH2 6820   0.789   1.146   2.521  0.1068 -0.3235  0.7715
 2294TIP3    H1 6821   0.874   1.168   2.558 -0.3769  0.1332  1.6247
 2294TIP3    H2 6822   0.785   1.051   2.524  0.9707 -0.3973 -0.1446
 2295TIP3   OH2 6823   0.705   2.328   3.093 -0.0731 -0.3944  0.4065
 2295TIP3    H1 6824   0.616   2.305   3.066  0.4824 -3.5773  1.1696
 2295TIP3    H2 6825   0.758   2.313   3.015 -0.2274  2.2353 -0.2846
 2296TIP3   OH2 6826   7.892   0.591   0.233  0.4645  0.2430  0.0221
 2296TIP3    H1 6827   7.846   0.591   0.150 -0.6493  0.9491  0.6237
 2296TIP3    H2 6828   7.823   0.604   0.299  1.4570  0.8752  0.9629
 2297TIP3   OH2 6829   7.135   2.044   2.217  0.0128  0.5434  0.0593
 2297TIP3    H1 6830   7.083   1.976   2.260  0.1270  0.6435  0.3565
 2297TIP3    H2 6831   7.226   2.014   2.225  0.1143  1.0109  0.6984
 2298TIP3   OH2 6832   0.127   1.329   2.622 -0.6349  0.0683  0.3799
 2298TIP3    H1 6833   0.063   1.372   2.566 -1.8898  0.2436  1.9098
 2298TIP3    H2 6834   0.203   1.387   2.620 -1.3321  0.9918  0.2701
 2299TIP3   OH2 6835   7.904   3.545   1.506  0.0838 -0.0308 -0.0142
 2299TIP3    H1 6836   7.980   3.594   1.473  0.2889  0.3671  1.0144
 2299TIP3    H2 6837   7.939   3.459   1.526 -0.0102 -0.2292 -0.6891
 2300TIP3   OH2 6838   0.197   1.134   0.820 -0.1232 -0.3173 -0.4882
 2300TIP3    H1 6839   0.118   1.087   0.845 -0.4705  0.3011 -0.4041
 2300TIP3    H2 6840   0.212   1.195   0.892  0.3861 -0.3807 -0.5410
 2301TIP3   OH2 6841   1.168   1.226   3.196 -0.1663  0.8501  0.5975
 2301TIP3    H1 6842   1.152   1.306   3.245 -1.2368 -0.2108  2.0115
 2301TIP3    H2 6843   1.183   1.159   3.263 -1.2130 -0.5372 -0.5224
 2302TIP3   OH2 6844   2.018   3.434   3.314 -0.2692  0.2373 -0.1283
 2302TIP3    H1 6845   2.112   3.428   3.300 -0.7656 -0.8616 -3.2875
 2302TIP3    H2 6846   1.988   3.496   3.248 -1.6368  1.4367  1.5816
 2303TIP3   OH2 6847   8.481   1.153   4.272  0.5187  0.2038 -0.4713
 2303TIP3    H1 6848   8.437   1.133   4.190 -2.6394  2.5367  0.5403
 2303TIP3    H2 6849   8.445   1.090   4.335  1.7692 -0.5653 -0.5008
 2304TIP3   OH2 6850   0.719   1.863   4.684 -0.2687 -0.7614  0.3165
 2304TIP3    H1 6851   0.769   1.844   4.605  0.6206  1.0546  0.3992
 2304TIP3    H2 6852   0.783   1.855   4.755 -0.3057  0.5592  0.5225
 2305TIP3   OH2 6853   8.065   1.462   4.100 -0.0207  0.4385 -0.2620
 2305TIP3    H1 6854   8.120   1.406   4.044  0.5931 -0.1414  0.9109
 2305TIP3    H2 6855   8.076   1.427   4.188 -0.5303  1.7170  0.3253
 2306TIP3   OH2 6856   0.899   2.551   4.076 -0.0442 -0.5370 -0.7210
 2306TIP3    H1 6857   0.970   2.578   4.135 -0.2124 -1.3484 -0.1422
 2306TIP3    H2 6858   0.889   2.457   4.091 -0.9859 -0.5023 -1.0661
 2307TIP3   OH2 6859   6.980   7.728   2.981 -0.0931  0.2129 -0.5411
 2307TIP3    H1 6860   7.073   7.749   2.970  0.6243 -1.8386  1.3467
 2307TIP3    H2 6861   6.971   7.641   2.942 -1.0745  0.0932 -0.0453
 2308TIP3   OH2 6862   8.475   7.946   4.341 -0.1719  0.7813  0.3465
 2308TIP3    H1 6863   8.419   7.970   4.267 -1.6949 -3.1426  0.0826
 2308TIP3    H2 6864   8.549   7.900   4.301 -0.0662  0.2733  1.1047
 2309TIP3   OH2 6865   8.315   0.910   4.958 -0.0426  0.2654  0.3731
 2309TIP3    H1 6866   8.219   0.909   4.957 -0.0591  1.3625  0.0976
 2309TIP3    H2 6867   8.340   0.832   4.909 -0.7958 -0.0445  0.4648
 2310TIP3   OH2 6868   8.446   1.005   3.995  0.2563 -0.1442  0.7214
 2310TIP3    H1 6869   8.457   0.911   4.008 -4.8178 -1.0918 -0.7474
 2310TIP3    H2 6870   8.457   1.017   3.900  0.3412  0.6669  0.8290
 2311TIP3   OH2 6871   2.668   0.693   2.557 -0.0146  0.0217 -0.3571
 2311TIP3    H1 6872   2.646   0.719   2.646 -0.4530  0.4365 -0.5860
 2311TIP3    H2 6873   2.647   0.769   2.503 -1.4232 -0.8338 -1.0453
 2312TIP3   OH2 6874   1.819   2.439   3.045 -0.1099  0.4863  0.0533
 2312TIP3    H1 6875   1.743   2.441   2.987  0.7700  0.4393 -1.1189
 2312TIP3    H2 6876   1.801   2.367   3.105  0.9636 -2.4330 -2.9553
 2313TIP3   OH2 6877   1.713   0.825   3.667 -0.2609  0.5401  0.0735
 2313TIP3    H1 6878   1.753   0.762   3.607 -2.1016 -1.8936  1.3503
 2313TIP3    H2 6879   1.639   0.778   3.707 -2.1391  3.7055  0.5337
 2314TIP3   OH2 6880   3.294   0.656   5.373  0.1397  0.1017 -0.0835
 2314TIP3    H1 6881   3.359   0.682   5.439 -1.1465  0.8889  0.8980
 2314TIP3    H2 6882   3.228   0.608   5.423 -1.0307  1.0165 -0.7320
 2315TIP3   OH2 6883   1.671   0.635   3.422 -0.3814  0.3698 -0.3399
 2315TIP3    H1 6884   1.597   0.606   3.476 -0.1268 -1.6671 -1.0374
 2315TIP3    H2 6885   1.658   0.591   3.338  1.7109 -0.1676 -0.4180
 2316TIP3   OH2 6886   1.781   0.411   5.018 -0.1908  0.5036  0.1731
 2316TIP3    H1 6887   1.717   0.480   5.034  0.5252  1.0174  0.8162
 2316TIP3    H2 6888   1.841   0.415   5.092  1.1091  0.6182 -0.8626
 2317TIP3   OH2 6889   0.158   1.510   3.579 -0.0155  0.2486 -0.0860
 2317TIP3    H1 6890   0.116   1.578   3.526  0.2274 -1.7701 -2.9324
 2317TIP3    H2 6891   0.181   1.555   3.660 -2.4075  2.8601 -0.7651
 2318TIP3   OH2 6892   6.832   1.046   2.930 -0.1579  0.2407 -0.0816
 2318TIP3    H1 6893   6.822   1.121   2.989 -0.4614  0.8043 -0.8443
 2318TIP3    H2 6894   6.842   0.971   2.988  0.3052  0.8943  0.6917
 2319TIP3   OH2 6895   7.907   0.840   4.620 -0.1049 -0.2058 -0.4553
 2319TIP3    H1 6896   7.835   0.898   4.645 -1.5317 -1.7456 -0.9597
 2319TIP3    H2 6897   7.884   0.810   4.532  1.3999 -0.3549 -0.8200
 2320TIP3   OH2 6898   2.528   0.223   2.319 -0.1666 -0.1152  0.5323
 2320TIP3    H1 6899   2.593   0.272   2.369  1.2444  0.3646 -1.6667
 2320TIP3    H2 6900   2.452   0.281   2.313 -0.3543 -0.1855  2.0809
 2321TIP3   OH2 6901   2.265   2.312   3.264  0.0401  0.1602 -0.1784
 2321TIP3    H1 6902   2.311   2.382   3.311 -1.2099  1.4162 -0.7989
 2321TIP3    H2 6903   2.202   2.358   3.208 -0.5696 -1.4506 -0.8316
 2322TIP3   OH2 6904   2.643   0.161   3.881  0.0957  0.1266  0.1358
 2322TIP3    H1 6905   2.678   0.072   3.874  2.3236  0.9539  0.1265
 2322TIP3    H2 6906   2.549   0.149   3.889  0.1160 -2.1282 -2.2751
 2323TIP3   OH2 6907   2.737   0.387   4.014  0.0164  0.1606  0.2826
 2323TIP3    H1 6908   2.743   0.457   3.949  0.4191  0.1484  0.3054
 2323TIP3    H2 6909   2.722   0.308   3.963 -0.5211  0.2719  0.2604
 2324TIP3   OH2 6910   7.169   7.207   5.959 -0.3667 -0.5824  0.4564
 2324TIP3    H1 6911   7.217   7.285   5.929 -1.4880  0.6352  1.7544
 2324TIP3    H2 6912   7.085   7.241   5.990 -0.0803 -2.0378  2.9846
 2325TIP3   OH2 6913   3.206   1.285   6.590  0.0496  0.3356  0.1997
 2325TIP3    H1 6914   3.219   1.198   6.552  1.1835 -0.4767  2.3511
 2325TIP3    H2 6915   3.139   1.271   6.658  0.1730  1.1613  0.4885
 2326TIP3   OH2 6916   2.570   1.634   1.050 -0.2702  0.8401 -0.2754
 2326TIP3    H1 6917   2.569   1.626   0.955 -3.6828 -1.3797 -0.1471
 2326TIP3    H2 6918   2.655   1.673   1.071  0.4180  1.5900 -4.2182
 2327TIP3   OH2 6919   7.104   2.064   4.519 -0.2702 -0.1733  0.0614
 2327TIP3    H1 6920   7.148   2.148   4.513  0.5803 -0.6269 -0.1149
 2327TIP3    H2 6921   7.062   2.053   4.434 -0.4311  0.1009  0.1064
 2328TIP3   OH2 6922   8.000   1.530   0.956 -0.2119 -0.0848 -0.3956
 2328TIP3    H1 6923   8.043   1.524   1.041 -1.2285 -0.7867  0.0801
 2328TIP3    H2 6924   8.035   1.455   0.907 -0.4476 -0.3224 -0.2061
 2329TIP3   OH2 6925   7.717   1.708   5.173 -0.5399  0.6524 -0.0309
 2329TIP3    H1 6926   7.741   1.667   5.091 -0.2008  1.3305 -0.2781
 2329TIP3    H2 6927   7.793   1.694   5.230  0.1816  2.1730 -0.5813
 2330TIP3   OH2 6928   0.281   2.918   1.897 -0.0916 -0.0533  0.2929
 2330TIP3    H1 6929   0.197   2.913   1.851  0.2330  0.9562 -0.4229
 2330TIP3    H2 6930   0.279   3.002   1.943  1.3187  0.9065 -1.3269
 2331TIP3   OH2 6931   2.942   2.402   4.420  0.3885  0.0061 -0.4737
 2331TIP3    H1 6932   3.031   2.411   4.385  0.2722  0.0317 -0.7606
 2331TIP3    H2 6933   2.885   2.429   4.349  0.1237 -0.6343 -0.5062
 2332TIP3   OH2 6934   2.439   0.939   5.025  0.0709  0.6030 -0.2246
 2332TIP3    H1 6935   2.400   0.864   5.069  0.0673  0.1280 -1.0395
 2332TIP3    H2 6936   2.366   0.985   4.984  0.2138  0.3813 -0.7366
 2333TIP3   OH2 6937   7.929   1.443   5.648  0.3280  0.4491  0.1374
 2333TIP3    H1 6938   7.842   1.410   5.625  0.4473  0.1037  0.1787
 2333TIP3    H2 6939   7.978   1.365   5.675  1.4887  0.2477 -2.4213
 2334TIP3   OH2 6940   0.798   1.403   4.580 -0.1781 -0.0896 -0.3863
 2334TIP3    H1 6941   0.777   1.411   4.673 -0.0162 -0.6040 -0.3042
 2334TIP3    H2 6942   0.862   1.472   4.563  0.3169 -0.4386  0.0458
 2335TIP3   OH2 6943   2.791   1.719   4.136 -0.2522  0.3418 -0.2555
 2335TIP3    H1 6944   2.716   1.671   4.171 -0.3291  0.8720  0.3294
 2335TIP3    H2 6945   2.789   1.803   4.183  0.8430  0.2703 -0.0576
 2336TIP3   OH2 6946   0.536   0.570   3.404  0.2027 -0.4989 -0.7556
 2336TIP3    H1 6947   0.447   0.536   3.397  0.2857 -0.7735 -0.4711
 2336TIP3    H2 6948   0.592   0.493   3.399  0.4647 -0.2623 -1.7200
 2337TIP3   OH2 6949   5.825   7.825   4.761 -0.3188 -0.2181  0.2155
 2337TIP3    H1 6950   5.906   7.867   4.734  0.1267 -0.4335  1.2074
 2337TIP3    H2 6951   5.812   7.754   4.698 -0.3190  0.5068 -0.5993
 2338TIP3   OH2 6952   0.219   0.286   2.412 -0.2751 -0.0554  0.1625
 2338TIP3    H1 6953   0.277   0.324   2.346 -0.5007  2.3798  1.3103
 2338TIP3    H2 6954   0.141   0.342   2.409 -1.4881 -1.7133  0.4624
 2339TIP3   OH2 6955   2.178   1.894   3.373 -0.1577 -0.4183 -0.5630
 2339TIP3    H1 6956   2.140   1.858   3.293 -0.6625 -1.2337  0.0292
 2339TIP3    H2 6957   2.248   1.952   3.343 -0.5837 -0.4356 -1.5993
 2340TIP3   OH2 6958   1.441   0.032   4.999 -0.2629  0.3520 -0.8715
 2340TIP3    H1 6959   1.416   0.040   4.907  0.6432 -0.1488 -1.1672
 2340TIP3    H2 6960   1.518   0.089   5.007 -2.0309  2.7000  0.2645
 2341TIP3   OH2 6961   2.498   0.789   5.480 -0.1335 -0.1328 -0.0524
 2341TIP3    H1 6962   2.424   0.834   5.437 -0.3087 -0.1149  0.2677
 2341TIP3    H2 6963   2.549   0.860   5.518  0.4367 -0.0911 -0.8783
 2342TIP3   OH2 6964   0.288   1.590   3.240 -0.8738 -0.7132 -0.5332
 2342TIP3    H1 6965   0.240   1.668   3.268  0.0086 -0.4501  0.3211
 2342TIP3    H2 6966   0.302   1.602   3.146  1.7748  1.6145  0.0915
 2343TIP3   OH2 6967   0.336   2.561   4.042  0.5983 -0.1721  0.0802
 2343TIP3    H1 6968   0.426   2.547   4.070  0.2383 -1.4114  0.6415
 2343TIP3    H2 6969   0.317   2.489   3.982  0.2428  0.5416 -0.6691
 2344TIP3   OH2 6970   2.208   2.045   2.546 -0.0745 -0.1370  0.6716
 2344TIP3    H1 6971   2.187   2.015   2.635  1.1628  0.8193  1.3015
 2344TIP3    H2 6972   2.213   2.140   2.553  1.6492 -0.1651 -0.0590
 2345TIP3   OH2 6973   1.165   1.695   3.625 -0.2871 -0.3211 -0.6635
 2345TIP3    H1 6974   1.230   1.724   3.561 -1.5856 -1.2375 -2.4590
 2345TIP3    H2 6975   1.195   1.609   3.653  1.1536  0.7610  1.2451
 2346TIP3   OH2 6976   0.102   0.427   5.624  0.2834 -0.0447 -0.2823
 2346TIP3    H1 6977   0.147   0.378   5.555 -0.6677  0.1132 -1.0273
 2346TIP3    H2 6978   0.019   0.380   5.636  0.6418 -0.3494  1.0977
 2347TIP3   OH2 6979   0.965   1.591   4.276  0.3003  0.1852  0.3618
 2347TIP3    H1 6980   0.875   1.562   4.266 -0.2066  1.3897  1.2335
 2347TIP3    H2 6981   1.018   1.515   4.253 -0.9371 -0.6127  0.1060
 2348TIP3   OH2 6982   1.050   7.437   6.182 -0.2447  0.0694  0.2975
 2348TIP3    H1 6983   1.055   7.405   6.272  0.1523 -0.8451 -0.0405
 2348TIP3    H2 6984   0.982   7.383   6.141 -0.0167  0.0838 -0.1024
 2349TIP3   OH2 6985   7.043   8.043   2.809 -0.2234  0.3967 -0.2794
 2349TIP3    H1 6986   6.957   8.003   2.794 -1.5015  2.0386  2.1730
 2349TIP3    H2 6987   7.097   7.972   2.843 -1.0922 -0.3068 -0.3589
 2350TIP3   OH2 6988   0.194   2.391   5.968 -0.1278 -0.6864  0.8017
 2350TIP3    H1 6989   0.262   2.453   5.995  0.7919 -0.7231 -1.3063
 2350TIP3    H2 6990   0.115   2.421   6.012  0.9047  0.3261  2.0063
 2351TIP3   OH2 6991   4.369   4.563   6.832  0.0231  0.1945  0.6319
 2351TIP3    H1 6992   4.393   4.651   6.805  0.7956  0.0031  0.6800
 2351TIP3    H2 6993   4.453   4.521   6.855 -0.1170 -1.1781 -1.2665
 2352TIP3   OH2 6994   1.076   1.187   4.957 -0.3962  0.1276  0.6579
 2352TIP3    H1 6995   1.122   1.264   4.992  0.1758  0.5359 -0.9487
 2352TIP3    H2 6996   0.987   1.196   4.991 -0.8259  2.4925 -0.9142
 2353TIP3   OH2 6997   0.748   0.468   3.170  0.2551 -0.0111  0.0288
 2353TIP3    H1 6998   0.744   0.556   3.206 -0.0988 -0.2226  0.5039
 2353TIP3    H2 6999   0.756   0.481   3.075  0.1809  0.5260  0.0970
 2354TIP3   OH2 7000   4.160   6.280   3.138 -0.8783 -0.3895 -0.4284
 2354TIP3    H1 7001   4.158   6.376   3.131 -0.9359 -0.5333 -2.6674
 2354TIP3    H2 7002   4.250   6.260   3.164 -1.3211  0.3465  1.8159
 2355TIP3   OH2 7003   2.985   2.081   2.836  0.3397 -0.1524 -0.4823
 2355TIP3    H1 7004   3.020   2.105   2.750  0.4099  0.0547 -0.3952
 2355TIP3    H2 7005   2.933   2.002   2.819 -1.5294  1.1864 -1.1313
 2356TIP3   OH2 7006   8.028   2.473   1.616 -0.0157 -0.1153 -0.0001
 2356TIP3    H1 7007   8.109   2.423   1.621 -0.6485 -1.2552 -0.7143
 2356TIP3    H2 7008   8.041   2.548   1.674  1.7706  0.0563 -0.5930
 2357TIP3   OH2 7009   1.780   1.263   2.273 -0.0518 -0.6513  0.0542
 2357TIP3    H1 7010   1.867   1.296   2.293  0.5413 -0.9887 -1.8701
 2357TIP3    H2 7011   1.720   1.327   2.311  1.0472  0.0239  0.6398
 2358TIP3   OH2 7012   8.422   1.727   3.545 -0.7077  0.0319  0.4187
 2358TIP3    H1 7013   8.351   1.670   3.576  0.5036 -1.2776  0.8833
 2358TIP3    H2 7014   8.423   1.800   3.607 -2.1625  0.4906 -0.0744
 2359TIP3   OH2 7015   0.070   2.818   5.315 -0.3759 -0.2967 -0.3208
 2359TIP3    H1 7016   0.120   2.745   5.278 -0.0486 -0.0608 -0.3381
 2359TIP3    H2 7017   0.009   2.776   5.376  1.5039 -0.3846  1.5345
 2360TIP3   OH2 7018   8.396   1.089   5.809  0.2543 -0.2053  0.0953
 2360TIP3    H1 7019   8.424   1.069   5.720 -0.1856 -2.4727  0.4135
 2360TIP3    H2 7020   8.474   1.075   5.863 -0.1583 -1.5625  0.3715
 2361TIP3   OH2 7021   3.753   7.789   1.102  0.2236 -0.0710  0.0510
 2361TIP3    H1 7022   3.724   7.718   1.159  0.0807  0.5724  0.7830
 2361TIP3    H2 7023   3.847   7.798   1.119  0.1945  0.0745  0.1383
 2362TIP3   OH2 7024   1.012   3.451   1.789 -0.3680  0.2666  0.5360
 2362TIP3    H1 7025   1.076   3.516   1.820 -0.1118 -0.6287  1.9442
 2362TIP3    H2 7026   1.059   3.403   1.720  0.2124  0.1546  0.9982
 2363TIP3   OH2 7027   7.226   0.059   6.595  0.2460 -0.1872  0.0305
 2363TIP3    H1 7028   7.141   0.014   6.589  0.2887 -0.2009 -0.4350
 2363TIP3    H2 7029   7.249   0.053   6.688  0.0828 -0.8197  0.0318
 2364TIP3   OH2 7030   8.284   2.012   5.065  0.0891  0.0820 -0.6059
 2364TIP3    H1 7031   8.295   1.974   5.152  0.2275 -0.5822 -0.9153
 2364TIP3    H2 7032   8.366   2.057   5.048 -0.9141  2.5741  0.7590
 2365TIP3   OH2 7033   0.397   0.567   1.894  0.1259 -0.3106  0.1138
 2365TIP3    H1 7034   0.400   0.477   1.861  1.0933 -0.8888  1.7178
 2365TIP3    H2 7035   0.314   0.602   1.862  0.0215 -1.5714 -1.0334
 2366TIP3   OH2 7036   2.343   0.853   0.728 -0.3511  0.3520  0.0904
 2366TIP3    H1 7037   2.389   0.934   0.705 -0.0616  0.2777  0.4100
 2366TIP3    H2 7038   2.258   0.883   0.763  0.1220  0.5543  1.0782
 2367TIP3   OH2 7039   1.952   1.134   4.688 -0.1321  0.2719  0.5599
 2367TIP3    H1 7040   2.027   1.155   4.632  1.8622  1.4944  3.6053
 2367TIP3    H2 7041   1.880   1.187   4.652  1.2443  1.4530 -0.5117
 2368TIP3   OH2 7042   2.083   1.725   3.909  0.1392 -0.2628  0.0106
 2368TIP3    H1 7043   2.132   1.651   3.872 -1.1588 -0.4523 -1.3999
 2368TIP3    H2 7044   2.012   1.740   3.847  0.5707  2.4212  0.1124
 2369TIP3   OH2 7045   6.774   2.524   4.083 -0.0256  0.5787 -0.3711
 2369TIP3    H1 7046   6.849   2.466   4.075 -0.0014  0.4559  0.7352
 2369TIP3    H2 7047   6.701   2.466   4.103  0.2987  1.0710  2.3748
 2370TIP3   OH2 7048   1.650   1.646   5.353 -0.3417  0.8745  0.1028
 2370TIP3    H1 7049   1.575   1.698   5.383 -0.3627  0.1076  1.4305
 2370TIP3    H2 7050   1.626   1.556   5.372  0.9247  0.6216  0.5992
 2371TIP3   OH2 7051   1.824   1.571   2.438  0.6729 -0.0366 -0.4498
 2371TIP3    H1 7052   1.752   1.592   2.378  0.2818 -2.3105 -0.8417
 2371TIP3    H2 7053   1.903   1.601   2.392  0.0838  1.4031 -0.5405
 2372TIP3   OH2 7054   2.507   1.355   3.045  0.7198 -0.1431 -0.0736
 2372TIP3    H1 7055   2.533   1.385   2.959  0.0934  0.1098 -0.1795
 2372TIP3    H2 7056   2.437   1.415   3.072 -1.7194 -2.4677 -1.0119
 2373TIP3   OH2 7057   0.759   0.158   5.242  0.4417  0.5050 -0.0719
 2373TIP3    H1 7058   0.712   0.075   5.232 -0.2057  0.7240  1.0397
 2373TIP3    H2 7059   0.824   0.158   5.172  2.4695 -2.2847  1.7069
 2374TIP3   OH2 7060   8.154   0.329   2.730 -0.2651  0.4439  0.2232
 2374TIP3    H1 7061   8.162   0.422   2.752  1.1983  0.5023 -0.5090
 2374TIP3    H2 7062   8.244   0.299   2.719 -0.7704 -0.8285 -0.5624
 2375TIP3   OH2 7063   1.860   0.723   5.041 -0.1808 -0.1874  0.1333
 2375TIP3    H1 7064   1.774   0.700   5.076  0.5197 -1.1537  1.2506
 2375TIP3    H2 7065   1.846   0.808   4.999 -1.9431 -0.8781 -0.7434
 2376TIP3   OH2 7066   1.796   2.071   3.855 -0.1156 -0.1687  0.1564
 2376TIP3    H1 7067   1.800   1.990   3.804  1.2032  0.2572 -0.4290
 2376TIP3    H2 7068   1.726   2.055   3.919 -0.7759 -1.2645 -0.8065
 2377TIP3   OH2 7069   1.441   0.467   5.658 -1.0630  1.0697 -0.1291
 2377TIP3    H1 7070   1.513   0.405   5.671 -0.6630  1.8217  1.2599
 2377TIP3    H2 7071   1.363   0.419   5.685 -0.7974  1.0433  0.5998
 2378TIP3   OH2 7072   2.566   1.792   2.751 -0.0774  0.3063 -0.0563
 2378TIP3    H1 7073   2.571   1.724   2.684 -0.2444 -0.0885  0.3284
 2378TIP3    H2 7074   2.507   1.756   2.818 -0.4877  0.9940 -0.0421
 2379TIP3   OH2 7075   1.392   2.221   4.083 -0.0570  0.6597 -0.4730
 2379TIP3    H1 7076   1.368   2.276   4.009 -0.1768  0.8767 -0.2708
 2379TIP3    H2 7077   1.479   2.250   4.109  0.0495  0.4790 -0.6282
 2380TIP3   OH2 7078   2.119   3.848   3.296 -0.1768 -0.1519 -0.2974
 2380TIP3    H1 7079   2.026   3.855   3.318 -0.2340  0.3800 -0.6852
 2380TIP3    H2 7080   2.121   3.807   3.210 -0.0969  0.5818 -0.6548
 2381TIP3   OH2 7081   2.424   1.551   4.943 -0.9326 -0.0702 -0.3504
 2381TIP3    H1 7082   2.419   1.463   4.905  1.6505 -0.9231  1.1131
 2381TIP3    H2 7083   2.514   1.558   4.976 -1.7410  2.2843  1.5746
 2382TIP3   OH2 7084   7.344   1.948   3.187  0.5628 -1.1062 -0.1800
 2382TIP3    H1 7085   7.426   1.923   3.230 -0.9941  0.3179  3.7729
 2382TIP3    H2 7086   7.287   1.872   3.197 -0.1401 -0.4108  1.2368
 2383TIP3   OH2 7087   2.975   1.170   3.948  0.2060  0.1600  0.2723
 2383TIP3    H1 7088   3.066   1.182   3.920 -0.0109  0.5196 -0.2766
 2383TIP3    H2 7089   2.934   1.124   3.874  0.0992 -0.5813  0.7856
 2384TIP3   OH2 7090   1.051   1.414   2.549 -0.1872  0.3711 -0.7489
 2384TIP3    H1 7091   1.052   1.449   2.460 -0.6399 -0.0744 -0.9311
 2384TIP3    H2 7092   1.007   1.482   2.601 -0.1524  0.5174 -0.9114
 2385TIP3   OH2 7093   6.728   7.701   4.111 -0.3554 -0.1659  0.0161
 2385TIP3    H1 7094   6.788   7.654   4.169 -1.3899 -0.2895  1.0214
 2385TIP3    H2 7095   6.764   7.790   4.107  0.9876 -0.7298 -1.0057
 2386TIP3   OH2 7096   7.242   7.923   3.445  0.5434  0.1453  0.2909
 2386TIP3    H1 7097   7.311   7.947   3.507  0.1295  0.9770  0.4375
 2386TIP3    H2 7098   7.191   7.856   3.490  1.0569 -0.2247  0.3180
 2387TIP3   OH2 7099   5.985   6.726   5.712  0.0466  0.1442 -0.1449
 2387TIP3    H1 7100   6.030   6.718   5.627 -1.5584  0.8111 -1.0666
 2387TIP3    H2 7101   6.048   6.691   5.775  1.0271 -0.9413 -1.6836
 2388TIP3   OH2 7102   2.896   4.039   2.676 -0.4888  0.2597 -0.2255
 2388TIP3    H1 7103   2.878   4.052   2.582  1.1577  2.6436 -0.2714
 2388TIP3    H2 7104   2.938   3.953   2.681 -3.5057 -1.3365 -1.2340
 2389TIP3   OH2 7105   6.912   1.081   5.778 -0.4126 -0.5803  0.0876
 2389TIP3    H1 7106   6.883   1.027   5.704 -0.8542 -0.3060  0.0559
 2389TIP3    H2 7107   6.844   1.070   5.844 -1.5235  1.4493 -0.6536
 2390TIP3   OH2 7108   2.645   1.039   5.202 -0.1432 -0.0037  0.3426
 2390TIP3    H1 7109   2.704   0.972   5.237 -1.4315 -0.9645  0.7669
 2390TIP3    H2 7110   2.572   0.989   5.164 -2.2436  1.1372  2.6707
 2391TIP3   OH2 7111   8.221   2.039   4.702 -0.0660 -0.7355 -0.4779
 2391TIP3    H1 7112   8.235   2.007   4.791  0.2974 -0.1354 -0.3170
 2391TIP3    H2 7113   8.129   2.066   4.700 -0.4304 -1.9607 -0.6752
 2392TIP3   OH2 7114   0.131   0.932   2.598 -0.1239  0.2312 -0.0009
 2392TIP3    H1 7115   0.140   0.927   2.693 -0.5652 -1.9523 -0.0453
 2392TIP3    H2 7116   0.103   1.022   2.581 -1.8512  0.1386  2.0992
 2393TIP3   OH2 7117   0.946   0.581   5.341 -0.1682 -0.3082  0.6952
 2393TIP3    H1 7118   0.946   0.664   5.293 -1.0698 -0.3304  0.6427
 2393TIP3    H2 7119   1.007   0.595   5.414  0.3151  0.1161  0.2129
 2394TIP3   OH2 7120   7.276   1.496   4.993  0.0359 -0.0352  0.0862
 2394TIP3    H1 7121   7.277   1.507   5.088  0.5706  0.8813 -0.0201
 2394TIP3    H2 7122   7.216   1.423   4.978  0.8091 -0.9273  1.1944
 2395TIP3   OH2 7123   0.304   1.709   4.739  0.2786  0.0500  0.0344
 2395TIP3    H1 7124   0.338   1.733   4.825 -0.6118 -0.0437  0.4170
 2395TIP3    H2 7125   0.269   1.790   4.703 -0.5010 -0.1636  0.2988
 2396TIP3   OH2 7126   6.958   1.976   4.767 -0.3079  0.2894  0.2206
 2396TIP3    H1 7127   7.040   1.975   4.816 -0.7738  3.2139  1.1516
 2396TIP3    H2 7128   6.983   2.002   4.678 -0.0131 -0.6076  0.0392
 2397TIP3   OH2 7129   1.667   1.603   4.836 -0.3416  0.4747  0.1318
 2397TIP3    H1 7130   1.731   1.650   4.783  2.2609 -1.0791  1.7580
 2397TIP3    H2 7131   1.603   1.570   4.774  1.9351 -0.2352 -1.9055
 2398TIP3   OH2 7132   1.560   1.521   3.398  0.1070  0.0387 -0.0652
 2398TIP3    H1 7133   1.519   1.602   3.429 -0.7600 -0.4527  0.0797
 2398TIP3    H2 7134   1.526   1.510   3.309 -2.7877 -2.1696  1.2416
 2399TIP3   OH2 7135   8.097   2.217   6.824  0.3965  0.8571 -0.1984
 2399TIP3    H1 7136   8.098   2.127   6.857  1.2376  0.5089 -1.1595
 2399TIP3    H2 7137   8.036   2.263   6.882  1.3764  0.1169  1.4558
 2400TIP3   OH2 7138   5.807   7.423   3.822  0.5688  0.1771  0.0722
 2400TIP3    H1 7139   5.809   7.515   3.795  0.7088  0.1630  0.0368
 2400TIP3    H2 7140   5.718   7.410   3.855  0.0110 -0.1277 -1.5124
 2401TIP3   OH2 7141   2.734   6.802   0.296 -0.2100 -0.6579 -0.4872
 2401TIP3    H1 7142   2.794   6.815   0.222  0.1208 -1.8024 -0.4271
 2401TIP3    H2 7143   2.647   6.814   0.258 -0.1567 -3.0745 -1.5229
 2402TIP3   OH2 7144   8.295   2.827   2.553 -0.3241 -0.1715  0.0425
 2402TIP3    H1 7145   8.296   2.839   2.458  0.9505  0.8971  0.1668
 2402TIP3    H2 7146   8.212   2.784   2.572 -0.4744 -0.6100 -1.5827
 2403TIP3   OH2 7147   1.306   0.784   3.621 -0.2890 -0.2277 -0.1552
 2403TIP3    H1 7148   1.239   0.747   3.679  0.9433 -2.2976 -0.0215
 2403TIP3    H2 7149   1.371   0.715   3.612  1.2758  1.3423 -1.2150
 2404TIP3   OH2 7150   3.460   6.434   1.357  0.1903 -0.0307 -0.0451
 2404TIP3    H1 7151   3.476   6.428   1.263 -1.1464 -0.5753 -0.2583
 2404TIP3    H2 7152   3.526   6.377   1.397  0.2166 -0.4744 -0.7201
 2405TIP3   OH2 7153   0.994   2.154   4.322 -0.0857  0.1763  0.1566
 2405TIP3    H1 7154   0.952   2.228   4.367 -0.2879 -0.0110  0.2713
 2405TIP3    H2 7155   0.922   2.104   4.286  0.0939  0.5542 -0.7353
 2406TIP3   OH2 7156   1.720   1.281   4.610 -0.1018  0.1458 -0.1449
 2406TIP3    H1 7157   1.702   1.366   4.570  1.1068  0.7267  0.5258
 2406TIP3    H2 7158   1.664   1.279   4.688 -1.5176 -0.4600 -1.1631
 2407TIP3   OH2 7159   1.342   0.773   5.327 -0.2819  0.0120  0.6833
 2407TIP3    H1 7160   1.305   0.847   5.376 -1.6965  0.8723 -1.5875
 2407TIP3    H2 7161   1.337   0.801   5.236  0.3225 -2.4119 -0.1150
 2408TIP3   OH2 7162   0.848   0.217   6.721  0.2971 -0.1009 -0.3142
 2408TIP3    H1 7163   0.858   0.245   6.812  0.7089  1.2324 -0.7567
 2408TIP3    H2 7164   0.888   0.130   6.718 -1.0736 -0.8181  1.1158
 2409TIP3   OH2 7165   0.214   0.695   5.588  0.3258 -0.2991  0.2476
 2409TIP3    H1 7166   0.165   0.618   5.616  1.8705 -0.5490  2.3365
 2409TIP3    H2 7167   0.287   0.659   5.538 -0.6582 -0.0009 -1.4611
 2410TIP3   OH2 7168   5.593   7.699   5.058 -0.2259  0.5496 -0.1211
 2410TIP3    H1 7169   5.501   7.695   5.085  0.1240 -0.4385  0.9625
 2410TIP3    H2 7170   5.591   7.684   4.963 -1.0392 -1.3696  0.1793
 2411TIP3   OH2 7171   7.195   2.402   3.578  0.4577 -0.1478  0.3387
 2411TIP3    H1 7172   7.203   2.468   3.510  0.0269 -0.9780 -0.5166
 2411TIP3    H2 7173   7.232   2.322   3.540 -3.5861 -1.7509 -0.4747
 2412TIP3   OH2 7174   1.728   2.650   5.270  0.2374 -0.4880  0.3235
 2412TIP3    H1 7175   1.764   2.627   5.184  0.8498 -3.7264  1.3786
 2412TIP3    H2 7176   1.641   2.610   5.270 -0.4905  1.0883  0.5264
 2413TIP3   OH2 7177   1.339   1.078   4.563 -0.0876  0.4148 -0.1318
 2413TIP3    H1 7178   1.390   1.023   4.622 -1.1336 -1.9564 -1.3657
 2413TIP3    H2 7179   1.275   1.122   4.619  0.2783 -0.1988  0.7671
 2414TIP3   OH2 7180   2.038   1.699   2.847 -0.2440  0.3860 -0.0953
 2414TIP3    H1 7181   1.974   1.718   2.779 -0.0889 -0.1295 -0.3901
 2414TIP3    H2 7182   2.035   1.603   2.856  0.6905  0.3314 -0.3155
 2415TIP3   OH2 7183   8.298   2.137   4.317 -0.0855 -0.2578  0.2346
 2415TIP3    H1 7184   8.206   2.135   4.289 -0.3858  0.0383  1.1781
 2415TIP3    H2 7185   8.348   2.141   4.235 -0.9705  1.4544 -0.2534
 2416TIP3   OH2 7186   2.700   0.950   2.984 -0.3161 -0.1854  0.3465
 2416TIP3    H1 7187   2.739   0.933   3.069 -0.0636  0.6738  0.4063
 2416TIP3    H2 7188   2.774   0.965   2.925 -0.5265  0.8055  0.3235
 2417TIP3   OH2 7189   1.294   2.118   2.542  0.1657  0.0461  0.6043
 2417TIP3    H1 7190   1.374   2.160   2.509 -0.0654  0.4936  0.5989
 2417TIP3    H2 7191   1.308   2.108   2.636  0.9654 -1.5424  0.3218
 2418TIP3   OH2 7192   2.283   3.005   3.459  0.2625  0.1581  0.0973
 2418TIP3    H1 7193   2.204   3.036   3.414  2.2330  2.0361 -2.1703
 2418TIP3    H2 7194   2.284   2.911   3.443 -1.6968  0.0345  0.4945
 2419TIP3   OH2 7195   0.018   1.675   4.623 -0.4649  0.1406  0.6397
 2419TIP3    H1 7196   0.052   1.632   4.545  0.9504  0.1368  1.2351
 2419TIP3    H2 7197   0.028   1.769   4.605  1.4727  0.1134  1.4924
 2420TIP3   OH2 7198   1.915   1.200   3.032  0.5730 -0.1827  0.6719
 2420TIP3    H1 7199   1.868   1.144   2.969  0.9499  1.6037 -1.2503
 2420TIP3    H2 7200   1.856   1.204   3.108 -1.1159 -0.2582 -0.5961
 2421TIP3   OH2 7201   6.061   2.679   4.420  0.0741 -0.3001  0.7198
 2421TIP3    H1 7202   6.099   2.746   4.364 -0.2463 -1.4902 -0.9700
 2421TIP3    H2 7203   5.979   2.718   4.453  0.0732  0.2664  0.0456
 2422TIP3   OH2 7204   7.673   7.399   5.721 -0.0082 -0.2765  1.0543
 2422TIP3    H1 7205   7.734   7.446   5.778 -0.1053  0.9201  0.1864
 2422TIP3    H2 7206   7.717   7.315   5.703  1.2115  0.4152  0.7524
 2423TIP3   OH2 7207   0.832   1.311   5.106 -0.1188 -0.0197  0.0446
 2423TIP3    H1 7208   0.855   1.346   5.192 -2.7869  0.5664  0.5680
 2423TIP3    H2 7209   0.776   1.236   5.125  3.0778 -2.8337 -1.1488
 2424TIP3   OH2 7210   1.765   0.651   2.638  0.0043  0.1819 -0.3782
 2424TIP3    H1 7211   1.852   0.689   2.651 -1.2173  2.4601  1.2881
 2424TIP3    H2 7212   1.720   0.711   2.580 -1.0887 -0.0125  0.2484
 2425TIP3   OH2 7213   0.536   7.287   4.599  0.2113  0.3115 -0.3183
 2425TIP3    H1 7214   0.465   7.246   4.647  0.2129 -1.0676 -1.4579
 2425TIP3    H2 7215   0.616   7.251   4.639  0.2643  1.5614  0.7057
 2426TIP3   OH2 7216   8.433   7.589   2.403 -0.1102  0.2898 -0.1381
 2426TIP3    H1 7217   8.419   7.539   2.483 -0.0033 -0.7384 -0.7540
 2426TIP3    H2 7218   8.458   7.524   2.338 -0.2957  1.1030 -1.0358
 2427TIP3   OH2 7219   2.535   0.347   4.916  0.1059  0.0986 -0.1199
 2427TIP3    H1 7220   2.612   0.386   4.875 -1.3871  1.4028 -1.7724
 2427TIP3    H2 7221   2.469   0.347   4.847 -1.1408 -1.7622  1.0207
 2428TIP3   OH2 7222   1.305   0.188   3.032 -0.0377 -0.0635 -0.2951
 2428TIP3    H1 7223   1.336   0.127   2.965 -0.4377 -0.9959  0.3576
 2428TIP3    H2 7224   1.348   0.158   3.113  1.0264  1.4991 -0.2598
 2429TIP3   OH2 7225   1.163   0.360   5.733 -0.3537 -0.1319  0.2909
 2429TIP3    H1 7226   1.136   0.270   5.718  2.1923 -0.8011 -0.5447
 2429TIP3    H2 7227   1.133   0.407   5.655  0.7578 -0.8450 -0.5874
 2430TIP3   OH2 7228   2.883   1.652   1.115 -0.2246 -0.1345  1.0572
 2430TIP3    H1 7229   2.902   1.562   1.090  0.3929  0.4300 -0.6392
 2430TIP3    H2 7230   2.873   1.650   1.210 -2.1715 -2.3157  0.8249
 2431TIP3   OH2 7231   0.811   0.483   2.465 -0.4214  0.3442 -0.3448
 2431TIP3    H1 7232   0.857   0.564   2.489 -0.0180 -0.1308  0.5357
 2431TIP3    H2 7233   0.871   0.438   2.405  0.2146 -0.1877  0.6583
 2432TIP3   OH2 7234   6.661   2.190   5.858 -0.7424 -0.0105 -0.2696
 2432TIP3    H1 7235   6.654   2.217   5.766 -0.3169  0.1627 -0.2500
 2432TIP3    H2 7236   6.629   2.099   5.858 -0.6197 -0.0575 -0.6097
 2433TIP3   OH2 7237   2.877   2.278   3.885  0.0712 -0.4096  0.4389
 2433TIP3    H1 7238   2.830   2.360   3.899  1.2917 -0.0304  2.5335
 2433TIP3    H2 7239   2.825   2.213   3.933  0.4978 -0.3735  0.9609
 2434TIP3   OH2 7240   1.872   3.243   3.909  0.0966  0.3255  0.5852
 2434TIP3    H1 7241   1.952   3.201   3.942  1.1048  1.2733 -0.6392
 2434TIP3    H2 7242   1.819   3.258   3.988  1.4866  0.4793  1.5120
 2435TIP3   OH2 7243   0.923   1.596   5.575  0.3612 -0.0397 -0.0207
 2435TIP3    H1 7244   0.864   1.548   5.633 -0.9849  0.8574 -0.6139
 2435TIP3    H2 7245   0.992   1.629   5.632  0.9570 -2.1320  0.4844
 2436TIP3   OH2 7246   7.218   4.617   1.953 -0.2268 -0.0029 -0.3885
 2436TIP3    H1 7247   7.215   4.689   2.015  1.2350 -1.1497  1.0722
 2436TIP3    H2 7248   7.185   4.654   1.871  1.2573  2.5489  0.1001
 2437TIP3   OH2 7249   6.398   1.738   4.347  0.4341 -0.6518  0.0732
 2437TIP3    H1 7250   6.328   1.716   4.409 -1.0246  2.5310 -0.3044
 2437TIP3    H2 7251   6.470   1.769   4.402 -1.2551  3.2234  0.2601
 2438TIP3   OH2 7252   1.691   1.710   1.989  0.3620 -0.0752 -1.1638
 2438TIP3    H1 7253   1.723   1.799   1.970 -3.0231  1.3545 -0.5955
 2438TIP3    H2 7254   1.648   1.683   1.908 -0.3103 -0.3943 -0.7037
 2439TIP3   OH2 7255   1.587   1.579   2.223 -0.0828 -0.2668  0.7681
 2439TIP3    H1 7256   1.547   1.664   2.239  0.6684 -0.0658  1.6592
 2439TIP3    H2 7257   1.620   1.584   2.133 -2.4365 -0.6120 -0.1553
 2440TIP3   OH2 7258   0.360   2.332   2.525 -0.7256 -0.2238 -0.2610
 2440TIP3    H1 7259   0.267   2.345   2.504 -0.2962  1.1624 -1.3261
 2440TIP3    H2 7260   0.405   2.336   2.441  0.5222  1.0427  0.4560
 2441TIP3   OH2 7261   2.000   0.730   2.889  0.3081  0.4917 -0.7194
 2441TIP3    H1 7262   2.034   0.767   2.970  0.3762  1.9963 -1.4089
 2441TIP3    H2 7263   2.079   0.710   2.838  0.2370  1.0068 -1.0352
 2442TIP3   OH2 7264   5.208   7.657   3.555  0.0811  0.0198  0.2429
 2442TIP3    H1 7265   5.278   7.723   3.562  1.1140 -1.0635  0.2993
 2442TIP3    H2 7266   5.248   7.585   3.506 -0.7616 -0.9175  0.9133
 2443TIP3   OH2 7267   8.122   1.740   4.180 -0.4274  0.9971 -0.0915
 2443TIP3    H1 7268   8.089   1.650   4.184  1.1002  0.3350 -1.2787
 2443TIP3    H2 7269   8.173   1.750   4.260 -0.3319  0.6831 -0.1104
 2444TIP3   OH2 7270   7.661   0.953   2.867 -0.5027  0.2442 -0.2523
 2444TIP3    H1 7271   7.604   0.977   2.793 -0.9202 -0.2262 -0.0822
 2444TIP3    H2 7272   7.680   1.036   2.910  0.0160  0.5652 -1.0885
 2445TIP3   OH2 7273   2.198   0.238   4.235  0.4046 -0.4561 -0.9147
 2445TIP3    H1 7274   2.256   0.166   4.261  0.0393  0.3203  2.2918
 2445TIP3    H2 7275   2.134   0.198   4.176 -0.4284 -3.0481  1.6215
 2446TIP3   OH2 7276   6.869   7.935   5.069  0.1154 -0.2403 -0.0240
 2446TIP3    H1 7277   6.961   7.960   5.066  0.0042  0.2487  0.3837
 2446TIP3    H2 7278   6.834   7.961   4.984 -0.3359  2.4313  0.9136
 2447TIP3   OH2 7279   6.092   5.605   4.782  0.2909 -0.0782  0.0222
 2447TIP3    H1 7280   6.086   5.672   4.714  0.7086 -0.8315 -0.7615
 2447TIP3    H2 7281   6.184   5.579   4.782 -0.0084 -1.1509 -0.1633
 2448TIP3   OH2 7282   0.820   2.654   3.449  0.0210  0.0091  0.5079
 2448TIP3    H1 7283   0.846   2.742   3.420 -0.9708  0.5348  1.1935
 2448TIP3    H2 7284   0.863   2.642   3.533  0.9862 -0.5816 -0.0565
 2449TIP3   OH2 7285   1.740   3.881   1.123  0.8690 -0.1296  0.3132
 2449TIP3    H1 7286   1.667   3.876   1.185  0.7303 -0.2432  0.1443
 2449TIP3    H2 7287   1.757   3.789   1.100  1.7200 -0.1721  1.1068
 2450TIP3   OH2 7288   6.378   6.937   4.411  0.4935 -0.1131  0.2939
 2450TIP3    H1 7289   6.385   6.843   4.395 -0.8308 -0.2535  0.4475
 2450TIP3    H2 7290   6.326   6.970   4.338  1.8325  0.6874 -0.3197
 2451TIP3   OH2 7291   1.489   1.857   4.844 -0.0636  0.2263 -0.1396
 2451TIP3    H1 7292   1.544   1.839   4.921  1.8496 -0.9352 -1.7222
 2451TIP3    H2 7293   1.518   1.793   4.779 -3.9064 -0.9845 -0.7910
 2452TIP3   OH2 7294   7.952   7.340   4.530  0.3844  0.1490  0.2513
 2452TIP3    H1 7295   7.868   7.352   4.487 -0.2355  2.0211  1.8842
 2452TIP3    H2 7296   7.931   7.294   4.611  1.4119 -2.4975 -0.9459
 2453TIP3   OH2 7297   3.349   1.479   4.908 -0.0632  0.1170 -0.7591
 2453TIP3    H1 7298   3.314   1.497   4.820  0.3687 -0.1977 -1.0002
 2453TIP3    H2 7299   3.291   1.527   4.967 -0.5735  0.0428 -1.1920
 2454TIP3   OH2 7300   2.929   0.776   2.645  0.2006 -0.1107 -0.0303
 2454TIP3    H1 7301   2.843   0.746   2.614 -0.2823 -0.4299  1.5571
 2454TIP3    H2 7302   2.939   0.863   2.607 -0.7395 -0.1583 -0.4109
 2455TIP3   OH2 7303   5.109   3.748   2.713  0.0545  0.2074  0.5518
 2455TIP3    H1 7304   5.178   3.683   2.723  0.6600  1.0599  2.1725
 2455TIP3    H2 7305   5.027   3.698   2.716  0.4841 -0.4302  2.5222
 2456TIP3   OH2 7306   1.692   2.736   3.763  0.3219  0.3192  0.6306
 2456TIP3    H1 7307   1.723   2.821   3.794  2.0566  0.8640 -2.3790
 2456TIP3    H2 7308   1.770   2.683   3.755 -0.4111 -0.6802 -0.0573
 2457TIP3   OH2 7309   1.785   0.529   4.110  0.0831 -0.2025  0.3336
 2457TIP3    H1 7310   1.762   0.593   4.043 -0.1024  0.9600  1.4787
 2457TIP3    H2 7311   1.785   0.445   4.065 -1.8340  0.3348 -0.7055
 2458TIP3   OH2 7312   3.114   1.502   3.178  0.2787  0.1767 -0.0447
 2458TIP3    H1 7313   3.116   1.434   3.245  1.1009  0.7192  0.4789
 2458TIP3    H2 7314   3.158   1.577   3.218  2.3717 -0.0638 -1.8236
 2459TIP3   OH2 7315   3.039   4.004   1.277  0.4481 -0.1477 -0.3191
 2459TIP3    H1 7316   3.087   4.086   1.281  2.2293 -1.2625  1.7697
 2459TIP3    H2 7317   3.065   3.956   1.355 -0.4742 -2.7648 -1.5486
 2460TIP3   OH2 7318   2.694   0.994   5.538 -0.1136  0.1087  0.3549
 2460TIP3    H1 7319   2.767   0.976   5.479  0.3246 -1.3699  1.3145
 2460TIP3    H2 7320   2.712   1.081   5.573  1.3048 -0.3248  0.7317
 2461TIP3   OH2 7321   3.251   1.348   2.862  0.0541  0.4587  0.3065
 2461TIP3    H1 7322   3.278   1.276   2.920  1.3665  1.0656  0.4590
 2461TIP3    H2 7323   3.232   1.305   2.779 -0.9978 -0.3053  0.9240
 2462TIP3   OH2 7324   2.343   1.440   1.837 -0.5814 -0.1932 -0.0033
 2462TIP3    H1 7325   2.252   1.469   1.827 -0.9225 -0.7013  1.4923
 2462TIP3    H2 7326   2.354   1.374   1.768 -1.2290  0.1283 -0.4235
 2463TIP3   OH2 7327   2.670   3.783   4.030  0.2602 -0.0550 -0.2743
 2463TIP3    H1 7328   2.748   3.809   3.980  0.6611  0.5371  0.6313
 2463TIP3    H2 7329   2.672   3.688   4.031  0.7982 -0.0481 -0.5245
 2464TIP3   OH2 7330   2.547   0.460   2.904  0.1069 -0.3266  0.4401
 2464TIP3    H1 7331   2.612   0.431   2.841 -0.3814 -0.4126 -0.0208
 2464TIP3    H2 7332   2.464   0.431   2.868 -0.1702 -0.3854  1.1259
 2465TIP3   OH2 7333   2.111   2.029   4.424 -0.2778  0.6734  0.5014
 2465TIP3    H1 7334   2.192   2.044   4.472  1.0333  3.2956 -2.3962
 2465TIP3    H2 7335   2.102   1.933   4.422  3.0282  0.3048  0.4362
 2466TIP3   OH2 7336   3.867   2.853   4.390 -0.0257  0.3577 -0.1501
 2466TIP3    H1 7337   3.889   2.824   4.478 -1.5815  0.0754  0.1501
 2466TIP3    H2 7338   3.816   2.781   4.352 -0.9898  1.2708 -0.6037
 2467TIP3   OH2 7339   2.855   2.147   2.519  0.5379 -0.0589  0.1815
 2467TIP3    H1 7340   2.862   2.051   2.514  0.2048 -0.0837  0.1932
 2467TIP3    H2 7341   2.945   2.178   2.507  0.4755 -0.3307 -1.0657
 2468TIP3   OH2 7342   6.942   7.077   4.483 -0.2473  0.1436  0.3757
 2468TIP3    H1 7343   6.899   7.160   4.466 -1.5175 -0.4681  0.5536
 2468TIP3    H2 7344   6.872   7.018   4.509  0.6171 -1.0383  0.0872
 2469TIP3   OH2 7345   1.956   1.218   3.679  0.2391  0.3119  0.2809
 2469TIP3    H1 7346   1.966   1.135   3.727  0.1765  0.4714  0.5684
 2469TIP3    H2 7347   1.981   1.285   3.742 -0.5205  0.5719  0.3095
 2470TIP3   OH2 7348   2.654   2.764   3.215  0.1902  0.5988  0.6730
 2470TIP3    H1 7349   2.644   2.838   3.155 -0.1289  2.3974  2.8558
 2470TIP3    H2 7350   2.669   2.805   3.300  0.7554 -1.8877  1.8079
 2471TIP3   OH2 7351   3.878   0.337   2.882  0.1009  0.5417  0.3379
 2471TIP3    H1 7352   3.831   0.407   2.929  0.9341  1.4380 -0.1366
 2471TIP3    H2 7353   3.970   0.360   2.891  0.3891 -0.5613  0.2485
 2472TIP3   OH2 7354   3.857   2.694   4.622 -0.2093 -0.0789 -0.1495
 2472TIP3    H1 7355   3.811   2.683   4.705 -2.6527 -0.8920 -1.5739
 2472TIP3    H2 7356   3.875   2.605   4.592 -0.2840  0.1955 -1.0230
 2473TIP3   OH2 7357   1.313   2.029   4.295  0.3890 -0.4023 -0.3909
 2473TIP3    H1 7358   1.280   1.946   4.260 -2.7162  1.1283 -1.3125
 2473TIP3    H2 7359   1.341   2.077   4.217 -1.4491  0.8988 -0.2667
 2474TIP3   OH2 7360   1.275   0.761   4.878  0.5762 -0.2237 -0.3836
 2474TIP3    H1 7361   1.223   0.750   4.798 -2.0252 -1.7322  1.4387
 2474TIP3    H2 7362   1.228   0.828   4.928  1.1413 -0.6205  0.6895
 2475TIP3   OH2 7363   4.983   4.629   1.542 -0.1876  0.2062  0.2853
 2475TIP3    H1 7364   4.992   4.540   1.506  0.7513 -0.6068  2.4567
 2475TIP3    H2 7365   5.066   4.645   1.587 -0.1956  2.3582 -0.4365
 2476TIP3   OH2 7366   5.517   1.619   5.450 -0.3115 -0.2794 -0.8122
 2476TIP3    H1 7367   5.586   1.553   5.450  1.4506  1.5012  0.2803
 2476TIP3    H2 7368   5.493   1.629   5.358  2.1009  0.2541 -1.4305
 2477TIP3   OH2 7369   2.535   1.508   3.954 -0.0344  0.3465  0.0353
 2477TIP3    H1 7370   2.531   1.465   4.039  0.4023  0.3456  0.0552
 2477TIP3    H2 7371   2.628   1.513   3.934 -0.1395  0.2983 -0.4691
 2478TIP3   OH2 7372   2.365   1.739   3.514  0.2972 -0.1486  0.1146
 2478TIP3    H1 7373   2.294   1.770   3.458 -0.2266 -0.7097  0.4647
 2478TIP3    H2 7374   2.391   1.816   3.565  0.7325  0.3498 -0.8368
 2479TIP3   OH2 7375   1.615   2.441   4.453 -0.7026  0.2210 -0.3780
 2479TIP3    H1 7376   1.629   2.526   4.410 -1.9993  0.4524 -0.3751
 2479TIP3    H2 7377   1.700   2.419   4.492 -0.4629  1.7305 -0.0052
 2480TIP3   OH2 7378   1.515   1.866   2.252  0.2416 -0.2817  0.8247
 2480TIP3    H1 7379   1.451   1.937   2.252  0.2690 -0.2430 -0.4308
 2480TIP3    H2 7380   1.595   1.907   2.218  0.3998 -0.7904  0.5826
 2481TIP3   OH2 7381   4.612   0.912   0.723  0.3315  0.3379 -0.0427
 2481TIP3    H1 7382   4.698   0.871   0.729 -0.2060 -0.8790 -0.5944
 2481TIP3    H2 7383   4.550   0.839   0.717 -0.7014  1.2061 -0.1593
 2482TIP3   OH2 7384   4.108   2.677   1.640 -0.0348  0.2522  0.6394
 2482TIP3    H1 7385   4.136   2.650   1.553 -1.5276  0.5375  0.0544
 2482TIP3    H2 7386   4.107   2.773   1.637 -1.1928  0.2515  0.5941
 2483TIP3   OH2 7387   6.575   4.629   2.947  0.0059 -0.4204  0.0783
 2483TIP3    H1 7388   6.618   4.650   3.029  0.4801  1.2557 -0.5620
 2483TIP3    H2 7389   6.490   4.594   2.972  0.1818  0.0091  1.2804
 2484TIP3   OH2 7390   5.003   1.649   2.816 -0.0960 -0.2675 -0.8409
 2484TIP3    H1 7391   4.961   1.565   2.836 -0.6804  0.5421  1.5609
 2484TIP3    H2 7392   4.957   1.712   2.871  0.9104  1.4991 -1.9771
 2485TIP3   OH2 7393   0.687   7.967   3.268  0.1212  0.0891 -0.2072
 2485TIP3    H1 7394   0.772   8.008   3.284 -0.4830  1.2530  0.1183
 2485TIP3    H2 7395   0.673   7.911   3.345  0.8131 -0.4917 -0.4997
 2486TIP3   OH2 7396   8.214   7.044   4.123  0.2114  0.0442 -0.3933
 2486TIP3    H1 7397   8.278   6.973   4.130 -1.2266 -1.2447 -0.0304
 2486TIP3    H2 7398   8.246   7.112   4.183  0.7695 -0.9432  0.4376
 2487TIP3   OH2 7399   2.173   1.596   5.081 -0.3170  0.7161 -0.0190
 2487TIP3    H1 7400   2.118   1.656   5.031 -1.9974 -2.4960 -2.1451
 2487TIP3    H2 7401   2.257   1.595   5.034 -0.5125  0.8709 -0.3700
 2488TIP3   OH2 7402   2.007   1.443   6.759 -0.2946 -0.3309 -0.4028
 2488TIP3    H1 7403   1.923   1.438   6.714  0.2126 -1.5981 -1.2313
 2488TIP3    H2 7404   2.060   1.374   6.719  0.8748 -0.0668  0.6615
 2489TIP3   OH2 7405   1.958   2.371   2.621 -0.4117 -0.2921  0.2446
 2489TIP3    H1 7406   1.973   2.408   2.534 -1.8757 -1.2981 -0.4678
 2489TIP3    H2 7407   1.901   2.435   2.664  0.4574  0.2933  0.5440
 2490TIP3   OH2 7408   3.387   1.162   5.641 -0.5009  0.2095  0.8479
 2490TIP3    H1 7409   3.292   1.153   5.646 -0.3233 -1.2713  1.7909
 2490TIP3    H2 7410   3.406   1.245   5.684 -1.2332 -0.2939  2.1497
 2491TIP3   OH2 7411   1.619   1.294   5.184  0.0261  0.2733  0.2620
 2491TIP3    H1 7412   1.695   1.290   5.242  0.8312 -0.6560 -0.8393
 2491TIP3    H2 7413   1.545   1.269   5.239  0.5303  1.0957  1.3161
 2492TIP3   OH2 7414   3.428   3.076   5.001  0.0478 -0.0696  0.0943
 2492TIP3    H1 7415   3.398   3.124   4.924 -0.3327 -0.0864  0.2306
 2492TIP3    H2 7416   3.365   3.098   5.069  2.0856  2.4154  1.2770
 2493TIP3   OH2 7417   2.102   0.499   4.117  0.1549  0.2220 -0.3820
 2493TIP3    H1 7418   2.090   0.497   4.022 -1.1094 -3.5557 -0.2104
 2493TIP3    H2 7419   2.021   0.537   4.152  0.4368  1.1827 -0.7491
 2494TIP3   OH2 7420   3.158   1.092   1.773 -0.0873 -0.2676  0.0896
 2494TIP3    H1 7421   3.224   1.136   1.720 -1.5073  0.8409 -0.8021
 2494TIP3    H2 7422   3.196   1.007   1.793  1.4567  0.2148 -0.7072
 2495TIP3   OH2 7423   0.280   1.513   6.714 -0.1314 -0.6576 -0.1737
 2495TIP3    H1 7424   0.283   1.463   6.795  1.3767  0.7622  0.6713
 2495TIP3    H2 7425   0.191   1.501   6.681 -0.9586 -0.7255  2.0310
 2496TIP3   OH2 7426   2.773   0.576   5.598  0.3311 -0.3903 -0.5513
 2496TIP3    H1 7427   2.778   0.510   5.667  2.2156 -0.6745 -0.9548
 2496TIP3    H2 7428   2.791   0.659   5.643  0.7497 -0.4753 -0.5673
 2497TIP3   OH2 7429   2.942   1.982   5.792  0.1083  0.1637  0.4688
 2497TIP3    H1 7430   3.017   1.951   5.741 -0.7049  0.4831 -0.9387
 2497TIP3    H2 7431   2.889   2.031   5.729 -1.2155  0.0418  1.4854
 2498TIP3   OH2 7432   2.996   4.231   2.244 -0.4295 -0.1295  0.0476
 2498TIP3    H1 7433   2.902   4.236   2.233 -0.5990 -2.3358  0.1838
 2498TIP3    H2 7434   3.008   4.218   2.338 -0.0336 -0.3739 -0.0333
 2499TIP3   OH2 7435   3.338   2.907   4.628 -0.2830  0.0313  0.6915
 2499TIP3    H1 7436   3.388   2.905   4.546 -1.4786  1.1078 -0.0825
 2499TIP3    H2 7437   3.403   2.888   4.696  1.1310  1.1367 -0.3095
 2500TIP3   OH2 7438   1.786   3.636   3.528  0.1964  0.0271  0.3622
 2500TIP3    H1 7439   1.718   3.600   3.584 -0.6683 -0.5938 -1.0835
 2500TIP3    H2 7440   1.865   3.586   3.551 -0.4789 -1.2234 -0.0139
 2501TIP3   OH2 7441   2.727   0.790   3.238 -0.3941 -0.1509  0.0087
 2501TIP3    H1 7442   2.795   0.734   3.276 -1.0221 -0.8284  0.1292
 2501TIP3    H2 7443   2.667   0.729   3.195 -0.2001  0.5466 -1.2574
 2502TIP3   OH2 7444   4.327   3.404   0.747  0.5929 -0.1872 -0.3607
 2502TIP3    H1 7445   4.423   3.401   0.749  0.6201  1.3490  1.4872
 2502TIP3    H2 7446   4.301   3.415   0.838 -1.3729 -0.9548 -0.7964
 2503TIP3   OH2 7447   4.433   0.762   4.552  0.2026  0.1106  0.2902
 2503TIP3    H1 7448   4.386   0.716   4.621 -0.8982  0.3273 -0.3028
 2503TIP3    H2 7449   4.418   0.854   4.571 -0.3524  0.1652 -0.3990
 2504TIP3   OH2 7450   1.158   0.549   1.487  0.0938 -0.3118  0.0747
 2504TIP3    H1 7451   1.175   0.573   1.578  1.3987  0.0465 -0.2503
 2504TIP3    H2 7452   1.084   0.603   1.461  0.2935  0.2479  0.6496
 2505TIP3   OH2 7453   2.774   0.672   4.674 -0.4421 -0.9001 -0.8382
 2505TIP3    H1 7454   2.727   0.752   4.698  1.0143 -0.1250 -0.5615
 2505TIP3    H2 7455   2.775   0.619   4.754 -0.1321 -0.5736 -0.6296
 2506TIP3   OH2 7456   3.420   2.934   0.683 -0.1353  0.9077  0.4356
 2506TIP3    H1 7457   3.407   2.880   0.761  0.5009  0.9313  0.5599
 2506TIP3    H2 7458   3.475   3.007   0.713  0.4649  0.6925 -0.1257
 2507TIP3   OH2 7459   3.651   2.382   2.800  0.1693 -0.2787 -0.1723
 2507TIP3    H1 7460   3.659   2.385   2.705 -1.1954  0.0054 -0.2866
 2507TIP3    H2 7461   3.696   2.301   2.826  0.0665 -0.6317 -1.1045
 2508TIP3   OH2 7462   2.999   1.046   4.689 -0.5890 -0.0170  0.3772
 2508TIP3    H1 7463   3.007   0.986   4.614 -2.5406  0.0068  0.1431
 2508TIP3    H2 7464   2.945   1.000   4.752  0.5399  0.2218  1.5431
 2509TIP3   OH2 7465   1.439   4.387   4.278  0.8137  0.2660 -0.0150
 2509TIP3    H1 7466   1.406   4.379   4.188  0.4609 -0.7263  0.1933
 2509TIP3    H2 7467   1.360   4.384   4.332  1.1959 -1.7237  0.4677
 2510TIP3   OH2 7468   2.691   1.259   5.891 -0.2404  0.2021 -0.4500
 2510TIP3    H1 7469   2.606   1.238   5.928 -0.3734 -1.0245 -1.4274
 2510TIP3    H2 7470   2.746   1.183   5.912  1.3865  2.0759  2.4927
 2511TIP3   OH2 7471   2.074   1.364   3.875  0.3625 -0.0326  0.0350
 2511TIP3    H1 7472   2.113   1.287   3.916  1.0557  0.1783 -0.2252
 2511TIP3    H2 7473   2.149   1.419   3.850 -0.0230 -0.2714 -1.7285
 2512TIP3   OH2 7474   0.080   7.722   2.623  0.1137  0.2235  0.4524
 2512TIP3    H1 7475   0.104   7.794   2.565 -0.5791  0.0699 -0.0458
 2512TIP3    H2 7476   0.022   7.667   2.569 -1.1966  0.5081  1.5551
 2513TIP3   OH2 7477   2.444   1.908   3.084 -0.3938 -0.0434  0.1067
 2513TIP3    H1 7478   2.510   1.846   3.116 -1.1605 -0.1327  1.5665
 2513TIP3    H2 7479   2.405   1.865   3.008 -0.3618 -0.9949  0.6261
 2514TIP3   OH2 7480   2.627   0.461   2.429 -0.6150 -0.1740  0.0930
 2514TIP3    H1 7481   2.647   0.544   2.473  0.7328 -0.3387 -0.1979
 2514TIP3    H2 7482   2.545   0.478   2.382  0.0355  1.2365 -0.5634
 2515TIP3   OH2 7483   2.989   0.810   1.376  0.0831  0.3486 -0.5041
 2515TIP3    H1 7484   2.933   0.735   1.396  1.1793 -0.3215  0.0420
 2515TIP3    H2 7485   2.989   0.863   1.456  0.4566  0.2111 -0.4145
 2516TIP3   OH2 7486   3.043   1.429   5.374  0.4104 -0.3585 -0.6425
 2516TIP3    H1 7487   3.046   1.424   5.279 -0.0652 -1.0507 -0.6246
 2516TIP3    H2 7488   2.989   1.506   5.392 -0.0646 -0.6130 -0.9437
 2517TIP3   OH2 7489   2.525   1.652   2.446  0.0616 -0.1374 -0.0533
 2517TIP3    H1 7490   2.476   1.734   2.439 -0.7802 -0.4252  2.0159
 2517TIP3    H2 7491   2.615   1.679   2.460 -0.1036  0.4403 -0.0807
 2518TIP3   OH2 7492   2.049   1.786   3.136  0.1479  0.2191  0.5755
 2518TIP3    H1 7493   2.011   1.722   3.195  1.7209 -1.3146 -0.0449
 2518TIP3    H2 7494   2.039   1.748   3.049 -0.0770  1.4158  0.0589
 2519TIP3   OH2 7495   1.877   3.388   3.659  0.1952 -0.9804  0.6632
 2519TIP3    H1 7496   1.818   3.322   3.622 -0.4125 -0.6774  1.0940
 2519TIP3    H2 7497   1.908   3.349   3.741  0.1274 -0.8933  0.7308
 2520TIP3   OH2 7498   3.280   0.786   3.325 -0.4887  0.2568  0.0578
 2520TIP3    H1 7499   3.339   0.757   3.394  0.5239 -0.3416 -1.0473
 2520TIP3    H2 7500   3.324   0.861   3.286 -0.7834  0.2372 -0.3172
 2521TIP3   OH2 7501   2.306   2.569   2.309  0.1323 -0.3119 -0.2451
 2521TIP3    H1 7502   2.218   2.558   2.347  0.9250  0.6453  1.9474
 2521TIP3    H2 7503   2.290   2.614   2.226 -1.4681 -0.2824  0.0584
 2522TIP3   OH2 7504   3.277   3.250   2.665  0.0658 -0.7102  0.4611
 2522TIP3    H1 7505   3.370   3.270   2.660 -0.0679  0.0907  1.0891
 2522TIP3    H2 7506   3.271   3.157   2.645  0.7849 -0.3009 -1.7603
 2523TIP3   OH2 7507   1.698   0.903   4.597 -0.3358  0.2693  0.1403
 2523TIP3    H1 7508   1.662   0.931   4.682 -2.4006 -0.9263 -0.2906
 2523TIP3    H2 7509   1.666   0.969   4.535 -1.0299 -0.2697 -0.0902
 2524TIP3   OH2 7510   6.356   7.793   2.522  0.3085 -0.4729 -0.6656
 2524TIP3    H1 7511   6.335   7.874   2.569 -1.3420 -1.0368 -0.3840
 2524TIP3    H2 7512   6.448   7.777   2.540  0.3594  0.7653  0.1832
 2525TIP3   OH2 7513   7.870   6.604   2.518 -0.3837  0.9368 -0.3120
 2525TIP3    H1 7514   7.921   6.684   2.527 -0.1544  0.8700 -0.9692
 2525TIP3    H2 7515   7.786   6.624   2.558 -0.1631  1.3520 -0.0556
 2526TIP3   OH2 7516   4.142   2.959   5.055 -0.4431  0.0445 -0.6935
 2526TIP3    H1 7517   4.182   2.877   5.084 -3.8031 -0.5939  2.5754
 2526TIP3    H2 7518   4.057   2.933   5.019 -0.2647  1.8229 -2.5046
 2527TIP3   OH2 7519   3.341   2.286   4.444 -0.3498 -0.2337  0.6643
 2527TIP3    H1 7520   3.290   2.342   4.386 -2.6291 -2.2156  0.6956
 2527TIP3    H2 7521   3.402   2.241   4.385 -2.1356 -1.6636 -0.1350
 2528TIP3   OH2 7522   8.303   7.409   5.177 -0.3623 -0.1259  0.0630
 2528TIP3    H1 7523   8.393   7.439   5.187 -0.5974 -0.0174  2.0190
 2528TIP3    H2 7524   8.274   7.446   5.093  0.7732  1.4821  0.3668
 2529TIP3   OH2 7525   1.422   2.792   2.832 -0.2845  0.2044  0.0905
 2529TIP3    H1 7526   1.517   2.795   2.819 -0.2467 -1.0927 -0.0737
 2529TIP3    H2 7527   1.386   2.801   2.744 -0.2918  0.1051  0.0833
 2530TIP3   OH2 7528   3.163   0.572   2.190 -0.6546  0.2784 -0.1346
 2530TIP3    H1 7529   3.173   0.575   2.285 -0.3105 -1.2228 -0.1180
 2530TIP3    H2 7530   3.106   0.497   2.174 -0.2286  0.1721 -1.1630
 2531TIP3   OH2 7531   3.914   0.230   2.134 -0.3539  0.2090  0.4979
 2531TIP3    H1 7532   3.894   0.323   2.144 -2.9259 -0.0982 -1.4682
 2531TIP3    H2 7533   4.000   0.220   2.176 -0.7952  3.1104  2.2504
 2532TIP3   OH2 7534   3.267   1.426   1.792 -0.1705 -0.7764  0.0843
 2532TIP3    H1 7535   3.224   1.405   1.709 -0.0873 -0.9654  0.0904
 2532TIP3    H2 7536   3.360   1.413   1.775 -0.2755 -2.2045  0.6274
 2533TIP3   OH2 7537   2.903   2.191   3.158 -0.1816 -0.5609  0.0070
 2533TIP3    H1 7538   2.918   2.247   3.234 -0.2919  0.4708 -0.7139
 2533TIP3    H2 7539   2.828   2.232   3.113 -1.1786 -2.0987  0.2348
 2534TIP3   OH2 7540   3.474   2.841   1.496 -0.5475 -0.3678  0.0819
 2534TIP3    H1 7541   3.440   2.861   1.583 -1.3199 -0.9290 -0.0820
 2534TIP3    H2 7542   3.495   2.748   1.499 -0.0828 -0.2763 -0.1787
 2535TIP3   OH2 7543   3.268   3.276   0.072 -0.9623 -0.1226  0.0721
 2535TIP3    H1 7544   3.311   3.234   0.146 -0.4843 -0.8110 -0.5881
 2535TIP3    H2 7545   3.196   3.326   0.111  0.3825  0.9981  1.1814
 2536TIP3   OH2 7546   2.603   3.024   3.390 -0.8216 -0.1347  0.0053
 2536TIP3    H1 7547   2.527   3.002   3.443  0.6212  0.2474  2.3058
 2536TIP3    H2 7548   2.655   3.083   3.445  0.7564  0.2413 -1.8177
 2537TIP3   OH2 7549   1.185   6.495   3.160 -0.3030  0.1567  0.3482
 2537TIP3    H1 7550   1.212   6.440   3.086 -1.6998  1.6892 -1.3524
 2537TIP3    H2 7551   1.144   6.571   3.119 -0.3072  1.4631  2.7063
 2538TIP3   OH2 7552   2.423   2.268   3.997 -0.5442 -0.0902 -0.3677
 2538TIP3    H1 7553   2.462   2.318   3.925  2.2357  1.4633  2.0643
 2538TIP3    H2 7554   2.351   2.323   4.028  0.9139  1.2886  0.6768
 2539TIP3   OH2 7555   1.432   2.379   1.403 -0.2454 -0.2728 -0.1001
 2539TIP3    H1 7556   1.503   2.366   1.467  0.0773  0.3425 -0.3307
 2539TIP3    H2 7557   1.369   2.435   1.448 -0.4971 -0.6570  0.0321
 2540TIP3   OH2 7558   2.321   3.298   3.777 -0.0751  0.1312  0.5098
 2540TIP3    H1 7559   2.344   3.345   3.697  0.9917  0.9725  1.2987
 2540TIP3    H2 7560   2.319   3.366   3.845 -0.4641 -0.6583  1.2970
 2541TIP3   OH2 7561   2.650   1.130   1.381 -0.7865 -0.0675  0.1101
 2541TIP3    H1 7562   2.568   1.179   1.373 -0.4372  0.2470 -1.8272
 2541TIP3    H2 7563   2.624   1.042   1.408 -1.7621 -0.0065 -0.6419
 2542TIP3   OH2 7564   5.881   2.492   0.069  0.0531 -0.3620  0.2738
 2542TIP3    H1 7565   5.917   2.570   0.112 -0.4479  0.3816 -0.6436
 2542TIP3    H2 7566   5.836   2.445   0.139 -0.2093  0.5139  0.7043
 2543TIP3   OH2 7567   3.612   1.859   4.442 -0.5902  0.5873 -0.7726
 2543TIP3    H1 7568   3.558   1.802   4.498 -1.3905  1.1356 -0.9863
 2543TIP3    H2 7569   3.665   1.798   4.390  1.2526  0.0683  1.6247
 2544TIP3   OH2 7570   3.422   1.155   4.875 -0.3608 -0.2000  1.0004
 2544TIP3    H1 7571   3.442   1.076   4.826  0.2177  0.8980 -0.6049
 2544TIP3    H2 7572   3.347   1.132   4.929 -0.9720 -1.4847 -0.3577
 2545TIP3   OH2 7573   4.798   3.396   3.205  0.2151  0.2350  0.1311
 2545TIP3    H1 7574   4.827   3.478   3.164  0.4018 -1.0993 -2.4853
 2545TIP3    H2 7575   4.708   3.414   3.231  0.0173  1.0758 -1.0603
 2546TIP3   OH2 7576   3.613   1.463   3.395  0.0148  0.5037 -0.2355
 2546TIP3    H1 7577   3.693   1.484   3.444 -0.9151 -0.5570  1.8079
 2546TIP3    H2 7578   3.544   1.514   3.438 -0.5340  0.9593 -1.6155
 2547TIP3   OH2 7579   3.836   3.172   2.129  0.1205  0.3204 -0.3662
 2547TIP3    H1 7580   3.873   3.089   2.099 -0.1229 -0.4291  1.3709
 2547TIP3    H2 7581   3.896   3.201   2.198 -0.1445  1.2787 -0.5320
 2548TIP3   OH2 7582   2.371   0.597   4.228  0.0762 -0.4623  0.2686
 2548TIP3    H1 7583   2.315   0.663   4.269  1.2133  0.4905  0.2885
 2548TIP3    H2 7584   2.448   0.645   4.198  1.5839 -2.0051  1.5651
 2549TIP3   OH2 7585   5.248   2.860   3.767  0.3303  0.8709  0.4346
 2549TIP3    H1 7586   5.305   2.935   3.749 -0.0410  1.0023 -0.1855
 2549TIP3    H2 7587   5.186   2.859   3.694  1.6874 -1.3546 -0.7251
 2550TIP3   OH2 7588   1.123   0.739   3.322  0.3506 -0.1630 -0.3429
 2550TIP3    H1 7589   1.190   0.806   3.334  1.3689 -0.8902 -1.7958
 2550TIP3    H2 7590   1.163   0.675   3.263 -1.2066 -1.1975 -0.3172
 2551TIP3   OH2 7591   1.942   3.804   0.818 -0.2119 -0.1573 -1.0013
 2551TIP3    H1 7592   1.882   3.859   0.767  0.2329  0.0786 -1.2693
 2551TIP3    H2 7593   1.999   3.764   0.752  0.7218  0.5780 -0.6390
 2552TIP3   OH2 7594   2.377   0.367   4.053 -0.1450  0.4959  0.3202
 2552TIP3    H1 7595   2.403   0.425   3.981  2.8163 -1.2070 -0.0696
 2552TIP3    H2 7596   2.371   0.280   4.013  0.0904 -0.2212  1.8289
 2553TIP3   OH2 7597   2.820   1.040   4.293 -0.0809 -0.7756 -0.2734
 2553TIP3    H1 7598   2.834   0.981   4.367  1.3613 -1.8106 -1.3447
 2553TIP3    H2 7599   2.801   0.982   4.219  0.9525  0.1098 -1.2506
 2554TIP3   OH2 7600   7.305   1.617   3.519 -0.3318 -0.0919  0.0122
 2554TIP3    H1 7601   7.387   1.663   3.532 -0.6718  0.2514  0.9620
 2554TIP3    H2 7602   7.238   1.676   3.554 -1.1874  0.4639 -2.4764
 2555TIP3   OH2 7603   4.011   0.098   4.403  0.6116 -0.2468  0.1545
 2555TIP3    H1 7604   3.967   0.183   4.395  0.8422 -0.0572  0.9365
 2555TIP3    H2 7605   3.941   0.038   4.430  0.4073 -0.3496 -0.5847
 2556TIP3   OH2 7606   1.648   1.101   4.445  0.5447 -0.1761  0.1190
 2556TIP3    H1 7607   1.671   1.180   4.493  0.4536  1.2820 -2.1890
 2556TIP3    H2 7608   1.578   1.128   4.386  0.8989 -1.8536 -1.0934
 2557TIP3   OH2 7609   3.319   0.914   2.408  0.1597  0.0723 -0.7085
 2557TIP3    H1 7610   3.312   0.984   2.343  2.1732 -1.2459 -2.4110
 2557TIP3    H2 7611   3.381   0.947   2.472  0.9070 -0.0199 -1.3737
 2558TIP3   OH2 7612   3.205   0.385   1.832 -0.1384  0.0402  0.3799
 2558TIP3    H1 7613   3.160   0.354   1.910  0.8854 -2.1009  0.1551
 2558TIP3    H2 7614   3.164   0.336   1.760  1.6920 -1.0022  0.0387
 2559TIP3   OH2 7615   2.759   0.580   4.938 -0.2647  0.0471  0.1257
 2559TIP3    H1 7616   2.692   0.621   4.992  1.3537  1.8267  0.8341
 2559TIP3    H2 7617   2.829   0.558   4.998  0.1805 -0.9919 -0.7503
 2560TIP3   OH2 7618   3.267   2.829   0.459 -0.0672  0.8107 -0.4569
 2560TIP3    H1 7619   3.342   2.832   0.401  0.4970 -1.4224  0.0897
 2560TIP3    H2 7620   3.304   2.837   0.547 -0.4468 -0.3528 -0.1822
 2561TIP3   OH2 7621   0.215   1.240   4.859  0.9067  1.0666  0.4335
 2561TIP3    H1 7622   0.136   1.270   4.813 -0.8576  0.7934  3.1950
 2561TIP3    H2 7623   0.221   1.297   4.936  1.6227 -0.9170  1.8869
 2562TIP3   OH2 7624   4.672   2.500   5.438 -0.9552  0.5312  0.3645
 2562TIP3    H1 7625   4.722   2.425   5.406 -0.3270  1.5186 -1.0173
 2562TIP3    H2 7626   4.722   2.532   5.513 -0.0692  0.8553 -0.3519
 2563TIP3   OH2 7627   2.418   0.746   4.708  0.5015 -0.5107  0.6282
 2563TIP3    H1 7628   2.331   0.743   4.667 -0.2881 -0.1845  2.2525
 2563TIP3    H2 7629   2.440   0.655   4.724  0.6513 -0.6191 -0.1557
 2564TIP3   OH2 7630   1.525   3.364   2.606 -0.3970  0.2896  0.3142
 2564TIP3    H1 7631   1.573   3.447   2.617 -1.7675  1.3467 -1.4076
 2564TIP3    H2 7632   1.470   3.379   2.529 -3.0427 -1.1080  1.8961
 2565TIP3   OH2 7633   2.617   3.001   3.018 -0.4976  0.3213  0.4130
 2565TIP3    H1 7634   2.676   3.052   2.962  2.4570 -0.2320  2.9168
 2565TIP3    H2 7635   2.566   2.949   2.956  2.8800 -0.5143 -1.8625
 2566TIP3   OH2 7636   3.183   2.803   4.099  0.4005  0.2381  0.1868
 2566TIP3    H1 7637   3.159   2.844   4.017  0.0986 -0.5633 -0.1362
 2566TIP3    H2 7638   3.107   2.816   4.156  0.7377  1.0725  0.4444
 2567TIP3   OH2 7639   1.759   7.340   6.438 -0.4042 -0.2901  0.0660
 2567TIP3    H1 7640   1.682   7.302   6.479 -0.0888 -1.0128 -0.0101
 2567TIP3    H2 7641   1.773   7.422   6.486 -1.2833 -0.1003  0.0002
 2568TIP3   OH2 7642   3.870   2.283   4.331 -0.8039 -0.2443  0.6880
 2568TIP3    H1 7643   3.921   2.364   4.321 -0.0099 -0.8897 -0.5703
 2568TIP3    H2 7644   3.847   2.281   4.424  2.3680 -0.4775  1.5244
 2569TIP3   OH2 7645   1.541   2.734   5.512 -0.1956 -0.0907 -0.3779
 2569TIP3    H1 7646   1.569   2.803   5.451  0.3253 -0.2972 -0.3756
 2569TIP3    H2 7647   1.615   2.674   5.516 -0.6504 -0.6559 -0.3782
 2570TIP3   OH2 7648   2.343   0.532   5.531 -0.3681 -0.0757 -0.2443
 2570TIP3    H1 7649   2.277   0.568   5.472 -1.5055 -2.9395 -0.7915
 2570TIP3    H2 7650   2.425   0.537   5.482 -1.0212 -0.8959 -1.4418
 2571TIP3   OH2 7651   4.031   2.465   4.595 -0.1079  0.2205 -0.3886
 2571TIP3    H1 7652   4.085   2.401   4.641 -1.2301 -0.8942 -0.5973
 2571TIP3    H2 7653   3.942   2.429   4.599 -0.6402  1.4084 -1.1392
 2572TIP3   OH2 7654   2.655   0.023   2.137  0.6082 -0.1874 -0.5044
 2572TIP3    H1 7655   2.598  -0.015   2.071  2.4486  0.3441 -2.4818
 2572TIP3    H2 7656   2.598   0.079   2.190 -0.8451 -0.3328 -1.8897
 2573TIP3   OH2 7657   3.945   2.567   0.031 -0.1472  0.3166  0.5376
 2573TIP3    H1 7658   3.939   2.474   0.005  1.0482 -0.5102  3.0696
 2573TIP3    H2 7659   4.032   2.576   0.068 -0.0188  2.6526 -0.2603
 2574TIP3   OH2 7660   2.814   0.832   5.282  0.1615 -0.0567 -0.1846
 2574TIP3    H1 7661   2.907   0.815   5.265  0.0036 -1.6863  0.4958
 2574TIP3    H2 7662   2.773   0.746   5.282 -1.0569  0.4877  1.2339
 2575TIP3   OH2 7663   3.544   1.589   1.229  0.3591 -0.1206 -0.0724
 2575TIP3    H1 7664   3.450   1.571   1.235  0.4625 -0.1245  1.7041
 2575TIP3    H2 7665   3.559   1.661   1.290  1.9943 -1.9806  1.7947
 2576TIP3   OH2 7666   3.720   3.568   5.446  0.0288 -0.3645 -0.5592
 2576TIP3    H1 7667   3.704   3.589   5.354  0.8015  0.9414 -0.4020
 2576TIP3    H2 7668   3.811   3.538   5.448  0.1547  0.0518 -0.1391
 2577TIP3   OH2 7669   2.429   3.137   2.505  0.8524 -0.2407 -0.8555
 2577TIP3    H1 7670   2.505   3.141   2.563  0.1484  3.3277 -0.0634
 2577TIP3    H2 7671   2.456   3.186   2.427  0.0048 -0.5977 -1.3777
 2578TIP3   OH2 7672   3.418   1.003   4.161  0.2922 -0.4370  0.1754
 2578TIP3    H1 7673   3.361   0.994   4.085  1.1348 -2.7338 -0.2117
 2578TIP3    H2 7674   3.503   0.972   4.132  0.5969 -1.4832  2.0578
 2579TIP3   OH2 7675   3.598   1.085   6.149  0.3177 -0.3300 -0.1972
 2579TIP3    H1 7676   3.608   0.999   6.190 -3.0050 -2.3760 -3.4338
 2579TIP3    H2 7677   3.507   1.110   6.165  0.2006  0.8551 -2.4809
 2580TIP3   OH2 7678   2.850   3.780   3.443  0.4048 -0.6072 -0.6500
 2580TIP3    H1 7679   2.847   3.853   3.505  0.0375 -0.0379 -1.3256
 2580TIP3    H2 7680   2.862   3.702   3.498  0.3792 -0.0837  0.1090
 2581TIP3   OH2 7681   3.193   1.025   4.991 -0.1949  0.1644 -0.2760
 2581TIP3    H1 7682   3.221   0.933   4.992  1.6699  0.6507 -2.0330
 2581TIP3    H2 7683   3.101   1.022   4.964  0.0608 -1.1686 -1.0580
 2582TIP3   OH2 7684   2.903   1.805   3.382 -0.5411 -0.1537  0.2994
 2582TIP3    H1 7685   2.950   1.738   3.431 -1.6695 -2.5591 -1.7428
 2582TIP3    H2 7686   2.956   1.818   3.303 -0.1226  1.6858  0.8690
 2583TIP3   OH2 7687   3.962   1.806   4.087 -0.3458 -0.0674 -0.3331
 2583TIP3    H1 7688   4.013   1.748   4.030  0.4341  0.4697 -0.2005
 2583TIP3    H2 7689   3.883   1.826   4.037 -0.0697 -0.2990 -0.8677
 2584TIP3   OH2 7690   3.474   1.654   4.218  0.2385  0.2118  0.6307
 2584TIP3    H1 7691   3.519   1.676   4.136  0.1198 -0.5584  0.3535
 2584TIP3    H2 7692   3.443   1.738   4.251 -0.5851  0.4213 -0.6292
 2585TIP3   OH2 7693   1.147   1.089   3.855 -0.2044  0.1590 -0.0770
 2585TIP3    H1 7694   1.134   1.180   3.881 -0.1114 -0.3579  1.8409
 2585TIP3    H2 7695   1.242   1.080   3.845 -0.4043  1.1153 -3.5723
 2586TIP3   OH2 7696   3.618   2.521   5.224 -0.3113 -0.7785 -0.2791
 2586TIP3    H1 7697   3.580   2.499   5.309 -1.5097 -0.1729 -0.6425
 2586TIP3    H2 7698   3.712   2.507   5.235 -0.3168  0.4798  1.5170
 2587TIP3   OH2 7699   3.690   1.058   3.477  0.5224  0.3326 -0.3748
 2587TIP3    H1 7700   3.624   1.106   3.527  0.0906 -0.3178 -0.3152
 2587TIP3    H2 7701   3.771   1.107   3.490 -0.0005  1.2676 -0.6468
 2588TIP3   OH2 7702   3.191   2.842   2.411  0.1181  0.1174 -0.1361
 2588TIP3    H1 7703   3.181   2.932   2.443 -0.5418  0.0169 -0.0570
 2588TIP3    H2 7704   3.103   2.807   2.411  0.3414 -0.4432 -0.4423
 2589TIP3   OH2 7705   0.721   1.776   3.786  0.5608  0.2216 -0.5694
 2589TIP3    H1 7706   0.659   1.725   3.734  0.4472  0.4109 -0.6213
 2589TIP3    H2 7707   0.743   1.719   3.860  0.4135  0.1086 -0.6119
 2590TIP3   OH2 7708   0.576   7.664   4.341 -0.1413 -0.1901  0.0893
 2590TIP3    H1 7709   0.555   7.711   4.261 -0.7873 -1.8008 -0.7180
 2590TIP3    H2 7710   0.553   7.724   4.412  0.5083  1.2660 -0.9318
 2591TIP3   OH2 7711   4.000   0.937   4.194 -0.4966 -0.2751  0.0243
 2591TIP3    H1 7712   3.991   0.972   4.283  1.5223  0.8306 -0.1575
 2591TIP3    H2 7713   3.961   1.004   4.138 -0.2515 -0.1846 -0.0387
 2592TIP3   OH2 7714   4.391   2.074   4.586  0.1821 -0.2776  0.0669
 2592TIP3    H1 7715   4.430   2.031   4.663 -0.2964 -0.2089  0.3458
 2592TIP3    H2 7716   4.356   2.001   4.534  1.0784 -0.3762 -0.4056
 2593TIP3   OH2 7717   2.483   3.231   4.763  0.0994 -0.4126  0.3149
 2593TIP3    H1 7718   2.439   3.146   4.770  1.3286 -1.0127  0.8567
 2593TIP3    H2 7719   2.528   3.227   4.678 -0.3158 -0.0741  0.0781
 2594TIP3   OH2 7720   5.032   0.812   4.581 -0.3244  0.1437 -0.4984
 2594TIP3    H1 7721   5.031   0.875   4.653 -1.4758 -0.5888  0.1305
 2594TIP3    H2 7722   5.122   0.779   4.579 -0.8312 -1.4453  2.0068
 2595TIP3   OH2 7723   2.173   0.704   3.506  0.5636  0.0816 -0.3315
 2595TIP3    H1 7724   2.090   0.720   3.461  0.1015  1.2159  0.8956
 2595TIP3    H2 7725   2.224   0.784   3.492  0.1860  0.6992  1.6148
 2596TIP3   OH2 7726   0.132   7.497   3.241  0.2410  0.3509 -0.7897
 2596TIP3    H1 7727   0.168   7.564   3.299  3.1753 -1.7594 -0.0235
 2596TIP3    H2 7728   0.193   7.493   3.168 -0.3153 -0.9389 -1.2011
 2597TIP3   OH2 7729   3.150   0.047   3.120  0.1095 -0.1578  0.1200
 2597TIP3    H1 7730   3.226   0.075   3.069  1.5303 -3.3941  0.3221
 2597TIP3    H2 7731   3.171   0.074   3.210  1.2542 -1.3694  0.2415
 2598TIP3   OH2 7732   3.463   2.166   3.100  0.5149 -0.0008  0.0704
 2598TIP3    H1 7733   3.416   2.166   3.184  0.9523 -1.2029  0.3149
 2598TIP3    H2 7734   3.488   2.075   3.086 -1.4986 -0.2087 -2.4704
 2599TIP3   OH2 7735   1.513   2.574   3.888  0.5354  0.4275  0.1767
 2599TIP3    H1 7736   1.583   2.564   3.952  1.1617  0.5854 -0.4843
 2599TIP3    H2 7737   1.550   2.630   3.820  0.6979 -1.7288 -1.5537
 2600TIP3   OH2 7738   1.368   2.143   6.220  0.2413 -0.0109  0.0193
 2600TIP3    H1 7739   1.404   2.079   6.159 -0.8887 -0.9691  0.3448
 2600TIP3    H2 7740   1.327   2.090   6.289 -2.0729  1.0324 -0.5185
 2601TIP3   OH2 7741   2.071   1.992   2.779  0.1499  0.2417 -0.1026
 2601TIP3    H1 7742   2.032   1.907   2.799 -1.6326  0.9317 -0.5672
 2601TIP3    H2 7743   2.079   2.035   2.864  1.0332 -0.3714  0.1315
 2602TIP3   OH2 7744   2.063   2.534   5.751  0.1760 -0.0390  1.0724
 2602TIP3    H1 7745   1.992   2.470   5.758  0.3698 -0.1918  1.6294
 2602TIP3    H2 7746   2.020   2.619   5.756 -0.1091 -0.1200  0.0965
 2603TIP3   OH2 7747   4.006   2.983   5.456  0.3839 -0.0826 -0.3920
 2603TIP3    H1 7748   3.978   3.055   5.512 -0.1925  0.1197 -0.9336
 2603TIP3    H2 7749   4.074   3.021   5.400  1.5664 -0.5024  0.7357
 2604TIP3   OH2 7750   3.815   3.199   1.244 -0.0340 -0.7186  0.0842
 2604TIP3    H1 7751   3.731   3.177   1.284 -0.3235 -0.5003 -0.4051
 2604TIP3    H2 7752   3.873   3.127   1.270 -0.7074 -1.5311 -0.6231
 2605TIP3   OH2 7753   4.599   2.683   4.435  0.3244  0.2390  0.1068
 2605TIP3    H1 7754   4.549   2.646   4.508 -0.2526  1.2587  0.2337
 2605TIP3    H2 7755   4.640   2.607   4.394 -1.2238 -0.6066  0.0788
 2606TIP3   OH2 7756   1.719   1.348   4.903 -0.3966  0.1008 -0.3290
 2606TIP3    H1 7757   1.749   1.367   4.992  3.5935  0.5963 -1.6907
 2606TIP3    H2 7758   1.694   1.433   4.867 -1.6071 -0.0424  0.1587
 2607TIP3   OH2 7759   4.350   1.348   1.152  0.0575 -0.0453  0.0934
 2607TIP3    H1 7760   4.349   1.279   1.219 -1.2026 -0.8340 -0.7334
 2607TIP3    H2 7761   4.428   1.329   1.100 -1.3319 -2.0003 -1.3160
 2608TIP3   OH2 7762   2.749   1.898   1.074  0.0426 -1.2175  0.0955
 2608TIP3    H1 7763   2.812   1.827   1.070  0.1826 -1.0428 -1.1545
 2608TIP3    H2 7764   2.786   1.966   1.018 -1.2577 -1.1163 -0.6627
 2609TIP3   OH2 7765   5.368   1.458   3.552 -0.2686  0.4124  0.2695
 2609TIP3    H1 7766   5.420   1.482   3.476 -2.3519  0.4829 -1.1788
 2609TIP3    H2 7767   5.403   1.373   3.579  0.9846  0.7394 -0.2840
 2610TIP3   OH2 7768   2.277   0.538   3.235 -0.1191 -0.0128 -0.3204
 2610TIP3    H1 7769   2.221   0.607   3.201  0.7694  1.7083  1.6271
 2610TIP3    H2 7770   2.238   0.512   3.318  0.6623 -0.4333 -0.0720
 2611TIP3   OH2 7771   5.382   1.217   4.165  0.1470 -0.3630  0.5959
 2611TIP3    H1 7772   5.423   1.299   4.190  2.1682 -1.3394  0.5373
 2611TIP3    H2 7773   5.333   1.190   4.243  1.2744 -0.2076  1.3696
 2612TIP3   OH2 7774   4.336   1.251   5.823 -0.1746 -0.0859 -0.6025
 2612TIP3    H1 7775   4.387   1.331   5.810 -1.4945  0.7185 -0.9169
 2612TIP3    H2 7776   4.364   1.218   5.908  0.5691  0.5796 -0.5889
 2613TIP3   OH2 7777   5.078   1.272   1.254 -0.3742 -0.2903  0.1749
 2613TIP3    H1 7778   5.022   1.301   1.325 -0.6910  1.3964 -0.7332
 2613TIP3    H2 7779   5.151   1.227   1.297  0.1449  1.9098  1.6687
 2614TIP3   OH2 7780   3.481   4.321   1.491  0.3037  0.1953  0.3899
 2614TIP3    H1 7781   3.441   4.245   1.534  1.3129 -1.0868 -0.8945
 2614TIP3    H2 7782   3.518   4.372   1.563 -0.4704 -0.4601  1.2760
 2615TIP3   OH2 7783   3.092   2.997   1.322 -0.0936  0.0942  0.1978
 2615TIP3    H1 7784   3.006   3.040   1.322  1.2380  2.8260  0.1071
 2615TIP3    H2 7785   3.141   3.041   1.392  1.6973 -0.5048 -0.6569
 2616TIP3   OH2 7786   1.194   0.681   6.152 -0.1797  0.0820 -0.1838
 2616TIP3    H1 7787   1.209   0.696   6.245  0.8672 -0.6456 -0.2311
 2616TIP3    H2 7788   1.254   0.610   6.128  0.0568  0.7217 -1.5636
 2617TIP3   OH2 7789   3.144   2.605   5.577  0.0112  0.2749  0.5079
 2617TIP3    H1 7790   3.096   2.686   5.560  0.6653  0.7304  0.8288
 2617TIP3    H2 7791   3.237   2.629   5.567  0.2648 -0.1651  1.7452
 2618TIP3   OH2 7792   4.309   1.114   2.918  0.0462 -0.0304 -0.1828
 2618TIP3    H1 7793   4.291   1.055   2.845 -0.0812 -0.6773  0.3699
 2618TIP3    H2 7794   4.401   1.138   2.908 -0.5021  1.5803 -1.7868
 2619TIP3   OH2 7795   0.925   0.596   2.835 -0.2161  0.6038 -0.7316
 2619TIP3    H1 7796   0.895   0.532   2.769 -1.7277  1.3539 -0.7880
 2619TIP3    H2 7797   0.850   0.609   2.892 -0.1999  2.9449 -1.1892
 2620TIP3   OH2 7798   0.528   0.170   4.160 -0.1118 -0.2846  0.0470
 2620TIP3    H1 7799   0.613   0.135   4.135  0.4941 -0.6036  2.4463
 2620TIP3    H2 7800   0.535   0.264   4.145  0.9966 -0.1824  1.1505
 2621TIP3   OH2 7801   4.872   2.881   6.939 -0.4395 -0.3229  0.1195
 2621TIP3    H1 7802   4.960   2.917   6.944 -0.5542 -0.0234  0.0024
 2621TIP3    H2 7803   4.849   2.886   6.846 -0.5881 -0.3819  0.1514
 2622TIP3   OH2 7804   4.160   1.699   3.597  0.0877 -0.0953 -0.5031
 2622TIP3    H1 7805   4.162   1.633   3.527  1.5828 -1.2630  0.6017
 2622TIP3    H2 7806   4.233   1.675   3.654 -0.1019  1.8258  0.5736
 2623TIP3   OH2 7807   6.409   7.534   4.133 -0.2481 -0.4943  0.2173
 2623TIP3    H1 7808   6.326   7.534   4.086  0.2361  0.7258 -0.6687
 2623TIP3    H2 7809   6.473   7.563   4.068  0.8034 -0.9956  1.0099
 2624TIP3   OH2 7810   2.756   2.479   4.221 -0.2701 -0.5069  0.0019
 2624TIP3    H1 7811   2.725   2.472   4.131 -0.5340 -3.3021  0.2606
 2624TIP3    H2 7812   2.678   2.501   4.272 -0.2146  0.5983 -0.3825
 2625TIP3   OH2 7813   1.689   1.457   4.207  0.2923 -0.4468 -0.0769
 2625TIP3    H1 7814   1.782   1.447   4.187  0.1635  0.4329 -1.1992
 2625TIP3    H2 7815   1.646   1.457   4.121 -0.8524 -1.7761  0.4679
 2626TIP3   OH2 7816   8.374   7.853   5.381 -0.5993  0.1262  0.1904
 2626TIP3    H1 7817   8.377   7.789   5.310 -2.5160  1.4800 -1.1292
 2626TIP3    H2 7818   8.389   7.937   5.339  0.1167  0.7534  1.6693
 2627TIP3   OH2 7819   0.853   1.350   3.577 -0.0463  0.2540  0.3955
 2627TIP3    H1 7820   0.790   1.385   3.640 -0.0422 -1.0881  1.1615
 2627TIP3    H2 7821   0.802   1.290   3.523  0.1220  0.8004 -0.3732
 2628TIP3   OH2 7822   1.993   0.805   4.383 -0.2341  0.7972  0.0317
 2628TIP3    H1 7823   1.995   0.822   4.477 -1.4247  1.4718 -0.0407
 2628TIP3    H2 7824   1.996   0.892   4.343 -0.8616  0.5738 -0.5162
 2629TIP3   OH2 7825   3.681   2.182   5.446  0.2949  0.5889 -0.2184
 2629TIP3    H1 7826   3.648   2.169   5.357 -0.1155 -1.5185  0.2058
 2629TIP3    H2 7827   3.628   2.123   5.500  1.7188  0.5525  1.1619
 2630TIP3   OH2 7828   3.478   2.121   4.283 -0.2738  0.3457  0.1838
 2630TIP3    H1 7829   3.526   2.155   4.208  1.3532  1.3812  1.6529
 2630TIP3    H2 7830   3.532   2.048   4.315 -0.3507  0.6437  1.0180
 2631TIP3   OH2 7831   0.722   5.462   5.830  0.3311  0.2662 -0.3071
 2631TIP3    H1 7832   0.642   5.481   5.780 -0.2682  1.9342  1.2494
 2631TIP3    H2 7833   0.694   5.459   5.921  1.6546 -1.4553  0.0683
 2632TIP3   OH2 7834   2.092   2.053   5.874 -0.4217  0.4586 -0.1556
 2632TIP3    H1 7835   1.998   2.071   5.887 -0.5464  1.4512 -2.2635
 2632TIP3    H2 7836   2.095   1.960   5.851 -0.5661 -0.3376  2.8415
 2633TIP3   OH2 7837   2.395   1.508   2.694 -0.5773  0.3450  0.1794
 2633TIP3    H1 7838   2.489   1.502   2.673 -0.9619 -0.2356 -1.4678
 2633TIP3    H2 7839   2.391   1.563   2.772  1.2755 -1.0471  1.2968
 2634TIP3   OH2 7840   1.622   1.934   5.098  0.1038 -0.0876  0.7997
 2634TIP3    H1 7841   1.567   2.011   5.085  0.7757  0.2921  0.1423
 2634TIP3    H2 7842   1.654   1.941   5.188 -0.4573 -0.0084  0.9918
 2635TIP3   OH2 7843   4.627   2.989   2.532  0.5357 -0.4144  0.3727
 2635TIP3    H1 7844   4.563   3.014   2.465 -0.0582 -0.8918  0.7553
 2635TIP3    H2 7845   4.688   2.931   2.486 -0.8662 -2.1502  0.6456
 2636TIP3   OH2 7846   2.134   1.558   4.675 -0.3164  0.3837  0.0058
 2636TIP3    H1 7847   2.227   1.540   4.659 -0.2635  1.2209 -0.6695
 2636TIP3    H2 7848   2.104   1.485   4.729  0.1616 -1.0743 -1.6846
 2637TIP3   OH2 7849   3.998   2.076   3.541 -0.5754 -0.5676  0.0899
 2637TIP3    H1 7850   4.049   2.056   3.620 -0.4675 -1.0872 -0.1079
 2637TIP3    H2 7851   3.911   2.099   3.574 -0.4948 -0.6597  0.3713
 2638TIP3   OH2 7852   3.626   3.566   3.809 -0.3149 -0.3113  0.0196
 2638TIP3    H1 7853   3.687   3.630   3.773 -0.6782 -0.1480 -0.3144
 2638TIP3    H2 7854   3.613   3.503   3.737 -0.8763 -0.1047 -0.0652
 2639TIP3   OH2 7855   8.068   7.730   3.149 -0.3110 -0.2261 -0.2043
 2639TIP3    H1 7856   8.067   7.742   3.054  0.9319  0.7118 -0.1179
 2639TIP3    H2 7857   8.119   7.805   3.181 -0.1112 -0.9325  1.1365
 2640TIP3   OH2 7858   4.360   1.489   2.869  0.4484  0.4129  0.1700
 2640TIP3    H1 7859   4.350   1.579   2.839 -0.7651  0.3987  0.5037
 2640TIP3    H2 7860   4.281   1.444   2.838  0.5769 -0.2974  0.8463
 2641TIP3   OH2 7861   2.128   0.452   2.554  0.3220 -0.4894 -0.0477
 2641TIP3    H1 7862   2.108   0.359   2.557  0.7836 -0.6025 -0.4493
 2641TIP3    H2 7863   2.118   0.476   2.461  0.6691 -0.2440 -0.0233
 2642TIP3   OH2 7864   3.747   1.617   4.749 -0.0304  0.2055  0.4684
 2642TIP3    H1 7865   3.750   1.704   4.708  0.8696 -0.0835 -0.0857
 2642TIP3    H2 7866   3.835   1.582   4.737 -0.1614 -0.4581  1.4240
 2643TIP3   OH2 7867   4.762   6.100   3.288  0.3410 -0.7041  0.3970
 2643TIP3    H1 7868   4.744   6.094   3.381  0.7668 -0.9024  0.4650
 2643TIP3    H2 7869   4.797   6.188   3.275 -1.8601  0.1650  0.0638
 2644TIP3   OH2 7870   7.965   6.620   1.866 -0.2136  0.3344 -0.1941
 2644TIP3    H1 7871   8.051   6.578   1.876  0.1613  1.3980  1.1281
 2644TIP3    H2 7872   7.905   6.547   1.852  0.5766 -0.5801  1.0967
 2645TIP3   OH2 7873   2.335   1.975   3.676 -0.6070  0.2076 -0.1671
 2645TIP3    H1 7874   2.338   1.962   3.771 -0.9274 -0.6119 -0.2634
 2645TIP3    H2 7875   2.243   1.991   3.657 -0.6388 -0.2596 -0.4151
 2646TIP3   OH2 7876   3.309   0.832   1.371 -0.9312  0.4723 -0.7113
 2646TIP3    H1 7877   3.242   0.855   1.307 -1.2973 -0.6014 -0.7204
 2646TIP3    H2 7878   3.342   0.747   1.341  1.0940  1.4229 -1.2448
 2647TIP3   OH2 7879   2.203   1.996   4.989  0.6936 -0.7421  0.0256
 2647TIP3    H1 7880   2.119   1.959   5.017 -0.8331  2.5943  0.0438
 2647TIP3    H2 7881   2.241   1.928   4.933 -1.6233 -2.6598  0.6812
 2648TIP3   OH2 7882   8.206   0.909   5.507 -0.7266  0.3089  0.1530
 2648TIP3    H1 7883   8.196   0.890   5.414  0.7470  0.8499 -0.1252
 2648TIP3    H2 7884   8.219   1.003   5.512  1.0210  0.0681  0.7229
 2649TIP3   OH2 7885   3.455   1.388   2.466 -0.6358 -0.3444  0.0661
 2649TIP3    H1 7886   3.551   1.389   2.467 -0.6049  0.3026 -1.6276
 2649TIP3    H2 7887   3.431   1.324   2.532  0.9757 -0.5888  0.4338
 2650TIP3   OH2 7888   0.528   1.402   3.020  0.2674 -1.0994  0.2183
 2650TIP3    H1 7889   0.543   1.358   3.103 -3.0017 -0.6002  1.1388
 2650TIP3    H2 7890   0.474   1.340   2.970  2.0478 -1.3233 -1.5042
 2651TIP3   OH2 7891   4.606   3.908   5.348  0.6066 -0.0077 -0.2059
 2651TIP3    H1 7892   4.698   3.887   5.338  0.1934 -0.9181 -2.4251
 2651TIP3    H2 7893   4.565   3.876   5.267 -1.8641 -0.8437  1.3263
 2652TIP3   OH2 7894   5.406   7.114   5.257  0.0100  0.3000 -0.0749
 2652TIP3    H1 7895   5.473   7.183   5.254 -1.7424  2.2681  2.9072
 2652TIP3    H2 7896   5.420   7.071   5.342 -1.8059  0.0394  0.1002
 2653TIP3   OH2 7897   3.725   0.781   4.503  0.4667  0.2908  0.5383
 2653TIP3    H1 7898   3.677   0.699   4.498  2.2396 -0.8279  1.6197
 2653TIP3    H2 7899   3.757   0.796   4.414 -2.7566  1.6324 -0.4642
 2654TIP3   OH2 7900   3.375   1.556   3.498  0.6099  0.3927 -0.2313
 2654TIP3    H1 7901   3.352   1.616   3.569  0.5373  0.1571 -0.0508
 2654TIP3    H2 7902   3.363   1.469   3.537  0.4166  0.2610 -0.5835
 2655TIP3   OH2 7903   2.874   2.490   4.652 -0.0552 -0.1527  0.4950
 2655TIP3    H1 7904   2.784   2.461   4.666  0.9736 -3.6831  0.4243
 2655TIP3    H2 7905   2.891   2.470   4.560  1.0045 -0.1325  0.6808
 2656TIP3   OH2 7906   2.378   2.642   2.564 -0.0101 -0.5684  0.2351
 2656TIP3    H1 7907   2.372   2.612   2.474 -1.8891 -0.7765  0.4071
 2656TIP3    H2 7908   2.439   2.581   2.606 -1.4649 -2.3374 -0.1671
 2657TIP3   OH2 7909   4.236   2.877   2.215  0.1516 -0.0181 -0.0995
 2657TIP3    H1 7910   4.196   2.862   2.129 -0.1838 -0.9239  0.2064
 2657TIP3    H2 7911   4.226   2.970   2.231 -2.1897 -0.2989  0.1516
 2658TIP3   OH2 7912   4.846   2.774   4.514 -0.3357  0.2724 -0.4968
 2658TIP3    H1 7913   4.763   2.742   4.479 -0.6328  1.4269 -0.8703
 2658TIP3    H2 7914   4.821   2.847   4.570  0.5513  1.6062 -1.8151
 2659TIP3   OH2 7915   3.534   0.459   4.768  0.0390 -0.2533  0.5594
 2659TIP3    H1 7916   3.473   0.385   4.759 -1.7023  1.0599  1.2343
 2659TIP3    H2 7917   3.533   0.479   4.862  2.6458 -1.1250  0.7998
 2660TIP3   OH2 7918   4.406   2.800   1.768 -0.1116  0.1191 -0.1109
 2660TIP3    H1 7919   4.427   2.870   1.707 -2.8507  0.8772 -0.2755
 2660TIP3    H2 7920   4.423   2.719   1.719 -0.7858  0.7098 -1.3299
 2661TIP3   OH2 7921   5.504   3.196   4.563 -0.1635  0.3204  0.4180
 2661TIP3    H1 7922   5.425   3.213   4.613  0.1430 -1.0651  1.4111
 2661TIP3    H2 7923   5.575   3.222   4.622  0.2115 -1.6153  0.8655
 2662TIP3   OH2 7924   0.840   7.757   4.012 -0.6642 -0.0675 -0.0335
 2662TIP3    H1 7925   0.796   7.683   3.970  1.3608 -1.2554 -0.1692
 2662TIP3    H2 7926   0.917   7.773   3.957  0.6354  0.0525  1.7888
 2663TIP3   OH2 7927   4.577   3.236   1.939  0.2207  0.2798 -0.3083
 2663TIP3    H1 7928   4.620   3.153   1.918 -0.1434 -0.1054  0.4254
 2663TIP3    H2 7929   4.507   3.211   2.000  0.9337  1.2834  0.9474
 2664TIP3   OH2 7930   2.579   2.594   2.759  0.1698  0.0682  0.0227
 2664TIP3    H1 7931   2.643   2.581   2.829  1.4693 -1.3715 -1.3916
 2664TIP3    H2 7932   2.556   2.506   2.730 -0.1230  0.6335 -1.5524
 2665TIP3   OH2 7933   3.159   7.880   3.441 -0.1315 -0.1811  0.6288
 2665TIP3    H1 7934   3.102   7.805   3.428 -1.6775  1.0874 -0.2225
 2665TIP3    H2 7935   3.164   7.921   3.354  2.8188 -0.7718  0.4967
 2666TIP3   OH2 7936   4.204   3.152   2.246 -0.3090  0.3436 -0.3872
 2666TIP3    H1 7937   4.236   3.209   2.176  0.8157 -0.4398 -0.5223
 2666TIP3    H2 7938   4.135   3.203   2.289  0.8009  1.8754 -0.3847
 2667TIP3   OH2 7939   3.494   1.680   2.305 -0.4552 -0.0158 -0.3461
 2667TIP3    H1 7940   3.484   1.618   2.232 -2.9059  0.5192 -0.5081
 2667TIP3    H2 7941   3.432   1.649   2.371 -0.2410  1.1029  0.3930
 2668TIP3   OH2 7942   4.602   1.816   2.865 -0.0487 -0.3238 -0.0355
 2668TIP3    H1 7943   4.509   1.804   2.848  0.2029 -1.5304 -0.6232
 2668TIP3    H2 7944   4.646   1.755   2.806  1.0756 -0.5884  1.0394
 2669TIP3   OH2 7945   4.710   2.049   3.693 -0.0223  0.3088  0.2656
 2669TIP3    H1 7946   4.787   2.036   3.639  1.1143  0.9284  1.7136
 2669TIP3    H2 7947   4.706   2.143   3.708 -1.2827  0.3340 -0.0941
 2670TIP3   OH2 7948   4.367   3.452   2.493 -0.1647 -0.3462 -0.0971
 2670TIP3    H1 7949   4.357   3.425   2.401 -0.0602 -1.0403  0.0885
 2670TIP3    H2 7950   4.309   3.528   2.502 -0.9423 -0.8796 -0.4802
 2671TIP3   OH2 7951   1.986   7.239   2.893 -0.5672  0.4516  0.0857
 2671TIP3    H1 7952   1.929   7.217   2.819 -1.2766  0.9847  0.4665
 2671TIP3    H2 7953   1.969   7.170   2.958  1.6040 -1.2232 -1.0419
 2672TIP3   OH2 7954   8.379   7.123   4.327 -0.7355  0.3856 -0.4825
 2672TIP3    H1 7955   8.467   7.150   4.353 -1.4416  1.6323  0.6550
 2672TIP3    H2 7956   8.324   7.145   4.401 -1.9715 -0.7160 -1.0432
 2673TIP3   OH2 7957   3.610   2.238   1.909  0.3883  0.3937 -0.4861
 2673TIP3    H1 7958   3.700   2.233   1.939  0.5461  0.3645 -0.9524
 2673TIP3    H2 7959   3.614   2.209   1.818 -0.2304 -0.4886 -0.2426
 2674TIP3   OH2 7960   4.870   2.459   1.905 -0.2415  0.1061 -0.1420
 2674TIP3    H1 7961   4.899   2.369   1.917  0.0816  0.2318  0.0077
 2674TIP3    H2 7962   4.822   2.458   1.822  0.6053  0.0138 -0.6284
 2675TIP3   OH2 7963   4.721   2.143   3.073  0.3576 -0.1052  0.0263
 2675TIP3    H1 7964   4.767   2.219   3.108 -0.2124  0.5165 -0.5878
 2675TIP3    H2 7965   4.731   2.149   2.979 -2.2528  0.8503 -0.2232
 2676TIP3   OH2 7966   4.831   0.873   4.376  0.9157  0.2050  0.2246
 2676TIP3    H1 7967   4.802   0.782   4.370  1.5887 -0.0042  0.1421
 2676TIP3    H2 7968   4.924   0.867   4.397  0.8201  0.8766  0.8480
 2677TIP3   OH2 7969   3.029   3.593   4.755 -0.0006 -0.1824  0.3137
 2677TIP3    H1 7970   3.046   3.595   4.849  1.5288 -1.2176  0.0635
 2677TIP3    H2 7971   2.937   3.567   4.749 -0.0178 -0.4525  1.5094
 2678TIP3   OH2 7972   1.402   7.987   4.135 -0.3015  0.2202 -0.5825
 2678TIP3    H1 7973   1.487   7.994   4.180  0.0980  0.5854 -1.3820
 2678TIP3    H2 7974   1.339   7.973   4.205  0.5871 -1.3300 -0.0782
 2679TIP3   OH2 7975   5.819   3.914   2.515  0.6901  0.7217  0.0231
 2679TIP3    H1 7976   5.814   3.825   2.482 -2.4299  1.1895 -0.8841
 2679TIP3    H2 7977   5.905   3.945   2.487  0.3478 -0.7775 -2.8662
 2680TIP3   OH2 7978   4.767   1.899   5.040  0.2584 -0.0055 -0.0032
 2680TIP3    H1 7979   4.829   1.919   5.110  1.6067 -0.9927 -0.9065
 2680TIP3    H2 7980   4.697   1.849   5.083  2.1243 -2.4521  0.2642
 2681TIP3   OH2 7981   0.096   7.154   1.980  0.4121 -0.3337  0.3822
 2681TIP3    H1 7982   0.177   7.103   1.973  0.4945 -0.4406  1.8462
 2681TIP3    H2 7983   0.050   7.114   2.054 -0.2195  0.7757  0.5892
 2682TIP3   OH2 7984   5.444   3.165   3.264 -0.2590  0.3455  0.4754
 2682TIP3    H1 7985   5.506   3.214   3.317  0.6187  0.4477 -0.6431
 2682TIP3    H2 7986   5.413   3.095   3.322  0.5188  0.5912  1.1876
 2683TIP3   OH2 7987   3.894   3.675   1.448 -0.5189  0.2627 -0.0955
 2683TIP3    H1 7988   3.987   3.693   1.461  0.1396 -2.6649 -0.5208
 2683TIP3    H2 7989   3.884   3.674   1.352 -1.0011  0.6115 -0.0492
 2684TIP3   OH2 7990   6.476   4.980   1.799  0.3020 -0.7765  0.3901
 2684TIP3    H1 7991   6.487   4.955   1.707 -0.2854 -1.6828  0.5600
 2684TIP3    H2 7992   6.533   5.056   1.810  1.6003 -1.6332 -0.3089
 2685TIP3   OH2 7993   4.186   1.210   5.303  0.4094  0.6846  0.2987
 2685TIP3    H1 7994   4.253   1.142   5.311 -0.3888 -0.1246  0.0800
 2685TIP3    H2 7995   4.195   1.262   5.383 -0.2708 -0.8463  1.3775
 2686TIP3   OH2 7996   4.616   2.139   1.796 -0.8831 -0.1603 -0.3937
 2686TIP3    H1 7997   4.590   2.177   1.712 -1.7439 -1.1237 -0.5910
 2686TIP3    H2 7998   4.579   2.050   1.793 -0.0778 -0.5312  0.5970
 2687TIP3   OH2 7999   8.251   3.987   4.119 -0.1377 -0.0362 -0.9884
 2687TIP3    H1 8000   8.173   3.933   4.136 -0.6444  0.6856 -1.0139
 2687TIP3    H2 8001   8.270   4.028   4.204  0.8489 -1.0231 -0.7142
 2688TIP3   OH2 8002   3.790   1.389   1.946  0.0993 -0.3029  0.3867
 2688TIP3    H1 8003   3.786   1.458   2.012  3.8110  0.4557 -0.0421
 2688TIP3    H2 8004   3.813   1.434   1.865 -3.7581 -1.3007 -1.3921
 2689TIP3   OH2 8005   5.382   2.337   2.667  0.5244 -0.3630 -0.2116
 2689TIP3    H1 8006   5.366   2.431   2.666  0.6601 -0.3450 -1.2755
 2689TIP3    H2 8007   5.319   2.303   2.731  0.2946  0.4162 -0.0144
 2690TIP3   OH2 8008   4.454   3.506   1.665 -0.6285 -0.9087  0.2293
 2690TIP3    H1 8009   4.485   3.553   1.587 -0.6309  0.2945  0.9291
 2690TIP3    H2 8010   4.400   3.570   1.711 -0.5144 -1.5601  1.2849
 2691TIP3   OH2 8011   6.212   2.440   2.291  0.1457 -0.6203  0.6252
 2691TIP3    H1 8012   6.221   2.500   2.217 -0.2826  0.8579  1.7372
 2691TIP3    H2 8013   6.205   2.498   2.367 -0.9291 -2.0904  1.6531
 2692TIP3   OH2 8014   5.492   4.553   4.641  0.4764 -0.3595 -0.0804
 2692TIP3    H1 8015   5.585   4.567   4.621 -0.1831  1.8257 -1.9273
 2692TIP3    H2 8016   5.449   4.557   4.555 -1.3921 -0.6730  0.8257
 2693TIP3   OH2 8017   5.313   1.490   3.867  0.1191 -0.2200 -0.4136
 2693TIP3    H1 8018   5.258   1.518   3.940  0.5569  0.8527 -0.4896
 2693TIP3    H2 8019   5.251   1.451   3.805 -0.5227  0.6222 -0.3219
 2694TIP3   OH2 8020   6.922   1.231   6.722 -0.3341  0.0818  0.9433
 2694TIP3    H1 8021   6.838   1.205   6.686  0.1759 -2.9156  1.8456
 2694TIP3    H2 8022   6.906   1.242   6.816  0.1522  0.0152  1.0380
 2695TIP3   OH2 8023   4.438   0.539   1.950 -0.3018  0.1810  0.5326
 2695TIP3    H1 8024   4.406   0.628   1.965  0.3793  0.5770 -0.3433
 2695TIP3    H2 8025   4.422   0.523   1.857 -2.6153 -1.5028  1.1427
 2696TIP3   OH2 8026   4.571   1.448   3.018 -0.4890 -0.1189  0.2605
 2696TIP3    H1 8027   4.558   1.394   3.097 -1.1367 -0.4834 -0.0903
 2696TIP3    H2 8028   4.486   1.448   2.975  0.4958 -2.1054 -1.8087
 2697TIP3   OH2 8029   5.035   3.313   0.765  0.1151  0.1934  0.3164
 2697TIP3    H1 8030   5.051   3.378   0.696  0.9432  1.6786  1.8693
 2697TIP3    H2 8031   4.962   3.260   0.732 -0.1153  1.4823 -1.2809
 2698TIP3   OH2 8032   4.256   2.860   6.444  0.2877 -0.2231 -0.2687
 2698TIP3    H1 8033   4.167   2.830   6.463 -0.2982 -1.1601 -4.0015
 2698TIP3    H2 8034   4.312   2.791   6.478 -0.5458 -0.8910 -0.2139
 2699TIP3   OH2 8035   2.810   2.259   3.621 -0.2564  0.7438 -0.1899
 2699TIP3    H1 8036   2.835   2.168   3.604 -0.3987  0.6499  0.0913
 2699TIP3    H2 8037   2.823   2.269   3.716 -1.3611  0.6750 -0.0311
 2700TIP3   OH2 8038   1.318   7.944   3.430 -0.4610 -0.1357 -0.2025
 2700TIP3    H1 8039   1.393   7.900   3.390 -0.6183  1.7567 -2.7054
 2700TIP3    H2 8040   1.252   7.875   3.437  0.1149 -0.8800 -1.7936
 2701TIP3   OH2 8041   4.120   1.430   5.688  0.0770 -0.2617  0.0405
 2701TIP3    H1 8042   4.137   1.455   5.598 -0.9403  1.3629  0.2717
 2701TIP3    H2 8043   4.203   1.443   5.733  0.2325  0.2509 -0.3933
 2702TIP3   OH2 8044   2.919   1.677   4.549 -0.5016  0.2239  0.5551
 2702TIP3    H1 8045   2.946   1.674   4.641 -0.2201 -1.3403  0.4313
 2702TIP3    H2 8046   3.001   1.692   4.500 -0.2183 -1.8032  0.3723
 2703TIP3   OH2 8047   6.426   3.515   1.830  0.6296 -0.2670 -0.2110
 2703TIP3    H1 8048   6.435   3.587   1.893 -0.3022 -0.4385  0.1377
 2703TIP3    H2 8049   6.391   3.443   1.882 -2.3824  0.2858 -1.3645
 2704TIP3   OH2 8050   4.639   2.556   6.878  0.0946  0.3083  1.0443
 2704TIP3    H1 8051   4.561   2.504   6.859 -0.5913  2.2374 -1.6442
 2704TIP3    H2 8052   4.606   2.646   6.888  2.0215  1.2794 -0.8720
 2705TIP3   OH2 8053   6.057   3.884   2.352 -0.0480  0.6655 -0.2754
 2705TIP3    H1 8054   6.010   3.817   2.302 -2.3368  1.4346  0.8013
 2705TIP3    H2 8055   6.067   3.846   2.439 -0.3793  1.2811  0.0328
 2706TIP3   OH2 8056   7.742   7.129   1.283 -0.0386 -0.1905 -0.2478
 2706TIP3    H1 8057   7.737   7.222   1.304 -0.1702 -0.4228  0.7803
 2706TIP3    H2 8058   7.710   7.084   1.361  0.6597 -1.1180 -0.4698
 2707TIP3   OH2 8059   3.789   1.141   1.483  0.5423 -0.3672 -0.1104
 2707TIP3    H1 8060   3.762   1.220   1.436  1.5528 -0.4708 -0.8803
 2707TIP3    H2 8061   3.769   1.159   1.575  2.3470  1.4620 -0.0580
 2708TIP3   OH2 8062   4.655   2.469   3.587 -0.2735  0.1551  0.3793
 2708TIP3    H1 8063   4.561   2.456   3.574  0.0610 -1.7855 -0.2407
 2708TIP3    H2 8064   4.671   2.442   3.677 -0.2185 -0.0931  0.2964
 2709TIP3   OH2 8065   4.182   3.394   0.379 -0.1180  0.2858  0.2811
 2709TIP3    H1 8066   4.107   3.347   0.342 -0.1945  0.1812  0.5644
 2709TIP3    H2 8067   4.146   3.444   0.452 -0.1426  1.2791 -0.4144
 2710TIP3   OH2 8068   4.306   3.353   4.876 -0.6254  0.1188  0.6484
 2710TIP3    H1 8069   4.243   3.350   4.948 -1.5070 -0.6537 -0.1385
 2710TIP3    H2 8070   4.253   3.335   4.798  0.2101  1.5494 -0.2578
 2711TIP3   OH2 8071   2.482   2.305   2.981 -0.0144  0.6607  0.2920
 2711TIP3    H1 8072   2.492   2.333   2.890 -0.2910  2.5468  0.8312
 2711TIP3    H2 8073   2.407   2.245   2.979  0.2931  0.2978 -0.7898
 2712TIP3   OH2 8074   6.480   0.052   2.875 -0.2801 -0.4114 -0.3459
 2712TIP3    H1 8075   6.478  -0.009   2.949  3.3301 -1.6696 -1.2061
 2712TIP3    H2 8076   6.569   0.086   2.874 -0.5673  0.4195 -3.4791
 2713TIP3   OH2 8077   3.764   2.936   3.697 -0.1794  0.0896  0.3243
 2713TIP3    H1 8078   3.768   2.876   3.623  0.3596  1.7019 -0.9704
 2713TIP3    H2 8079   3.690   2.993   3.679 -0.4220  0.1081  1.3360
 2714TIP3   OH2 8080   4.561   1.380   0.893 -0.7403  0.7190 -0.2687
 2714TIP3    H1 8081   4.624   1.440   0.854 -2.5867  2.0071 -1.3244
 2714TIP3    H2 8082   4.606   1.295   0.893  1.5754  1.9016  0.4745
 2715TIP3   OH2 8083   4.475   3.042   4.590  0.3733  0.4639  0.2600
 2715TIP3    H1 8084   4.409   2.994   4.640  1.5029 -0.6635  0.6902
 2715TIP3    H2 8085   4.507   2.978   4.525 -0.1043  1.4938 -1.0169
 2716TIP3   OH2 8086   5.322   1.829   1.930  0.1162 -0.8251 -0.5569
 2716TIP3    H1 8087   5.269   1.829   2.010 -0.4476 -2.0084 -0.9245
 2716TIP3    H2 8088   5.312   1.741   1.895  1.1255 -0.5912 -1.4357
 2717TIP3   OH2 8089   4.873   2.025   5.576 -0.0522 -0.2334  0.4000
 2717TIP3    H1 8090   4.833   2.097   5.624 -2.0325 -0.5876 -0.6418
 2717TIP3    H2 8091   4.823   1.948   5.602 -0.4101 -0.6078 -1.3517
 2718TIP3   OH2 8092   4.542   2.935   4.985  0.1677  0.0396 -0.6953
 2718TIP3    H1 8093   4.474   2.906   4.923 -0.9803 -1.8425  1.3748
 2718TIP3    H2 8094   4.499   3.002   5.038  0.3532 -0.1880 -0.2604
 2719TIP3   OH2 8095   5.818   3.425   3.579  0.1883  0.5647 -0.3756
 2719TIP3    H1 8096   5.815   3.421   3.675  0.5474  0.6333 -0.3628
 2719TIP3    H2 8097   5.807   3.518   3.559  1.3073  0.7064 -0.3592
 2720TIP3   OH2 8098   5.219   1.597   3.180 -0.3086  0.1694 -0.5944
 2720TIP3    H1 8099   5.260   1.678   3.148  2.9453 -1.1662 -0.0730
 2720TIP3    H2 8100   5.220   1.539   3.105 -0.3841 -0.1781 -0.3273
 2721TIP3   OH2 8101   3.632   1.773   3.750 -0.1225  0.2529  0.1789
 2721TIP3    H1 8102   3.715   1.784   3.797 -0.3823  2.3056  0.2281
 2721TIP3    H2 8103   3.636   1.839   3.680 -1.6474  0.2806  0.1020
 2722TIP3   OH2 8104   5.138   2.605   1.852 -0.1106 -0.2757  0.2886
 2722TIP3    H1 8105   5.132   2.582   1.944 -0.3669 -0.2678  0.2733
 2722TIP3    H2 8106   5.052   2.584   1.816 -0.9352  2.3831  0.6480
 2723TIP3   OH2 8107   5.219   1.114   3.927 -0.6574  0.0977 -0.5192
 2723TIP3    H1 8108   5.137   1.083   3.964 -0.9295  1.1334 -0.2308
 2723TIP3    H2 8109   5.272   1.137   4.003 -0.7233  0.9961 -0.7444
 2724TIP3   OH2 8110   4.285   2.518   2.678  0.2756 -0.2002 -0.7382
 2724TIP3    H1 8111   4.310   2.445   2.735 -0.0662  0.9665  0.9607
 2724TIP3    H2 8112   4.190   2.510   2.669  0.1556  0.3560 -0.0558
 2725TIP3   OH2 8113   5.391   3.965   2.652  0.1822  0.1035  0.1714
 2725TIP3    H1 8114   5.305   3.939   2.619  0.2345 -0.8622  0.7607
 2725TIP3    H2 8115   5.402   3.914   2.733  1.5697 -0.2797 -0.2333
 2726TIP3   OH2 8116   3.759   1.265   2.934  0.4733  0.0635 -0.3832
 2726TIP3    H1 8117   3.705   1.270   3.013 -0.7569  0.5735 -1.2311
 2726TIP3    H2 8118   3.782   1.356   2.916  0.2623  0.0069 -0.9369
 2727TIP3   OH2 8119   3.688   1.192   4.640 -0.6016  0.0092  0.5025
 2727TIP3    H1 8120   3.772   1.186   4.686  0.6669 -0.0520 -1.7725
 2727TIP3    H2 8121   3.645   1.108   4.660  0.1864 -0.2678  1.0861
 2728TIP3   OH2 8122   4.058   2.452   3.971  0.9019  0.4580 -0.7208
 2728TIP3    H1 8123   4.134   2.456   3.913 -0.1749 -0.5236 -2.2648
 2728TIP3    H2 8124   3.990   2.502   3.925  0.6900  1.5659  0.7688
 2729TIP3   OH2 8125   4.333   0.983   4.650  0.8539  0.1766  0.0123
 2729TIP3    H1 8126   4.293   0.991   4.737  1.2156 -2.3330  0.4557
 2729TIP3    H2 8127   4.272   1.028   4.591 -1.7663 -2.0261  0.9293
 2730TIP3   OH2 8128   5.129   0.498   4.951 -0.9896 -0.1549  0.5453
 2730TIP3    H1 8129   5.169   0.411   4.955 -0.1369  0.2947  2.3768
 2730TIP3    H2 8130   5.035   0.482   4.959 -0.8821 -0.9324  0.2914
 2731TIP3   OH2 8131   5.172   3.131   3.550  0.0737  0.2904 -0.3321
 2731TIP3    H1 8132   5.185   3.216   3.593 -1.1429 -0.0149  0.6541
 2731TIP3    H2 8133   5.085   3.103   3.578 -0.8472  0.1898 -3.1785
 2732TIP3   OH2 8134   2.973   3.464   3.972  0.4006  0.2646 -0.0388
 2732TIP3    H1 8135   3.014   3.487   3.889  1.0417  1.6185  0.6391
 2732TIP3    H2 8136   3.011   3.380   3.995  2.2309  1.1274  0.1846
 2733TIP3   OH2 8137   5.383   2.274   5.902 -0.0957 -1.0642 -0.4535
 2733TIP3    H1 8138   5.421   2.352   5.862 -0.0499 -0.4485  0.7960
 2733TIP3    H2 8139   5.291   2.276   5.875 -0.0981 -0.5828 -0.4153
 2734TIP3   OH2 8140   5.366   1.782   5.605 -1.0396  0.3700 -0.1119
 2734TIP3    H1 8141   5.324   1.818   5.527 -0.9308 -1.2033 -0.9323
 2734TIP3    H2 8142   5.446   1.742   5.572 -0.1268  1.1984  1.0803
 2735TIP3   OH2 8143   4.837   1.769   3.015  0.2143  0.4932 -0.2201
 2735TIP3    H1 8144   4.769   1.816   2.967 -0.1920  0.4843  0.3376
 2735TIP3    H2 8145   4.791   1.694   3.053  0.9984 -0.7493 -1.6829
 2736TIP3   OH2 8146   2.961   0.701   3.346  0.0316  0.8182 -0.9868
 2736TIP3    H1 8147   3.032   0.750   3.305  0.1211  1.0976 -0.5045
 2736TIP3    H2 8148   2.954   0.620   3.294  0.5847  0.8657 -1.1383
 2737TIP3   OH2 8149   6.802   3.784   2.363  0.3886 -0.6393  0.0914
 2737TIP3    H1 8150   6.876   3.784   2.303  0.7598 -1.3560  0.5457
 2737TIP3    H2 8151   6.840   3.806   2.448 -0.2855  1.3980 -0.1038
 2738TIP3   OH2 8152   4.692   1.476   4.490 -0.5703  0.3319  0.6211
 2738TIP3    H1 8153   4.661   1.562   4.462 -1.2694 -0.0022  0.3539
 2738TIP3    H2 8154   4.735   1.492   4.574 -0.1046  1.0467  0.2540
 2739TIP3   OH2 8155   5.014   2.018   6.319  0.3884  0.4560 -0.7102
 2739TIP3    H1 8156   4.924   2.038   6.295  0.4746  0.8580 -0.7032
 2739TIP3    H2 8157   5.010   1.994   6.411  0.5467  2.2619 -0.2196
 2740TIP3   OH2 8158   5.887   2.342   3.840 -0.5636 -0.0412  0.0126
 2740TIP3    H1 8159   5.891   2.334   3.936 -1.9516 -1.6080 -0.0423
 2740TIP3    H2 8160   5.920   2.430   3.822  2.1177 -0.6387  1.7390
 2741TIP3   OH2 8161   4.968   1.764   2.585 -0.0053 -0.6929  0.0043
 2741TIP3    H1 8162   5.025   1.707   2.534  1.0006  0.0921  0.2298
 2741TIP3    H2 8163   4.968   1.725   2.673 -0.2046 -0.9566 -0.1096
 2742TIP3   OH2 8164   5.435   3.267   2.846 -0.2339 -0.1566 -0.2521
 2742TIP3    H1 8165   5.421   3.254   2.752  2.3857 -3.7209 -0.2883
 2742TIP3    H2 8166   5.448   3.178   2.880  1.9389  1.2819  2.9072
 2743TIP3   OH2 8167   3.875   4.007   3.897 -0.5614  0.0847 -0.3582
 2743TIP3    H1 8168   3.830   3.961   3.968  0.8435 -2.2674 -0.9456
 2743TIP3    H2 8169   3.862   3.952   3.820  0.6028  1.0118 -1.2452
 2744TIP3   OH2 8170   5.887   2.152   3.120  0.0911  0.1654  0.3927
 2744TIP3    H1 8171   5.915   2.225   3.175  0.6326 -0.1995  0.6048
 2744TIP3    H2 8172   5.831   2.099   3.176  0.2735  0.0384  0.4557
 2745TIP3   OH2 8173   5.061   2.593   3.650  0.9077  0.2202 -0.2059
 2745TIP3    H1 8174   5.048   2.499   3.639 -1.1177  0.3753  0.7585
 2745TIP3    H2 8175   5.131   2.601   3.714 -0.3339 -0.6481  1.2868
 2746TIP3   OH2 8176   3.802   3.105   2.632  0.2401 -0.2193  0.1434
 2746TIP3    H1 8177   3.792   3.120   2.538  1.5193 -1.7712 -0.2628
 2746TIP3    H2 8178   3.760   3.020   2.647  3.1292 -1.6961  0.2990
 2747TIP3   OH2 8179   1.497   7.858   5.248 -0.3741 -0.0569 -0.2155
 2747TIP3    H1 8180   1.498   7.894   5.159  1.5692  2.6440  0.8290
 2747TIP3    H2 8181   1.406   7.865   5.276 -0.3000  2.8172 -0.5841
 2748TIP3   OH2 8182   5.374   2.698   5.631 -0.9375  0.5422 -0.1818
 2748TIP3    H1 8183   5.341   2.754   5.701 -1.0485 -0.0238  0.2267
 2748TIP3    H2 8184   5.401   2.758   5.562 -2.4908  1.0494 -0.3727
 2749TIP3   OH2 8185   5.133   3.355   4.411  0.6695 -0.0966  0.6073
 2749TIP3    H1 8186   5.046   3.316   4.401  1.2214 -0.7169 -2.2025
 2749TIP3    H2 8187   5.123   3.444   4.378  1.3303 -0.4823 -0.6333
 2750TIP3   OH2 8188   6.689   3.453   3.544  0.6528  0.3529  0.3639
 2750TIP3    H1 8189   6.626   3.449   3.616  0.6298  1.2957  0.4095
 2750TIP3    H2 8190   6.775   3.450   3.586  0.6390  0.1173  0.3745
 2751TIP3   OH2 8191   3.542   1.869   4.006 -0.1566 -0.0243 -0.1537
 2751TIP3    H1 8192   3.552   1.846   3.913 -0.0478  1.1675 -0.4511
 2751TIP3    H2 8193   3.599   1.945   4.018  1.0827 -1.1680  1.2923
 2752TIP3   OH2 8194   3.497   2.870   4.845 -0.1047  0.3190  0.4582
 2752TIP3    H1 8195   3.475   2.945   4.900  0.5997  0.6687  0.2662
 2752TIP3    H2 8196   3.492   2.795   4.904 -1.5113  0.4299  0.4850
 2753TIP3   OH2 8197   3.609   3.677   5.211 -0.4909  0.1775  0.5484
 2753TIP3    H1 8198   3.517   3.705   5.213 -0.9234 -1.1045 -0.6234
 2753TIP3    H2 8199   3.644   3.716   5.131 -0.7073 -1.3788 -0.3288
 2754TIP3   OH2 8200   4.184   3.422   1.005  0.0823 -0.5445  0.5245
 2754TIP3    H1 8201   4.106   3.402   0.954 -0.0797  2.8559 -0.6765
 2754TIP3    H2 8202   4.155   3.421   1.096 -1.0616 -0.5320  0.1602
 2755TIP3   OH2 8203   3.309   2.925   3.148  0.1278 -0.0135 -0.6162
 2755TIP3    H1 8204   3.224   2.883   3.155  0.3840 -0.5533 -0.7043
 2755TIP3    H2 8205   3.372   2.854   3.159  0.5700  0.4726  0.0366
 2756TIP3   OH2 8206   6.677   3.067   1.867 -0.2530  0.4611 -0.2042
 2756TIP3    H1 8207   6.667   3.123   1.790 -0.6866 -0.3586 -0.7457
 2756TIP3    H2 8208   6.687   3.129   1.940  2.4559  1.2335 -1.1770
 2757TIP3   OH2 8209   4.749   2.388   2.881 -0.3050  0.3414 -0.2761
 2757TIP3    H1 8210   4.703   2.310   2.851 -0.3258 -0.3379  1.4809
 2757TIP3    H2 8211   4.682   2.439   2.926 -0.0648  0.9133 -0.5607
 2758TIP3   OH2 8212   3.515   0.400   2.467 -0.0571 -0.5218 -0.2258
 2758TIP3    H1 8213   3.500   0.488   2.432  2.4475  0.0914  0.1939
 2758TIP3    H2 8214   3.566   0.414   2.547 -1.3866 -2.2441  0.9821
 2759TIP3   OH2 8215   3.418   2.827   3.851  0.7019 -0.0580 -0.1109
 2759TIP3    H1 8216   3.356   2.818   3.778 -0.0294  0.9274  0.3711
 2759TIP3    H2 8217   3.446   2.737   3.870 -1.4039 -0.6695  0.3466
 2760TIP3   OH2 8218   3.603   2.345   3.919  0.2481  0.7215 -0.0678
 2760TIP3    H1 8219   3.673   2.370   3.980  1.7281 -0.9763 -1.0354
 2760TIP3    H2 8220   3.648   2.310   3.843 -1.6599 -0.2435 -0.7949
 2761TIP3   OH2 8221   2.374   2.285   3.590 -0.5073 -0.3365  0.2285
 2761TIP3    H1 8222   2.284   2.291   3.556  0.0712  0.0392 -1.2806
 2761TIP3    H2 8223   2.420   2.232   3.525  0.3413 -0.6142  1.0590
 2762TIP3   OH2 8224   3.687   4.705   2.737 -0.4973 -0.0797  0.1154
 2762TIP3    H1 8225   3.782   4.711   2.736 -0.2881 -2.7664  0.3280
 2762TIP3    H2 8226   3.659   4.778   2.793  1.5400 -0.2563  1.4283
 2763TIP3   OH2 8227   3.706   3.001   4.002 -0.0444 -0.0353 -0.5299
 2763TIP3    H1 8228   3.759   3.014   4.081  0.7152  1.7190 -1.3019
 2763TIP3    H2 8229   3.620   3.039   4.024  0.1832  0.5005 -0.5449
 2764TIP3   OH2 8230   4.177   2.977   1.605 -0.4059  0.0841  0.1797
 2764TIP3    H1 8231   4.155   3.017   1.689  1.2611  2.0957 -0.2759
 2764TIP3    H2 8232   4.273   2.970   1.606 -0.5188 -1.8674 -0.6993
 2765TIP3   OH2 8233   3.071   1.210   6.303  0.5058 -0.1073  0.2823
 2765TIP3    H1 8234   3.107   1.134   6.350  0.0408 -0.2309  0.4391
 2765TIP3    H2 8235   3.119   1.212   6.220  1.5225  0.2748  0.8813
 2766TIP3   OH2 8236   5.948   2.369   3.276 -0.4327  0.7930  0.2301
 2766TIP3    H1 8237   5.903   2.365   3.361 -0.9774 -1.9962 -0.1500
 2766TIP3    H2 8238   6.040   2.354   3.297 -0.3901  1.3727  0.4628
 2767TIP3   OH2 8239   5.024   0.785   3.315  0.1626 -0.1516  0.0711
 2767TIP3    H1 8240   5.083   0.843   3.363  1.0498 -0.4137 -0.6928
 2767TIP3    H2 8241   4.959   0.844   3.277  0.0876  0.1668  0.6839
 2768TIP3   OH2 8242   2.857   0.147   4.512 -0.1362  0.0960 -0.2916
 2768TIP3    H1 8243   2.819   0.107   4.589  1.1694  0.2017  0.4276
 2768TIP3    H2 8244   2.843   0.083   4.442  2.0990 -1.7550  0.8804
 2769TIP3   OH2 8245   4.156   3.105   4.188  0.2443 -0.0689 -0.0479
 2769TIP3    H1 8246   4.189   3.160   4.258  1.7181  1.0294 -1.5667
 2769TIP3    H2 8247   4.230   3.049   4.164 -0.3977 -0.7886 -0.3986
 2770TIP3   OH2 8248   5.041   0.191   4.089 -0.1462  0.4765 -0.0711
 2770TIP3    H1 8249   4.964   0.191   4.145 -0.4274  0.2312 -0.4601
 2770TIP3    H2 8250   5.113   0.215   4.148 -0.2142 -1.1773  0.7075
 2771TIP3   OH2 8251   2.255   4.322   3.053 -0.2605 -0.3798  0.2608
 2771TIP3    H1 8252   2.159   4.321   3.049 -0.3124  1.2570  0.8162
 2771TIP3    H2 8253   2.279   4.230   3.064 -1.7450 -0.8514 -0.2333
 2772TIP3   OH2 8254   4.436   0.623   4.263  0.2209 -0.0895 -0.3407
 2772TIP3    H1 8255   4.520   0.637   4.221  0.3741  0.9394  0.2987
 2772TIP3    H2 8256   4.430   0.691   4.330 -0.0380 -1.6335  1.2695
 2773TIP3   OH2 8257   5.244   2.606   3.881 -0.0577 -0.4758 -1.4855
 2773TIP3    H1 8258   5.262   2.678   3.821  3.2594  0.5651  0.6348
 2773TIP3    H2 8259   5.169   2.636   3.933 -1.0971 -0.1872 -3.1127
 2774TIP3   OH2 8260   3.126   3.288   2.915  0.1356  0.3462 -0.1112
 2774TIP3    H1 8261   3.167   3.316   2.832 -0.2561 -0.1901 -0.4887
 2774TIP3    H2 8262   3.118   3.368   2.965 -3.7973  1.4951 -2.3862
 2775TIP3   OH2 8263   2.801   2.907   4.135  0.4113  0.3407 -0.2450
 2775TIP3    H1 8264   2.857   2.854   4.193 -0.3126  1.0785  1.1625
 2775TIP3    H2 8265   2.861   2.946   4.072  1.1381 -0.9985 -0.4028
 2776TIP3   OH2 8266   3.594   2.603   1.001  0.3461 -0.4422  0.3127
 2776TIP3    H1 8267   3.500   2.598   0.984  0.3712 -0.7571  0.2635
 2776TIP3    H2 8268   3.620   2.687   0.965 -0.1650  0.2502  1.5210
 2777TIP3   OH2 8269   4.969   3.726   3.618 -0.2662 -0.1439 -0.2811
 2777TIP3    H1 8270   5.006   3.741   3.706 -0.0832 -1.6209 -0.0923
 2777TIP3    H2 8271   4.917   3.647   3.627 -0.0171 -0.4646 -1.5820
 2778TIP3   OH2 8272   2.753   2.042   3.961 -0.3119  0.0175  0.0196
 2778TIP3    H1 8273   2.747   2.060   4.055  1.0953 -0.8850  0.2838
 2778TIP3    H2 8274   2.661   2.038   3.932 -0.7411  2.0235  0.9950
 2779TIP3   OH2 8275   2.843   1.403   3.915  0.1790  0.6465 -0.0262
 2779TIP3    H1 8276   2.875   1.316   3.941 -0.9808  0.3241  0.3373
 2779TIP3    H2 8277   2.911   1.463   3.946  0.8963 -0.1020 -0.1036
 2780TIP3   OH2 8278   2.052   3.163   4.994  0.0108  0.0106  0.3222
 2780TIP3    H1 8279   2.045   3.253   4.960 -0.0785  0.2148  0.8717
 2780TIP3    H2 8280   2.035   3.172   5.088 -1.0550 -0.7311  0.2048
 2781TIP3   OH2 8281   4.616   3.908   3.780  0.1033  0.9477 -0.1629
 2781TIP3    H1 8282   4.576   3.829   3.744 -1.4010  1.2584  0.8192
 2781TIP3    H2 8283   4.576   3.980   3.732  0.4948  1.1920 -0.1287
 2782TIP3   OH2 8284   5.448   2.638   3.057  0.5411 -0.4468 -0.1615
 2782TIP3    H1 8285   5.525   2.651   3.001  2.0335 -1.6778  1.5239
 2782TIP3    H2 8286   5.455   2.705   3.124  0.2467 -0.6666  0.0926
 2783TIP3   OH2 8287   5.783   3.629   5.727  0.7801 -0.3874  0.1436
 2783TIP3    H1 8288   5.859   3.676   5.762  1.7550 -1.6987 -0.1713
 2783TIP3    H2 8289   5.821   3.560   5.672 -0.6370 -1.3121  0.3088
 2784TIP3   OH2 8290   4.510   2.978   1.239  0.1422 -0.5210  0.1711
 2784TIP3    H1 8291   4.574   2.925   1.191 -0.7437 -1.5066  0.0896
 2784TIP3    H2 8292   4.448   3.007   1.172 -0.8832 -1.5890  0.6464
 2785TIP3   OH2 8293   4.502   1.861   6.271 -0.3178 -0.1639 -0.2729
 2785TIP3    H1 8294   4.453   1.846   6.191 -0.1534 -1.5242 -0.1353
 2785TIP3    H2 8295   4.439   1.898   6.333 -1.1806 -1.8879 -0.0988
 2786TIP3   OH2 8296   3.561   0.255   3.328 -0.6071 -0.7987  0.4153
 2786TIP3    H1 8297   3.650   0.288   3.342 -0.7281 -0.8168  1.2876
 2786TIP3    H2 8298   3.570   0.188   3.261 -0.0605 -0.3424  0.0337
 2787TIP3   OH2 8299   6.193   1.576   5.223 -0.4641 -0.0116 -0.2146
 2787TIP3    H1 8300   6.104   1.580   5.189 -0.2785 -1.8967 -0.9611
 2787TIP3    H2 8301   6.246   1.621   5.158 -0.6291 -0.3879 -0.6072
 2788TIP3   OH2 8302   4.583   2.966   1.983  0.3957  0.3444  0.0724
 2788TIP3    H1 8303   4.497   2.994   2.013 -0.8260 -0.8916 -2.1187
 2788TIP3    H2 8304   4.568   2.880   1.943  2.5666  0.2716 -0.6787
 2789TIP3   OH2 8305   5.559   1.550   6.187 -0.6065  0.6894  0.2120
 2789TIP3    H1 8306   5.512   1.627   6.220  0.9650  1.0651  1.6513
 2789TIP3    H2 8307   5.598   1.579   6.105  2.3886  2.4009  2.1452
 2790TIP3   OH2 8308   3.717   2.312   5.826  0.0669  0.1970 -0.0047
 2790TIP3    H1 8309   3.721   2.248   5.897  2.2728  1.0892  0.7174
 2790TIP3    H2 8310   3.796   2.295   5.774 -0.6259  0.7100 -1.2609
 2791TIP3   OH2 8311   5.294   2.992   2.353 -0.1795 -0.0926  0.1372
 2791TIP3    H1 8312   5.314   2.902   2.328  0.0482 -0.0512  0.1725
 2791TIP3    H2 8313   5.244   3.027   2.279  0.8253  0.1477 -0.4334
 2792TIP3   OH2 8314   4.692   1.701   3.424 -0.1531  0.0690  0.2846
 2792TIP3    H1 8315   4.779   1.726   3.392 -0.7717 -0.1143 -1.6141
 2792TIP3    H2 8316   4.644   1.783   3.431 -0.0210  0.1081  0.7239
 2793TIP3   OH2 8317   4.044   0.343   1.295 -0.3722  0.1547 -0.3298
 2793TIP3    H1 8318   4.095   0.375   1.369 -0.3984 -1.6845  0.5151
 2793TIP3    H2 8319   3.959   0.387   1.303 -0.3056  0.1152  0.6164
 2794TIP3   OH2 8320   5.554   3.638   3.879 -0.4219 -0.0885 -0.7260
 2794TIP3    H1 8321   5.481   3.592   3.920 -0.3097 -0.4890 -0.9782
 2794TIP3    H2 8322   5.535   3.731   3.893 -0.2692 -0.2229  0.4330
 2795TIP3   OH2 8323   6.850   0.233   1.487 -0.4025  0.5104 -1.0344
 2795TIP3    H1 8324   6.846   0.209   1.580 -1.3762 -1.0157 -1.4564
 2795TIP3    H2 8325   6.799   0.166   1.442 -2.0031  2.6069 -2.4316
 2796TIP3   OH2 8326   8.029   4.660   6.181  0.2871 -0.1155  0.2012
 2796TIP3    H1 8327   7.968   4.661   6.107  0.4430  0.8861  0.0791
 2796TIP3    H2 8328   8.115   4.669   6.141  0.3381  0.9236  0.5266
 2797TIP3   OH2 8329   4.552   1.565   6.079 -0.2441  0.3137 -0.5356
 2797TIP3    H1 8330   4.509   1.651   6.076  2.3439  1.6042 -2.9070
 2797TIP3    H2 8331   4.636   1.579   6.036  0.4967 -3.3014 -0.4005
 2798TIP3   OH2 8332   1.468   2.035   4.538  0.0590  0.6156  0.1780
 2798TIP3    H1 8333   1.399   2.032   4.604  0.4534  2.9640  0.7532
 2798TIP3    H2 8334   1.423   2.056   4.456 -0.1471  0.0496  0.1438
 2799TIP3   OH2 8335   4.975   2.841   2.642  0.2380  0.2119 -0.1035
 2799TIP3    H1 8336   5.034   2.782   2.689  0.1100  0.1659 -0.0012
 2799TIP3    H2 8337   4.946   2.904   2.707  0.1059  0.1832 -0.1348
 2800TIP3   OH2 8338   7.471   2.573   2.637 -0.0443  1.1132  0.1952
 2800TIP3    H1 8339   7.456   2.625   2.558  0.4051  1.9276  0.6340
 2800TIP3    H2 8340   7.563   2.588   2.658  0.1361 -0.0004  0.2452
 2801TIP3   OH2 8341   4.672   2.745   5.310 -0.4042 -0.0079 -0.7804
 2801TIP3    H1 8342   4.591   2.796   5.305 -0.8343 -0.4554  1.0733
 2801TIP3    H2 8343   4.643   2.656   5.328  0.4647 -0.3891 -1.2234
 2802TIP3   OH2 8344   3.333   1.632   3.749  0.4754  0.0215  0.1525
 2802TIP3    H1 8345   3.377   1.714   3.770 -1.7161  1.3333 -0.1524
 2802TIP3    H2 8346   3.318   1.590   3.834  3.0930 -0.9204  0.2010
 2803TIP3   OH2 8347   5.746   3.437   3.849 -0.4196 -0.5748 -0.6844
 2803TIP3    H1 8348   5.703   3.522   3.860  0.6184  0.0914 -1.7206
 2803TIP3    H2 8349   5.807   3.431   3.923  1.0666  0.5482 -1.8006
 2804TIP3   OH2 8350   5.139   1.270   4.621 -0.0427 -0.2860  0.1673
 2804TIP3    H1 8351   5.134   1.188   4.670  2.0690  0.4233  1.6088
 2804TIP3    H2 8352   5.158   1.242   4.531 -0.5053 -1.4240  0.4130
 2805TIP3   OH2 8353   2.191   0.054   1.153 -0.9336  0.6060 -0.0442
 2805TIP3    H1 8354   2.281   0.076   1.132  0.0618  0.7749  3.9885
 2805TIP3    H2 8355   2.171  -0.022   1.098  1.0301  1.6199 -2.2519
 2806TIP3   OH2 8356   5.220   0.821   5.549 -0.2003 -0.5424 -0.3864
 2806TIP3    H1 8357   5.144   0.814   5.492  0.0604  0.1499 -0.8235
 2806TIP3    H2 8358   5.282   0.757   5.514 -0.7529 -1.4560  0.2646
 2807TIP3   OH2 8359   4.929   1.988   3.196 -0.2322 -0.0536  0.3587
 2807TIP3    H1 8360   4.927   1.902   3.154  0.1269 -0.5021  1.2321
 2807TIP3    H2 8361   4.856   2.036   3.157 -0.3725 -0.7259 -0.2088
 2808TIP3   OH2 8362   5.000   0.379   3.871  0.7537 -0.3638 -0.3236
 2808TIP3    H1 8363   5.066   0.316   3.898  1.5007  0.5281 -0.0224
 2808TIP3    H2 8364   5.037   0.464   3.896 -1.1542  0.0524  1.2222
 2809TIP3   OH2 8365   3.074   1.527   3.668  0.1906 -0.6330 -0.1371
 2809TIP3    H1 8366   3.125   1.587   3.722  0.1241  0.3057 -1.1097
 2809TIP3    H2 8367   3.108   1.440   3.692  0.4183 -0.2107  1.1276
 2810TIP3   OH2 8368   4.374   3.816   0.323 -0.1398 -0.6350 -0.6502
 2810TIP3    H1 8369   4.333   3.740   0.281 -0.9849 -1.1321  1.0432
 2810TIP3    H2 8370   4.464   3.816   0.290  0.2164 -3.0916  0.2459
 2811TIP3   OH2 8371   2.113   1.311   4.484  0.3886  0.0291 -0.1127
 2811TIP3    H1 8372   2.069   1.395   4.499  0.2168  0.0966 -0.9708
 2811TIP3    H2 8373   2.196   1.318   4.530  0.1445  0.4732  0.2577
 2812TIP3   OH2 8374   4.490   3.764   2.426  0.2192  0.1872  0.3203
 2812TIP3    H1 8375   4.516   3.794   2.339 -2.0579  1.6624  0.0840
 2812TIP3    H2 8376   4.556   3.700   2.451  0.5971 -0.6637 -2.7324
 2813TIP3   OH2 8377   5.744   3.753   2.102 -0.1010 -0.2686  0.4511
 2813TIP3    H1 8378   5.688   3.829   2.085 -2.4152 -2.2695 -1.3875
 2813TIP3    H2 8379   5.730   3.696   2.026  4.6572 -0.7950 -0.1383
 2814TIP3   OH2 8380   3.995   3.406   2.585  0.1319  0.7137 -0.1174
 2814TIP3    H1 8381   4.005   3.442   2.673 -0.5368 -1.5648  0.9150
 2814TIP3    H2 8382   3.918   3.450   2.549 -1.6521 -0.8468  1.7340
 2815TIP3   OH2 8383   4.283   3.169   4.421  0.0070 -0.7272  0.2013
 2815TIP3    H1 8384   4.255   3.213   4.501 -0.7936 -1.1704  0.1620
 2815TIP3    H2 8385   4.368   3.130   4.444  0.3521  0.1634  0.4711
 2816TIP3   OH2 8386   5.651   2.652   2.896 -0.5597 -0.5432 -0.3620
 2816TIP3    H1 8387   5.691   2.565   2.904  3.4907  1.1555 -0.8082
 2816TIP3    H2 8388   5.651   2.669   2.802  0.2874  0.6448 -0.1515
 2817TIP3   OH2 8389   5.107   1.566   2.482 -0.1479 -0.7334 -0.6585
 2817TIP3    H1 8390   5.106   1.498   2.549  0.8438 -0.0872  0.0313
 2817TIP3    H2 8391   5.089   1.520   2.400  1.9251 -2.0468 -0.3993
 2818TIP3   OH2 8392   3.973   1.637   2.028 -0.0447 -0.3578 -0.0245
 2818TIP3    H1 8393   3.954   1.638   1.935  1.0556  1.5734 -0.2547
 2818TIP3    H2 8394   4.054   1.587   2.036 -0.4621 -1.0371 -0.0333
 2819TIP3   OH2 8395   3.755   1.496   5.175 -0.4299 -0.3848  0.3746
 2819TIP3    H1 8396   3.729   1.575   5.126 -1.7595 -0.8719  0.2854
 2819TIP3    H2 8397   3.770   1.430   5.107 -1.3166 -0.7815  0.5560
 2820TIP3   OH2 8398   7.421   2.256   1.359 -0.1324 -0.1443  0.5435
 2820TIP3    H1 8399   7.486   2.324   1.374  0.7589 -0.9202  0.2585
 2820TIP3    H2 8400   7.379   2.243   1.444  0.3588  0.0838  0.8199
 2821TIP3   OH2 8401   1.386   7.815   3.048 -0.5779 -0.3048 -0.3563
 2821TIP3    H1 8402   1.398   7.799   2.955  0.1780 -0.1834 -0.2782
 2821TIP3    H2 8403   1.313   7.878   3.052 -0.9974 -0.7548 -0.8316
 2822TIP3   OH2 8404   6.074   2.800   3.750  0.3057  0.0646  0.1073
 2822TIP3    H1 8405   6.132   2.858   3.701 -0.7085  0.7493 -0.3128
 2822TIP3    H2 8406   6.021   2.859   3.803 -1.4641 -0.3810 -1.1107
 2823TIP3   OH2 8407   4.933   0.931   5.213  0.7784  0.1851 -0.6506
 2823TIP3    H1 8408   4.923   1.021   5.183  0.9401 -0.0127 -1.3123
 2823TIP3    H2 8409   4.911   0.878   5.136 -0.0511 -0.3464 -0.0481
 2824TIP3   OH2 8410   5.144   1.205   3.689 -0.4273  0.3939  0.2284
 2824TIP3    H1 8411   5.219   1.184   3.633 -2.1410 -2.7631 -1.0210
 2824TIP3    H2 8412   5.164   1.162   3.772 -0.6178 -0.0853  0.0324
 2825TIP3   OH2 8413   3.680   1.872   1.832  0.5657 -0.3656  0.4469
 2825TIP3    H1 8414   3.774   1.862   1.848  0.4994 -2.4467 -0.3178
 2825TIP3    H2 8415   3.639   1.852   1.916  0.8294  1.4461  1.0280
 2826TIP3   OH2 8416   3.068   7.631   0.552  0.4847 -0.7213  0.7029
 2826TIP3    H1 8417   3.153   7.593   0.531  0.3946 -0.8731  0.6049
 2826TIP3    H2 8418   3.067   7.715   0.505  1.0599 -0.1586  1.6859
 2827TIP3   OH2 8419   4.254   1.407   3.509  0.5368 -0.1250  0.2699
 2827TIP3    H1 8420   4.337   1.394   3.556  0.6365 -0.3301  0.0441
 2827TIP3    H2 8421   4.255   1.339   3.441 -0.6027 -1.2587  1.3467
 2828TIP3   OH2 8422   3.717   0.905   1.882  0.2267 -0.0903  0.2033
 2828TIP3    H1 8423   3.763   0.905   1.966 -0.8768  0.7044  0.8221
 2828TIP3    H2 8424   3.756   0.977   1.833  2.1178 -1.6841 -0.6798
 2829TIP3   OH2 8425   6.505   1.551   1.408 -0.5617 -0.2247  0.3116
 2829TIP3    H1 8426   6.462   1.575   1.490 -1.5469 -0.7154 -0.0377
 2829TIP3    H2 8427   6.432   1.535   1.347  0.1103 -1.4127 -0.2051
 2830TIP3   OH2 8428   3.811   2.470   3.534  0.0029  0.5767 -0.2200
 2830TIP3    H1 8429   3.827   2.394   3.590 -0.7401  0.0810 -0.6800
 2830TIP3    H2 8430   3.749   2.440   3.469  1.4408  0.9413 -1.8030
 2831TIP3   OH2 8431   4.489   1.661   3.207 -0.5724 -0.1968 -0.1563
 2831TIP3    H1 8432   4.533   1.603   3.145 -0.1629  0.3409 -0.3659
 2831TIP3    H2 8433   4.542   1.655   3.287 -1.4755 -1.4196  0.3899
 2832TIP3   OH2 8434   0.625   6.716   2.684  0.5692  0.6054  0.0877
 2832TIP3    H1 8435   0.573   6.796   2.693 -2.3610 -0.9132 -2.7537
 2832TIP3    H2 8436   0.571   6.648   2.724  1.0717 -0.7300 -1.4949
 2833TIP3   OH2 8437   4.883   0.140   3.064 -0.8270 -0.3871  0.0862
 2833TIP3    H1 8438   4.862   0.078   2.994  0.9414 -0.5011 -0.3677
 2833TIP3    H2 8439   4.963   0.183   3.034 -1.0634  0.8593  1.2145
 2834TIP3   OH2 8440   3.260   1.498   3.999  0.1797  0.5259  0.2155
 2834TIP3    H1 8441   3.310   1.500   4.080  0.8728  0.3770 -0.2007
 2834TIP3    H2 8442   3.176   1.537   4.021 -1.7306 -4.3359  2.4493
 2835TIP3   OH2 8443   3.758   0.999   3.789 -0.2986 -0.4994  0.0793
 2835TIP3    H1 8444   3.679   1.051   3.770 -0.7559 -0.1702  2.6880
 2835TIP3    H2 8445   3.750   0.922   3.732 -0.7670  1.1679 -2.1686
 2836TIP3   OH2 8446   3.162   1.833   2.331 -0.4282  0.3150 -0.1389
 2836TIP3    H1 8447   3.228   1.873   2.274 -0.2557  0.1141 -0.0814
 2836TIP3    H2 8448   3.198   1.746   2.351 -0.1585  0.6487  0.8546
 2837TIP3   OH2 8449   3.853   1.912   3.853 -0.5056  0.1443 -0.8027
 2837TIP3    H1 8450   3.855   2.004   3.882  1.7010  0.1761 -1.0072
 2837TIP3    H2 8451   3.916   1.908   3.782  0.6455 -1.8984  0.3076
 2838TIP3   OH2 8452   2.632   2.370   3.215 -0.2151 -0.5705  0.1907
 2838TIP3    H1 8453   2.662   2.459   3.194  0.0595 -0.7436 -0.1639
 2838TIP3    H2 8454   2.586   2.341   3.136 -1.2230 -0.3512  0.6893
 2839TIP3   OH2 8455   1.624   0.117   5.445 -0.2362  0.5040 -0.7710
 2839TIP3    H1 8456   1.538   0.110   5.405 -1.0746  0.4540  0.9945
 2839TIP3    H2 8457   1.683   0.071   5.385 -1.7817 -1.3028 -0.9423
 2840TIP3   OH2 8458   2.063   3.507   1.689 -0.0985 -0.0101 -0.4596
 2840TIP3    H1 8459   2.143   3.500   1.740 -0.2660 -1.5910 -0.3892
 2840TIP3    H2 8460   2.030   3.418   1.684 -2.1036  0.6869 -0.1073
 2841TIP3   OH2 8461   3.622   2.611   3.648 -0.3908  0.2643  0.1574
 2841TIP3    H1 8462   3.688   2.546   3.625  0.8524  0.7423  2.2373
 2841TIP3    H2 8463   3.658   2.694   3.616  1.1366  0.8645  3.2286
 2842TIP3   OH2 8464   2.786   2.547   2.933 -0.4307 -0.4178 -0.0975
 2842TIP3    H1 8465   2.825   2.571   3.017  2.2911  0.2195 -1.4931
 2842TIP3    H2 8466   2.795   2.452   2.928 -0.4382 -0.4361  0.2282
 2843TIP3   OH2 8467   3.078   7.348   3.243  0.3832 -0.0794 -0.8505
 2843TIP3    H1 8468   3.077   7.432   3.196  1.0703 -0.8907 -2.3564
 2843TIP3    H2 8469   2.987   7.321   3.247  0.1530  0.7774 -0.3056
 2844TIP3   OH2 8470   3.506   2.582   4.506  0.5571  0.8318  1.2827
 2844TIP3    H1 8471   3.412   2.598   4.513  0.1594 -1.0688  0.3984
 2844TIP3    H2 8472   3.530   2.542   4.589 -0.0614 -1.7497  0.2432
 2845TIP3   OH2 8473   3.442   5.185   2.475  0.3128 -0.5995  0.0677
 2845TIP3    H1 8474   3.532   5.172   2.446  0.5595 -0.6271  0.8440
 2845TIP3    H2 8475   3.416   5.100   2.512 -0.5255 -1.0303 -1.4796
 2846TIP3   OH2 8476   6.138   5.380   3.063  0.9154  0.2962 -0.0503
 2846TIP3    H1 8477   6.219   5.391   3.112  0.7984  0.6200  0.0687
 2846TIP3    H2 8478   6.157   5.418   2.977  0.7807  0.6796  0.0889
 2847TIP3   OH2 8479   4.360   2.167   3.476  0.1071  0.3386  0.0838
 2847TIP3    H1 8480   4.273   2.169   3.438 -0.2361  0.8378  0.8730
 2847TIP3    H2 8481   4.414   2.121   3.412 -0.8478 -0.4299 -0.1720
 2848TIP3   OH2 8482   5.106   2.550   2.119 -0.6284  0.0059  0.3287
 2848TIP3    H1 8483   5.142   2.497   2.190 -0.6921 -0.8004 -0.2288
 2848TIP3    H2 8484   5.011   2.541   2.129 -0.6344 -1.5415 -0.8942
 2849TIP3   OH2 8485   5.820   4.356   2.771  0.0650  0.7280  0.2992
 2849TIP3    H1 8486   5.862   4.280   2.810  1.0400  0.8501 -0.5036
 2849TIP3    H2 8487   5.875   4.430   2.797 -0.9923  1.1990  1.2550
 2850TIP3   OH2 8488   3.479   3.098   4.330 -0.1063 -0.2110  0.1691
 2850TIP3    H1 8489   3.475   3.005   4.350  0.6817 -0.3187 -0.1354
 2850TIP3    H2 8490   3.471   3.102   4.235  1.4447 -0.0868  0.0340
 2851TIP3   OH2 8491   4.040   3.360   1.271 -0.5171  0.0397 -0.3947
 2851TIP3    H1 8492   3.974   3.308   1.225  1.1513 -1.1955 -1.4157
 2851TIP3    H2 8493   4.062   3.307   1.348 -0.7309  0.4805 -0.0254
 2852TIP3   OH2 8494   5.395   0.523   4.103  0.1456  0.2867 -0.0910
 2852TIP3    H1 8495   5.450   0.592   4.141 -0.9779  0.9787  0.2797
 2852TIP3    H2 8496   5.442   0.496   4.024  0.7106  1.2957 -0.1037
 2853TIP3   OH2 8497   4.635   0.851   2.303 -0.0594 -0.4644  0.0572
 2853TIP3    H1 8498   4.641   0.802   2.384  2.1482  0.0307  0.2279
 2853TIP3    H2 8499   4.668   0.791   2.236 -1.3310 -0.6727 -0.3865
 2854TIP3   OH2 8500   4.236   3.633   2.025 -0.2638  0.0128  0.0960
 2854TIP3    H1 8501   4.282   3.656   1.943 -4.5813  1.0867 -2.1890
 2854TIP3    H2 8502   4.221   3.718   2.067 -0.3270 -0.3041  0.7017
 2855TIP3   OH2 8503   5.204   1.807   2.831 -0.3864  0.4372  0.1554
 2855TIP3    H1 8504   5.210   1.852   2.916 -1.5151  0.8574  0.0223
 2855TIP3    H2 8505   5.122   1.758   2.836 -1.0568  1.4040 -1.1448
 2856TIP3   OH2 8506   2.232   4.691   1.767  0.1911  0.2692 -0.0920
 2856TIP3    H1 8507   2.310   4.681   1.822  0.6804  3.7623 -0.0102
 2856TIP3    H2 8508   2.261   4.668   1.679  1.5093  2.0313 -0.1476
 2857TIP3   OH2 8509   2.703   0.969   2.469  0.5936  0.3179  0.0761
 2857TIP3    H1 8510   2.756   1.048   2.478  1.1868 -0.1946  1.1020
 2857TIP3    H2 8511   2.613   0.998   2.486  0.8503  0.7067  0.7638
 2858TIP3   OH2 8512   5.266   1.788   2.200  0.6283 -0.3969  0.1522
 2858TIP3    H1 8513   5.241   1.823   2.286 -1.0787 -0.7906 -0.1740
 2858TIP3    H2 8514   5.308   1.704   2.219  0.8985 -0.1534  0.6444
 2859TIP3   OH2 8515   7.289   2.499   1.887 -0.0218 -0.1151  0.2941
 2859TIP3    H1 8516   7.223   2.568   1.897  0.0384  0.4203 -2.6435
 2859TIP3    H2 8517   7.254   2.425   1.937 -3.3846 -0.1980 -2.0145
 2860TIP3   OH2 8518   3.610   2.512   3.045  0.1084  0.0336 -0.5395
 2860TIP3    H1 8519   3.630   2.447   3.112  1.2363  1.1751  0.2556
 2860TIP3    H2 8520   3.622   2.466   2.962 -2.4711 -1.7269  0.0283
 2861TIP3   OH2 8521   4.832   1.508   3.121  0.4532  0.3612 -0.1935
 2861TIP3    H1 8522   4.893   1.477   3.054 -0.2821 -0.7489 -0.3635
 2861TIP3    H2 8523   4.745   1.485   3.087  0.0670 -0.2612  1.1618
 2862TIP3   OH2 8524   7.193   5.297   1.623  0.3973  0.4177 -0.0174
 2862TIP3    H1 8525   7.112   5.289   1.674 -0.7462 -0.7208 -1.9929
 2862TIP3    H2 8526   7.167   5.284   1.533  2.5998  1.3526 -0.8376
 2863TIP3   OH2 8527   3.039   1.964   3.072 -0.0784  0.0884 -0.9450
 2863TIP3    H1 8528   3.081   2.001   2.994 -1.9264 -0.4979 -2.2378
 2863TIP3    H2 8529   2.990   2.037   3.110  1.5579  0.6133  0.2181
 2864TIP3   OH2 8530   3.540   6.015   1.671  0.5771 -0.1650  0.0972
 2864TIP3    H1 8531   3.503   5.928   1.656 -0.2989  0.0840  0.8347
 2864TIP3    H2 8532   3.476   6.076   1.634  0.0411  0.2828  1.7511
 2865TIP3   OH2 8533   4.196   2.129   4.014 -0.7627  0.8936 -0.1174
 2865TIP3    H1 8534   4.104   2.158   4.013 -1.1868 -0.3659 -2.7893
 2865TIP3    H2 8535   4.235   2.173   3.939  0.0261 -0.8978 -0.7944
 2866TIP3   OH2 8536   3.354   2.468   5.269 -0.1416 -0.3892  0.2510
 2866TIP3    H1 8537   3.260   2.481   5.259  0.0089 -0.8470 -1.9144
 2866TIP3    H2 8538   3.376   2.399   5.207  1.7865  0.3780  0.0372
 2867TIP3   OH2 8539   4.039   1.012   2.687  0.0047 -0.4824 -0.1868
 2867TIP3    H1 8540   4.124   1.021   2.644 -0.1411 -1.1556 -0.6324
 2867TIP3    H2 8541   4.006   0.927   2.658 -1.2277  0.1680 -0.7675
 2868TIP3   OH2 8542   5.249   0.684   4.788 -0.2428 -0.4378  0.2520
 2868TIP3    H1 8543   5.163   0.645   4.802 -1.2073  1.5883  0.1000
 2868TIP3    H2 8544   5.275   0.717   4.874  0.5990 -1.3976  0.3895
 2869TIP3   OH2 8545   5.325   0.079   4.581 -0.2505  0.4970  0.5794
 2869TIP3    H1 8546   5.333   0.037   4.495 -1.4976  2.4593 -0.5133
 2869TIP3    H2 8547   5.391   0.034   4.635 -0.1275 -1.4372 -1.1069
 2870TIP3   OH2 8548   6.091   2.352   1.657 -0.1051  0.3506 -0.1801
 2870TIP3    H1 8549   6.096   2.439   1.696 -0.2735  0.4576 -0.4014
 2870TIP3    H2 8550   6.182   2.328   1.639  0.1466 -0.4149  1.8768
 2871TIP3   OH2 8551   5.886   4.673   1.254 -1.0495 -0.0271 -0.2276
 2871TIP3    H1 8552   5.895   4.578   1.253  1.2209  0.1734 -1.3079
 2871TIP3    H2 8553   5.932   4.701   1.334 -1.5009  0.1784 -0.0390
 2872TIP3   OH2 8554   6.421   1.052   3.407  0.2828 -0.4344  0.3415
 2872TIP3    H1 8555   6.475   1.036   3.484 -0.6208  0.2385  1.1365
 2872TIP3    H2 8556   6.479   1.036   3.333  2.0451  1.8450  1.1668
 2873TIP3   OH2 8557   6.973   3.854   1.689 -0.0241 -0.2201  0.1616
 2873TIP3    H1 8558   6.972   3.823   1.599  2.0236  0.1894 -0.0179
 2873TIP3    H2 8559   6.964   3.775   1.742 -0.0615 -0.5715 -0.3640
 2874TIP3   OH2 8560   6.615   0.951   2.794  0.1383  0.8036 -0.1326
 2874TIP3    H1 8561   6.687   0.975   2.852 -0.2044  1.6217 -0.0466
 2874TIP3    H2 8562   6.622   1.012   2.720 -0.9812  1.4435  0.2794
 2875TIP3   OH2 8563   3.232   2.716   2.932  0.2133  0.0802  0.0295
 2875TIP3    H1 8564   3.137   2.712   2.921  0.1289  1.3234  0.3357
 2875TIP3    H2 8565   3.245   2.754   3.018  1.0217  2.8331 -1.2732
 2876TIP3   OH2 8566   4.966   2.230   2.043  0.2762 -0.1049 -0.7844
 2876TIP3    H1 8567   4.932   2.309   2.086 -2.3325 -0.4643 -2.0851
 2876TIP3    H2 8568   4.997   2.174   2.114  0.4188  1.2939  0.2621
 2877TIP3   OH2 8569   4.914   0.052   6.950  0.0167 -0.1932 -0.1089
 2877TIP3    H1 8570   4.995   0.022   6.991 -1.0599 -1.2510  1.3252
 2877TIP3    H2 8571   4.913   0.011   6.864 -0.0714 -2.0211  0.7398
 2878TIP3   OH2 8572   6.124   3.670   1.255  0.1116  0.1217  0.6052
 2878TIP3    H1 8573   6.190   3.739   1.266  0.1034  0.2817 -0.3176
 2878TIP3    H2 8574   6.156   3.617   1.182  0.9252 -1.8076  2.2930
 2879TIP3   OH2 8575   7.122   4.428   1.735  0.1644 -0.7098 -0.5776
 2879TIP3    H1 8576   7.199   4.418   1.792  0.1161 -0.0998 -0.4094
 2879TIP3    H2 8577   7.137   4.509   1.687 -2.6652  2.2046  3.0704
 2880TIP3   OH2 8578   7.470   1.763   1.621  0.8581 -0.1021 -0.6476
 2880TIP3    H1 8579   7.497   1.757   1.529  0.6964  0.1890 -0.7150
 2880TIP3    H2 8580   7.552   1.760   1.670  0.9964  0.5307 -0.8425
 2881TIP3   OH2 8581   5.079   3.780   2.288  0.0206 -0.5748  0.3432
 2881TIP3    H1 8582   5.021   3.710   2.258 -0.3417 -0.0155 -0.2770
 2881TIP3    H2 8583   5.125   3.809   2.210 -0.3019  0.3108  0.4666
 2882TIP3   OH2 8584   7.781   1.580   3.742 -0.9500  0.5698 -0.0486
 2882TIP3    H1 8585   7.830   1.566   3.661 -0.1434 -1.9450  0.8455
 2882TIP3    H2 8586   7.847   1.607   3.806 -0.9832 -1.0203  0.6833
 2883TIP3   OH2 8587   4.433   2.700   2.235  0.2074 -0.2325  0.1575
 2883TIP3    H1 8588   4.398   2.622   2.277  1.3716 -0.5562  0.5409
 2883TIP3    H2 8589   4.359   2.761   2.232 -0.1463 -0.5688  1.7628
 2884TIP3   OH2 8590   6.484   2.216   3.503  0.4984  0.0333 -0.5770
 2884TIP3    H1 8591   6.465   2.287   3.564  2.3718 -0.0976  0.1963
 2884TIP3    H2 8592   6.406   2.161   3.505 -1.0127  2.0863 -1.2467
 2885TIP3   OH2 8593   6.999   2.012   0.756 -0.1290 -0.1218 -0.0017
 2885TIP3    H1 8594   6.971   1.920   0.749 -1.6149  0.2734  0.6346
 2885TIP3    H2 8595   7.036   2.032   0.669  1.5741 -1.7363  0.3093
 2886TIP3   OH2 8596   6.512   2.416   2.920  0.0332  0.2809  0.2202
 2886TIP3    H1 8597   6.566   2.465   2.858  0.3204 -0.5414 -0.1833
 2886TIP3    H2 8598   6.429   2.463   2.921  0.2236  0.6449 -0.3366
 2887TIP3   OH2 8599   4.474   1.880   3.463  0.8823 -0.3887  0.1516
 2887TIP3    H1 8600   4.455   1.796   3.505  2.2186  0.3762  2.3823
 2887TIP3    H2 8601   4.444   1.945   3.526  0.7170  0.8202 -1.1543
 2888TIP3   OH2 8602   6.470   2.280   2.291  0.3248 -0.3927 -0.0793
 2888TIP3    H1 8603   6.452   2.188   2.308  0.1824 -0.3344  0.0892
 2888TIP3    H2 8604   6.387   2.324   2.309  0.2684 -0.2860 -0.5958
 2889TIP3   OH2 8605   6.721   0.068   3.161 -1.1821  0.2272 -0.1526
 2889TIP3    H1 8606   6.709   0.126   3.086  0.6966  0.2310 -0.4503
 2889TIP3    H2 8607   6.810   0.035   3.152 -0.8243  0.4788  2.2501
 2890TIP3   OH2 8608   6.835   2.817   4.000 -0.1686  0.1226 -0.2984
 2890TIP3    H1 8609   6.787   2.741   4.034 -1.3239  1.4142  1.0455
 2890TIP3    H2 8610   6.767   2.884   3.987  0.9138  1.1235 -0.8837
 2891TIP3   OH2 8611   5.712   1.880   2.540 -0.0029 -0.0254  0.5602
 2891TIP3    H1 8612   5.745   1.969   2.533 -1.9894  0.7725  1.1258
 2891TIP3    H2 8613   5.733   1.853   2.630  1.9954 -0.7296 -0.0843
 2892TIP3   OH2 8614   3.509   3.639   2.901 -0.3292 -0.1958 -0.1384
 2892TIP3    H1 8615   3.524   3.635   2.806 -1.1511 -0.7414 -0.2467
 2892TIP3    H2 8616   3.493   3.549   2.927 -2.5721  0.2391  0.1002
 2893TIP3   OH2 8617   7.235   4.229   1.016  0.4429 -0.2191 -0.3453
 2893TIP3    H1 8618   7.179   4.302   1.042  1.0872  0.4007 -0.6549
 2893TIP3    H2 8619   7.186   4.151   1.040 -0.3921  0.3157 -0.2891
 2894TIP3   OH2 8620   5.567   0.345   2.015 -0.4856  0.0649 -0.2187
 2894TIP3    H1 8621   5.645   0.363   1.963 -1.3466 -0.7061 -1.8249
 2894TIP3    H2 8622   5.547   0.253   1.996 -2.0419  0.3860 -0.1846
 2895TIP3   OH2 8623   6.866   2.741   3.649  0.5512 -0.1638 -0.0935
 2895TIP3    H1 8624   6.914   2.803   3.703 -0.1933 -0.4565  0.9299
 2895TIP3    H2 8625   6.893   2.655   3.681 -1.2359 -0.3270  1.0490
 2896TIP3   OH2 8626   6.264   5.139   1.897  0.4181  0.3511  0.0286
 2896TIP3    H1 8627   6.323   5.071   1.865 -0.8462 -0.7308 -0.0636
 2896TIP3    H2 8628   6.202   5.092   1.953 -0.3608  1.4554  0.1025
 2897TIP3   OH2 8629   8.506   1.556   0.607 -0.2149 -0.0459  0.5023
 2897TIP3    H1 8630   8.455   1.477   0.586 -1.5868  0.6020  1.3373
 2897TIP3    H2 8631   8.468   1.588   0.688 -0.2520  1.9872 -0.3027
 2898TIP3   OH2 8632   7.994   1.805   1.093 -0.1245 -0.2690  0.2790
 2898TIP3    H1 8633   7.992   1.900   1.095  2.2323 -0.1722 -0.6758
 2898TIP3    H2 8634   8.000   1.783   1.000 -0.7624 -1.3754  0.4810
 2899TIP3   OH2 8635   7.656   1.041   2.303  0.2342 -0.4709 -0.1143
 2899TIP3    H1 8636   7.627   1.127   2.271  0.4791 -0.6063 -0.6947
 2899TIP3    H2 8637   7.718   1.011   2.237  2.2717  0.1461  1.4617
 2900TIP3   OH2 8638   1.923   6.264   5.737  0.2584  0.2517 -0.0105
 2900TIP3    H1 8639   1.851   6.202   5.727  1.0776 -0.9189  1.1769
 2900TIP3    H2 8640   1.989   6.216   5.787  0.9087  2.0899  0.9360
 2901TIP3   OH2 8641   7.712   0.157   2.020 -0.8133 -0.0140  0.0105
 2901TIP3    H1 8642   7.728   0.063   2.011  0.2802  0.0319  1.2415
 2901TIP3    H2 8643   7.696   0.187   1.931 -0.0061 -1.1792 -0.5494
 2902TIP3   OH2 8644   7.963   3.008   1.793 -0.7676 -0.0684 -0.2199
 2902TIP3    H1 8645   7.898   2.944   1.763  0.4824 -1.8258  0.7610
 2902TIP3    H2 8646   8.042   2.988   1.742 -0.8435  1.8044 -1.1282
 2903TIP3   OH2 8647   5.211   2.905   1.597  0.3991 -0.6592  0.5195
 2903TIP3    H1 8648   5.264   2.879   1.672 -0.8551 -2.1711  0.9089
 2903TIP3    H2 8649   5.253   2.862   1.522  1.1977  0.2260  0.4441
 2904TIP3   OH2 8650   5.826   2.365   0.310 -0.2464 -0.4115 -0.1748
 2904TIP3    H1 8651   5.819   2.271   0.327  0.7822 -0.6207 -0.8841
 2904TIP3    H2 8652   5.909   2.390   0.350 -1.8680  0.7984  2.6058
 2905TIP3   OH2 8653   5.742   2.944   1.777  0.1607 -0.0508 -0.2897
 2905TIP3    H1 8654   5.683   2.953   1.852 -0.4158 -1.2336 -0.5877
 2905TIP3    H2 8655   5.735   3.027   1.731 -0.6215  0.1359  0.1496
 2906TIP3   OH2 8656   3.864   2.167   1.980  0.8046 -0.0994 -0.7039
 2906TIP3    H1 8657   3.935   2.158   1.916  0.7731 -1.5359 -0.5661
 2906TIP3    H2 8658   3.838   2.077   1.998 -1.1880  0.4310 -0.8865
 2907TIP3   OH2 8659   5.987   1.667   2.698  0.1989 -0.1878 -0.2131
 2907TIP3    H1 8660   5.936   1.737   2.740  3.1813  1.9341  0.0630
 2907TIP3    H2 8661   5.994   1.599   2.765  0.4425  0.9011  0.8869
 2908TIP3   OH2 8662   4.965   2.150   4.011 -0.0927  0.5217  0.0219
 2908TIP3    H1 8663   4.928   2.239   4.007 -0.5358  0.3026 -0.8097
 2908TIP3    H2 8664   4.888   2.093   4.007  0.0440  0.1185  2.4931
 2909TIP3   OH2 8665   7.788   3.068   1.117 -0.0482 -0.0606 -0.2984
 2909TIP3    H1 8666   7.851   2.998   1.135  1.1148  1.0286 -0.0663
 2909TIP3    H2 8667   7.715   3.024   1.073  0.4299 -1.5026  0.3256
 2910TIP3   OH2 8668   7.003   1.925   3.717 -0.1217  0.3772 -0.4060
 2910TIP3    H1 8669   7.011   1.830   3.714 -2.7279  0.0435  1.8433
 2910TIP3    H2 8670   6.940   1.947   3.649 -1.4880  0.2227  0.7950
 2911TIP3   OH2 8671   7.130   1.585   3.289 -0.2500 -0.2998 -0.4402
 2911TIP3    H1 8672   7.128   1.637   3.208 -0.6105  0.8685  0.3140
 2911TIP3    H2 8673   7.216   1.602   3.326 -1.0069  1.1579  0.6986
 2912TIP3   OH2 8674   4.886   3.835   5.334  0.0138 -0.6762 -0.9321
 2912TIP3    H1 8675   4.877   3.747   5.371 -0.8588 -0.9314 -1.7370
 2912TIP3    H2 8676   4.977   3.860   5.352  0.7943 -2.4475 -2.2571
 2913TIP3   OH2 8677   8.292   0.028   2.663  0.4022  0.3810 -0.6049
 2913TIP3    H1 8678   8.265  -0.027   2.737  2.1973  0.6087  0.2267
 2913TIP3    H2 8679   8.209   0.056   2.624 -0.6063  0.7907  1.7161
 2914TIP3   OH2 8680   6.357   3.061   3.327 -0.5750 -0.0736 -0.5928
 2914TIP3    H1 8681   6.373   2.969   3.347  1.9012  0.4102 -0.1244
 2914TIP3    H2 8682   6.328   3.099   3.410  0.8558  0.0623 -0.1389
 2915TIP3   OH2 8683   5.946   2.236   1.887 -0.0984 -0.4603  0.1195
 2915TIP3    H1 8684   5.977   2.157   1.842 -0.2128 -0.3789 -0.1069
 2915TIP3    H2 8685   6.021   2.264   1.940  0.2084 -0.2899 -0.3899
 2916TIP3   OH2 8686   3.940   2.541   5.619 -0.2969 -0.1513 -0.4087
 2916TIP3    H1 8687   3.967   2.572   5.706  0.3535  0.1309 -0.7060
 2916TIP3    H2 8688   3.885   2.612   5.585 -3.9048 -1.9614  1.3734
 2917TIP3   OH2 8689   3.390   3.919   2.507 -0.1594  0.8261 -0.6024
 2917TIP3    H1 8690   3.391   3.966   2.591 -0.3728  2.1212 -1.3029
 2917TIP3    H2 8691   3.423   3.984   2.444 -4.3636  1.4152 -2.3134
 2918TIP3   OH2 8692   0.894   1.960   2.077  0.5084 -0.3598 -0.5506
 2918TIP3    H1 8693   0.815   1.969   2.023  0.8501 -0.0081 -0.9946
 2918TIP3    H2 8694   0.884   2.028   2.144 -0.3359 -1.3618  0.3693
 2919TIP3   OH2 8695   5.405   1.927   4.139 -0.2315 -0.5267  0.6382
 2919TIP3    H1 8696   5.340   1.948   4.071 -0.4129 -0.4726  0.8278
 2919TIP3    H2 8697   5.353   1.916   4.219  0.0386 -0.0145  0.8867
 2920TIP3   OH2 8698   0.096   2.692   1.726 -0.8893  0.9104 -0.3148
 2920TIP3    H1 8699   0.180   2.661   1.759 -1.4606 -0.0102  0.3086
 2920TIP3    H2 8700   0.118   2.760   1.662  0.3133  0.7789 -0.0456
 2921TIP3   OH2 8701   8.218   3.122   0.996 -0.1543  0.2552 -0.3003
 2921TIP3    H1 8702   8.132   3.164   0.998 -0.0118  0.5190  1.2201
 2921TIP3    H2 8703   8.265   3.166   0.925 -0.9132  0.8425 -0.4421
 2922TIP3   OH2 8704   7.469   2.445   0.977  0.1619  0.0168  0.0672
 2922TIP3    H1 8705   7.491   2.435   0.885 -0.4223 -0.3961 -0.0305
 2922TIP3    H2 8706   7.453   2.539   0.988 -0.9403 -0.0968 -0.5149
 2923TIP3   OH2 8707   5.983   3.492   2.479 -0.4833  0.0746  0.1590
 2923TIP3    H1 8708   5.948   3.470   2.565  1.2571  0.6029  1.0341
 2923TIP3    H2 8709   5.906   3.511   2.426 -1.6258 -1.0642  1.3673
 2924TIP3   OH2 8710   0.086   0.912   2.853  0.5995 -0.2829  0.5084
 2924TIP3    H1 8711  -0.001   0.929   2.817  0.4710 -2.3929 -0.2246
 2924TIP3    H2 8712   0.078   0.829   2.899  2.6049 -1.3775 -1.0128
 2925TIP3   OH2 8713   5.561   7.944   4.408  0.5688 -0.0330 -0.0659
 2925TIP3    H1 8714   5.574   7.992   4.490 -1.1519  1.4542 -0.6254
 2925TIP3    H2 8715   5.602   7.999   4.341 -0.8042  0.3598 -0.6144
 2926TIP3   OH2 8716   2.359   7.722   3.001  0.3010  0.6561 -0.2838
 2926TIP3    H1 8717   2.311   7.702   2.921  0.6051  2.5714 -0.9830
 2926TIP3    H2 8718   2.366   7.818   3.002 -0.7847  0.7807  2.6779
 2927TIP3   OH2 8719   8.258   0.398   4.152  0.3695  0.3186 -0.2493
 2927TIP3    H1 8720   8.170   0.435   4.162  1.0582  1.8819  0.0890
 2927TIP3    H2 8721   8.298   0.409   4.238  0.4908 -1.5380 -0.0379
 2928TIP3   OH2 8722   7.445   4.063   3.917 -0.8565  0.0651  0.9044
 2928TIP3    H1 8723   7.539   4.066   3.900 -0.7565  0.3426  1.5054
 2928TIP3    H2 8724   7.430   3.979   3.959 -1.0362 -0.4227 -0.1184
 2929TIP3   OH2 8725   7.100   2.940   1.115  0.4840 -0.3317 -0.3078
 2929TIP3    H1 8726   7.105   2.895   1.199 -0.0575  0.8493  0.3566
 2929TIP3    H2 8727   7.031   3.006   1.126 -0.2812 -0.8110 -1.9780
 2930TIP3   OH2 8728   5.361   1.380   2.529  0.1014 -0.3194 -0.0863
 2930TIP3    H1 8729   5.382   1.473   2.540 -0.6929  0.0623 -1.6324
 2930TIP3    H2 8730   5.272   1.372   2.561 -0.3334 -0.2515 -1.2423
 2931TIP3   OH2 8731   4.299   3.407   2.748 -0.4420  0.4693 -0.2956
 2931TIP3    H1 8732   4.329   3.389   2.660 -0.3353 -0.2416 -0.1139
 2931TIP3    H2 8733   4.212   3.446   2.736  0.4601  2.3786 -0.8079
 2932TIP3   OH2 8734   7.156   2.284   0.618 -0.2643  0.5067  0.4802
 2932TIP3    H1 8735   7.135   2.339   0.543 -1.2973  0.9988  1.1303
 2932TIP3    H2 8736   7.251   2.272   0.613 -0.4741 -0.4580 -1.5764
 2933TIP3   OH2 8737   5.606   0.192   6.906 -0.1164  0.3571 -0.3518
 2933TIP3    H1 8738   5.695   0.166   6.880 -0.0418 -0.8584  1.0927
 2933TIP3    H2 8739   5.616   0.282   6.938  1.0149 -0.5010  1.8423
 2934TIP3   OH2 8740   5.514   3.908   3.543  0.3739 -0.2183 -0.4352
 2934TIP3    H1 8741   5.437   3.885   3.596  0.1874  0.6990 -0.2910
 2934TIP3    H2 8742   5.493   3.876   3.455 -1.5463  2.7315 -1.1378
 2935TIP3   OH2 8743   7.495   2.503   1.689  0.8741  0.3683  0.2497
 2935TIP3    H1 8744   7.422   2.514   1.750 -0.7720 -0.1752 -1.5747
 2935TIP3    H2 8745   7.518   2.592   1.663 -0.8931  0.4470 -1.1582
 2936TIP3   OH2 8746   4.212   4.676   3.254  0.2187 -0.1385  0.5961
 2936TIP3    H1 8747   4.250   4.588   3.242 -0.8635 -0.5448  0.0905
 2936TIP3    H2 8748   4.288   4.733   3.265  0.9108 -1.2650  1.8064
 2937TIP3   OH2 8749   5.865   1.139   1.544  0.6189 -0.0940 -0.0133
 2937TIP3    H1 8750   5.775   1.148   1.575  0.6701  1.1371 -0.2186
 2937TIP3    H2 8751   5.903   1.072   1.601 -0.1528  0.0377  0.6658
 2938TIP3   OH2 8752   4.126   2.623   3.014 -1.0605  0.1173 -0.1024
 2938TIP3    H1 8753   4.038   2.599   2.985 -0.8431 -0.7760 -0.0472
 2938TIP3    H2 8754   4.155   2.548   3.066  0.4338 -0.3913 -1.6235
 2939TIP3   OH2 8755   5.113   2.184   1.789  0.1351  0.1300 -1.1599
 2939TIP3    H1 8756   5.177   2.254   1.779 -0.1583  0.3457 -1.5295
 2939TIP3    H2 8757   5.076   2.197   1.876  0.2945  0.2567 -1.1122
 2940TIP3   OH2 8758   5.959   3.131   3.034 -1.1687  0.3545  0.4247
 2940TIP3    H1 8759   5.963   3.225   3.014 -0.4481  0.0971 -0.6598
 2940TIP3    H2 8760   5.866   3.109   3.022 -1.5770  1.1804  1.9114
 2941TIP3   OH2 8761   6.570   2.219   1.128 -0.6976 -0.1020 -0.8457
 2941TIP3    H1 8762   6.585   2.167   1.207  1.2001  0.0922 -1.0514
 2941TIP3    H2 8763   6.598   2.163   1.056 -0.1184  0.6148 -1.1908
 2942TIP3   OH2 8764   7.437   5.833   5.770  0.0503 -0.5550 -0.0994
 2942TIP3    H1 8765   7.533   5.838   5.765  0.1738 -1.6860  0.9295
 2942TIP3    H2 8766   7.410   5.809   5.681  0.6102  1.1423 -0.7492
 2943TIP3   OH2 8767   6.641   3.835   0.421 -0.0740 -0.1818  0.2947
 2943TIP3    H1 8768   6.571   3.899   0.433 -0.0495 -0.0915 -0.0359
 2943TIP3    H2 8769   6.641   3.783   0.501 -1.1022 -0.7612 -0.0793
 2944TIP3   OH2 8770   8.317   3.543   2.361  0.4136  0.4798  0.2113
 2944TIP3    H1 8771   8.348   3.454   2.380 -1.8233 -0.2411  0.6597
 2944TIP3    H2 8772   8.349   3.595   2.435 -0.3477 -0.4580  1.2246
 2945TIP3   OH2 8773   5.486   4.504   2.348  0.5517 -0.2058  0.3596
 2945TIP3    H1 8774   5.456   4.568   2.412 -0.9444 -1.1613  0.6313
 2945TIP3    H2 8775   5.581   4.518   2.342  0.5201  0.7002  1.8687
 2946TIP3   OH2 8776   7.340   3.530   0.485  0.6197  0.0331 -0.7588
 2946TIP3    H1 8777   7.375   3.441   0.481  2.4699  0.7460 -0.7514
 2946TIP3    H2 8778   7.302   3.536   0.573  2.8858  0.1079  0.2448
 2947TIP3   OH2 8779   4.323   0.860   5.036  0.4985  0.0977  0.3272
 2947TIP3    H1 8780   4.261   0.814   4.980 -0.0697  1.0804  0.1320
 2947TIP3    H2 8781   4.331   0.947   4.996 -0.1637  0.9147  1.9348
 2948TIP3   OH2 8782   5.710   2.143   1.236  0.2881  0.1602  0.1785
 2948TIP3    H1 8783   5.704   2.216   1.176 -0.2600  0.7568  0.9538
 2948TIP3    H2 8784   5.647   2.163   1.306  1.3077 -0.2435  1.2354
 2949TIP3   OH2 8785   6.608   3.561   0.579 -0.5167 -0.1557  0.4813
 2949TIP3    H1 8786   6.685   3.513   0.548  0.5110  1.7858 -0.0387
 2949TIP3    H2 8787   6.606   3.546   0.673  1.4441  1.0967  0.7357
 2950TIP3   OH2 8788   7.461   4.070   2.018 -0.4365 -0.0987 -0.2318
 2950TIP3    H1 8789   7.517   4.130   2.067  1.4429 -1.0592 -1.1502
 2950TIP3    H2 8790   7.461   4.103   1.929  0.5272 -1.3786 -0.7262
 2951TIP3   OH2 8791   5.096   1.206   0.488  0.1310 -0.6752  0.3107
 2951TIP3    H1 8792   5.139   1.290   0.503 -1.4046  0.6083 -2.2591
 2951TIP3    H2 8793   5.168   1.144   0.477  1.2875  0.5332  0.9287
 2952TIP3   OH2 8794   6.170   5.251   1.492 -0.1745  0.0380  0.3996
 2952TIP3    H1 8795   6.113   5.177   1.469 -1.2889  0.7866  0.7033
 2952TIP3    H2 8796   6.162   5.259   1.587 -0.9640  1.2661  0.2429
 2953TIP3   OH2 8797   7.860   3.044   1.439  0.2549  0.2692 -0.1142
 2953TIP3    H1 8798   7.858   3.123   1.385  1.6407 -0.0426 -0.6322
 2953TIP3    H2 8799   7.948   3.008   1.427  0.4778  0.0078  2.1063
 2954TIP3   OH2 8800   8.195   1.601   1.409 -0.0154 -0.3683 -0.1848
 2954TIP3    H1 8801   8.231   1.530   1.461 -0.3189 -0.2459  0.1971
 2954TIP3    H2 8802   8.106   1.574   1.388  0.6375 -1.1572 -2.0527
 2955TIP3   OH2 8803   7.860   1.813   3.311  0.0039  0.4586 -0.1909
 2955TIP3    H1 8804   7.894   1.777   3.230 -0.2365  0.4364 -0.2809
 2955TIP3    H2 8805   7.932   1.804   3.374  0.1592  0.4021 -0.3789
 2956TIP3   OH2 8806   5.997   4.313   3.148  0.6190 -0.0402 -0.2180
 2956TIP3    H1 8807   5.950   4.253   3.207  0.7948  0.3554  0.3320
 2956TIP3    H2 8808   6.015   4.261   3.070 -2.5866  0.3790 -1.3378
 2957TIP3   OH2 8809   6.945   1.194   0.844  0.3810  0.0474  0.9738
 2957TIP3    H1 8810   6.975   1.233   0.762  0.5231  0.1629  1.0809
 2957TIP3    H2 8811   6.856   1.227   0.855 -0.0486 -0.8534  0.2958
 2958TIP3   OH2 8812   5.719   1.988   3.285 -0.0979  0.2394 -0.0821
 2958TIP3    H1 8813   5.797   1.998   3.339 -0.6074  0.6645  0.5781
 2958TIP3    H2 8814   5.649   1.963   3.346 -0.5734  0.2782 -0.5999
 2959TIP3   OH2 8815   3.774   3.612   2.474 -0.3686 -0.2082  0.1112
 2959TIP3    H1 8816   3.713   3.540   2.459  0.0389 -0.8844  1.5441
 2959TIP3    H2 8817   3.734   3.663   2.545 -0.1273  0.3464 -0.1508
 2960TIP3   OH2 8818   7.495   3.306   1.829 -0.1389  0.2430  0.0458
 2960TIP3    H1 8819   7.540   3.362   1.765 -1.2564  0.6290 -0.4316
 2960TIP3    H2 8820   7.476   3.365   1.902 -0.3408  0.2217  0.0118
 2961TIP3   OH2 8821   1.249   1.409   3.615 -0.3346  0.2824 -0.2314
 2961TIP3    H1 8822   1.337   1.446   3.619 -0.7241  1.2289 -0.3901
 2961TIP3    H2 8823   1.250   1.356   3.535 -0.3580  1.4609 -1.0184
 2962TIP3   OH2 8824   7.449   2.989   0.498 -0.0706  0.3132  0.2077
 2962TIP3    H1 8825   7.526   2.958   0.450 -0.0750  0.4873  0.0880
 2962TIP3    H2 8826   7.428   2.917   0.558 -0.1120  0.0633 -0.1050
 2963TIP3   OH2 8827   5.130   3.528   1.369 -0.1512 -0.0329 -0.8699
 2963TIP3    H1 8828   5.042   3.492   1.361  0.5196 -1.9617  0.3705
 2963TIP3    H2 8829   5.168   3.517   1.282 -1.1126  0.8496 -1.4261
 2964TIP3   OH2 8830   7.012   2.472   2.432  0.4488 -0.4781 -0.3716
 2964TIP3    H1 8831   6.932   2.511   2.468 -0.2780  0.1416 -2.5854
 2964TIP3    H2 8832   6.988   2.381   2.416  0.6917 -0.6864  0.3915
 2965TIP3   OH2 8833   5.904   4.720   0.960 -0.4876 -0.1086 -0.0749
 2965TIP3    H1 8834   5.967   4.648   0.955 -1.9439 -1.5135  1.0251
 2965TIP3    H2 8835   5.878   4.723   1.052 -1.4383  0.9498 -0.3630
 2966TIP3   OH2 8836   5.559   3.960   2.416 -0.3313 -0.0257  0.1716
 2966TIP3    H1 8837   5.491   3.944   2.482 -0.2115  1.4456  0.6796
 2966TIP3    H2 8838   5.640   3.965   2.467 -0.3833  2.2960  0.1114
 2967TIP3   OH2 8839   6.122   2.237   2.108  0.4963  0.4855  0.9035
 2967TIP3    H1 8840   6.127   2.301   2.179 -0.0698  1.0717  0.4230
 2967TIP3    H2 8841   6.083   2.160   2.148  0.1359  0.8286  1.2305
 2968TIP3   OH2 8842   4.672   3.568   2.504  0.2732 -0.0880  0.2107
 2968TIP3    H1 8843   4.755   3.529   2.532  0.3275  0.6797  1.1596
 2968TIP3    H2 8844   4.623   3.580   2.586  0.6377  2.6662  0.0456
 2969TIP3   OH2 8845   3.303   2.069   0.830 -0.3878 -0.9150 -0.1681
 2969TIP3    H1 8846   3.276   2.010   0.900 -0.8467 -0.6753 -0.1405
 2969TIP3    H2 8847   3.225   2.121   0.811 -0.8481 -2.2607 -2.1518
 2970TIP3   OH2 8848   6.110   2.674   2.102  0.4066 -0.2115 -0.4611
 2970TIP3    H1 8849   6.022   2.682   2.063  0.2399 -0.8317 -0.2171
 2970TIP3    H2 8850   6.112   2.742   2.169 -1.1956 -2.4534  1.9685
 2971TIP3   OH2 8851   4.286   7.269   6.447  0.6559  0.4759  0.2009
 2971TIP3    H1 8852   4.287   7.260   6.542  1.8950  0.4153  0.1959
 2971TIP3    H2 8853   4.196   7.290   6.425  0.2451 -0.0815  1.3401
 2972TIP3   OH2 8854   5.351   2.753   1.781  0.2006 -0.3469 -0.0896
 2972TIP3    H1 8855   5.271   2.701   1.790 -0.1226  0.4395  1.6599
 2972TIP3    H2 8856   5.421   2.688   1.778 -0.2310 -0.9094  1.6457
 2973TIP3   OH2 8857   7.568   1.994   0.736 -0.2521 -0.3293  0.2664
 2973TIP3    H1 8858   7.602   1.985   0.825 -0.4138  1.1329  0.4793
 2973TIP3    H2 8859   7.643   2.025   0.684 -0.7384  0.9708  0.3393
 2974TIP3   OH2 8860   7.021   1.627   4.832 -0.0252  0.1180  0.3547
 2974TIP3    H1 8861   7.103   1.676   4.830  1.8772 -2.8183  1.8192
 2974TIP3    H2 8862   7.001   1.609   4.740  1.3999  0.2040  0.0209
 2975TIP3   OH2 8863   7.122   3.287   1.221 -0.4476 -0.4673  0.4721
 2975TIP3    H1 8864   7.144   3.218   1.285  1.3352  0.3769  0.8081
 2975TIP3    H2 8865   7.194   3.284   1.158 -1.0263  0.2382 -0.2310
 2976TIP3   OH2 8866   5.348   4.481   2.108 -0.1353  0.0967  0.2553
 2976TIP3    H1 8867   5.401   4.482   2.188  0.1988  1.0779  0.0172
 2976TIP3    H2 8868   5.266   4.439   2.135 -0.2451  0.9392  1.2510
 2977TIP3   OH2 8869   4.518   2.661   1.417  0.0074  0.8716 -0.2452
 2977TIP3    H1 8870   4.472   2.745   1.408 -0.5455  0.6924  0.8269
 2977TIP3    H2 8871   4.610   2.683   1.405 -0.3012  1.2968 -2.0158
 2978TIP3   OH2 8872   6.971   1.714   1.498  0.9306 -0.1284 -0.7653
 2978TIP3    H1 8873   7.015   1.795   1.475  2.2850 -0.5183  0.3760
 2978TIP3    H2 8874   7.019   1.681   1.574 -0.0082 -1.6590 -0.8075
 2979TIP3   OH2 8875   5.547   2.843   2.591 -0.2612  0.2660  0.0506
 2979TIP3    H1 8876   5.558   2.921   2.536 -0.4772  0.1279 -0.1955
 2979TIP3    H2 8877   5.596   2.775   2.545 -0.0049  0.2749  0.3084
 2980TIP3   OH2 8878   6.727   1.045   3.437  0.1386  0.4896 -0.5291
 2980TIP3    H1 8879   6.822   1.042   3.447  0.0370  1.5468  0.9769
 2980TIP3    H2 8880   6.704   0.962   3.397  1.4976 -0.5946  0.9004
 2981TIP3   OH2 8881   1.563   7.114   2.766 -0.4897  0.1278 -0.0364
 2981TIP3    H1 8882   1.638   7.170   2.745 -0.0298 -0.9749 -1.4517
 2981TIP3    H2 8883   1.496   7.137   2.702  0.0642 -1.6210 -1.2711
 2982TIP3   OH2 8884   7.447   1.344   1.213 -0.3603  0.6715 -0.1261
 2982TIP3    H1 8885   7.409   1.308   1.293 -0.3628 -3.3774 -1.8549
 2982TIP3    H2 8886   7.379   1.402   1.178 -1.2547  0.6848  1.5886
 2983TIP3   OH2 8887   7.743   1.909   2.368 -1.0177  0.1654 -0.2363
 2983TIP3    H1 8888   7.663   1.880   2.325 -1.3321 -2.4178  1.9195
 2983TIP3    H2 8889   7.713   1.963   2.441 -0.7283  0.4997 -0.3626
 2984TIP3   OH2 8890   5.434   0.458   2.985 -0.3123 -0.3544 -0.5204
 2984TIP3    H1 8891   5.429   0.552   3.005 -2.3029 -0.8438  1.5177
 2984TIP3    H2 8892   5.343   0.428   2.988  0.1799 -2.1498 -2.2837
 2985TIP3   OH2 8893   4.580   2.070   1.231 -0.0525  0.6217  0.1300
 2985TIP3    H1 8894   4.633   2.131   1.180  2.5495 -1.2461  0.4357
 2985TIP3    H2 8895   4.624   2.066   1.316 -0.9647 -0.6378  0.5588
 2986TIP3   OH2 8896   6.654   3.230   2.093  0.1584 -0.4276  0.1920
 2986TIP3    H1 8897   6.611   3.223   2.178  3.1865 -0.5327  1.7880
 2986TIP3    H2 8898   6.690   3.319   2.091 -0.7351 -0.0853 -1.4190
 2987TIP3   OH2 8899   6.835   2.819   2.194  0.2016 -0.0630 -0.5418
 2987TIP3    H1 8900   6.872   2.800   2.108 -0.4309  0.0931 -0.8491
 2987TIP3    H2 8901   6.870   2.906   2.216  0.2856 -0.0614 -0.6822
 2988TIP3   OH2 8902   8.081   1.522   2.044  0.1786  0.2852  0.5023
 2988TIP3    H1 8903   8.008   1.573   2.080  1.5905  1.9508  1.0463
 2988TIP3    H2 8904   8.097   1.561   1.958 -1.4681 -1.9882 -0.8771
 2989TIP3   OH2 8905   0.999   1.500   1.733 -0.6889  0.4925  0.1690
 2989TIP3    H1 8906   0.922   1.454   1.702 -1.2949  1.7704 -0.2703
 2989TIP3    H2 8907   1.073   1.444   1.709 -1.5451 -1.2875  1.6290
 2990TIP3   OH2 8908   7.802   3.452   0.999 -0.0080  0.0908  0.4189
 2990TIP3    H1 8909   7.838   3.367   0.973  0.6308  0.3571  0.4408
 2990TIP3    H2 8910   7.842   3.514   0.939 -2.1267  0.1155 -1.0338
 2991TIP3   OH2 8911   4.820   2.766   1.979 -0.5945 -0.1315  0.2417
 2991TIP3    H1 8912   4.851   2.676   1.971 -1.0928 -0.4477  1.8493
 2991TIP3    H2 8913   4.899   2.817   1.997 -0.4116 -0.3378  0.0287
 2992TIP3   OH2 8914   5.297   3.421   1.571  0.2590  0.0561 -0.5143
 2992TIP3    H1 8915   5.241   3.458   1.504 -1.9078  2.2726  2.3765
 2992TIP3    H2 8916   5.249   3.346   1.606 -1.2433  2.1934  2.2404
 2993TIP3   OH2 8917   3.630   2.097   3.427 -0.2043  0.6490 -0.0915
 2993TIP3    H1 8918   3.669   2.155   3.492 -1.0155  1.0690  0.0232
 2993TIP3    H2 8919   3.689   2.021   3.425  0.0450  0.8110  0.8351
 2994TIP3   OH2 8920   3.354   3.236   4.786 -0.2129 -0.4270 -0.1253
 2994TIP3    H1 8921   3.363   3.306   4.850 -1.1999 -1.0877  0.7404
 2994TIP3    H2 8922   3.426   3.251   4.724 -0.6286  1.5674 -0.1666
 2995TIP3   OH2 8923   5.380   4.115   2.243  0.2394  0.5806 -0.2681
 2995TIP3    H1 8924   5.308   4.054   2.222  0.3224  0.6977 -0.8789
 2995TIP3    H2 8925   5.454   4.058   2.263 -0.4583  0.4076  2.0093
 2996TIP3   OH2 8926   6.678   0.730   4.769  0.4190 -0.1215 -0.5083
 2996TIP3    H1 8927   6.760   0.776   4.752  1.3190 -1.2170  0.8216
 2996TIP3    H2 8928   6.628   0.740   4.688  0.9597  2.4146 -0.5503
 2997TIP3   OH2 8929   5.798   3.200   1.959 -0.5865  0.0749  0.2317
 2997TIP3    H1 8930   5.893   3.191   1.964 -0.8075 -1.2129  2.9450
 2997TIP3    H2 8931   5.778   3.276   2.014 -0.9468  1.9262 -2.3747
 2998TIP3   OH2 8932   6.288   4.029   3.622  0.0228  0.0228  0.0491
 2998TIP3    H1 8933   6.224   3.971   3.580 -0.4392  0.8012 -0.3365
 2998TIP3    H2 8934   6.244   4.060   3.701 -0.5822  1.5281 -0.8395
 2999TIP3   OH2 8935   7.698   4.113   1.637  0.0928  0.0789 -0.0186
 2999TIP3    H1 8936   7.608   4.115   1.670 -0.4162 -0.0097 -1.3344
 2999TIP3    H2 8937   7.753   4.116   1.715 -1.0212  2.9393  0.7086
 3000TIP3   OH2 8938   5.390   0.606   3.465 -0.1045  0.3279 -0.9114
 3000TIP3    H1 8939   5.329   0.612   3.538 -2.4250 -1.1148 -2.6741
 3000TIP3    H2 8940   5.424   0.517   3.468  2.0028  1.1425  0.0998
 3001TIP3   OH2 8941   5.860   4.110   2.133  0.4121  0.5017  0.4301
 3001TIP3    H1 8942   5.903   4.188   2.099  1.1313 -0.5802 -1.2301
 3001TIP3    H2 8943   5.931   4.047   2.146 -0.3177 -0.3210  0.4643
 3002TIP3   OH2 8944   7.180   1.722   3.050  0.0481  0.0207  0.2564
 3002TIP3    H1 8945   7.146   1.757   2.967 -1.9513 -0.6156  0.7625
 3002TIP3    H2 8946   7.239   1.652   3.024 -1.6236 -1.0870 -0.6389
 3003TIP3   OH2 8947   8.004   3.148   0.364 -0.2109  0.5085  0.4263
 3003TIP3    H1 8948   8.035   3.166   0.453 -0.4371  3.7026 -0.0720
 3003TIP3    H2 8949   7.919   3.107   0.375  0.6810 -1.0451  1.6941
 3004TIP3   OH2 8950   5.661   2.301   2.695 -0.6147  0.8102 -0.3511
 3004TIP3    H1 8951   5.566   2.291   2.692 -0.5646  0.5736 -2.1089
 3004TIP3    H2 8952   5.682   2.358   2.621  0.5387  1.5702  0.5379
 3005TIP3   OH2 8953   6.298   2.737   5.612  0.4621  0.6630  0.2603
 3005TIP3    H1 8954   6.322   2.814   5.662  1.9649  0.0531  0.5010
 3005TIP3    H2 8955   6.359   2.736   5.538  0.2278 -0.0897  0.0659
 3006TIP3   OH2 8956   3.198   2.414   0.112  0.1086 -0.4314 -0.0347
 3006TIP3    H1 8957   3.175   2.353   0.043 -1.4433 -0.3261  0.3706
 3006TIP3    H2 8958   3.286   2.389   0.139  0.6076 -0.6659 -1.8269
 3007TIP3   OH2 8959   6.173   0.736   2.891  0.1906 -0.0607  0.1868
 3007TIP3    H1 8960   6.111   0.791   2.842  1.1971  0.0336 -1.0043
 3007TIP3    H2 8961   6.163   0.649   2.853 -1.8884 -0.9107  2.5255
 3008TIP3   OH2 8962   5.675   3.065   3.085 -0.7873 -0.2228 -0.8192
 3008TIP3    H1 8963   5.650   2.978   3.117 -1.6033  0.4252  0.3098
 3008TIP3    H2 8964   5.613   3.125   3.126  2.5437  1.4305  2.0173
 3009TIP3   OH2 8965   5.499   0.905   3.191 -0.3602  0.1275  0.3450
 3009TIP3    H1 8966   5.580   0.939   3.228 -0.8433 -0.5828  2.1422
 3009TIP3    H2 8967   5.433   0.971   3.211  0.3705  2.4790 -4.3458
 3010TIP3   OH2 8968   0.248   3.283   1.717  0.0695  0.2741 -0.3041
 3010TIP3    H1 8969   0.334   3.325   1.709  0.8142 -1.0479  0.5534
 3010TIP3    H2 8970   0.215   3.313   1.802  0.5361 -0.7230  0.2406
 3011TIP3   OH2 8971   6.900   0.912   2.272 -0.1540  0.0027  0.2485
 3011TIP3    H1 8972   6.848   0.980   2.315  0.3717  1.1947 -0.9516
 3011TIP3    H2 8973   6.954   0.875   2.342 -1.9357 -0.6349  1.3302
 3012TIP3   OH2 8974   6.092   1.008   3.577 -0.5725 -0.3954  0.8356
 3012TIP3    H1 8975   6.168   0.977   3.627  0.7114  1.4240  0.0803
 3012TIP3    H2 8976   6.051   0.928   3.544  3.3629 -1.4004 -2.1162
 3013TIP3   OH2 8977   4.272   2.387   3.155  0.0896 -0.1800 -0.3330
 3013TIP3    H1 8978   4.260   2.322   3.225  2.6439  1.7736  2.0498
 3013TIP3    H2 8979   4.303   2.465   3.201 -0.4557  1.9221 -3.4396
 3014TIP3   OH2 8980   6.173   4.456   2.653  0.1853 -0.5198  0.3461
 3014TIP3    H1 8981   6.165   4.448   2.748  1.3056  0.4554  0.5304
 3014TIP3    H2 8982   6.263   4.431   2.634 -0.0784 -0.8543 -0.4735
 3015TIP3   OH2 8983   0.089   3.628   1.708  0.3241  0.1386  0.3469
 3015TIP3    H1 8984   0.120   3.675   1.631 -1.5200  2.0741  0.7490
 3015TIP3    H2 8985   0.149   3.654   1.778  0.9010 -0.2089 -0.0112
 3016TIP3   OH2 8986   7.064   2.646   1.919 -0.1595  0.9280  0.4805
 3016TIP3    H1 8987   7.018   2.725   1.890  0.1024  0.8421 -0.1853
 3016TIP3    H2 8988   6.994   2.585   1.943 -0.3933  0.9242 -0.1868
 3017TIP3   OH2 8989   7.850   0.551   2.623  0.4915 -0.5495  0.2531
 3017TIP3    H1 8990   7.826   0.616   2.690  1.2513 -0.7482  0.7178
 3017TIP3    H2 8991   7.943   0.566   2.607 -0.2413  1.2482 -2.6764
 3018TIP3   OH2 8992   7.130   0.003   3.084 -0.5547  0.2063 -0.6731
 3018TIP3    H1 8993   7.133  -0.025   3.176  1.1360  2.1206 -0.1176
 3018TIP3    H2 8994   7.096   0.092   3.087 -0.5960  0.2348 -1.9292
 3019TIP3   OH2 8995   5.262   2.273   5.369  0.1962  0.1786  0.1810
 3019TIP3    H1 8996   5.223   2.197   5.414 -2.0633  1.4852  0.4982
 3019TIP3    H2 8997   5.274   2.338   5.438 -1.1766  1.3707 -0.6572
 3020TIP3   OH2 8998   4.975   1.634   3.352  0.4808 -0.0046 -0.0500
 3020TIP3    H1 8999   4.921   1.569   3.307  0.1691 -0.9590  1.6665
 3020TIP3    H2 9000   5.055   1.638   3.300 -0.7906  0.6307 -2.0118
 3021TIP3   OH2 9001   4.257   2.076   1.959 -0.2583 -0.7323  0.1432
 3021TIP3    H1 9002   4.319   2.003   1.957  2.2722  1.3783 -2.8675
 3021TIP3    H2 9003   4.176   2.039   1.924  0.2921 -2.6832  0.8767
 3022TIP3   OH2 9004   6.451   4.675   2.510 -0.2356  0.3107 -0.2977
 3022TIP3    H1 9005   6.458   4.580   2.516  1.1604  0.3755 -0.6840
 3022TIP3    H2 9006   6.377   4.690   2.450  0.1747 -0.5395 -1.0318
 3023TIP3   OH2 9007   7.121   0.954   2.487 -0.6909 -0.3457  0.1408
 3023TIP3    H1 9008   7.091   0.868   2.516 -2.5818  0.3689  0.3547
 3023TIP3    H2 9009   7.065   1.016   2.534  0.4695  1.0027 -0.2279
 3024TIP3   OH2 9010   6.713   4.022   1.212 -0.5977 -0.5102  0.3082
 3024TIP3    H1 9011   6.757   4.103   1.239  0.8491 -1.0788 -0.3137
 3024TIP3    H2 9012   6.771   3.952   1.242 -1.2534 -1.2840 -0.2142
 3025TIP3   OH2 9013   7.530   1.691   1.378 -0.3553 -0.3115 -0.2861
 3025TIP3    H1 9014   7.624   1.683   1.398 -0.3202 -2.1021 -1.1189
 3025TIP3    H2 9015   7.527   1.757   1.308  0.1920  0.4019  0.3473
 3026TIP3   OH2 9016   3.731   2.308   1.605 -0.3650 -0.2499  0.5290
 3026TIP3    H1 9017   3.820   2.306   1.640  0.0074 -0.5588 -0.4219
 3026TIP3    H2 9018   3.728   2.388   1.553 -0.5997 -0.3218  0.4324
 3027TIP3   OH2 9019   3.290   3.850   3.662 -0.1590  0.2518  0.1695
 3027TIP3    H1 9020   3.370   3.819   3.619 -0.4349 -0.3057  0.0634
 3027TIP3    H2 9021   3.249   3.908   3.598  0.1402  0.5115  0.2102
 3028TIP3   OH2 9022   6.153   3.546   0.381 -0.1616  0.2809  0.0427
 3028TIP3    H1 9023   6.106   3.476   0.426  0.4103 -0.6210 -0.7317
 3028TIP3    H2 9024   6.147   3.622   0.439 -0.7659 -0.4230  0.8990
 3029TIP3   OH2 9025   6.959   3.751   1.441  0.3917  0.1961 -0.2293
 3029TIP3    H1 9026   6.874   3.737   1.398 -0.0085 -0.8423  0.8700
 3029TIP3    H2 9027   7.007   3.807   1.380 -1.4439  1.6329 -0.4207
 3030TIP3   OH2 9028   8.328   2.055   2.091 -0.4352  0.2929 -0.7372
 3030TIP3    H1 9029   8.299   2.062   2.000 -1.5790 -0.5131 -0.4454
 3030TIP3    H2 9030   8.262   2.000   2.133  1.5922 -1.6932 -0.0662
 3031TIP3   OH2 9031   7.149   3.143   2.483 -0.8226  0.0003  0.3904
 3031TIP3    H1 9032   7.056   3.161   2.498 -0.3019  1.7548  1.7378
 3031TIP3    H2 9033   7.183   3.120   2.569 -0.0693 -1.0449 -0.1704
 3032TIP3   OH2 9034   7.677   3.818   2.947  0.0038 -0.1262  0.1802
 3032TIP3    H1 9035   7.690   3.877   2.873 -1.3705 -1.7520 -1.4043
 3032TIP3    H2 9036   7.685   3.874   3.024  0.9936  1.6860 -1.1944
 3033TIP3   OH2 9037   4.628   0.264   3.008 -0.0350 -0.1886  0.3951
 3033TIP3    H1 9038   4.560   0.197   3.016  0.0420 -0.5650 -1.6843
 3033TIP3    H2 9039   4.701   0.229   3.059 -0.2795 -1.3205 -0.0042
 3034TIP3   OH2 9040   6.168   0.936   2.334  0.1616  0.4373  0.5775
 3034TIP3    H1 9041   6.151   0.955   2.427  0.1565 -1.2128  0.9237
 3034TIP3    H2 9042   6.260   0.957   2.322 -0.0408  1.4783  0.7285
 3035TIP3   OH2 9043   8.025   0.180   0.678 -0.3609 -0.1261 -0.0923
 3035TIP3    H1 9044   8.003   0.162   0.586 -0.4089  0.0110 -0.1085
 3035TIP3    H2 9045   7.946   0.159   0.727  0.7885 -3.7073  0.3578
 3036TIP3   OH2 9046   7.682   3.465   2.451 -0.0627 -0.4909  0.4749
 3036TIP3    H1 9047   7.774   3.450   2.429  0.3901 -0.7605  2.4216
 3036TIP3    H2 9048   7.684   3.535   2.516 -1.2436 -0.4807  0.5136
 3037TIP3   OH2 9049   5.290   3.839   2.130 -0.2980  0.6508  0.2117
 3037TIP3    H1 9050   5.342   3.859   2.052 -1.6652 -0.5838 -1.0607
 3037TIP3    H2 9051   5.341   3.775   2.178  0.2610  0.9237 -0.0152
 3038TIP3   OH2 9052   3.809   3.426   3.326  0.2099 -0.3664  0.1419
 3038TIP3    H1 9053   3.852   3.351   3.367  1.3022  1.0064  1.6148
 3038TIP3    H2 9054   3.873   3.497   3.334 -1.5911  1.2542  0.6587
 3039TIP3   OH2 9055   8.131   1.847   2.065 -0.0107  0.4585 -0.0775
 3039TIP3    H1 9056   8.184   1.800   2.129  0.1685  1.9769  0.9274
 3039TIP3    H2 9057   8.187   1.852   1.987 -0.5277 -2.0632 -0.6478
 3040TIP3   OH2 9058   5.387   7.870   1.205 -0.1206 -0.3337 -0.3896
 3040TIP3    H1 9059   5.456   7.805   1.218 -1.0955 -1.4082 -0.5148
 3040TIP3    H2 9060   5.419   7.925   1.134  0.7157 -0.6790 -0.2902
 3041TIP3   OH2 9061   0.895   3.870   6.301 -0.3876 -0.1916  0.0064
 3041TIP3    H1 9062   0.825   3.848   6.239 -0.0035  0.6531 -0.7529
 3041TIP3    H2 9063   0.886   3.807   6.372 -0.5576 -1.4821 -1.1299
 3042TIP3   OH2 9064   0.452   0.602   3.051  0.0073  0.2014 -0.2215
 3042TIP3    H1 9065   0.400   0.522   3.059 -1.1006  0.9841  0.5484
 3042TIP3    H2 9066   0.398   0.660   2.998  0.3676  0.7871  0.0510
 3043TIP3   OH2 9067   6.190   2.546   2.566 -0.0197 -0.3102  0.3724
 3043TIP3    H1 9068   6.201   2.545   2.662  0.0670  0.6693  0.3764
 3043TIP3    H2 9069   6.231   2.628   2.539 -0.1279 -0.5468 -0.5033
 3044TIP3   OH2 9070   5.826   2.082   4.113 -0.7107  0.0826 -0.3915
 3044TIP3    H1 9071   5.732   2.099   4.121 -0.5650  0.7981 -0.1669
 3044TIP3    H2 9072   5.832   2.010   4.051 -1.3454  0.8738 -1.3872
 3045TIP3   OH2 9073   1.422   0.926   2.466  0.0979  0.0147 -0.3497
 3045TIP3    H1 9074   1.419   0.921   2.562  1.3536  2.5551 -0.1288
 3045TIP3    H2 9075   1.363   0.998   2.444 -0.2147 -0.5828 -1.4954
 3046TIP3   OH2 9076   5.967   0.433   1.213  0.2626  0.6360  0.4550
 3046TIP3    H1 9077   5.878   0.418   1.180 -0.0176  0.5945  1.2131
 3046TIP3    H2 9078   5.986   0.356   1.266  0.2775  1.1984  1.2794
 3047TIP3   OH2 9079   3.878   2.434   2.945 -0.6567 -0.2413 -0.7591
 3047TIP3    H1 9080   3.786   2.427   2.921 -0.9520  0.2334  0.1869
 3047TIP3    H2 9081   3.890   2.369   3.014 -0.6273  0.6286  0.0702
 3048TIP3   OH2 9082   3.916   2.840   2.989  0.7000 -0.0054 -1.0484
 3048TIP3    H1 9083   3.914   2.925   3.034 -2.3869 -2.4310  3.8699
 3048TIP3    H2 9084   4.003   2.806   3.006  1.6398  1.6994 -2.2548
 3049TIP3   OH2 9085   7.388   4.526   4.621  0.1482  0.2636 -0.3386
 3049TIP3    H1 9086   7.431   4.504   4.704  0.5708  0.8875 -0.3876
 3049TIP3    H2 9087   7.459   4.560   4.566 -0.5961  2.4851  0.0177
 3050TIP3   OH2 9088   7.785   0.860   0.557 -0.3586 -0.5629 -0.0929
 3050TIP3    H1 9089   7.859   0.820   0.510  0.2159 -0.3472  0.6083
 3050TIP3    H2 9090   7.720   0.877   0.489 -0.4087 -2.2333 -0.4773
 3051TIP3   OH2 9091   6.676   4.761   2.230 -0.2301  0.4677  0.0448
 3051TIP3    H1 9092   6.581   4.777   2.235 -0.1917  0.5131  0.7154
 3051TIP3    H2 9093   6.684   4.666   2.235 -0.2915  0.4092 -0.9458
 3052TIP3   OH2 9094   5.978   2.935   4.537 -0.0812 -0.4059  0.0067
 3052TIP3    H1 9095   5.890   2.945   4.574 -0.3896 -1.8580 -0.2901
 3052TIP3    H2 9096   6.035   2.929   4.613 -0.0974  1.6487  0.1945
 3053TIP3   OH2 9097   6.834   1.098   4.516  0.3048  0.3561 -0.0972
 3053TIP3    H1 9098   6.843   1.161   4.444 -1.0045  2.7066  1.7146
 3053TIP3    H2 9099   6.804   1.017   4.473 -0.1416  1.6112 -2.2393
 3054TIP3   OH2 9100   4.165   2.842   1.914 -0.1992 -0.0496 -0.5437
 3054TIP3    H1 9101   4.248   2.812   1.878  0.9811 -1.8333  3.3348
 3054TIP3    H2 9102   4.115   2.762   1.929 -2.3777  0.9578 -2.2126
 3055TIP3   OH2 9103   7.319   3.161   2.920  0.1653 -0.3283 -0.3457
 3055TIP3    H1 9104   7.401   3.114   2.933 -0.5218 -1.1574  1.0735
 3055TIP3    H2 9105   7.288   3.180   3.008 -0.6692  0.8520 -0.8885
 3056TIP3   OH2 9106   7.119   5.863   3.296  0.4031  0.0763 -0.6542
 3056TIP3    H1 9107   7.205   5.881   3.334  0.6589 -1.3292 -0.5508
 3056TIP3    H2 9108   7.075   5.807   3.360 -1.2916  2.2144  0.1295
 3057TIP3   OH2 9109   7.161   1.196   1.210 -1.0100  0.1641 -0.1087
 3057TIP3    H1 9110   7.106   1.134   1.162 -0.6862  0.1694 -0.4916
 3057TIP3    H2 9111   7.140   1.281   1.172 -0.2424  0.0851 -0.7320
 3058TIP3   OH2 9112   4.091   6.182   2.901 -0.4229 -0.5666 -0.0972
 3058TIP3    H1 9113   4.034   6.254   2.877  2.7007  1.8627 -0.5249
 3058TIP3    H2 9114   4.105   6.193   2.995  0.3262 -0.4256 -0.2251
 3059TIP3   OH2 9115   5.236   3.106   4.326  0.2808 -0.1741  0.8618
 3059TIP3    H1 9116   5.222   3.201   4.327 -1.2239 -0.3784  0.2344
 3059TIP3    H2 9117   5.212   3.077   4.414 -0.3679 -0.1185  0.7069
 3060TIP3   OH2 9118   6.689   3.211   0.047 -0.9475 -0.4180  0.2245
 3060TIP3    H1 9119   6.614   3.214  -0.013  0.4453  0.5270 -1.4951
 3060TIP3    H2 9120   6.689   3.296   0.090  0.2643  0.3364 -1.2133
 3061TIP3   OH2 9121   6.181   1.982   2.754 -0.8416 -0.0088 -0.1146
 3061TIP3    H1 9122   6.212   2.023   2.673  1.1191  0.8286  1.0154
 3061TIP3    H2 9123   6.100   2.029   2.775 -0.1140  1.4016 -0.3654
 3062TIP3   OH2 9124   6.598   4.837   1.289 -1.1791 -0.4610 -0.3088
 3062TIP3    H1 9125   6.555   4.873   1.212 -1.6557  0.3300  0.3152
 3062TIP3    H2 9126   6.627   4.750   1.262 -2.3747 -0.6489 -1.0072
 3063TIP3   OH2 9127   4.127   1.570   4.056 -0.4000 -0.1005  0.6369
 3063TIP3    H1 9128   4.195   1.545   4.118  0.8576 -0.5798 -0.9101
 3063TIP3    H2 9129   4.136   1.508   3.983 -0.9488  1.2917 -0.6586
 3064TIP3   OH2 9130   4.705   0.882   1.962 -0.0180 -0.0149 -0.4812
 3064TIP3    H1 9131   4.745   0.903   1.878 -0.5620  1.2652 -0.4312
 3064TIP3    H2 9132   4.760   0.926   2.026  0.0278 -0.4624 -0.2153
 3065TIP3   OH2 9133   3.447   2.557   3.842  0.6247 -0.1489  0.0772
 3065TIP3    H1 9134   3.505   2.585   3.771 -1.0307  1.4730 -0.6426
 3065TIP3    H2 9135   3.481   2.471   3.867  2.4110  0.1092 -1.3670
 3066TIP3   OH2 9136   0.092   2.129   3.789  0.3566 -0.0682  0.2352
 3066TIP3    H1 9137   0.016   2.072   3.805 -0.1720  0.8507  1.0748
 3066TIP3    H2 9138   0.157   2.071   3.750 -0.7249 -0.9080 -0.3657
 3067TIP3   OH2 9139   5.447   7.849   2.894  0.7878  0.0348  0.1165
 3067TIP3    H1 9140   5.384   7.810   2.954  0.2802 -0.1855 -0.5519
 3067TIP3    H2 9141   5.519   7.878   2.950  0.5840 -0.6891  0.7604
 3068TIP3   OH2 9142   0.745   5.601   6.866 -0.5533  0.0344 -0.2062
 3068TIP3    H1 9143   0.731   5.684   6.912  0.5480  1.0710 -1.7072
 3068TIP3    H2 9144   0.663   5.586   6.818 -0.6589  0.3883 -0.1375
 3069TIP3   OH2 9145   3.918   7.236   2.265 -0.4745 -0.0796  0.2921
 3069TIP3    H1 9146   3.862   7.186   2.324  0.7650 -0.9429  0.7618
 3069TIP3    H2 9147   3.932   7.319   2.309  1.3625 -1.1345  1.7872
 3070TIP3   OH2 9148   8.325   3.273   2.814  0.3633  0.7599  0.6686
 3070TIP3    H1 9149   8.357   3.356   2.779 -0.8211  1.7361  1.8076
 3070TIP3    H2 9150   8.234   3.292   2.839  0.5505 -0.4441  2.3541
 3071TIP3   OH2 9151   3.629   6.713   1.566 -0.3901  0.4193 -0.3694
 3071TIP3    H1 9152   3.711   6.678   1.530  0.2794  1.2123  0.3769
 3071TIP3    H2 9153   3.636   6.808   1.555 -0.9897  0.5278  0.1705
 3072TIP3   OH2 9154   0.373   0.328   2.171 -0.7142  0.7084  0.2936
 3072TIP3    H1 9155   0.451   0.382   2.158 -1.8994  2.0331 -1.5682
 3072TIP3    H2 9156   0.405   0.238   2.167  0.8347  1.2504  0.3336
 3073TIP3   OH2 9157   6.121   4.697   2.527 -0.0188  0.4026  0.4456
 3073TIP3    H1 9158   6.128   4.609   2.565 -0.1074  0.2444  0.0941
 3073TIP3    H2 9159   6.176   4.752   2.583  1.2804 -0.1742 -0.2500
 3074TIP3   OH2 9160   1.372   0.420   2.127 -0.3426 -0.6713  0.9463
 3074TIP3    H1 9161   1.302   0.480   2.154 -1.4422 -1.2453 -0.5927
 3074TIP3    H2 9162   1.357   0.341   2.180  0.6641  0.1112  2.4364
 3075TIP3   OH2 9163   5.907   2.981   1.426 -0.0538 -0.2094 -0.1864
 3075TIP3    H1 9164   5.929   2.930   1.348 -0.1881  1.0879 -1.0941
 3075TIP3    H2 9165   5.924   3.072   1.400 -1.2303  0.3363  0.9066
 3076TIP3   OH2 9166   6.666   3.443   1.333  0.4555 -0.1072 -0.5948
 3076TIP3    H1 9167   6.760   3.456   1.350  0.4964 -0.4916 -0.5254
 3076TIP3    H2 9168   6.622   3.494   1.401  0.6192 -3.0315  1.8004
 3077TIP3   OH2 9169   6.465   3.122   0.763  0.2813 -0.0845 -0.3633
 3077TIP3    H1 9170   6.431   3.065   0.694 -0.2089  0.1122 -0.2938
 3077TIP3    H2 9171   6.507   3.194   0.717  0.8214 -0.4594 -0.4507
 3078TIP3   OH2 9172   5.485   1.079   4.544 -0.5512  0.1263 -0.3268
 3078TIP3    H1 9173   5.473   0.989   4.512 -0.9768  0.0727 -0.0140
 3078TIP3    H2 9174   5.558   1.113   4.491  0.6216 -0.9044  0.5969
 3079TIP3   OH2 9175   7.010   1.446   5.355 -0.2536  0.0311 -0.1496
 3079TIP3    H1 9176   7.067   1.380   5.318 -0.6448 -0.3209 -0.1339
 3079TIP3    H2 9177   6.921   1.414   5.337 -0.4731  1.5507 -1.9513
 3080TIP3   OH2 9178   7.344   4.579   1.120 -0.0623  0.5305  0.7402
 3080TIP3    H1 9179   7.438   4.577   1.138  0.0665  1.9215  0.3008
 3080TIP3    H2 9180   7.338   4.574   1.024 -0.4938 -0.8061  0.8274
 3081TIP3   OH2 9181   0.744   1.404   4.327  0.2958  0.0750  0.2042
 3081TIP3    H1 9182   0.736   1.407   4.422  0.2078  0.2808  0.1919
 3081TIP3    H2 9183   0.802   1.330   4.310 -1.4769 -1.3728  0.3094
 3082TIP3   OH2 9184   8.124   3.233   2.502  0.1896 -0.1184 -0.4602
 3082TIP3    H1 9185   8.098   3.193   2.585 -2.5946  1.9564 -0.2536
 3082TIP3    H2 9186   8.212   3.269   2.519 -0.1537 -0.1285  1.4570
 3083TIP3   OH2 9187   1.117   3.121   0.635 -0.0294  0.3485  0.5505
 3083TIP3    H1 9188   1.120   3.068   0.714 -0.1472 -0.1073  0.2521
 3083TIP3    H2 9189   1.024   3.139   0.622  0.0031  0.5620  0.6045
 3084TIP3   OH2 9190   8.024   2.056   2.205 -0.0030  0.2485 -0.0199
 3084TIP3    H1 9191   8.072   2.127   2.163 -1.1058  1.3411  0.5150
 3084TIP3    H2 9192   8.023   1.986   2.141  0.2160  1.0979 -0.9650
 3085TIP3   OH2 9193   3.927   7.835   1.495 -0.1752 -0.3363 -0.0485
 3085TIP3    H1 9194   3.839   7.802   1.512 -0.2194 -2.3389 -3.7301
 3085TIP3    H2 9195   3.913   7.920   1.453 -0.3895 -0.8063 -0.9446
 3086TIP3   OH2 9196   7.950   2.541   2.134  0.5602  0.3337  0.2984
 3086TIP3    H1 9197   8.020   2.607   2.125 -0.2418  1.1073 -0.3339
 3086TIP3    H2 9198   7.869   2.592   2.132 -0.0165 -0.5332  1.3952
 3087TIP3   OH2 9199   8.190   4.646   2.350  0.0383 -0.1638  0.4409
 3087TIP3    H1 9200   8.210   4.566   2.302 -0.5487 -0.4919  0.7508
 3087TIP3    H2 9201   8.234   4.715   2.300 -1.0196 -0.4245 -0.8792
 3088TIP3   OH2 9202   0.811   1.747   0.218 -0.4930 -0.1527  0.1136
 3088TIP3    H1 9203   0.874   1.689   0.175 -0.0604  0.6398 -0.3587
 3088TIP3    H2 9204   0.866   1.806   0.270 -0.8382  0.5393 -0.2970
 3089TIP3   OH2 9205   7.325   2.179   2.699 -0.2408 -0.3213  0.1083
 3089TIP3    H1 9206   7.396   2.166   2.636 -2.8860 -2.1472 -2.6895
 3089TIP3    H2 9207   7.347   2.121   2.772  1.4312 -0.4096 -0.4392
 3090TIP3   OH2 9208   7.954   2.275   0.865 -0.3884  0.5714  0.6398
 3090TIP3    H1 9209   8.027   2.217   0.890  0.3258  0.8524 -0.7630
 3090TIP3    H2 9210   7.919   2.237   0.785 -0.0592  1.9560 -0.1721
 3091TIP3   OH2 9211   2.644   3.415   1.973  0.1361  0.7110  0.2458
 3091TIP3    H1 9212   2.699   3.343   2.004 -0.8797  0.2594  1.0557
 3091TIP3    H2 9213   2.616   3.388   1.886  0.5520  0.5618  0.1612
 3092TIP3   OH2 9214   7.696   2.753   5.384 -0.5789  0.1052 -0.2529
 3092TIP3    H1 9215   7.703   2.688   5.314  0.5743  1.6569 -1.6013
 3092TIP3    H2 9216   7.760   2.724   5.449 -2.2512 -1.8224  0.6003
 3093TIP3   OH2 9217   6.678   2.009   2.753  0.2384  0.1380  0.7145
 3093TIP3    H1 9218   6.737   2.080   2.729 -1.4525  0.4577 -2.9860
 3093TIP3    H2 9219   6.614   2.049   2.811  0.8032  1.0298  0.7253
 3094TIP3   OH2 9220   7.099   2.571   1.253  0.4724  0.0138 -0.7272
 3094TIP3    H1 9221   7.151   2.508   1.203  1.2150  0.0025  0.0318
 3094TIP3    H2 9222   7.043   2.614   1.188 -2.0966 -3.3781 -0.8738
 3095TIP3   OH2 9223   6.482   2.664   2.589 -0.4561 -0.1125 -0.3001
 3095TIP3    H1 9224   6.439   2.749   2.585  2.4524  1.3676 -1.5974
 3095TIP3    H2 9225   6.521   2.652   2.502  0.4244 -2.0903  0.3282
 3096TIP3   OH2 9226   5.779   6.199   1.541  0.0731  0.2697 -0.2024
 3096TIP3    H1 9227   5.773   6.293   1.559 -0.9221  0.1652  0.0321
 3096TIP3    H2 9228   5.708   6.182   1.481 -0.2215 -0.4779  0.3579
 3097TIP3   OH2 9229   1.700   2.911   3.282 -0.1068  0.4165  0.1475
 3097TIP3    H1 9230   1.616   2.958   3.278 -0.4701 -0.0445  1.9131
 3097TIP3    H2 9231   1.707   2.867   3.198 -2.4448 -0.9051  0.6136
 3098TIP3   OH2 9232   1.709   1.639   1.725  0.3248 -0.2837  0.1836
 3098TIP3    H1 9233   1.692   1.548   1.703  0.7080 -0.8711  2.1790
 3098TIP3    H2 9234   1.745   1.677   1.645 -1.9916 -1.2726 -1.3572
 3099TIP3   OH2 9235   8.110   2.660   2.688  0.4345  0.2268 -0.4026
 3099TIP3    H1 9236   8.059   2.594   2.735  0.1866  0.2633 -0.6189
 3099TIP3    H2 9237   8.049   2.697   2.624  0.9037 -0.1728 -1.0968
 3100TIP3   OH2 9238   6.365   1.597   2.951  0.1910 -0.1022 -0.3828
 3100TIP3    H1 9239   6.327   1.684   2.962 -0.7406 -0.5641  0.1327
 3100TIP3    H2 9240   6.289   1.538   2.950  0.7789 -0.8539 -1.2564
 3101TIP3   OH2 9241   3.450   3.693   2.126  0.2588 -0.0224  0.3777
 3101TIP3    H1 9242   3.519   3.758   2.118 -0.8715  1.2555  0.7361
 3101TIP3    H2 9243   3.455   3.642   2.045 -0.3982  2.1092 -1.0545
 3102TIP3   OH2 9244   4.490   6.869   6.696  0.0813  0.4663 -0.1417
 3102TIP3    H1 9245   4.561   6.930   6.718  0.9180 -0.7555  0.6649
 3102TIP3    H2 9246   4.434   6.917   6.636  2.6705  0.8152 -2.3916
 3103TIP3   OH2 9247   7.636   3.495   1.644 -0.2649  0.3035  0.0148
 3103TIP3    H1 9248   7.637   3.565   1.710  0.5944 -0.4918  0.8740
 3103TIP3    H2 9249   7.707   3.517   1.584 -0.1196  0.2825  0.1778
 3104TIP3   OH2 9250   7.863   2.420   1.105 -0.0159  0.2004 -0.2995
 3104TIP3    H1 9251   7.876   2.427   1.200  0.0144  0.9522 -0.3631
 3104TIP3    H2 9252   7.870   2.326   1.088 -0.6589 -0.0165  0.5410
 3105TIP3   OH2 9253   4.037   3.874   5.562  0.5965 -0.0092 -0.4890
 3105TIP3    H1 9254   4.104   3.822   5.517  0.2421  0.6639 -1.8318
 3105TIP3    H2 9255   3.960   3.869   5.505  0.3107  1.3271 -0.2495
 3106TIP3   OH2 9256   7.813   4.459   1.603  0.0116  0.2270 -0.0375
 3106TIP3    H1 9257   7.764   4.428   1.527 -1.0194  0.9403  0.3314
 3106TIP3    H2 9258   7.886   4.509   1.566 -0.9935  1.3406 -0.5593
 3107TIP3   OH2 9259   8.097   4.101   1.022 -0.0581 -0.1098 -0.2719
 3107TIP3    H1 9260   8.123   4.168   0.960 -0.4134 -0.1014 -0.4090
 3107TIP3    H2 9261   8.180   4.061   1.050  0.0347 -0.9742 -1.7113
 3108TIP3   OH2 9262   6.553   5.198   2.838  0.0853  0.3382  0.4530
 3108TIP3    H1 9263   6.540   5.153   2.922  1.6215  0.1377  0.5896
 3108TIP3    H2 9264   6.512   5.284   2.851 -1.8987 -0.5925  0.5556
 3109TIP3   OH2 9265   4.612   0.107   5.948 -0.7091  0.7671 -0.8796
 3109TIP3    H1 9266   4.536   0.075   5.997 -0.8810 -0.4478 -1.9063
 3109TIP3    H2 9267   4.649   0.029   5.908  2.3403  1.0551  1.2639
 3110TIP3   OH2 9268   5.225   2.510   1.179 -0.5195 -0.3653  0.2892
 3110TIP3    H1 9269   5.180   2.543   1.257 -1.3638 -0.1871 -0.2618
 3110TIP3    H2 9270   5.266   2.588   1.140 -0.7251 -0.3244  0.1521
 3111TIP3   OH2 9271   6.976   2.512   3.063 -0.0691 -0.5209 -0.8104
 3111TIP3    H1 9272   7.058   2.464   3.078 -0.5438 -1.7954 -2.2139
 3111TIP3    H2 9273   6.986   2.548   2.975 -0.3281  0.7511 -0.3313
 3112TIP3   OH2 9274   0.618   3.983   1.405 -0.1435  0.1589 -0.3046
 3112TIP3    H1 9275   0.690   4.040   1.433 -0.1122  1.1271 -2.2462
 3112TIP3    H2 9276   0.661   3.906   1.370 -0.0583  0.5707 -1.1125
 3113TIP3   OH2 9277   0.050   2.404   1.898 -0.0086  0.6136  0.0188
 3113TIP3    H1 9278   0.124   2.459   1.923  1.7728 -1.8923  0.4854
 3113TIP3    H2 9279   0.075   2.366   1.814 -0.3032 -1.0217  0.6535
 3114TIP3   OH2 9280   0.677   2.529   3.658  0.1538 -0.6567  0.2087
 3114TIP3    H1 9281   0.754   2.541   3.713 -0.1675 -0.1081  0.5381
 3114TIP3    H2 9282   0.697   2.576   3.577 -0.4327  0.7214  0.8599
 3115TIP3   OH2 9283   7.979   0.162   2.080 -0.1222  0.5176  0.0692
 3115TIP3    H1 9284   7.890   0.163   2.045 -0.0829 -0.2115 -0.0596
 3115TIP3    H2 9285   8.034   0.141   2.004  0.0637 -0.0131  0.3440
 3116TIP3   OH2 9286   2.500   4.739   6.782 -0.1970 -0.2544 -0.3756
 3116TIP3    H1 9287   2.514   4.685   6.860  0.2112 -1.6216 -1.3677
 3116TIP3    H2 9288   2.581   4.728   6.731  0.1246  1.7725 -0.3267
 3117TIP3   OH2 9289   0.566   2.989   0.483  0.4481 -0.1945  0.0358
 3117TIP3    H1 9290   0.534   3.044   0.555  1.2803  0.2693  0.0595
 3117TIP3    H2 9291   0.492   2.983   0.423 -0.1074 -0.2038  0.7125
 3118TIP3   OH2 9292   6.915   0.315   2.764 -0.0260 -0.2925  0.0637
 3118TIP3    H1 9293   7.005   0.290   2.745  0.4203  0.3719  1.2488
 3118TIP3    H2 9294   6.919   0.409   2.782 -0.9788 -0.2226 -0.0391
 3119TIP3   OH2 9295   1.847   1.770   2.674  0.0811  0.3041 -0.1490
 3119TIP3    H1 9296   1.754   1.768   2.651  0.0155  0.7360  0.0708
 3119TIP3    H2 9297   1.893   1.742   2.595 -0.3209 -1.4862  0.2238
 3120TIP3   OH2 9298   8.428   0.662   3.293 -0.1954 -0.1611  0.3981
 3120TIP3    H1 9299   8.486   0.661   3.369  0.9568 -0.0807 -0.4648
 3120TIP3    H2 9300   8.386   0.576   3.294  2.3192 -1.4820 -0.7264
 3121TIP3   OH2 9301   7.653   3.433   3.136  0.5141 -0.0913 -0.1673
 3121TIP3    H1 9302   7.655   3.346   3.097 -0.7920  0.3952 -1.3665
 3121TIP3    H2 9303   7.742   3.446   3.169  0.5557 -2.1310  0.6231
 3122TIP3   OH2 9304   7.916   0.850   2.209 -0.2850  0.1022 -0.5270
 3122TIP3    H1 9305   7.944   0.864   2.299  0.5867 -1.0260 -0.6207
 3122TIP3    H2 9306   7.989   0.881   2.156 -0.8243  0.8298 -0.8630
 3123TIP3   OH2 9307   1.601   0.056   1.205  0.4207 -0.2282 -0.3117
 3123TIP3    H1 9308   1.563   0.075   1.291 -1.3544  1.5888 -1.4549
 3123TIP3    H2 9309   1.560  -0.025   1.177 -0.1494 -0.0148 -0.0973
 3124TIP3   OH2 9310   0.158   2.303   1.471 -0.5824 -0.6071  0.1862
 3124TIP3    H1 9311   0.101   2.375   1.502  0.6810  0.0227  1.0798
 3124TIP3    H2 9312   0.201   2.271   1.550  3.2634  1.5140 -0.9394
 3125TIP3   OH2 9313   2.012   1.776   2.444  0.6670 -0.5586 -0.5625
 3125TIP3    H1 9314   1.948   1.839   2.411  0.7493 -1.0149 -1.6351
 3125TIP3    H2 9315   2.081   1.775   2.377  1.6985 -0.2196  0.4913
 3126TIP3   OH2 9316   1.948   2.658   3.655 -0.0757  0.0028 -0.1169
 3126TIP3    H1 9317   1.912   2.680   3.569 -0.3380 -0.0133 -0.0133
 3126TIP3    H2 9318   2.027   2.710   3.663 -1.0903  1.4884  0.4471
 3127TIP3   OH2 9319   7.268   1.601   1.704 -0.1590  0.3822  0.0945
 3127TIP3    H1 9320   7.330   1.672   1.690 -0.6481  0.8589  0.3408
 3127TIP3    H2 9321   7.190   1.643   1.739 -1.9119  0.2372 -3.4386
 3128TIP3   OH2 9322   7.844   4.155   3.009 -0.0768 -0.6809 -0.1085
 3128TIP3    H1 9323   7.760   4.114   2.989 -0.1647  0.4392 -2.1577
 3128TIP3    H2 9324   7.892   4.154   2.926  1.1892  0.3881  0.5900
 3129TIP3   OH2 9325   0.906   3.907   2.886  0.1262  0.5245  0.4011
 3129TIP3    H1 9326   0.832   3.856   2.919  0.5250 -0.0423  0.4244
 3129TIP3    H2 9327   0.866   3.977   2.835 -0.3928 -0.6465 -0.8235
 3130TIP3   OH2 9328   8.056   4.228   2.285  0.3511  0.0034 -0.1573
 3130TIP3    H1 9329   8.007   4.217   2.203 -0.7941  1.6372  0.2877
 3130TIP3    H2 9330   8.128   4.287   2.262  0.7386 -0.5050 -0.2591
 3131TIP3   OH2 9331   7.433   3.806   0.983  0.1418 -0.2224  0.1850
 3131TIP3    H1 9332   7.487   3.876   1.019 -0.0093  0.3707 -0.7453
 3131TIP3    H2 9333   7.478   3.779   0.903 -0.7819  0.0739 -0.4388
 3132TIP3   OH2 9334   2.233   2.307   2.497  0.0578 -0.4313 -0.5326
 3132TIP3    H1 9335   2.213   2.255   2.419 -0.2880 -1.2200  0.0781
 3132TIP3    H2 9336   2.187   2.390   2.483  1.7664  0.2534 -2.1574
 3133TIP3   OH2 9337   7.805   2.784   1.791 -0.5054 -0.2634 -0.7843
 3133TIP3    H1 9338   7.779   2.769   1.882  0.3863 -0.1816 -0.5047
 3133TIP3    H2 9339   7.725   2.771   1.740 -0.9480 -0.5862 -0.0137
 3134TIP3   OH2 9340   6.160   4.115   2.010 -0.2077  0.8278  0.3216
 3134TIP3    H1 9341   6.226   4.121   1.941 -0.3615  1.3873  0.2231
 3134TIP3    H2 9342   6.210   4.121   2.091 -0.0253  0.1573  0.2608
 3135TIP3   OH2 9343   6.334   0.737   3.554  0.2412  0.1367 -0.0749
 3135TIP3    H1 9344   6.242   0.712   3.568  0.5597 -1.0750 -0.1044
 3135TIP3    H2 9345   6.352   0.714   3.463  0.8684 -0.5550  0.2221
 3136TIP3   OH2 9346   6.755   2.275   3.456 -0.1027 -0.2358  0.7332
 3136TIP3    H1 9347   6.728   2.330   3.382 -1.3592 -2.2283 -0.3227
 3136TIP3    H2 9348   6.674   2.233   3.485  0.4785  0.0961  2.9158
 3137TIP3   OH2 9349   8.435   3.935   0.428  0.0439 -0.2253 -0.6232
 3137TIP3    H1 9350   8.519   3.930   0.382  1.1062 -0.4517  1.2824
 3137TIP3    H2 9351   8.437   3.861   0.489 -0.9020  0.6227  0.4593
 3138TIP3   OH2 9352   0.581   1.895   1.651 -0.0447  0.9577 -0.1424
 3138TIP3    H1 9353   0.579   1.900   1.747  0.1263 -1.6733  0.0326
 3138TIP3    H2 9354   0.670   1.870   1.630 -0.9370 -1.8806 -0.7511
 3139TIP3   OH2 9355   0.061   1.252   2.087  0.7819  0.7024  0.1462
 3139TIP3    H1 9356   0.140   1.240   2.140  0.0232 -1.9940  0.7423
 3139TIP3    H2 9357   0.079   1.204   2.006 -0.7081 -1.0764  0.8236
 3140TIP3   OH2 9358   8.308   0.465   2.077 -0.0488  0.0760  0.4048
 3140TIP3    H1 9359   8.385   0.454   2.021  0.3928 -0.3959  1.1003
 3140TIP3    H2 9360   8.234   0.444   2.019  0.3209  0.8641 -0.3538
 3141TIP3   OH2 9361   4.487   2.115   3.213 -0.5203  0.7137  0.3044
 3141TIP3    H1 9362   4.494   2.203   3.251 -0.3604  0.7302  0.2390
 3141TIP3    H2 9363   4.549   2.117   3.139 -1.0419  0.7791 -0.1349
 3142TIP3   OH2 9364   7.959   2.682   2.477 -0.2000  0.1587 -0.1575
 3142TIP3    H1 9365   7.912   2.601   2.457  0.6662 -0.1405 -1.0312
 3142TIP3    H2 9366   7.910   2.750   2.431 -0.3741 -0.0102 -0.2229
 3143TIP3   OH2 9367   8.484   5.488   5.565 -0.2120  0.4547 -0.0303
 3143TIP3    H1 9368   8.546   5.453   5.629 -0.9307  1.4800  1.2468
 3143TIP3    H2 9369   8.433   5.411   5.537  0.1692 -0.0087  0.5416
 3144TIP3   OH2 9370   1.621   3.272   1.452 -0.0821  0.2998  0.0010
 3144TIP3    H1 9371   1.652   3.240   1.367 -0.4688 -3.3674  1.1108
 3144TIP3    H2 9372   1.534   3.233   1.461 -0.5864  1.7690  1.4834
 3145TIP3   OH2 9373   6.081   0.646   2.305 -0.3900  0.8881 -0.2301
 3145TIP3    H1 9374   5.998   0.676   2.267  0.2320  1.2724 -1.3265
 3145TIP3    H2 9375   6.125   0.727   2.331 -0.0430  0.7300 -0.3335
 3146TIP3   OH2 9376   1.147   3.355   1.584  0.9209 -0.1334  0.1955
 3146TIP3    H1 9377   1.119   3.334   1.495  0.0722  0.6979  0.2458
 3146TIP3    H2 9378   1.217   3.419   1.573  1.0128 -0.2489  0.1149
 3147TIP3   OH2 9379   7.812   4.251   2.420 -0.4998  0.3937  0.2410
 3147TIP3    H1 9380   7.902   4.240   2.390  0.0895 -1.2734  2.4856
 3147TIP3    H2 9381   7.816   4.234   2.514 -3.2627 -0.1562  0.2977
 3148TIP3   OH2 9382   6.063   3.795   2.600 -0.3155 -0.3044  0.1571
 3148TIP3    H1 9383   6.066   3.708   2.639  0.7346 -1.4122 -2.2794
 3148TIP3    H2 9384   6.138   3.842   2.638  1.0694 -1.5740 -0.9438
 3149TIP3   OH2 9385   0.801   3.786   1.352 -0.4776 -0.4674 -0.0895
 3149TIP3    H1 9386   0.847   3.778   1.269  0.1963 -2.1979  0.4444
 3149TIP3    H2 9387   0.852   3.735   1.414 -1.8061 -0.4557  1.0510
 3150TIP3   OH2 9388   8.114   2.945   2.964 -0.3870 -0.2985  0.1598
 3150TIP3    H1 9389   8.144   2.854   2.960  1.7507  0.3045  1.4359
 3150TIP3    H2 9390   8.121   2.977   2.874 -0.1580 -1.1176 -0.1118
 3151TIP3   OH2 9391   8.047   3.931   0.643 -0.0074  0.0012 -0.0438
 3151TIP3    H1 9392   8.102   3.893   0.711 -0.9978 -0.4051  0.5480
 3151TIP3    H2 9393   8.099   4.003   0.607  0.5704  0.1502  1.0639
 3152TIP3   OH2 9394   0.694   3.315   1.401 -0.3873  0.5944 -0.5178
 3152TIP3    H1 9395   0.644   3.394   1.424 -0.7886  0.7797 -1.9423
 3152TIP3    H2 9396   0.627   3.251   1.376 -0.1282 -0.5784  1.6923
 3153TIP3   OH2 9397   0.835   2.953   0.722 -0.5452 -0.1703 -0.2818
 3153TIP3    H1 9398   0.895   2.916   0.657 -0.1704 -0.1009  0.0261
 3153TIP3    H2 9399   0.800   3.031   0.679 -0.5602 -0.3163 -0.5363
 3154TIP3   OH2 9400   7.841   1.955   1.915  1.2350  0.8199 -0.0093
 3154TIP3    H1 9401   7.841   2.050   1.927  2.2775  0.7348  0.6690
 3154TIP3    H2 9402   7.748   1.930   1.920  1.1390  1.5215  1.9658
 3155TIP3   OH2 9403   3.239   6.281   6.670 -0.4128  0.1987 -0.5959
 3155TIP3    H1 9404   3.256   6.343   6.741  0.2882  1.5087 -1.8629
 3155TIP3    H2 9405   3.260   6.195   6.707 -1.4094  0.7051  1.2020
 3156TIP3   OH2 9406   6.732   2.927   3.327  0.3451  0.0292  0.0449
 3156TIP3    H1 9407   6.703   2.852   3.275  0.7615 -1.0143  1.2806
 3156TIP3    H2 9408   6.823   2.908   3.349  0.1115  0.3369  1.3249
 3157TIP3   OH2 9409   7.995   4.357   0.824 -0.1418 -0.0633  0.0525
 3157TIP3    H1 9410   7.974   4.445   0.854 -1.2679 -0.2089 -0.2825
 3157TIP3    H2 9411   7.918   4.330   0.774  0.5158 -0.9343 -0.5111
 3158TIP3   OH2 9412   7.919   1.092   3.430 -0.2505 -0.3339 -0.3302
 3158TIP3    H1 9413   7.997   1.037   3.424  1.0379  1.3208  0.6914
 3158TIP3    H2 9414   7.883   1.074   3.516 -0.3498 -0.2364 -0.3506
 3159TIP3   OH2 9415   7.134   0.898   1.634 -0.3787  0.0306 -0.9536
 3159TIP3    H1 9416   7.045   0.870   1.658  0.5885 -0.8900  1.6915
 3159TIP3    H2 9417   7.121   0.981   1.588 -2.6572 -0.4314 -1.2240
 3160TIP3   OH2 9418   4.174   6.958   4.422 -0.0577 -0.4129  0.0976
 3160TIP3    H1 9419   4.256   6.939   4.468  0.0645  0.0821  0.0837
 3160TIP3    H2 9420   4.110   6.901   4.464  0.6889 -2.2662 -1.2047
 3161TIP3   OH2 9421   7.673   7.881   3.729 -0.0899 -0.2332  0.3708
 3161TIP3    H1 9422   7.623   7.832   3.663 -0.3491  2.1910 -1.2654
 3161TIP3    H2 9423   7.613   7.948   3.759  2.5453  3.7526 -2.7649
 3162TIP3   OH2 9424   1.134   2.560   2.482  0.0003 -0.2040 -0.4993
 3162TIP3    H1 9425   1.126   2.466   2.501  0.7141 -0.0328  0.7484
 3162TIP3    H2 9426   1.131   2.565   2.387  0.5261 -1.5652 -0.6101
 3163TIP3   OH2 9427   2.543   5.617   6.409  0.8653  0.5929  0.1019
 3163TIP3    H1 9428   2.519   5.594   6.499 -0.6081  0.1254 -0.3953
 3163TIP3    H2 9429   2.512   5.707   6.398  0.2630  0.3584 -0.1920
 3164TIP3   OH2 9430   5.971   2.108   1.334 -0.1206 -0.9326 -0.6512
 3164TIP3    H1 9431   5.885   2.125   1.296 -0.4173 -1.0589 -0.0312
 3164TIP3    H2 9432   5.966   2.141   1.423  1.3228  1.4574 -1.4005
 3165TIP3   OH2 9433   1.476   2.624   6.583  0.0645 -0.4048 -0.0955
 3165TIP3    H1 9434   1.486   2.565   6.658  0.6346 -0.0245  0.1312
 3165TIP3    H2 9435   1.428   2.573   6.518  1.4621 -1.4830 -0.3054
 3166TIP3   OH2 9436   7.505   1.526   2.685  0.8644  0.0289  0.5219
 3166TIP3    H1 9437   7.558   1.450   2.659  0.2793  0.2672 -1.4356
 3166TIP3    H2 9438   7.568   1.586   2.725  1.4181 -1.2594  1.6467
 3167TIP3   OH2 9439   0.156   4.756   4.464  0.2076 -0.6250 -0.1033
 3167TIP3    H1 9440   0.180   4.799   4.382 -0.3458 -2.0329 -1.0169
 3167TIP3    H2 9441   0.187   4.666   4.454  0.8722 -0.5998  1.5652
 3168TIP3   OH2 9442   6.971   3.067   0.622 -0.3210  0.3786 -0.0051
 3168TIP3    H1 9443   7.008   3.116   0.695 -0.7274 -0.2646  0.6477
 3168TIP3    H2 9444   7.006   2.978   0.633 -0.9395  0.1096 -0.1764
 3169TIP3   OH2 9445   5.920   1.445   2.541  0.2277  0.9704 -0.1561
 3169TIP3    H1 9446   5.931   1.527   2.588  0.5635  2.7028 -3.1279
 3169TIP3    H2 9447   6.003   1.398   2.555  0.2126  1.3356  1.1814
 3170TIP3   OH2 9448   4.787   7.264   2.804 -0.2281 -0.2614  0.1197
 3170TIP3    H1 9449   4.817   7.256   2.894  2.6818  0.0830 -0.7614
 3170TIP3    H2 9450   4.857   7.224   2.752 -0.9435  1.2521 -2.0765
 3171TIP3   OH2 9451   7.023   0.281   3.113  0.0919 -0.0506 -0.0536
 3171TIP3    H1 9452   6.956   0.349   3.117  0.7492  0.5440  1.0211
 3171TIP3    H2 9453   7.097   0.323   3.071  0.9208  0.2826  1.6845
 3172TIP3   OH2 9454   5.920   3.230   1.367  0.3454  0.3615  0.4129
 3172TIP3    H1 9455   5.992   3.278   1.327  0.0518  0.1884 -0.3328
 3172TIP3    H2 9456   5.845   3.291   1.362  0.1855  0.1502  0.2502
 3173TIP3   OH2 9457   0.586   2.925   1.177  0.2593 -0.7980  0.5991
 3173TIP3    H1 9458   0.659   2.955   1.123 -1.3469  1.2041 -0.5481
 3173TIP3    H2 9459   0.515   2.909   1.114 -0.7592 -1.2901  1.8363
 3174TIP3   OH2 9460   8.152   4.347   1.878 -0.2015  0.0948 -0.0600
 3174TIP3    H1 9461   8.167   4.270   1.823 -0.3175  0.8540 -1.1775
 3174TIP3    H2 9462   8.058   4.364   1.871  0.4562  2.9409 -3.4248
 3175TIP3   OH2 9463   7.503   2.438   0.698  0.4707 -0.1141 -0.6076
 3175TIP3    H1 9464   7.449   2.485   0.634  0.5237  0.0737 -0.5142
 3175TIP3    H2 9465   7.499   2.346   0.670 -1.5979 -0.4347  0.5733
 3176TIP3   OH2 9466   1.027   4.345   1.930 -0.1305 -0.5757  0.1601
 3176TIP3    H1 9467   0.935   4.372   1.938 -0.0271  0.3959 -1.6800
 3176TIP3    H2 9468   1.071   4.394   2.000 -0.4307  1.8677 -1.3010
 3177TIP3   OH2 9469   6.940   4.345   1.113 -0.3277  0.2454 -0.6324
 3177TIP3    H1 9470   6.935   4.276   1.047  0.2631 -0.7703  0.3701
 3177TIP3    H2 9471   6.894   4.309   1.189 -0.9529  1.3787 -0.4702
 3178TIP3   OH2 9472   1.126   5.256   2.340 -0.4372 -0.6949 -0.1136
 3178TIP3    H1 9473   1.077   5.325   2.384  0.6538 -0.5492  0.8743
 3178TIP3    H2 9474   1.212   5.259   2.380  0.9965  0.3119 -3.1344
 3179TIP3   OH2 9475   6.325   1.347   6.115  0.1786 -0.2388 -0.0276
 3179TIP3    H1 9476   6.393   1.366   6.179 -0.0996 -0.5938  0.3773
 3179TIP3    H2 9477   6.251   1.402   6.142  0.2122 -0.0572 -0.3045
 3180TIP3   OH2 9478   0.271   4.011   1.979  0.6527  0.0487  0.2581
 3180TIP3    H1 9479   0.289   4.064   2.057  0.3356 -0.6935  0.8468
 3180TIP3    H2 9480   0.322   4.052   1.909 -0.9854  2.1812  0.2928
 3181TIP3   OH2 9481   6.370   1.280   1.011 -0.4081  0.0242 -0.3410
 3181TIP3    H1 9482   6.444   1.332   1.041 -0.5371  0.6453 -1.0856
 3181TIP3    H2 9483   6.382   1.195   1.054  0.9461 -0.0073 -0.7565
 3182TIP3   OH2 9484   8.513   3.006   1.771 -0.0035  0.3870  0.4188
 3182TIP3    H1 9485   8.430   3.025   1.728 -0.2393 -0.3987  0.5257
 3182TIP3    H2 9486   8.535   3.086   1.818  0.3336  1.3234 -1.2921
 3183TIP3   OH2 9487   6.904   1.985   1.673 -0.1175  0.4217  0.7916
 3183TIP3    H1 9488   6.945   2.065   1.706  0.0634  0.1562  1.2204
 3183TIP3    H2 9489   6.897   1.998   1.579 -0.8106  1.2745  0.9451
 3184TIP3   OH2 9490   6.738   1.114   2.383 -0.3398 -0.2482 -0.1621
 3184TIP3    H1 9491   6.745   1.208   2.368 -0.7688 -0.2611 -0.4330
 3184TIP3    H2 9492   6.715   1.106   2.476  0.3241 -0.1095  0.0182
 3185TIP3   OH2 9493   0.570   2.968   3.440 -0.3477  0.2248 -0.4053
 3185TIP3    H1 9494   0.590   3.053   3.478  1.3057  0.1015 -0.9800
 3185TIP3    H2 9495   0.639   2.953   3.375 -1.0900 -1.1745 -0.9066
 3186TIP3   OH2 9496   1.590   5.659   6.581  0.6481 -0.1546  0.1634
 3186TIP3    H1 9497   1.583   5.576   6.628  0.6651 -0.1928  0.0974
 3186TIP3    H2 9498   1.518   5.657   6.519  0.7469 -0.1911  0.0493
 3187TIP3   OH2 9499   0.173   4.297   0.992  0.3588 -0.2247 -0.3970
 3187TIP3    H1 9500   0.102   4.237   0.971  1.0703 -0.2150 -2.9395
 3187TIP3    H2 9501   0.251   4.242   0.997  0.6304  0.1566 -0.4091
 3188TIP3   OH2 9502   8.433   2.300   3.625  0.2313 -0.7961 -0.4737
 3188TIP3    H1 9503   8.480   2.319   3.707  1.1449 -0.2269 -1.1244
 3188TIP3    H2 9504   8.357   2.249   3.653  0.7118 -0.8932  0.7008
 3189TIP3   OH2 9505   5.287   2.814   4.360 -0.1067  0.2541  0.4518
 3189TIP3    H1 9506   5.237   2.738   4.328  0.5188  0.1359 -0.2614
 3189TIP3    H2 9507   5.240   2.889   4.325 -0.2965  0.1747  0.5322
 3190TIP3   OH2 9508   7.777   3.499   2.844  0.9114  0.3326 -0.2399
 3190TIP3    H1 9509   7.721   3.460   2.911 -0.8827  0.7173 -1.4881
 3190TIP3    H2 9510   7.725   3.570   2.807  1.9869  0.3220 -1.8312
 3191TIP3   OH2 9511   0.526   1.642   2.302  0.6006 -0.2597  0.0554
 3191TIP3    H1 9512   0.580   1.616   2.376  2.0879 -0.7805 -1.1967
 3191TIP3    H2 9513   0.567   1.721   2.268 -0.6983  0.5892  0.4315
 3192TIP3   OH2 9514   1.329   2.087   1.362 -0.2245 -0.3864  0.1243
 3192TIP3    H1 9515   1.353   2.180   1.366 -1.3817 -0.1279  1.5915
 3192TIP3    H2 9516   1.256   2.079   1.424 -1.7319 -1.7979 -1.7952
 3193TIP3   OH2 9517   7.040   3.746   3.865 -0.3413  0.0328 -0.0197
 3193TIP3    H1 9518   6.953   3.729   3.901 -0.1677 -0.0308  0.3683
 3193TIP3    H2 9519   7.026   3.748   3.770 -0.5123 -1.5027 -0.0471
 3194TIP3   OH2 9520   1.000   4.811   4.453  0.0561  0.6365 -0.1840
 3194TIP3    H1 9521   1.078   4.858   4.480  0.8376 -0.6138 -0.2115
 3194TIP3    H2 9522   0.927   4.867   4.479  0.7852 -0.3314  4.2002
 3195TIP3   OH2 9523   0.386   0.414   4.451 -0.4726 -0.2504 -0.0092
 3195TIP3    H1 9524   0.449   0.389   4.518 -0.5414 -0.3802  0.0073
 3195TIP3    H2 9525   0.307   0.364   4.472 -0.4886 -0.3065 -0.1972
 3196TIP3   OH2 9526   6.567   2.839   2.955  0.1347  0.5868 -0.0050
 3196TIP3    H1 9527   6.566   2.779   3.030  0.0784  0.1156 -0.3806
 3196TIP3    H2 9528   6.659   2.858   2.940  0.1530  0.5922  0.1070
 3197TIP3   OH2 9529   2.934   1.063   2.841  0.3881  0.1946  0.0885
 3197TIP3    H1 9530   2.997   1.020   2.898  1.1087  0.3891 -0.5573
 3197TIP3    H2 9531   2.981   1.078   2.759 -1.0179 -1.2304 -1.0178
 3198TIP3   OH2 9532   0.709   2.192   1.224  0.1998 -0.0098 -0.1028
 3198TIP3    H1 9533   0.752   2.264   1.270  0.7531 -0.3900 -0.0058
 3198TIP3    H2 9534   0.768   2.117   1.237  0.4424 -0.0879 -1.5580
 3199TIP3   OH2 9535   0.100   1.605   4.364 -0.2866 -0.0184 -0.3307
 3199TIP3    H1 9536   0.074   1.661   4.290 -1.6572  1.7257  1.4050
 3199TIP3    H2 9537   0.191   1.628   4.380  0.1444 -0.6937 -1.7170
 3200TIP3   OH2 9538   2.609   1.536   4.250 -0.2623 -0.1897 -0.3925
 3200TIP3    H1 9539   2.625   1.447   4.219  0.5732  0.0887 -0.7898
 3200TIP3    H2 9540   2.657   1.540   4.333 -0.0091 -0.0099 -0.5449
 3201TIP3   OH2 9541   0.719   3.147   3.970  0.1345 -0.0326  0.2227
 3201TIP3    H1 9542   0.703   3.056   3.996 -1.4629  0.3574  0.6114
 3201TIP3    H2 9543   0.698   3.198   4.047  0.9103  0.6863 -0.0387
 3202TIP3   OH2 9544   0.266   2.162   3.469  0.2457 -0.2744 -0.3593
 3202TIP3    H1 9545   0.332   2.225   3.499  1.0744 -1.5754  0.6397
 3202TIP3    H2 9546   0.277   2.158   3.374  0.0430  1.2302 -0.4547
 3203TIP3   OH2 9547   0.227   1.720   2.366 -0.3936  0.1364  0.1699
 3203TIP3    H1 9548   0.311   1.680   2.389  0.9223  1.1181 -2.6769
 3203TIP3    H2 9549   0.163   1.650   2.377  1.5400 -2.1899 -2.4891
 3204TIP3   OH2 9550   8.524   5.217   2.071 -0.2629  0.4391 -0.8968
 3204TIP3    H1 9551   8.474   5.142   2.102  1.3317 -1.3579 -2.5727
 3204TIP3    H2 9552   8.461   5.268   2.019 -0.8773 -0.7504 -1.3326
 3205TIP3   OH2 9553   7.824   2.995   4.483  0.4673 -0.1120  0.4401
 3205TIP3    H1 9554   7.735   2.981   4.517  0.8246 -2.0995  0.5990
 3205TIP3    H2 9555   7.833   3.090   4.480 -2.3159  0.1868 -1.2382
 3206TIP3   OH2 9556   0.113   1.587   2.889 -0.6585  0.5223  0.7377
 3206TIP3    H1 9557   0.155   1.506   2.861 -0.8699  0.5164  0.4342
 3206TIP3    H2 9558   0.185   1.645   2.914 -0.4077  0.9846 -1.0251
 3207TIP3   OH2 9559   8.321   1.505   2.187  0.0840 -0.1122 -0.3991
 3207TIP3    H1 9560   8.234   1.474   2.162  0.2599 -0.7156 -0.2884
 3207TIP3    H2 9561   8.305   1.581   2.243 -0.4099 -1.2139  0.9779
 3208TIP3   OH2 9562   0.426   3.877   4.264 -0.0677  0.2567 -0.1467
 3208TIP3    H1 9563   0.381   3.853   4.183 -0.0136 -1.3600  0.2882
 3208TIP3    H2 9564   0.355   3.890   4.327  0.0190 -1.0673  0.2209
 3209TIP3   OH2 9565   0.374   3.392   1.312 -0.3285 -0.3622 -0.4087
 3209TIP3    H1 9566   0.405   3.336   1.241 -0.4046  0.5178 -1.1363
 3209TIP3    H2 9567   0.278   3.388   1.306 -0.3389 -0.4724 -0.2003
 3210TIP3   OH2 9568   6.925   2.768   4.529 -0.1723 -0.3322  0.1516
 3210TIP3    H1 9569   6.900   2.838   4.589  0.2431 -0.3396  0.3368
 3210TIP3    H2 9570   6.885   2.689   4.566  0.2625 -0.3725  0.5373
 3211TIP3   OH2 9571   7.252   3.733   4.388 -0.2022 -0.3555 -0.6256
 3211TIP3    H1 9572   7.309   3.683   4.329 -0.3480 -1.3588  0.0622
 3211TIP3    H2 9573   7.165   3.723   4.351 -0.1486 -0.0952 -0.8262
 3212TIP3   OH2 9574   2.633   4.406   3.266 -0.1973  0.3320  0.5842
 3212TIP3    H1 9575   2.603   4.343   3.201 -2.2830  0.2004  1.6458
 3212TIP3    H2 9576   2.720   4.375   3.290  0.7504  0.5491 -2.3104
 3213TIP3   OH2 9577   2.443   1.359   2.099 -0.0793  0.3510 -0.1620
 3213TIP3    H1 9578   2.384   1.373   2.024 -1.6570 -2.0017  0.5834
 3213TIP3    H2 9579   2.530   1.355   2.060 -0.8304 -0.3609 -1.8255
 3214TIP3   OH2 9580   2.421   2.579   3.214 -0.0834  0.0609 -0.7275
 3214TIP3    H1 9581   2.452   2.500   3.258 -0.9981  0.3000  0.3753
 3214TIP3    H2 9582   2.497   2.611   3.166  0.1311 -1.7910 -1.6280
 3215TIP3   OH2 9583   7.708   3.007   5.344 -0.3938 -0.3872  0.3853
 3215TIP3    H1 9584   7.671   2.919   5.349 -0.1554 -0.4809  0.5290
 3215TIP3    H2 9585   7.680   3.050   5.424 -0.9638 -0.1526  0.0610
 3216TIP3   OH2 9586   0.296   4.217   2.165  0.9824  0.2435 -0.3371
 3216TIP3    H1 9587   0.331   4.289   2.218  1.8911  0.0273 -0.6304
 3216TIP3    H2 9588   0.221   4.255   2.121  0.6697  0.6438  0.5193
 3217TIP3   OH2 9589   1.668   3.607   2.678 -0.9791 -0.3475 -0.4753
 3217TIP3    H1 9590   1.621   3.633   2.757  0.6088  0.3585  0.2733
 3217TIP3    H2 9591   1.626   3.656   2.608 -1.2321  0.4209  0.2009
 3218TIP3   OH2 9592   2.674   3.411   3.348  0.5368 -0.5601  0.4275
 3218TIP3    H1 9593   2.693   3.372   3.263 -2.2597 -2.1992  0.4865
 3218TIP3    H2 9594   2.724   3.359   3.411  2.2384  0.3600 -0.1558
 3219TIP3   OH2 9595   2.896   5.083   1.156 -0.0700 -0.0627  0.2101
 3219TIP3    H1 9596   2.859   5.149   1.214 -1.6727  0.0709 -0.9318
 3219TIP3    H2 9597   2.867   5.109   1.068  1.4763 -0.8107 -0.5415
 3220TIP3   OH2 9598   1.090   3.180   3.967 -0.2748  0.2978 -0.1140
 3220TIP3    H1 9599   1.127   3.144   3.887  0.7865  0.4821  0.2910
 3220TIP3    H2 9600   0.995   3.171   3.956 -0.0637 -1.3417 -0.5913
 3221TIP3   OH2 9601   7.626   2.921   0.968  0.4313  0.3367  0.3567
 3221TIP3    H1 9602   7.577   2.969   0.902 -0.6883 -0.8912  0.2849
 3221TIP3    H2 9603   7.561   2.896   1.033  0.9275 -1.4509  0.1803
 3222TIP3   OH2 9604   0.024   2.406   4.385  0.0064  0.1203 -0.2954
 3222TIP3    H1 9605  -0.009   2.399   4.296  2.0852  0.5679 -1.1414
 3222TIP3    H2 9606   0.084   2.331   4.394 -0.5172 -0.1779  0.8845
 3223TIP3   OH2 9607   4.689   7.426   3.414  0.2821 -0.1585  0.2821
 3223TIP3    H1 9608   4.656   7.512   3.387  0.3041 -0.6631 -1.3834
 3223TIP3    H2 9609   4.784   7.435   3.411  0.2840 -0.5989 -1.0626
 3224TIP3   OH2 9610   7.900   2.945   3.581 -0.2385  0.3717  0.0190
 3224TIP3    H1 9611   7.930   3.007   3.514 -3.1295  2.8482  0.8733
 3224TIP3    H2 9612   7.922   2.987   3.664  0.6555 -1.2756  0.6331
 3225TIP3   OH2 9613   1.483   3.695   2.475  0.6359  0.0552  0.0800
 3225TIP3    H1 9614   1.419   3.625   2.461 -2.2787  2.2756  1.4491
 3225TIP3    H2 9615   1.477   3.749   2.396 -0.3853  1.0967  0.8387
 3226TIP3   OH2 9616   0.070   4.193   4.354  0.2000 -0.3843 -0.5135
 3226TIP3    H1 9617   0.092   4.257   4.285 -0.6030  0.5142  0.0578
 3226TIP3    H2 9618   0.105   4.232   4.434 -0.7219 -0.4287 -0.0877
 3227TIP3   OH2 9619   3.266   3.143   2.134  0.2456 -0.1792 -0.2043
 3227TIP3    H1 9620   3.189   3.140   2.077 -0.2391 -2.2311  0.5305
 3227TIP3    H2 9621   3.230   3.144   2.223  1.0142  2.1000  0.1318
 3228TIP3   OH2 9622   1.102   3.479   3.198 -0.1931 -0.4409  0.3539
 3228TIP3    H1 9623   1.195   3.462   3.214  0.4840 -0.7639 -3.4460
 3228TIP3    H2 9624   1.094   3.574   3.204  0.3102 -0.4359  1.0286
 3229TIP3   OH2 9625   7.166   3.424   3.163 -0.0096  0.4523  0.3482
 3229TIP3    H1 9626   7.088   3.476   3.141 -0.7979 -0.4257  1.0146
 3229TIP3    H2 9627   7.221   3.483   3.213 -0.8093  0.7178  0.9301
 3230TIP3   OH2 9628   2.523   3.114   4.473  0.2419  0.1806 -0.0658
 3230TIP3    H1 9629   2.530   3.084   4.382 -1.0429  1.3543 -0.5785
 3230TIP3    H2 9630   2.456   3.058   4.512 -0.6397  0.9759 -0.4210
 3231TIP3   OH2 9631   6.892   2.352   5.888 -0.1028 -0.0740  0.1168
 3231TIP3    H1 9632   6.827   2.285   5.867  1.8495 -1.6945 -1.0199
 3231TIP3    H2 9633   6.964   2.335   5.826  1.1821  1.9744  0.9961
 3232TIP3   OH2 9634   1.623   2.057   1.745 -0.3122 -0.7418 -0.3744
 3232TIP3    H1 9635   1.619   2.147   1.714  0.1027  0.2023  2.1678
 3232TIP3    H2 9636   1.687   2.015   1.688  2.3692  1.6079  0.7539
 3233TIP3   OH2 9637   1.995   2.675   4.012  0.1292 -0.4923 -0.3426
 3233TIP3    H1 9638   2.043   2.743   4.058 -1.2756  0.8396 -0.8162
 3233TIP3    H2 9639   2.054   2.645   3.944  0.1343  1.4650 -1.2276
 3234TIP3   OH2 9640   1.332   6.108   2.248  0.5522 -0.1253  0.2077
 3234TIP3    H1 9641   1.275   6.177   2.284  1.4959  0.7419  0.0704
 3234TIP3    H2 9642   1.329   6.038   2.313  1.7799  1.1821  1.7017
 3235TIP3   OH2 9643   1.313   3.553   1.072 -0.2217  0.4994 -0.0398
 3235TIP3    H1 9644   1.237   3.587   1.119 -0.2116  1.4416 -0.6737
 3235TIP3    H2 9645   1.385   3.557   1.135 -0.1311  2.0835 -0.2278
 3236TIP3   OH2 9646   0.082   3.194   5.210 -0.4152 -0.0211 -0.1504
 3236TIP3    H1 9647   0.149   3.174   5.146 -1.1633 -0.5860 -0.7675
 3236TIP3    H2 9648   0.126   3.186   5.295  0.3154 -0.2678 -0.5547
 3237TIP3   OH2 9649   1.152   3.245   1.301 -0.3381  0.4786  0.2953
 3237TIP3    H1 9650   1.232   3.270   1.254 -0.5798  0.0816 -0.3442
 3237TIP3    H2 9651   1.166   3.153   1.324  0.4101  1.0805  2.3429
 3238TIP3   OH2 9652   0.354   4.855   3.611 -0.1221  0.6908  0.4672
 3238TIP3    H1 9653   0.350   4.914   3.536 -1.2528 -1.1559 -0.9894
 3238TIP3    H2 9654   0.433   4.803   3.596  0.9240  1.8607  1.7957
 3239TIP3   OH2 9655   0.359   4.288   4.230  0.3613 -0.2056 -0.0386
 3239TIP3    H1 9656   0.340   4.265   4.139 -0.4112  1.2152 -0.2561
 3239TIP3    H2 9657   0.448   4.256   4.245 -0.0939 -1.8746 -0.7886
 3240TIP3   OH2 9658   0.289   4.109   4.977  0.1430 -0.2254  0.8159
 3240TIP3    H1 9659   0.272   4.119   5.070 -0.5328  1.0957  0.5637
 3240TIP3    H2 9660   0.378   4.076   4.972 -0.4656 -2.0851  1.9848
 3241TIP3   OH2 9661   0.018   1.794   5.451  0.5377  0.4079  1.0096
 3241TIP3    H1 9662  -0.002   1.735   5.379  0.8597  1.2542  0.2190
 3241TIP3    H2 9663   0.071   1.741   5.511 -0.8140 -0.6848  1.2617
 3242TIP3   OH2 9664   2.218   1.706   5.333 -0.5877 -0.0299  0.2779
 3242TIP3    H1 9665   2.314   1.700   5.325 -0.6166 -0.7984  0.4677
 3242TIP3    H2 9666   2.185   1.652   5.261 -0.8607 -1.8980  1.7598
 3243TIP3   OH2 9667   0.144   3.931   4.321 -0.1477  0.0619  0.2020
 3243TIP3    H1 9668   0.147   4.022   4.348 -3.0173  0.4337 -0.5454
 3243TIP3    H2 9669   0.092   3.931   4.241  1.6993 -1.9779 -1.0619
 3244TIP3   OH2 9670   0.675   1.571   2.539 -0.0042  0.2973  0.2406
 3244TIP3    H1 9671   0.748   1.605   2.592  0.0709 -1.0608  1.0096
 3244TIP3    H2 9672   0.655   1.486   2.578 -1.3571  0.2374 -0.5943
 3245TIP3   OH2 9673   8.320   1.338   1.591 -0.4108 -0.3195  0.1128
 3245TIP3    H1 9674   8.340   1.369   1.679  0.1245 -2.5252  0.8036
 3245TIP3    H2 9675   8.245   1.280   1.602 -0.0193 -1.0132 -0.8009
 3246TIP3   OH2 9676   8.235   3.780   2.494 -0.3501  0.5327  0.2590
 3246TIP3    H1 9677   8.214   3.873   2.489  0.7377  0.7146 -1.3738
 3246TIP3    H2 9678   8.327   3.777   2.520 -0.2106 -0.0636 -0.2831
 3247TIP3   OH2 9679   4.837   8.032   4.812 -0.5492  0.4853  0.6540
 3247TIP3    H1 9680   4.804   7.948   4.782 -0.7055  1.0576 -0.8358
 3247TIP3    H2 9681   4.899   8.059   4.744  0.8406  0.7650  1.9861
 3248TIP3   OH2 9682   1.462   2.555   2.324 -0.2746 -0.1268 -0.0469
 3248TIP3    H1 9683   1.469   2.645   2.294 -0.1678  0.5826  2.0270
 3248TIP3    H2 9684   1.402   2.513   2.262  0.5701  1.0526 -1.6859
 3249TIP3   OH2 9685   7.975   3.535   5.044  0.0134  0.0040 -0.0286
 3249TIP3    H1 9686   7.932   3.468   4.991  0.3798  1.0147 -1.6348
 3249TIP3    H2 9687   7.954   3.617   5.000  0.0403  0.8972  1.6029
 3250TIP3   OH2 9688   0.278   4.928   1.677  0.1908  0.5672 -0.4858
 3250TIP3    H1 9689   0.266   4.840   1.642 -1.0775  0.7462 -0.5010
 3250TIP3    H2 9690   0.268   4.918   1.771  1.4314  0.4644 -0.3572
 3251TIP3   OH2 9691   0.140   1.819   4.163  0.3334 -0.6030 -0.0002
 3251TIP3    H1 9692   0.133   1.898   4.109 -1.0179 -0.2117  0.7027
 3251TIP3    H2 9693   0.211   1.769   4.124 -0.1878 -0.0271 -1.7451
 3252TIP3   OH2 9694   8.162   3.463   3.405 -0.4003  0.2025  0.4493
 3252TIP3    H1 9695   8.193   3.518   3.333 -0.3157 -0.0286  0.3085
 3252TIP3    H2 9696   8.215   3.383   3.398  0.4018  0.6318  1.4464
 3253TIP3   OH2 9697   1.887   1.219   1.666  0.6945  0.5039  0.3400
 3253TIP3    H1 9698   1.966   1.195   1.715  1.8026  2.9683 -0.1776
 3253TIP3    H2 9699   1.910   1.207   1.574  0.7438  2.0118  0.1509
 3254TIP3   OH2 9700   0.433   2.352   2.986 -0.0722 -0.3153  0.6472
 3254TIP3    H1 9701   0.440   2.441   3.022  1.4163 -0.5595  1.0045
 3254TIP3    H2 9702   0.421   2.364   2.892 -0.2617  0.2601  0.7424
 3255TIP3   OH2 9703   0.616   2.505   4.034  0.4762 -0.3246  0.0370
 3255TIP3    H1 9704   0.692   2.561   4.047  0.3997 -0.3811  0.7595
 3255TIP3    H2 9705   0.644   2.440   3.970  0.8220  0.0588 -0.1999
 3256TIP3   OH2 9706   1.180   2.130   1.803  0.4192 -0.0050 -0.2844
 3256TIP3    H1 9707   1.215   2.096   1.720 -0.4841 -0.5435 -0.4522
 3256TIP3    H2 9708   1.206   2.065   1.868  0.0403 -0.2178 -0.3482
 3257TIP3   OH2 9709   0.731   1.515   2.877  0.1538 -0.0064 -0.0881
 3257TIP3    H1 9710   0.710   1.463   2.799 -1.0013 -0.8069  0.7424
 3257TIP3    H2 9711   0.669   1.485   2.943  0.4437  1.4052  0.8387
 3258TIP3   OH2 9712   7.197   3.670   1.185 -0.0847  0.1829  0.3835
 3258TIP3    H1 9713   7.191   3.764   1.205  1.5481  0.6476 -1.1532
 3258TIP3    H2 9714   7.267   3.664   1.120 -1.4012 -1.9050 -0.9017
 3259TIP3   OH2 9715   1.385   3.429   2.390  0.4285 -0.1513  0.5399
 3259TIP3    H1 9716   1.299   3.409   2.427 -0.4833  1.6065 -0.5583
 3259TIP3    H2 9717   1.382   3.393   2.301 -0.2421  2.3473 -0.4965
 3260TIP3   OH2 9718   8.211   3.802   5.607 -0.0204  0.6604 -0.0125
 3260TIP3    H1 9719   8.206   3.774   5.699  0.2809  1.1123  0.1446
 3260TIP3    H2 9720   8.144   3.750   5.563 -0.2823  0.5554  0.4944
 3261TIP3   OH2 9721   1.398   0.326   4.678 -1.0439 -0.4936  0.2891
 3261TIP3    H1 9722   1.407   0.333   4.773 -0.7588 -0.6274  0.2728
 3261TIP3    H2 9723   1.400   0.417   4.648 -0.4708 -0.4834  0.3542
 3262TIP3   OH2 9724   0.840   4.356   2.456 -0.0909 -0.0280  0.0077
 3262TIP3    H1 9725   0.836   4.425   2.522  2.2231 -0.0990  0.2755
 3262TIP3    H2 9726   0.901   4.389   2.390 -0.3653 -1.0680 -0.7899
 3263TIP3   OH2 9727   0.446   2.893   0.949  0.5650 -0.1447  0.5850
 3263TIP3    H1 9728   0.442   2.976   0.901 -1.7030 -0.5422  0.0407
 3263TIP3    H2 9729   0.496   2.835   0.892 -0.8764 -0.1849 -0.6747
 3264TIP3   OH2 9730   1.193   3.669   1.802 -0.0371 -0.3409  0.7080
 3264TIP3    H1 9731   1.234   3.748   1.768 -2.1852 -0.8492 -3.4070
 3264TIP3    H2 9732   1.129   3.702   1.866 -1.3154  1.3673 -1.3636
 3265TIP3   OH2 9733   0.580   4.888   5.413  0.0168  0.5028 -0.1255
 3265TIP3    H1 9734   0.544   4.930   5.335 -0.3911  0.1842 -0.1051
 3265TIP3    H2 9735   0.561   4.795   5.403  1.4598  0.2272 -0.4596
 3266TIP3   OH2 9736   2.011   2.214   4.908  0.1119 -0.2199  0.8986
 3266TIP3    H1 9737   2.101   2.185   4.922 -0.5709 -1.6651  2.4294
 3266TIP3    H2 9738   2.003   2.224   4.813  1.1511 -2.5501  0.5383
 3267TIP3   OH2 9739   1.184   2.230   4.706  0.0833  0.2472  0.0678
 3267TIP3    H1 9740   1.247   2.267   4.644 -2.2184 -0.8164 -3.0092
 3267TIP3    H2 9741   1.104   2.281   4.693 -1.0866 -1.4170  0.5449
 3268TIP3   OH2 9742   2.697   1.396   2.343 -0.2515 -0.1684  0.1728
 3268TIP3    H1 9743   2.645   1.465   2.385 -0.4359 -0.9129  1.2080
 3268TIP3    H2 9744   2.728   1.435   2.261 -0.5905  1.0370  0.6051
 3269TIP3   OH2 9745   7.930   4.134   4.093 -0.1106  0.5049 -0.4416
 3269TIP3    H1 9746   7.997   4.118   4.027 -0.9459 -0.6929 -1.0233
 3269TIP3    H2 9747   7.949   4.222   4.126 -0.2571  1.5060 -2.9382
 3270TIP3   OH2 9748   8.410   5.945   1.330  0.3601 -0.5160 -0.0165
 3270TIP3    H1 9749   8.374   5.899   1.405 -0.7330  0.6143  0.1678
 3270TIP3    H2 9750   8.334   5.982   1.285  1.0923 -0.2238 -1.0397
 3271TIP3   OH2 9751   1.487   2.270   2.730  0.3704 -0.4261  0.0765
 3271TIP3    H1 9752   1.525   2.302   2.648  0.6939  2.3637  1.2465
 3271TIP3    H2 9753   1.535   2.190   2.749  1.0052 -0.5480 -1.9318
 3272TIP3   OH2 9754   0.826   3.549   4.822 -0.0549  0.2121 -0.5514
 3272TIP3    H1 9755   0.896   3.603   4.785  0.4873  0.1147  0.3175
 3272TIP3    H2 9756   0.858   3.459   4.812 -0.3253  0.1339 -0.7106
 3273TIP3   OH2 9757   1.821   2.045   4.296  0.2055 -0.8856  0.7744
 3273TIP3    H1 9758   1.914   2.048   4.272  0.1306 -1.2313  0.4414
 3273TIP3    H2 9759   1.789   1.964   4.257 -0.5344 -0.1369 -0.1937
 3274TIP3   OH2 9760   7.987   3.688   2.356  0.3354 -0.4927  0.2093
 3274TIP3    H1 9761   8.062   3.726   2.401  1.0182 -1.1980 -0.3283
 3274TIP3    H2 9762   7.972   3.604   2.401 -0.1196 -0.3594  0.3076
 3275TIP3   OH2 9763   3.263   2.254   1.508  0.8093 -0.0194 -0.1018
 3275TIP3    H1 9764   3.223   2.279   1.591  3.9885 -0.0239  1.4941
 3275TIP3    H2 9765   3.253   2.332   1.453  1.4421  1.1151  1.3546
 3276TIP3   OH2 9766   2.417   2.894   2.668  0.0502  0.1445  0.2534
 3276TIP3    H1 9767   2.393   2.809   2.632  0.3989 -0.2965  1.0483
 3276TIP3    H2 9768   2.403   2.956   2.596 -1.8641 -0.3281  0.1970
 3277TIP3   OH2 9769   6.870   4.376   2.648  0.1789  0.0726 -0.1422
 3277TIP3    H1 9770   6.949   4.337   2.685  0.3433 -1.0818 -1.6616
 3277TIP3    H2 9771   6.865   4.463   2.687  1.3983 -0.3910  1.0754
 3278TIP3   OH2 9772   5.709   3.135   3.895 -0.4531 -0.4462 -0.4569
 3278TIP3    H1 9773   5.664   3.110   3.975 -1.6305 -0.3662 -1.0937
 3278TIP3    H2 9774   5.683   3.226   3.879  2.1616  0.5560  0.7021
 3279TIP3   OH2 9775   2.794   2.515   1.730  0.6133 -0.6405  0.2366
 3279TIP3    H1 9776   2.768   2.470   1.810  2.3997 -1.1867  0.5496
 3279TIP3    H2 9777   2.729   2.489   1.665 -1.2507  0.3490  1.6522
 3280TIP3   OH2 9778   7.211   2.577   3.368 -0.5816  0.4754 -0.2831
 3280TIP3    H1 9779   7.213   2.670   3.343 -1.2769  1.2077  2.2932
 3280TIP3    H2 9780   7.201   2.531   3.284  0.0337  2.6930 -1.6298
 3281TIP3   OH2 9781   1.249   4.644   2.840 -0.5177  0.2709 -0.0183
 3281TIP3    H1 9782   1.301   4.714   2.800 -0.2092  0.2346  0.3122
 3281TIP3    H2 9783   1.300   4.565   2.824 -0.8181  0.1352 -0.3059
 3282TIP3   OH2 9784   1.596   2.904   4.291 -0.1037 -0.1121  0.1822
 3282TIP3    H1 9785   1.675   2.856   4.316  0.7763  1.9741  1.5233
 3282TIP3    H2 9786   1.565   2.859   4.212  1.8723 -1.5536  0.1854
 3283TIP3   OH2 9787   0.795   3.246   1.038 -0.0798 -0.2386  0.1072
 3283TIP3    H1 9788   0.889   3.231   1.030  0.1404  1.2920 -0.3697
 3283TIP3    H2 9789   0.758   3.159   1.051  1.4315 -0.8274  0.6195
 3284TIP3   OH2 9790   8.411   3.742   3.447  0.2230 -0.0996 -0.4440
 3284TIP3    H1 9791   8.449   3.681   3.510  0.8756 -1.0920 -1.7789
 3284TIP3    H2 9792   8.459   3.726   3.366 -0.4665  1.3097 -1.1439
 3285TIP3   OH2 9793   0.536   2.634   2.437 -0.4218 -0.8192 -0.0964
 3285TIP3    H1 9794   0.491   2.676   2.510 -0.1567 -1.0593  0.2107
 3285TIP3    H2 9795   0.628   2.661   2.447 -0.4621 -0.4753 -0.6125
 3286TIP3   OH2 9796   0.160   2.369   6.394  0.2396 -0.4085  0.1604
 3286TIP3    H1 9797   0.122   2.455   6.377  0.0242 -0.3991  0.6971
 3286TIP3    H2 9798   0.135   2.349   6.484  0.0126 -1.1755 -0.0741
 3287TIP3   OH2 9799   0.156   2.743   2.455 -0.0788 -0.6490 -0.5853
 3287TIP3    H1 9800   0.110   2.661   2.437  2.5249 -2.3939  0.4354
 3287TIP3    H2 9801   0.205   2.762   2.375  0.4221 -0.8553 -0.3312
 3288TIP3   OH2 9802   2.123   2.230   2.088  0.1555 -0.3094  0.1159
 3288TIP3    H1 9803   2.150   2.317   2.059 -0.0928 -0.3127 -0.1318
 3288TIP3    H2 9804   2.083   2.191   2.010  0.0656 -0.5618  0.2888
 3289TIP3   OH2 9805   0.607   4.374   2.348 -0.1700 -0.3457 -0.3681
 3289TIP3    H1 9806   0.543   4.411   2.409 -0.1942 -1.5280  0.3349
 3289TIP3    H2 9807   0.681   4.350   2.403 -0.5126 -2.1782 -0.6583
 3290TIP3   OH2 9808   1.245   1.436   5.054 -0.1364 -0.1550  0.3270
 3290TIP3    H1 9809   1.206   1.519   5.026 -0.5821 -0.1368  1.0036
 3290TIP3    H2 9810   1.326   1.430   5.004  0.5045  1.2756  1.1717
 3291TIP3   OH2 9811   3.301   3.398   2.353 -0.1913  0.2294 -0.0503
 3291TIP3    H1 9812   3.254   3.421   2.273  0.6583  0.1864 -0.5733
 3291TIP3    H2 9813   3.334   3.482   2.386  3.0861 -0.1638 -2.0699
 3292TIP3   OH2 9814   7.927   1.745   2.584 -0.2238 -0.7577 -0.6243
 3292TIP3    H1 9815   8.013   1.777   2.611 -0.7718 -0.1582  0.4536
 3292TIP3    H2 9816   7.881   1.823   2.552 -0.5313 -0.9759 -0.7164
 3293TIP3   OH2 9817   2.275   0.858   4.200  0.9602  0.1798 -0.6091
 3293TIP3    H1 9818   2.247   0.819   4.118 -0.4465  2.5447 -1.2839
 3293TIP3    H2 9819   2.198   0.852   4.257  2.0221 -1.7509  0.6956
 3294TIP3   OH2 9820   1.221   1.295   2.299 -0.2655 -0.7174 -0.0100
 3294TIP3    H1 9821   1.212   1.297   2.203  1.4938 -0.2350 -0.1832
 3294TIP3    H2 9822   1.159   1.361   2.329 -0.7728 -0.8083 -0.8292
 3295TIP3   OH2 9823   0.583   1.860   3.123 -0.2128 -0.0770 -0.1423
 3295TIP3    H1 9824   0.665   1.881   3.078 -0.9268 -1.1910 -2.0363
 3295TIP3    H2 9825   0.583   1.915   3.201  1.2456  1.6180 -1.3157
 3296TIP3   OH2 9826   1.138   1.820   2.627  0.1972 -0.8374 -0.1061
 3296TIP3    H1 9827   1.146   1.902   2.675 -1.3347 -0.5521 -0.3248
 3296TIP3    H2 9828   1.198   1.760   2.672  2.3749  0.7512 -0.7794
 3297TIP3   OH2 9829   7.449   4.459   3.244  0.0343  0.0730 -0.1944
 3297TIP3    H1 9830   7.463   4.466   3.339 -0.9250 -0.7448  0.0200
 3297TIP3    H2 9831   7.372   4.402   3.236  1.6362 -1.9607 -1.5373
 3298TIP3   OH2 9832   7.719   2.664   2.739  0.2393 -0.1584  0.0239
 3298TIP3    H1 9833   7.740   2.744   2.787  1.3851 -0.2887 -0.2410
 3298TIP3    H2 9834   7.767   2.595   2.784 -0.1636 -0.5837 -0.1915
 3299TIP3   OH2 9835   2.865   2.511   5.420 -0.2022  0.1759  0.5717
 3299TIP3    H1 9836   2.862   2.588   5.363 -0.7961 -0.4761 -0.3022
 3299TIP3    H2 9837   2.773   2.487   5.431 -0.0648  0.0599  1.4962
 3300TIP3   OH2 9838   8.398   2.640   1.899  0.0096 -0.3087 -0.1902
 3300TIP3    H1 9839   8.459   2.672   1.833 -0.2526  0.4452 -0.0763
 3300TIP3    H2 9840   8.431   2.554   1.923  1.4265  0.3982  0.3950
 3301TIP3   OH2 9841   2.665   2.442   3.478  0.3249 -0.2504  0.0879
 3301TIP3    H1 9842   2.649   2.382   3.405 -1.1292  0.1076  0.1022
 3301TIP3    H2 9843   2.691   2.384   3.551 -0.7975 -0.8323  0.0286
 3302TIP3   OH2 9844   0.701   3.355   3.254 -0.2132  0.1744  0.2399
 3302TIP3    H1 9845   0.615   3.312   3.255  0.7833 -1.9065 -0.9221
 3302TIP3    H2 9846   0.728   3.356   3.346 -0.8736 -0.4103  0.4433
 3303TIP3   OH2 9847   8.141   2.625   3.467 -0.2126  0.2588 -0.9542
 3303TIP3    H1 9848   8.082   2.669   3.529  0.1239  1.3841 -1.4064
 3303TIP3    H2 9849   8.114   2.534   3.468 -2.2104  0.8282 -1.4341
 3304TIP3   OH2 9850   1.393   2.128   4.882  0.2905 -0.6801 -0.0261
 3304TIP3    H1 9851   1.398   2.033   4.866  2.3258 -0.7314  0.7811
 3304TIP3    H2 9852   1.331   2.159   4.816 -0.4258 -2.5783 -0.2962
 3305TIP3   OH2 9853   6.778   4.855   1.711 -0.3084 -0.3460  0.1108
 3305TIP3    H1 9854   6.745   4.862   1.800  1.3274  1.6939  0.5917
 3305TIP3    H2 9855   6.707   4.887   1.656 -0.1850  1.3946  0.9334
 3306TIP3   OH2 9856   2.013   3.438   4.948 -0.0447  0.3407 -0.0647
 3306TIP3    H1 9857   1.977   3.456   5.035  1.5403  0.6945  0.5391
 3306TIP3    H2 9858   1.939   3.450   4.889 -0.5436  2.7263  0.9610
 3307TIP3   OH2 9859   6.073   3.291   1.986 -0.3833  0.1039  0.2893
 3307TIP3    H1 9860   6.168   3.303   1.986 -0.7768  3.8426  1.0065
 3307TIP3    H2 9861   6.048   3.294   2.078 -1.1887 -0.9562  0.1110
 3308TIP3   OH2 9862   0.032   3.373   1.573  0.2559 -0.7539  0.0713
 3308TIP3    H1 9863   0.053   3.448   1.629 -1.9142  0.8063 -1.0901
 3308TIP3    H2 9864   0.107   3.315   1.581  0.9448  0.4441  2.8755
 3309TIP3   OH2 9865   7.916   4.379   3.495 -0.0533 -0.0958 -0.1456
 3309TIP3    H1 9866   7.918   4.373   3.399 -3.0736 -0.7952 -0.2137
 3309TIP3    H2 9867   7.907   4.473   3.513 -1.9934 -0.1597 -0.6632
 3310TIP3   OH2 9868   1.868   4.289   2.734 -0.5966 -0.1628 -0.1860
 3310TIP3    H1 9869   1.896   4.308   2.644 -1.6068 -1.7071 -0.8416
 3310TIP3    H2 9870   1.928   4.221   2.764 -0.4748  0.1109  0.1932
 3311TIP3   OH2 9871  -0.013   4.383   1.869  0.0309  0.0936  0.2639
 3311TIP3    H1 9872   0.080   4.404   1.859  0.3211 -0.5992  1.4294
 3311TIP3    H2 9873  -0.047   4.383   1.780  0.5764  2.8934  0.0075
 3312TIP3   OH2 9874   7.800   1.064   5.014  0.2394  0.5781  0.0700
 3312TIP3    H1 9875   7.851   0.983   5.004  0.3296  0.6110  0.2700
 3312TIP3    H2 9876   7.850   1.117   5.076  0.5376  1.0805 -0.5930
 3313TIP3   OH2 9877   2.571   4.703   3.113  0.6056 -0.8025 -0.7420
 3313TIP3    H1 9878   2.579   4.621   3.162 -0.9017  0.3883  1.5554
 3313TIP3    H2 9879   2.517   4.680   3.037 -3.3978 -1.1368  2.0340
 3314TIP3   OH2 9880   8.312   2.628   3.094  0.2810 -0.2630 -0.0089
 3314TIP3    H1 9881   8.390   2.590   3.135 -0.1758 -0.0269  1.1080
 3314TIP3    H2 9882   8.347   2.694   3.033  0.9678 -0.4512  0.1741
 3315TIP3   OH2 9883   1.647   3.513   3.258 -0.2550 -0.4123 -0.3141
 3315TIP3    H1 9884   1.737   3.545   3.263  0.1021 -1.0626 -2.0627
 3315TIP3    H2 9885   1.592   3.591   3.264  0.4954  0.1891 -1.2132
 3316TIP3   OH2 9886   6.791   3.459   4.149  0.7442  0.3744  0.3666
 3316TIP3    H1 9887   6.832   3.452   4.063  0.5141 -0.1077  0.2927
 3316TIP3    H2 9888   6.797   3.371   4.186 -0.7895  0.1335  0.0916
 3317TIP3   OH2 9889   1.358   3.331   2.126 -0.1193 -0.2096 -0.4325
 3317TIP3    H1 9890   1.436   3.320   2.072 -2.0853 -0.8529 -3.2626
 3317TIP3    H2 9891   1.311   3.248   2.117 -1.6872  0.5744  0.3221
 3318TIP3   OH2 9892   0.876   2.747   2.860 -0.3780  0.4281  0.5895
 3318TIP3    H1 9893   0.939   2.675   2.858 -0.8729 -0.0166  0.8086
 3318TIP3    H2 9894   0.916   2.816   2.807  0.2544  0.1184  0.6660
 3319TIP3   OH2 9895   0.376   2.169   3.200  0.0900  0.2501  0.3034
 3319TIP3    H1 9896   0.381   2.243   3.139  1.9483 -1.2886 -1.4634
 3319TIP3    H2 9897   0.341   2.097   3.148 -1.3566 -0.2311  1.9236
 3320TIP3   OH2 9898   0.751   4.375   3.740 -0.4143 -0.1378 -0.5586
 3320TIP3    H1 9899   0.807   4.299   3.746  0.2066  0.3836  0.4654
 3320TIP3    H2 9900   0.673   4.345   3.694 -0.0804 -1.3272 -0.3436
 3321TIP3   OH2 9901   1.516   0.745   6.008  0.5785 -0.2883 -0.1517
 3321TIP3    H1 9902   1.585   0.752   6.074  1.6693 -0.2041 -1.2769
 3321TIP3    H2 9903   1.469   0.664   6.030  1.5647 -0.7861  0.1498
 3322TIP3   OH2 9904   0.418   4.748   2.298 -0.4219 -0.1481 -0.2496
 3322TIP3    H1 9905   0.381   4.787   2.219 -0.2736  1.3500  0.4006
 3322TIP3    H2 9906   0.511   4.771   2.295 -0.1068 -1.4133 -0.4183
 3323TIP3   OH2 9907   2.825   0.905   6.233  0.2498  0.2321  0.9040
 3323TIP3    H1 9908   2.793   0.815   6.223  1.3567 -0.0176 -0.4764
 3323TIP3    H2 9909   2.920   0.897   6.242  0.2872  1.2149  1.5325
 3324TIP3   OH2 9910   0.339   2.344   4.357 -0.0219  0.0056  0.7061
 3324TIP3    H1 9911   0.287   2.387   4.425  1.0082  0.5052  1.1880
 3324TIP3    H2 9912   0.385   2.415   4.313  1.1632 -0.5248  1.0594
 3325TIP3   OH2 9913   0.447   2.378   3.538  0.3591 -0.0934  0.5112
 3325TIP3    H1 9914   0.394   2.446   3.579  1.8079  2.1176 -1.1782
 3325TIP3    H2 9915   0.537   2.404   3.555  0.9426 -0.6996 -1.5538
 3326TIP3   OH2 9916   7.328   1.367   3.761  0.2908  0.2966 -0.2468
 3326TIP3    H1 9917   7.376   1.446   3.736 -0.3963  2.0107  3.4812
 3326TIP3    H2 9918   7.369   1.339   3.842  0.0442 -2.8108 -1.1435
 3327TIP3   OH2 9919   0.764   1.711   5.880  0.0821  0.0222  0.0966
 3327TIP3    H1 9920   0.840   1.716   5.937 -0.5503 -0.1278  0.9720
 3327TIP3    H2 9921   0.714   1.636   5.914 -0.5371  0.2222 -0.3564
 3328TIP3   OH2 9922   1.212   3.376   4.913  0.3947 -0.4419  0.2052
 3328TIP3    H1 9923   1.136   3.346   4.863  0.2918 -1.8226  1.1572
 3328TIP3    H2 9924   1.279   3.392   4.847 -0.2616 -0.6401 -0.5186
 3329TIP3   OH2 9925   2.364   3.162   3.061  0.2024 -0.2315  0.3078
 3329TIP3    H1 9926   2.435   3.107   3.095 -0.8507 -0.8095  1.6292
 3329TIP3    H2 9927   2.317   3.105   3.000 -0.3340 -0.5136  0.9762
 3330TIP3   OH2 9928   0.652   1.435   3.731 -0.0580  0.0210  0.1080
 3330TIP3    H1 9929   0.591   1.500   3.695  0.0857  0.4328  0.6072
 3330TIP3    H2 9930   0.644   1.444   3.826 -0.0878 -0.7408  0.1820
 3331TIP3   OH2 9931   0.006   3.543   1.329 -0.3558  0.1441 -0.4067
 3331TIP3    H1 9932   0.050   3.608   1.384  0.6638 -0.8055 -0.0841
 3331TIP3    H2 9933  -0.029   3.479   1.391 -1.2387  0.3048 -0.7330
 3332TIP3   OH2 9934   0.066   7.147   3.828 -0.3080  0.3295  0.1303
 3332TIP3    H1 9935   0.141   7.093   3.851 -0.5982 -0.5398 -0.9284
 3332TIP3    H2 9936   0.100   7.237   3.830  1.0464 -0.1231 -1.3678
 3333TIP3   OH2 9937   8.147   3.969   3.679  0.0348  0.3367  0.1907
 3333TIP3    H1 9938   8.217   3.923   3.725  0.5126  1.2421  0.3900
 3333TIP3    H2 9939   8.182   3.982   3.590 -0.5496 -0.6709 -0.1941
 3334TIP3   OH2 9940   2.865   4.583   5.663 -0.1564 -0.1800  0.5528
 3334TIP3    H1 9941   2.876   4.627   5.578 -1.1610 -0.2012  0.4052
 3334TIP3    H2 9942   2.890   4.492   5.647 -2.3769 -0.6731 -0.2587
 3335TIP3   OH2 9943   0.174   3.417   1.962  0.1566 -1.0786  0.2078
 3335TIP3    H1 9944   0.137   3.501   1.991  2.3710  0.1591 -0.4798
 3335TIP3    H2 9945   0.100   3.372   1.920 -1.0045  0.6009  0.4045
 3336TIP3   OH2 9946   0.894   4.763   1.975  0.1585  0.2478  0.2339
 3336TIP3    H1 9947   0.838   4.790   1.902  0.4635  0.3516  0.0368
 3336TIP3    H2 9948   0.976   4.811   1.961  0.8449 -1.0740 -0.3348
 3337TIP3   OH2 9949   0.540   4.985   4.093 -0.3196 -0.1366  0.1426
 3337TIP3    H1 9950   0.559   5.078   4.106  0.3814 -0.2633  0.0354
 3337TIP3    H2 9951   0.485   4.982   4.015  1.1970  0.0305 -0.9393
 3338TIP3   OH2 9952   0.074   1.352   3.882  0.3469 -0.1223 -0.2062
 3338TIP3    H1 9953   0.121   1.305   3.952 -0.1365  0.2862  0.4025
 3338TIP3    H2 9954   0.093   1.302   3.803  2.5022  0.5037 -0.1215
 3339TIP3   OH2 9955   8.301   3.883   1.139 -0.6596  0.1766 -0.7126
 3339TIP3    H1 9956   8.250   3.802   1.134 -1.8680  0.8579  0.1901
 3339TIP3    H2 9957   8.392   3.855   1.145 -1.0324 -1.1014 -0.9665
 3340TIP3   OH2 9958   1.766   0.547   2.978 -0.1740 -0.0520  0.0932
 3340TIP3    H1 9959   1.838   0.598   2.940 -0.6939  1.1964  0.7539
 3340TIP3    H2 9960   1.766   0.465   2.928 -0.9129  1.5779 -2.7037
 3341TIP3   OH2 9961   2.463   2.452   2.050  0.1095 -0.9444 -0.2701
 3341TIP3    H1 9962   2.534   2.398   2.015  1.7553 -0.4430  2.1655
 3341TIP3    H2 9963   2.457   2.427   2.142 -1.6019  0.3932  0.0051
 3342TIP3   OH2 9964   0.702   4.848   4.423 -0.1441 -0.0145 -0.8472
 3342TIP3    H1 9965   0.655   4.862   4.505  1.2281 -1.1591  0.1657
 3342TIP3    H2 9966   0.683   4.757   4.400  1.4915 -0.4602 -0.4662
 3343TIP3   OH2 9967   8.277   1.826   3.025  0.6841  0.1454  0.1063
 3343TIP3    H1 9968   8.313   1.762   3.086  0.9026 -0.5294 -0.7069
 3343TIP3    H2 9969   8.328   1.813   2.945  0.1645  0.7690 -0.3315
 3344TIP3   OH2 9970   1.036   2.918   2.669 -0.1510 -0.0464 -0.0809
 3344TIP3    H1 9971   1.079   2.996   2.703  0.5589 -0.2565 -0.4832
 3344TIP3    H2 9972   1.097   2.883   2.604 -0.4925 -0.8979  0.0453
 3345TIP3   OH2 9973   1.721   2.810   2.771  0.0443 -0.4388 -0.1747
 3345TIP3    H1 9974   1.701   2.892   2.725  0.5808  0.8222  1.7754
 3345TIP3    H2 9975   1.814   2.816   2.791 -0.8499  0.6225  4.0382
 3346TIP3   OH2 9976   1.783   3.812   5.486 -0.2063  0.4461 -0.2443
 3346TIP3    H1 9977   1.864   3.833   5.441  0.0051 -1.8195 -0.9524
 3346TIP3    H2 9978   1.801   3.730   5.532 -2.1493 -0.2304 -0.6328
 3347TIP3   OH2 9979   8.158   3.304   4.053  0.1519 -0.1547  0.0411
 3347TIP3    H1 9980   8.082   3.283   3.999 -0.2262  0.1801  0.4368
 3347TIP3    H2 9981   8.180   3.394   4.029  0.2533 -0.1567  0.1244
 3348TIP3   OH2 9982   8.409   2.560   4.681  0.2651  0.1749  0.2858
 3348TIP3    H1 9983   8.320   2.595   4.683  0.7292  1.3982  0.1769
 3348TIP3    H2 9984   8.403   2.481   4.629 -0.3935  1.2957 -1.3816
 3349TIP3   OH2 9985   2.050   2.787   2.361 -0.1941 -0.1857  0.3574
 3349TIP3    H1 9986   2.114   2.851   2.330 -0.5067 -0.0282  0.0286
 3349TIP3    H2 9987   1.988   2.839   2.412  0.2064 -0.4141  1.0753
 3350TIP3   OH2 9988   3.161   3.465   3.353 -0.6984 -0.5595 -0.0704
 3350TIP3    H1 9989   3.252   3.445   3.373 -0.2537  1.2917 -0.2125
 3350TIP3    H2 9990   3.115   3.455   3.436 -0.3525 -1.3890  0.0221
 3351TIP3   OH2 9991   1.127   1.901   4.498  0.4788  0.1550 -0.4021
 3351TIP3    H1 9992   1.183   1.978   4.491  0.1536  0.3369 -0.9916
 3351TIP3    H2 9993   1.107   1.877   4.408  2.3060 -1.8930 -0.2984
 3352TIP3   OH2 9994   2.706   1.807   3.124  0.4350  0.6901 -0.3174
 3352TIP3    H1 9995   2.691   1.781   3.215  2.1997 -1.8431 -0.7124
 3352TIP3    H2 9996   2.774   1.875   3.129  0.4690  0.6161  0.2542
 3353TIP3   OH2 9997   2.327   2.442   4.997  0.3014  0.1851  0.2525
 3353TIP3    H1 9998   2.410   2.436   5.044  1.0806  2.5095 -0.7799
 3353TIP3    H2 9999   2.271   2.494   5.054  1.4989  3.6841 -1.6491
 3354TIP3   OH210000   1.125   4.991   2.495  0.2881 -0.0776  0.4605
 3354TIP3    H110001   1.097   5.082   2.490  2.3202  0.6491  1.6518
 3354TIP3    H210002   1.058   4.948   2.547 -1.0032  0.5882 -0.6350
 3355TIP3   OH210003   7.310   1.016   6.549  0.5669 -0.4302  0.2423
 3355TIP3    H110004   7.262   0.976   6.476 -0.2975  0.0557  0.5437
 3355TIP3    H210005   7.385   1.059   6.507  1.2713 -1.9822 -0.1251
 3356TIP3   OH210006   0.787   2.678   2.136 -0.0223 -0.2527 -0.0330
 3356TIP3    H110007   0.712   2.737   2.138  0.3508  0.2286 -0.1004
 3356TIP3    H210008   0.748   2.590   2.133 -0.5702 -0.1013  2.2739
 3357TIP3   OH210009   0.905   4.201   0.970  0.4758 -0.4960  0.4865
 3357TIP3    H110010   0.819   4.222   0.933  0.8006 -2.5448 -1.5091
 3357TIP3    H210011   0.903   4.106   0.983  2.8665 -0.7497 -0.7423
 3358TIP3   OH210012   8.163   2.668   4.590  0.1043  0.1206 -0.2330
 3358TIP3    H110013   8.131   2.746   4.546  0.8899 -0.5958 -2.1466
 3358TIP3    H210014   8.086   2.610   4.595  0.0798  0.0830 -0.9705
 3359TIP3   OH210015   3.223   2.532   4.031 -0.4492  0.3616  0.5121
 3359TIP3    H110016   3.278   2.555   3.956  0.0067  0.5890  0.9159
 3359TIP3    H210017   3.204   2.615   4.074  0.1400  0.1258  1.2354
 3360TIP3   OH210018   0.516   2.460   1.882 -0.7911  0.1063  0.1140
 3360TIP3    H110019   0.588   2.518   1.859 -0.9075  0.4058  0.5071
 3360TIP3    H210020   0.439   2.517   1.886 -0.9864 -0.1503  0.0447
 3361TIP3   OH210021   0.759   4.628   3.074  0.1111 -0.2039 -0.0208
 3361TIP3    H110022   0.822   4.622   3.002 -0.5106  0.1554 -0.5959
 3361TIP3    H210023   0.805   4.678   3.141  0.3477  0.2857 -0.5431
 3362TIP3   OH210024   7.723   1.206   6.060  0.0932  0.8742 -0.5873
 3362TIP3    H110025   7.801   1.197   6.005  1.4502 -0.3641  1.4795
 3362TIP3    H210026   7.661   1.142   6.026  1.5510 -1.0612  0.3336
 3363TIP3   OH210027   8.331   1.966   2.445 -0.3648  0.0444  0.6557
 3363TIP3    H110028   8.326   2.040   2.505 -0.4015  0.2261  0.4298
 3363TIP3    H210029   8.425   1.956   2.426 -0.3272 -0.1972  0.9699
 3364TIP3   OH210030   1.366   3.381   3.154  0.0119 -0.1097 -0.4988
 3364TIP3    H110031   1.449   3.361   3.110 -0.1552 -3.4579  0.5619
 3364TIP3    H210032   1.381   3.359   3.245 -0.2055  5.1542  0.9873
 3365TIP3   OH210033   1.313   3.862   3.428 -0.1344 -0.0387 -0.2095
 3365TIP3    H110034   1.226   3.869   3.468  0.0278  0.1026  0.1183
 3365TIP3    H210035   1.374   3.858   3.502  0.1733  0.2968 -0.4425
 3366TIP3   OH210036   1.089   2.109   2.347  0.3037 -0.2745 -0.3201
 3366TIP3    H110037   1.032   2.033   2.349  0.3001 -0.2707 -0.2718
 3366TIP3    H210038   1.159   2.089   2.409  0.3739 -0.2938 -0.4060
 3367TIP3   OH210039   3.167   1.803   3.252 -0.2745  0.0512 -0.3443
 3367TIP3    H110040   3.151   1.865   3.181 -4.5132 -0.3155  0.1954
 3367TIP3    H210041   3.240   1.841   3.301 -0.5449  2.8407 -2.0244
 3368TIP3   OH210042   0.042   4.865   2.520  0.4102  0.1222 -0.0389
 3368TIP3    H110043   0.025   4.804   2.592 -0.2250 -0.0091 -0.2957
 3368TIP3    H210044  -0.037   4.920   2.517  0.0469 -0.4567 -1.2072
 3369TIP3   OH210045   7.492   2.098   2.384 -0.2038  0.2054  0.2100
 3369TIP3    H110046   7.447   2.041   2.322 -1.9889  0.0326  1.5979
 3369TIP3    H210047   7.450   2.184   2.373  1.0966  0.7704 -0.4681
 3370TIP3   OH210048   1.158   2.978   2.341 -0.0410 -0.7923  0.3468
 3370TIP3    H110049   1.099   3.050   2.362  2.2228  1.2848 -0.2500
 3370TIP3    H210050   1.122   2.939   2.262 -0.9922  0.0032  0.3824
 3371TIP3   OH210051   1.498   1.021   4.804  0.3318  0.9002  0.4101
 3371TIP3    H110052   1.498   0.974   4.888  1.3796  0.5934  0.2519
 3371TIP3    H210053   1.508   1.113   4.829  0.3149  0.8410  0.6414
 3372TIP3   OH210054   1.287   7.244   3.163 -0.2177  0.4855  0.0067
 3372TIP3    H110055   1.344   7.185   3.114  0.3907  0.2625  0.9853
 3372TIP3    H210056   1.209   7.252   3.108 -0.9206 -2.3378  0.5289
 3373TIP3   OH210057   2.735   0.952   2.107  0.0662  0.4726 -0.5592
 3373TIP3    H110058   2.784   1.025   2.144  1.8742 -1.6089  1.2859
 3373TIP3    H210059   2.800   0.882   2.098 -1.8534 -1.2585 -1.2609
 3374TIP3   OH210060   7.962   4.494   1.184  0.1634 -0.0234 -0.2175
 3374TIP3    H110061   7.923   4.582   1.181 -0.6839 -0.3629  0.5766
 3374TIP3    H210062   8.056   4.509   1.193  0.3646  0.8283 -3.1987
 3375TIP3   OH210063   1.148   4.726   3.524  0.4177  0.2819 -0.6226
 3375TIP3    H110064   1.152   4.719   3.619 -0.5397 -0.2022 -0.6083
 3375TIP3    H210065   1.223   4.677   3.492 -1.3967 -2.8970 -0.2259
 3376TIP3   OH210066   8.253   3.574   5.366  0.5497 -0.0323  0.1726
 3376TIP3    H110067   8.319   3.638   5.341  0.5041  0.3737  1.0764
 3376TIP3    H210068   8.229   3.531   5.284  2.3164 -0.5637 -0.0812
 3377TIP3   OH210069   6.477   2.241   3.844 -0.0729 -0.0499 -0.0142
 3377TIP3    H110070   6.431   2.294   3.909  0.6498 -0.3853  0.7761
 3377TIP3    H210071   6.559   2.288   3.828  0.8852 -1.2652  1.2087
 3378TIP3   OH210072   0.558   2.516   4.309 -0.1694 -0.3094  0.3781
 3378TIP3    H110073   0.609   2.593   4.333 -2.1392  1.0989  0.1402
 3378TIP3    H210074   0.586   2.496   4.220 -0.5281  0.8777 -0.0094
 3379TIP3   OH210075   1.215   2.284   2.828  0.0145 -0.4306 -0.9433
 3379TIP3    H110076   1.299   2.306   2.789  1.4938 -1.0551  1.7250
 3379TIP3    H210077   1.157   2.356   2.802  1.4470  0.1727 -2.5567
 3380TIP3   OH210078   2.144   2.382   1.406 -0.2821 -0.3764  0.3990
 3380TIP3    H110079   2.217   2.338   1.363 -0.1342 -1.6854  1.9389
 3380TIP3    H210080   2.068   2.365   1.350  0.2655 -0.4635 -0.3091
 3381TIP3   OH210081   3.294   3.138   3.307 -0.2888 -0.4488 -0.5079
 3381TIP3    H110082   3.297   3.078   3.233  0.5418 -1.2372  0.1487
 3381TIP3    H210083   3.230   3.100   3.368  0.0433 -0.5347 -0.2085
 3382TIP3   OH210084   1.292   1.545   5.313 -0.2593 -0.8867 -0.1580
 3382TIP3    H110085   1.277   1.507   5.226 -0.1838  0.6335 -0.8556
 3382TIP3    H210086   1.207   1.580   5.339  0.3591  1.3436 -0.9705
 3383TIP3   OH210087   3.939   3.926   2.958  0.6210 -0.6253 -0.0844
 3383TIP3    H110088   3.975   3.950   3.043  0.8484 -0.1017 -0.3262
 3383TIP3    H210089   3.866   3.867   2.979 -1.2938  1.8957  0.6577
 3384TIP3   OH210090   2.638   5.253   2.123 -0.0342  0.2017  0.3060
 3384TIP3    H110091   2.576   5.272   2.194 -0.7771  0.6053 -0.4392
 3384TIP3    H210092   2.714   5.215   2.167  0.2920  2.1989  1.5172
 3385TIP3   OH210093   1.850   0.731   5.604 -0.4720  0.3833  0.5441
 3385TIP3    H110094   1.772   0.709   5.554 -0.0997  1.1473 -0.4018
 3385TIP3    H210095   1.848   0.673   5.680 -0.5163 -1.4994 -0.8804
 3386TIP3   OH210096   0.744   2.422   2.071 -0.3487 -0.3882  0.3872
 3386TIP3    H110097   0.822   2.374   2.100 -0.7883 -0.6202  1.2146
 3386TIP3    H210098   0.730   2.392   1.981  1.6825  1.1667 -0.4951
 3387TIP3   OH210099   2.017   5.848   1.440  0.6993  0.1404  0.0803
 3387TIP3    H110100   2.033   5.933   1.399  1.4103  0.2289  0.5317
 3387TIP3    H210101   1.965   5.869   1.517  0.7481  0.1509  0.1105
 3388TIP3   OH210102   0.792   3.357   6.796 -0.3640 -0.0900  0.0267
 3388TIP3    H110103   0.798   3.452   6.806  0.5029 -0.1420  0.0375
 3388TIP3    H210104   0.873   3.324   6.834  0.1442 -0.7105 -1.5622
 3389TIP3   OH210105   2.584   3.307   1.718 -0.2099  0.1221  0.0313
 3389TIP3    H110106   2.549   3.336   1.634  2.1694 -0.6682 -1.2918
 3389TIP3    H210107   2.657   3.249   1.695  1.5711  1.2157  2.6243
 3390TIP3   OH210108   3.562   3.919   1.760 -0.3891  0.2509  0.0961
 3390TIP3    H110109   3.626   3.930   1.831 -0.6561 -0.2756  0.4211
 3390TIP3    H210110   3.605   3.863   1.696 -0.1569  0.7065 -0.1501
 3391TIP3   OH210111   0.712   1.161   3.422 -0.6163  0.0928  0.0667
 3391TIP3    H110112   0.769   1.085   3.414  1.4061  1.5860 -0.0887
 3391TIP3    H210113   0.689   1.184   3.332  0.0344  0.5851  0.0233
 3392TIP3   OH210114   2.296   2.292   5.384  0.3019 -0.1557  0.3301
 3392TIP3    H110115   2.214   2.304   5.336  0.6460  1.6374  0.1416
 3392TIP3    H210116   2.283   2.338   5.466  0.3404 -1.7477  1.2478
 3393TIP3   OH210117   0.297   2.442   5.023 -0.2314 -0.3319 -0.0588
 3393TIP3    H110118   0.325   2.353   5.046  0.2882 -0.4091 -0.9811
 3393TIP3    H210119   0.229   2.429   4.956  1.4569  0.0306 -1.8687
 3394TIP3   OH210120   1.897   3.149   4.603 -0.0729  0.0823  0.1541
 3394TIP3    H110121   1.855   3.099   4.674  2.4872 -0.3628  1.3904
 3394TIP3    H210122   1.864   3.238   4.614  1.0254  0.2396  2.5502
 3395TIP3   OH210123   3.008   4.752   1.458 -0.4999 -0.7526 -0.3811
 3395TIP3    H110124   2.976   4.666   1.484 -1.1345 -0.8076 -1.3121
 3395TIP3    H210125   2.946   4.781   1.390  0.2546  0.0197 -0.7489
 3396TIP3   OH210126   0.238   3.123   4.599  0.3334  0.7022  0.0026
 3396TIP3    H110127   0.158   3.141   4.550 -0.1514 -1.9352 -0.2780
 3396TIP3    H210128   0.219   3.152   4.688 -2.6373 -3.7434  0.9949
 3397TIP3   OH210129   0.662   3.307   4.175  0.0179  0.5367  0.1279
 3397TIP3    H110130   0.666   3.247   4.249  0.1311 -0.1390 -0.4201
 3397TIP3    H210131   0.617   3.384   4.208 -0.7475 -0.1325  0.6470
 3398TIP3   OH210132   0.758   2.480   5.372 -0.3345 -0.1326 -0.0748
 3398TIP3    H110133   0.690   2.413   5.378  1.2314 -1.5749  2.3111
 3398TIP3    H210134   0.739   2.541   5.443 -1.1580  1.4451 -1.6093
 3399TIP3   OH210135   2.433   4.633   2.884 -0.0392 -0.2137 -0.7869
 3399TIP3    H110136   2.340   4.610   2.893 -0.2153  1.1650  1.2925
 3399TIP3    H210137   2.432   4.716   2.836  0.0013  0.7006  0.7677
 3400TIP3   OH210138   2.398   2.072   3.338 -0.3880 -0.5440 -0.1304
 3400TIP3    H110139   2.367   2.151   3.294  1.2299  1.0817  1.6162
 3400TIP3    H210140   2.428   2.015   3.266  0.7112  1.4033 -1.2567
 3401TIP3   OH210141   1.979   3.794   2.026 -0.2123 -0.1698 -0.2888
 3401TIP3    H110142   1.964   3.784   1.932 -0.2660  1.4345 -0.4635
 3401TIP3    H210143   1.932   3.873   2.050  0.0148 -0.4254  1.0461
 3402TIP3   OH210144   1.271   2.791   2.565 -0.6710 -0.6925  0.0353
 3402TIP3    H110145   1.260   2.696   2.554  3.7261 -1.1159 -1.7473
 3402TIP3    H210146   1.322   2.818   2.488 -1.2501  3.0361  0.8641
 3403TIP3   OH210147   2.107   5.089   1.846  0.0595 -0.2079 -0.0913
 3403TIP3    H110148   2.085   5.087   1.753  0.1618  0.2347 -0.1222
 3403TIP3    H210149   2.200   5.111   1.849  0.1485 -0.5966  0.1021
 3404TIP3   OH210150   2.740   3.247   3.127  0.6215  0.2933  0.0046
 3404TIP3    H110151   2.693   3.166   3.106 -0.8485  1.3172 -0.7126
 3404TIP3    H210152   2.818   3.218   3.174 -0.6137 -1.4475  1.0169
 3405TIP3   OH210153   4.236   3.733   2.558 -0.5151  0.3945 -0.1820
 3405TIP3    H110154   4.315   3.757   2.510 -0.6325  1.9224  0.3741
 3405TIP3    H210155   4.255   3.759   2.649 -1.9124  1.4122 -0.1758
 3406TIP3   OH210156   2.849   2.212   4.175 -0.6160  0.3704 -0.1197
 3406TIP3    H110157   2.941   2.209   4.148 -0.5196 -0.1348  0.2757
 3406TIP3    H210158   2.835   2.304   4.199 -0.2510  0.4744 -0.2907
 3407TIP3   OH210159   3.985   4.832   1.056 -0.1970 -0.3461 -0.1087
 3407TIP3    H110160   3.915   4.883   1.097 -0.0779 -0.7043  0.5512
 3407TIP3    H210161   3.943   4.750   1.032 -0.3798  0.0405 -1.1404
 3408TIP3   OH210162   1.959   2.843   1.285 -0.4225 -0.3322  0.2024
 3408TIP3    H110163   1.938   2.852   1.378  0.4074 -0.7776  0.4426
 3408TIP3    H210164   1.925   2.757   1.261 -1.7650  0.3032 -0.2352
 3409TIP3   OH210165   1.251   4.472   2.546 -0.1247  0.3932 -0.2918
 3409TIP3    H110166   1.322   4.507   2.492 -1.1561  1.6781 -0.8093
 3409TIP3    H210167   1.291   4.459   2.632  1.2679 -0.7697 -1.0763
 3410TIP3   OH210168   2.350   2.926   2.929  0.5562 -0.3195 -0.0743
 3410TIP3    H110169   2.337   2.842   2.973 -1.9671 -0.7719 -1.5856
 3410TIP3    H210170   2.368   2.903   2.838  1.7884  0.7209 -0.1009
 3411TIP3   OH210171   2.022   4.572   1.878  0.3610  0.0723  0.3566
 3411TIP3    H110172   2.089   4.615   1.826 -2.0268  1.1351 -1.9555
 3411TIP3    H210173   2.029   4.611   1.965  2.1877  0.7137 -0.0740
 3412TIP3   OH210174   2.542   3.673   2.728 -0.1923  0.3296  0.5131
 3412TIP3    H110175   2.461   3.709   2.763 -0.3440  0.9346 -0.4539
 3412TIP3    H210176   2.537   3.579   2.747 -0.7885  0.4734  1.0776
 3413TIP3   OH210177   0.633   3.992   5.087  0.4162  0.1899 -0.1933
 3413TIP3    H110178   0.573   3.936   5.038  0.2285  0.7405 -0.5908
 3413TIP3    H210179   0.623   4.079   5.048 -0.9088  0.9929  1.8086
 3414TIP3   OH210180   1.737   3.257   4.170  0.8954  0.2165 -0.0800
 3414TIP3    H110181   1.726   3.351   4.186  0.5492  0.5261 -2.0334
 3414TIP3    H210182   1.648   3.222   4.177  0.9831  0.0676  0.3334
 3415TIP3   OH210183   1.591   2.802   2.256 -0.4852 -0.2931  0.0501
 3415TIP3    H110184   1.581   2.841   2.169  0.2475  0.7865  0.4389
 3415TIP3    H210185   1.527   2.848   2.310  1.2870  1.3477  0.8165
 3416TIP3   OH210186   1.278   4.047   3.221  0.0035  0.2818  0.4585
 3416TIP3    H110187   1.269   4.036   3.316  2.0637  0.5336  0.6977
 3416TIP3    H210188   1.207   3.994   3.184 -0.4640 -0.2819  2.1259
 3417TIP3   OH210189   1.097   6.183   1.977 -0.2056  0.0258 -0.4690
 3417TIP3    H110190   1.150   6.153   2.051  0.6973  0.0394 -1.0983
 3417TIP3    H210191   1.099   6.111   1.914  1.8285  1.2872 -1.9142
 3418TIP3   OH210192   1.331   5.501   5.415  0.0542  0.3478  0.0813
 3418TIP3    H110193   1.344   5.458   5.331  1.4110 -1.9219  1.4018
 3418TIP3    H210194   1.236   5.494   5.431 -0.1441  0.3791 -1.0219
 3419TIP3   OH210195   2.119   1.706   1.652  0.1200 -0.4785 -0.1757
 3419TIP3    H110196   2.201   1.712   1.702 -0.6474  0.4308  1.0164
 3419TIP3    H210197   2.110   1.792   1.610  0.1702 -0.8446 -0.9438
 3420TIP3   OH210198   2.309   4.045   1.961 -0.1778 -0.0810 -0.0484
 3420TIP3    H110199   2.239   4.046   2.027 -0.2219  0.7182 -0.0942
 3420TIP3    H210200   2.361   4.123   1.982 -0.8102  0.7857 -1.6131
 3421TIP3   OH210201   2.059   3.070   2.850  0.7427  0.4093  0.0279
 3421TIP3    H110202   2.115   3.031   2.918  0.7237  1.2819  0.5526
 3421TIP3    H210203   2.018   2.995   2.807  1.1783 -0.1782  0.6198
 3422TIP3   OH210204   2.280   1.872   4.193 -0.1207 -0.0452 -0.1244
 3422TIP3    H110205   2.205   1.927   4.168  1.9463  2.7057 -0.4954
 3422TIP3    H210206   2.315   1.915   4.271  0.9070 -1.4815  0.2120
 3423TIP3   OH210207   1.935   0.974   3.812 -0.2770 -0.1287 -0.3253
 3423TIP3    H110208   1.863   0.953   3.753 -0.9859  0.0577  0.4628
 3423TIP3    H210209   1.996   0.901   3.803 -1.1326 -0.8851 -0.1177
 3424TIP3   OH210210   2.508   2.332   2.292 -0.4001 -0.2638  0.1098
 3424TIP3    H110211   2.436   2.383   2.329 -1.3474 -0.6926 -1.1080
 3424TIP3    H210212   2.581   2.346   2.353 -1.1802  1.0596  0.7681
 3425TIP3   OH210213   2.793   4.102   1.514 -0.3700  0.0482  0.5191
 3425TIP3    H110214   2.781   4.118   1.608 -0.9518 -2.2357  0.8776
 3425TIP3    H210215   2.704   4.109   1.477 -0.0465  1.6212  0.0074
 3426TIP3   OH210216   3.473   4.371   2.642 -0.1004  0.0850 -0.4937
 3426TIP3    H110217   3.396   4.382   2.698  0.7059  0.3698  0.5803
 3426TIP3    H210218   3.531   4.313   2.692  0.0101 -0.8494 -1.6786
 3427TIP3   OH210219   1.352   5.172   3.975  0.2515 -0.0590  0.2320
 3427TIP3    H110220   1.399   5.103   3.928 -1.4146  0.2457 -1.9770
 3427TIP3    H210221   1.266   5.134   3.993  0.2150  0.5307  1.3393
 3428TIP3   OH210222   3.944   5.836   3.164  0.2052  0.1160 -0.1363
 3428TIP3    H110223   3.990   5.916   3.191 -2.4954  2.0019 -0.9791
 3428TIP3    H210224   3.947   5.780   3.242  0.4747  1.8030  1.1114
 3429TIP3   OH210225   2.909   4.336   3.305 -0.3657  0.1136 -0.5975
 3429TIP3    H110226   2.910   4.326   3.400  1.5581  2.3301 -0.3169
 3429TIP3    H210227   2.999   4.315   3.278 -0.9902 -0.8454 -1.9662
 3430TIP3   OH210228   1.793   4.885   5.380 -0.0715  0.8518 -0.2539
 3430TIP3    H110229   1.711   4.842   5.354  0.8879 -0.6277 -0.8586
 3430TIP3    H210230   1.802   4.866   5.473  1.7467 -2.6779 -1.0724
 3431TIP3   OH210231   1.489   4.686   2.646 -0.0866  0.1873  0.1487
 3431TIP3    H110232   1.517   4.659   2.734 -0.1141  1.9024  0.7017
 3431TIP3    H210233   1.516   4.614   2.589 -1.2484 -1.5448  1.7379
 3432TIP3   OH210234   1.529   3.574   1.241  0.4026 -0.4467 -1.0541
 3432TIP3    H110235   1.524   3.670   1.248  0.7744 -0.4614 -0.5151
 3432TIP3    H210236   1.608   3.551   1.291  0.2169 -1.0467 -1.0394
 3433TIP3   OH210237   2.163   5.517   3.806 -0.2169  0.4444  0.2350
 3433TIP3    H110238   2.164   5.557   3.720 -0.8834  2.3235  1.0681
 3433TIP3    H210239   2.196   5.428   3.792  2.7261  1.7224 -1.4404
 3434TIP3   OH210240   3.111   4.417   5.089 -0.2224 -0.7293  0.3908
 3434TIP3    H110241   3.117   4.323   5.104  0.2518 -0.7096  0.3353
 3434TIP3    H210242   3.035   4.428   5.032 -0.5296 -1.0385  0.7367
 3435TIP3   OH210243   0.939   2.131   3.577 -0.0663 -0.1054 -0.4738
 3435TIP3    H110244   0.949   2.036   3.584  1.1029  0.0716  0.2516
 3435TIP3    H210245   0.952   2.163   3.666  2.7263  1.0262 -1.2411
 3436TIP3   OH210246   1.763   2.144   4.540 -0.5615 -0.1245 -0.4742
 3436TIP3    H110247   1.766   2.118   4.448  0.7406 -1.2810 -0.1231
 3436TIP3    H210248   1.673   2.125   4.567 -0.7185 -0.5678 -1.2868
 3437TIP3   OH210249   2.761   2.030   4.935 -0.4672  0.1097 -0.2220
 3437TIP3    H110250   2.748   2.119   4.902 -0.7565 -0.0060 -0.4231
 3437TIP3    H210251   2.690   2.017   4.997 -0.8480 -0.2336 -0.7202
 3438TIP3   OH210252   2.322   1.537   2.301 -0.6646 -0.1012  0.2216
 3438TIP3    H110253   2.401   1.567   2.347 -0.4006  3.5117 -2.3842
 3438TIP3    H210254   2.354   1.471   2.239  0.0016 -0.1398  0.6049
 3439TIP3   OH210255   1.912   6.130   1.962 -0.0357 -0.1140  0.2984
 3439TIP3    H110256   1.938   6.047   2.001 -0.9963 -0.8018 -0.5031
 3439TIP3    H210257   1.955   6.131   1.877 -0.9280 -0.2989 -0.1553
 3440TIP3   OH210258   3.065   1.685   1.664  0.0385  0.0146  0.3989
 3440TIP3    H110259   3.077   1.685   1.759  0.9374 -0.1078  0.2941
 3440TIP3    H210260   3.003   1.614   1.647 -0.8498  0.6453  0.9716
 3441TIP3   OH210261   1.478   3.093   3.867 -0.3048  0.5244  0.1599
 3441TIP3    H110262   1.426   3.049   3.934 -0.9817  2.6423  1.0567
 3441TIP3    H210263   1.569   3.070   3.889 -0.6582 -0.7547  0.3443
 3442TIP3   OH210264   1.247   3.733   3.060 -0.5094 -0.1353  0.4695
 3442TIP3    H110265   1.182   3.790   3.100 -0.1667 -0.6064  1.7288
 3442TIP3    H210266   1.221   3.728   2.968 -1.3854  0.8620  0.6496
 3443TIP3   OH210267   1.307   3.620   2.133 -0.0067 -0.0366 -0.1804
 3443TIP3    H110268   1.234   3.672   2.099 -0.2099 -0.8951 -1.0605
 3443TIP3    H210269   1.278   3.529   2.126  1.1916 -0.3932 -0.6545
 3444TIP3   OH210270   2.214   3.882   2.179 -0.1236 -0.6117 -0.4835
 3444TIP3    H110271   2.306   3.901   2.159 -0.4595  0.3831 -1.1664
 3444TIP3    H210272   2.206   3.898   2.273  0.2780 -0.1443 -0.5227
 3445TIP3   OH210273   3.235   4.234   1.790  0.3844  0.5870  0.2854
 3445TIP3    H110274   3.286   4.164   1.750 -1.9617 -0.3328 -1.2100
 3445TIP3    H210275   3.237   4.215   1.883 -0.4519 -1.6612 -0.1259
 3446TIP3   OH210276   7.678   2.839   3.354 -0.2386 -0.1026  0.5433
 3446TIP3    H110277   7.692   2.800   3.441  1.9995 -1.5179 -0.4157
 3446TIP3    H210278   7.668   2.764   3.295  0.8507  0.7989 -0.8203
 3447TIP3   OH210279   2.064   1.846   1.095  0.4762  0.6880  0.1182
 3447TIP3    H110280   2.147   1.800   1.083  0.6815  1.3406 -0.9992
 3447TIP3    H210281   2.001   1.797   1.041  0.4339  1.0172 -0.1288
 3448TIP3   OH210282   1.930   2.682   5.480 -0.3005 -0.4041 -0.2194
 3448TIP3    H110283   1.903   2.696   5.389  0.3127  1.9205 -0.0824
 3448TIP3    H210284   1.969   2.595   5.480 -0.1852 -0.3805 -2.2287
 3449TIP3   OH210285   2.000   3.755   1.720  0.3541 -0.6005  0.0373
 3449TIP3    H110286   2.025   3.666   1.695  3.0311  0.1144  0.0520
 3449TIP3    H210287   2.081   3.806   1.714 -0.7542  1.4578  1.8046
 3450TIP3   OH210288   1.503   3.690   3.976 -0.3013  0.2893 -0.3139
 3450TIP3    H110289   1.418   3.729   3.956  0.6266  2.1314 -0.8410
 3450TIP3    H210290   1.484   3.624   4.043 -2.0806  1.0150 -0.0650
 3451TIP3   OH210291   2.467   3.189   2.228  0.6244 -0.0835 -0.1138
 3451TIP3    H110292   2.487   3.126   2.159  2.9779  0.3105  0.1713
 3451TIP3    H210293   2.477   3.275   2.186  0.5955  0.1373  0.3263
 3452TIP3   OH210294   1.601   3.065   1.203 -0.2995  0.3184  0.4380
 3452TIP3    H110295   1.520   3.115   1.212 -2.0801 -2.6289  1.9181
 3452TIP3    H210296   1.596   3.027   1.115  0.2772  1.4474 -0.0846
 3453TIP3   OH210297   0.033   2.519   3.946 -0.2913 -0.5168  0.0859
 3453TIP3    H110298   0.058   2.609   3.926 -1.5184  0.1122  1.3042
 3453TIP3    H210299   0.105   2.466   3.910  1.6999  1.0849  1.5677
 3454TIP3   OH210300   3.067   4.027   3.982  0.3533 -0.2753 -0.2106
 3454TIP3    H110301   3.054   3.935   4.006 -0.7473 -0.1559 -0.2909
 3454TIP3    H210302   3.100   4.068   4.061  0.0101 -0.5734  0.0907
 3455TIP3   OH210303   0.798   5.193   2.063 -0.5376  0.2471 -0.2630
 3455TIP3    H110304   0.762   5.178   2.150 -1.2916  1.6959 -0.3091
 3455TIP3    H210305   0.759   5.125   2.009 -0.6610 -0.1871  0.3688
 3456TIP3   OH210306   3.843   3.201   3.815  0.3360  0.1770 -0.4433
 3456TIP3    H110307   3.882   3.279   3.854 -1.9765  1.1899 -0.0599
 3456TIP3    H210308   3.766   3.233   3.769  1.1248 -1.4664 -3.0112
 3457TIP3   OH210309   1.496   4.861   6.455  0.2888 -0.1099 -1.0316
 3457TIP3    H110310   1.522   4.905   6.374 -0.4155 -1.4382 -1.9881
 3457TIP3    H210311   1.576   4.819   6.486  0.2261 -0.8320 -1.8316
 3458TIP3   OH210312   0.001   2.975   3.547 -0.2096  0.6731 -0.2543
 3458TIP3    H110313   0.088   2.973   3.507 -0.4037  0.3552 -0.6674
 3458TIP3    H210314   0.004   3.050   3.607 -0.9609  3.1427 -3.2066
 3459TIP3   OH210315   3.216   3.615   3.798 -0.3145 -0.2898  0.3362
 3459TIP3    H110316   3.177   3.564   3.727  2.6104 -1.0135 -0.8357
 3459TIP3    H210317   3.234   3.701   3.758  1.6904 -0.8206  0.0423
 3460TIP3   OH210318   1.514   4.845   3.283  0.0444 -0.2477  0.0951
 3460TIP3    H110319   1.426   4.864   3.252  0.3429  0.1264 -0.5388
 3460TIP3    H210320   1.568   4.846   3.204  0.8946  1.1833  0.6659
 3461TIP3   OH210321   2.787   0.765   1.791  0.7469  0.2565  0.2435
 3461TIP3    H110322   2.722   0.765   1.721  1.0279  1.4948 -0.0314
 3461TIP3    H210323   2.771   0.684   1.839  1.5596 -1.4079 -2.1934
 3462TIP3   OH210324   1.771   4.246   1.468 -0.8310 -0.0588  0.5787
 3462TIP3    H110325   1.700   4.186   1.450 -0.7962  0.0289  0.1540
 3462TIP3    H210326   1.831   4.235   1.394  1.0147 -2.2307  2.3164
 3463TIP3   OH210327   2.090   2.437   3.079  0.2262 -0.2704 -0.1438
 3463TIP3    H110328   2.130   2.400   3.000  1.7106 -2.5485  1.6316
 3463TIP3    H210329   1.996   2.424   3.066  0.5429 -2.0030 -0.8646
 3464TIP3   OH210330   8.045   2.836   6.399 -0.2473 -0.2079  0.0395
 3464TIP3    H110331   7.965   2.886   6.419 -0.2470 -0.2878  0.2409
 3464TIP3    H210332   8.079   2.876   6.319  0.6047  1.1425  1.0568
 3465TIP3   OH210333   2.444   3.947   2.862  0.2650 -0.7765  0.1888
 3465TIP3    H110334   2.473   3.877   2.920  0.8434 -0.6009  0.1145
 3465TIP3    H210335   2.498   4.022   2.885  1.6173 -1.1452 -1.6403
 3466TIP3   OH210336   2.991   2.712   2.783  0.6822  1.0991 -0.0304
 3466TIP3    H110337   2.900   2.717   2.814  1.3008  3.4177  1.5769
 3466TIP3    H210338   2.996   2.628   2.737 -2.5614  1.4324 -1.1379
 3467TIP3   OH210339   2.935   2.612   3.671  0.5373 -0.7543 -0.0062
 3467TIP3    H110340   2.898   2.649   3.590  1.6372  0.1007 -0.1186
 3467TIP3    H210341   2.875   2.641   3.740 -0.2902 -1.3100 -0.4753
 3468TIP3   OH210342   0.804   2.951   2.541 -0.1336  0.4493 -0.5888
 3468TIP3    H110343   0.761   2.990   2.618 -0.4103 -0.2552 -0.3861
 3468TIP3    H210344   0.877   2.901   2.577 -0.3377  0.0179 -0.7698
 3469TIP3   OH210345   2.401   3.644   0.804 -0.2787  0.2710  0.4359
 3469TIP3    H110346   2.494   3.632   0.826 -0.1841 -0.6897 -0.4710
 3469TIP3    H210347   2.367   3.699   0.875  0.8771  0.2583  1.0156
 3470TIP3   OH210348   1.743   4.830   2.668 -0.3635  0.4066  0.2390
 3470TIP3    H110349   1.772   4.749   2.709  1.0561  1.6060  1.6617
 3470TIP3    H210350   1.680   4.802   2.602  0.4809 -1.8874  0.3622
 3471TIP3   OH210351   2.688   7.139   2.356  0.3810  0.1898 -0.1419
 3471TIP3    H110352   2.719   7.126   2.445  1.0389  1.7961 -0.1225
 3471TIP3    H210353   2.759   7.186   2.312  0.0051 -0.4341 -1.4694
 3472TIP3   OH210354   4.163   3.712   3.556  0.3272  0.0666 -0.2006
 3472TIP3    H110355   4.159   3.737   3.648  1.5067 -1.9878  0.4208
 3472TIP3    H210356   4.233   3.766   3.519  1.0508 -0.3846  0.5120
 3473TIP3   OH210357   1.922   3.355   0.696 -0.5349 -0.0727 -0.0839
 3473TIP3    H110358   1.960   3.339   0.783  1.0908 -0.5264 -0.8636
 3473TIP3    H210359   1.849   3.293   0.691  1.6862 -2.7589 -0.4958
 3474TIP3   OH210360   1.575   2.233   5.064  0.2867  0.3036  1.0227
 3474TIP3    H110361   1.651   2.195   5.020 -1.2641  0.4053 -1.8705
 3474TIP3    H210362   1.504   2.225   5.001 -1.9441  0.9705  3.3403
 3475TIP3   OH210363   1.732   3.429   4.866  0.7172  0.4594 -0.5201
 3475TIP3    H110364   1.686   3.346   4.858  1.5436  0.1283 -1.8748
 3475TIP3    H210365   1.685   3.475   4.936 -1.2364 -0.1471 -1.3937
 3476TIP3   OH210366   1.136   1.888   1.981  0.7478 -0.2781  0.1545
 3476TIP3    H110367   1.173   1.839   2.054  2.2968  0.8409  0.1625
 3476TIP3    H210368   1.054   1.924   2.015 -0.4622 -2.9026  0.1019
 3477TIP3   OH210369   2.076   3.117   3.305  0.7160 -0.0757  0.4569
 3477TIP3    H110370   2.005   3.181   3.299  1.1426  0.4064  0.4579
 3477TIP3    H210371   2.054   3.049   3.242  1.6581  1.4479 -1.5408
 3478TIP3   OH210372   0.642   3.806   3.009 -0.7115 -0.4142 -0.0566
 3478TIP3    H110373   0.632   3.847   3.095  0.6813  1.4372 -0.7346
 3478TIP3    H210374   0.688   3.724   3.027 -1.7354 -0.7430  1.1191
 3479TIP3   OH210375   0.309   7.269   3.787  0.4131 -0.3178 -0.6788
 3479TIP3    H110376   0.318   7.275   3.882  2.0517  1.2463 -0.9043
 3479TIP3    H210377   0.341   7.181   3.765 -1.1942 -1.1767  0.3225
 3480TIP3   OH210378   8.474   5.452   1.602 -0.6599  0.1273 -0.4544
 3480TIP3    H110379   8.477   5.360   1.576  1.2390 -0.2472  1.0144
 3480TIP3    H210380   8.504   5.500   1.525 -0.5254 -0.5554 -0.8231
 3481TIP3   OH210381   1.589   4.138   2.672 -0.6138 -0.2279 -0.0422
 3481TIP3    H110382   1.651   4.084   2.625  0.3726 -0.2731  1.2661
 3481TIP3    H210383   1.637   4.220   2.690 -1.0535 -0.1091  0.6201
 3482TIP3   OH210384   2.820   4.923   4.147  0.4110 -0.2904  0.0038
 3482TIP3    H110385   2.778   4.929   4.233 -0.0694  0.8113 -0.2921
 3482TIP3    H210386   2.805   4.832   4.120 -1.2986 -0.0911  0.1651
 3483TIP3   OH210387   2.590   4.242   3.076 -0.1794 -0.4001 -0.0514
 3483TIP3    H110388   2.636   4.165   3.041 -1.9034 -2.1439  1.4041
 3483TIP3    H210389   2.545   4.280   3.000  1.2344 -0.4154 -0.9048
 3484TIP3   OH210390   0.064   1.429   3.253 -0.2951  0.2700 -0.1090
 3484TIP3    H110391   0.145   1.479   3.267 -1.0342  1.2577  0.6901
 3484TIP3    H210392   0.086   1.340   3.279  0.3556  0.6676  0.7271
 3485TIP3   OH210393   1.760   2.773   3.048 -0.0599  0.3336  0.1673
 3485TIP3    H110394   1.721   2.782   2.961  2.1181  1.9580 -0.7228
 3485TIP3    H210395   1.792   2.683   3.051 -0.0506  0.3006 -0.7719
 3486TIP3   OH210396   8.509   3.904   4.083 -0.1709 -0.3169 -0.0770
 3486TIP3    H110397   8.424   3.906   4.127  0.5119  0.9248  1.2340
 3486TIP3    H210398   8.500   3.966   4.011  0.0280  0.8865  0.8988
 3487TIP3   OH210399   2.520   3.596   3.796 -0.1711 -0.8079  0.2042
 3487TIP3    H110400   2.559   3.558   3.876  1.2136  2.1408  0.9918
 3487TIP3    H210401   2.595   3.609   3.738 -0.8555 -0.7117 -0.6526
 3488TIP3   OH210402   1.433   4.491   3.077  0.8915 -0.4223  0.1755
 3488TIP3    H110403   1.396   4.477   3.164  2.4695  2.0728  1.3118
 3488TIP3    H210404   1.434   4.404   3.037 -3.1049 -1.0749  1.2791
 3489TIP3   OH210405   4.879   6.888   6.342  0.1104 -0.3026 -0.0821
 3489TIP3    H110406   4.969   6.854   6.344  0.1411 -0.2361 -0.2886
 3489TIP3    H210407   4.865   6.924   6.429  0.5371  0.3429 -0.2781
 3490TIP3   OH210408   2.514   2.433   3.773  0.5831  0.2684  0.6668
 3490TIP3    H110409   2.476   2.360   3.724  0.4944  0.6055  0.2365
 3490TIP3    H210410   2.513   2.506   3.712 -3.2673  1.8014  2.4297
 3491TIP3   OH210411   3.773   3.332   1.732 -0.4506 -0.3224 -0.4529
 3491TIP3    H110412   3.791   3.418   1.770 -1.8307  0.1986 -0.9582
 3491TIP3    H210413   3.761   3.349   1.639 -3.3072 -0.6548 -0.1845
 3492TIP3   OH210414   3.064   2.766   3.184 -0.4652  0.1883  0.2195
 3492TIP3    H110415   3.010   2.694   3.151  0.4619 -1.9362  3.2044
 3492TIP3    H210416   3.000   2.828   3.220 -1.1098 -0.6205  0.4981
 3493TIP3   OH210417   1.577   4.675   0.540  0.7140 -0.1467 -0.4977
 3493TIP3    H110418   1.578   4.728   0.620  0.2171  0.4654 -0.8933
 3493TIP3    H210419   1.540   4.733   0.473  1.5978 -0.4963 -1.2922
 3494TIP3   OH210420   2.294   2.641   4.232 -0.8007  0.4719 -0.1565
 3494TIP3    H110421   2.297   2.607   4.142 -0.4527 -0.4494  0.2012
 3494TIP3    H210422   2.230   2.713   4.228 -0.7123  0.5074 -1.1600
 3495TIP3   OH210423   3.473   3.507   0.690 -0.1839 -0.2670  0.2638
 3495TIP3    H110424   3.410   3.514   0.762 -0.9979 -0.3477 -0.4316
 3495TIP3    H210425   3.495   3.597   0.668 -1.6896 -0.1694 -0.8995
 3496TIP3   OH210426   1.339   4.841   1.849  0.3182  0.6612  0.2260
 3496TIP3    H110427   1.389   4.922   1.833  1.4648  0.0080  0.4584
 3496TIP3    H210428   1.282   4.862   1.923  0.8818  1.1407  0.5266
 3497TIP3   OH210429   1.374   3.157   2.591 -0.4257 -0.6061  0.2817
 3497TIP3    H110430   1.426   3.235   2.610  1.2985 -1.7103  0.1741
 3497TIP3    H210431   1.296   3.167   2.646 -0.7759  1.7432 -0.5976
 3498TIP3   OH210432   3.033   4.682   2.084 -0.5264 -0.1399  0.2442
 3498TIP3    H110433   3.009   4.722   2.000  0.5201  2.2078  1.0390
 3498TIP3    H210434   3.108   4.627   2.063  0.2103  1.0293 -0.2361
 3499TIP3   OH210435   2.319   1.766   2.887 -1.1272  0.5783 -0.3894
 3499TIP3    H110436   2.227   1.789   2.876 -1.7788 -0.8044  1.8081
 3499TIP3    H210437   2.318   1.684   2.936  1.2694  0.2662 -0.7837
 3500TIP3   OH210438   0.058   3.117   2.792 -0.3133  0.2122 -0.4031
 3500TIP3    H110439   0.069   3.034   2.747  0.7458  0.1190 -0.0045
 3500TIP3    H210440  -0.032   3.143   2.775 -1.3286 -2.0435  1.1970
 3501TIP3   OH210441   0.921   3.179   1.444 -0.2613  0.1659  0.3384
 3501TIP3    H110442   0.846   3.237   1.433 -1.7275 -1.9465 -1.3241
 3501TIP3    H210443   0.971   3.187   1.364 -0.5233 -0.8955  0.0546
 3502TIP3   OH210444   4.340   4.108   2.661  0.0328  0.6913 -0.5442
 3502TIP3    H110445   4.366   4.170   2.593 -1.3694  0.0154 -1.7415
 3502TIP3    H210446   4.246   4.124   2.673  0.3579  1.0875  1.5556
 3503TIP3   OH210447   2.948   0.309   6.051 -0.0466 -0.6376 -0.2675
 3503TIP3    H110448   2.932   0.259   5.972 -0.2217  0.2227 -0.7849
 3503TIP3    H210449   2.863   0.351   6.071  0.2874  0.0507 -0.2703
 3504TIP3   OH210450   8.441   4.481   5.664  0.5118  0.5158 -0.2090
 3504TIP3    H110451   8.460   4.398   5.708  0.6451  0.7019  0.0809
 3504TIP3    H210452   8.488   4.547   5.714 -1.5766  1.0981  1.0545
 3505TIP3   OH210453   1.170   2.762   1.697 -0.0506  0.2728  0.0996
 3505TIP3    H110454   1.080   2.792   1.700 -0.0721  0.2504 -0.3843
 3505TIP3    H210455   1.194   2.751   1.789 -0.2641  1.0896  0.2567
 3506TIP3   OH210456   1.243   4.590   4.686  0.0010 -0.1473  0.3720
 3506TIP3    H110457   1.279   4.562   4.771 -0.7869 -0.8022  0.4938
 3506TIP3    H210458   1.175   4.653   4.709  0.5578  0.5327  0.1722
 3507TIP3   OH210459   1.860   2.251   2.277 -0.6564 -0.2925 -0.4111
 3507TIP3    H110460   1.930   2.251   2.212  0.5855  0.3258  0.8827
 3507TIP3    H210461   1.852   2.343   2.304 -1.4862 -0.4638 -0.0428
 3508TIP3   OH210462   2.135   4.967   3.296  0.4515 -0.1666  0.0776
 3508TIP3    H110463   2.148   5.047   3.245 -1.7796 -0.6002 -1.2888
 3508TIP3    H210464   2.222   4.929   3.305  1.3870  1.8714 -0.1609
 3509TIP3   OH210465   2.152   4.924   2.915 -0.0520 -0.1919 -0.4068
 3509TIP3    H110466   2.221   4.957   2.973 -1.0803  0.9582  0.1770
 3509TIP3    H210467   2.142   4.993   2.848 -0.9888 -0.1178 -0.1903
 3510TIP3   OH210468   0.989   1.856   2.380  0.4491  0.2433 -0.2148
 3510TIP3    H110469   0.916   1.914   2.401  0.6575  0.2609  0.5049
 3510TIP3    H210470   1.023   1.830   2.466 -0.6499 -2.2163 -0.4865
 3511TIP3   OH210471   2.709   2.159   1.693 -0.1666 -0.5471  0.6322
 3511TIP3    H110472   2.671   2.103   1.760  0.3736 -0.3044  1.1444
 3511TIP3    H210473   2.800   2.172   1.720  0.2439 -0.9955 -0.5059
 3512TIP3   OH210474   3.185   5.663   3.996  0.2038  0.0373  0.3540
 3512TIP3    H110475   3.127   5.668   3.920 -1.3307 -1.3626  1.4219
 3512TIP3    H210476   3.232   5.581   3.986 -0.8413 -0.7171  1.4986
 3513TIP3   OH210477   1.884   2.095   2.600 -0.1024 -0.2200  0.1169
 3513TIP3    H110478   1.950   2.042   2.644  0.7101 -0.4444 -1.3385
 3513TIP3    H210479   1.918   2.184   2.604 -0.8100  0.0006  1.3586
 3514TIP3   OH210480   2.364   5.353   3.314 -0.3336 -0.1281 -0.0033
 3514TIP3    H110481   2.368   5.436   3.267 -0.6535 -0.1690 -0.1095
 3514TIP3    H210482   2.440   5.304   3.285 -1.1435 -0.6058 -1.3425
 3515TIP3   OH210483   1.914   5.037   4.350  0.0561  0.3097  0.2972
 3515TIP3    H110484   1.896   4.977   4.278 -0.7062  0.2385  0.5411
 3515TIP3    H210485   1.883   5.122   4.319 -2.7532 -0.2198  1.5468
 3516TIP3   OH210486   3.469   4.996   2.047  0.4115  0.4112  0.1089
 3516TIP3    H110487   3.470   4.924   1.984 -0.2770  0.0645  0.4887
 3516TIP3    H210488   3.406   5.058   2.011  0.7857  0.6927 -0.0671
 3517TIP3   OH210489   0.783   3.238   3.033  0.4265  0.5987 -0.1239
 3517TIP3    H110490   0.710   3.242   2.970  0.3279  2.5473  0.0777
 3517TIP3    H210491   0.748   3.278   3.112  1.4883  0.8484  0.2242
 3518TIP3   OH210492   2.237   2.925   1.301 -0.0196  0.4818 -0.4244
 3518TIP3    H110493   2.156   2.893   1.263  0.3835 -0.0474 -0.8426
 3518TIP3    H210494   2.288   2.845   1.320  0.4651  0.8153 -0.3106
 3519TIP3   OH210495   1.605   2.892   5.748 -0.1741  0.2595  0.0813
 3519TIP3    H110496   1.522   2.933   5.773 -1.3052 -0.9212 -1.6611
 3519TIP3    H210497   1.585   2.845   5.667  1.6558 -1.9089  0.8663
 3520TIP3   OH210498   2.227   3.005   2.311 -0.3539 -0.0754 -0.4221
 3520TIP3    H110499   2.317   3.009   2.278 -0.1773 -2.3240 -0.2626
 3520TIP3    H210500   2.232   3.039   2.400  0.2121  0.4485 -0.6511
 3521TIP3   OH210501   1.798   5.679   4.995 -0.2130  0.2726 -0.1180
 3521TIP3    H110502   1.815   5.685   4.901 -0.8299  0.1944 -0.2411
 3521TIP3    H210503   1.756   5.763   5.016  0.7067  0.6456  0.2636
 3522TIP3   OH210504   3.521   3.237   4.548 -0.2977 -0.2731  0.1206
 3522TIP3    H110505   3.498   3.180   4.474 -1.7733 -0.4539  0.7044
 3522TIP3    H210506   3.598   3.196   4.586 -0.2772 -0.8871 -0.5552
 3523TIP3   OH210507   3.036   4.270   2.525  0.4402 -0.6849 -0.1205
 3523TIP3    H110508   2.963   4.327   2.546  1.1136  0.2602 -0.2792
 3523TIP3    H210509   3.012   4.184   2.560 -0.3564 -0.1777  0.5775
 3524TIP3   OH210510   4.087   2.538   2.238  0.2120 -0.2705  0.1337
 3524TIP3    H110511   4.160   2.508   2.292  0.1066 -0.3344  0.2420
 3524TIP3    H210512   4.049   2.611   2.288  0.2624 -0.1730  0.0306
 3525TIP3   OH210513   2.518   3.711   1.977 -0.2589  0.3209 -0.1323
 3525TIP3    H110514   2.522   3.665   1.893 -1.4027  0.0614 -0.0434
 3525TIP3    H210515   2.566   3.654   2.037  3.3508  1.9866 -1.2505
 3526TIP3   OH210516   0.196   0.888   4.385 -0.4849 -0.5579  0.7347
 3526TIP3    H110517   0.164   0.945   4.315 -0.9164 -1.0756  0.5051
 3526TIP3    H210518   0.167   0.931   4.466  0.4009  0.2742  0.6148
 3527TIP3   OH210519   1.659   2.251   4.142 -0.2234 -0.1301 -0.8501
 3527TIP3    H110520   1.715   2.264   4.066  1.4582  0.9049  0.5283
 3527TIP3    H210521   1.699   2.177   4.189  1.3043  1.9495  1.2557
 3528TIP3   OH210522   1.706   1.967   5.353 -0.0389 -0.7132 -0.4944
 3528TIP3    H110523   1.800   1.984   5.366 -0.6688  1.1243  2.0573
 3528TIP3    H210524   1.688   1.890   5.406  0.1928 -1.6416 -1.7423
 3529TIP3   OH210525   2.633   3.568   4.371  0.0282  0.1537 -0.0347
 3529TIP3    H110526   2.618   3.662   4.383  0.5634  0.1468  0.6954
 3529TIP3    H210527   2.704   3.563   4.307  0.2139  0.2481  0.1656
 3530TIP3   OH210528   1.010   4.718   5.695  0.5686  0.1246 -0.6453
 3530TIP3    H110529   0.976   4.795   5.649 -0.4184 -0.1252 -0.3462
 3530TIP3    H210530   0.951   4.647   5.670  1.9444 -0.7253 -1.5540
 3531TIP3   OH210531   3.470   0.995   1.009  0.4001  0.7843 -0.1273
 3531TIP3    H110532   3.500   1.056   0.941  0.2718  1.3625  0.3288
 3531TIP3    H210533   3.521   1.018   1.087 -0.2382  0.8583  0.2749
 3532TIP3   OH210534   2.034   2.416   5.413 -0.4579 -0.1855 -0.2481
 3532TIP3    H110535   2.009   2.365   5.337  0.5362 -2.5519  0.9565
 3532TIP3    H210536   1.992   2.372   5.487 -0.2189  1.1993  0.7411
 3533TIP3   OH210537   1.686   3.264   5.190 -0.4100  0.1740  0.6804
 3533TIP3    H110538   1.598   3.277   5.225 -0.2978  1.2947  0.5451
 3533TIP3    H210539   1.740   3.246   5.267 -0.5019  0.8320  0.8996
 3534TIP3   OH210540   7.353   5.110   4.815  0.1494 -0.5520 -0.0505
 3534TIP3    H110541   7.389   5.025   4.840  0.5934 -0.9066 -1.8046
 3534TIP3    H210542   7.283   5.127   4.878  1.9319 -0.8840  2.0725
 3535TIP3   OH210543   0.535   4.338   3.606 -0.1532 -0.3675  0.0017
 3535TIP3    H110544   0.539   4.262   3.549 -1.5108 -0.4623  0.0172
 3535TIP3    H210545   0.572   4.409   3.555 -0.9943 -0.5436 -0.8642
 3536TIP3   OH210546   1.443   3.934   4.331 -0.2316 -0.4897 -0.1816
 3536TIP3    H110547   1.518   3.976   4.287  0.1824 -1.0336 -0.0050
 3536TIP3    H210548   1.447   3.843   4.302 -1.1801 -0.3895 -0.6319
 3537TIP3   OH210549   0.943   5.802   3.245 -0.5565 -0.1949  0.0666
 3537TIP3    H110550   0.970   5.807   3.153 -1.4390 -0.8530 -0.2359
 3537TIP3    H210551   0.995   5.869   3.289  1.3845 -1.2591 -0.5519
 3538TIP3   OH210552   1.727   6.390   3.125 -0.1674  0.3141 -0.1012
 3538TIP3    H110553   1.680   6.341   3.057 -0.9507 -0.9977  1.3511
 3538TIP3    H210554   1.658   6.437   3.172  0.4450  1.7666 -0.6346
 3539TIP3   OH210555   1.520   3.600   4.944 -0.7469  0.6107  1.0131
 3539TIP3    H110556   1.472   3.547   4.881 -1.8247  0.5359  1.8863
 3539TIP3    H210557   1.491   3.690   4.928  0.6933  0.8852 -0.1220
 3540TIP3   OH210558   1.724   4.556   1.028  0.0140  0.3221  0.4836
 3540TIP3    H110559   1.673   4.552   1.109 -0.5636  1.2338  0.1697
 3540TIP3    H210560   1.814   4.572   1.057 -0.3439  1.6107  0.9108
 3541TIP3   OH210561   4.047   3.002   3.461 -0.5966 -0.3739 -0.5393
 3541TIP3    H110562   4.022   2.928   3.406 -0.0067 -1.3882  0.5390
 3541TIP3    H210563   4.142   2.994   3.471 -0.3418  1.2158 -1.3866
 3542TIP3   OH210564   3.026   3.273   1.500  0.5050  0.5418 -0.1375
 3542TIP3    H110565   3.065   3.341   1.445  0.1016 -0.4442 -1.6973
 3542TIP3    H210566   3.100   3.219   1.528  0.5809  0.2379 -0.8912
 3543TIP3   OH210567   4.017   2.726   3.353  0.1920  0.0807  0.2945
 3543TIP3    H110568   3.928   2.691   3.345  0.4496 -0.7198  0.8372
 3543TIP3    H210569   4.067   2.680   3.285 -0.2722  2.1043 -1.4461
 3544TIP3   OH210570   1.967   3.445   2.751  0.3655  0.5122 -0.4627
 3544TIP3    H110571   1.943   3.525   2.799  0.8146  0.1808  0.3208
 3544TIP3    H210572   1.894   3.385   2.767  0.7192  0.2506  0.1583
 3545TIP3   OH210573   4.152   3.580   1.381 -0.4002 -0.1495  0.3141
 3545TIP3    H110574   4.085   3.531   1.334  0.5955 -0.6198 -0.6208
 3545TIP3    H210575   4.199   3.513   1.432  2.4528 -0.5536 -2.7353
 3546TIP3   OH210576   2.379   3.443   3.478  0.2815 -0.4654  0.4618
 3546TIP3    H110577   2.473   3.460   3.482  0.1366  0.2312  0.9865
 3546TIP3    H210578   2.370   3.367   3.421  1.2350 -1.0393  1.0697
 3547TIP3   OH210579   4.093   3.586   2.789  0.0661  0.2936 -0.2835
 3547TIP3    H110580   4.102   3.672   2.746  1.3016  1.3305  1.9792
 3547TIP3    H210581   4.097   3.605   2.882 -0.2907 -2.1853  0.2695
 3548TIP3   OH210582   1.219   3.800   1.319  0.1043  0.1748  0.0720
 3548TIP3    H110583   1.155   3.762   1.258  0.0539 -2.0898  1.4790
 3548TIP3    H210584   1.166   3.848   1.382 -0.0262  0.4011 -0.2086
 3549TIP3   OH210585   3.074   2.154   3.484  0.2832 -0.9005  0.9688
 3549TIP3    H110586   3.098   2.175   3.574  0.3009 -0.3586  0.8392
 3549TIP3    H210587   2.997   2.097   3.493  0.1657 -0.6863  1.3168
 3550TIP3   OH210588   3.477   2.981   2.004 -0.3991 -0.1051  0.3007
 3550TIP3    H110589   3.552   3.039   1.996 -0.8354  0.3409 -0.6827
 3550TIP3    H210590   3.423   3.019   2.074 -0.4294  0.3949  0.0087
 3551TIP3   OH210591   1.734   3.414   2.274  0.0002  0.7730  0.2671
 3551TIP3    H110592   1.817   3.383   2.310 -0.5215  1.1558  1.8648
 3551TIP3    H210593   1.677   3.424   2.351 -1.8089 -0.3578 -0.9014
 3552TIP3   OH210594   2.883   3.610   1.766 -0.5430  0.6285  0.0469
 3552TIP3    H110595   2.792   3.616   1.795 -0.5007 -2.0619  0.8473
 3552TIP3    H210596   2.878   3.600   1.671 -1.0205  1.5066 -0.0263
 3553TIP3   OH210597   4.000   3.529   3.797 -0.7331 -0.9256 -0.1886
 3553TIP3    H110598   4.069   3.480   3.754 -1.9922 -3.2054  0.3093
 3553TIP3    H210599   3.981   3.480   3.877 -0.8954  1.2926  1.2043
 3554TIP3   OH210600   3.941   3.376   4.010  0.6293  0.5586 -0.5703
 3554TIP3    H110601   3.889   3.412   4.081  0.8969  0.1297 -0.1514
 3554TIP3    H210602   4.015   3.333   4.054  0.8318  0.3544 -1.1078
 3555TIP3   OH210603   1.361   3.708   6.347 -0.2992  0.5605  0.4086
 3555TIP3    H110604   1.370   3.803   6.340 -0.3875  0.5082 -0.3778
 3555TIP3    H210605   1.442   3.680   6.391  1.1317  0.6780 -2.0494
 3556TIP3   OH210606   3.796   1.713   4.285  0.1594 -0.1615 -0.1537
 3556TIP3    H110607   3.865   1.735   4.222  1.8531  2.3020  2.4466
 3556TIP3    H210608   3.834   1.645   4.340 -0.9943 -1.6596 -1.1489
 3557TIP3   OH210609   5.296   3.886   3.778  0.0434 -0.6569 -0.0782
 3557TIP3    H110610   5.243   3.943   3.723  1.3364  0.4802 -0.1640
 3557TIP3    H210611   5.302   3.932   3.862 -0.4560 -1.5469  0.4493
 3558TIP3   OH210612   3.665   3.313   4.288  0.5052  0.1359  0.4006
 3558TIP3    H110613   3.592   3.255   4.312  0.7435  0.4688  1.9912
 3558TIP3    H210614   3.732   3.254   4.254 -0.6432 -0.1340 -1.4651
 3559TIP3   OH210615   0.941   3.217   2.477 -0.4941  0.0457  0.3151
 3559TIP3    H110616   0.905   3.226   2.389  2.0950 -1.5059 -0.9385
 3559TIP3    H210617   0.904   3.135   2.510 -0.6966  0.1298  0.2975
 3560TIP3   OH210618   2.133   3.094   3.896 -0.3985 -0.6042 -0.1021
 3560TIP3    H110619   2.166   3.161   3.837 -0.1246 -0.3263  0.3664
 3560TIP3    H210620   2.190   3.099   3.972  0.2197 -2.0052 -0.4556
 3561TIP3   OH210621   4.218   2.466   1.836 -0.5190  0.0575 -0.2569
 3561TIP3    H110622   4.285   2.413   1.879 -2.2973 -1.2525  0.9709
 3561TIP3    H210623   4.260   2.497   1.756  1.6766 -0.4149  0.6764
 3562TIP3   OH210624   0.980   3.384   2.966  0.4132 -0.1864  0.1097
 3562TIP3    H110625   0.908   3.329   2.995  0.0467  0.1802 -0.0907
 3562TIP3    H210626   1.006   3.432   3.044 -0.8492  1.1092 -0.2336
 3563TIP3   OH210627   3.553   4.917   1.752  0.2595 -0.0820  0.1343
 3563TIP3    H110628   3.643   4.903   1.722 -0.4598 -0.7385 -1.8265
 3563TIP3    H210629   3.528   5.001   1.713  1.1089  1.7640  3.4131
 3564TIP3   OH210630   2.041   2.896   3.127  0.5190 -0.3215  0.4113
 3564TIP3    H110631   1.951   2.866   3.140  0.5158  0.2541  1.7117
 3564TIP3    H210632   2.084   2.821   3.085 -0.2011 -1.1294  1.0736
 3565TIP3   OH210633   0.447   2.610   3.077  0.3481 -0.2346  0.2526
 3565TIP3    H110634   0.386   2.681   3.057  0.5171 -0.1574  0.0002
 3565TIP3    H210635   0.534   2.649   3.061  0.4226 -0.6529 -0.3719
 3566TIP3   OH210636   2.892   3.923   4.307 -0.3986  0.2819  0.4758
 3566TIP3    H110637   2.963   3.979   4.276 -1.4851  0.8815 -0.9319
 3566TIP3    H210638   2.908   3.839   4.265 -0.9291  0.6215 -0.4062
 3567TIP3   OH210639   2.189   3.986   1.736  0.5139  0.0629  0.1846
 3567TIP3    H110640   2.216   3.992   1.827 -0.1396  1.1987  0.2969
 3567TIP3    H210641   2.120   4.050   1.726 -0.5085 -1.1506 -0.7285
 3568TIP3   OH210642   2.304   3.327   4.226  0.6441 -0.5093  0.7835
 3568TIP3    H110643   2.342   3.371   4.302  3.3135  1.8183 -1.7612
 3568TIP3    H210644   2.219   3.368   4.214  1.7865  1.7889  0.3317
 3569TIP3   OH210645   4.383   1.433   4.142  0.7619  0.0100 -0.0160
 3569TIP3    H110646   4.425   1.350   4.121  2.2944  0.5294  0.9147
 3569TIP3    H210647   4.437   1.499   4.099 -0.2206  0.5614 -0.4237
 3570TIP3   OH210648   1.454   5.097   4.451  0.0394 -0.6124  0.5556
 3570TIP3    H110649   1.455   5.186   4.415 -0.1360 -0.1768  1.6176
 3570TIP3    H210650   1.545   5.082   4.479  0.1030 -0.8342  0.2433
 3571TIP3   OH210651   1.721   6.617   2.971  0.3849  0.4797  0.0440
 3571TIP3    H110652   1.758   6.564   3.042  0.2233  0.2972 -0.0098
 3571TIP3    H210653   1.632   6.584   2.960  0.8859 -0.4871 -1.2518
 3572TIP3   OH210654   1.780   3.255   2.830  0.2941  0.4150 -0.3413
 3572TIP3    H110655   1.849   3.208   2.876 -1.5690 -1.5299  0.5796
 3572TIP3    H210656   1.723   3.289   2.899  0.1358  1.6896 -1.0852
 3573TIP3   OH210657   1.690   3.760   2.296 -0.2458  0.0928 -0.0074
 3573TIP3    H110658   1.736   3.698   2.352 -0.6528 -1.1270 -0.9930
 3573TIP3    H210659   1.692   3.843   2.344  0.1738 -0.7232  1.3952
 3574TIP3   OH210660   1.784   4.932   2.366  0.4118  0.2980  0.0782
 3574TIP3    H110661   1.874   4.956   2.389 -0.0161  1.1253  0.9230
 3574TIP3    H210662   1.793   4.848   2.321  1.5286 -0.1247  1.0388
 3575TIP3   OH210663   2.081   5.255   3.674 -0.2125 -0.1129 -0.0896
 3575TIP3    H110664   2.111   5.164   3.662  2.0328  0.7550 -1.3672
 3575TIP3    H210665   2.076   5.290   3.586 -0.6142  1.1473  0.4285
 3576TIP3   OH210666   1.243   2.724   1.968 -0.1955 -0.3632 -0.0705
 3576TIP3    H110667   1.179   2.739   2.038 -1.2439 -2.1214 -0.6307
 3576TIP3    H210668   1.288   2.645   1.994 -0.2526 -0.7539 -1.1361
 3577TIP3   OH210669   3.445   4.384   2.357  0.1919  0.3028  0.6149
 3577TIP3    H110670   3.349   4.380   2.354  0.2384 -0.5291  0.2898
 3577TIP3    H210671   3.468   4.338   2.438  0.3216  0.4644  0.6698
 3578TIP3   OH210672   0.791   4.168   5.255  0.0172  0.0262  0.0623
 3578TIP3    H110673   0.799   4.222   5.176 -2.2159  0.4834  0.1208
 3578TIP3    H210674   0.772   4.081   5.222 -0.6036  0.1512  0.0931
 3579TIP3   OH210675   4.427   5.462   2.023  0.2908 -0.4221  0.0668
 3579TIP3    H110676   4.391   5.506   2.099  0.4238 -0.5150  0.1845
 3579TIP3    H210677   4.502   5.413   2.057  0.1542 -0.7242 -0.0648
 3580TIP3   OH210678   2.876   3.104   2.929  0.2047  0.3284  0.0773
 3580TIP3    H110679   2.915   3.186   2.958  0.1429  0.3849  0.0002
 3580TIP3    H210680   2.951   3.045   2.915  0.0986 -0.5819  3.0069
 3581TIP3   OH210681   0.368   1.566   0.375 -0.4076  0.1655  0.2122
 3581TIP3    H110682   0.401   1.484   0.410 -1.8033 -1.2886 -1.7284
 3581TIP3    H210683   0.364   1.625   0.450  1.5871 -1.2063  1.4383
 3582TIP3   OH210684   3.393   0.564   1.754 -0.6329  0.3460 -0.4924
 3582TIP3    H110685   3.331   0.504   1.796  1.4174 -0.9316  0.8219
 3582TIP3    H210686   3.428   0.514   1.681  0.5670  0.1837  0.1836
 3583TIP3   OH210687   3.133   2.126   4.185  0.0597  0.0454  0.6755
 3583TIP3    H110688   3.131   2.040   4.144  1.0515  0.8758 -1.1975
 3583TIP3    H210689   3.202   2.173   4.138  2.9305  0.3200  4.8135
 3584TIP3   OH210690   1.702   0.993   2.224  0.1085  0.2395  0.3080
 3584TIP3    H110691   1.727   1.081   2.251  2.5790  0.0014 -0.9816
 3584TIP3    H210692   1.629   1.005   2.163 -0.8555  1.2432  1.6540
 3585TIP3   OH210693   2.176   3.752   2.684 -0.2758  0.2145  0.7588
 3585TIP3    H110694   2.177   3.674   2.629  2.4938  1.2206 -0.7336
 3585TIP3    H210695   2.180   3.825   2.622  0.7710  1.4203  2.2180
 3586TIP3   OH210696   0.317   5.944   4.992  0.7464 -0.1811  0.0713
 3586TIP3    H110697   0.358   6.013   4.939  0.0519 -0.6444 -1.0706
 3586TIP3    H210698   0.253   5.990   5.047 -0.0330  0.0352 -1.0095
 3587TIP3   OH210699   3.263   4.436   1.625 -0.1596 -0.0291  0.0776
 3587TIP3    H110700   3.221   4.362   1.668  0.1706 -0.9100 -1.0845
 3587TIP3    H210701   3.337   4.459   1.681  0.5542 -1.4642 -0.2518
 3588TIP3   OH210702   1.442   0.764   3.972  0.2089  0.2884  0.1196
 3588TIP3    H110703   1.475   0.823   4.040  0.2226  1.7176 -1.1293
 3588TIP3    H210704   1.349   0.756   3.990 -0.1917  2.3710 -0.9603
 3589TIP3   OH210705   1.721   4.313   1.718  0.1472  0.1252  0.1645
 3589TIP3    H110706   1.754   4.291   1.631  0.9124  1.7058  0.0315
 3589TIP3    H210707   1.631   4.343   1.702  0.9166  2.2468 -0.3563
 3590TIP3   OH210708   0.550   4.993   3.196 -0.0365  0.2518  0.0415
 3590TIP3    H110709   0.469   5.017   3.243 -0.2622 -1.6403  0.6417
 3590TIP3    H210710   0.619   5.003   3.261 -0.1073 -0.5332  0.2392
 3591TIP3   OH210711   2.070   1.367   5.123 -0.1223  0.1850  0.1182
 3591TIP3    H110712   2.105   1.456   5.112  0.4488  0.0526  0.8091
 3591TIP3    H210713   2.146   1.315   5.149 -0.4308 -0.5342 -0.4077
 3592TIP3   OH210714   3.245   2.229   1.083 -0.4645 -0.1454 -0.0098
 3592TIP3    H110715   3.326   2.232   1.032 -0.4755 -0.2037 -0.0301
 3592TIP3    H210716   3.254   2.152   1.139 -0.0380  0.4483  0.7528
 3593TIP3   OH210717   1.093   6.347   1.147  0.1814 -0.5129 -0.2327
 3593TIP3    H110718   1.022   6.380   1.201  2.4398  1.0436  1.8796
 3593TIP3    H210719   1.131   6.425   1.106  4.2242 -0.5854  3.1330
 3594TIP3   OH210720   3.548   3.978   3.143 -0.1469  0.2837 -0.0599
 3594TIP3    H110721   3.462   3.987   3.184 -0.3635 -0.6660 -0.3038
 3594TIP3    H210722   3.588   4.064   3.153 -1.2325  0.8098 -0.1817
 3595TIP3   OH210723   3.174   2.448   1.954 -0.2941 -0.4400  0.7101
 3595TIP3    H110724   3.220   2.365   1.959 -0.9906 -0.9041 -0.5550
 3595TIP3    H210725   3.097   2.436   2.009 -0.0702 -0.4087  1.0351
 3596TIP3   OH210726   5.547   4.567   0.916  0.0192  0.2118 -0.2172
 3596TIP3    H110727   5.461   4.525   0.916  0.0810  0.0791  0.1136
 3596TIP3    H210728   5.592   4.529   0.992  0.0411  0.9596  0.1462
 3597TIP3   OH210729   2.893   6.041   0.171  0.5857 -0.4322 -0.4641
 3597TIP3    H110730   2.900   5.992   0.253 -0.8665 -0.2456 -0.2149
 3597TIP3    H210731   2.857   6.126   0.196  2.1246  0.3931 -1.0348
 3598TIP3   OH210732   0.716   6.681   1.763  0.6519  0.3368 -0.1890
 3598TIP3    H110733   0.808   6.687   1.790  0.4358 -3.1768  1.6273
 3598TIP3    H210734   0.666   6.708   1.839  0.1426  0.3644 -0.5278
 3599TIP3   OH210735   4.228   4.541   0.254 -0.3506  0.0135 -0.4586
 3599TIP3    H110736   4.274   4.615   0.213 -0.0433 -0.0347 -0.2057
 3599TIP3    H210737   4.219   4.567   0.346 -1.1206  0.1599 -0.5774
 3600TIP3   OH210738   4.419   2.298   1.923 -0.3209  0.7225 -0.2391
 3600TIP3    H110739   4.355   2.233   1.950  0.3060  0.2585  0.1339
 3600TIP3    H210740   4.486   2.248   1.875 -0.7189  1.3364 -1.4568
 3601TIP3   OH210741   2.392   4.658   1.180 -0.4150 -0.0649  0.1533
 3601TIP3    H110742   2.396   4.620   1.268  1.7462  1.6994  0.8596
 3601TIP3    H210743   2.321   4.722   1.185  0.3846  0.7893  0.9662
 3602TIP3   OH210744   4.047   3.025   3.766 -0.0569  0.0097 -0.2380
 3602TIP3    H110745   4.012   3.114   3.766  2.3021  1.0241  2.4798
 3602TIP3    H210746   4.073   3.009   3.675 -0.4928  2.1132 -0.7535
 3603TIP3   OH210747   1.916  -0.010   5.971 -0.4121 -0.1583 -0.6277
 3603TIP3    H110748   1.991   0.047   5.960  1.5167 -2.8637 -2.1085
 3603TIP3    H210749   1.853   0.018   5.904  0.3233  0.4999 -1.0459
 3604TIP3   OH210750   1.923   4.502   0.607 -0.8562 -0.1524  0.2361
 3604TIP3    H110751   1.996   4.445   0.632 -0.4461  0.4721  0.4847
 3604TIP3    H210752   1.853   4.482   0.669 -0.0947  0.8811  1.4421
 3605TIP3   OH210753   5.414   3.668   2.771 -0.0322  0.0293 -0.0782
 3605TIP3    H110754   5.444   3.670   2.680  1.0015  0.0205  0.2486
 3605TIP3    H210755   5.474   3.607   2.815 -0.1898  0.4284  0.7182
 3606TIP3   OH210756   6.309   4.548   2.175  0.0995 -0.2942  0.0365
 3606TIP3    H110757   6.337   4.528   2.085  0.5423  0.5999 -0.0281
 3606TIP3    H210758   6.273   4.465   2.207 -1.3831 -0.2558 -1.4382
 3607TIP3   OH210759   5.139   2.596   2.496  0.0270 -0.1167  0.6388
 3607TIP3    H110760   5.183   2.633   2.572 -0.5878  0.9797  0.4734
 3607TIP3    H210761   5.047   2.621   2.507  0.0504  0.6473 -0.8119
 3608TIP3   OH210762   6.336   4.409   3.471 -0.0860 -0.5172  0.5095
 3608TIP3    H110763   6.319   4.435   3.380 -2.0313 -2.6041  0.2335
 3608TIP3    H210764   6.313   4.487   3.522 -0.8901  0.0290 -0.6491
 3609TIP3   OH210765   3.617   3.411   3.577  0.9110 -0.3151 -0.1376
 3609TIP3    H110766   3.690   3.430   3.518  0.6723 -0.6939 -0.5647
 3609TIP3    H210767   3.542   3.401   3.519  0.5839 -0.2422  0.2733
 3610TIP3   OH210768   4.885   7.294   2.348 -0.2118 -0.8012  0.1333
 3610TIP3    H110769   4.927   7.239   2.413  2.2238  0.3594 -0.3990
 3610TIP3    H210770   4.857   7.372   2.397  1.9063  0.2168 -0.1979
 3611TIP3   OH210771   5.986   4.511   4.244 -0.1416 -0.3004  0.1825
 3611TIP3    H110772   5.959   4.459   4.168 -2.0480 -0.4446  0.9352
 3611TIP3    H210773   5.907   4.517   4.298  1.2109 -0.2720  2.2055
 3612TIP3   OH210774   5.361   4.423   0.673 -0.1346  0.0534  0.0925
 3612TIP3    H110775   5.339   4.388   0.760  1.4941 -0.8855  0.1488
 3612TIP3    H210776   5.353   4.348   0.615  0.2935  0.3167 -0.3112
 3613TIP3   OH210777   4.875   2.615   2.455 -0.0368  0.7354 -0.9507
 3613TIP3    H110778   4.798   2.620   2.511  0.5913  1.3160 -0.1247
 3613TIP3    H210779   4.841   2.590   2.369 -1.1387  0.9552 -0.5827
 3614TIP3   OH210780   6.298   2.280   4.457 -0.0238  0.2518 -0.4468
 3614TIP3    H110781   6.334   2.192   4.443  2.4331  1.0823  0.3235
 3614TIP3    H210782   6.256   2.275   4.543 -2.9766 -1.0747 -1.8937
 3615TIP3   OH210783   2.772   3.172   2.361  0.3419  0.0569 -0.1833
 3615TIP3    H110784   2.682   3.169   2.392  0.6648  0.3685  0.8161
 3615TIP3    H210785   2.823   3.134   2.432  0.9844 -0.2686 -0.8094
 3616TIP3   OH210786   2.991   4.590   3.022  0.2202  0.4024 -0.2352
 3616TIP3    H110787   3.047   4.513   3.012 -1.2179 -0.6961  0.0684
 3616TIP3    H210788   2.979   4.599   3.116  0.1830  0.8575 -0.2822
 3617TIP3   OH210789   4.126   4.747   2.229 -0.3472 -0.1671  0.5581
 3617TIP3    H110790   4.157   4.750   2.320 -0.7839 -1.0701  0.7469
 3617TIP3    H210791   4.035   4.776   2.234 -0.3448 -0.1374  0.3989
 3618TIP3   OH210792   7.577   5.625   2.374  0.1491  0.0573  0.5389
 3618TIP3    H110793   7.559   5.542   2.418  0.0924 -0.4098 -0.3569
 3618TIP3    H210794   7.495   5.645   2.328  0.6884 -0.2048 -0.5467
 3619TIP3   OH210795   4.622   3.396   3.571  0.4802 -0.2524 -0.0325
 3619TIP3    H110796   4.530   3.382   3.551  0.7853 -0.2891 -1.4833
 3619TIP3    H210797   4.668   3.328   3.521  1.3268  0.1057  0.2460
 3620TIP3   OH210798   6.818   5.432   0.788  0.5439 -0.0891 -0.9040
 3620TIP3    H110799   6.845   5.464   0.702  2.5652  1.0645  0.1226
 3620TIP3    H210800   6.807   5.511   0.841  0.9656 -0.8561  0.3585
 3621TIP3   OH210801   1.860   5.894   2.540  0.2333 -0.0589  0.1296
 3621TIP3    H110802   1.821   5.869   2.624 -1.4599 -2.2460 -1.2319
 3621TIP3    H210803   1.787   5.933   2.491  0.5151 -1.2554 -1.2845
 3622TIP3   OH210804   0.353   1.017   1.423  0.1026  0.2203 -0.3749
 3622TIP3    H110805   0.394   1.101   1.403  0.4506 -0.4803 -2.8612
 3622TIP3    H210806   0.267   1.022   1.381 -1.8607  1.1331  3.5839
 3623TIP3   OH210807   5.124   4.433   2.689 -0.2676  0.1142  0.0767
 3623TIP3    H110808   5.088   4.498   2.628 -0.5059  0.9424  1.1009
 3623TIP3    H210809   5.054   4.419   2.753  0.1507 -0.4276  0.4155
 3624TIP3   OH210810   4.411   1.019   4.348  0.1833  0.2189  0.0551
 3624TIP3    H110811   4.349   1.078   4.391  0.9522  1.4790 -0.5099
 3624TIP3    H210812   4.493   1.031   4.396 -0.3165 -2.4540  1.6612
 3625TIP3   OH210813   4.643   3.315   2.921 -0.1424 -0.3669  0.5997
 3625TIP3    H110814   4.586   3.269   2.983  0.6243 -1.8952  0.1789
 3625TIP3    H210815   4.729   3.316   2.963 -0.4375  1.9999  1.2602
 3626TIP3   OH210816   4.483   5.138   2.971  0.8013 -0.4600  0.7722
 3626TIP3    H110817   4.485   5.065   2.909  0.2987 -0.5121  0.8147
 3626TIP3    H210818   4.561   5.126   3.026  0.5746 -1.1172  0.9519
 3627TIP3   OH210819   4.353   4.450   3.097 -0.4579  0.6557 -0.0450
 3627TIP3    H110820   4.412   4.510   3.051 -1.0306  0.0524 -1.5989
 3627TIP3    H210821   4.294   4.418   3.029 -1.0018 -0.6461  1.0260
 3628TIP3   OH210822   3.646   1.913   2.108  0.4538 -0.6997  0.3410
 3628TIP3    H110823   3.675   1.855   2.178  1.3994 -0.7403 -0.0737
 3628TIP3    H210824   3.620   1.993   2.152  0.1664 -1.0512  0.8184
 3629TIP3   OH210825   3.660   4.326   0.460 -0.1905 -0.0628  0.1244
 3629TIP3    H110826   3.701   4.405   0.425 -0.8178  0.6074  0.8770
 3629TIP3    H210827   3.596   4.300   0.393 -1.9308  1.6491  1.0643
 3630TIP3   OH210828   3.305   1.884   4.243  0.8801 -0.5618 -0.3440
 3630TIP3    H110829   3.285   1.874   4.149  2.1377 -0.6438 -0.6098
 3630TIP3    H210830   3.347   1.970   4.250 -0.7438  0.1888  0.4157
 3631TIP3   OH210831   4.300   3.819   2.808  0.6787 -0.3165  0.0095
 3631TIP3    H110832   4.387   3.841   2.774  0.1296  0.4693 -0.9247
 3631TIP3    H210833   4.311   3.818   2.903  2.0461 -1.6900 -0.1382
 3632TIP3   OH210834   4.485   4.338   1.912 -0.1309 -0.3635  0.1286
 3632TIP3    H110835   4.431   4.275   1.863  0.3279 -0.4208 -0.3048
 3632TIP3    H210836   4.488   4.416   1.856 -1.0739  0.2134  0.8693
 3633TIP3   OH210837   3.844   4.454   1.868  0.5072 -0.1912 -0.1249
 3633TIP3    H110838   3.761   4.500   1.883  0.2498 -0.3637 -0.9813
 3633TIP3    H210839   3.820   4.362   1.864  0.9664 -0.3792  1.1787
 3634TIP3   OH210840   3.534   6.248   4.011  0.1250 -0.1441  0.2052
 3634TIP3    H110841   3.556   6.340   3.998  1.9663 -0.4301  1.0518
 3634TIP3    H210842   3.507   6.242   4.102 -1.1761 -0.2374 -0.1798
 3635TIP3   OH210843   3.999   5.415   3.366 -0.4815  0.0971  0.4543
 3635TIP3    H110844   4.072   5.356   3.383 -1.7281 -1.3883  0.7759
 3635TIP3    H210845   3.937   5.398   3.437 -1.5739  0.6348 -0.3494
 3636TIP3   OH210846   3.461   5.692   1.760  0.1261 -0.3136 -0.2859
 3636TIP3    H110847   3.502   5.610   1.787  2.4026  0.3846 -1.5243
 3636TIP3    H210848   3.492   5.757   1.823 -0.1806 -0.0430 -0.4112
 3637TIP3   OH210849   6.206   1.694   2.506 -0.0954  0.5935  0.2248
 3637TIP3    H110850   6.293   1.666   2.532 -0.1781  0.5729  0.4822
 3637TIP3    H210851   6.150   1.673   2.581 -0.4596 -0.0874 -0.2288
 3638TIP3   OH210852   3.386   2.662   3.186  0.1676  0.3337  0.5059
 3638TIP3    H110853   3.314   2.601   3.202 -0.8612  1.2178 -0.7049
 3638TIP3    H210854   3.449   2.611   3.135 -0.5065  0.1547 -0.1603
 3639TIP3   OH210855   5.266   4.226   1.847  0.4722  0.2495  0.6024
 3639TIP3    H110856   5.197   4.208   1.911  1.2643  1.9080  1.9646
 3639TIP3    H210857   5.299   4.139   1.822 -1.0798 -0.4929  1.0332
 3640TIP3   OH210858   1.226   4.417   3.296  0.4930  0.0167  0.4818
 3640TIP3    H110859   1.215   4.355   3.368 -0.6440  2.8479  2.8413
 3640TIP3    H210860   1.282   4.486   3.331  3.9607 -0.8806 -2.9431
 3641TIP3   OH210861   3.413   4.034   2.773  0.0689 -0.2978  0.1625
 3641TIP3    H110862   3.349   4.002   2.837 -0.9623  1.7068  0.1877
 3641TIP3    H210863   3.467   4.096   2.823  0.3389  0.0121 -0.5084
 3642TIP3   OH210864   4.128   3.547   0.610 -0.4112  0.1697 -0.0649
 3642TIP3    H110865   4.217   3.526   0.639  0.5024  1.0175 -2.1815
 3642TIP3    H210866   4.095   3.608   0.677  1.1027  0.9112  0.0307
 3643TIP3   OH210867   5.123   4.900   2.431 -0.5046  0.0782  0.1111
 3643TIP3    H110868   5.054   4.856   2.480  0.9533 -1.0152  1.2335
 3643TIP3    H210869   5.103   4.881   2.340 -2.2298  0.6049  0.3528
 3644TIP3   OH210870   2.703   3.452   0.878  0.7450  0.2923  0.1790
 3644TIP3    H110871   2.679   3.468   0.787  1.5915 -0.8876 -0.2677
 3644TIP3    H210872   2.750   3.368   0.876  0.1801 -0.0827  1.7963
 3645TIP3   OH210873   5.237   7.035   6.747  0.1694  0.3065  0.1254
 3645TIP3    H110874   5.272   7.026   6.659 -0.5400 -0.7660 -0.0626
 3645TIP3    H210875   5.176   6.961   6.756 -1.1934  1.4909  0.8310
 3646TIP3   OH210876   3.680   5.845   0.745 -0.5126 -0.3310  0.0450
 3646TIP3    H110877   3.618   5.900   0.791 -0.7062 -1.4254  1.1175
 3646TIP3    H210878   3.649   5.756   0.760  0.2576 -0.7840 -0.9731
 3647TIP3   OH210879   2.159   3.101   4.723  0.0981  0.2706  0.2328
 3647TIP3    H110880   2.118   3.143   4.799  0.5461 -0.9060  1.1551
 3647TIP3    H210881   2.087   3.086   4.662 -0.4033  0.5324  0.7534
 3648TIP3   OH210882   4.475   4.791   3.335  0.5218  0.1670  0.2103
 3648TIP3    H110883   4.477   4.830   3.247 -0.2734 -0.0313  0.0981
 3648TIP3    H210884   4.548   4.832   3.381  1.2840 -0.1475 -0.7199
 3649TIP3   OH210885   3.742   4.414   2.798 -0.2416  0.4886 -0.2272
 3649TIP3    H110886   3.705   4.496   2.764 -0.7582 -0.3849 -1.8318
 3649TIP3    H210887   3.832   4.438   2.823 -0.1492  1.3889 -1.3541
 3650TIP3   OH210888   3.340   1.601   2.016  0.1406  0.6103 -0.4577
 3650TIP3    H110889   3.347   1.640   1.928  0.1077 -0.4602 -0.9382
 3650TIP3    H210890   3.289   1.521   2.003 -0.7274  0.9591  0.7070
 3651TIP3   OH210891   6.656   5.689   2.105 -0.3439 -0.3307  0.0286
 3651TIP3    H110892   6.608   5.668   2.185  0.0722  1.0996  0.6789
 3651TIP3    H210893   6.592   5.677   2.035 -0.4993 -2.3512  0.4789
 3652TIP3   OH210894   5.373   6.061   2.409 -0.1770 -0.5032  0.1768
 3652TIP3    H110895   5.349   6.056   2.316  1.1045  1.9279 -0.3358
 3652TIP3    H210896   5.447   6.001   2.418 -0.8291 -1.3642 -0.1922
 3653TIP3   OH210897   6.877   6.706   6.504  0.4265  0.2308  0.1835
 3653TIP3    H110898   6.870   6.634   6.567  0.3543 -0.4455 -0.5931
 3653TIP3    H210899   6.950   6.758   6.537 -0.6352  0.7867  1.7289
 3654TIP3   OH210900   4.087   3.120   3.032 -0.3594 -0.4529 -0.1720
 3654TIP3    H110901   4.058   3.194   3.085 -0.2601 -1.1051  0.8181
 3654TIP3    H210902   4.047   3.134   2.947 -2.1326 -0.4089  0.6502
 3655TIP3   OH210903   3.653   3.190   1.939  0.8838 -0.2431 -0.4699
 3655TIP3    H110904   3.713   3.218   2.009  0.1217  1.6715 -0.5463
 3655TIP3    H210905   3.687   3.233   1.861  1.3863 -1.9111 -1.1874
 3656TIP3   OH210906   3.415   4.917   1.158 -0.2967 -0.5629  0.1260
 3656TIP3    H110907   3.368   4.948   1.080 -0.4561  2.2681  1.2898
 3656TIP3    H210908   3.345   4.896   1.220 -0.1068 -0.1293  0.4843
 3657TIP3   OH210909   6.153   5.475   2.808 -0.3626 -0.1498  0.0751
 3657TIP3    H110910   6.120   5.398   2.762  0.3988  0.1733 -1.0145
 3657TIP3    H210911   6.144   5.546   2.745 -0.4520  0.5385  0.8500
 3658TIP3   OH210912   4.057   3.379   3.151 -0.2306  0.2757  0.1664
 3658TIP3    H110913   3.966   3.353   3.167 -0.0705 -0.5190 -0.2276
 3658TIP3    H210914   4.052   3.444   3.081 -0.5371  0.6240  0.5053
 3659TIP3   OH210915   6.619   4.985   1.512  0.3241  0.0639  0.3009
 3659TIP3    H110916   6.697   5.038   1.497 -0.3472  0.9340 -0.1754
 3659TIP3    H210917   6.602   4.945   1.426  0.4608 -0.4142  0.4978
 3660TIP3   OH210918   4.047   3.166   1.810  0.6774  0.4218 -0.0016
 3660TIP3    H110919   3.952   3.160   1.795  0.6721  2.7015 -1.1494
 3660TIP3    H210920   4.059   3.251   1.852  2.4167  1.0918 -1.7838
 3661TIP3   OH210921   4.690   2.159   2.074  0.3954 -0.4888  0.3912
 3661TIP3    H110922   4.781   2.176   2.049 -0.0714  0.4356 -0.7533
 3661TIP3    H210923   4.647   2.136   1.991 -0.0962 -2.4052  1.1503
 3662TIP3   OH210924   2.039   2.043   3.070  0.1885  0.2035 -0.5644
 3662TIP3    H110925   1.989   2.099   3.129 -0.6383  0.1913 -1.2498
 3662TIP3    H210926   2.013   1.954   3.093  0.7953  0.1432 -0.1111
 3663TIP3   OH210927   4.669   3.120   0.687  0.2097 -0.0122 -0.1852
 3663TIP3    H110928   4.597   3.058   0.695  0.2715 -0.6515 -3.9609
 3663TIP3    H210929   4.735   3.087   0.748 -1.3195 -1.3780  0.7648
 3664TIP3   OH210930   1.896   0.543   6.772  0.0055  0.1039 -0.1410
 3664TIP3    H110931   1.868   0.595   6.698 -0.6224  0.9899  0.7075
 3664TIP3    H210932   1.885   0.452   6.744  0.9207  0.4118 -1.5527
 3665TIP3   OH210933   3.140   2.238   2.549  0.3575  0.6572 -0.0162
 3665TIP3    H110934   3.189   2.161   2.579 -2.9085 -2.9992 -3.4401
 3665TIP3    H210935   3.183   2.264   2.468 -0.6611  0.1571 -0.7308
 3666TIP3   OH210936   2.048   6.287   0.685  0.1722  0.1783 -0.3913
 3666TIP3    H110937   2.081   6.230   0.755 -0.8398  1.2468  0.9792
 3666TIP3    H210938   1.972   6.240   0.650  0.8034 -0.4563 -0.9567
 3667TIP3   OH210939   6.316   5.000   3.407  0.1649  0.2748  0.4580
 3667TIP3    H110940   6.308   5.046   3.491 -0.2942  1.0872 -0.0271
 3667TIP3    H210941   6.290   4.910   3.426 -0.1231  0.5049  1.1415
 3668TIP3   OH210942   5.104   4.091   3.005  0.3924  0.5471 -0.2316
 3668TIP3    H110943   5.154   4.030   3.060 -0.1848 -0.3170 -0.6647
 3668TIP3    H210944   5.159   4.170   3.001  1.4181 -0.1596 -0.1632
 3669TIP3   OH210945   3.025   4.488   0.926  0.4267  0.0678  0.3224
 3669TIP3    H110946   2.955   4.553   0.937 -0.3679 -1.0162  1.9155
 3669TIP3    H210947   3.095   4.518   0.983  1.0205  0.8092 -0.7853
 3670TIP3   OH210948   1.269   1.614   2.735 -0.3284  0.0773  0.0305
 3670TIP3    H110949   1.212   1.579   2.803  1.6228 -2.7118  0.3119
 3670TIP3    H210950   1.355   1.578   2.754  0.7383  1.0573 -2.6134
 3671TIP3   OH210951   3.186   2.802   4.838 -0.3283  0.0229  0.1909
 3671TIP3    H110952   3.236   2.835   4.764 -0.2089 -0.2472  0.1521
 3671TIP3    H210953   3.180   2.877   4.898 -0.9438  0.4128 -0.3592
 3672TIP3   OH210954   2.924   2.113   1.888  0.5089  0.9345 -0.1007
 3672TIP3    H110955   2.964   2.036   1.848  1.1067  2.0170 -1.5924
 3672TIP3    H210956   2.990   2.144   1.950  0.5830  0.7162 -0.0667
 3673TIP3   OH210957   4.216   2.731   3.642 -0.5474  0.2142 -0.1121
 3673TIP3    H110958   4.198   2.751   3.550 -0.8985 -0.8124 -0.2770
 3673TIP3    H210959   4.244   2.814   3.679 -1.3588  0.8699 -0.9146
 3674TIP3   OH210960   4.333   3.328   3.012  0.0220 -0.1645  0.3580
 3674TIP3    H110961   4.251   3.281   3.024 -0.0450  0.0082  0.5689
 3674TIP3    H210962   4.332   3.355   2.920  0.3317 -1.0911  0.0681
 3675TIP3   OH210963   3.854   3.091   4.240 -0.1882  0.0981  0.1723
 3675TIP3    H110964   3.947   3.111   4.244  0.3141 -1.7302 -1.6430
 3675TIP3    H210965   3.843   3.017   4.300 -0.6973  0.9963  1.2156
 3676TIP3   OH210966   4.082   4.326   1.710  0.0423 -0.0669 -0.4855
 3676TIP3    H110967   4.021   4.265   1.669 -1.1014  2.6615 -2.9917
 3676TIP3    H210968   4.027   4.382   1.764  0.8152  0.1671  0.0647
 3677TIP3   OH210969   2.886   3.771   0.747 -0.1385 -0.3198  0.0840
 3677TIP3    H110970   2.920   3.682   0.751 -2.2910 -1.1561  0.5246
 3677TIP3    H210971   2.852   3.781   0.658 -3.8902 -1.5241  1.2893
 3678TIP3   OH210972   4.790   3.256   4.113 -0.5474  0.2070 -0.3505
 3678TIP3    H110973   4.884   3.239   4.124 -1.4063 -2.9651  2.9473
 3678TIP3    H210974   4.767   3.312   4.188 -1.5882 -0.3879 -0.2225
 3679TIP3   OH210975   3.355   3.669   2.393  0.8137  0.6127 -0.2952
 3679TIP3    H110976   3.356   3.755   2.435 -0.4880  0.3602  0.2936
 3679TIP3    H210977   3.399   3.682   2.310  1.6123  1.5927  0.2724
 3680TIP3   OH210978   3.354   5.315   1.052  0.3779  0.0461 -0.2382
 3680TIP3    H110979   3.392   5.374   1.117 -2.7972  1.7154  0.2105
 3680TIP3    H210980   3.363   5.362   0.969 -1.1560  0.6737 -0.0507
 3681TIP3   OH210981   2.599   3.650   1.731 -0.3148 -0.1989 -0.5954
 3681TIP3    H110982   2.550   3.731   1.717  0.3544  0.2741 -0.2702
 3681TIP3    H210983   2.607   3.610   1.645  0.9756  1.0415 -1.0668
 3682TIP3   OH210984   3.962   7.128   3.293 -0.0125  0.0230 -0.2987
 3682TIP3    H110985   4.002   7.107   3.377  0.4449 -0.5069 -0.6512
 3682TIP3    H210986   4.021   7.193   3.254  1.0504 -1.4905 -1.2573
 3683TIP3   OH210987   2.741   3.764   2.363 -0.0426 -0.2465  0.4721
 3683TIP3    H110988   2.702   3.716   2.290 -2.2262  0.2539  1.2721
 3683TIP3    H210989   2.762   3.697   2.428 -1.4721 -0.3201  0.8695
 3684TIP3   OH210990   3.299   3.886   0.850 -0.4189 -0.3471  0.1700
 3684TIP3    H110991   3.318   3.849   0.936 -0.6403 -0.5295  0.1385
 3684TIP3    H210992   3.274   3.977   0.869 -0.9121 -0.5158  0.3390
 3685TIP3   OH210993   7.761   5.334   3.524 -0.5111 -0.9337 -0.2196
 3685TIP3    H110994   7.778   5.324   3.430 -2.0626 -0.0248 -0.6345
 3685TIP3    H210995   7.827   5.396   3.554 -1.0712  0.1108 -1.0994
 3686TIP3   OH210996   4.520   3.628   1.405  1.0522 -0.2970 -0.5750
 3686TIP3    H110997   4.517   3.723   1.404 -0.9278 -0.3263  0.0393
 3686TIP3    H210998   4.476   3.601   1.324 -0.6713 -0.6786  0.4434
 3687TIP3   OH210999   4.889   3.308   1.675 -0.0452 -0.0866  0.0017
 3687TIP3    H111000   4.821   3.346   1.619  0.2637 -0.1194 -0.3924
 3687TIP3    H211001   4.929   3.384   1.718 -0.3403 -0.0678  0.2485
 3688TIP3   OH211002   2.284   3.161   0.248 -0.1156  0.8383 -0.1113
 3688TIP3    H111003   2.205   3.194   0.290 -0.1729 -0.1097  0.5369
 3688TIP3    H211004   2.256   3.081   0.204  0.0144  1.6353 -1.7093
 3689TIP3   OH211005   2.737   3.598   2.143  0.4761 -0.6981  0.2229
 3689TIP3    H111006   2.802   3.646   2.092 -0.2656 -0.1959 -0.2608
 3689TIP3    H211007   2.699   3.535   2.081 -0.9760  0.4428 -0.0627
 3690TIP3   OH211008   4.317   1.864   2.843 -0.2903 -0.2526 -0.0795
 3690TIP3    H111009   4.310   1.884   2.936 -0.3083 -0.1394 -0.1050
 3690TIP3    H211010   4.329   1.949   2.801  0.4283 -0.3683 -0.1165
 3691TIP3   OH211011   2.548   3.789   1.404  0.0118 -0.5132  0.2084
 3691TIP3    H111012   2.484   3.860   1.396  0.2468 -0.4907 -1.8532
 3691TIP3    H211013   2.622   3.818   1.351 -0.0116 -2.4106 -0.9131
 3692TIP3   OH211014   4.064   5.059   1.590 -0.8763  0.4339  0.0964
 3692TIP3    H111015   4.112   5.077   1.509  2.4591 -1.1485  1.6399
 3692TIP3    H211016   4.032   4.970   1.579 -1.7950  0.7884 -0.1224
 3693TIP3   OH211017   5.529   4.578   3.425  0.1096 -0.3505  0.6671
 3693TIP3    H111018   5.613   4.543   3.394 -0.1720 -0.5439  0.1015
 3693TIP3    H211019   5.534   4.572   3.520  0.3238 -1.3378  0.6051
 3694TIP3   OH211020   5.580   4.420   1.768 -0.3408 -0.3018  0.4596
 3694TIP3    H111021   5.558   4.377   1.851  0.9368 -0.5944  0.6611
 3694TIP3    H211022   5.500   4.414   1.716 -0.7310 -1.3605  1.1516
 3695TIP3   OH211023   4.939   6.475   1.758 -0.2699 -0.3263 -0.2157
 3695TIP3    H111024   4.964   6.564   1.734 -0.3337 -0.3291 -0.2945
 3695TIP3    H211025   4.848   6.482   1.788 -0.3180 -0.3861 -0.3476
 3696TIP3   OH211026   5.272   5.049   1.989 -0.4999 -0.2754 -0.6083
 3696TIP3    H111027   5.244   4.995   2.062 -1.9903  0.5835 -0.5357
 3696TIP3    H211028   5.365   5.067   2.007 -0.4821 -1.2540  0.3075
 3697TIP3   OH211029   3.532   3.777   3.546 -0.3553  0.2337  0.1140
 3697TIP3    H111030   3.498   3.749   3.462  0.2196 -1.1103  0.3216
 3697TIP3    H211031   3.617   3.734   3.553 -0.1840  0.7265  1.1614
 3698TIP3   OH211032   5.404   5.865   1.436 -0.1668 -0.6142 -0.0772
 3698TIP3    H111033   5.399   5.949   1.389 -0.3801  0.6459  2.1102
 3698TIP3    H211034   5.328   5.816   1.406  0.5430 -0.5041 -2.1998
 3699TIP3   OH211035   2.831   6.284   0.881  0.3668  0.1839 -0.3079
 3699TIP3    H111036   2.828   6.380   0.880  0.7807  0.2256  1.0388
 3699TIP3    H211037   2.745   6.258   0.914  0.9324  0.1589  1.1717
 3700TIP3   OH211038   1.388   4.543   0.918  0.1320  0.5827 -0.0341
 3700TIP3    H111039   1.308   4.596   0.913  0.3282  0.8086 -0.7380
 3700TIP3    H211040   1.458   4.601   0.888  0.6836  0.6277  1.2849
 3701TIP3   OH211041   2.769   2.872   0.953  0.0968  0.3778  0.1494
 3701TIP3    H111042   2.713   2.949   0.957 -1.0862 -0.2714 -2.6965
 3701TIP3    H211043   2.750   2.824   1.034 -3.0993  0.4520 -0.4958
 3702TIP3   OH211044   3.661   5.123   3.470  0.0581 -0.0287 -0.1540
 3702TIP3    H111045   3.685   5.036   3.500  1.3846  0.5522  0.4626
 3702TIP3    H211046   3.677   5.121   3.375  0.7279 -0.2320 -0.0330
 3703TIP3   OH211047   5.587   3.649   2.558 -0.5829  0.3014  0.0160
 3703TIP3    H111048   5.662   3.640   2.616 -0.8598 -2.2418  0.0603
 3703TIP3    H211049   5.624   3.668   2.472  0.0105  0.8062  0.3879
 3704TIP3   OH211050   5.373   4.680   2.522  0.0784  0.4068 -0.0879
 3704TIP3    H111051   5.287   4.637   2.522  0.1660  0.2122 -2.1984
 3704TIP3    H211052   5.369   4.739   2.597 -1.4092 -0.5645  0.6293
 3705TIP3   OH211053   4.157   4.422   1.138  0.4215  0.1678  0.3224
 3705TIP3    H111054   4.173   4.403   1.230  0.0229 -1.0780  0.1434
 3705TIP3    H211055   4.062   4.411   1.127  0.4971  0.1010 -0.2865
 3706TIP3   OH211056   5.594   5.703   1.308  0.0404 -0.0791 -0.0594
 3706TIP3    H111057   5.546   5.786   1.306  2.2615  1.2487 -0.7536
 3706TIP3    H211058   5.633   5.701   1.396  2.0633  0.8733 -0.9140
 3707TIP3   OH211059   7.974   5.557   3.671  0.2230 -0.2606  0.6070
 3707TIP3    H111060   7.993   5.559   3.764  1.0672  3.4103  0.4624
 3707TIP3    H211061   8.043   5.502   3.633  1.4413  0.3826  1.8613
 3708TIP3   OH211062   2.893   1.817   5.098  0.0511 -0.3463 -0.0262
 3708TIP3    H111063   2.814   1.762   5.096 -0.3875  0.2204  1.4281
 3708TIP3    H211064   2.864   1.901   5.062  0.5091 -0.7690 -1.4236
 3709TIP3   OH211065   3.070   2.954   2.679 -0.1822  0.0071  0.2850
 3709TIP3    H111066   3.121   2.981   2.756 -0.6535 -0.5558  0.8002
 3709TIP3    H211067   3.057   2.860   2.691 -0.9024  0.0531 -0.1015
 3710TIP3   OH211068   3.483   2.160   1.634 -0.1704 -0.2599  0.2142
 3710TIP3    H111069   3.407   2.193   1.585 -0.4210  0.7723  1.2713
 3710TIP3    H211070   3.552   2.224   1.617 -0.4536  0.4862  1.7133
 3711TIP3   OH211071   5.215   5.615   4.328 -0.4647  0.6117 -0.0423
 3711TIP3    H111072   5.128   5.620   4.367 -0.3241  0.3613  0.3007
 3711TIP3    H211073   5.271   5.581   4.397 -0.7902 -2.6353 -1.2824
 3712TIP3   OH211074   4.244   1.515   2.076 -0.5384  0.0376 -0.4699
 3712TIP3    H111075   4.331   1.553   2.080 -1.5357  2.2586  1.2943
 3712TIP3    H211076   4.251   1.432   2.123  0.3738  0.7254  0.6278
 3713TIP3   OH211077   4.603   7.769   6.294  0.5659  0.5597 -0.1876
 3713TIP3    H111078   4.621   7.700   6.357 -0.2369  0.1677 -0.3728
 3713TIP3    H211079   4.607   7.850   6.344  0.2704  0.2743  0.3001
 3714TIP3   OH211080   2.316   2.725   3.426 -0.0116 -0.1907 -0.4373
 3714TIP3    H111081   2.347   2.709   3.337 -1.6802  2.4094 -1.5590
 3714TIP3    H211082   2.234   2.676   3.432 -0.5197  0.6185 -0.7555
 3715TIP3   OH211083   5.676   6.372   0.669 -0.3438  0.1359  0.3323
 3715TIP3    H111084   5.643   6.406   0.585  0.5789  1.6374  0.5455
 3715TIP3    H211085   5.716   6.448   0.711  0.3308 -0.8907  1.5807
 3716TIP3   OH211086   1.754   3.084   3.536  0.4939  0.3355 -0.5246
 3716TIP3    H111087   1.737   3.016   3.471 -0.4830  0.2012 -0.1388
 3716TIP3    H211088   1.769   3.163   3.485  2.0072 -0.2459 -0.9903
 3717TIP3   OH211089   2.666   2.072   0.258 -0.1618  0.0649  0.3715
 3717TIP3    H111090   2.598   2.060   0.192  1.0503  1.0520 -1.1142
 3717TIP3    H211091   2.637   2.149   0.308 -0.1020  0.5298 -0.3032
 3718TIP3   OH211092   5.605   3.483   2.875  0.2924  0.2940  0.4178
 3718TIP3    H111093   5.555   3.410   2.840  1.7591 -1.9606  2.8986
 3718TIP3    H211094   5.612   3.465   2.969  1.1294  3.3586  0.9964
 3719TIP3   OH211095   2.572   4.994   4.594  0.0520 -0.0662  0.2321
 3719TIP3    H111096   2.587   5.080   4.554  1.4043 -1.2504 -1.9537
 3719TIP3    H211097   2.485   4.969   4.564  0.6975 -0.5560 -1.2671
 3720TIP3   OH211098   8.212   6.990   2.065 -0.6303 -0.2262 -0.1736
 3720TIP3    H111099   8.165   6.962   2.144 -1.1683  0.4190 -0.2641
 3720TIP3    H211100   8.290   6.935   2.063 -1.4755 -1.4336 -0.1248
 3721TIP3   OH211101   2.809   4.961   1.835  0.2055 -0.0681 -0.0971
 3721TIP3    H111102   2.813   4.865   1.831  0.5051 -0.1026  0.9227
 3721TIP3    H211103   2.821   4.989   1.744  2.1700 -0.9378 -0.1342
 3722TIP3   OH211104   3.981   3.336   0.198  0.8110  0.0868 -0.3908
 3722TIP3    H111105   3.957   3.429   0.206 -0.9239 -0.5033  1.8224
 3722TIP3    H211106   3.902   3.295   0.163  0.1456 -1.1652  2.4931
 3723TIP3   OH211107   7.515   4.205   0.886  0.1343 -0.0691  0.1801
 3723TIP3    H111108   7.558   4.188   0.970 -0.0583 -3.1898 -0.2760
 3723TIP3    H211109   7.425   4.229   0.909  0.0169 -1.1338  0.8769
 3724TIP3   OH211110   2.551   3.067   0.949 -0.1353  0.2843  0.2461
 3724TIP3    H111111   2.487   3.034   0.886 -0.8868  1.1666  0.5282
 3724TIP3    H211112   2.581   3.150   0.912  0.2566  0.2609  0.5075
 3725TIP3   OH211113   3.654   4.218   3.173 -0.3597 -0.6229  0.2526
 3725TIP3    H111114   3.726   4.202   3.234 -0.9267 -1.7192  0.6407
 3725TIP3    H211115   3.664   4.310   3.149 -0.7253  0.1106  2.7504
 3726TIP3   OH211116   4.318   2.097   1.284 -0.8726 -0.2943  0.2537
 3726TIP3    H111117   4.412   2.106   1.269 -1.2180  1.5402 -0.9206
 3726TIP3    H211118   4.294   2.018   1.237 -0.2856  0.3849 -1.2157
 3727TIP3   OH211119   5.419   2.505   4.586 -0.0533  0.1542 -0.1400
 3727TIP3    H111120   5.361   2.509   4.662 -1.0490 -2.2072 -0.7374
 3727TIP3    H211121   5.401   2.585   4.537 -2.0027 -0.0194  0.2786
 3728TIP3   OH211122   5.559   4.788   1.804  0.6212 -0.5455  0.0471
 3728TIP3    H111123   5.477   4.738   1.804  0.2990 -0.0116 -1.0785
 3728TIP3    H211124   5.622   4.732   1.759  0.2757  0.0184 -1.1593
 3729TIP3   OH211125   4.401   2.433   3.541 -0.4655 -0.1370  0.3488
 3729TIP3    H111126   4.368   2.502   3.483  0.5511  0.2207  0.1829
 3729TIP3    H211127   4.363   2.353   3.507 -0.6518  0.1936 -0.2325
 3730TIP3   OH211128   6.608   3.791   2.969 -0.0487  0.3785 -0.4963
 3730TIP3    H111129   6.691   3.835   2.949 -0.3643  0.8291 -0.8351
 3730TIP3    H211130   6.595   3.730   2.896  0.7774 -0.8543  0.3683
 3731TIP3   OH211131   3.300   2.783   1.274  0.0655 -0.4666  0.1266
 3731TIP3    H111132   3.355   2.814   1.345 -0.6442  2.6437 -0.6273
 3731TIP3    H211133   3.210   2.794   1.305 -0.2147 -1.2351 -0.3845
 3732TIP3   OH211134   4.434   4.849   2.211  0.1342  0.3568 -0.0884
 3732TIP3    H111135   4.372   4.786   2.174 -0.3057 -0.1534  1.4965
 3732TIP3    H211136   4.395   4.935   2.194 -1.2014  0.0300  1.2102
 3733TIP3   OH211137   2.645   3.147   2.676  0.0910  0.1824 -0.1810
 3733TIP3    H111138   2.738   3.161   2.659  0.4597  0.1146  1.6426
 3733TIP3    H211139   2.614   3.230   2.711  0.0334 -0.4974  1.4542
 3734TIP3   OH211140   2.781   1.312   2.811  0.2175 -0.2229 -0.0502
 3734TIP3    H111141   2.806   1.226   2.845  0.9153 -0.8214 -2.0383
 3734TIP3    H211142   2.834   1.374   2.861 -0.0355 -0.9623  1.1517
 3735TIP3   OH211143   3.979   1.232   2.077  0.0552  0.3738  0.8000
 3735TIP3    H111144   3.913   1.175   2.115 -0.6811 -0.1214 -1.1509
 3735TIP3    H211145   3.929   1.301   2.033  0.8677  0.5576  0.1503
 3736TIP3   OH211146   3.618   1.493   3.745  0.0646  0.2369  0.6480
 3736TIP3    H111147   3.660   1.578   3.755  0.3538  0.2284 -0.5301
 3736TIP3    H211148   3.525   1.511   3.757 -0.0675  1.0343 -1.4207
 3737TIP3   OH211149   4.340   3.901   3.489  0.3265 -0.3909 -0.2527
 3737TIP3    H111150   4.421   3.875   3.446  0.7172 -0.9980  0.8448
 3737TIP3    H211151   4.278   3.913   3.417  1.3127 -0.1595 -1.0811
 3738TIP3   OH211152   5.747   3.749   3.185  0.2655  0.2701 -0.1638
 3738TIP3    H111153   5.816   3.785   3.240 -0.6350 -0.0562  1.2015
 3738TIP3    H211154   5.765   3.784   3.097  0.3754  2.6956  0.7936
 3739TIP3   OH211155   2.104   2.307   4.338  0.0078 -0.3439 -0.0353
 3739TIP3    H111156   2.197   2.289   4.322 -0.0773 -0.1609 -0.7508
 3739TIP3    H211157   2.064   2.221   4.343 -0.0354 -0.4156 -1.2815
 3740TIP3   OH211158   2.093   2.844   3.797 -0.2617 -0.0236  0.2653
 3740TIP3    H111159   2.003   2.829   3.825  0.0060 -1.4172  0.4432
 3740TIP3    H211160   2.109   2.937   3.813 -1.3022 -0.0174  1.2907
 3741TIP3   OH211161   4.661   3.810   2.895  0.5111 -0.0594  0.2890
 3741TIP3    H111162   4.735   3.859   2.859  0.0134  0.0843 -0.5457
 3741TIP3    H211163   4.648   3.738   2.834  0.5898 -0.6477  0.9702
 3742TIP3   OH211164   2.973   3.825   1.529 -0.4957 -0.6270  0.4307
 3742TIP3    H111165   2.910   3.766   1.488  0.7259 -1.5132 -0.2161
 3742TIP3    H211166   2.929   3.910   1.531 -1.9877 -1.3935  0.6846
 3743TIP3   OH211167   2.337   3.805   3.737  0.1308  0.6383 -0.0420
 3743TIP3    H111168   2.411   3.745   3.729 -2.3135 -2.3601 -0.9247
 3743TIP3    H211169   2.312   3.824   3.646 -1.6464 -0.2982  0.2239
 3744TIP3   OH211170   5.010   3.218   3.079  0.0541 -0.1023  0.3199
 3744TIP3    H111171   5.100   3.248   3.086 -0.0370  0.2327  0.0376
 3744TIP3    H211172   4.968   3.249   3.159 -0.2377  1.1877 -0.3323
 3745TIP3   OH211173   6.797   4.286   1.342 -0.0631 -0.2908 -0.3593
 3745TIP3    H111174   6.734   4.302   1.412 -0.9923  1.9353 -1.6637
 3745TIP3    H211175   6.882   4.286   1.386 -0.5943  1.5982  0.6969
 3746TIP3   OH211176   2.373   7.761   1.760  0.1349  0.4722  0.1577
 3746TIP3    H111177   2.295   7.817   1.766 -1.7124 -2.1472  1.3152
 3746TIP3    H211178   2.369   7.724   1.672 -0.7491 -0.8321  0.7476
 3747TIP3   OH211179   3.109   5.142   0.295 -0.3684 -0.4575 -0.4801
 3747TIP3    H111180   3.078   5.164   0.383  0.9091  0.5047 -0.2576
 3747TIP3    H211181   3.048   5.186   0.236 -1.9057 -2.0322 -0.1147
 3748TIP3   OH211182   2.843   3.544   2.588  0.4783  0.2711 -0.3450
 3748TIP3    H111183   2.939   3.544   2.595  0.4875  2.5470 -0.0356
 3748TIP3    H211184   2.815   3.616   2.644 -1.2727  0.9802 -2.0527
 3749TIP3   OH211185   2.208   2.693   2.084 -0.1038  0.6418 -0.0488
 3749TIP3    H111186   2.130   2.748   2.075 -2.3978 -2.5169 -0.6085
 3749TIP3    H211187   2.198   2.626   2.015  1.7462 -1.3662  1.5561
 3750TIP3   OH211188   5.036   4.185   2.049  0.8887 -0.4585 -0.5891
 3750TIP3    H111189   4.984   4.110   2.021 -1.1987  0.4244  0.7954
 3750TIP3    H211190   4.979   4.261   2.036  1.2280  0.3773  2.3571
 3751TIP3   OH211191   4.491   4.018   0.850 -0.9100 -0.0083  0.1838
 3751TIP3    H111192   4.524   4.107   0.860 -1.8041  0.4346 -0.6782
 3751TIP3    H211193   4.525   3.989   0.765  0.0448 -0.7954  0.8182
 3752TIP3   OH211194   4.761   5.438   2.759  0.0231  0.0020 -0.7083
 3752TIP3    H111195   4.692   5.505   2.752 -0.5499 -0.6306 -1.1361
 3752TIP3    H211196   4.730   5.366   2.704 -0.7391 -1.7743  1.9437
 3753TIP3   OH211197   2.373   6.131   1.533  0.1077  0.2005  0.0970
 3753TIP3    H111198   2.346   6.054   1.482  1.7453  0.6814 -1.5495
 3753TIP3    H211199   2.302   6.194   1.520 -1.6008 -1.2707  2.0637
 3754TIP3   OH211200   4.782   6.278   4.831  0.2199  0.7853  0.0675
 3754TIP3    H111201   4.842   6.203   4.826  0.1841  0.8700 -2.4534
 3754TIP3    H211202   4.840   6.353   4.844  0.5353  0.6756 -0.6597
 3755TIP3   OH211203   4.038   5.584   1.750  0.8739  0.0475 -0.3763
 3755TIP3    H111204   3.983   5.535   1.811 -1.1014  0.5421 -1.7125
 3755TIP3    H211205   4.126   5.548   1.763 -0.0158 -1.8112  0.7187
 3756TIP3   OH211206   5.645   3.859   1.127 -0.9250  0.0383 -0.2703
 3756TIP3    H111207   5.700   3.889   1.054 -1.5048  1.6282 -0.0810
 3756TIP3    H211208   5.562   3.904   1.114 -0.6948  1.1788  1.9541
 3757TIP3   OH211209   5.382   3.473   1.949 -0.7573 -0.1555  0.3753
 3757TIP3    H111210   5.436   3.412   2.000 -1.1390 -0.8182 -0.0021
 3757TIP3    H211211   5.310   3.496   2.007 -0.6543 -0.1193  0.4893
 3758TIP3   OH211212   5.178   3.464   2.128 -0.2377  0.2048  0.3348
 3758TIP3    H111213   5.102   3.494   2.177  0.7339  0.7040  1.5512
 3758TIP3    H211214   5.240   3.435   2.195  1.1246  0.9600 -0.5836
 3759TIP3   OH211215   3.796   3.391   1.463  0.2843 -0.0980  0.0705
 3759TIP3    H111216   3.819   3.483   1.452  0.5600 -0.3608 -1.7064
 3759TIP3    H211217   3.861   3.344   1.410  0.3272 -1.3413  1.1894
 3760TIP3   OH211218   2.943   5.527   1.180  0.1451  0.0852 -0.0636
 3760TIP3    H111219   2.901   5.441   1.181 -0.9040  0.5473 -1.6457
 3760TIP3    H211220   3.013   5.519   1.116 -1.3766  1.0226 -1.8911
 3761TIP3   OH211221   2.180   5.012   0.963  0.1154 -0.7753 -0.3968
 3761TIP3    H111222   2.186   5.054   0.877  0.9213  0.9616  0.4721
 3761TIP3    H211223   2.090   4.979   0.968  0.0954 -1.0081 -1.9372
 3762TIP3   OH211224   4.942   3.446   2.524 -0.0301  0.1566  0.4380
 3762TIP3    H111225   4.992   3.464   2.603 -1.9321  0.5106  1.5987
 3762TIP3    H211226   4.937   3.350   2.519  1.8354  0.0978 -0.3906
 3763TIP3   OH211227   8.498   6.747   6.049  0.1743  0.0245  1.0632
 3763TIP3    H111228   8.464   6.678   5.992  0.1320 -0.5666  1.7965
 3763TIP3    H211229   8.512   6.704   6.133 -2.1800  1.4479  2.2563
 3764TIP3   OH211230   6.560   5.339   2.288 -0.1349  0.2690  0.2107
 3764TIP3    H111231   6.549   5.433   2.271 -0.3728  0.1003 -0.5900
 3764TIP3    H211232   6.646   5.333   2.329 -0.7164  0.9853  1.5472
 3765TIP3   OH211233   2.590   2.998   2.071 -0.0551 -0.3588 -0.3187
 3765TIP3    H111234   2.587   2.908   2.104  2.0556 -0.4882 -0.4638
 3765TIP3    H211235   2.612   2.990   1.979  2.5365  0.3803  0.1908
 3766TIP3   OH211236   5.195   2.955   1.006 -0.2654 -0.7433  0.0940
 3766TIP3    H111237   5.243   2.876   1.030  0.7828  0.4552  2.1730
 3766TIP3    H211238   5.263   3.018   0.982 -1.0702 -0.3805 -1.2929
 3767TIP3   OH211239   2.492   3.967   2.200  0.4046 -0.2435  0.2874
 3767TIP3    H111240   2.556   3.972   2.271  2.1901  0.2098 -1.3192
 3767TIP3    H211241   2.531   4.018   2.129 -1.9060  0.3096 -0.6145
 3768TIP3   OH211242   6.653   5.307   3.460  0.6335  0.8562  0.5249
 3768TIP3    H111243   6.597   5.312   3.538 -0.5262 -0.3935 -0.2214
 3768TIP3    H211244   6.713   5.235   3.478  0.1283  0.3303  0.1114
 3769TIP3   OH211245   4.884   2.940   2.887  0.3248 -0.2258  0.0229
 3769TIP3    H111246   4.902   2.976   2.974 -2.3650 -0.6205  0.7860
 3769TIP3    H211247   4.820   3.000   2.849  0.8286 -0.5381 -1.3677
 3770TIP3   OH211248   2.924   3.156   2.573  0.3142 -0.4148  0.0156
 3770TIP3    H111249   2.960   3.073   2.603 -0.4047 -0.7419 -0.0162
 3770TIP3    H211250   2.962   3.222   2.632  0.8262 -0.7702  0.0856
 3771TIP3   OH211251   4.467   3.097   3.387  0.6753  0.1408  0.1484
 3771TIP3    H111252   4.544   3.126   3.435  1.3441  0.4299 -1.0658
 3771TIP3    H211253   4.482   3.128   3.297 -1.2824  1.0145  0.0919
 3772TIP3   OH211254   5.185   3.923   2.510 -0.3850 -0.2194 -0.2764
 3772TIP3    H111255   5.160   3.872   2.433 -2.5713  1.2197 -0.5765
 3772TIP3    H211256   5.123   3.895   2.578  0.5796 -0.3965  0.5452
 3773TIP3   OH211257   3.705   5.091   1.392 -0.5752 -0.7142 -0.3772
 3773TIP3    H111258   3.702   5.057   1.482 -0.1163 -0.7951 -0.3888
 3773TIP3    H211259   3.713   5.012   1.338  1.3284 -0.5562 -0.3553
 3774TIP3   OH211260   2.452   6.039   0.704 -0.1150  0.7925 -0.2118
 3774TIP3    H111261   2.476   6.113   0.648  3.2583 -1.1723 -1.4559
 3774TIP3    H211262   2.522   6.033   0.768 -1.8829  0.4612  1.7415
 3775TIP3   OH211263   3.154   5.426   0.029  0.2717  0.1398  0.7631
 3775TIP3    H111264   3.152   5.443   0.124 -0.6794 -1.3203  1.0198
 3775TIP3    H211265   3.213   5.351   0.020 -1.9451 -1.6174  0.5254
 3776TIP3   OH211266   4.634   3.560   3.952  0.4253  0.9166  0.1466
 3776TIP3    H111267   4.563   3.621   3.933 -0.2464 -0.1084 -0.7263
 3776TIP3    H211268   4.590   3.484   3.991  0.8031 -0.4397 -1.9901
 3777TIP3   OH211269   4.619   4.095   3.170 -0.3262 -0.2473  0.6159
 3777TIP3    H111270   4.577   4.102   3.085 -1.8585 -1.2800  1.2661
 3777TIP3    H211271   4.561   4.143   3.230  1.8361  2.3275  0.7267
 3778TIP3   OH211272   4.715   4.810   3.070  0.0033  0.4440  0.1799
 3778TIP3    H111273   4.735   4.795   3.163  1.4830  0.4124 -0.1287
 3778TIP3    H211274   4.797   4.840   3.033 -0.1893 -0.9396 -1.4308
 3779TIP3   OH211275   3.365   5.072   0.631 -0.0212  0.0430  0.7588
 3779TIP3    H111276   3.427   5.002   0.651  2.1613  2.6650  3.6750
 3779TIP3    H211277   3.395   5.106   0.547 -0.1802 -1.5157  0.0528
 3780TIP3   OH211278   2.458   4.873   1.945  0.2290 -0.3879  0.6467
 3780TIP3    H111279   2.543   4.830   1.952 -0.4727 -2.0163 -0.4464
 3780TIP3    H211280   2.449   4.922   2.027  2.8750  1.1003  0.1196
 3781TIP3   OH211281   4.782   1.471   3.778 -0.4862  0.2075 -0.0519
 3781TIP3    H111282   4.746   1.392   3.817  0.6290 -1.7755 -2.8405
 3781TIP3    H211283   4.716   1.499   3.714  0.3857 -0.1882 -1.1491
 3782TIP3   OH211284   3.224   4.969   1.809  0.1418 -0.1215  0.4010
 3782TIP3    H111285   3.162   5.004   1.874  1.1305  1.1782  0.6762
 3782TIP3    H211286   3.282   5.043   1.789  0.6230 -0.8633 -1.0450
 3783TIP3   OH211287   3.108   4.843   3.019  0.9837 -0.1911  0.7296
 3783TIP3    H111288   3.070   4.755   3.012 -0.6490  0.6293 -0.9455
 3783TIP3    H211289   3.203   4.827   3.017  0.7483 -1.7685 -2.4482
 3784TIP3   OH211290   5.141   3.652   0.465 -0.2451 -0.2259 -0.6836
 3784TIP3    H111291   5.076   3.691   0.406 -0.8258  0.1017  0.1699
 3784TIP3    H211292   5.091   3.627   0.542  0.9668  1.6728  0.7386
 3785TIP3   OH211293   5.126   6.588   3.460  0.3014 -0.3977  0.3238
 3785TIP3    H111294   5.195   6.587   3.526  1.0135  0.2995 -0.3908
 3785TIP3    H211295   5.134   6.504   3.416  0.4858 -0.4518  0.4559
 3786TIP3   OH211296   5.230   5.586   0.447  0.1415 -0.0201 -0.7298
 3786TIP3    H111297   5.207   5.631   0.366 -0.0493  0.3330 -0.4759
 3786TIP3    H211298   5.309   5.631   0.477  0.2555 -0.2013 -0.7577
 3787TIP3   OH211299   2.692   3.479   2.981  0.3660  0.0842  0.0420
 3787TIP3    H111300   2.701   3.412   3.049  0.1076  0.4753  0.4610
 3787TIP3    H211301   2.780   3.515   2.972  0.0160  1.3867  1.5681
 3788TIP3   OH211302   4.015   3.644   2.336 -0.0129  0.0562  0.1849
 3788TIP3    H111303   3.937   3.619   2.385  1.3591 -1.0851  1.8679
 3788TIP3    H211304   4.081   3.661   2.404  1.0558  1.5312 -1.1823
 3789TIP3   OH211305   3.787   7.116   2.002  0.0842  0.1975  0.0451
 3789TIP3    H111306   3.743   7.041   2.041 -0.7906  0.9030  0.4464
 3789TIP3    H211307   3.798   7.177   2.075 -2.1603  1.8065 -0.9123
 3790TIP3   OH211308   6.480   4.417   2.413  0.0641 -0.1165  0.1792
 3790TIP3    H111309   6.452   4.388   2.499 -2.4119  0.7996 -0.2560
 3790TIP3    H211310   6.471   4.340   2.357 -2.0511  0.2544 -0.0279
 3791TIP3   OH211311   5.374   2.202   4.588 -0.4423 -0.3964 -0.2926
 3791TIP3    H111312   5.415   2.288   4.586 -1.2717 -0.0121 -0.7514
 3791TIP3    H211313   5.280   2.219   4.592 -0.5516 -1.2777  1.2589
 3792TIP3   OH211314   4.933   2.357   2.679 -0.0139  0.4352 -0.1002
 3792TIP3    H111315   4.876   2.387   2.749  1.3443  0.1900  1.1284
 3792TIP3    H211316   4.876   2.353   2.602 -1.2643  1.7331  0.7396
 3793TIP3   OH211317   2.932   3.406   2.280 -0.1355  0.2496 -0.1013
 3793TIP3    H111318   2.901   3.341   2.343  2.3331  0.2894  1.2180
 3793TIP3    H211319   2.861   3.469   2.274 -0.2948  0.4357  2.9561
 3794TIP3   OH211320   2.712   0.450   0.775 -0.4380  0.1292 -0.0160
 3794TIP3    H111321   2.674   0.367   0.745  3.0077 -0.4798 -2.9851
 3794TIP3    H211322   2.687   0.514   0.708  0.2954  0.6110  0.1623
 3795TIP3   OH211323   3.530   2.718   2.848 -0.1493 -0.3558 -0.7316
 3795TIP3    H111324   3.572   2.652   2.904 -0.8143 -1.5748 -1.6722
 3795TIP3    H211325   3.602   2.776   2.823  0.9353 -2.2075 -2.0133
 3796TIP3   OH211326   4.899   2.934   2.398  0.0539 -0.1087  0.0467
 3796TIP3    H111327   4.852   2.853   2.374 -0.2992 -0.5479  2.1498
 3796TIP3    H211328   4.938   2.915   2.483  0.9786  1.5473  0.0093
 3797TIP3   OH211329   3.892   4.709   1.428 -0.6896 -0.3847 -0.3887
 3797TIP3    H111330   3.812   4.757   1.405 -0.2919 -0.3225 -1.7258
 3797TIP3    H211331   3.960   4.753   1.377  0.2442 -0.2561  0.9658
 3798TIP3   OH211332   1.218   4.742   1.246  0.4789  0.8412 -0.1153
 3798TIP3    H111333   1.219   4.700   1.161 -4.4395 -0.4867  0.3319
 3798TIP3    H211334   1.262   4.680   1.304 -2.4065 -1.5097 -0.3930
 3799TIP3   OH211335   1.861   4.682   1.670  0.6422  0.7597  0.4001
 3799TIP3    H111336   1.769   4.702   1.691  0.5389  1.0412 -0.3033
 3799TIP3    H211337   1.896   4.645   1.750 -1.0793 -2.7034 -0.3524
 3800TIP3   OH211338   4.548   4.161   2.910  0.4952  0.0194 -0.3951
 3800TIP3    H111339   4.496   4.140   2.833  0.4047 -0.3249 -0.2396
 3800TIP3    H211340   4.564   4.255   2.903 -0.9999  0.3317  0.0678
 3801TIP3   OH211341   4.070   3.704   0.830 -0.6021 -0.0725  0.4947
 3801TIP3    H111342   4.061   3.799   0.824 -1.4624 -0.0312  2.3480
 3801TIP3    H211343   4.160   3.691   0.860  0.2697  0.0438 -1.8965
 3802TIP3   OH211344   3.145   4.019   3.489 -0.1916  0.1517  0.2042
 3802TIP3    H111345   3.179   4.091   3.542  1.2559 -0.3505 -0.0134
 3802TIP3    H211346   3.063   4.052   3.452 -0.5357  0.9877  1.6633
 3803TIP3   OH211347   4.981   3.238   3.780  0.2623  0.1194 -0.0993
 3803TIP3    H111348   5.069   3.276   3.782 -0.4852  1.8957 -0.2524
 3803TIP3    H211349   4.922   3.313   3.785 -1.2652 -1.1801  2.7979
 3804TIP3   OH211350   5.020   3.288   2.795  0.2434 -0.3260  0.2163
 3804TIP3    H111351   5.037   3.247   2.880 -2.1470  0.2533  1.0056
 3804TIP3    H211352   4.958   3.229   2.752  0.5602 -0.0162 -0.6813
 3805TIP3   OH211353   4.292   4.530   1.839  0.6958  0.0396 -0.1801
 3805TIP3    H111354   4.298   4.551   1.932  0.2554  0.1373 -0.1751
 3805TIP3    H211355   4.208   4.566   1.811  1.1275  0.5956 -0.7688
 3806TIP3   OH211356   4.781   3.543   4.405  0.2330 -0.0481  0.1151
 3806TIP3    H111357   4.799   3.540   4.311 -0.1001 -0.4847  0.0641
 3806TIP3    H211358   4.692   3.578   4.410 -0.9082 -2.8767  0.1317
 3807TIP3   OH211359   6.135   5.104   3.041 -0.1937 -0.1175  0.1427
 3807TIP3    H111360   6.073   5.089   2.970 -0.4823 -0.1664  0.4071
 3807TIP3    H211361   6.139   5.199   3.050  0.8649 -0.0469 -0.8444
 3808TIP3   OH211362   6.647   6.888   6.603  0.3580  0.5276 -0.3484
 3808TIP3    H111363   6.645   6.799   6.640  2.5972  0.8113  0.5118
 3808TIP3    H211364   6.561   6.924   6.624  0.1704 -0.7181  1.1469
 3809TIP3   OH211365   4.786   5.689   3.059 -0.2482  0.1862 -0.4931
 3809TIP3    H111366   4.734   5.610   3.046  0.0213 -0.5192  2.4795
 3809TIP3    H211367   4.876   5.658   3.064  0.0018  0.8585 -0.7082
 3810TIP3   OH211368   4.502   5.978   2.864 -0.2516  0.1981 -0.5030
 3810TIP3    H111369   4.508   5.981   2.959  0.2864  2.3117 -0.5640
 3810TIP3    H211370   4.592   5.963   2.835 -0.1811  0.9496 -0.6935
 3811TIP3   OH211371   8.146   5.984   1.153 -0.5261 -0.1934  0.8076
 3811TIP3    H111372   8.137   6.079   1.151 -1.6797 -0.2921  1.0669
 3811TIP3    H211373   8.208   5.965   1.082 -1.4559  0.6296 -0.2459
 3812TIP3   OH211374   5.830   4.277   1.861  0.1134 -0.5481 -0.4770
 3812TIP3    H111375   5.783   4.230   1.930 -1.6425 -0.3850 -1.5306
 3812TIP3    H211376   5.794   4.241   1.779  1.6153 -0.1994 -1.3028
 3813TIP3   OH211377   6.978   5.099   1.200  0.0861  0.4622 -0.1918
 3813TIP3    H111378   6.936   5.167   1.147 -3.1709 -0.2329  1.3999
 3813TIP3    H211379   6.965   5.018   1.150  0.8764  0.4384 -0.3802
 3814TIP3   OH211380   5.244   2.901   2.808  0.2037 -0.4667  0.3965
 3814TIP3    H111381   5.210   2.812   2.813 -0.0926 -0.3434  0.6231
 3814TIP3    H211382   5.233   2.936   2.897 -0.6645  0.1542  0.0551
 3815TIP3   OH211383   2.594   4.804   1.035  0.6686 -0.1154  0.0501
 3815TIP3    H111384   2.521   4.762   1.080 -0.1744  0.3639 -0.8341
 3815TIP3    H211385   2.557   4.886   1.001  1.2819 -0.4669 -1.4935
 3816TIP3   OH211386   5.462   4.751   2.101 -0.2582 -0.5283  0.0160
 3816TIP3    H111387   5.483   4.662   2.076  2.1115 -0.2374  0.8805
 3816TIP3    H211388   5.485   4.805   2.025  0.3520 -0.4097  0.2866
 3817TIP3   OH211389   6.963   6.251   3.018 -0.0435 -0.0639  0.7992
 3817TIP3    H111390   7.009   6.197   3.082 -1.0626 -1.6746  0.1936
 3817TIP3    H211391   7.027   6.267   2.949  0.9171  1.2913  1.9758
 3818TIP3   OH211392   6.066   4.603   0.336  0.0122 -0.1568 -0.2639
 3818TIP3    H111393   6.137   4.604   0.400 -0.6002 -0.4378  0.4304
 3818TIP3    H211394   6.043   4.695   0.324 -0.7345 -0.1757  0.9064
 3819TIP3   OH211395   6.822   5.429   2.354  0.1154 -0.5920  0.3821
 3819TIP3    H111396   6.894   5.396   2.408  1.6314  0.9319 -0.6760
 3819TIP3    H211397   6.789   5.506   2.402  0.0506 -0.5076  0.2012
 3820TIP3   OH211398   6.840   4.393   1.794  0.1897  0.2186  0.0804
 3820TIP3    H111399   6.816   4.466   1.850  0.1420  0.9002 -0.8138
 3820TIP3    H211400   6.936   4.397   1.789  0.2038  0.0701  0.2212
 3821TIP3   OH211401   4.815   2.684   3.531  0.3793 -0.0367 -0.2161
 3821TIP3    H111402   4.754   2.611   3.526 -2.4268  2.1931 -0.0036
 3821TIP3    H211403   4.898   2.645   3.557 -0.6043 -3.3447 -1.7863
 3822TIP3   OH211404   6.121   4.144   2.635  0.1334  0.2749 -0.2258
 3822TIP3    H111405   6.111   4.236   2.612 -0.0173 -0.0029 -1.3107
 3822TIP3    H211406   6.211   4.122   2.612  0.3808  0.3261  0.6796
 3823TIP3   OH211407   8.321   3.245   3.414 -0.0098  0.4935  0.6966
 3823TIP3    H111408   8.325   3.159   3.372  0.0261  1.0516 -0.4647
 3823TIP3    H211409   8.404   3.254   3.460  0.3595  0.2773  0.0729
 3824TIP3   OH211410   6.359   3.268   1.939  0.2020  0.0663 -0.1506
 3824TIP3    H111411   6.436   3.251   1.992 -0.7741  1.3565  1.7284
 3824TIP3    H211412   6.331   3.181   1.908  1.0869 -0.6367  0.9950
 3825TIP3   OH211413   7.210   6.534   2.154  0.5636 -0.2989  0.9830
 3825TIP3    H111414   7.169   6.472   2.214 -0.7459 -0.5553 -0.1469
 3825TIP3    H211415   7.139   6.593   2.128  1.2936  0.3094  0.3347
 3826TIP3   OH211416   4.940   4.397   0.870  0.3367  0.3550 -0.6064
 3826TIP3    H111417   4.995   4.475   0.878  0.2577  0.3139  0.4621
 3826TIP3    H211418   4.852   4.428   0.891  0.4556 -0.2105  0.7741
 3827TIP3   OH211419   4.803   4.029   1.294 -0.1138  0.7294 -0.5883
 3827TIP3    H111420   4.811   4.028   1.199  1.0874 -0.8750 -0.5014
 3827TIP3    H211421   4.884   3.990   1.326 -0.7411  0.7034  1.0706
 3828TIP3   OH211422   6.582   5.290   0.420  0.2271  0.3171 -0.0503
 3828TIP3    H111423   6.564   5.245   0.338  1.1939  0.6341 -0.4369
 3828TIP3    H211424   6.496   5.300   0.461 -0.0775 -1.3566 -0.2271
 3829TIP3   OH211425   2.389   4.568   2.059 -0.0827 -0.4113  0.2431
 3829TIP3    H111426   2.474   4.609   2.047 -0.3911  0.1223 -0.1704
 3829TIP3    H211427   2.342   4.627   2.118 -0.3950 -0.3610 -0.0543
 3830TIP3   OH211428   2.665   6.215   3.031  0.6920 -0.7753 -0.6681
 3830TIP3    H111429   2.593   6.183   2.976  1.3936 -2.0538 -0.8613
 3830TIP3    H211430   2.721   6.265   2.970  1.4056 -2.0903 -1.1151
 3831TIP3   OH211431   5.655   2.908   0.792 -0.4652  0.3268  0.0438
 3831TIP3    H111432   5.644   2.864   0.708 -0.0502  0.0414  0.1389
 3831TIP3    H211433   5.748   2.932   0.795 -0.3283 -0.2586  0.7077
 3832TIP3   OH211434   6.691   3.155   1.304 -0.5838  0.4052  0.0437
 3832TIP3    H111435   6.698   3.250   1.293 -0.0168  0.3879  0.2259
 3832TIP3    H211436   6.760   3.134   1.367 -0.8205 -0.1053  0.1295
 3833TIP3   OH211437   6.002   2.621   3.513 -0.5572  0.9840  0.1227
 3833TIP3    H111438   5.919   2.659   3.486 -0.4408  1.1923  0.0556
 3833TIP3    H211439   5.998   2.620   3.609 -0.1759  2.0394  0.1569
 3834TIP3   OH211440   5.563   3.502   0.287  0.1189 -0.2458  0.8887
 3834TIP3    H111441   5.471   3.478   0.293  0.4018 -1.5528  0.3296
 3834TIP3    H211442   5.564   3.584   0.238 -0.6265 -1.3081 -0.9537
 3835TIP3   OH211443   6.844   4.188   2.418 -1.0676 -0.1371  0.3026
 3835TIP3    H111444   6.826   4.103   2.459  1.7236 -0.5594  0.7523
 3835TIP3    H211445   6.841   4.250   2.490  2.7139 -0.7241  1.0644
 3836TIP3   OH211446   5.422   4.146   0.807  0.2685 -0.8219 -0.0235
 3836TIP3    H111447   5.343   4.122   0.758 -1.6373  2.3356  1.3885
 3836TIP3    H211448   5.488   4.161   0.739 -0.7492 -1.9581 -1.3034
 3837TIP3   OH211449   4.346   4.630   1.141  0.2076  0.1442 -0.4024
 3837TIP3    H111450   4.404   4.594   1.208  0.3752 -0.2317 -0.7476
 3837TIP3    H211451   4.272   4.570   1.137 -0.4598  0.9038  0.3994
 3838TIP3   OH211452   5.967   5.021   2.708 -0.2002 -0.2075 -0.0868
 3838TIP3    H111453   6.029   4.957   2.742  1.9581  2.5244  1.3397
 3838TIP3    H211454   5.909   5.040   2.781 -2.2619 -2.1633 -1.1826
 3839TIP3   OH211455   7.173   4.030   4.407  0.1139  0.3090 -0.2087
 3839TIP3    H111456   7.217   3.946   4.392  1.1409  0.6250  0.9291
 3839TIP3    H211457   7.143   4.057   4.320 -1.2883 -1.8053 -0.4014
 3840TIP3   OH211458   7.202   4.424   2.251 -0.1428  0.7330 -0.5122
 3840TIP3    H111459   7.258   4.459   2.181  0.0309  2.2139  0.3400
 3840TIP3    H211460   7.113   4.452   2.226 -0.2462  0.1570 -0.7976
 3841TIP3   OH211461   6.196   4.963   2.310  0.5407  0.0559 -0.6834
 3841TIP3    H111462   6.105   4.959   2.342 -0.2364  0.6219 -2.7373
 3841TIP3    H211463   6.225   5.051   2.331  0.5766 -0.0787 -0.1519
 3842TIP3   OH211464   5.719   5.627   0.648  0.3535 -0.5377 -0.4915
 3842TIP3    H111465   5.699   5.602   0.738 -1.7544  0.1619 -0.7367
 3842TIP3    H211466   5.783   5.697   0.656 -0.2639 -0.0741  0.5140
 3843TIP3   OH211467   5.675   5.085   0.854  0.1820 -0.1319  0.4897
 3843TIP3    H111468   5.679   4.990   0.866 -1.7451 -0.5050 -1.6786
 3843TIP3    H211469   5.704   5.121   0.939  0.4384 -2.6293  1.4890
 3844TIP3   OH211470   5.601   4.928   0.098 -0.5010 -0.1403 -0.2643
 3844TIP3    H111471   5.565   4.907   0.185 -1.3191  0.7764 -0.3723
 3844TIP3    H211472   5.662   4.856   0.080 -1.5599 -1.2250  0.3478
 3845TIP3   OH211473   6.808   5.689   2.507 -0.1604  0.3033 -0.5253
 3845TIP3    H111474   6.890   5.725   2.542  0.1881  0.5095 -1.5426
 3845TIP3    H211475   6.739   5.737   2.553  0.2962  0.8444 -0.4060
 3846TIP3   OH211476   3.902   3.940   2.517 -0.2333 -0.0189 -0.2542
 3846TIP3    H111477   3.998   3.947   2.516 -0.3656  1.9556 -0.8326
 3846TIP3    H211478   3.874   4.009   2.578 -1.4399  1.6819 -2.6839
 3847TIP3   OH211479   4.820   6.598   2.722 -0.7617 -0.1726 -0.0716
 3847TIP3    H111480   4.872   6.566   2.795 -0.7541 -0.4116 -0.1819
 3847TIP3    H211481   4.877   6.661   2.677 -1.3234  1.1671  1.0435
 3848TIP3   OH211482   4.097   4.357   2.380 -0.2609 -0.2734  0.0452
 3848TIP3    H111483   4.053   4.358   2.465  0.4340  0.8554  0.4013
 3848TIP3    H211484   4.038   4.404   2.321  1.2469  2.8317  0.9376
 3849TIP3   OH211485   5.406   5.503   1.364  0.2246  0.1138 -0.3911
 3849TIP3    H111486   5.458   5.573   1.324 -1.5242  1.2074 -0.8421
 3849TIP3    H211487   5.323   5.506   1.317 -1.0056 -0.1679  1.6973
 3850TIP3   OH211488   3.441   5.647   2.115 -0.2671  0.2768 -0.4747
 3850TIP3    H111489   3.458   5.681   2.203  2.0434  0.1661 -0.8594
 3850TIP3    H211490   3.524   5.658   2.068 -0.3165 -3.1557 -1.5031
 3851TIP3   OH211491   6.375   3.708   2.089 -0.1367  0.4124 -0.3062
 3851TIP3    H111492   6.380   3.685   2.182  1.0832  2.1694  0.0836
 3851TIP3    H211493   6.285   3.685   2.063 -0.5722  0.1733  1.3744
 3852TIP3   OH211494   6.096   4.990   2.047 -0.0628 -0.1676  0.2950
 3852TIP3    H111495   6.107   4.896   2.034  1.1939  0.1753 -1.1360
 3852TIP3    H211496   6.142   5.008   2.129  0.6689 -0.5972 -0.0227
 3853TIP3   OH211497   7.265   5.656   1.942  0.1393  0.8266  0.1070
 3853TIP3    H111498   7.336   5.717   1.926  1.7801 -1.1400 -0.3168
 3853TIP3    H211499   7.232   5.633   1.855 -0.0196  0.5820  0.2308
 3854TIP3   OH211500   5.216   4.325   2.943  0.0372  0.3653 -0.3096
 3854TIP3    H111501   5.211   4.285   2.855  2.1414 -0.9208  0.1153
 3854TIP3    H211502   5.245   4.415   2.927 -1.4720  0.7326 -1.0562
 3855TIP3   OH211503   5.524   4.255   2.002  0.2212  0.0525 -0.0691
 3855TIP3    H111504   5.431   4.263   1.983  0.0450 -1.5309  0.0648
 3855TIP3    H211505   5.535   4.293   2.089 -0.7786 -2.1798  1.0645
 3856TIP3   OH211506   5.452   4.249   4.083 -0.1554  0.5975 -0.4972
 3856TIP3    H111507   5.449   4.309   4.008 -0.5341  2.0968  0.6933
 3856TIP3    H211508   5.539   4.209   4.078  0.2843  1.6001 -1.0372
 3857TIP3   OH211509   6.782   6.170   2.348 -0.1545 -0.0305  0.6081
 3857TIP3    H111510   6.733   6.198   2.270  0.3152 -0.7058  0.0603
 3857TIP3    H211511   6.846   6.108   2.314  0.5930  0.2876  1.4266
 3858TIP3   OH211512   8.079   6.815   6.520 -0.5125 -0.2151  0.4337
 3858TIP3    H111513   7.988   6.842   6.510 -1.0802 -2.6597 -1.4122
 3858TIP3    H211514   8.097   6.762   6.443  2.1598 -0.6553  1.3044
 3859TIP3   OH211515   6.259   4.582   1.082  0.0791 -0.4931  0.4282
 3859TIP3    H111516   6.317   4.556   1.010 -0.2134  1.5314 -0.5843
 3859TIP3    H211517   6.175   4.540   1.060 -0.2491  0.8038 -0.9031
 3860TIP3   OH211518   4.327   4.269   0.429 -0.3340 -0.1367 -0.4118
 3860TIP3    H111519   4.378   4.263   0.348  0.6704 -0.6667  0.2497
 3860TIP3    H211520   4.319   4.178   0.459  0.4135  0.1691  0.7539
 3861TIP3   OH211521   4.562   4.790   0.821  0.4806 -0.3627 -0.7252
 3861TIP3    H111522   4.484   4.843   0.838  0.5774 -0.1287 -1.0062
 3861TIP3    H211523   4.610   4.791   0.904 -0.7973 -2.1617  0.0695
 3862TIP3   OH211524   6.494   3.043   2.683  0.2562  0.3302 -0.3801
 3862TIP3    H111525   6.576   3.014   2.644 -0.2550 -0.4319 -0.9053
 3862TIP3    H211526   6.492   3.004   2.770 -0.0777 -0.5837 -0.7984
 3863TIP3   OH211527   4.810   4.088   2.642 -0.1891  0.0407 -0.0427
 3863TIP3    H111528   4.734   4.037   2.615  0.8489 -1.2341 -0.6066
 3863TIP3    H211529   4.851   4.035   2.710  2.0993 -0.9363 -2.1177
 3864TIP3   OH211530   3.371   4.236   3.198  0.5858 -0.7344  0.5947
 3864TIP3    H111531   3.325   4.153   3.186  1.2709 -0.8966 -1.1252
 3864TIP3    H211532   3.463   4.213   3.191  0.7780  0.1533  0.1778
 3865TIP3   OH211533   8.000   2.072   2.522  0.4341  0.0921 -0.0359
 3865TIP3    H111534   7.946   2.147   2.497 -0.9342 -0.9115 -0.1905
 3865TIP3    H211535   8.025   2.033   2.438  2.3447  1.1916  0.0080
 3866TIP3   OH211536   5.492   3.000   2.809  0.0491  0.0788 -0.5751
 3866TIP3    H111537   5.407   2.956   2.818  1.0340 -2.0373 -1.1852
 3866TIP3    H211538   5.544   2.940   2.754  2.8515 -0.0514  2.0739
 3867TIP3   OH211539   6.734   3.885   0.733  0.1168  0.4851  0.5277
 3867TIP3    H111540   6.803   3.885   0.667 -0.7667 -0.8007 -0.4276
 3867TIP3    H211541   6.690   3.969   0.722 -0.3674  0.0631 -0.9171
 3868TIP3   OH211542   0.130   5.318   2.411  0.0966  0.5658 -0.6553
 3868TIP3    H111543   0.161   5.362   2.490  1.7251  0.1684 -1.0579
 3868TIP3    H211544   0.208   5.277   2.374 -0.7071  0.4676 -2.2926
 3869TIP3   OH211545   5.343   4.617   1.865  0.6574  0.2966  0.5531
 3869TIP3    H111546   5.256   4.654   1.852  0.9134  0.0581 -2.2066
 3869TIP3    H211547   5.333   4.555   1.937 -1.4649  0.2649  0.2564
 3870TIP3   OH211548   5.756   3.591   2.328  0.6936  1.0180  0.4158
 3870TIP3    H111549   5.761   3.665   2.268 -1.6727 -0.0506 -1.1955
 3870TIP3    H211550   5.715   3.522   2.277  0.9660 -0.7421  2.5180
 3871TIP3   OH211551   2.296   0.548   6.253 -0.4512  0.0357 -0.0996
 3871TIP3    H111552   2.264   0.508   6.334 -2.7853  1.2839 -0.3538
 3871TIP3    H211553   2.352   0.620   6.282 -1.8167  0.9041  0.4543
 3872TIP3   OH211554   6.279   4.727   2.927  0.0176 -0.0185  0.5934
 3872TIP3    H111555   6.291   4.798   2.990 -1.1790 -0.1388  0.9693
 3872TIP3    H211556   6.289   4.769   2.841 -0.3682  0.5415  0.8200
 3873TIP3   OH211557   3.720   4.279   0.927 -0.4636  0.2688 -0.2118
 3873TIP3    H111558   3.811   4.286   0.898  0.5355 -0.1973  2.6283
 3873TIP3    H211559   3.696   4.369   0.950  0.4348 -0.0685  2.2031
 3874TIP3   OH211560   4.838   4.248   0.633 -0.0408 -0.1479  0.2319
 3874TIP3    H111561   4.847   4.168   0.685 -0.8657 -0.3424  0.0724
 3874TIP3    H211562   4.895   4.311   0.678 -0.2930 -0.4839  1.0341
 3875TIP3   OH211563   5.488   3.645   0.716  0.1338  0.2198 -0.0753
 3875TIP3    H111564   5.574   3.682   0.697  0.1727 -0.0135 -0.3667
 3875TIP3    H211565   5.437   3.663   0.637 -0.6861  2.1200  0.8690
 3876TIP3   OH211566   5.969   4.983   2.434 -0.4504 -0.3433 -0.1634
 3876TIP3    H111567   5.972   4.995   2.529  1.2761  0.2412 -0.2845
 3876TIP3    H211568   5.893   4.926   2.420 -1.2920  0.3208  1.4821
 3877TIP3   OH211569   2.320   4.765   2.244  0.4108 -0.6712 -0.0138
 3877TIP3    H111570   2.361   4.842   2.282 -0.2173  0.2016 -1.0964
 3877TIP3    H211571   2.228   4.772   2.270 -0.1400  0.2191 -2.1242
 3878TIP3   OH211572   5.638   5.049   1.760  0.2002 -0.0591 -0.1377
 3878TIP3    H111573   5.695   5.061   1.836 -1.0826 -1.4517  1.0826
 3878TIP3    H211574   5.592   4.967   1.777 -2.0271  0.9232 -1.1636
 3879TIP3   OH211575   5.718   3.774   0.606 -0.5550  0.0525 -0.2221
 3879TIP3    H111576   5.800   3.727   0.625 -1.2489 -0.5918  1.2638
 3879TIP3    H211577   5.720   3.789   0.512  0.7801 -0.9058 -0.3571
 3880TIP3   OH211578   6.119   4.367   1.591 -0.7423 -0.5587 -0.4670
 3880TIP3    H111579   6.047   4.321   1.547  0.4422 -1.0093 -1.9612
 3880TIP3    H211580   6.138   4.441   1.534  0.8109 -1.1453 -0.7241
 3881TIP3   OH211581   6.053   3.088   1.644 -0.1487  0.5852 -0.0904
 3881TIP3    H111582   6.027   3.127   1.561 -1.2972  0.1224  0.0426
 3881TIP3    H211583   6.034   3.156   1.709 -1.1980  0.1838  0.0263
 3882TIP3   OH211584   6.441   5.339   1.972 -0.5161 -0.7019 -0.2208
 3882TIP3    H111585   6.376   5.276   1.942 -1.0272 -1.2775  1.9703
 3882TIP3    H211586   6.460   5.312   2.062  1.1545  0.7534 -0.1189
 3883TIP3   OH211587   6.495   5.089   2.146 -0.4522  0.0616  0.4275
 3883TIP3    H111588   6.501   5.007   2.195  1.1360  0.8341  1.5800
 3883TIP3    H211589   6.580   5.131   2.160 -0.6984  1.2186 -1.3854
 3884TIP3   OH211590   5.240   4.758   1.540  0.6151 -0.2096  0.1097
 3884TIP3    H111591   5.318   4.705   1.522  0.2707  0.0858 -2.4145
 3884TIP3    H211592   5.236   4.820   1.468 -1.1527  0.7497  1.0040
 3885TIP3   OH211593   5.002   4.936   1.215  0.3569 -0.2511  0.0565
 3885TIP3    H111594   4.952   4.955   1.136 -0.5865 -0.2173  0.6480
 3885TIP3    H211595   4.954   4.865   1.257  1.7840 -1.4062 -0.2437
 3886TIP3   OH211596   4.561   3.511   2.026  0.2111  0.4339 -0.0515
 3886TIP3    H111597   4.569   3.437   1.966 -0.2893  1.4845 -1.4382
 3886TIP3    H211598   4.631   3.497   2.090  2.3664  0.5513 -2.2744
 3887TIP3   OH211599   6.812   3.158   1.588 -0.0339  0.0451  0.5852
 3887TIP3    H111600   6.880   3.194   1.644 -0.4929  1.0054  0.5382
 3887TIP3    H211601   6.734   3.212   1.606  0.1446  1.2313 -1.8776
 3888TIP3   OH211602   4.686   4.948   3.406 -0.6358 -0.1824 -0.1561
 3888TIP3    H111603   4.670   5.004   3.482 -1.4871 -1.6305  0.7403
 3888TIP3    H211604   4.766   4.983   3.367 -1.3595  1.9156  0.1630
 3889TIP3   OH211605   5.416   3.116   1.311 -0.0016 -0.7336 -0.0869
 3889TIP3    H111606   5.442   3.181   1.378 -0.6510 -0.8833  0.3202
 3889TIP3    H211607   5.417   3.165   1.229 -1.8874  0.2053  0.4024
 3890TIP3   OH211608   7.643   4.661   1.088 -0.4127  0.1722  0.6841
 3890TIP3    H111609   7.647   4.599   1.161  0.1534 -0.4563  0.1275
 3890TIP3    H211610   7.715   4.634   1.030 -2.1521 -0.6622 -1.1553
 3891TIP3   OH211611   5.075   2.328   2.406  0.4680  0.0633  0.4936
 3891TIP3    H111612   5.056   2.420   2.387  1.4580 -0.0953 -1.3333
 3891TIP3    H211613   5.061   2.320   2.501 -1.4456  1.6336  0.3759
 3892TIP3   OH211614   6.734   3.321   2.992  0.5477 -0.4452 -0.2648
 3892TIP3    H111615   6.732   3.260   2.918 -0.2909 -0.3081 -0.3517
 3892TIP3    H211616   6.685   3.277   3.061 -0.0190  0.1123 -0.3115
 3893TIP3   OH211617   4.145   2.317   0.495  0.3997 -0.0166 -0.0774
 3893TIP3    H111618   4.189   2.307   0.411  0.5223 -0.6549  0.0600
 3893TIP3    H211619   4.066   2.262   0.488 -0.1591  0.7903 -0.1718
 3894TIP3   OH211620   4.936   3.537   2.223  0.0187  0.2060  0.5434
 3894TIP3    H111621   4.955   3.480   2.298  0.6958  3.1950  2.6999
 3894TIP3    H211622   4.842   3.553   2.229 -0.5437 -2.1493 -1.1908
 3895TIP3   OH211623   7.633   4.648   0.767  0.1276  1.2026  0.2403
 3895TIP3    H111624   7.641   4.589   0.692 -0.9833  1.0840  0.2042
 3895TIP3    H211625   7.723   4.663   0.795  0.4552 -0.0913 -0.0716
 3896TIP3   OH211626   6.671   6.364   3.128 -0.9231 -0.1963  0.2685
 3896TIP3    H111627   6.616   6.323   3.194  0.9021 -0.2611  1.7828
 3896TIP3    H211628   6.665   6.458   3.146 -3.3493  0.1318 -1.8326
 3897TIP3   OH211629   5.715   4.043   2.759  0.1410 -0.1759  0.4113
 3897TIP3    H111630   5.766   3.995   2.693  3.1278  0.5269  2.1121
 3897TIP3    H211631   5.680   4.119   2.711 -0.5600 -1.4557 -1.1391
 3898TIP3   OH211632   5.060   4.639   0.859 -0.0133 -0.0619  0.3178
 3898TIP3    H111633   5.141   4.685   0.838 -0.0731  0.3848  1.0617
 3898TIP3    H211634   4.991   4.692   0.821 -0.0713  0.3961  1.0506
 3899TIP3   OH211635   6.760   5.964   0.635 -0.5862  0.2533  0.0361
 3899TIP3    H111636   6.698   6.030   0.665 -0.6802 -0.5821  1.7639
 3899TIP3    H211637   6.830   5.965   0.701  0.2977 -0.1135 -0.8821
 3900TIP3   OH211638   0.494   6.173   1.525 -0.1058  0.5352  0.2258
 3900TIP3    H111639   0.533   6.174   1.437 -0.3931  1.5099  0.1029
 3900TIP3    H211640   0.404   6.199   1.511  0.1344  1.7603  0.9434
 3901TIP3   OH211641   4.501   4.283   0.218  0.3996  0.2243  0.1060
 3901TIP3    H111642   4.517   4.229   0.141  0.8938  1.9032 -0.9849
 3901TIP3    H211643   4.546   4.365   0.200 -1.1160  1.3579  1.3569
 3902TIP3   OH211644   5.504   5.583   1.628 -0.0652 -0.2598 -0.1351
 3902TIP3    H111645   5.484   5.570   1.535  1.5220 -0.6758 -0.4217
 3902TIP3    H211646   5.563   5.659   1.629  0.0686 -0.3722  0.5191
 3903TIP3   OH211647   6.969   7.898   6.047  0.5014 -0.6094  0.3998
 3903TIP3    H111648   7.047   7.856   6.011  0.6794 -1.7886  2.1060
 3903TIP3    H211649   6.998   7.936   6.130  0.2844  2.7396 -0.9876
 3904TIP3   OH211650   5.003   3.593   0.139  0.2045  0.6179  0.0258
 3904TIP3    H111651   4.987   3.661   0.204  0.9663  0.4496  0.3958
 3904TIP3    H211652   4.946   3.521   0.164  0.5701  0.5168  0.5595
 3905TIP3   OH211653   7.930   7.311   6.365 -0.6392  0.3052  0.5244
 3905TIP3    H111654   7.834   7.312   6.373 -0.6373 -0.5470  0.7468
 3905TIP3    H211655   7.949   7.224   6.330  0.0801  0.3680  0.7640
 3906TIP3   OH211656   4.768   6.003   0.931 -0.1470 -0.1631 -0.5537
 3906TIP3    H111657   4.792   6.095   0.934  1.5874 -0.6049  0.0374
 3906TIP3    H211658   4.684   5.998   0.975  0.2786  0.9837  0.3998
 3907TIP3   OH211659   4.415   5.469   1.207  0.1108  0.3946  0.0826
 3907TIP3    H111660   4.345   5.438   1.150  0.2040 -0.0407  0.1997
 3907TIP3    H211661   4.448   5.548   1.165 -0.3479  0.5112 -0.0523
 3908TIP3   OH211662   0.078   3.709   2.050  0.4159  0.4190  0.3204
 3908TIP3    H111663   0.008   3.724   2.113  2.8604 -0.0224  3.2046
 3908TIP3    H211664   0.097   3.796   2.015 -1.7146  0.5069 -0.7171
 3909TIP3   OH211665   2.533   0.473   6.606 -0.1745 -0.4427  0.0222
 3909TIP3    H111666   2.464   0.507   6.549  0.7365 -0.0545 -0.8809
 3909TIP3    H211667   2.506   0.498   6.694  1.0306  3.8251 -0.6728
 3910TIP3   OH211668   0.252   3.681   0.116  0.1472 -0.2209  0.5725
 3910TIP3    H111669   0.339   3.721   0.117 -0.7346  1.8918 -1.5105
 3910TIP3    H211670   0.243   3.645   0.027 -0.8995 -0.8928  0.9340
 3911TIP3   OH211671   0.499   5.400   0.685 -0.4417 -0.5824 -0.0507
 3911TIP3    H111672   0.503   5.480   0.632  0.9688  0.2238  1.2318
 3911TIP3    H211673   0.539   5.333   0.629 -2.7931 -0.7013 -1.6345
 3912TIP3   OH211674   6.692   6.217   2.090 -0.5119 -0.3326 -0.2614
 3912TIP3    H111675   6.734   6.175   2.015  0.0329 -2.0256  0.9394
 3912TIP3    H211676   6.612   6.165   2.104 -0.1601 -0.5838  0.8515
 3913TIP3   OH211677   0.072   5.110   3.128  0.4920 -0.3885  0.1202
 3913TIP3    H111678   0.053   5.047   3.058 -0.9446 -0.8782  0.9260
 3913TIP3    H211679   0.145   5.071   3.176 -1.4790 -2.3503  1.6598
 3914TIP3   OH211680   5.088   4.138   1.588  0.2795  0.2899  0.3205
 3914TIP3    H111681   5.140   4.153   1.508  0.1776  0.5325  0.2979
 3914TIP3    H211682   5.020   4.206   1.585 -0.6977 -0.6912 -0.1965
 3915TIP3   OH211683   4.994   5.052   0.483 -0.3849 -0.1795 -0.2443
 3915TIP3    H111684   5.054   5.016   0.548  0.5164  1.9125  0.1108
 3915TIP3    H211685   5.051   5.095   0.419 -1.4908  2.9055  0.7503
 3916TIP3   OH211686   5.838   2.123   2.493  0.0400  0.7139 -0.1076
 3916TIP3    H111687   5.839   2.200   2.550 -0.0577  0.7721 -0.1846
 3916TIP3    H211688   5.912   2.136   2.434  0.1238  0.6678 -0.0136
 3917TIP3   OH211689   4.249   5.505   2.616  0.0658  0.0129  0.3872
 3917TIP3    H111690   4.317   5.506   2.684 -0.8489 -1.3150  1.3447
 3917TIP3    H211691   4.253   5.592   2.577  1.5250  0.3437  1.2275
 3918TIP3   OH211692   7.651   4.711   2.038  0.4878  0.2542 -0.2756
 3918TIP3    H111693   7.612   4.627   2.016 -0.8766  1.1315 -1.3342
 3918TIP3    H211694   7.741   4.705   2.006  1.0744 -1.5608  1.6143
 3919TIP3   OH211695   5.888   3.034   0.725  0.0462 -0.0704  0.4973
 3919TIP3    H111696   5.856   3.006   0.639 -1.7252  0.7968  0.8628
 3919TIP3    H211697   5.978   3.001   0.729 -0.0826 -0.6903 -1.4162
 3920TIP3   OH211698   5.379   3.848   1.846  0.1345  0.4464 -0.0278
 3920TIP3    H111699   5.414   3.764   1.816  1.6086  0.4510  1.5974
 3920TIP3    H211700   5.291   3.852   1.809  0.1488 -1.6917 -0.3502
 3921TIP3   OH211701   4.888   4.711   2.781 -0.2689  0.4688  0.2480
 3921TIP3    H111702   4.965   4.734   2.832  2.0616 -1.7310 -2.1146
 3921TIP3    H211703   4.870   4.620   2.803 -1.4600  0.5974 -0.1282
 3922TIP3   OH211704   6.001   3.615   1.733 -0.1290  0.0501  0.0363
 3922TIP3    H111705   5.988   3.639   1.641 -1.1410  1.0437  0.4204
 3922TIP3    H211706   6.063   3.680   1.765 -0.6293  0.3921  0.3273
 3923TIP3   OH211707   6.807   6.206   0.847 -0.3177  0.3582 -0.1245
 3923TIP3    H111708   6.739   6.214   0.915 -0.8622  0.3902 -0.6703
 3923TIP3    H211709   6.887   6.234   0.891 -0.6358  0.2314  0.5572
 3924TIP3   OH211710   4.283   1.914   1.093  0.1202  0.4716  0.2147
 3924TIP3    H111711   4.366   1.934   1.050  0.2698 -0.5604  0.0075
 3924TIP3    H211712   4.221   1.903   1.021 -0.1298  0.9450  0.3564
 3925TIP3   OH211713   4.728   1.831   2.356  0.0589  0.1158 -0.0099
 3925TIP3    H111714   4.809   1.809   2.401 -1.1134  0.9346  2.6024
 3925TIP3    H211715   4.716   1.925   2.371 -1.1745  0.0767 -0.6663
 3926TIP3   OH211716   6.291   3.243   2.721  0.4400  0.0218  0.4995
 3926TIP3    H111717   6.287   3.233   2.816  1.2317  0.4046  0.5791
 3926TIP3    H211718   6.352   3.174   2.693 -1.2462 -1.3394  0.0562
 3927TIP3   OH211719   3.768   4.327   0.025  0.3762 -0.1288  0.6522
 3927TIP3    H111720   3.793   4.416   0.049 -1.5502  0.6430 -0.1354
 3927TIP3    H211721   3.787   4.274   0.103  0.8092  1.0825  1.3803
 3928TIP3   OH211722   6.540   7.437   5.759  0.2387  0.3070  0.7243
 3928TIP3    H111723   6.467   7.428   5.821 -0.8153  1.7897 -0.2624
 3928TIP3    H211724   6.546   7.531   5.742  0.8414 -0.0132 -1.0048
 3929TIP3   OH211725   2.171   0.225   6.291 -0.1080 -0.2075 -0.5826
 3929TIP3    H111726   2.177   0.140   6.247  0.9479 -0.8314  0.7253
 3929TIP3    H211727   2.098   0.269   6.247 -0.1605 -1.4642 -1.8145
 3930TIP3   OH211728   7.609   6.597   1.046  0.1233  0.6506 -0.1244
 3930TIP3    H111729   7.684   6.570   0.993  0.4902 -0.1299  0.7863
 3930TIP3    H211730   7.560   6.516   1.061 -0.6280  1.0695 -0.2682
 3931TIP3   OH211731   5.604   3.195   1.750  0.0278  0.2325  0.4354
 3931TIP3    H111732   5.688   3.212   1.794  0.1864  0.0110  0.2132
 3931TIP3    H211733   5.541   3.187   1.822  0.4364 -0.9975  0.6642
 3932TIP3   OH211734   4.583   3.958   2.600  0.5296 -0.6891  0.1173
 3932TIP3    H111735   4.542   3.883   2.557 -0.9553  0.5236 -0.6117
 3932TIP3    H211736   4.509   4.009   2.635  1.5090  0.5074  0.4751
 3933TIP3   OH211737   2.114   3.731   3.013 -0.0701  0.0808  0.1382
 3933TIP3    H111738   2.093   3.705   2.923  0.3588  1.5124 -0.3981
 3933TIP3    H211739   2.187   3.674   3.038 -0.6755 -0.8317 -0.1462
 3934TIP3   OH211740   4.265   4.788   2.877 -0.3147 -0.3334 -0.1944
 3934TIP3    H111741   4.331   4.738   2.925 -1.5526  0.5169  2.4371
 3934TIP3    H211742   4.316   4.852   2.827  0.9700 -1.0368  0.1852
 3935TIP3   OH211743   3.317   0.211   6.927 -0.4252 -0.4914  0.3204
 3935TIP3    H111744   3.395   0.198   6.874 -0.6252 -0.4486  0.0146
 3935TIP3    H211745   3.328   0.298   6.966 -0.0006 -0.7667  0.8224
 3936TIP3   OH211746   6.963   5.120   4.063  0.0849 -0.1231 -0.5448
 3936TIP3    H111747   6.946   5.127   4.157  0.7012 -0.4339 -0.4052
 3936TIP3    H211748   6.963   5.026   4.047  0.0437 -0.0705 -0.8412
 3937TIP3   OH211749   4.737   3.495   1.509 -0.4028 -0.6425 -0.3308
 3937TIP3    H111750   4.646   3.521   1.497 -0.5535 -1.0258 -0.0161
 3937TIP3    H211751   4.776   3.505   1.422 -0.8070 -0.7219 -0.5219
 3938TIP3   OH211752   4.756   4.553   1.730  0.1600  0.0302 -0.0822
 3938TIP3    H111753   4.690   4.621   1.740 -0.0599 -0.1455 -0.3497
 3938TIP3    H211754   4.839   4.601   1.727 -0.1247  0.4355 -2.1926
 3939TIP3   OH211755   6.399   6.076   2.106  0.4489 -0.1928  0.0417
 3939TIP3    H111756   6.400   6.169   2.128 -0.9587  0.0017 -0.6092
 3939TIP3    H211757   6.371   6.074   2.015  0.3903 -1.2538  0.0796
 3940TIP3   OH211758   5.317   4.283   2.437 -0.4610 -0.1094 -0.6686
 3940TIP3    H111759   5.358   4.366   2.411  0.0211 -0.3052 -0.5447
 3940TIP3    H211760   5.349   4.220   2.373  0.0344 -0.4163 -0.1269
 3941TIP3   OH211761   6.225   5.970   1.672  0.0605  0.4432 -0.0919
 3941TIP3    H111762   6.160   5.990   1.604 -1.2250 -0.0697  0.9611
 3941TIP3    H211763   6.214   6.040   1.737  1.5960  1.1870 -0.6081
 3942TIP3   OH211764   4.667   3.446   2.265  0.0596  0.6344 -0.7591
 3942TIP3    H111765   4.649   3.481   2.353 -1.1279  1.6612 -1.3954
 3942TIP3    H211766   4.698   3.357   2.281  0.7703  1.1370  0.7597
 3943TIP3   OH211767   4.443   6.310   3.214  0.1121 -0.4503  0.3291
 3943TIP3    H111768   4.477   6.241   3.271  0.4780 -0.9344 -0.4629
 3943TIP3    H211769   4.471   6.392   3.255  0.4654 -0.8005  0.7888
 3944TIP3   OH211770   6.045   5.424   2.087 -0.1792 -0.0474 -0.1605
 3944TIP3    H111771   6.131   5.384   2.068 -0.8717 -0.6709 -2.1508
 3944TIP3    H211772   5.982   5.358   2.059 -1.3285  1.6226 -1.5933
 3945TIP3   OH211773   5.334   4.565   0.101 -0.5589  0.2442 -0.5082
 3945TIP3    H111774   5.329   4.470   0.113 -0.1835  0.2686 -0.1017
 3945TIP3    H211775   5.328   4.600   0.190  0.2975  0.5515 -0.5684
 3946TIP3   OH211776   5.905   4.440   2.083  0.5125 -0.8262  0.1803
 3946TIP3    H111777   5.865   4.409   2.002 -1.4590  0.5587  0.5901
 3946TIP3    H211778   5.908   4.535   2.074 -0.4866 -0.5846  2.0349
 3947TIP3   OH211779   5.419   5.912   2.681 -0.0067 -0.5558  0.3228
 3947TIP3    H111780   5.332   5.925   2.644 -0.4721  2.8549  2.3068
 3947TIP3    H211781   5.478   5.908   2.606 -1.6980 -1.5223 -0.9799
 3948TIP3   OH211782   6.717   5.745   0.420 -0.2362 -0.3388  0.2792
 3948TIP3    H111783   6.679   5.781   0.501  3.3285  0.1505  1.8518
 3948TIP3    H211784   6.745   5.656   0.445  1.2923 -0.0172 -0.2465
 3949TIP3   OH211785   4.122   4.319   0.614  0.5520 -0.0989  0.1207
 3949TIP3    H111786   4.143   4.406   0.649  0.2161 -0.9078  2.4229
 3949TIP3    H211787   4.197   4.297   0.559 -0.0385  2.2478 -1.6865
 3950TIP3   OH211788   5.515   3.266   1.511 -0.8872 -0.2738  0.6066
 3950TIP3    H111789   5.443   3.306   1.559 -0.9760 -0.2289  0.4374
 3950TIP3    H211790   5.579   3.242   1.578 -0.3080  1.2146  0.6019
 3951TIP3   OH211791   6.346   4.117   0.828  0.5356 -0.4531 -0.0019
 3951TIP3    H111792   6.416   4.118   0.763 -0.1065 -1.3069 -0.7143
 3951TIP3    H211793   6.388   4.081   0.907  0.7076 -1.7045 -0.6549
 3952TIP3   OH211794   7.626   4.616   1.711  0.1576 -0.1187  0.0128
 3952TIP3    H111795   7.658   4.706   1.717 -2.4518  0.9598 -1.5027
 3952TIP3    H211796   7.704   4.565   1.687  1.8604  1.5545  1.8282
 3953TIP3   OH211797   7.924   3.116   4.230 -0.5950  0.4051  0.6592
 3953TIP3    H111798   8.012   3.153   4.231 -0.4130 -0.0294  1.5363
 3953TIP3    H211799   7.866   3.191   4.220 -0.1247  0.7036  0.1769
 3954TIP3   OH211800   4.928   2.894   3.948  0.3038  0.2828 -0.1794
 3954TIP3    H111801   4.835   2.873   3.944  0.2424  0.2392  1.1875
 3954TIP3    H211802   4.949   2.889   4.041  1.6748  0.2856 -0.4856
 3955TIP3   OH211803   5.785   3.452   0.468 -0.0212  0.1529  0.1825
 3955TIP3    H111804   5.708   3.464   0.412 -0.3408  0.5184  0.6973
 3955TIP3    H211805   5.752   3.407   0.545  0.0741  1.3179  0.9060
 3956TIP3   OH211806   6.747   4.571   1.965 -0.3280 -0.5238 -0.6742
 3956TIP3    H111807   6.713   4.657   1.943 -1.7790 -1.0523 -0.5352
 3956TIP3    H211808   6.706   4.548   2.048  1.3449 -0.6424  0.1369
 3957TIP3   OH211809   6.011   3.683   2.875 -0.1129 -0.2593  0.1823
 3957TIP3    H111810   6.091   3.729   2.850 -2.7112  2.9580 -2.6320
 3957TIP3    H211811   5.952   3.752   2.906 -3.4017 -1.8531 -2.2047
 3958TIP3   OH211812   7.470   1.210   2.707  0.5051 -0.0939  0.5446
 3958TIP3    H111813   7.432   1.177   2.788 -0.7786 -0.2414 -0.1008
 3958TIP3    H211814   7.409   1.181   2.639  1.0387  0.8858 -0.3625
 3959TIP3   OH211815   6.082   3.337   2.269  0.4210 -0.4963  0.6633
 3959TIP3    H111816   6.175   3.327   2.288  0.5384 -0.7367 -0.0162
 3959TIP3    H211817   6.048   3.386   2.343  1.2883  0.4691  0.4395
 3960TIP3   OH211818   6.455   4.180   2.276 -0.1101  0.1109 -0.2064
 3960TIP3    H111819   6.367   4.144   2.286  0.0327 -0.4066 -0.7727
 3960TIP3    H211820   6.513   4.106   2.293  0.2268  0.5154  0.4368
 3961TIP3   OH211821   7.417   3.834   2.731  0.1345 -0.1438  0.3575
 3961TIP3    H111822   7.397   3.869   2.645  1.5267  0.3704  0.2284
 3961TIP3    H211823   7.445   3.910   2.782  0.3031 -0.6036  0.9576
 3962TIP3   OH211824   6.524   6.783   0.513 -0.0197 -0.3155  0.2311
 3962TIP3    H111825   6.526   6.792   0.609 -1.6815 -0.7043  0.3235
 3962TIP3    H211826   6.574   6.703   0.496  1.8985  0.7758  0.6073
 3963TIP3   OH211827   2.953   3.269   1.058  0.7660 -0.4446  0.2593
 3963TIP3    H111828   2.926   3.262   0.967  1.3393  0.0725  0.0460
 3963TIP3    H211829   3.008   3.192   1.073  0.3140 -0.7629  0.2991
 3964TIP3   OH211830   5.663   4.241   2.344  0.1829  0.0613 -0.4539
 3964TIP3    H111831   5.596   4.178   2.370 -1.4984  0.1299 -4.3410
 3964TIP3    H211832   5.711   4.197   2.274  1.0208  1.8753 -1.0385
 3965TIP3   OH211833   2.749   6.461   3.172  0.0355 -0.3897  0.2192
 3965TIP3    H111834   2.841   6.439   3.156 -0.0276 -1.5119  1.3095
 3965TIP3    H211835   2.703   6.377   3.167 -0.9627  0.1942 -0.5390
 3966TIP3   OH211836   4.643   6.428   2.610 -0.3789  0.5516  0.5377
 3966TIP3    H111837   4.696   6.504   2.635 -0.1473  0.5923 -0.0674
 3966TIP3    H211838   4.683   6.354   2.657  1.7827  0.1450 -1.8374
 3967TIP3   OH211839   7.317   5.467   3.565  0.2056  0.5530 -0.5401
 3967TIP3    H111840   7.399   5.433   3.600  0.7810  0.4835 -1.9415
 3967TIP3    H211841   7.322   5.562   3.578  0.5965  0.5692 -0.8205
 3968TIP3   OH211842   6.157   4.099   1.297  0.3818 -0.1109 -0.7514
 3968TIP3    H111843   6.134   4.038   1.367 -1.0853  0.9567 -0.2995
 3968TIP3    H211844   6.247   4.075   1.274  1.8330  1.1319  3.1999
 3969TIP3   OH211845   5.508   3.731   0.106  0.0909  0.0617 -0.2271
 3969TIP3    H111846   5.419   3.755   0.077  1.3515  1.6292 -3.0173
 3969TIP3    H211847   5.532   3.802   0.167 -0.4812 -0.2802  0.4116
 3970TIP3   OH211848   4.070   2.063   6.567 -0.3341 -0.2908  0.0682
 3970TIP3    H111849   4.020   2.131   6.613  0.7395  0.7908 -0.3502
 3970TIP3    H211850   4.151   2.106   6.541 -0.3716 -1.2612 -1.7072
 3971TIP3   OH211851   7.639   3.672   1.843  0.0768 -0.8651 -0.2394
 3971TIP3    H111852   7.569   3.718   1.889 -0.2637  1.6259 -3.0654
 3971TIP3    H211853   7.717   3.725   1.858  0.2366 -0.7566 -1.4280
 3972TIP3   OH211854   6.637   5.364   1.204  0.0609 -0.1138  0.0426
 3972TIP3    H111855   6.579   5.348   1.278 -1.9199  0.7792 -1.2795
 3972TIP3    H211856   6.692   5.437   1.232  0.1642 -0.5713  1.0782
 3973TIP3   OH211857   8.346   3.804   3.769  0.6252  0.3963  0.0917
 3973TIP3    H111858   8.424   3.846   3.732  0.6179  0.8070  0.5328
 3973TIP3    H211859   8.362   3.804   3.864  1.1544 -1.6533  0.0323
 3974TIP3   OH211860   0.284   7.709   6.858 -0.3618  0.2625 -0.1321
 3974TIP3    H111861   0.191   7.695   6.878 -0.0692  1.5514  2.1840
 3974TIP3    H211862   0.315   7.622   6.830 -1.8425 -0.5701  0.7485
 3975TIP3   OH211863   8.226   3.228   2.051 -0.2918 -0.2450  0.0322
 3975TIP3    H111864   8.220   3.323   2.054 -0.3434 -0.2261 -0.5436
 3975TIP3    H211865   8.139   3.199   2.023 -0.2973 -0.4659  0.2724
 3976TIP3   OH211866   5.041   4.543   2.460  0.1620  0.2228 -0.6353
 3976TIP3    H111867   5.006   4.508   2.379 -0.4475  1.0100 -0.7219
 3976TIP3    H211868   4.983   4.615   2.482 -0.0736 -0.4060  0.8598
 3977TIP3   OH211869   7.379   4.588   0.847 -0.5695  0.8010 -0.7178
 3977TIP3    H111870   7.332   4.617   0.769  1.1750  0.4622 -1.9111
 3977TIP3    H211871   7.472   4.593   0.823 -0.1009 -2.9635  0.0267
 3978TIP3   OH211872   6.968   5.053   1.588  0.2348  0.2339 -0.0901
 3978TIP3    H111873   6.948   5.108   1.664 -0.0920 -2.1620  1.6115
 3978TIP3    H211874   6.905   4.981   1.594  0.4465 -0.1665 -2.4636
 3979TIP3   OH211875   7.652   5.149   1.852  0.7318 -0.2520 -0.3129
 3979TIP3    H111876   7.727   5.185   1.804  1.8657 -0.5571  1.1729
 3979TIP3    H211877   7.616   5.225   1.898  0.4714 -0.2071 -0.5940
 3980TIP3   OH211878   5.248   1.595   6.397 -0.3691 -0.1575 -0.2495
 3980TIP3    H111879   5.297   1.651   6.336 -0.4288 -1.1056 -1.1674
 3980TIP3    H211880   5.287   1.614   6.483  0.2727  0.5640 -0.6926
 3981TIP3   OH211881   0.069   2.310   2.482  0.0974 -0.4911  0.1437
 3981TIP3    H111882   0.041   2.397   2.512  2.7293 -0.3436  2.4931
 3981TIP3    H211883  -0.012   2.261   2.471 -1.3340  1.5209  1.2884
 3982TIP3   OH211884   5.875   5.210   3.518 -0.0909  0.0668  0.0521
 3982TIP3    H111885   5.914   5.136   3.471  0.5207  0.2153  0.3084
 3982TIP3    H211886   5.824   5.257   3.452  1.6504  0.9044 -0.7324
 3983TIP3   OH211887   5.857   4.582   3.348  0.8195 -0.4577 -0.5086
 3983TIP3    H111888   5.798   4.508   3.334  0.5653  0.1110 -2.6435
 3983TIP3    H211889   5.920   4.551   3.413 -0.1094 -2.0649 -0.3603
 3984TIP3   OH211890   7.116   1.849   2.820 -0.2170 -0.1226 -0.6415
 3984TIP3    H111891   7.067   1.900   2.755  1.5238  0.1961 -1.7484
 3984TIP3    H211892   7.186   1.908   2.847 -0.9179 -0.2631  1.5505
 3985TIP3   OH211893   5.459   4.807   0.337  0.3524  0.0845  0.5333
 3985TIP3    H111894   5.442   4.741   0.403  3.4369  1.1432  2.4782
 3985TIP3    H211895   5.426   4.888   0.375  2.3692  0.7429  0.9599
 3986TIP3   OH211896   6.791   5.062   2.378 -0.0060  0.0229  0.5441
 3986TIP3    H111897   6.722   5.034   2.439  0.3515  2.0158  1.9116
 3986TIP3    H211898   6.836   4.981   2.355 -1.1021 -0.9731  1.7685
 3987TIP3   OH211899   3.718   4.186   1.857 -0.5959  0.2505 -0.7402
 3987TIP3    H111900   3.776   4.165   1.784 -0.7405 -2.1276 -0.2087
 3987TIP3    H211901   3.630   4.175   1.822 -0.7152  2.1739 -1.0655
 3988TIP3   OH211902   0.525   4.516   3.373  0.2953 -0.2084  0.3869
 3988TIP3    H111903   0.449   4.463   3.352  0.1561 -0.9320  2.5129
 3988TIP3    H211904   0.598   4.474   3.327 -0.1579 -1.0516  0.4384
 3989TIP3   OH211905   7.054   3.822   0.242 -0.3732  0.0155  0.8673
 3989TIP3    H111906   7.127   3.761   0.245 -1.0321 -0.8968 -0.9652
 3989TIP3    H211907   7.032   3.839   0.334  0.9612 -1.0937  1.3972
 3990TIP3   OH211908   5.636   4.747   2.906 -0.2216  0.2132  0.8145
 3990TIP3    H111909   5.682   4.693   2.970 -1.5299 -1.8780  0.0069
 3990TIP3    H211910   5.681   4.729   2.823 -1.4718 -0.6390  0.3113
 3991TIP3   OH211911   5.260   3.926   0.426 -0.5319 -0.0569 -0.0324
 3991TIP3    H111912   5.232   3.835   0.439  1.3766 -0.5301  0.8917
 3991TIP3    H211913   5.268   3.935   0.331 -1.3180 -0.6715 -0.1632
 3992TIP3   OH211914   5.683   0.987   4.754  0.6208  0.4590  0.0273
 3992TIP3    H111915   5.685   0.933   4.675 -1.2450  0.4129 -0.0025
 3992TIP3    H211916   5.730   0.935   4.820  1.3994  0.1074 -0.7990
 3993TIP3   OH211917   6.524   5.447   2.568 -0.2220  0.5942  0.5626
 3993TIP3    H111918   6.438   5.443   2.610  0.0937 -1.4647  1.0788
 3993TIP3    H211919   6.512   5.396   2.487  0.2742  1.0638  0.1974
 3994TIP3   OH211920   3.927   4.122   3.310  0.3055 -0.4286 -0.3116
 3994TIP3    H111921   3.873   4.043   3.302  1.1064 -0.9770 -0.3634
 3994TIP3    H211922   3.944   4.130   3.404 -2.1222  1.2895  0.0287
 3995TIP3   OH211923   6.074   4.688   2.061 -0.0288  0.3518 -0.7160
 3995TIP3    H111924   6.100   4.641   2.141  0.8543  1.5487 -0.2895
 3995TIP3    H211925   6.109   4.634   1.990 -0.7722 -0.6928 -0.3074
 3996TIP3   OH211926   4.657   2.345   2.508  0.4153 -0.1569 -0.0993
 3996TIP3    H111927   4.566   2.319   2.500  0.3720  0.1922 -0.7340
 3996TIP3    H211928   4.655   2.427   2.556  0.4114 -0.2367  0.0383
 3997TIP3   OH211929   6.762   3.299   3.305 -0.0161  0.3856  0.0346
 3997TIP3    H111930   6.739   3.365   3.371 -2.7146 -0.8362  0.3594
 3997TIP3    H211931   6.722   3.331   3.224  0.9851  0.5065 -0.4201
 3998TIP3   OH211932   2.896   6.077   2.713 -0.4910 -0.4525  0.2483
 3998TIP3    H111933   2.905   6.014   2.785 -0.8439 -0.5690  0.1903
 3998TIP3    H211934   2.892   6.162   2.757  1.2088 -0.3604  0.2633
 3999TIP3   OH211935   5.963   5.758   2.532 -0.2278  0.4565  0.4346
 3999TIP3    H111936   6.018   5.688   2.498 -2.4613 -1.3853  0.4731
 3999TIP3    H211937   5.994   5.771   2.622  0.1565 -0.5515  0.4517
 4000TIP3   OH211938   5.210   5.019   0.674 -0.3897 -0.6575  0.2406
 4000TIP3    H111939   5.201   4.947   0.736 -0.6042  0.6036  1.7000
 4000TIP3    H211940   5.246   5.091   0.726 -0.8560  0.5152 -1.0265
 4001TIP3   OH211941   5.311   5.331   2.695  0.8565  0.2939  0.1091
 4001TIP3    H111942   5.290   5.299   2.782  0.5673  0.3941  0.0753
 4001TIP3    H211943   5.298   5.426   2.701 -1.6247  0.0449 -0.7404
 4002TIP3   OH211944   7.522   5.318   3.665 -0.0940 -0.3023  0.4523
 4002TIP3    H111945   7.563   5.291   3.748  0.8808  0.0479  0.0910
 4002TIP3    H211946   7.592   5.312   3.601 -0.4164  1.0128 -0.0429
 4003TIP3   OH211947   4.939   4.993   0.928 -0.1659  0.0719 -0.1987
 4003TIP3    H111948   4.933   4.912   0.877 -1.3289 -0.0299  0.0908
 4003TIP3    H211949   5.033   5.008   0.938  0.0625 -0.7853 -0.9739
 4004TIP3   OH211950   6.897   4.669   1.540 -0.4747  0.6370  0.1014
 4004TIP3    H111951   6.874   4.740   1.600 -0.7461  1.4817 -0.9930
 4004TIP3    H211952   6.848   4.594   1.572  0.3751  0.7450  1.7140
 4005TIP3   OH211953   7.394   5.089   1.840 -0.3950 -0.1275  0.0235
 4005TIP3    H111954   7.364   5.141   1.765 -0.7724 -1.1887 -0.5719
 4005TIP3    H211955   7.489   5.091   1.834 -0.4291 -0.9225 -0.9969
 4006TIP3   OH211956   6.181   4.120   2.304 -0.2759  0.0052  0.2960
 4006TIP3    H111957   6.135   4.038   2.319  0.0968  0.3557  3.9347
 4006TIP3    H211958   6.118   4.188   2.330 -0.0180  0.8007 -1.1194
 4007TIP3   OH211959   7.095   3.785   2.235 -0.3639 -0.3769 -0.1703
 4007TIP3    H111960   7.101   3.849   2.163 -0.6714  0.2393  0.3469
 4007TIP3    H211961   7.111   3.836   2.314 -0.1313 -1.0365  0.2115
 4008TIP3   OH211962   6.774   3.720   1.206  0.0893  0.8210  0.2093
 4008TIP3    H111963   6.727   3.729   1.123 -0.0602 -0.3498  0.1694
 4008TIP3    H211964   6.831   3.644   1.194  0.7593  1.2033  0.8593
 4009TIP3   OH211965   5.507   1.247   1.372  0.2900 -0.5364 -0.2377
 4009TIP3    H111966   5.464   1.287   1.448 -2.1712  0.1557 -1.9260
 4009TIP3    H211967   5.587   1.299   1.360 -0.9532  1.4925 -0.0843
 4010TIP3   OH211968   6.822   5.138   2.129 -0.8888  0.0692  0.5924
 4010TIP3    H111969   6.910   5.172   2.145 -1.5383  3.2353 -2.0680
 4010TIP3    H211970   6.784   5.127   2.216  1.2898  0.9700  1.6782
 4011TIP3   OH211971   7.418   0.222   1.043 -1.2356 -0.8969  0.2872
 4011TIP3    H111972   7.381   0.211   1.131  0.5923  0.5994  1.3022
 4011TIP3    H211973   7.461   0.139   1.024 -2.0464 -1.3930  0.6086
 4012TIP3   OH211974   5.886   3.949   1.629  0.0303  0.5398 -0.2740
 4012TIP3    H111975   5.820   3.883   1.612  0.2373  0.2450  0.0616
 4012TIP3    H211976   5.837   4.031   1.640 -0.2287  0.4270 -0.6138
 4013TIP3   OH211977   4.063   3.050   0.429  0.2913  0.0110  0.3897
 4013TIP3    H111978   4.073   2.958   0.402  0.7101 -0.0239  0.6632
 4013TIP3    H211979   3.990   3.048   0.492 -0.6506  0.0867 -0.6877
 4014TIP3   OH211980   4.066   3.405   2.007  0.1636 -0.0677  0.2173
 4014TIP3    H111981   3.989   3.432   2.057 -0.4289  1.3607 -1.4015
 4014TIP3    H211982   4.122   3.482   2.007 -0.6676  0.6120 -2.8080
 4015TIP3   OH211983   5.069   2.104   2.242  0.1105 -0.0266  0.1250
 4015TIP3    H111984   5.129   2.058   2.301  0.7439  1.5288  0.7027
 4015TIP3    H211985   4.999   2.136   2.299 -1.2305 -1.6813 -0.5173
 4016TIP3   OH211986   6.258   4.503   1.383 -0.1134 -0.0829 -0.0916
 4016TIP3    H111987   6.256   4.485   1.289  0.4129  0.5609 -0.2216
 4016TIP3    H211988   6.312   4.581   1.392  0.9009 -0.8880  0.8674
 4017TIP3   OH211989   4.076   6.364   0.450  0.5501  0.0913 -0.4346
 4017TIP3    H111990   4.086   6.279   0.408  0.3674 -0.3871  0.4817
 4017TIP3    H211991   4.132   6.360   0.527 -0.7010  0.2021  0.5047
 4018TIP3   OH211992   5.407   4.828   1.091 -0.2758  0.5989 -0.2210
 4018TIP3    H111993   5.492   4.804   1.129 -0.1580  2.4289  0.7095
 4018TIP3    H211994   5.411   4.923   1.081 -1.7976  0.5748 -1.2239
 4019TIP3   OH211995   5.356   1.989   4.797 -0.0566  0.5523  0.6238
 4019TIP3    H111996   5.342   2.050   4.724 -1.4282 -0.5630 -0.0696
 4019TIP3    H211997   5.436   2.020   4.839 -0.0682  2.1070 -0.4514
 4020TIP3   OH211998   6.806   3.313   2.675 -0.4308  0.1262 -0.0022
 4020TIP3    H111999   6.827   3.395   2.720  0.5054  0.1610 -0.4719
 4020TIP3    H212000   6.858   3.246   2.721  0.2898  0.1144 -0.8152
 4021TIP3   OH212001   3.739   5.392   1.481 -0.1471 -0.0678 -0.2978
 4021TIP3    H112002   3.781   5.321   1.433  2.1681 -1.1946  3.1988
 4021TIP3    H212003   3.807   5.460   1.487 -0.3798  0.0319  1.3582
 4022TIP3   OH212004   7.189   3.057   1.404  0.1057  0.7482  0.5079
 4022TIP3    H112005   7.216   3.108   1.481 -1.4406  0.7166  1.0902
 4022TIP3    H212006   7.148   2.979   1.441  0.4970  0.1220 -0.3694
 4023TIP3   OH212007   6.317   6.076   0.748 -0.1286 -0.0915  0.4378
 4023TIP3    H112008   6.349   5.997   0.792  0.3147  0.1352  0.5245
 4023TIP3    H212009   6.233   6.050   0.711  0.3965 -0.8475 -0.2464
 4024TIP3   OH212010   7.211   4.850   2.109 -0.3487  0.3894 -0.6349
 4024TIP3    H112011   7.299   4.863   2.145 -0.9678  0.3357  0.9467
 4024TIP3    H212012   7.203   4.916   2.040 -0.0604  2.2864  1.0762
 4025TIP3   OH212013   0.590   5.764   2.534  0.1742  0.1343 -0.2281
 4025TIP3    H112014   0.543   5.784   2.615  0.0232 -0.5158 -0.1562
 4025TIP3    H212015   0.556   5.827   2.470 -0.7575 -0.3014 -0.1635
 4026TIP3   OH212016   7.144   6.765   2.960 -0.3759 -0.3256  0.0702
 4026TIP3    H112017   7.204   6.803   2.896 -1.9517  0.7126 -0.8204
 4026TIP3    H212018   7.173   6.674   2.968  0.1914 -0.3227 -1.7118
 4027TIP3   OH212019   8.295   4.095   4.373 -0.0676 -0.1999  0.2836
 4027TIP3    H112020   8.383   4.129   4.390 -0.0676  0.1016 -0.2943
 4027TIP3    H212021   8.242   4.173   4.355 -0.4021 -0.3994  0.3951
 4028TIP3   OH212022   6.799   5.469   2.701 -0.2592  0.5502  0.1083
 4028TIP3    H112023   6.730   5.403   2.707  1.8077 -1.6479  0.7861
 4028TIP3    H212024   6.769   5.530   2.635 -2.2064 -1.1362 -0.6177
 4029TIP3   OH212025   5.454   6.723  -0.006  0.4309 -0.1132  0.2099
 4029TIP3    H112026   5.366   6.693   0.015  0.2755  0.6448  0.6333
 4029TIP3    H212027   5.482   6.772   0.071  0.0684  2.2239 -1.1078
 4030TIP3   OH212028   5.616   5.444   1.840 -0.1608 -0.0119 -0.5531
 4030TIP3    H112029   5.594   5.497   1.764  0.2674  0.2053 -0.5242
 4030TIP3    H212030   5.627   5.507   1.911  0.8602 -0.1005 -0.6343
 4031TIP3   OH212031   3.357   0.849   6.743  0.2567 -0.5370  0.3874
 4031TIP3    H112032   3.321   0.932   6.774  1.3720  0.2318 -0.3152
 4031TIP3    H212033   3.425   0.875   6.680  1.8422 -1.9483  1.4747
 4032TIP3   OH212034   7.126   4.863   2.963  0.4540  0.4324 -0.4134
 4032TIP3    H112035   7.181   4.916   2.906 -1.2527  0.0743 -2.4715
 4032TIP3    H212036   7.052   4.837   2.908  0.2162 -2.3959  1.0978
 4033TIP3   OH212037   7.202   3.266   0.368 -0.5103 -0.0893  0.0555
 4033TIP3    H112038   7.214   3.175   0.339  0.3932 -0.1525  0.6034
 4033TIP3    H212039   7.245   3.269   0.454  2.7997  1.7924 -1.5870
 4034TIP3   OH212040   5.222   4.165   1.312 -0.6907  0.0856 -0.0118
 4034TIP3    H112041   5.193   4.076   1.294  1.2441 -0.7811  0.9782
 4034TIP3    H212042   5.298   4.177   1.255 -1.5406  1.4709 -0.8738
 4035TIP3   OH212043   6.595   4.268   1.012 -0.3152  0.8203 -0.3461
 4035TIP3    H112044   6.623   4.357   1.034 -0.5570  0.4934  1.3487
 4035TIP3    H212045   6.542   4.240   1.086  1.3803 -1.4648  0.0895
 4036TIP3   OH212046   5.929   3.616   1.453  0.2655  0.0705 -0.1475
 4036TIP3    H112047   6.010   3.618   1.402  0.2721  0.5457 -0.1205
 4036TIP3    H212048   5.872   3.555   1.405  0.3250  0.3975 -0.6376
 4037TIP3   OH212049   7.752   4.959   3.482  0.5427  0.5224  0.1788
 4037TIP3    H112050   7.724   4.976   3.393  0.2674  0.6352  0.2853
 4037TIP3    H212051   7.674   4.976   3.535  0.7111  0.4790  0.4403
 4038TIP3   OH212052   8.476   2.954   0.604 -0.7091  0.4353  0.0984
 4038TIP3    H112053   8.421   2.886   0.641 -0.5236  0.7631  0.9797
 4038TIP3    H212054   8.485   2.930   0.511  0.2061 -1.2925  0.6233
 4039TIP3   OH212055   6.830   4.189   0.884  0.2815  0.4509 -0.2921
 4039TIP3    H112056   6.834   4.253   0.813 -0.2167  0.7048 -0.1001
 4039TIP3    H212057   6.747   4.208   0.928  0.3460 -0.0344  0.0454
 4040TIP3   OH212058   7.082   5.670   1.484 -0.3047 -0.2373  0.2949
 4040TIP3    H112059   7.133   5.655   1.564 -0.1849 -2.4219 -0.1732
 4040TIP3    H212060   7.142   5.647   1.413 -1.0244 -0.1019 -0.3577
 4041TIP3   OH212061   5.953   1.209   6.322  0.2557 -0.6892  0.1721
 4041TIP3    H112062   5.917   1.295   6.300 -0.5402 -1.3051 -0.9974
 4041TIP3    H212063   5.881   1.164   6.366  0.2183 -1.2400 -0.4493
 4042TIP3   OH212064   6.233   3.366   1.552 -0.5404  0.6868  0.3939
 4042TIP3    H112065   6.286   3.295   1.590  1.5509  1.3763 -1.1355
 4042TIP3    H212066   6.147   3.357   1.594  0.0985 -1.8945  1.2344
 4043TIP3   OH212067   0.043   4.687   2.293  0.2837  0.3468 -0.2469
 4043TIP3    H112068  -0.023   4.712   2.228  1.7510  1.5268 -1.3367
 4043TIP3    H212069   0.054   4.766   2.347  0.0969 -0.1704  0.5641
 4044TIP3   OH212070   7.940   3.672   0.816  0.0977 -0.7942 -0.7534
 4044TIP3    H112071   8.009   3.608   0.832  0.3914 -0.6868 -1.5273
 4044TIP3    H212072   7.980   3.756   0.836 -0.2635 -0.8421  0.1888
 4045TIP3   OH212073   0.225   5.149   0.726 -0.0830  0.0799 -0.3559
 4045TIP3    H112074   0.193   5.097   0.652  2.2665  0.4976 -1.6786
 4045TIP3    H212075   0.224   5.239   0.695  1.0753  0.2412  0.0753
 4046TIP3   OH212076   0.513   4.043   4.798  0.8075  0.6898 -0.3142
 4046TIP3    H112077   0.467   4.109   4.748  2.1830  3.0109  1.3709
 4046TIP3    H212078   0.599   4.037   4.757  0.5708 -0.3086 -0.6726
 4047TIP3   OH212079   7.090   5.039   1.944  0.2901 -0.7065  0.4468
 4047TIP3    H112080   7.144   5.103   1.990 -0.8614 -1.0651  2.3243
 4047TIP3    H212081   7.048   5.090   1.874  3.2337 -0.4871 -1.2738
 4048TIP3   OH212082   6.521   1.295   5.916 -0.8404  0.2131  0.1348
 4048TIP3    H112083   6.455   1.311   5.984 -0.4749  1.7398  0.1598
 4048TIP3    H212084   6.485   1.337   5.838 -0.5943 -0.2747 -0.2405
 4049TIP3   OH212085   0.886   3.668   2.218  0.2042 -0.4295 -0.3404
 4049TIP3    H112086   0.960   3.668   2.279  0.3065 -0.3148 -0.4641
 4049TIP3    H212087   0.818   3.717   2.265  0.0953 -0.8165 -0.0938
 4050TIP3   OH212088   5.769   6.166   0.821  0.0025  0.5918  0.2835
 4050TIP3    H112089   5.739   6.243   0.774 -1.2162  1.6249  2.6670
 4050TIP3    H212090   5.716   6.164   0.901  1.0439 -1.8718  0.9698
 4051TIP3   OH212091   6.908   3.565   2.802 -0.1259 -0.1662  0.5903
 4051TIP3    H112092   6.999   3.586   2.825  0.7984 -0.8346 -2.2835
 4051TIP3    H212093   6.859   3.645   2.823  1.2087  0.4086  1.6203
 4052TIP3   OH212094   7.495   4.414   3.526  0.1379 -0.0616  0.0117
 4052TIP3    H112095   7.531   4.501   3.512  0.9475 -0.0752  1.7941
 4052TIP3    H212096   7.422   4.428   3.587  0.2052 -0.6009  0.2189
 4053TIP3   OH212097   8.456   5.044   3.466 -0.0980  0.0569 -0.1083
 4053TIP3    H112098   8.417   4.959   3.484  2.5010 -0.9784  0.8259
 4053TIP3    H212099   8.418   5.103   3.531  0.2367 -1.0372  1.0924
 4054TIP3   OH212100   6.764   4.569   1.304  0.1364  0.1695  0.2499
 4054TIP3    H112101   6.754   4.486   1.350 -1.0488 -0.1910 -0.6361
 4054TIP3    H212102   6.813   4.624   1.365 -0.6722 -0.5717  1.5964
 4055TIP3   OH212103   5.062   1.355   6.671 -0.0543  0.2038 -0.1551
 4055TIP3    H112104   5.149   1.375   6.707 -0.2402  0.4710  0.1481
 4055TIP3    H212105   5.024   1.293   6.734  0.1118 -0.3128 -0.5537
 4056TIP3   OH212106   7.340   5.809   5.491 -0.6480 -0.3432  0.2784
 4056TIP3    H112107   7.303   5.826   5.404 -0.4945 -1.3458  0.0090
 4056TIP3    H212108   7.368   5.717   5.487  1.1581  0.1705  0.7327
 4057TIP3   OH212109   6.359   5.399   0.041 -0.4743 -0.0079  0.1886
 4057TIP3    H112110   6.357   5.338   0.114 -0.9045 -1.5862 -1.1157
 4057TIP3    H212111   6.452   5.415   0.024 -0.2574 -2.8186 -1.4929
 4058TIP3   OH212112   0.249   3.733   3.457  0.3732  0.0333  0.1620
 4058TIP3    H112113   0.183   3.687   3.509  0.0235 -0.9600 -1.1368
 4058TIP3    H212114   0.207   3.748   3.372  1.5217  0.1322 -0.3995
 4059TIP3   OH212115   4.437   0.477   6.130 -0.0328  0.5475  0.2411
 4059TIP3    H112116   4.387   0.533   6.070 -0.9581 -0.1601  0.3545
 4059TIP3    H212117   4.489   0.538   6.182 -1.4429  1.3359  0.7352
 4060TIP3   OH212118   7.219   5.208   3.066  0.1863  0.2648  0.5891
 4060TIP3    H112119   7.287   5.149   3.096 -0.1210 -0.1877  0.4079
 4060TIP3    H212120   7.225   5.284   3.124 -0.4846 -0.6524  1.8704
 4061TIP3   OH212121   5.354   5.080   3.807  0.5476  0.2459 -0.9789
 4061TIP3    H112122   5.262   5.084   3.832  1.0457  2.4765  0.6991
 4061TIP3    H212123   5.367   5.154   3.748  2.0511  2.2790  1.7890
 4062TIP3   OH212124   7.918   5.663   3.264  0.3452  0.2677 -0.2485
 4062TIP3    H112125   7.876   5.723   3.326 -0.2945 -0.9211  0.4805
 4062TIP3    H212126   7.920   5.711   3.181 -1.0896  0.9045  0.0808
 4063TIP3   OH212127   4.083   3.023   6.795  0.4666 -0.1440 -0.1733
 4063TIP3    H112128   4.153   2.959   6.780 -0.5797 -1.2618 -0.4487
 4063TIP3    H212129   4.025   3.012   6.719 -0.1644  0.5405  0.2085
 4064TIP3   OH212130   7.090   6.054   2.777  0.2063 -0.4566  0.2277
 4064TIP3    H112131   7.085   6.024   2.868  0.3414  0.4667  0.5507
 4064TIP3    H212132   7.173   6.102   2.772 -1.5807  2.8480  0.6921
 4065TIP3   OH212133   4.227   0.309   6.234  0.1026 -0.1233 -0.5997
 4065TIP3    H112134   4.168   0.381   6.255  1.1323  0.1710  1.4777
 4065TIP3    H212135   4.308   0.352   6.205  1.1207 -0.3744  1.7614
 4066TIP3   OH212136   4.450   5.659   1.656 -0.4148  0.7345 -0.0618
 4066TIP3    H112137   4.478   5.748   1.632 -0.3892  0.5783 -0.6155
 4066TIP3    H212138   4.532   5.613   1.676 -0.3423  0.5618 -0.7221
 4067TIP3   OH212139   6.563   4.621   3.552 -0.0053  0.2286  0.2062
 4067TIP3    H112140   6.469   4.627   3.566 -0.0330 -0.8591  0.4792
 4067TIP3    H212141   6.579   4.676   3.474 -0.8552  0.4068  0.1573
 4068TIP3   OH212142   7.628   4.044   2.358 -0.5137  0.2502  0.2846
 4068TIP3    H112143   7.538   4.072   2.378 -0.0340  1.3465  0.9765
 4068TIP3    H212144   7.680   4.124   2.368  0.6648 -0.5706  0.7521
 4069TIP3   OH212145   8.016   5.539   3.955 -0.1863  0.6695 -0.2959
 4069TIP3    H112146   7.954   5.549   4.027 -0.0729  1.4790 -0.3077
 4069TIP3    H212147   8.090   5.491   3.994 -0.4954  0.3521 -0.0954
 4070TIP3   OH212148   8.035   2.575   0.915 -0.2302  0.1416 -0.4449
 4070TIP3    H112149   8.094   2.534   0.851 -0.2909 -1.6494  0.5955
 4070TIP3    H212150   8.093   2.622   0.974 -0.0311  0.3046 -0.7674
 4071TIP3   OH212151   1.323   3.840   0.108 -0.0284 -0.1333  0.5985
 4071TIP3    H112152   1.411   3.877   0.116 -0.3303  0.8027 -0.2227
 4071TIP3    H212153   1.336   3.749   0.084  0.7158  0.3791 -0.9845
 4072TIP3   OH212154   7.888   5.039   2.064  0.2430  0.3925  0.3654
 4072TIP3    H112155   7.863   5.083   2.145  0.1048 -1.1013  1.1528
 4072TIP3    H212156   7.953   5.096   2.024  0.0900  1.2851  1.3759
 4073TIP3   OH212157   7.068   5.294   0.061  0.0807  0.4742 -0.4737
 4073TIP3    H112158   7.117   5.265  -0.016 -1.0206  0.7256 -1.2929
 4073TIP3    H212159   7.072   5.220   0.122  0.8538  0.2247 -0.8250
 4074TIP3   OH212160   0.231   6.186   1.397 -0.4612 -0.3904 -0.1574
 4074TIP3    H112161   0.263   6.218   1.312  0.4801 -2.6875 -0.7114
 4074TIP3    H212162   0.140   6.161   1.381 -0.5774  0.0999 -0.2498
 4075TIP3   OH212163   8.242   5.014   4.750 -0.0179  0.0304 -0.0295
 4075TIP3    H112164   8.215   4.943   4.691  1.3770 -0.4816 -0.0728
 4075TIP3    H212165   8.233   5.093   4.698  1.2742 -0.4262 -0.9778
 4076TIP3   OH212166   7.880   3.883   3.603 -0.2273 -0.2922  0.0047
 4076TIP3    H112167   7.970   3.897   3.633  1.0016  0.0775 -3.6816
 4076TIP3    H212168   7.869   3.788   3.607  0.3239 -0.3428  0.4742
 4077TIP3   OH212169   5.241   2.330   0.656  0.6015  0.5796  0.5063
 4077TIP3    H112170   5.240   2.256   0.716 -0.8186  0.3065  0.1713
 4077TIP3    H212171   5.243   2.290   0.569  1.0556  0.9475  0.3475
 4078TIP3   OH212172   7.762   5.764   1.591  0.3145  0.4993 -0.7254
 4078TIP3    H112173   7.769   5.853   1.556 -0.4536  0.9455  0.2492
 4078TIP3    H212174   7.830   5.715   1.545  0.4524  1.4870 -1.5856
 4079TIP3   OH212175   0.127   4.768   4.161 -0.2437  0.5764  0.3081
 4079TIP3    H112176   0.202   4.749   4.104 -0.6252 -1.3814  0.4261
 4079TIP3    H212177   0.073   4.828   4.110 -0.7996 -1.4757 -1.6478
 4080TIP3   OH212178   7.249   1.996   1.168  0.5759 -0.2291 -0.2844
 4080TIP3    H112179   7.185   2.029   1.106  0.0984 -2.3194 -0.9463
 4080TIP3    H212180   7.329   2.046   1.150  0.1803 -0.1917 -1.9646
 4081TIP3   OH212181   5.083   2.286   1.047  0.3969 -0.0718  0.2830
 4081TIP3    H112182   5.139   2.345   1.098 -0.5892  0.9120  0.2410
 4081TIP3    H212183   5.042   2.230   1.113 -2.1617  2.2931  0.7636
 4082TIP3   OH212184   8.490   4.099   3.884 -0.1492  0.9454  0.0243
 4082TIP3    H112185   8.454   4.188   3.877 -2.3018 -0.0832 -2.4542
 4082TIP3    H212186   8.518   4.077   3.796  1.1082 -0.5798  0.7800
 4083TIP3   OH212187   1.433   6.429   6.908 -0.0076  0.2114  0.3958
 4083TIP3    H112188   1.348   6.472   6.905 -0.2874 -0.4109 -1.0256
 4083TIP3    H212189   1.443   6.390   6.821  1.3628 -0.4204  0.8258
 4084TIP3   OH212190   0.832   4.967   2.599  0.3093  0.3982  0.1263
 4084TIP3    H112191   0.851   4.927   2.684  0.2551  1.6265  0.7259
 4084TIP3    H212192   0.744   4.936   2.576  0.4978 -0.2772  0.3075
 4085TIP3   OH212193   8.341   5.841   1.568 -0.3689 -0.0071  0.3712
 4085TIP3    H112194   8.275   5.903   1.599 -1.0482 -0.5482  0.0218
 4085TIP3    H212195   8.308   5.755   1.593 -0.7717 -0.4273 -1.5204
 4086TIP3   OH212196   6.764   6.528   5.148  0.2636 -0.4054 -0.2819
 4086TIP3    H112197   6.814   6.602   5.115 -0.7073  0.0574 -0.7150
 4086TIP3    H212198   6.825   6.482   5.206  0.8087  0.8050  0.1019
 4087TIP3   OH212199   7.253   4.435   1.353  0.1246  0.4471 -0.0240
 4087TIP3    H112200   7.317   4.451   1.423  0.8486 -0.4001 -0.4763
 4087TIP3    H212201   7.290   4.479   1.276  0.6896 -0.8931 -0.5425
 4088TIP3   OH212202   5.971   4.742   1.532  0.1749  0.6508 -0.5979
 4088TIP3    H112203   5.899   4.689   1.564 -0.8636  1.1461 -2.0546
 4088TIP3    H212204   6.049   4.706   1.575 -0.5775 -1.6735 -1.1501
 4089TIP3   OH212205   7.653   2.022   0.991 -0.0636 -0.1445  0.0326
 4089TIP3    H112206   7.738   2.049   1.025 -0.3943  0.3185  0.5126
 4089TIP3    H212207   7.601   2.102   0.991 -0.2459 -0.2513 -1.0601
 4090TIP3   OH212208   7.793   5.195   1.185 -0.0593  0.1200 -0.5359
 4090TIP3    H112209   7.767   5.132   1.118  1.3681  0.9295 -1.8732
 4090TIP3    H212210   7.732   5.179   1.258 -1.1430 -1.2711 -1.7194
 4091TIP3   OH212211   6.878   3.667   1.872 -0.5791  0.0710 -0.7724
 4091TIP3    H112212   6.917   3.605   1.933 -0.7217  0.2098 -0.5387
 4091TIP3    H212213   6.802   3.701   1.918 -0.6003  0.2915 -0.9683
 4092TIP3   OH212214  -0.005   3.474   0.647  0.2898 -0.0905  0.2968
 4092TIP3    H112215  -0.041   3.386   0.634  1.4455 -0.5069 -0.2109
 4092TIP3    H212216   0.079   3.472   0.602 -0.6106  1.9695 -1.5274
 4093TIP3   OH212217   1.283   7.331   6.725  0.2705  0.3222 -0.5923
 4093TIP3    H112218   1.313   7.315   6.815 -2.1187 -1.6272 -0.0734
 4093TIP3    H212219   1.281   7.426   6.717  0.0334  0.5330  1.6183
 4094TIP3   OH212220   6.671   5.968   1.105  0.4972 -0.0828  0.4928
 4094TIP3    H112221   6.634   5.893   1.151  1.9059 -0.4063  1.1187
 4094TIP3    H212222   6.670   6.039   1.170  1.1788 -0.1528  0.5767
 4095TIP3   OH212223   7.381   1.909   2.228 -0.3724  0.3819 -0.2651
 4095TIP3    H112224   7.389   1.834   2.287  0.8272 -0.7185 -1.7889
 4095TIP3    H212225   7.358   1.871   2.144 -1.8748  1.9233 -0.5676
 4096TIP3   OH212226   0.243   5.108   2.220  0.2618  0.4911 -0.3212
 4096TIP3    H112227   0.286   5.034   2.177  1.1589  1.2020 -0.6755
 4096TIP3    H212228   0.161   5.119   2.173  0.5990  0.3759 -0.9410
 4097TIP3   OH212229   7.659   3.254   0.170  0.3986  0.6884 -0.2287
 4097TIP3    H112230   7.689   3.324   0.112  0.8312 -0.6388 -1.6254
 4097TIP3    H212231   7.716   3.180   0.151  0.7015  0.2857  2.0662
 4098TIP3   OH212232   6.065   5.551   2.339  0.3892 -0.0445 -0.0203
 4098TIP3    H112233   6.081   5.527   2.248  1.7432 -1.1773  0.4903
 4098TIP3    H212234   5.974   5.524   2.355 -0.0753  0.7844 -1.2174
 4099TIP3   OH212235   7.148   6.079   4.907 -0.1017 -0.2469 -0.0732
 4099TIP3    H112236   7.090   6.082   4.983  0.7099 -0.0062  0.5338
 4099TIP3    H212237   7.133   6.162   4.861  0.3257  0.1429  0.4961
 4100TIP3   OH212238   7.021   6.718   2.049 -1.1023  0.0920  0.4885
 4100TIP3    H112239   7.054   6.768   1.974 -1.5052  2.1002  1.6116
 4100TIP3    H212240   6.942   6.675   2.016 -2.0410  2.0559  0.1020
 4101TIP3   OH212241   7.174   3.840   0.879 -0.1139 -0.8229 -0.2281
 4101TIP3    H112242   7.190   3.824   0.786  0.0910  0.3928 -0.4153
 4101TIP3    H212243   7.249   3.803   0.923  0.0483 -0.9384 -0.5975
 4102TIP3   OH212244   8.177   4.974   1.027  0.1760 -0.3717  0.2581
 4102TIP3    H112245   8.230   4.894   1.030 -2.2437 -2.1182 -1.8203
 4102TIP3    H212246   8.204   5.017   0.946 -0.3632 -0.4028  0.0620
 4103TIP3   OH212247   4.506   2.993   6.577  0.1714 -0.2598 -0.2544
 4103TIP3    H112248   4.496   2.983   6.482 -1.4559 -1.8185  0.0488
 4103TIP3    H212249   4.419   3.023   6.606 -0.3702 -3.0174  1.1311
 4104TIP3   OH212250   0.403   5.762   0.893  0.2486  0.2209  0.1353
 4104TIP3    H112251   0.320   5.741   0.935 -0.8898  2.4537 -0.9310
 4104TIP3    H212252   0.406   5.857   0.890  1.8187  0.1558 -1.8336
 4105TIP3   OH212253   7.565   3.308   1.419  0.1487  0.4135 -0.6263
 4105TIP3    H112254   7.615   3.338   1.494 -1.0616  0.4933  0.1706
 4105TIP3    H212255   7.616   3.336   1.343  0.6180  1.7017  0.1448
 4106TIP3   OH212256   3.008   0.222   5.783  0.4991  0.4828 -0.0345
 4106TIP3    H112257   2.933   0.258   5.736  0.4363  1.0642  0.4938
 4106TIP3    H212258   3.084   0.248   5.732  0.4828  1.7367  0.5550
 4107TIP3   OH212259   8.218   4.197   0.744  0.2548 -0.2122  0.4758
 4107TIP3    H112260   8.156   4.261   0.778 -0.1417 -0.5262  0.3477
 4107TIP3    H212261   8.209   4.202   0.649  0.2111 -0.4665  0.4648
 4108TIP3   OH212262   0.069   5.386   3.303 -0.3751  0.1626  0.1664
 4108TIP3    H112263   0.096   5.326   3.234 -1.3626 -0.9713  0.7348
 4108TIP3    H212264   0.057   5.329   3.380  0.4742  1.3604  1.1907
 4109TIP3   OH212265   6.099   5.285   1.747 -0.3140  0.1776  0.0439
 4109TIP3    H112266   6.151   5.229   1.805 -0.8099  0.8708  1.1694
 4109TIP3    H212267   6.009   5.270   1.774 -0.5097  0.8889 -0.2192
 4110TIP3   OH212268   8.447   5.333   0.598 -0.6842 -0.2182 -0.0279
 4110TIP3    H112269   8.429   5.248   0.638  0.0721 -1.1633 -1.6241
 4110TIP3    H212270   8.530   5.360   0.637 -0.4091 -0.6967 -0.2764
 4111TIP3   OH212271   6.667   3.561   3.196  0.4941 -0.1756  0.3481
 4111TIP3    H112272   6.687   3.528   3.108  0.2880  1.3617 -0.2792
 4111TIP3    H212273   6.581   3.602   3.187  0.9129  0.8518  1.0461
 4112TIP3   OH212274   0.044   4.571   3.051  0.7295  0.1170  0.3550
 4112TIP3    H112275   0.090   4.596   2.971  0.5088 -1.2248 -0.1993
 4112TIP3    H212276  -0.042   4.614   3.043  0.9094  0.4348  0.1302
 4113TIP3   OH212277   8.256   4.703   1.085  0.3371 -0.1868  0.1291
 4113TIP3    H112278   8.265   4.644   1.010  0.6804 -1.2094  0.9712
 4113TIP3    H212279   8.297   4.657   1.158 -0.7884  0.4111  1.1636
 4114TIP3   OH212280   7.406   4.474   0.457 -0.5961 -0.2309 -0.0314
 4114TIP3    H112281   7.396   4.384   0.485 -0.8141 -0.3695 -0.5455
 4114TIP3    H212282   7.494   4.499   0.487 -0.4624 -0.6713 -0.0533
 4115TIP3   OH212283   7.258   3.784   0.619 -0.6522  0.3823  0.0168
 4115TIP3    H112284   7.264   3.723   0.545 -2.4618  0.0538  0.1048
 4115TIP3    H212285   7.271   3.870   0.581  0.7512  0.0456 -0.3001
 4116TIP3   OH212286   0.364   7.443   6.815  0.1505 -0.1504 -0.5397
 4116TIP3    H112287   0.379   7.348   6.815 -0.9814 -0.3557  0.3866
 4116TIP3    H212288   0.354   7.465   6.908 -0.8952  0.6402 -0.8219
 4117TIP3   OH212289   1.106   4.326   1.461 -0.0340  0.2462  0.0915
 4117TIP3    H112290   1.055   4.383   1.519  0.5273 -0.0236  0.8506
 4117TIP3    H212291   1.184   4.303   1.511 -0.4206 -1.4848 -0.0618
 4118TIP3   OH212292   0.227   5.853   1.267  0.3177 -0.2988  0.4043
 4118TIP3    H112293   0.188   5.932   1.231 -1.1039 -1.6062 -1.0259
 4118TIP3    H212294   0.302   5.835   1.210 -0.4894 -1.0127 -0.4575
 4119TIP3   OH212295   5.944   5.585   3.061  0.2810  0.4366 -0.3835
 4119TIP3    H112296   5.944   5.531   3.140 -1.5372  1.2485  0.1953
 4119TIP3    H212297   6.005   5.541   3.001 -2.9336 -3.6115 -0.8708
 4120TIP3   OH212298   0.321   3.775   1.796 -0.0970  0.0876  0.3884
 4120TIP3    H112299   0.405   3.803   1.760 -0.9412  1.7552 -0.3532
 4120TIP3    H212300   0.295   3.846   1.855 -0.9851 -0.4180  0.6183
 4121TIP3   OH212301   0.964   0.712   6.020 -0.1021  1.0141  0.3136
 4121TIP3    H112302   1.046   0.733   6.064  0.7867  0.1092 -0.8913
 4121TIP3    H212303   0.990   0.682   5.933 -1.7221  0.9216 -0.1548
 4122TIP3   OH212304   7.430   3.789   2.001  0.0806 -0.1103  0.5541
 4122TIP3    H112305   7.386   3.770   2.084 -0.8555 -0.2925  0.0202
 4122TIP3    H212306   7.439   3.885   2.001 -2.1456  0.1344 -0.2268
 4123TIP3   OH212307   6.568   4.100   0.652 -0.0311  0.2540  0.3787
 4123TIP3    H112308   6.529   4.073   0.570  1.4618 -1.8780  0.3188
 4123TIP3    H212309   6.589   4.192   0.640 -1.1884  0.3332 -1.0735
 4124TIP3   OH212310   6.990   7.434   0.013 -0.3628 -0.4521  0.2816
 4124TIP3    H112311   7.078   7.462   0.035 -0.5923 -0.2511  0.9553
 4124TIP3    H212312   6.936   7.512   0.025 -0.8752 -0.9697  1.3781
 4125TIP3   OH212313   7.194   4.986   0.365  0.0809 -0.3931 -0.7892
 4125TIP3    H112314   7.203   5.060   0.424 -0.4491 -0.3022 -0.8132
 4125TIP3    H212315   7.189   4.910   0.423  1.0340 -0.4500 -0.7838
 4126TIP3   OH212316   1.713   6.438   1.476 -0.1534  0.2050  0.7055
 4126TIP3    H112317   1.698   6.491   1.554  0.4210 -0.8202  1.5319
 4126TIP3    H212318   1.794   6.472   1.439 -0.1675  0.3750  0.8283
 4127TIP3   OH212319   8.300   3.290   1.231 -0.2150  0.1929 -0.9369
 4127TIP3    H112320   8.352   3.352   1.282  0.4180 -1.0094 -0.1007
 4127TIP3    H212321   8.221   3.339   1.207 -0.1077  1.0600  0.4267
 4128TIP3   OH212322   6.596   7.122   1.411  0.3996  0.5463 -0.3851
 4128TIP3    H112323   6.658   7.194   1.401  1.0853  0.0984  0.5270
 4128TIP3    H212324   6.632   7.052   1.357  1.9138 -0.4772  1.8892
 4129TIP3   OH212325   7.861   4.013   4.657 -0.1240 -0.2626 -0.6837
 4129TIP3    H112326   7.807   3.955   4.603 -1.0104  0.3268 -0.4543
 4129TIP3    H212327   7.945   3.968   4.666 -0.2080 -0.6879 -1.9649
 4130TIP3   OH212328   7.971   5.547   4.616 -0.8137 -0.3571  0.0963
 4130TIP3    H112329   7.976   5.456   4.645  1.5554 -0.3908 -0.3296
 4130TIP3    H212330   7.899   5.548   4.552 -0.9448 -1.8916  0.2029
 4131TIP3   OH212331   5.183   5.604   1.724 -0.3594  0.3932  0.8343
 4131TIP3    H112332   5.278   5.598   1.716 -0.6908 -0.5309 -3.7395
 4131TIP3    H212333   5.156   5.518   1.756  0.1098 -0.6880 -1.5574
 4132TIP3   OH212334   6.216   5.894   2.169  0.1877  0.0195  0.2069
 4132TIP3    H112335   6.283   5.962   2.163 -1.3050  1.5172  0.4724
 4132TIP3    H212336   6.239   5.845   2.248  1.4201  0.0181 -0.1374
 4133TIP3   OH212337   2.362   7.870   6.155 -0.2649  0.7027 -0.4385
 4133TIP3    H112338   2.360   7.837   6.245 -1.2733 -0.3121 -0.8119
 4133TIP3    H212339   2.450   7.848   6.123 -0.5112 -0.5812 -0.2816
 4134TIP3   OH212340   5.851   4.762   0.470  0.3883  0.1566  0.4465
 4134TIP3    H112341   5.910   4.820   0.422 -1.4046  0.8686 -0.9762
 4134TIP3    H212342   5.780   4.820   0.500  0.1982 -0.7450  1.7972
 4135TIP3   OH212343   8.019   4.883   1.497  0.0094  0.0868  0.7310
 4135TIP3    H112344   8.100   4.900   1.545  0.2370 -2.0954  1.1953
 4135TIP3    H212345   7.953   4.868   1.565  0.2907 -2.8137  0.4139
 4136TIP3   OH212346   7.606   6.086   2.687 -0.4916  0.8388  0.2887
 4136TIP3    H112347   7.662   6.163   2.676 -0.0403  0.1545 -2.3987
 4136TIP3    H212348   7.525   6.121   2.726  0.2087  2.4499  0.3178
 4137TIP3   OH212349   7.508   6.254   2.204  0.2044 -0.1480  0.0692
 4137TIP3    H112350   7.432   6.251   2.262  1.2208 -2.4068  1.4014
 4137TIP3    H212351   7.583   6.251   2.264  1.3172  0.8118 -1.2557
 4138TIP3   OH212352   8.230   4.399   2.177 -0.3699 -0.8051  0.2052
 4138TIP3    H112353   8.301   4.336   2.162  1.5554  1.0216  1.4461
 4138TIP3    H212354   8.226   4.450   2.096  0.6723 -0.0121  0.6483
 4139TIP3   OH212355   7.867   6.299   0.626 -0.1619 -0.8026  0.1527
 4139TIP3    H112356   7.922   6.221   0.621 -0.1594 -0.7543 -0.7968
 4139TIP3    H212357   7.846   6.319   0.534 -0.3016  0.2061  0.3961
 4140TIP3   OH212358   0.077   4.525   0.908  0.6545 -0.1935 -0.5743
 4140TIP3    H112359   0.115   4.533   0.821 -1.8245 -1.2414 -1.7886
 4140TIP3    H212360   0.114   4.444   0.943  2.6097  0.8559 -0.1172
 4141TIP3   OH212361   6.991   7.808   3.917 -0.2808 -0.2621  0.1926
 4141TIP3    H112362   6.974   7.785   4.009  0.6016  0.0143  0.4262
 4141TIP3    H212363   7.031   7.729   3.880 -0.5264 -0.3323  0.0736
 4142TIP3   OH212364   0.530   3.592   1.411  0.0013 -0.4143  0.6228
 4142TIP3    H112365   0.476   3.519   1.382  0.7410  0.0475 -2.1066
 4142TIP3    H212366   0.473   3.669   1.402 -0.4199 -0.5064  2.4125
 4143TIP3   OH212367   0.444   3.622   3.274  0.1217  0.3123 -0.4802
 4143TIP3    H112368   0.403   3.640   3.359 -0.7457 -1.4722 -0.4827
 4143TIP3    H212369   0.514   3.687   3.267 -1.8977  2.6270  0.0926
 4144TIP3   OH212370   6.036   3.336   1.730  0.2084 -0.0800  0.5734
 4144TIP3    H112371   6.006   3.320   1.819 -1.5200 -1.9358 -0.3213
 4144TIP3    H212372   6.020   3.429   1.716 -0.5147 -0.0072  1.8284
 4145TIP3   OH212373   0.228   4.517   4.339 -0.0974 -0.1064  0.2716
 4145TIP3    H112374   0.167   4.557   4.278  0.2992 -1.4164 -0.9992
 4145TIP3    H212375   0.253   4.434   4.299  1.7087 -0.0816  1.2556
 4146TIP3   OH212376   7.957   6.302   1.557  0.2903  0.0630  0.1273
 4146TIP3    H112377   8.042   6.258   1.546 -0.4761 -1.1423 -1.1992
 4146TIP3    H212378   7.942   6.301   1.651  0.7463 -1.7086  0.2100
 4147TIP3   OH212379   8.079   5.984   3.276  0.8109  0.2014 -0.4284
 4147TIP3    H112380   8.174   5.981   3.261  0.5620  1.6564 -2.4636
 4147TIP3    H212381   8.042   5.940   3.200 -0.1259 -1.4094  0.9329
 4148TIP3   OH212382   0.850   4.697   1.319  0.0049 -0.2092  0.2460
 4148TIP3    H112383   0.827   4.656   1.235 -0.8010  2.5878 -0.9361
 4148TIP3    H212384   0.780   4.760   1.335  1.0626  0.5067  2.1743
 4149TIP3   OH212385   7.093   4.911   1.365 -0.0200 -0.5791  0.3496
 4149TIP3    H112386   7.039   4.872   1.296 -0.6492 -1.2948  1.2298
 4149TIP3    H212387   7.031   4.963   1.417  0.6125  0.7089 -0.1449
 4150TIP3   OH212388   0.199   5.613   3.420  0.3666  1.0973  0.1064
 4150TIP3    H112389   0.117   5.657   3.397 -0.1359  0.1479  0.0740
 4150TIP3    H212390   0.182   5.520   3.404  1.4131  0.8840  0.2068
 4151TIP3   OH212391   8.311   4.741   2.105  0.0869  0.0416 -0.2786
 4151TIP3    H112392   8.275   4.702   2.025 -0.7993 -0.5997  0.4168
 4151TIP3    H212393   8.285   4.833   2.100  0.6435  0.1576 -1.0694
 4152TIP3   OH212394   0.251   2.386   3.860 -0.5211 -0.1165  0.4748
 4152TIP3    H112395   0.269   2.433   3.778  3.3521  1.0263  1.8558
 4152TIP3    H212396   0.204   2.307   3.832 -1.1119  1.2332 -2.6089
 4153TIP3   OH212397   0.886   1.698   2.686  0.0223  0.1259 -0.2375
 4153TIP3    H112398   0.953   1.765   2.695 -0.0012  0.3047 -1.2553
 4153TIP3    H212399   0.907   1.633   2.753  1.3484  0.0603 -0.6981
 4154TIP3   OH212400   7.652   5.097   0.950  0.3579 -0.5086  0.7472
 4154TIP3    H112401   7.731   5.095   0.896  0.2966  1.4531  0.5316
 4154TIP3    H212402   7.615   5.009   0.942  2.2428 -1.2945  0.4410
 4155TIP3   OH212403   1.889   6.052   6.070 -0.3488 -0.0133 -0.0823
 4155TIP3    H112404   1.874   6.032   6.162 -2.0382  1.9027  0.1028
 4155TIP3    H212405   1.895   5.966   6.028  0.5665 -0.9102  1.8136
 4156TIP3   OH212406   7.099   3.488   0.260 -0.8367  0.3188  0.1013
 4156TIP3    H112407   7.138   3.411   0.302 -0.6742  0.4562  0.2024
 4156TIP3    H212408   7.165   3.556   0.270 -0.7107  0.2977 -0.5485
 4157TIP3   OH212409   3.890   5.652   0.980 -0.1612 -0.2537  0.3424
 4157TIP3    H112410   3.799   5.632   1.003 -0.4457 -1.4093 -1.7052
 4157TIP3    H212411   3.912   5.589   0.911  2.5837 -0.7762  1.6278
 4158TIP3   OH212412   6.271   5.229   2.248  0.1038 -0.1119 -0.4661
 4158TIP3    H112413   6.254   5.277   2.329 -0.0377 -1.3298  0.2339
 4158TIP3    H212414   6.352   5.181   2.265 -0.7817 -1.6339 -0.4530
 4159TIP3   OH212415   0.781   3.748   4.298  0.1897  0.5245  1.0510
 4159TIP3    H112416   0.715   3.800   4.251  0.1437 -0.6829 -0.2639
 4159TIP3    H212417   0.845   3.813   4.328 -0.2550  1.4251  0.1044
 4160TIP3   OH212418   8.305   6.745   4.526  0.0345 -0.6578 -0.0083
 4160TIP3    H112419   8.352   6.662   4.519 -0.5116 -0.8743 -1.2908
 4160TIP3    H212420   8.238   6.740   4.458  0.1744  0.9449 -0.2732
 4161TIP3   OH212421   7.809   3.852   2.482 -0.0977  0.1165 -0.1012
 4161TIP3    H112422   7.868   3.787   2.443 -1.3565 -0.6326 -0.7874
 4161TIP3    H212423   7.751   3.877   2.411 -1.0186  0.3685  0.7285
 4162TIP3   OH212424   0.958   4.555   1.547 -0.7381  0.5391 -0.6771
 4162TIP3    H112425   1.021   4.625   1.563 -0.3480  0.5714 -2.2601
 4162TIP3    H212426   0.916   4.579   1.465 -1.6606 -0.3230 -0.4672
 4163TIP3   OH212427   7.367   5.611   3.160 -0.2924  0.5750 -0.0992
 4163TIP3    H112428   7.338   5.614   3.069 -0.2996 -0.1375 -0.1190
 4163TIP3    H212429   7.434   5.679   3.166 -0.1877  0.5218 -0.6720
 4164TIP3   OH212430   6.722   3.529   2.155 -0.1994 -0.1050  0.0780
 4164TIP3    H112431   6.733   3.529   2.250  2.8305 -1.0454 -0.2045
 4164TIP3    H212432   6.717   3.622   2.132 -0.2235  0.1482  1.0791
 4165TIP3   OH212433   8.464   4.963   4.048  0.2586 -0.0050  0.1998
 4165TIP3    H112434   8.418   4.946   3.966  1.7769 -1.1670 -0.4398
 4165TIP3    H212435   8.395   4.974   4.113 -0.9805  1.3719 -1.2992
 4166TIP3   OH212436   5.731   4.030   1.375 -0.0807  0.0066  0.2768
 4166TIP3    H112437   5.705   3.960   1.436 -0.2314 -0.8998 -0.8146
 4166TIP3    H212438   5.699   4.000   1.290  1.0676  0.7698 -0.4218
 4167TIP3   OH212439   6.897   4.095   1.847  0.8300 -0.2914 -0.6696
 4167TIP3    H112440   6.912   4.031   1.778 -0.7633 -0.1603 -1.1478
 4167TIP3    H212441   6.848   4.166   1.805 -0.8489 -0.5641  0.7495
 4168TIP3   OH212442   0.357   4.549   2.499  0.1516 -0.6031  0.5877
 4168TIP3    H112443   0.329   4.495   2.425 -0.6492 -0.1954  0.5851
 4168TIP3    H212444   0.363   4.637   2.463 -0.1405 -0.4209  0.9801
 4169TIP3   OH212445   8.220   3.266   3.740 -0.1595  0.2985  0.1834
 4169TIP3    H112446   8.313   3.248   3.730 -0.5446 -0.9933 -1.3257
 4169TIP3    H212447   8.214   3.360   3.752  1.2098  0.6084 -1.4252
 4170TIP3   OH212448   6.425   5.430   2.845  0.0433  0.4991 -0.1329
 4170TIP3    H112449   6.331   5.446   2.834 -0.0005  0.6341  0.4201
 4170TIP3    H212450   6.459   5.513   2.878  0.1206  0.0134  1.0271
 4171TIP3   OH212451   6.534   7.258   0.344 -0.0504  0.6172  0.5436
 4171TIP3    H112452   6.578   7.175   0.326  1.7832  1.7920 -0.4830
 4171TIP3    H212453   6.448   7.249   0.303  0.4207 -0.4836 -0.2018
 4172TIP3   OH212454   3.582   1.244   6.493  0.0911 -0.3960 -0.2773
 4172TIP3    H112455   3.675   1.256   6.475  0.2056  0.5144  0.7909
 4172TIP3    H212456   3.576   1.246   6.589 -0.8837 -1.6191 -0.3043
 4173TIP3   OH212457   8.056   7.387   4.160  0.6772 -0.1094  0.7933
 4173TIP3    H112458   8.140   7.428   4.181  1.7422  0.6928 -4.1860
 4173TIP3    H212459   7.998   7.461   4.141 -0.1885 -0.7231  1.0553
 4174TIP3   OH212460   1.421   0.065   1.798 -0.0499  0.1926  0.5627
 4174TIP3    H112461   1.385   0.136   1.850 -0.0003  1.2226 -0.7894
 4174TIP3    H212462   1.419   0.097   1.708  1.3179 -0.9455  0.1006
 4175TIP3   OH212463   7.089   6.231   0.905  0.6659  0.8320 -0.4642
 4175TIP3    H112464   7.157   6.169   0.929 -0.2765 -0.9267 -2.1844
 4175TIP3    H212465   7.117   6.267   0.821 -0.5438  0.0098 -1.2421
 4176TIP3   OH212466   0.180   4.639   3.564 -0.1190  0.2061 -0.5632
 4176TIP3    H112467   0.237   4.714   3.576  1.5833 -1.1396 -0.1139
 4176TIP3    H212468   0.161   4.638   3.470  0.4135  0.7745 -0.6802
 4177TIP3   OH212469   0.069   4.768   1.139 -0.1005 -0.6302  1.0236
 4177TIP3    H112470   0.079   4.677   1.111 -0.6256 -0.5226  0.4798
 4177TIP3    H212471  -0.009   4.799   1.092  2.1886  1.2211 -1.6946
 4178TIP3   OH212472   7.058   7.118   2.736  0.3079  0.2921  0.4601
 4178TIP3    H112473   7.095   7.091   2.820 -0.8335  1.1233  1.2443
 4178TIP3    H212474   6.978   7.166   2.759  0.0812  0.6878 -1.0903
 4179TIP3   OH212475   6.713   7.105   2.394 -0.2859  0.9965  0.1365
 4179TIP3    H112476   6.806   7.129   2.399 -0.0036 -0.0444  0.0802
 4179TIP3    H212477   6.707   7.024   2.445 -0.9933  0.5857 -0.5906
 4180TIP3   OH212478   8.147   3.963   2.729  0.4145  0.7332  0.1749
 4180TIP3    H112479   8.239   3.950   2.703 -0.1353 -0.8028 -1.1007
 4180TIP3    H212480   8.115   3.874   2.746 -0.7345  1.2984  0.9968
 4181TIP3   OH212481   8.518   6.983   6.576 -0.2421  0.6311  0.2640
 4181TIP3    H112482   8.424   6.990   6.559 -0.0490  1.4907 -0.5053
 4181TIP3    H212483   8.529   7.016   6.665 -0.4998  1.8994 -0.1591
 4182TIP3   OH212484   8.481   2.266   2.788  0.3985  0.5545  0.3608
 4182TIP3    H112485   8.461   2.344   2.737  1.0152 -0.3131 -1.2368
 4182TIP3    H212486   8.498   2.299   2.876  0.7884  2.2356 -0.3273
 4183TIP3   OH212487   7.226   5.167   2.162  0.5040 -0.0521  0.0578
 4183TIP3    H112488   7.162   5.185   2.231  0.0320 -0.6463 -0.2277
 4183TIP3    H212489   7.243   5.252   2.122  1.6343  0.5103  1.6430
 4184TIP3   OH212490   6.726   1.381   0.867  0.1877 -0.3877  0.6613
 4184TIP3    H112491   6.732   1.449   0.801  0.3893 -0.3069  0.7615
 4184TIP3    H212492   6.761   1.421   0.946 -0.3826 -0.3664  0.9103
 4185TIP3   OH212493   7.309   3.177   2.266  0.3566 -0.1198 -0.0291
 4185TIP3    H112494   7.279   3.158   2.355  1.5690  0.6093  0.5487
 4185TIP3    H212495   7.244   3.238   2.231  0.0194 -0.2021  0.4481
 4186TIP3   OH212496   2.749   2.750   3.874 -0.4792  0.0114 -0.0728
 4186TIP3    H112497   2.763   2.801   3.954 -0.6226 -0.8049  0.4911
 4186TIP3    H212498   2.674   2.791   3.831  2.1792  3.0949 -2.0016
 4187TIP3   OH212499   5.822   6.481   2.294 -0.6231  0.2219 -0.1053
 4187TIP3    H112500   5.868   6.437   2.366  0.0821  0.9807 -0.0778
 4187TIP3    H212501   5.880   6.553   2.270 -2.0940  1.5618  0.3171
 4188TIP3   OH212502   8.022   2.915   0.777 -0.1152 -0.7143  0.2874
 4188TIP3    H112503   7.953   2.871   0.727  1.9710 -2.2699 -1.3569
 4188TIP3    H212504   8.017   2.877   0.865 -0.8828 -1.3622 -0.0351
 4189TIP3   OH212505   8.132   3.483   0.278 -0.2720 -0.1770  0.1486
 4189TIP3    H112506   8.065   3.479   0.347  1.0853  1.3791  1.6175
 4189TIP3    H212507   8.117   3.568   0.236 -1.7672 -1.5572 -2.2621
 4190TIP3   OH212508   7.387   4.323   2.765 -0.3114 -0.0902 -0.1304
 4190TIP3    H112509   7.351   4.389   2.825 -0.5796 -2.1629  2.0540
 4190TIP3    H212510   7.454   4.371   2.715 -1.2141  2.0871  0.6817
 4191TIP3   OH212511   8.284   2.306   2.204  0.5725  0.4431 -0.5024
 4191TIP3    H112512   8.325   2.224   2.177 -0.4110 -0.2915  0.2144
 4191TIP3    H212513   8.211   2.318   2.143  0.0259  0.1925  0.0895
 4192TIP3   OH212514   6.917   2.673   1.074 -0.4041  0.1512 -0.0606
 4192TIP3    H112515   6.881   2.609   1.014  0.2737  1.2891 -1.7260
 4192TIP3    H212516   6.841   2.724   1.104 -0.9099 -1.2635  1.1001
 4193TIP3   OH212517   7.885   7.486   3.010 -0.0767 -0.4225  0.1114
 4193TIP3    H112518   7.812   7.428   2.991  0.5616 -0.7477 -1.3624
 4193TIP3    H212519   7.846   7.558   3.061 -1.8034  0.4133 -2.2868
 4194TIP3   OH212520   7.720   7.623   2.689  0.0798  0.4526 -1.0110
 4194TIP3    H112521   7.674   7.613   2.772  1.2569 -0.5916 -0.4684
 4194TIP3    H212522   7.709   7.715   2.666  0.2633  0.8964  0.6269
 4195TIP3   OH212523   0.502   7.331   2.726  0.1948  0.5089  0.5387
 4195TIP3    H112524   0.509   7.259   2.789  2.5269  0.9745  0.8682
 4195TIP3    H212525   0.409   7.340   2.710 -0.2802 -1.1038  2.2309
 4196TIP3   OH212526   7.960   5.405   2.621 -0.2868 -0.5058 -0.3515
 4196TIP3    H112527   7.909   5.455   2.558 -2.6648 -1.3311  0.8171
 4196TIP3    H212528   7.984   5.468   2.689  0.1085 -0.1328 -0.8433
 4197TIP3   OH212529   1.005   5.926   2.161 -0.3405  0.0550  0.0445
 4197TIP3    H112530   0.986   6.020   2.169  2.7657  0.5656  2.7570
 4197TIP3    H212531   0.947   5.885   2.225  1.3603  0.6480  2.0189
 4198TIP3   OH212532   6.498   6.034   1.566 -0.3209 -0.2875 -0.0416
 4198TIP3    H112533   6.574   6.027   1.624 -0.9692 -0.7250  0.7713
 4198TIP3    H212534   6.425   6.004   1.620 -1.7075  3.6991  0.4188
 4199TIP3   OH212535   0.582   4.339   4.510  0.3697 -0.8512 -0.1515
 4199TIP3    H112536   0.655   4.313   4.567  0.0327 -1.5420 -0.0329
 4199TIP3    H212537   0.576   4.268   4.446  2.2934  1.0322 -2.5308
 4200TIP3   OH212538   4.910   6.774   4.357 -0.3625 -0.3609 -0.3752
 4200TIP3    H112539   4.942   6.816   4.277 -1.3572  1.0816 -0.0396
 4200TIP3    H212540   4.940   6.684   4.351  3.1371  0.7392 -0.4295
 4201TIP3   OH212541   7.249   4.489   3.929 -0.1080  0.1217 -0.1121
 4201TIP3    H112542   7.248   4.401   3.965 -0.0763 -0.0489 -0.5308
 4201TIP3    H212543   7.328   4.529   3.966  1.3949 -0.9321 -2.0892
 4202TIP3   OH212544   2.125   6.364   2.347  0.2607  1.0172  0.1843
 4202TIP3    H112545   2.108   6.271   2.358 -1.2216  1.3524  0.9069
 4202TIP3    H212546   2.060   6.393   2.283  0.2881  1.6866  0.4568
 4203TIP3   OH212547   8.298   4.797   4.389  0.4550  0.8181 -0.8652
 4203TIP3    H112548   8.252   4.789   4.472  0.7526  0.3426 -0.7417
 4203TIP3    H212549   8.382   4.838   4.412  0.7290  0.2587 -0.8632
 4204TIP3   OH212550   7.619   6.090   3.314  0.1577  0.2250  0.2264
 4204TIP3    H112551   7.646   6.086   3.222 -0.8055  0.3760 -0.0731
 4204TIP3    H212552   7.668   6.020   3.357 -2.6521 -2.8076 -1.2803
 4205TIP3   OH212553   2.878   0.571   4.186 -0.0859 -0.5302  0.7093
 4205TIP3    H112554   2.908   0.594   4.098 -1.4742  0.4186  0.4703
 4205TIP3    H212555   2.821   0.496   4.173 -1.5776  0.6075  0.5966
 4206TIP3   OH212556   1.202   4.452   4.473  0.1495  0.2220  0.5470
 4206TIP3    H112557   1.207   4.528   4.530 -1.7692  0.8024 -0.0034
 4206TIP3    H212558   1.174   4.380   4.530  2.6692 -0.2790  1.2119
 4207TIP3   OH212559   7.888   4.206   3.270 -0.2922 -0.0291 -0.0358
 4207TIP3    H112560   7.815   4.180   3.327  1.0788 -2.1058  0.8832
 4207TIP3    H212561   7.858   4.186   3.182 -1.2287  0.1234  0.2408
 4208TIP3   OH212562   7.835   6.250   2.571  0.5462  0.7522 -0.0746
 4208TIP3    H112563   7.821   6.304   2.649 -0.9470  1.6231 -0.9276
 4208TIP3    H212564   7.812   6.307   2.498  0.9533 -0.3865 -1.1007
 4209TIP3   OH212565   0.204   6.701   4.607  0.6019 -0.1976  1.2182
 4209TIP3    H112566   0.169   6.676   4.692 -1.9441 -2.2396 -0.3258
 4209TIP3    H212567   0.224   6.617   4.564  1.5429  0.7881 -0.3146
 4210TIP3   OH212568   5.906   6.353   4.819  0.0236  0.6091  0.5786
 4210TIP3    H112569   5.947   6.289   4.762  0.1777  1.2967 -0.1019
 4210TIP3    H212570   5.941   6.437   4.790 -0.1745  1.0024  1.4523
 4211TIP3   OH212571   8.139   5.140   3.993  0.4783  0.0073  0.1191
 4211TIP3    H112572   8.114   5.210   4.053 -0.0666  0.3484 -0.5107
 4211TIP3    H212573   8.183   5.076   4.049 -0.4697  0.0935  0.9782
 4212TIP3   OH212574   6.664   6.370   4.649  1.0444  0.1194  0.2005
 4212TIP3    H112575   6.659   6.300   4.584  1.8183 -0.4267  0.7169
 4212TIP3    H212576   6.702   6.328   4.727  0.2297  0.7897  0.9667
 4213TIP3   OH212577   7.851   5.843   3.936  0.2175 -0.3328  0.0686
 4213TIP3    H112578   7.826   5.807   3.851 -0.6906  1.3721 -0.4185
 4213TIP3    H212579   7.926   5.899   3.916 -0.5945  0.8294  0.2059
 4214TIP3   OH212580   1.115   6.141   5.199 -0.2738 -0.2507 -0.3290
 4214TIP3    H112581   1.204   6.128   5.231 -0.0015  0.5374 -0.7488
 4214TIP3    H212582   1.124   6.202   5.126 -0.9571 -1.6479 -1.5906
 4215TIP3   OH212583   1.569   3.965   3.872  0.4195 -0.0823  0.0719
 4215TIP3    H112584   1.651   4.011   3.889  0.5895 -0.2911 -0.1779
 4215TIP3    H212585   1.587   3.874   3.892  0.6514 -0.3471 -1.2789
 4216TIP3   OH212586   1.531   6.379   1.277  0.1142  0.0058  0.0315
 4216TIP3    H112587   1.593   6.429   1.330  0.2048 -2.4678  2.4025
 4216TIP3    H212588   1.452   6.375   1.331 -0.5100 -0.8233 -0.9278
 4217TIP3   OH212589   1.661   5.375   3.001 -0.0602 -0.0370  0.1498
 4217TIP3    H112590   1.569   5.379   3.025 -0.1009  1.2166 -0.2107
 4217TIP3    H212591   1.661   5.370   2.905  0.2653  0.9296  0.0940
 4218TIP3   OH212592   7.775   6.115   4.266 -0.0280  0.4139 -0.0404
 4218TIP3    H112593   7.687   6.111   4.228 -0.8286  0.9117  1.7037
 4218TIP3    H212594   7.766   6.074   4.352  1.7732 -0.7718 -0.4065
 4219TIP3   OH212595   2.007   0.914   1.217 -0.1992 -0.3092  0.4463
 4219TIP3    H112596   2.065   0.837   1.215  0.3236  0.1206 -1.5439
 4219TIP3    H212597   1.920   0.879   1.202  0.1113 -0.4621 -1.0512
 4220TIP3   OH212598   8.080   7.054   5.613  0.3452  0.1863  0.1893
 4220TIP3    H112599   8.001   7.058   5.560  0.1751  0.8019  0.4903
 4220TIP3    H212600   8.151   7.040   5.550  0.0589  0.1882 -0.1311
 4221TIP3   OH212601   0.945   5.131   3.373  0.0178  0.3728  0.2049
 4221TIP3    H112602   0.954   5.225   3.356  1.9629  0.2020  0.1869
 4221TIP3    H212603   1.029   5.106   3.411 -0.9132 -1.1394  1.3084
 4222TIP3   OH212604   0.040   3.678   2.519 -0.3912 -0.0846  0.2992
 4222TIP3    H112605   0.123   3.689   2.566  0.1746 -0.2415 -0.6322
 4222TIP3    H212606   0.045   3.742   2.448 -1.1457  0.0153  0.3386
 4223TIP3   OH212607   0.699   4.868   4.725 -0.2620  0.4261 -0.2600
 4223TIP3    H112608   0.772   4.915   4.686  0.0915  0.2744  0.2152
 4223TIP3    H212609   0.681   4.914   4.807  0.8211 -0.9375  0.7588
 4224TIP3   OH212610   7.981   4.627   1.472  0.0891  0.2415 -0.6250
 4224TIP3    H112611   8.007   4.718   1.482  2.2328 -0.5619  1.5614
 4224TIP3    H212612   7.932   4.625   1.390  0.7500  3.1863 -1.1478
 4225TIP3   OH212613   1.124   6.888   1.944  0.3565 -0.3197  0.4578
 4225TIP3    H112614   1.075   6.858   2.020 -2.0258  0.7689 -0.5693
 4225TIP3    H212615   1.135   6.982   1.959  0.2898 -0.1870 -0.2851
 4226TIP3   OH212616   1.140   4.199   2.496 -0.4331  0.3558  0.1580
 4226TIP3    H112617   1.230   4.182   2.468 -0.9453 -0.7119 -0.8860
 4226TIP3    H212618   1.143   4.286   2.534  1.0067  0.4066 -0.0343
 4227TIP3   OH212619   0.261   7.165   4.710 -0.0112 -0.2516 -0.2745
 4227TIP3    H112620   0.313   7.085   4.704 -0.4410 -0.4511 -1.3525
 4227TIP3    H212621   0.272   7.194   4.801 -0.5629 -2.0199  0.3655
 4228TIP3   OH212622   7.108   3.761   3.571 -0.0182  0.0504  0.4912
 4228TIP3    H112623   7.176   3.814   3.613  0.1011  0.3978 -0.1338
 4228TIP3    H212624   7.131   3.670   3.593  0.4349  0.1892  0.5938
 4229TIP3   OH212625   1.248   4.791   3.138 -0.7212  0.1215  0.0740
 4229TIP3    H112626   1.280   4.736   3.067 -0.0066  0.2195  0.3104
 4229TIP3    H212627   1.223   4.873   3.096  0.5947  0.5309  0.0425
 4230TIP3   OH212628   1.871   7.701   6.425  0.7744  0.1813 -0.2187
 4230TIP3    H112629   1.795   7.734   6.376  1.5022  0.8410 -0.9349
 4230TIP3    H212630   1.839   7.688   6.514 -0.4291 -0.4968 -0.7491
 4231TIP3   OH212631   7.863   2.944   3.158 -0.0259 -0.6619  0.7968
 4231TIP3    H112632   7.926   2.922   3.226  0.8339 -1.6079 -0.2824
 4231TIP3    H212633   7.780   2.955   3.204  0.6494 -0.7783  2.0481
 4232TIP3   OH212634   8.462   5.788   3.410  0.0480 -0.4292  0.1161
 4232TIP3    H112635   8.450   5.819   3.320 -0.6620 -0.3807  0.2245
 4232TIP3    H212636   8.374   5.769   3.440  0.1700  0.6185  1.1765
 4233TIP3   OH212637   7.339   7.725   2.341  0.2539  0.3849 -0.0544
 4233TIP3    H112638   7.374   7.768   2.419  0.8861 -0.8509  0.3495
 4233TIP3    H212639   7.295   7.647   2.374 -1.2608  0.9332 -0.7475
 4234TIP3   OH212640   0.514   3.586   0.683 -0.1474  0.0660 -0.1444
 4234TIP3    H112641   0.510   3.527   0.607  0.5625  1.9644 -1.6769
 4234TIP3    H212642   0.607   3.590   0.705 -0.5395 -2.1903  2.2538
 4235TIP3   OH212643   2.588   6.917   2.176 -0.2645 -0.0973  0.4106
 4235TIP3    H112644   2.581   6.979   2.248 -1.2716  0.1132  0.1348
 4235TIP3    H212645   2.675   6.933   2.139  1.0158 -1.4869  2.7310
 4236TIP3   OH212646   7.629   6.177   4.898 -0.3685  0.1260  0.0069
 4236TIP3    H112647   7.703   6.191   4.838 -0.0320 -1.1257  0.1032
 4236TIP3    H212648   7.564   6.242   4.872  0.3629  0.5611 -0.7617
 4237TIP3   OH212649   5.809   5.642   2.201 -0.0040  0.2834  0.5163
 4237TIP3    H112650   5.819   5.726   2.246 -1.1031  1.0960 -0.7076
 4237TIP3    H212651   5.879   5.640   2.136 -0.5630  0.7061 -0.1111
 4238TIP3   OH212652   0.885   6.675   4.267  0.4129  0.2953 -0.5968
 4238TIP3    H112653   0.947   6.643   4.201 -0.3079  0.1731 -1.2242
 4238TIP3    H212654   0.864   6.764   4.240  1.2220  0.7647  0.2840
 4239TIP3   OH212655   1.083   3.726   3.660 -0.4377 -0.3093 -0.1729
 4239TIP3    H112656   1.021   3.791   3.694 -1.1925 -1.3908  0.5505
 4239TIP3    H212657   1.141   3.708   3.735 -0.1883 -0.4137 -0.3922
 4240TIP3   OH212658   0.492   5.626   4.560 -0.3319  0.5090 -0.1373
 4240TIP3    H112659   0.524   5.619   4.650  0.4116  0.7110 -0.3851
 4240TIP3    H212660   0.515   5.715   4.533  1.3027 -0.2183 -1.2315
 4241TIP3   OH212661   0.829   5.492   5.379 -0.3915  0.7495  0.0855
 4241TIP3    H112662   0.759   5.504   5.316  0.2630 -0.3887 -0.8868
 4241TIP3    H212663   0.792   5.434   5.446  0.2799 -1.6291 -1.5560
 4242TIP3   OH212664   1.610   5.942   2.426  0.3965 -0.9237  0.1406
 4242TIP3    H112665   1.536   5.971   2.479 -0.0796 -1.6892 -0.1006
 4242TIP3    H212666   1.571   5.914   2.343  1.1304  0.1959 -0.5884
 4243TIP3   OH212667   0.475   5.981   3.046 -0.2659  0.1270  0.2453
 4243TIP3    H112668   0.497   6.070   3.074 -0.0174 -0.0945  0.7615
 4243TIP3    H212669   0.384   5.969   3.072 -0.3096  0.2432  0.1447
 4244TIP3   OH212670   8.381   7.314   3.568 -0.0618  0.1806 -0.8194
 4244TIP3    H112671   8.418   7.226   3.561  1.1168  0.5649  0.3490
 4244TIP3    H212672   8.360   7.338   3.478 -1.5080 -1.7427 -1.0277
 4245TIP3   OH212673   6.344   6.271   2.403 -0.3814  0.0552  0.0589
 4245TIP3    H112674   6.281   6.330   2.444  0.2056  0.6282  0.1406
 4245TIP3    H212675   6.329   6.280   2.309  0.1758  0.8586  0.0421
 4246TIP3   OH212676   8.288   6.732   3.268  0.7177 -0.5865  0.3405
 4246TIP3    H112677   8.266   6.808   3.322  0.9432  0.0744 -0.4889
 4246TIP3    H212678   8.377   6.709   3.295  1.0965  0.1769 -0.2400
 4247TIP3   OH212679   7.518   7.471   4.177  0.3521 -0.6798 -0.2064
 4247TIP3    H112680   7.575   7.516   4.239 -0.9954  1.0545 -0.1835
 4247TIP3    H212681   7.464   7.414   4.232 -0.4264  0.4071  0.1829
 4248TIP3   OH212682   0.319   3.819   2.237  0.4028 -0.0719 -0.1121
 4248TIP3    H112683   0.339   3.829   2.145  0.7369  1.9399  0.1704
 4248TIP3    H212684   0.365   3.739   2.264 -0.9346 -1.5295 -2.0085
 4249TIP3   OH212685   0.383   3.687   3.005  0.1181  0.4883  0.3321
 4249TIP3    H112686   0.474   3.714   2.993 -0.0404  1.2063  0.7003
 4249TIP3    H212687   0.380   3.652   3.094 -0.0279  0.7249  0.4203
 4250TIP3   OH212688   7.907   3.919   0.969  0.1332  0.6021 -0.1754
 4250TIP3    H112689   7.844   3.981   0.932 -0.6880 -0.3738 -0.4577
 4250TIP3    H212690   7.987   3.969   0.982 -0.7643  1.9207  0.3660
 4251TIP3   OH212691   0.499   5.140   1.708  0.0323 -0.3518  0.2317
 4251TIP3    H112692   0.445   5.071   1.669  0.1782  1.3645 -3.1700
 4251TIP3    H212693   0.589   5.110   1.696  0.1233  0.6677 -1.8375
 4252TIP3   OH212694   1.521   5.023   2.324 -0.0844 -0.3882 -0.2267
 4252TIP3    H112695   1.473   4.941   2.337  0.4141 -0.4892  1.0777
 4252TIP3    H212696   1.613   4.998   2.331  0.0774  0.2328 -0.1128
 4253TIP3   OH212697   1.272   5.789   3.169 -0.0892 -0.0218 -0.0807
 4253TIP3    H112698   1.188   5.818   3.133 -1.0084 -1.5581  0.8056
 4253TIP3    H212699   1.280   5.839   3.251 -0.7767 -0.8488  0.4995
 4254TIP3   OH212700   1.686   7.027   4.383  0.2938 -0.0162 -0.2670
 4254TIP3    H112701   1.657   6.947   4.426  1.1571  0.5313  1.4125
 4254TIP3    H212702   1.622   7.043   4.314  0.6866 -2.7020 -1.3209
 4255TIP3   OH212703   7.068   4.972   4.958  0.2943  0.1657 -0.2380
 4255TIP3    H112704   7.040   4.914   5.029  0.0503  0.1847 -0.3178
 4255TIP3    H212705   7.156   4.941   4.934  0.4582  0.2897  0.2087
 4256TIP3   OH212706   1.965   0.456   0.638  0.2798  0.1577 -0.0015
 4256TIP3    H112707   1.982   0.427   0.728 -0.2559  0.2411  0.1243
 4256TIP3    H212708   1.989   0.549   0.638  0.5715  0.0854 -0.0272
 4257TIP3   OH212709   0.036   6.347   2.750  0.0877 -0.5664  0.2716
 4257TIP3    H112710  -0.007   6.432   2.742  0.0279 -0.5249  0.9860
 4257TIP3    H212711  -0.026   6.285   2.712 -0.3192 -0.4222  0.6981
 4258TIP3   OH212712   1.707   4.327   3.665 -0.0717 -0.8673  0.0669
 4258TIP3    H112713   1.657   4.288   3.594 -1.6196 -2.0305  1.7371
 4258TIP3    H212714   1.764   4.257   3.696 -0.0521 -0.6519  0.5306
 4259TIP3   OH212715   7.945   6.500   4.384  0.0090 -0.5153  0.5304
 4259TIP3    H112716   7.871   6.545   4.341  0.2244 -1.1556 -0.5250
 4259TIP3    H212717   8.010   6.490   4.314  0.0846 -2.2032  0.8262
 4260TIP3   OH212718   8.307   5.367   2.657 -0.2990 -0.5111 -0.0248
 4260TIP3    H112719   8.366   5.305   2.701  0.1640 -1.0916 -1.4285
 4260TIP3    H212720   8.366   5.432   2.619 -0.8249  1.1947  2.0065
 4261TIP3   OH212721   8.147   5.406   3.531 -0.7319 -0.4822 -0.3836
 4261TIP3    H112722   8.126   5.323   3.489 -0.2077 -0.5589 -0.5009
 4261TIP3    H212723   8.243   5.406   3.538 -0.6260  0.6801 -1.5760
 4262TIP3   OH212724   0.285   7.674   3.437 -0.1310 -0.1431  0.4653
 4262TIP3    H112725   0.379   7.690   3.428 -0.3619  0.4527 -0.9591
 4262TIP3    H212726   0.279   7.599   3.496  1.2470 -0.4216  0.2640
 4263TIP3   OH212727   6.615   6.972   2.838 -0.0329  0.2483  0.0164
 4263TIP3    H112728   6.575   6.901   2.889  0.7610  0.4278  0.9083
 4263TIP3    H212729   6.644   6.931   2.757 -1.0290 -0.1068 -0.1691
 4264TIP3   OH212730   2.982   3.997   2.414  0.3133  0.5389 -0.1153
 4264TIP3    H112731   3.070   3.993   2.375  0.7074 -0.9082  0.8897
 4264TIP3    H212732   2.931   3.934   2.364  0.1199  0.6336 -0.0356
 4265TIP3   OH212733   0.838   3.836   3.748 -0.3165  0.0772  0.4597
 4265TIP3    H112734   0.750   3.798   3.748  0.1000 -0.9481 -0.7782
 4265TIP3    H212735   0.824   3.930   3.750 -1.5181 -0.0025 -2.2655
 4266TIP3   OH212736   1.391   5.690   2.740 -0.0576  0.2842  0.2286
 4266TIP3    H112737   1.306   5.652   2.719 -0.9178  3.3420 -2.2691
 4266TIP3    H212738   1.377   5.738   2.821  0.3212 -2.2142  1.8480
 4267TIP3   OH212739   1.006   4.976   3.114  0.1249 -0.0248  0.7817
 4267TIP3    H112740   0.930   5.032   3.097  0.8947  1.0443  0.8005
 4267TIP3    H212741   0.977   4.916   3.183 -1.2954 -0.8582 -0.5235
 4268TIP3   OH212742   1.181   4.078   4.886 -0.5088  0.8640  0.0618
 4268TIP3    H112743   1.135   3.999   4.917 -0.8975  0.9054 -0.4103
 4268TIP3    H212744   1.274   4.055   4.893 -0.6038  0.6540  0.6897
 4269TIP3   OH212745   0.813   2.762   3.886  0.6622  0.0618 -0.2817
 4269TIP3    H112746   0.833   2.785   3.795 -0.1029  2.1565  0.0432
 4269TIP3    H212747   0.861   2.681   3.902  1.1044 -0.1255 -2.4369
 4270TIP3   OH212748   0.892   6.433   3.707 -0.0933  0.3907 -0.1952
 4270TIP3    H112749   0.828   6.481   3.655 -0.5259  1.9790  1.7420
 4270TIP3    H212750   0.846   6.355   3.737 -0.6385  0.7346 -0.1245
 4271TIP3   OH212751   0.789   6.929   4.217 -0.1443  0.1201  0.3832
 4271TIP3    H112752   0.804   7.020   4.240 -1.2244  0.3513  0.2134
 4271TIP3    H212753   0.713   6.903   4.269  0.9120 -1.0648  1.3818
 4272TIP3   OH212754   0.807   4.724   3.506 -0.3073 -0.3650 -0.3766
 4272TIP3    H112755   0.886   4.755   3.551 -0.2778 -2.2518  0.8956
 4272TIP3    H212756   0.792   4.789   3.437  1.8270  0.5175 -0.0430
 4273TIP3   OH212757   2.631   7.726   0.239  0.0257 -0.6524 -0.2326
 4273TIP3    H112758   2.535   7.730   0.235  0.1017  2.1825 -0.3457
 4273TIP3    H212759   2.652   7.725   0.332 -0.0583  2.9124 -0.1140
 4274TIP3   OH212760   2.406   0.472   4.674  0.2866 -0.3132 -0.1957
 4274TIP3    H112761   2.432   0.451   4.584  0.2135 -0.0233 -0.2853
 4274TIP3    H212762   2.326   0.420   4.688  1.3524 -1.8389  0.3636
 4275TIP3   OH212763   1.381   7.202   2.576 -0.7100 -0.7583  0.4138
 4275TIP3    H112764   1.303   7.154   2.605  0.3973 -1.6093  2.0459
 4275TIP3    H212765   1.346   7.277   2.527 -2.5230 -1.6991  0.2216
 4276TIP3   OH212766   0.186   5.508   2.878  0.4130  0.1245 -0.3382
 4276TIP3    H112767   0.245   5.584   2.878  1.2021 -0.4746  0.9554
 4276TIP3    H212768   0.140   5.515   2.961  0.1174 -0.5383 -0.4521
 4277TIP3   OH212769   6.959   5.935   4.058  0.3960 -0.9129  0.1683
 4277TIP3    H112770   6.895   5.887   4.006  1.4148 -1.4229 -0.6477
 4277TIP3    H212771   7.032   5.950   3.998  0.3234  1.1944  0.5626
 4278TIP3   OH212772   7.642   4.151   3.383 -0.5593 -0.1578  0.0894
 4278TIP3    H112773   7.615   4.236   3.418 -1.2853 -0.6512  0.7332
 4278TIP3    H212774   7.633   4.091   3.456  1.4988 -0.5062  0.0892
 4279TIP3   OH212775   0.508   5.607   3.713 -0.3209 -0.2543 -0.3063
 4279TIP3    H112776   0.528   5.520   3.679 -2.2863 -1.1699  0.8238
 4279TIP3    H212777   0.413   5.611   3.716 -0.2409  1.5175  0.7243
 4280TIP3   OH212778   0.258   7.684   3.801  0.3247 -0.0974 -0.1393
 4280TIP3    H112779   0.298   7.752   3.747  0.3391  0.2491  0.3043
 4280TIP3    H212780   0.240   7.613   3.740 -1.1493  0.9124 -0.9274
 4281TIP3   OH212781   2.449   7.782   3.596  0.2026  0.4580  0.0063
 4281TIP3    H112782   2.512   7.731   3.648  3.1653  2.3548 -1.5571
 4281TIP3    H212783   2.470   7.760   3.505 -0.2749  2.3797 -0.5858
 4282TIP3   OH212784   0.444   3.123   4.433  0.3397 -0.1722  0.0021
 4282TIP3    H112785   0.366   3.126   4.488  0.7527 -0.3231  0.5882
 4282TIP3    H212786   0.411   3.098   4.346 -0.2552 -0.2881  0.2630
 4283TIP3   OH212787   0.151   6.932   3.149  0.1551 -0.0603 -0.5522
 4283TIP3    H112788   0.133   6.838   3.139 -1.7098  0.4451 -2.2120
 4283TIP3    H212789   0.115   6.954   3.235  0.0695 -0.7472 -0.4110
 4284TIP3   OH212790   6.903   3.431   0.484  0.3357  0.3417  0.1476
 4284TIP3    H112791   6.888   3.354   0.429  1.4316  0.9357 -1.0216
 4284TIP3    H212792   6.965   3.484   0.434 -2.0826  3.0562 -0.1056
 4285TIP3   OH212793   8.200   7.309   2.720  0.3058 -0.1824  0.4921
 4285TIP3    H112794   8.155   7.378   2.769  0.3169 -0.5902  1.0759
 4285TIP3    H212795   8.178   7.228   2.766  0.2070 -0.5856 -0.2556
 4286TIP3   OH212796   0.903   3.440   3.845 -0.4525  0.4336  0.9728
 4286TIP3    H112797   0.831   3.466   3.787 -0.2458 -0.4142  0.3175
 4286TIP3    H212798   0.896   3.498   3.920 -2.0581  0.1383  1.0774
 4287TIP3   OH212799   0.442   6.879   3.070 -1.0062 -0.2451 -0.2696
 4287TIP3    H112800   0.470   6.790   3.049  1.6731  0.3035  0.7540
 4287TIP3    H212801   0.374   6.868   3.137  0.5912 -1.4732  1.1879
 4288TIP3   OH212802   7.681   3.203   3.006  0.2853  0.5171  0.1701
 4288TIP3    H112803   7.669   3.205   2.911  0.9983 -1.9025 -0.0024
 4288TIP3    H212804   7.645   3.118   3.033  1.4492  0.5406  1.8502
 4289TIP3   OH212805   8.350   6.467   2.045 -0.2935  0.4503 -0.4474
 4289TIP3    H112806   8.366   6.407   2.118 -0.8863  0.3942 -0.3675
 4289TIP3    H212807   8.412   6.438   1.977  0.9243  1.0959  0.3640
 4290TIP3   OH212808   8.123   7.551   3.361  0.0867 -0.0075 -0.3188
 4290TIP3    H112809   8.215   7.525   3.351  0.8663  2.0835  0.9601
 4290TIP3    H212810   8.109   7.617   3.293  0.2285  1.3432  0.9343
 4291TIP3   OH212811   8.237   6.256   3.537 -0.0549 -0.3820 -0.0494
 4291TIP3    H112812   8.286   6.207   3.471 -1.0533 -1.6594  0.1445
 4291TIP3    H212813   8.203   6.332   3.489 -0.2013 -0.9419 -0.8591
 4292TIP3   OH212814   1.014   6.391   4.719 -0.2517  0.3821 -0.1563
 4292TIP3    H112815   0.939   6.449   4.709  0.1653  0.9644  0.0586
 4292TIP3    H212816   1.085   6.436   4.674  0.0794  0.0341  0.0107
 4293TIP3   OH212817   7.817   7.240   4.175 -0.2959  0.3569  0.5766
 4293TIP3    H112818   7.810   7.188   4.094 -1.2383  1.9206 -0.3697
 4293TIP3    H212819   7.908   7.268   4.177 -1.0916  3.3995 -1.9381
 4294TIP3   OH212820   7.412   6.380   4.742 -0.5478  0.1732 -0.4434
 4294TIP3    H112821   7.455   6.446   4.688 -0.1937  1.0734  0.9150
 4294TIP3    H212822   7.421   6.299   4.692 -1.2410  1.1738 -2.2660
 4295TIP3   OH212823   0.936   6.235   4.154  0.4172  0.7778 -0.1228
 4295TIP3    H112824   0.924   6.272   4.242 -0.8419 -0.0120  0.0518
 4295TIP3    H212825   0.899   6.147   4.161  0.7144  0.5578 -1.3315
 4296TIP3   OH212826   0.621   5.852   2.209  0.2525  0.0255 -0.0886
 4296TIP3    H112827   0.619   5.945   2.184  3.8399 -0.0683 -1.0397
 4296TIP3    H212828   0.705   5.841   2.254 -0.9867 -2.3824  1.7386
 4297TIP3   OH212829   1.514   3.290   3.659  0.4829  0.1387 -0.8338
 4297TIP3    H112830   1.496   3.234   3.735 -0.4887  0.1721 -1.0304
 4297TIP3    H212831   1.585   3.347   3.688  0.1186  0.1532  0.0546
 4298TIP3   OH212832   0.245   4.166   2.801  0.2514  0.1062  0.0950
 4298TIP3    H112833   0.328   4.118   2.802  0.4022  0.3378 -0.5874
 4298TIP3    H212834   0.268   4.255   2.826  0.0864 -0.0049  0.6478
 4299TIP3   OH212835   1.915   1.721   0.218  0.2990 -0.0991  0.3004
 4299TIP3    H112836   1.950   1.632   0.216  0.0635 -0.1889  0.2501
 4299TIP3    H212837   1.845   1.719   0.282  0.3005  0.0545  0.3082
 4300TIP3   OH212838   1.430   5.248   2.453  0.5191 -0.1325  0.3350
 4300TIP3    H112839   1.485   5.186   2.407  0.4567  0.1133 -0.0716
 4300TIP3    H212840   1.459   5.334   2.422 -0.4136 -0.0209 -0.2408
 4301TIP3   OH212841   0.306   4.927   2.763  0.2260  0.0555  0.3073
 4301TIP3    H112842   0.279   4.936   2.671 -0.0459 -0.6980  0.3126
 4301TIP3    H212843   0.277   5.008   2.805 -0.1530  0.1535 -0.1456
 4302TIP3   OH212844   8.172   7.215   2.363  0.2083 -0.4561 -0.0458
 4302TIP3    H112845   8.147   7.245   2.451  1.0547 -1.7622  0.6512
 4302TIP3    H212846   8.139   7.125   2.358 -0.4341 -0.1648 -1.3278
 4303TIP3   OH212847   0.770   2.987   3.196  0.2361  0.5526 -0.1712
 4303TIP3    H112848   0.775   3.055   3.129 -1.1881  0.9582  0.1350
 4303TIP3    H212849   0.745   2.908   3.148 -0.6959  0.8237 -0.1231
 4304TIP3   OH212850   1.019   7.112   3.801 -0.2015  0.6072 -0.5076
 4304TIP3    H112851   1.082   7.159   3.856  0.9414 -0.3473 -0.9734
 4304TIP3    H212852   0.991   7.037   3.855  0.7170 -0.1801 -1.1163
 4305TIP3   OH212853   4.897   7.904   1.961  0.1260 -0.2759  0.2608
 4305TIP3    H112854   4.985   7.872   1.980 -1.1563 -3.3062  1.4731
 4305TIP3    H212855   4.852   7.829   1.922 -1.1663  2.0371 -2.9093
 4306TIP3   OH212856   1.940   4.758   1.268 -0.2308  0.2537 -0.2441
 4306TIP3    H112857   1.874   4.702   1.308 -0.2748  0.0618 -0.5786
 4306TIP3    H212858   1.988   4.700   1.209  1.3621 -0.0117  1.2646
 4307TIP3   OH212859   1.554   4.726   1.714 -0.2205  0.4615  0.5353
 4307TIP3    H112860   1.479   4.762   1.762 -1.7539 -2.0944  0.1335
 4307TIP3    H212861   1.523   4.720   1.623  0.9158  0.5218  0.1320
 4308TIP3   OH212862   1.253   6.497   4.653  0.1208 -0.4329  0.1281
 4308TIP3    H112863   1.295   6.571   4.696 -0.4249  0.4378 -0.8220
 4308TIP3    H212864   1.315   6.472   4.584 -0.4533  0.2082 -0.6240
 4309TIP3   OH212865   1.952   6.049   3.782 -0.6462  0.7118  0.5224
 4309TIP3    H112866   1.956   5.956   3.757 -0.5769  0.3294  1.8987
 4309TIP3    H212867   2.043   6.079   3.775 -0.5078  0.4161  0.9628
 4310TIP3   OH212868   7.537   7.556   0.715  0.1612  0.5632  0.0197
 4310TIP3    H112869   7.500   7.586   0.798 -1.5409  0.5046 -0.7067
 4310TIP3    H212870   7.543   7.635   0.661  0.0092  0.3700 -0.2792
 4311TIP3   OH212871   0.086   6.104   1.192 -0.4875 -0.3114  0.1353
 4311TIP3    H112872   0.034   6.072   1.265 -0.9539  1.0234  0.4166
 4311TIP3    H212873   0.033   6.085   1.114  1.4575 -4.7587 -0.2719
 4312TIP3   OH212874   3.416   6.064   3.178 -0.1279  0.0136  0.5799
 4312TIP3    H112875   3.432   5.994   3.242 -1.9118 -0.0222  0.9981
 4312TIP3    H212876   3.413   6.144   3.230 -1.0174  0.0523  0.4776
 4313TIP3   OH212877   1.509   5.450   0.265 -0.3742  0.0073  0.1243
 4313TIP3    H112878   1.598   5.430   0.236 -0.0748  0.9636  0.3389
 4313TIP3    H212879   1.521   5.504   0.343 -1.1554 -0.6161  0.6826
 4314TIP3   OH212880   0.720   4.834   3.762  0.9057  0.2954  0.0760
 4314TIP3    H112881   0.813   4.858   3.764  0.5815  1.5117  2.8143
 4314TIP3    H212882   0.700   4.808   3.852 -0.4808 -3.7927 -1.2997
 4315TIP3   OH212883   2.142   7.940   0.944 -0.6742 -0.5552 -0.1779
 4315TIP3    H112884   2.108   7.880   0.877 -1.4878 -1.4417  1.0023
 4315TIP3    H212885   2.158   7.884   1.020 -1.7129  0.7486  1.0355
 4316TIP3   OH212886   0.433   6.255   2.374 -0.4626 -0.6525 -0.1378
 4316TIP3    H112887   0.527   6.272   2.383 -0.7941  2.1084 -1.6063
 4316TIP3    H212888   0.421   6.233   2.282 -1.7455  2.5264 -0.7736
 4317TIP3   OH212889   1.441   6.272   2.047  0.5436 -0.0480 -0.0333
 4317TIP3    H112890   1.493   6.193   2.060  1.0474  0.2294 -0.3426
 4317TIP3    H212891   1.420   6.272   1.954 -0.3495 -0.3619  0.1595
 4318TIP3   OH212892   1.097   5.923   2.691 -0.5723 -0.1323  0.5342
 4318TIP3    H112893   1.031   5.895   2.627  0.8394  0.5365 -1.2826
 4318TIP3    H212894   1.054   5.990   2.743 -1.0439  0.9683 -1.2477
 4319TIP3   OH212895   3.341   0.507   5.164  0.3055  0.2276  0.7065
 4319TIP3    H112896   3.303   0.428   5.202  1.8360 -0.2561  1.2723
 4319TIP3    H212897   3.322   0.575   5.228  0.1714  0.0443  0.8634
 4320TIP3   OH212898   2.741   5.661   1.830 -0.0685  0.6365  0.4546
 4320TIP3    H112899   2.735   5.625   1.918 -1.5925  0.2945  0.2295
 4320TIP3    H212900   2.784   5.746   1.841 -0.1874  0.5652  1.5059
 4321TIP3   OH212901   1.550   7.065   4.135 -0.1433 -0.3470 -0.4689
 4321TIP3    H112902   1.464   7.074   4.176 -0.7703  1.4960 -2.0632
 4321TIP3    H212903   1.532   7.025   4.050  0.2847  1.7933 -1.6164
 4322TIP3   OH212904   7.616   6.526   3.262 -0.3351  0.2898 -0.1939
 4322TIP3    H112905   7.558   6.458   3.298 -0.0857 -0.7839 -1.7772
 4322TIP3    H212906   7.566   6.565   3.190  1.0083 -0.8882 -1.8084
 4323TIP3   OH212907   2.037   6.576   3.138 -0.1267  0.4196  0.0787
 4323TIP3    H112908   2.052   6.482   3.135 -1.7084  0.1138  0.9140
 4323TIP3    H212909   1.992   6.595   3.055  0.8293  0.5586 -0.4055
 4324TIP3   OH212910   1.637   4.640   2.004 -0.2207  0.1916 -0.2571
 4324TIP3    H112911   1.641   4.677   1.916  0.6158  0.8197  0.0299
 4324TIP3    H212912   1.576   4.567   1.998 -1.9229  1.6383 -0.8452
 4325TIP3   OH212913   0.363   5.935   2.674  0.4313 -0.0341  0.3395
 4325TIP3    H112914   0.381   5.867   2.739 -0.1299 -1.1791 -0.6990
 4325TIP3    H212915   0.351   6.015   2.726  2.2989 -0.4722  1.4834
 4326TIP3   OH212916   1.336   7.357   0.959 -0.0550 -0.1054  0.4425
 4326TIP3    H112917   1.363   7.359   1.051  1.1132  0.9337  0.0973
 4326TIP3    H212918   1.405   7.406   0.913 -0.5891 -0.6794 -0.9932
 4327TIP3   OH212919   0.055   5.965   1.691  0.0619 -0.5053  0.5762
 4327TIP3    H112920  -0.006   5.912   1.639  0.5034 -0.9487  0.5134
 4327TIP3    H212921   0.138   5.961   1.643  0.0228  0.4895  0.4136
 4328TIP3   OH212922   8.196   5.615   3.280  0.1430  0.6606 -0.1319
 4328TIP3    H112923   8.113   5.663   3.281 -0.6501 -0.7008  0.2797
 4328TIP3    H212924   8.195   5.562   3.360  1.2890  0.4218 -0.2543
 4329TIP3   OH212925   3.505   3.652   0.952 -0.3510  0.2223  0.2153
 4329TIP3    H112926   3.524   3.641   1.045 -0.6723  0.9519  0.3760
 4329TIP3    H212927   3.588   3.681   0.914 -0.4179  0.7059  0.4231
 4330TIP3   OH212928   1.014   1.730   3.123 -0.0388  0.1294 -0.1329
 4330TIP3    H112929   1.020   1.730   3.028 -1.1775 -0.2137 -0.2062
 4330TIP3    H212930   0.999   1.639   3.147  1.0522  0.0826  0.4443
 4331TIP3   OH212931   1.312   7.947   2.104  0.0809 -0.2060  0.1317
 4331TIP3    H112932   1.342   7.960   2.014 -1.4360 -1.1003 -0.5371
 4331TIP3    H212933   1.355   8.016   2.154  0.1862  0.9073 -1.4433
 4332TIP3   OH212934   1.130   6.522   2.265 -0.2649  0.1403 -0.8485
 4332TIP3    H112935   1.175   6.523   2.181 -0.4527  0.6971 -0.9423
 4332TIP3    H212936   1.120   6.429   2.286  1.2241  0.0029 -0.6667
 4333TIP3   OH212937   4.319   0.148   2.811 -0.4797 -0.0959  0.3604
 4333TIP3    H112938   4.377   0.100   2.751 -1.4393 -1.0068  0.1585
 4333TIP3    H212939   4.274   0.211   2.754 -2.3556 -1.8303 -0.1559
 4334TIP3   OH212940   1.800   6.201   0.968  0.2555  0.0914  0.0611
 4334TIP3    H112941   1.865   6.134   0.987  1.6546  1.5769  0.5631
 4334TIP3    H212942   1.736   6.192   1.039 -0.9438 -2.3501 -1.2372
 4335TIP3   OH212943   0.651   5.676   0.841  0.8489  0.2585 -0.3327
 4335TIP3    H112944   0.664   5.581   0.846  0.4780  0.1080 -2.0440
 4335TIP3    H212945   0.558   5.688   0.858  0.8340  0.2950 -0.4430
 4336TIP3   OH212946   0.731   6.279   1.675  0.0322 -0.2278 -0.1190
 4336TIP3    H112947   0.677   6.355   1.655  0.0143 -0.4127 -0.7866
 4336TIP3    H212948   0.697   6.210   1.618  0.5371 -0.5307 -0.0546
 4337TIP3   OH212949   1.854   5.974   1.667 -0.0093  0.5753 -0.5719
 4337TIP3    H112950   1.796   5.900   1.684  1.9708 -1.2141 -1.4029
 4337TIP3    H212951   1.818   6.016   1.589 -0.9766  0.3125 -0.2643
 4338TIP3   OH212952   1.634   4.417   2.682  0.3903  0.2288  0.3362
 4338TIP3    H112953   1.631   4.438   2.589 -0.4295  0.9014  0.5068
 4338TIP3    H212954   1.726   4.397   2.699  0.5933  0.3908 -0.5603
 4339TIP3   OH212955   0.497   4.166   2.733  0.6282  0.6910  0.3292
 4339TIP3    H112956   0.550   4.096   2.696 -0.9893 -0.0868 -0.5852
 4339TIP3    H212957   0.548   4.246   2.719  1.2725  0.0370 -1.0728
 4340TIP3   OH212958   2.195   6.313   4.009  0.0665  0.4272  0.5134
 4340TIP3    H112959   2.222   6.255   3.937  0.4648  1.7009 -0.3776
 4340TIP3    H212960   2.193   6.256   4.086  4.0272 -0.0477  0.3556
 4341TIP3   OH212961   1.432   3.957   0.783 -0.7859 -0.1356  0.0651
 4341TIP3    H112962   1.447   4.024   0.717 -1.6841 -2.8702 -3.0524
 4341TIP3    H212963   1.507   3.897   0.774 -2.3612 -2.0688 -0.4780
 4342TIP3   OH212964   6.243   0.108   0.473 -0.5091 -0.3587 -0.3133
 4342TIP3    H112965   6.326   0.130   0.516 -1.0590 -0.0616  0.5998
 4342TIP3    H212966   6.263   0.112   0.380  0.1339  1.1942 -0.1250
 4343TIP3   OH212967   0.179   7.910   1.849  0.3450 -0.0759  0.4491
 4343TIP3    H112968   0.236   7.857   1.905  0.5997 -0.1287  0.1417
 4343TIP3    H212969   0.236   7.977   1.813  0.9188 -1.9574 -2.2699
 4344TIP3   OH212970   3.652   4.085   1.125 -0.0068  0.3631 -0.4316
 4344TIP3    H112971   3.684   4.164   1.080 -2.3932  1.4522 -0.2842
 4344TIP3    H212972   3.677   4.013   1.067  0.9157  1.3537 -1.2887
 4345TIP3   OH212973   2.299   3.184   0.755  0.1815 -0.6060  0.2017
 4345TIP3    H112974   2.215   3.145   0.733  0.0026 -0.3466  0.4159
 4345TIP3    H212975   2.363   3.114   0.743 -0.0568 -0.7778 -0.0428
 4346TIP3   OH212976   1.208   6.319   2.915  0.2324 -0.1064 -0.1325
 4346TIP3    H112977   1.279   6.260   2.938 -0.2684 -0.2291  1.1166
 4346TIP3    H212978   1.129   6.265   2.920  0.0065  0.1237 -1.1275
 4347TIP3   OH212979   5.620   0.137   0.846  0.3622  0.2867 -0.1396
 4347TIP3    H112980   5.692   0.132   0.909  1.8692  0.5456 -1.7980
 4347TIP3    H212981   5.549   0.178   0.895  1.8927  1.5990  1.0562
 4348TIP3   OH212982   1.269   1.953   3.107 -0.5241  0.1209 -0.3223
 4348TIP3    H112983   1.286   2.046   3.093 -1.3203  0.2790 -0.2697
 4348TIP3    H212984   1.177   1.949   3.132 -0.1485 -0.5614  0.9893
 4349TIP3   OH212985   7.503   6.248   2.471 -0.1483  0.0158 -0.1836
 4349TIP3    H112986   7.555   6.170   2.489  0.9258  0.8994  0.5858
 4349TIP3    H212987   7.470   6.275   2.556 -0.7848  0.2247 -0.4946
 4350TIP3   OH212988   1.861   6.937   2.638 -0.7261 -0.0042  0.6309
 4350TIP3    H112989   1.776   6.912   2.675 -0.8900 -1.6610 -0.7970
 4350TIP3    H212990   1.914   6.858   2.643  0.7242  1.0074  1.4463
 4351TIP3   OH212991   7.176   4.107   3.527 -0.0661  0.3088 -0.0615
 4351TIP3    H112992   7.241   4.084   3.593 -0.7604  0.4990  0.6903
 4351TIP3    H212993   7.091   4.091   3.569 -0.5358  1.6651 -0.4456
 4352TIP3   OH212994   8.032   6.312   3.154 -0.1185 -0.3210 -0.4614
 4352TIP3    H112995   8.102   6.264   3.109  0.8732  0.5996  0.0656
 4352TIP3    H212996   8.078   6.378   3.206 -1.3897  0.3072 -0.1087
 4353TIP3   OH212997   1.334   4.347   1.244  0.1744 -0.2966 -0.0429
 4353TIP3    H112998   1.255   4.293   1.241 -0.4501  0.5807  0.1641
 4353TIP3    H212999   1.326   4.405   1.168 -0.6367  1.4699  1.3225
 4354TIP3   OH213000   2.298   5.619   2.115  0.1552 -0.4804 -0.4759
 4354TIP3    H113001   2.255   5.534   2.108  0.1588 -0.4555 -0.8515
 4354TIP3    H213002   2.230   5.682   2.091  0.2592 -0.4073 -0.5829
 4355TIP3   OH213003   7.187   7.148   2.124  0.4185  0.0729  0.6940
 4355TIP3    H113004   7.146   7.086   2.183 -1.7093  1.7124  0.9821
 4355TIP3    H213005   7.149   7.233   2.147  0.6140  0.9618 -2.0713
 4356TIP3   OH213006   8.116   6.575   3.839  0.3147  0.2561  0.0264
 4356TIP3    H113007   8.164   6.574   3.922 -0.9537  1.6060  0.8028
 4356TIP3    H213008   8.028   6.603   3.863 -0.2080  0.1443 -1.7127
 4357TIP3   OH213009   0.230   7.170   1.264  0.1339  0.0360  0.8294
 4357TIP3    H113010   0.224   7.202   1.354 -1.4481 -1.1728  1.1870
 4357TIP3    H213011   0.155   7.209   1.220 -0.1979 -0.9065  0.5466
 4358TIP3   OH213012   5.567   0.844   2.799 -0.1212  0.1894 -0.6516
 4358TIP3    H113013   5.553   0.826   2.706 -1.4100  0.4200 -0.5199
 4358TIP3    H213014   5.578   0.939   2.804  0.6400  0.1010 -0.6495
 4359TIP3   OH213015   1.483   4.379   2.101 -0.2880 -0.4403 -0.1342
 4359TIP3    H113016   1.409   4.424   2.061 -1.1427 -2.0130 -0.3423
 4359TIP3    H213017   1.494   4.421   2.186  0.7810  2.1225 -1.4895
 4360TIP3   OH213018   2.457   4.261   2.065 -0.4891  1.1914  0.2959
 4360TIP3    H113019   2.523   4.259   2.134 -1.3716  0.3052  1.1195
 4360TIP3    H213020   2.407   4.341   2.082  0.3185  1.8442 -0.3064
 4361TIP3   OH213021   7.878   5.996   4.929 -0.7056 -0.5641  0.0277
 4361TIP3    H113022   7.860   5.904   4.910 -1.3853 -0.9675  2.3723
 4361TIP3    H213023   7.792   6.034   4.947 -0.3593  0.3506 -0.2213
 4362TIP3   OH213024   4.555   0.271   3.923 -0.6400  0.1112 -0.1237
 4362TIP3    H113025   4.616   0.290   3.852 -0.9920 -0.2813 -0.5377
 4362TIP3    H213026   4.601   0.209   3.979 -0.1911  0.7641  0.2369
 4363TIP3   OH213027   1.850   7.289   1.599 -0.0006  0.4723  0.7301
 4363TIP3    H113028   1.867   7.299   1.505  3.2165 -3.6204  0.7407
 4363TIP3    H213029   1.778   7.226   1.603  0.4433 -0.0125  1.0331
 4364TIP3   OH213030   2.110   6.318   0.238  0.6629  0.0868 -0.2226
 4364TIP3    H113031   2.035   6.263   0.263 -0.8547  0.3755 -3.8947
 4364TIP3    H213032   2.167   6.259   0.189  1.3346  0.6505 -0.1203
 4365TIP3   OH213033   3.820   0.345   4.008 -0.4397 -0.0221 -0.5796
 4365TIP3    H113034   3.891   0.400   4.040 -2.3366  1.5184  1.1542
 4365TIP3    H213035   3.841   0.329   3.916  2.4703 -0.1810  0.0872
 4366TIP3   OH213036   1.790   7.531   1.405  0.2101  0.3242  0.1135
 4366TIP3    H113037   1.798   7.593   1.332  1.7158 -1.4930 -1.2977
 4366TIP3    H213038   1.870   7.544   1.456 -0.5565  1.1567  1.1245
 4367TIP3   OH213039   2.319   4.922   1.629 -0.4866 -0.1767 -0.3471
 4367TIP3    H113040   2.324   4.923   1.725 -1.3516  3.2261 -0.2691
 4367TIP3    H213041   2.226   4.905   1.611 -0.1840 -1.6320 -0.6500
 4368TIP3   OH213042   1.840   4.350   1.962 -0.1962  0.1121 -0.2474
 4368TIP3    H113043   1.901   4.419   1.935 -0.8019  0.7246 -0.0691
 4368TIP3    H213044   1.780   4.341   1.889  0.1221 -0.5113 -0.4335
 4369TIP3   OH213045   2.385   3.765   4.000  0.4681 -0.0648  0.2927
 4369TIP3    H113046   2.480   3.775   4.005  0.5055  0.6232 -1.2727
 4369TIP3    H213047   2.369   3.747   3.907 -1.0067  0.6010  0.4191
 4370TIP3   OH213048   1.722   4.988   0.346 -0.4033 -0.7627  0.5571
 4370TIP3    H113049   1.788   4.976   0.277 -0.7936  0.8712 -0.1258
 4370TIP3    H213050   1.704   5.082   0.346 -1.5805 -0.9688  1.8187
 4371TIP3   OH213051   0.704   4.969   1.908  0.2050  0.3049  0.1282
 4371TIP3    H113052   0.629   4.947   1.962  0.6487  2.3760  1.6546
 4371TIP3    H213053   0.699   4.908   1.834 -2.9248  0.3468  0.2174
 4372TIP3   OH213054   1.415   6.691   1.100  0.5872  0.0081 -0.0612
 4372TIP3    H113055   1.425   6.781   1.069 -0.3053  0.1656  0.0900
 4372TIP3    H213056   1.484   6.642   1.055  0.3101  0.5412 -1.0808
 4373TIP3   OH213057   1.158   6.021   0.685  0.1356  0.3061  0.2785
 4373TIP3    H113058   1.153   6.112   0.717  3.1321  0.2195  1.1855
 4373TIP3    H213059   1.209   5.975   0.753 -1.0058 -1.9681 -0.3657
 4374TIP3   OH213060   2.091   3.829   4.412  0.1058 -0.0078 -0.8427
 4374TIP3    H113061   2.090   3.734   4.398 -1.4381  0.1330 -1.8053
 4374TIP3    H213062   2.182   3.854   4.400  0.8060 -1.5911  1.0087
 4375TIP3   OH213063   8.125   6.256   1.082 -0.5754 -0.3082 -0.0802
 4375TIP3    H113064   8.077   6.331   1.117 -0.0225  0.9659 -1.9622
 4375TIP3    H213065   8.156   6.285   0.996  0.3944 -2.3979 -0.4786
 4376TIP3   OH213066   6.410   1.705   6.806  0.5341 -0.0004  0.1412
 4376TIP3    H113067   6.474   1.691   6.876  1.7539 -0.2402 -1.0193
 4376TIP3    H213068   6.407   1.800   6.795 -1.5965  0.2485  2.2775
 4377TIP3   OH213069   0.791   2.976   1.009 -0.1001 -0.0636  0.1046
 4377TIP3    H113070   0.829   2.900   1.052 -2.0212 -1.1234  0.0052
 4377TIP3    H213071   0.817   2.967   0.917 -2.6521 -2.1852 -0.4670
 4378TIP3   OH213072   0.545   5.200   2.824  0.3100  0.1177 -0.3765
 4378TIP3    H113073   0.543   5.150   2.906  0.3024 -0.0155 -0.4576
 4378TIP3    H213074   0.635   5.192   2.794 -0.6124 -3.4357 -2.5995
 4379TIP3   OH213075   6.673   1.716   6.058 -0.3550 -0.0508 -0.0589
 4379TIP3    H113076   6.735   1.743   6.126  0.6975 -0.0805 -1.0091
 4379TIP3    H213077   6.704   1.630   6.030 -0.6062  0.0952 -0.7970
 4380TIP3   OH213078   3.089   4.454   3.884  0.0269 -0.7350 -0.0187
 4380TIP3    H113079   3.133   4.429   3.965 -0.0609 -0.3463  0.1492
 4380TIP3    H213080   2.996   4.458   3.907  0.0224 -0.4149 -0.0808
 4381TIP3   OH213081   0.532   5.481   2.824 -0.2899 -0.1047 -0.2753
 4381TIP3    H113082   0.517   5.390   2.852 -0.3755 -0.8068 -2.4976
 4381TIP3    H213083   0.578   5.472   2.740  1.3208  1.9262  0.3760
 4382TIP3   OH213084   1.760   5.176   3.664  0.0830 -0.0625 -0.6971
 4382TIP3    H113085   1.713   5.100   3.629  0.2127 -0.3243 -0.3070
 4382TIP3    H213086   1.852   5.150   3.661 -0.0191 -0.7746  1.4608
 4383TIP3   OH213087   2.606   5.680   1.082  0.0181  0.1357  0.1997
 4383TIP3    H113088   2.645   5.646   1.002 -2.4495 -1.9586 -0.2148
 4383TIP3    H213089   2.517   5.644   1.082 -1.4302  3.4859  1.8056
 4384TIP3   OH213090   1.839   5.608   1.918 -0.0844  0.4716 -0.5121
 4384TIP3    H113091   1.903   5.537   1.909  1.9345  2.4901 -3.0180
 4384TIP3    H213092   1.786   5.584   1.993  3.1113 -1.7076  1.1362
 4385TIP3   OH213093   7.207   6.986   1.371 -0.3791 -0.4593 -0.4359
 4385TIP3    H113094   7.129   7.041   1.362  0.3368  0.7797  0.5975
 4385TIP3    H213095   7.278   7.038   1.333  0.1939 -0.9336 -0.0358
 4386TIP3   OH213096   3.372   6.350   2.527 -0.4859 -0.1943 -0.2608
 4386TIP3    H113097   3.446   6.297   2.496 -0.6159  0.5876 -1.9830
 4386TIP3    H213098   3.375   6.429   2.473 -1.8250  0.4035  0.5238
 4387TIP3   OH213099   3.514   3.222   0.685 -0.4881 -0.6951 -0.4724
 4387TIP3    H113100   3.567   3.254   0.757 -0.0369 -2.0862 -0.1578
 4387TIP3    H213101   3.451   3.291   0.668 -0.0511  0.0004  0.6937
 4388TIP3   OH213102   2.685   6.634   1.721  0.2698 -0.7216 -0.0743
 4388TIP3    H113103   2.593   6.656   1.738  0.3638 -0.8670  0.6225
 4388TIP3    H213104   2.689   6.539   1.732  0.7572 -0.5759  1.0948
 4389TIP3   OH213105   0.986   5.143   3.796 -0.0735  0.3624  0.1062
 4389TIP3    H113106   1.045   5.100   3.858 -0.3563 -0.5808 -0.2642
 4389TIP3    H213107   1.035   5.219   3.765  0.3987  0.3617  0.8403
 4390TIP3   OH213108   2.287   5.934   3.076  0.3881  0.8722 -0.2012
 4390TIP3    H113109   2.372   5.891   3.066 -1.4215 -2.4823 -2.1491
 4390TIP3    H213110   2.251   5.896   3.156 -0.0588  0.8862 -0.3947
 4391TIP3   OH213111   1.672   5.473   3.830 -0.4389 -1.1090 -0.5473
 4391TIP3    H113112   1.667   5.399   3.890 -2.2474  0.0065  0.7565
 4391TIP3    H213113   1.581   5.501   3.819  0.3098  1.8592  0.2296
 4392TIP3   OH213114   1.843   4.955   5.628  0.8499 -0.3750  0.1547
 4392TIP3    H113115   1.807   4.889   5.688  1.8556 -2.4269 -1.4055
 4392TIP3    H213116   1.813   5.039   5.663  0.7578 -1.5594  3.0468
 4393TIP3   OH213117   2.117   4.910   5.519  0.0425 -0.3296 -0.3913
 4393TIP3    H113118   2.029   4.936   5.490  0.8181 -0.1243 -2.6295
 4393TIP3    H213119   2.166   4.895   5.438  2.3585  0.4593  0.8259
 4394TIP3   OH213120   1.913   7.703   3.168  0.0034 -0.1323  0.2248
 4394TIP3    H113121   1.926   7.609   3.160 -1.2784 -0.2669 -0.3693
 4394TIP3    H213122   1.980   7.732   3.230 -0.0826 -1.5372  0.9754
 4395TIP3   OH213123   2.532   4.532   3.662 -0.2193 -0.2443  0.1262
 4395TIP3    H113124   2.460   4.577   3.706  0.3543  0.0448  0.7922
 4395TIP3    H213125   2.507   4.529   3.570 -0.2616  1.4435  0.0714
 4396TIP3   OH213126   3.986   6.202   1.129 -0.3386  0.0834 -0.1850
 4396TIP3    H113127   3.901   6.199   1.084 -0.4673  0.4097  0.0353
 4396TIP3    H213128   4.039   6.137   1.084 -0.9785 -0.7207  0.2194
 4397TIP3   OH213129   2.673   7.043   0.432 -0.1292 -0.5996  0.0678
 4397TIP3    H113130   2.710   6.967   0.386 -0.6163 -0.4482 -0.5854
 4397TIP3    H213131   2.675   7.018   0.524  0.1931 -1.2001 -0.0946
 4398TIP3   OH213132   6.503   7.975   2.793  0.0187  0.1592 -0.1997
 4398TIP3    H113133   6.587   7.930   2.801  0.1710  0.7632  1.6490
 4398TIP3    H213134   6.526   8.068   2.788 -0.3638  0.1711 -2.9808
 4399TIP3   OH213135   7.194   7.052   0.367 -0.3147 -0.3105  0.1202
 4399TIP3    H113136   7.185   7.141   0.332  0.9419 -0.8167 -1.5560
 4399TIP3    H213137   7.254   7.061   0.441 -1.7712  0.5365  1.2155
 4400TIP3   OH213138   0.682   5.377   0.903 -0.1170 -0.3560  0.3023
 4400TIP3    H113139   0.733   5.300   0.881 -1.0315 -1.5146  2.1088
 4400TIP3    H213140   0.621   5.387   0.830 -0.5329 -1.8324  0.4254
 4401TIP3   OH213141   8.183   5.207   4.963  0.0990 -0.0324  0.1050
 4401TIP3    H113142   8.227   5.154   4.896 -0.3808 -1.4303  0.8615
 4401TIP3    H213143   8.136   5.274   4.915  1.8907  0.5891 -0.8045
 4402TIP3   OH213144   6.069   3.123   6.680 -0.1271 -0.3755 -0.1637
 4402TIP3    H113145   6.057   3.217   6.667 -0.3543 -0.3492  0.2552
 4402TIP3    H213146   6.077   3.112   6.774 -0.8421 -0.8701 -0.1601
 4403TIP3   OH213147   1.471   6.754   1.732 -0.1975  0.0009  0.3171
 4403TIP3    H113148   1.388   6.709   1.718 -0.9377  0.7775  2.0384
 4403TIP3    H213149   1.476   6.766   1.827  2.1786 -0.5927  0.3018
 4404TIP3   OH213150   4.417   0.435   2.464  0.5322  0.2913 -0.8212
 4404TIP3    H113151   4.479   0.363   2.477  1.0168  0.8560 -0.0102
 4404TIP3    H213152   4.413   0.446   2.369  2.5229  0.9955 -0.8359
 4405TIP3   OH213153   1.998   5.747   1.141  0.4674 -0.0215  0.2839
 4405TIP3    H113154   1.912   5.785   1.127  0.5882  0.2966  0.4091
 4405TIP3    H213155   2.005   5.736   1.236  0.0106 -1.3377  0.1678
 4406TIP3   OH213156   0.992   7.819   2.330 -0.4364  0.2969 -0.2659
 4406TIP3    H113157   1.048   7.863   2.395  1.6820 -1.9755 -0.4646
 4406TIP3    H213158   1.020   7.856   2.246  2.1306 -2.0914 -0.5434
 4407TIP3   OH213159   1.593   5.808   2.172  0.0262 -0.3443 -0.0292
 4407TIP3    H113160   1.616   5.723   2.134  1.6865 -0.1484  0.5261
 4407TIP3    H213161   1.497   5.811   2.165 -0.0202 -2.0354 -0.5271
 4408TIP3   OH213162   2.068   5.058   2.330  1.0472 -0.4928  0.5512
 4408TIP3    H113163   2.081   5.146   2.366  0.0423  0.5652 -1.6015
 4408TIP3    H213164   2.109   5.061   2.243  1.9502 -2.4924  0.8671
 4409TIP3   OH213165   1.473   7.010   1.028 -0.6292 -0.2350  0.2533
 4409TIP3    H113166   1.383   7.042   1.022 -0.8508 -1.3061 -3.4033
 4409TIP3    H213167   1.481   6.947   0.956  3.3543  0.6432 -0.1950
 4410TIP3   OH213168   7.965   3.670   2.965  0.2102 -0.2794 -0.6793
 4410TIP3    H113169   7.914   3.648   2.887 -0.8315 -0.3780  0.0286
 4410TIP3    H213170   7.906   3.723   3.019  2.0967  2.8252 -1.5588
 4411TIP3   OH213171   8.271   6.500   1.423  0.2611  0.5813 -0.4559
 4411TIP3    H113172   8.314   6.578   1.387 -2.0092  1.1267 -2.0562
 4411TIP3    H213173   8.188   6.532   1.457  0.4524 -0.7120  1.2893
 4412TIP3   OH213174   1.443   0.544   3.567  0.4217 -0.4522 -0.1501
 4412TIP3    H113175   1.476   0.537   3.656  0.6722 -0.1622 -0.2192
 4412TIP3    H213176   1.439   0.454   3.535 -0.2905 -0.6109  0.3809
 4413TIP3   OH213177   1.458   5.044   5.307  0.4910  0.9055  0.2605
 4413TIP3    H113178   1.490   5.132   5.287  2.2472  0.2994  0.3601
 4413TIP3    H213179   1.439   5.047   5.401  2.5549  0.5727  0.6993
 4414TIP3   OH213180   1.236   3.142   3.422 -0.1347 -0.7705  0.3344
 4414TIP3    H113181   1.282   3.225   3.407  0.9546 -1.5381 -0.7606
 4414TIP3    H213182   1.143   3.165   3.418  0.1547  0.5380  0.9111
 4415TIP3   OH213183   2.190   5.393   0.652  0.0641 -0.1990 -0.1187
 4415TIP3    H113184   2.136   5.471   0.662  0.8133  0.4332 -0.9511
 4415TIP3    H213185   2.131   5.329   0.611 -0.3370  0.1652 -0.1176
 4416TIP3   OH213186   0.651   6.092   2.570 -0.1522  0.1418 -0.7572
 4416TIP3    H113187   0.592   6.125   2.638  1.3819 -0.7464  1.0320
 4416TIP3    H213188   0.669   6.168   2.515 -1.8388  0.7479 -0.5221
 4417TIP3   OH213189   0.621   5.546   2.122 -0.0800  0.1683 -0.1733
 4417TIP3    H113190   0.603   5.462   2.165 -1.1250  0.7414  0.5119
 4417TIP3    H213191   0.697   5.528   2.066 -0.9916 -1.5207 -0.8959
 4418TIP3   OH213192   1.530   4.346   3.882  0.5673  0.9568  0.0981
 4418TIP3    H113193   1.581   4.312   3.809  0.8388  1.7541 -0.0950
 4418TIP3    H213194   1.592   4.402   3.930  0.6292 -0.2315  1.4283
 4419TIP3   OH213195   5.847   4.253   6.145  0.0312 -0.5632  0.4766
 4419TIP3    H113196   5.866   4.159   6.145 -0.4361 -0.6633 -0.0795
 4419TIP3    H213197   5.908   4.289   6.081 -0.6493 -0.6806 -0.2578
 4420TIP3   OH213198   0.559   5.067   0.292  0.2511 -0.2723  0.7015
 4420TIP3    H113199   0.496   5.096   0.226  0.8836  0.2543  0.3225
 4420TIP3    H213200   0.521   4.986   0.327 -0.2373 -0.3924 -0.0834
 4421TIP3   OH213201   2.749   5.312   2.459 -0.6976 -0.2835 -0.3914
 4421TIP3    H113202   2.777   5.228   2.495  0.0550  0.5609  1.0543
 4421TIP3    H213203   2.793   5.317   2.373 -1.3989 -1.7035 -0.8373
 4422TIP3   OH213204   3.196   5.762   3.126  0.2293  0.2204 -0.2264
 4422TIP3    H113205   3.239   5.783   3.209 -1.9132 -0.3566  1.0406
 4422TIP3    H213206   3.142   5.839   3.108  0.0592 -0.0088 -0.6863
 4423TIP3   OH213207   0.442   7.537   1.946 -0.0811  0.0044 -0.2967
 4423TIP3    H113208   0.498   7.542   2.024 -1.1510  0.0812  0.4895
 4423TIP3    H213209   0.495   7.492   1.881  0.7875 -0.1902  0.5295
 4424TIP3   OH213210   0.782   5.639   1.802  0.1588 -0.0884 -0.2480
 4424TIP3    H113211   0.817   5.591   1.877 -1.6159 -1.9317 -0.5429
 4424TIP3    H213212   0.859   5.671   1.756  1.3033  0.2753  1.8270
 4425TIP3   OH213213   2.566   7.368   3.522  0.3414 -0.7328  0.4193
 4425TIP3    H113214   2.619   7.289   3.508 -0.9055 -1.4893 -0.1574
 4425TIP3    H213215   2.481   7.347   3.482  0.0709  0.9890  0.0626
 4426TIP3   OH213216   0.275   4.038   3.112 -0.1753 -0.2530  0.4056
 4426TIP3    H113217   0.295   4.026   3.205 -3.1759 -2.5135  0.8523
 4426TIP3    H213218   0.189   4.081   3.112 -0.7227 -1.3039 -1.2794
 4427TIP3   OH213219   8.135   5.441   2.117  0.4853  0.3570 -0.0681
 4427TIP3    H113220   8.066   5.393   2.071  0.5359 -1.7067  1.8713
 4427TIP3    H213221   8.217   5.399   2.089  0.8140  1.5303 -0.8956
 4428TIP3   OH213222   1.439   6.082   3.591  0.0308 -0.1510  0.6450
 4428TIP3    H113223   1.441   6.178   3.587  1.8855 -0.2728 -3.1223
 4428TIP3    H213224   1.480   6.061   3.675  1.0677  2.3104  0.8011
 4429TIP3   OH213225   1.156   4.990   3.928  0.5638  0.1550  0.1051
 4429TIP3    H113226   1.218   4.945   3.870  1.2109 -0.7777  1.5189
 4429TIP3    H213227   1.111   4.920   3.975  0.0471  0.9182  0.7554
 4430TIP3   OH213228   0.082   7.072   2.262  0.0322 -0.0379 -0.1636
 4430TIP3    H113229   0.060   7.162   2.283 -0.6491  0.0414 -1.1931
 4430TIP3    H213230   0.169   7.058   2.301  0.1961  1.0972 -0.1260
 4431TIP3   OH213231   1.889   4.844   4.091  0.2746 -0.0828 -0.1816
 4431TIP3    H113232   1.824   4.775   4.078 -0.3693  0.3947  0.4218
 4431TIP3    H213233   1.862   4.915   4.033  1.0233 -0.3948 -0.9148
 4432TIP3   OH213234   2.035   6.099   2.396 -0.0729 -0.1076  0.1951
 4432TIP3    H113235   1.960   6.092   2.338  1.3156 -3.9606 -1.2639
 4432TIP3    H213236   2.052   6.009   2.425  2.6765  0.9752  2.1743
 4433TIP3   OH213237   1.816   5.107   5.040  0.4070 -0.0497  0.1671
 4433TIP3    H113238   1.748   5.040   5.044 -0.3711  0.7359  0.2699
 4433TIP3    H213239   1.850   5.113   5.130  0.9401 -0.7642  0.0206
 4434TIP3   OH213240   1.979   5.190   1.597  0.2461 -0.5331 -0.0025
 4434TIP3    H113241   2.073   5.193   1.576  0.3456 -0.0041  0.5078
 4434TIP3    H213242   1.940   5.144   1.524  0.7014  0.5657 -0.9479
 4435TIP3   OH213243   1.723   4.201   5.091  0.0449 -0.8841 -0.1274
 4435TIP3    H113244   1.760   4.288   5.079  0.1297 -0.9333 -0.2270
 4435TIP3    H213245   1.714   4.190   5.185  1.0027 -1.1727 -0.0644
 4436TIP3   OH213246   1.881   5.854   2.052 -0.3856 -0.0738 -0.6614
 4436TIP3    H113247   1.878   5.776   1.996 -0.9430  0.7802 -1.8435
 4436TIP3    H213248   1.834   5.828   2.132  1.3479 -1.6455 -0.1234
 4437TIP3   OH213249   1.045   7.522   2.534 -0.6566  0.0218 -0.5572
 4437TIP3    H113250   1.078   7.544   2.447  0.4715  0.2721 -0.0864
 4437TIP3    H213251   1.089   7.440   2.556  2.5115  2.1510  1.5384
 4438TIP3   OH213252   2.290   5.212   5.047 -0.1108 -0.4556  0.2539
 4438TIP3    H113253   2.368   5.195   4.994 -0.4906 -1.6062  0.0502
 4438TIP3    H213254   2.324   5.253   5.126  0.5545  0.4023 -0.4579
 4439TIP3   OH213255   1.185   7.268   0.636  0.2418  0.0369  0.0100
 4439TIP3    H113256   1.230   7.349   0.612  0.0882  0.0650 -0.1875
 4439TIP3    H213257   1.194   7.212   0.559 -1.8375  0.8075 -0.8502
 4440TIP3   OH213258   2.738   5.351   1.843 -0.2600 -0.1551 -0.0113
 4440TIP3    H113259   2.743   5.447   1.846  0.6796 -0.2111  0.1915
 4440TIP3    H213260   2.707   5.326   1.930 -1.7366  0.0305 -0.4618
 4441TIP3   OH213261   7.738   6.752   2.875 -0.3377  0.1377 -0.1759
 4441TIP3    H113262   7.646   6.755   2.848  0.6078  1.3470 -3.5421
 4441TIP3    H213263   7.770   6.841   2.862  1.2231 -0.1680  1.3533
 4442TIP3   OH213264   8.037   6.240   4.898  0.1752  0.1805 -0.9378
 4442TIP3    H113265   7.960   6.183   4.898  0.6140 -0.4165 -1.1654
 4442TIP3    H213266   8.108   6.185   4.866  0.4902  1.0080 -1.6883
 4443TIP3   OH213267   3.778   0.206   3.128 -0.3377 -0.1860  0.0967
 4443TIP3    H113268   3.812   0.206   3.039 -0.3112  0.7631  0.1094
 4443TIP3    H213269   3.771   0.298   3.152  2.7767 -0.4494  2.2887
 4444TIP3   OH213270   1.451   3.648   4.309  0.4382 -0.3741 -0.7880
 4444TIP3    H113271   1.430   3.572   4.254 -1.0938 -1.4064  1.1340
 4444TIP3    H213272   1.383   3.648   4.376 -0.9530  4.0595 -2.0219
 4445TIP3   OH213273   2.934   5.434   1.684  0.1200  0.5632  0.4577
 4445TIP3    H113274   2.951   5.516   1.730 -0.0400  0.3230  0.9521
 4445TIP3    H213275   2.887   5.381   1.747 -0.0041  0.1831  0.0509
 4446TIP3   OH213276   0.405   5.063   4.379  0.3091  0.2342 -0.7515
 4446TIP3    H113277   0.399   5.001   4.452  0.4815  0.6610 -0.3744
 4446TIP3    H213278   0.406   5.007   4.301 -0.0673 -0.2146 -0.4406
 4447TIP3   OH213279   2.751   4.913   5.974  0.4195  0.3283  0.0615
 4447TIP3    H113280   2.785   4.823   5.967 -1.4628 -0.5075  1.2659
 4447TIP3    H213281   2.813   4.957   6.032  0.5289 -0.6315  0.6954
 4448TIP3   OH213282   0.606   6.588   2.961  0.0463  0.5256  0.1585
 4448TIP3    H113283   0.658   6.507   2.967 -2.0149 -0.7651  1.5867
 4448TIP3    H213284   0.529   6.563   2.909 -1.5768  0.9642  2.2537
 4449TIP3   OH213285   0.687   5.885   0.226  0.5030  0.0685  0.2801
 4449TIP3    H113286   0.766   5.833   0.240  1.4422  0.9887 -1.4450
 4449TIP3    H213287   0.708   5.941   0.152 -3.0116 -2.2132 -2.6301
 4450TIP3   OH213288   1.137   3.991   3.866  0.2362 -0.1665  0.1150
 4450TIP3    H113289   1.217   4.041   3.884  0.8815 -1.1615  0.0231
 4450TIP3    H213290   1.108   3.962   3.952 -0.6316  1.0932  0.2653
 4451TIP3   OH213291   2.442   2.789   5.254 -0.1620 -0.2348  0.1504
 4451TIP3    H113292   2.372   2.752   5.200 -1.5531 -1.3545  2.6260
 4451TIP3    H213293   2.503   2.716   5.268 -0.6518 -0.4308  1.3892
 4452TIP3   OH213294   1.895   3.684   2.509  0.2569  0.9040 -0.1429
 4452TIP3    H113295   1.848   3.646   2.583 -0.8403  2.6718  0.0873
 4452TIP3    H213296   1.910   3.775   2.533 -0.3502  1.5748 -2.2085
 4453TIP3   OH213297   0.846   5.889   2.600 -0.2764 -0.5924 -0.0640
 4453TIP3    H113298   0.783   5.829   2.641 -1.8407  1.0012 -0.1070
 4453TIP3    H213299   0.802   5.974   2.600  0.5508 -0.1098 -3.0680
 4454TIP3   OH213300   1.879   4.608   3.410  0.1612 -0.6084  0.1654
 4454TIP3    H113301   1.844   4.612   3.321 -2.2427  0.0419  1.0992
 4454TIP3    H213302   1.937   4.532   3.409  1.3035  0.2171 -2.3127
 4455TIP3   OH213303   2.635   3.102   4.231  0.0303 -0.0332 -0.3124
 4455TIP3    H113304   2.711   3.148   4.267 -0.9982  0.2316  1.5761
 4455TIP3    H213305   2.668   3.016   4.207  1.1056  0.3574 -0.2580
 4456TIP3   OH213306   1.821   4.035   2.038  0.7672  0.1254  0.5085
 4456TIP3    H113307   1.775   4.050   2.120  1.1431  0.7766  0.5990
 4456TIP3    H213308   1.844   4.122   2.006  0.1077 -0.0793 -0.5800
 4457TIP3   OH213309   7.740   5.480   0.133 -0.4302  0.5239 -0.4283
 4457TIP3    H113310   7.666   5.537   0.151 -0.6240 -0.1081  0.8311
 4457TIP3    H213311   7.747   5.479   0.038 -0.1288  3.0060 -0.4537
 4458TIP3   OH213312   3.602   0.513   2.043  0.0553  0.0780  0.2034
 4458TIP3    H113313   3.551   0.434   2.062  0.9881 -0.4869  0.3508
 4458TIP3    H213314   3.537   0.576   2.011 -0.8292 -0.4448  0.9544
 4459TIP3   OH213315   0.587   7.066   5.119  0.3654 -0.1418  0.1293
 4459TIP3    H113316   0.555   7.156   5.124 -1.3808 -0.7741  0.7687
 4459TIP3    H213317   0.670   7.068   5.167  1.0675  1.4105 -1.0911
 4460TIP3   OH213318   8.437   7.419   2.648  0.2628  0.1438 -0.0717
 4460TIP3    H113319   8.500   7.427   2.719 -0.3745 -0.2714  0.5417
 4460TIP3    H213320   8.356   7.390   2.690 -0.4381  1.0008 -0.8033
 4461TIP3   OH213321   2.237   5.478   1.786 -0.2117  0.2102 -0.0159
 4461TIP3    H113322   2.286   5.554   1.756  0.8086 -0.5088 -0.1873
 4461TIP3    H213323   2.300   5.406   1.783 -0.9189 -0.4614  1.0142
 4462TIP3   OH213324   1.111   7.470   1.837 -0.3565  0.2722 -0.1237
 4462TIP3    H113325   1.140   7.528   1.907  0.8177  0.9359 -1.1604
 4462TIP3    H213326   1.020   7.495   1.821 -0.7447 -0.1215  1.3921
 4463TIP3   OH213327   4.430   5.370   2.836 -0.1121 -0.0480  0.0568
 4463TIP3    H113328   4.458   5.305   2.901  0.9561 -0.4540 -0.8042
 4463TIP3    H213329   4.469   5.341   2.754 -0.9294  0.8223 -0.6544
 4464TIP3   OH213330   4.696   2.722   4.009 -0.3055 -0.2194 -0.0258
 4464TIP3    H113331   4.708   2.628   4.023  1.8573 -0.2005 -1.4935
 4464TIP3    H213332   4.602   2.734   3.998 -0.5044 -2.3564 -0.7281
 4465TIP3   OH213333   2.243   6.024   4.117  0.0967  0.2209 -0.2096
 4465TIP3    H113334   2.254   5.970   4.196  0.2930 -0.7922 -0.9162
 4465TIP3    H213335   2.206   5.965   4.052  0.2804  0.9479 -0.9917
 4466TIP3   OH213336   2.748   6.054   3.740  0.6880  0.5013 -0.4680
 4466TIP3    H113337   2.761   6.036   3.834  1.7974  2.0130 -0.3091
 4466TIP3    H213338   2.727   5.969   3.702  1.9629 -0.4418  0.8834
 4467TIP3   OH213339   2.038   6.173   3.436  0.1771 -0.5850  0.4233
 4467TIP3    H113340   1.954   6.200   3.400  1.2455  0.3125 -1.4466
 4467TIP3    H213341   2.090   6.254   3.440  1.7442 -1.5146 -0.6264
 4468TIP3   OH213342   3.202   7.468   1.634 -0.4721  0.7066 -0.5294
 4468TIP3    H113343   3.128   7.495   1.580 -1.6457 -1.1579  0.1070
 4468TIP3    H213344   3.259   7.545   1.637 -2.7675  2.4333 -0.3681
 4469TIP3   OH213345   0.991   4.586   2.928 -0.0161 -0.7350 -0.4322
 4469TIP3    H113346   1.012   4.512   2.986  0.7534  1.2208  1.8370
 4469TIP3    H213347   1.075   4.621   2.902 -0.3897  0.3317 -0.2063
 4470TIP3   OH213348   1.806   4.366   2.233 -0.0092  0.0249 -0.0729
 4470TIP3    H113349   1.719   4.392   2.263 -0.2509 -0.9045  0.0609
 4470TIP3    H213350   1.801   4.369   2.138  0.5394  2.2875 -0.0380
 4471TIP3   OH213351   1.566   7.228   3.455  0.2433  0.2066 -0.6591
 4471TIP3    H113352   1.485   7.278   3.446  0.4253  0.7579  0.6536
 4471TIP3    H213353   1.538   7.136   3.458 -0.3536  0.4045 -0.0612
 4472TIP3   OH213354   0.787   4.228   2.724 -0.3532  0.1753  0.1682
 4472TIP3    H113355   0.875   4.258   2.746 -0.2963 -0.1982  0.4591
 4472TIP3    H213356   0.796   4.187   2.638 -0.4000  0.8335 -0.1591
 4473TIP3   OH213357   2.167   3.186   2.548 -0.6547 -0.1064  0.5928
 4473TIP3    H113358   2.129   3.221   2.628 -1.1631  0.6475  0.0287
 4473TIP3    H213359   2.262   3.192   2.561 -0.7240 -1.0770  1.6009
 4474TIP3   OH213360   0.689   3.749   2.413  0.0510  0.0365  0.1271
 4474TIP3    H113361   0.616   3.696   2.383 -0.0236  0.5161 -0.5413
 4474TIP3    H213362   0.685   3.744   2.509 -2.9449  2.8815  0.2146
 4475TIP3   OH213363   2.171   3.546   1.210  0.0989  0.5275  0.4450
 4475TIP3    H113364   2.265   3.561   1.198 -0.1089  0.2649 -1.6651
 4475TIP3    H213365   2.157   3.455   1.184 -0.9718  0.9985 -0.6972
 4476TIP3   OH213366   7.846   7.440   1.762 -0.1343  0.1921  0.4406
 4476TIP3    H113367   7.940   7.459   1.753 -0.5656  1.3153 -1.9473
 4476TIP3    H213368   7.843   7.345   1.773  1.2068 -0.0641 -1.1538
 4477TIP3   OH213369   2.652   4.226   0.952 -0.6711  0.2456  0.0244
 4477TIP3    H113370   2.561   4.252   0.938 -0.7678 -0.1006  0.0141
 4477TIP3    H213371   2.665   4.150   0.896 -0.5450 -0.0546  0.4565
 4478TIP3   OH213372   2.473   5.847   2.064 -0.5014  0.1205 -0.2227
 4478TIP3    H113373   2.453   5.757   2.089 -0.3668  0.3328  0.6587
 4478TIP3    H213374   2.566   5.858   2.083 -0.7787  0.7979  0.7529
 4479TIP3   OH213375   3.449   6.630   2.385 -0.2236 -0.1302 -0.6863
 4479TIP3    H113376   3.375   6.690   2.384  0.6532  1.0379 -3.7845
 4479TIP3    H213377   3.421   6.556   2.331  0.1717 -0.5964 -0.2608
 4480TIP3   OH213378   2.955   4.706   1.781 -0.2423  0.9271 -0.3886
 4480TIP3    H113379   3.030   4.729   1.727  1.6511  1.0283  2.2104
 4480TIP3    H213380   2.898   4.654   1.722  2.1900  0.1820 -2.1709
 4481TIP3   OH213381   1.354   7.025   3.399  0.1117  0.3749  0.3880
 4481TIP3    H113382   1.304   7.008   3.478 -0.8552  0.9824 -0.0809
 4481TIP3    H213383   1.289   7.027   3.329  0.7907  1.1390 -0.2383
 4482TIP3   OH213384   7.934   6.304   3.553  0.2475 -0.0530 -0.0301
 4482TIP3    H113385   7.946   6.297   3.647 -0.1700  1.7398  0.1875
 4482TIP3    H213386   7.959   6.219   3.518 -1.4191 -1.3617  1.8706
 4483TIP3   OH213387   1.222   5.469   3.497  0.7022  0.0197  0.4161
 4483TIP3    H113388   1.276   5.391   3.481 -0.1007 -0.2488 -0.9551
 4483TIP3    H213389   1.225   5.518   3.415  0.4364  0.9855  0.9744
 4484TIP3   OH213390   2.027   3.928   3.752  0.5392  0.2110  0.2886
 4484TIP3    H113391   2.005   3.839   3.726 -2.4136  0.3357  2.1012
 4484TIP3    H213392   2.098   3.917   3.816  1.0948 -0.7194 -0.4724
 4485TIP3   OH213393   8.209   4.440   1.510  0.3790  0.0646 -0.0807
 4485TIP3    H113394   8.145   4.511   1.505  2.8941  2.4518  0.2990
 4485TIP3    H213395   8.247   4.449   1.597  1.2789 -1.2992 -0.3242
 4486TIP3   OH213396   0.290   5.260   1.510  0.3997  0.1467 -0.0260
 4486TIP3    H113397   0.291   5.333   1.448  1.3899  2.6655  2.8320
 4486TIP3    H213398   0.371   5.212   1.492 -0.2066 -0.2366 -1.8487
 4487TIP3   OH213399   2.111   2.863   4.158  0.2996  0.3895  0.1317
 4487TIP3    H113400   2.051   2.910   4.215 -0.3792 -1.6356  1.1468
 4487TIP3    H213401   2.182   2.924   4.141 -0.6533  1.8249  1.2471
 4488TIP3   OH213402   0.034   5.934   2.813 -0.2636  0.5755  0.3615
 4488TIP3    H113403   0.007   5.925   2.904  0.8928 -0.7392  0.5877
 4488TIP3    H213404   0.117   5.981   2.817 -0.6408  1.3018 -0.0878
 4489TIP3   OH213405   7.416   6.218   1.443 -0.0729 -0.0875  0.1610
 4489TIP3    H113406   7.331   6.202   1.483 -0.8644 -1.9953 -2.1622
 4489TIP3    H213407   7.401   6.290   1.382  0.0244 -0.3074 -0.1236
 4490TIP3   OH213408   2.152   6.822   4.564 -0.5667 -0.3761 -0.1301
 4490TIP3    H113409   2.157   6.801   4.658 -1.1880  0.9816  0.2285
 4490TIP3    H213410   2.105   6.906   4.562 -2.5186 -1.4700 -1.7893
 4491TIP3   OH213411   1.178   6.577   0.986  0.6658  0.0090  0.5971
 4491TIP3    H113412   1.253   6.590   1.043  0.9472 -2.4476  0.8565
 4491TIP3    H213413   1.214   6.538   0.906 -0.1787 -0.1584  0.2868
 4492TIP3   OH213414   3.168   7.063   3.303 -0.2934  0.6470 -0.9893
 4492TIP3    H113415   3.157   7.158   3.294 -0.5443  0.5854 -1.3372
 4492TIP3    H213416   3.098   7.026   3.250 -1.4726  0.2609  0.8220
 4493TIP3   OH213417   0.704   5.890   2.898  0.0680 -0.3670  0.3813
 4493TIP3    H113418   0.641   5.910   2.967  1.9283 -1.0698  2.3419
 4493TIP3    H213419   0.766   5.963   2.901 -1.5448  1.2192 -2.7023
 4494TIP3   OH213420   7.586   5.826   3.102  0.2319  0.2534 -0.5990
 4494TIP3    H113421   7.657   5.835   3.038  2.7522 -0.2870  2.0446
 4494TIP3    H213422   7.523   5.894   3.077  1.4542  0.4886 -3.2319
 4495TIP3   OH213423   0.121   6.673   4.254 -0.5968  0.3752 -0.1254
 4495TIP3    H113424   0.110   6.665   4.349 -0.5431  1.1254 -0.0484
 4495TIP3    H213425   0.180   6.602   4.230 -0.6986  0.1156  0.3886
 4496TIP3   OH213426   1.218   7.646   4.372  0.0874  0.1050  0.2820
 4496TIP3    H113427   1.217   7.666   4.466 -1.2054 -2.4192  0.8483
 4496TIP3    H213428   1.310   7.632   4.352  0.1072 -2.1469  1.8265
 4497TIP3   OH213429   1.352   6.250   1.798 -0.2518  0.4204 -0.2374
 4497TIP3    H113430   1.277   6.196   1.774  0.8747 -1.5112  0.4120
 4497TIP3    H213431   1.374   6.298   1.719  0.2335 -1.9582 -1.5968
 4498TIP3   OH213432   7.971   7.219   3.119 -0.0791  0.0006  0.0288
 4498TIP3    H113433   7.979   7.308   3.086  2.7726  0.2538  1.2382
 4498TIP3    H213434   7.957   7.230   3.213 -0.5353 -0.8316  0.0645
 4499TIP3   OH213435   2.183   5.594   3.533 -0.2098 -0.4944  0.0656
 4499TIP3    H113436   2.189   5.661   3.465 -1.2371 -0.2979  0.1613
 4499TIP3    H213437   2.145   5.518   3.489  0.8890 -0.9930 -0.0259
 4500TIP3   OH213438   7.790   5.213   2.782  0.2431  0.0657  0.7825
 4500TIP3    H113439   7.797   5.181   2.872 -1.1816 -0.6555  0.6509
 4500TIP3    H213440   7.722   5.280   2.786  0.3797  0.2368  0.2917
 4501TIP3   OH213441   3.034   5.352   1.410 -0.0617  0.4626 -0.2338
 4501TIP3    H113442   3.006   5.430   1.361  0.9987 -0.1742 -1.9217
 4501TIP3    H213443   3.012   5.371   1.501 -1.2726  2.0718 -0.8383
 4502TIP3   OH213444   0.246   5.714   0.064 -0.1532 -0.0600 -0.3785
 4502TIP3    H113445   0.339   5.709   0.042 -0.0678  0.5866 -0.2019
 4502TIP3    H213446   0.222   5.805   0.045 -1.1829 -0.6748 -2.0558
 4503TIP3   OH213447   0.944   6.266   2.593  0.1993 -0.7983  0.4715
 4503TIP3    H113448   0.874   6.225   2.543  1.1700 -0.5469 -1.1146
 4503TIP3    H213449   0.947   6.215   2.674  0.4710 -3.0124 -0.8811
 4504TIP3   OH213450   2.164   1.737   2.222 -0.0602  0.3505 -0.1576
 4504TIP3    H113451   2.242   1.683   2.214 -1.8699 -2.3438 -0.3069
 4504TIP3    H213452   2.149   1.772   2.134  0.5042  0.2036 -0.3145
 4505TIP3   OH213453   0.915   4.108   3.745 -0.3151 -0.3087 -0.1269
 4505TIP3    H113454   0.977   4.038   3.765 -0.4006 -0.9729 -2.0442
 4505TIP3    H213455   0.956   4.156   3.673 -1.5566 -0.1540 -0.7468
 4506TIP3   OH213456   5.058   0.696   1.166 -0.2395 -0.2579 -0.6127
 4506TIP3    H113457   5.073   0.780   1.210  0.2496  0.7816 -2.7280
 4506TIP3    H213458   4.969   0.703   1.132 -0.7826 -1.2429  0.5508
 4507TIP3   OH213459   5.072   4.093   3.676  0.3075  0.6039  0.5916
 4507TIP3    H113460   5.014   4.035   3.726 -0.8401 -0.0474 -1.4353
 4507TIP3    H213461   5.095   4.163   3.737 -0.3967 -0.5952  2.2675
 4508TIP3   OH213462   2.557   6.473   2.333 -0.4952  0.2747  0.5298
 4508TIP3    H113463   2.650   6.451   2.337 -0.5354 -0.1326 -0.5831
 4508TIP3    H213464   2.547   6.519   2.250 -1.3212  0.1768  0.5717
 4509TIP3   OH213465   0.035   5.981   3.812 -0.8671 -0.2968 -0.7057
 4509TIP3    H113466   0.006   6.072   3.816  2.3188  0.7092  1.0188
 4509TIP3    H213467  -0.013   5.937   3.883 -0.4079  0.6525  0.1983
 4510TIP3   OH213468   1.827   4.105   3.809  0.3413 -0.3813  0.2362
 4510TIP3    H113469   1.888   4.039   3.776 -2.4215 -3.4306  0.9895
 4510TIP3    H213470   1.861   4.126   3.897  0.4159 -1.9054  0.5821
 4511TIP3   OH213471   0.660   4.237   2.972 -0.1248 -0.3285  0.3784
 4511TIP3    H113472   0.726   4.221   2.905 -1.1260 -0.1904 -0.6377
 4511TIP3    H213473   0.577   4.210   2.932 -0.8716  0.7874  1.1549
 4512TIP3   OH213474   7.152   7.829   1.205  0.5427 -0.5864 -0.2887
 4512TIP3    H113475   7.228   7.775   1.229  0.3346 -1.4741 -1.5530
 4512TIP3    H213476   7.092   7.767   1.162 -0.7731  0.1645  0.4377
 4513TIP3   OH213477   2.703   4.050   2.918  0.2707  0.2603 -0.5009
 4513TIP3    H113478   2.772   3.983   2.928  0.4871  0.0781 -2.8743
 4513TIP3    H213479   2.711   4.078   2.827  0.1212  3.5031  0.4439
 4514TIP3   OH213480   1.532   3.267   4.584  0.6156 -0.3482 -0.2328
 4514TIP3    H113481   1.541   3.173   4.593 -1.5829 -0.4271  1.6269
 4514TIP3    H213482   1.622   3.300   4.586  1.2967 -2.1168  3.2285
 4515TIP3   OH213483   1.920   3.927   2.639 -0.1555  0.1545 -0.1641
 4515TIP3    H113484   1.973   3.976   2.703  3.5885 -0.6561 -2.4759
 4515TIP3    H213485   1.861   3.992   2.602 -1.6328  0.8848  3.2049
 4516TIP3   OH213486   0.910   4.864   2.855 -0.3094  0.3035 -0.4332
 4516TIP3    H113487   0.945   4.776   2.865 -2.2592 -0.3379  0.9892
 4516TIP3    H213488   0.964   4.919   2.911  0.5250 -0.0871 -0.8534
 4517TIP3   OH213489   1.016   3.741   1.985 -0.2846  0.4197  0.3536
 4517TIP3    H113490   0.966   3.817   1.956 -1.3689 -0.6408 -0.6206
 4517TIP3    H213491   0.978   3.720   2.071 -1.9015 -0.6993 -0.6132
 4518TIP3   OH213492   1.122   5.201   1.362  0.0716  0.5790 -0.5867
 4518TIP3    H113493   1.193   5.166   1.308 -1.0778  1.0787 -2.4643
 4518TIP3    H213494   1.135   5.296   1.362 -1.1183  0.7512 -1.7117
 4519TIP3   OH213495   2.892   4.328   1.816  0.1875  0.4534  0.4749
 4519TIP3    H113496   2.950   4.377   1.875  0.6249  1.1854 -0.5602
 4519TIP3    H213497   2.944   4.313   1.738 -0.5286 -0.1875  0.1199
 4520TIP3   OH213498   4.837   6.163   0.296  0.6901  0.3643 -0.1558
 4520TIP3    H113499   4.838   6.196   0.385  1.5944 -1.0985  0.4175
 4520TIP3    H213500   4.745   6.160   0.271  0.6448  4.0909 -0.5763
 4521TIP3   OH213501   3.235   5.229   2.287  0.6246  0.0808  0.6726
 4521TIP3    H113502   3.172   5.197   2.351 -0.0596 -1.4586 -0.7469
 4521TIP3    H213503   3.321   5.209   2.326  0.2235 -0.5568  1.2482
 4522TIP3   OH213504   2.014   7.082   2.457 -0.7419  0.3361  0.3013
 4522TIP3    H113505   1.979   7.015   2.517 -0.4138  0.4813  0.6564
 4522TIP3    H213506   2.093   7.113   2.500 -0.1312 -0.0387 -0.5289
 4523TIP3   OH213507   2.199   6.506   2.583  0.2203  0.4572 -0.3468
 4523TIP3    H113508   2.285   6.535   2.552  0.7725 -0.7941 -0.0148
 4523TIP3    H213509   2.168   6.446   2.516  0.2234 -0.1661  0.2036
 4524TIP3   OH213510   3.412   6.520   1.944  0.2529 -0.0426 -0.0487
 4524TIP3    H113511   3.420   6.481   2.031  1.7300  2.2469  0.9081
 4524TIP3    H213512   3.319   6.511   1.922 -0.0956 -0.8791  1.6646
 4525TIP3   OH213513   1.640   5.208   3.939  0.0063  0.2973  0.3363
 4525TIP3    H113514   1.651   5.170   3.852 -1.0292  1.8199 -0.4892
 4525TIP3    H213515   1.551   5.186   3.964  0.2347  0.0361  0.9387
 4526TIP3   OH213516   4.285   7.648   1.662  0.1054  0.0109  0.4725
 4526TIP3    H113517   4.213   7.586   1.667  0.2971 -0.1907  0.7528
 4526TIP3    H213518   4.328   7.641   1.747  0.9450 -0.4676  0.0134
 4527TIP3   OH213519   7.641   3.052   6.850 -0.3160  0.3185 -0.0858
 4527TIP3    H113520   7.688   3.001   6.784 -2.1261 -2.3225  0.6064
 4527TIP3    H213521   7.687   3.034   6.932  0.4419  1.6747 -0.1923
 4528TIP3   OH213522   3.023   6.777   2.343 -0.5025 -0.1261 -0.3285
 4528TIP3    H113523   2.995   6.755   2.432 -1.4387  0.9023 -0.3649
 4528TIP3    H213524   2.971   6.853   2.319 -0.7345 -0.7882 -2.0110
 4529TIP3   OH213525   4.762   5.851   2.761  0.2170  0.1021  0.0999
 4529TIP3    H113526   4.836   5.886   2.711 -0.7254  2.2648  0.1599
 4529TIP3    H213527   4.788   5.862   2.852  0.3752 -0.3741  0.1125
 4530TIP3   OH213528   1.617   6.058   2.024  0.1674 -0.1610  0.1103
 4530TIP3    H113529   1.708   6.075   1.999  0.2594  0.7454  0.9878
 4530TIP3    H213530   1.620   5.974   2.070 -0.1797 -2.3522 -3.7295
 4531TIP3   OH213531   3.651   6.233   1.402  0.0199 -0.4219  0.8036
 4531TIP3    H113532   3.711   6.252   1.330 -1.1411 -1.2718 -0.4266
 4531TIP3    H213533   3.675   6.144   1.430 -0.0243 -0.3884  0.9467
 4532TIP3   OH213534   0.845   7.577   2.043 -0.1979 -0.6171  0.4986
 4532TIP3    H113535   0.923   7.533   2.076  0.4962 -0.0972 -0.4313
 4532TIP3    H213536   0.856   7.578   1.948 -0.0468  1.8738  0.5221
 4533TIP3   OH213537   1.872   4.840   3.764 -0.2038 -0.2107  0.2987
 4533TIP3    H113538   1.920   4.825   3.682  2.0612 -0.5458  1.6635
 4533TIP3    H213539   1.823   4.758   3.778 -1.6838  0.3455 -1.3859
 4534TIP3   OH213540   3.767   1.655   2.295  0.2697 -0.5332  0.5604
 4534TIP3    H113541   3.755   1.729   2.354 -0.1525 -0.0767 -0.0841
 4534TIP3    H213542   3.685   1.606   2.302  0.8990 -1.4465  1.6698
 4535TIP3   OH213543   2.708   7.322   2.031  0.5336  0.3400  0.2073
 4535TIP3    H113544   2.744   7.357   2.112 -1.2021 -0.6165  1.4188
 4535TIP3    H213545   2.755   7.368   1.962  2.0795  1.1239  1.7457
 4536TIP3   OH213546   2.833   4.681   0.997  0.1417  0.0985 -0.3195
 4536TIP3    H113547   2.902   4.721   1.050  0.3436 -0.1664 -0.3797
 4536TIP3    H213548   2.758   4.739   1.007 -0.1941 -0.5771  1.2219
 4537TIP3   OH213549   2.925   5.831   1.968  0.6680  0.4000 -0.2908
 4537TIP3    H113550   2.989   5.789   2.026 -0.8702 -0.5637  0.7506
 4537TIP3    H213551   2.898   5.910   2.014 -0.5964 -0.3954  0.3771
 4538TIP3   OH213552   4.798   4.430   2.294  0.4042 -0.3099 -0.4700
 4538TIP3    H113553   4.794   4.371   2.369 -0.2556  1.0417  0.5977
 4538TIP3    H213554   4.743   4.388   2.228 -0.0413 -0.9081  0.2659
 4539TIP3   OH213555   4.840   3.898   3.131  0.6234  0.4184  0.2169
 4539TIP3    H113556   4.787   3.978   3.133 -0.0907 -0.0696  1.6328
 4539TIP3    H213557   4.869   3.887   3.222  1.8274 -0.2102 -0.2330
 4540TIP3   OH213558   3.015   5.977   3.118 -0.2152  0.2095 -0.5444
 4540TIP3    H113559   3.082   6.038   3.087  0.2557 -0.5799 -1.1132
 4540TIP3    H213560   2.939   5.997   3.064  0.0029  0.1521 -0.8781
 4541TIP3   OH213561   2.221   4.908   2.529 -0.4869 -0.2334  0.0116
 4541TIP3    H113562   2.284   4.979   2.542  0.1903 -0.1362 -3.4175
 4541TIP3    H213563   2.135   4.950   2.535 -0.1613  0.2761  1.1606
 4542TIP3   OH213564   2.476   6.680   0.596 -0.4378 -0.4386 -0.1185
 4542TIP3    H113565   2.425   6.689   0.515 -0.1466  1.7832 -0.0739
 4542TIP3    H213566   2.441   6.747   0.654  0.5658 -0.8444  0.9696
 4543TIP3   OH213567   4.357   3.727   0.842 -0.0278  0.8485  0.3599
 4543TIP3    H113568   4.401   3.808   0.867  1.6016  0.6413 -1.6263
 4543TIP3    H213569   4.427   3.672   0.806 -1.4811 -0.5558 -0.3971
 4544TIP3   OH213570   2.889   4.520   1.545 -0.6008 -0.4424 -0.0757
 4544TIP3    H113571   2.822   4.518   1.476 -1.0334 -2.3645  0.3763
 4544TIP3    H213572   2.940   4.440   1.531 -1.8677 -1.8538  2.9542
 4545TIP3   OH213573   3.908   7.205   2.611 -0.1021  0.4803 -0.3746
 4545TIP3    H113574   3.832   7.163   2.652  0.7351  0.2634  0.9722
 4545TIP3    H213575   3.968   7.133   2.591  1.5623  1.0184  2.3971
 4546TIP3   OH213576   3.195   5.919   0.797  0.5123 -0.0791  0.3412
 4546TIP3    H113577   3.239   6.003   0.793 -1.1691  0.7376 -1.7646
 4546TIP3    H213578   3.102   5.941   0.802  0.1018 -1.8038  0.7155
 4547TIP3   OH213579   5.312   6.043   2.115  0.2067  0.0614  0.2969
 4547TIP3    H113580   5.243   5.997   2.068  1.3977 -1.4799  0.0226
 4547TIP3    H213581   5.342   6.110   2.054  0.9015 -1.1265 -0.6787
 4548TIP3   OH213582   3.884   7.338   1.292 -0.1677 -0.2505  0.1964
 4548TIP3    H113583   3.904   7.428   1.318  1.6433 -0.2782 -1.0132
 4548TIP3    H213584   3.841   7.347   1.207 -1.7620 -0.4375  0.9650
 4549TIP3   OH213585   4.232   3.830   1.326  0.7532  0.4623 -0.2313
 4549TIP3    H113586   4.210   3.742   1.355 -1.4224  0.5742 -1.4770
 4549TIP3    H213587   4.312   3.819   1.274  0.1860 -0.8326 -0.8287
 4550TIP3   OH213588   2.556   5.083   0.610 -0.2169 -0.1013  0.6313
 4550TIP3    H113589   2.615   5.159   0.600 -1.1201  0.6759  1.1357
 4550TIP3    H213590   2.493   5.093   0.538 -1.1082  0.3449  1.4638
 4551TIP3   OH213591   4.181   4.827   2.496 -0.3302  0.4898  0.0785
 4551TIP3    H113592   4.097   4.855   2.531 -0.6645 -1.6248  1.0357
 4551TIP3    H213593   4.233   4.907   2.491 -2.2574  1.7527 -0.1686
 4552TIP3   OH213594   4.607   5.374   3.408 -0.0388 -0.0542 -0.0356
 4552TIP3    H113595   4.600   5.370   3.503 -2.0845  1.8019 -0.0680
 4552TIP3    H213596   4.519   5.357   3.376  0.7922 -1.4680 -1.6510
 4553TIP3   OH213597   0.283   6.491   2.366 -0.1869 -0.5675  0.4927
 4553TIP3    H113598   0.293   6.398   2.390 -1.5140 -0.9208 -0.2761
 4553TIP3    H213599   0.335   6.501   2.287 -0.6074 -0.8160  0.1877
 4554TIP3   OH213600   6.054   6.991   1.047 -0.2613 -0.6470  0.3454
 4554TIP3    H113601   6.141   6.971   1.013  0.8542 -0.8733  3.2259
 4554TIP3    H213602   6.034   7.078   1.014  1.9968  0.3043  1.4253
 4555TIP3   OH213603   3.671   5.729   2.012 -0.6210  0.2765  0.0423
 4555TIP3    H113604   3.757   5.694   2.037 -0.3294  0.7778 -0.2384
 4555TIP3    H213605   3.684   5.824   2.011 -1.2794  0.3717  0.3498
 4556TIP3   OH213606   5.148   6.824   1.449  0.0433  0.3755 -0.0656
 4556TIP3    H113607   5.232   6.864   1.470 -0.1168  0.4626  0.4015
 4556TIP3    H213608   5.147   6.819   1.353  0.1099  1.3688 -0.1195
 4557TIP3   OH213609   0.069   0.085   1.512  0.1370 -0.0275  0.2996
 4557TIP3    H113610  -0.006   0.113   1.459  0.4660 -0.8980 -0.6356
 4557TIP3    H213611   0.141   0.141   1.483 -0.1145  0.7582  1.1466
 4558TIP3   OH213612   4.763   4.792   0.090 -0.6025  0.3713 -0.2624
 4558TIP3    H113613   4.723   4.877   0.078 -0.7909  0.2798 -0.2793
 4558TIP3    H213614   4.785   4.788   0.183  0.1275  0.7551 -0.4122
 4559TIP3   OH213615   3.251   4.575   1.068  0.1326 -0.3551  0.2816
 4559TIP3    H113616   3.199   4.650   1.099 -1.8741 -2.4043  2.0817
 4559TIP3    H213617   3.298   4.545   1.145  0.5860 -1.1988 -0.3120
 4560TIP3   OH213618   2.351   6.198   1.901 -0.3461 -0.1402  0.8030
 4560TIP3    H113619   2.395   6.143   1.837 -0.5987  0.8146 -0.2089
 4560TIP3    H213620   2.281   6.143   1.937  1.8407 -1.7855  2.6775
 4561TIP3   OH213621   2.209   5.425   3.005  0.3965  0.3751  0.4739
 4561TIP3    H113622   2.206   5.451   2.913  0.4253  1.5436  0.7817
 4561TIP3    H213623   2.283   5.476   3.041  0.5702 -0.2943  1.0680
 4562TIP3   OH213624   3.624   4.498   1.638 -0.0009  0.6289  0.3294
 4562TIP3    H113625   3.714   4.519   1.611 -0.4113  0.7977 -0.9131
 4562TIP3    H213626   3.620   4.527   1.729  0.5957  2.4873 -0.2111
 4563TIP3   OH213627   0.920   6.924   2.375 -0.0770  0.0090  0.4176
 4563TIP3    H113628   0.971   6.926   2.456 -1.1614  1.3945  1.0847
 4563TIP3    H213629   0.830   6.942   2.403 -0.7693 -1.3996 -0.8675
 4564TIP3   OH213630   7.538   1.620   6.501 -0.1981 -0.4656 -0.9340
 4564TIP3    H113631   7.603   1.676   6.459  2.3246 -2.5326  0.1144
 4564TIP3    H213632   7.538   1.540   6.449  0.7088 -1.8444  1.1295
 4565TIP3   OH213633   1.178   7.096   2.707 -0.7683  0.2354 -0.0272
 4565TIP3    H113634   1.138   7.138   2.783 -2.1004  0.4528 -0.8397
 4565TIP3    H213635   1.115   7.028   2.681  0.7521 -1.4134  0.4709
 4566TIP3   OH213636   1.985   4.294   3.025 -0.2800 -0.3256 -0.3574
 4566TIP3    H113637   1.963   4.214   3.072 -0.5079  0.8989  1.6526
 4566TIP3    H213638   1.902   4.325   2.988 -0.2040 -0.9539 -1.0709
 4567TIP3   OH213639   3.900   5.605   1.518  0.1452  0.2661  0.3322
 4567TIP3    H113640   3.955   5.571   1.589 -0.2629  1.0683  1.0508
 4567TIP3    H213641   3.959   5.660   1.467  0.6451 -0.9870 -0.4496
 4568TIP3   OH213642   2.492   6.189   2.826 -0.4498 -0.2087 -0.1000
 4568TIP3    H113643   2.554   6.213   2.758 -0.2523  0.3195  0.2625
 4568TIP3    H213644   2.419   6.251   2.816  0.0835  0.5846  0.8666
 4569TIP3   OH213645   3.698   7.625   0.224  0.6401  0.0468 -0.0414
 4569TIP3    H113646   3.783   7.654   0.189  1.7468 -0.2005  2.3695
 4569TIP3    H213647   3.695   7.531   0.206  0.3496  0.2576 -1.1500
 4570TIP3   OH213648   3.711   6.866   2.917 -0.0901  0.4456 -0.2614
 4570TIP3    H113649   3.645   6.798   2.920 -0.3758  0.7342  0.0275
 4570TIP3    H213650   3.732   6.884   3.009 -0.4349  1.1483 -0.3138
 4571TIP3   OH213651   0.267   2.886   6.702 -0.1682  0.0672 -0.1363
 4571TIP3    H113652   0.327   2.949   6.662 -0.1614 -0.0894 -0.3702
 4571TIP3    H213653   0.323   2.814   6.730 -0.2478 -0.0766 -0.3493
 4572TIP3   OH213654   1.860   5.279   2.172  0.1846 -0.0789  0.1040
 4572TIP3    H113655   1.799   5.351   2.154 -2.3970 -1.8861  1.2531
 4572TIP3    H213656   1.821   5.204   2.127  2.0665 -1.0898  0.1270
 4573TIP3   OH213657   5.297   4.577   1.203 -0.4156  0.7026 -0.0630
 4573TIP3    H113658   5.317   4.658   1.158  0.1185  0.5336 -0.1285
 4573TIP3    H213659   5.355   4.576   1.279 -1.7600  1.2960  0.9917
 4574TIP3   OH213660   1.907   6.002   4.331 -0.6187 -0.0972  0.2609
 4574TIP3    H113661   1.912   6.014   4.236  2.3185  1.3014  0.5401
 4574TIP3    H213662   1.889   5.909   4.343  0.4735 -0.5774 -1.6486
 4575TIP3   OH213663   4.198   2.279   1.134  0.2279 -0.3335 -0.2392
 4575TIP3    H113664   4.260   2.308   1.067 -0.1998 -2.3997 -1.6063
 4575TIP3    H213665   4.250   2.229   1.196  0.1106 -1.2598 -0.8720
 4576TIP3   OH213666   3.606   4.932   2.939 -0.0510  0.0663 -0.1058
 4576TIP3    H113667   3.578   5.006   2.993 -0.7634 -0.8426  0.7919
 4576TIP3    H213668   3.525   4.899   2.899  0.1255 -0.7801  0.2133
 4577TIP3   OH213669   4.466   5.232   1.045 -0.1204  0.2229 -0.4237
 4577TIP3    H113670   4.477   5.295   1.116 -0.6253 -0.6572  0.4428
 4577TIP3    H213671   4.518   5.157   1.071  1.1295  0.5636 -1.8344
 4578TIP3   OH213672   3.299   3.799   1.785  0.5923  0.2424 -0.4611
 4578TIP3    H113673   3.390   3.824   1.772  0.9223 -0.6869  0.0184
 4578TIP3    H213674   3.259   3.808   1.699  1.3480 -0.2062 -0.8631
 4579TIP3   OH213675   4.034   6.775   1.889 -0.2238  0.4378  0.2444
 4579TIP3    H113676   4.000   6.864   1.879  2.1029  1.2083 -1.1800
 4579TIP3    H213677   4.021   6.754   1.982  0.6057  2.8417  0.9280
 4580TIP3   OH213678   3.904   5.671   2.146 -0.0861  0.6563 -0.2575
 4580TIP3    H113679   3.894   5.579   2.172  1.1274  0.0635 -1.7500
 4580TIP3    H213680   3.930   5.716   2.226 -0.3916 -0.3580  0.4304
 4581TIP3   OH213681   3.217   4.306   2.741 -0.1174  0.4354  0.0636
 4581TIP3    H113682   3.207   4.223   2.788 -1.9740  0.7596  0.2760
 4581TIP3    H213683   3.163   4.295   2.663  1.5832  0.5457 -1.1724
 4582TIP3   OH213684   2.509   5.397   1.489 -0.1699  0.6148 -0.2362
 4582TIP3    H113685   2.498   5.468   1.551 -0.7540  1.1275 -0.9133
 4582TIP3    H213686   2.527   5.320   1.543 -0.0891  1.1641  0.5268
 4583TIP3   OH213687   2.212   6.015   2.077  0.6823 -0.1268  0.3621
 4583TIP3    H113688   2.282   6.066   2.118  0.7983 -0.4489  0.5610
 4583TIP3    H213689   2.234   5.924   2.096  0.9586 -0.2993 -0.7535
 4584TIP3   OH213690   3.128   6.850   0.948 -0.1182  0.6032  0.0010
 4584TIP3    H113691   3.153   6.760   0.969  2.7713  1.0474 -1.3439
 4584TIP3    H213692   3.194   6.903   0.992 -0.0328  1.9377 -1.7158
 4585TIP3   OH213693   1.713   5.758   1.710  0.1540  0.0231 -0.9805
 4585TIP3    H113694   1.725   5.686   1.773  0.7172  0.6516 -0.3540
 4585TIP3    H213695   1.622   5.752   1.683 -0.2995  0.2017  0.4799
 4586TIP3   OH213696   1.139   6.241   2.404  0.1598 -0.6105 -0.0288
 4586TIP3    H113697   1.077   6.230   2.476 -0.2585 -0.8583 -0.4240
 4586TIP3    H213698   1.211   6.293   2.442 -1.2571  1.4861 -0.1444
 4587TIP3   OH213699   1.533   4.130   1.248  0.0050 -0.0727  0.1167
 4587TIP3    H113700   1.575   4.142   1.163  1.0165 -1.6791  0.3717
 4587TIP3    H213701   1.461   4.192   1.248  0.1730  0.1459 -1.8099
 4588TIP3   OH213702   3.032   7.188   2.537  0.6601  0.2019 -0.1717
 4588TIP3    H113703   3.015   7.275   2.501  2.1243  0.8000  0.5014
 4588TIP3    H213704   3.027   7.200   2.632  1.6054 -0.2723 -0.0556
 4589TIP3   OH213705   3.851   3.555   2.934  0.2183  0.4655 -0.7183
 4589TIP3    H113706   3.944   3.572   2.916 -0.0503 -0.2895 -2.9377
 4589TIP3    H213707   3.821   3.632   2.981  1.4369  1.7181 -1.9519
 4590TIP3   OH213708   2.393   6.116   3.303  0.7540  0.1815  0.9700
 4590TIP3    H113709   2.386   6.210   3.289  0.0885  0.0470  0.3565
 4590TIP3    H213710   2.355   6.077   3.224  0.3461 -0.5925  1.5348
 4591TIP3   OH213711   0.488   2.446   1.075  0.3379  0.1714  0.1602
 4591TIP3    H113712   0.495   2.385   1.002 -0.2389  0.8976 -0.5115
 4591TIP3    H213713   0.417   2.411   1.129 -0.5027  0.6340 -0.6192
 4592TIP3   OH213714   1.306   4.229   1.647  0.3927  0.4940  0.0318
 4592TIP3    H113715   1.350   4.230   1.732  0.4030  0.1001  0.0328
 4592TIP3    H213716   1.376   4.215   1.584  0.6507  2.6648 -0.2176
 4593TIP3   OH213717   5.141   5.137   0.270  0.0389  0.0914  0.0191
 4593TIP3    H113718   5.074   5.168   0.210 -2.0074 -0.6032  1.8764
 4593TIP3    H213719   5.183   5.216   0.304 -1.4391  0.6461  0.5921
 4594TIP3   OH213720   6.019   7.213   2.147 -0.1922 -0.7316  0.0716
 4594TIP3    H113721   5.956   7.181   2.082 -0.3263  0.7319 -0.5400
 4594TIP3    H213722   6.092   7.245   2.095 -0.8406  1.6079  0.5555
 4595TIP3   OH213723   2.931   5.322   2.246 -0.1663  0.1033  0.4381
 4595TIP3    H113724   2.964   5.281   2.165 -0.0597 -0.3281  0.6973
 4595TIP3    H213725   2.987   5.398   2.259 -0.0373  0.0450  0.2313
 4596TIP3   OH213726   4.095   4.628   0.504 -0.0795 -0.3040  0.2905
 4596TIP3    H113727   4.085   4.723   0.503 -1.1012 -0.4037 -0.1994
 4596TIP3    H213728   4.162   4.611   0.570  0.5991  0.7975 -0.1079
 4597TIP3   OH213729   3.343   6.665   0.371 -0.2018  0.2376  0.3585
 4597TIP3    H113730   3.254   6.695   0.389 -0.0970  0.8881 -0.1980
 4597TIP3    H213731   3.396   6.703   0.441 -0.2676  0.3235  0.3609
 4598TIP3   OH213732   2.541   4.188   1.393  0.4148 -0.2711  0.2239
 4598TIP3    H113733   2.587   4.264   1.358  0.9493 -0.1795  1.1044
 4598TIP3    H213734   2.477   4.224   1.453 -1.7328 -0.3228 -1.9767
 4599TIP3   OH213735   2.456   4.344   2.856  0.3595  0.1119 -0.0486
 4599TIP3    H113736   2.383   4.346   2.918  0.0162 -1.7484 -0.3328
 4599TIP3    H213737   2.454   4.429   2.814 -0.2726  0.8986  1.5117
 4600TIP3   OH213738   6.670   0.332   1.868  0.7245  0.2662 -0.4726
 4600TIP3    H113739   6.620   0.271   1.814  0.1791  0.0661  0.2509
 4600TIP3    H213740   6.672   0.413   1.817 -0.2318  0.2371 -0.5650
 4601TIP3   OH213741   2.038   1.763   6.666  0.1326  0.6451  0.4288
 4601TIP3    H113742   2.121   1.784   6.709  0.5045  0.0140  0.0284
 4601TIP3    H213743   1.986   1.721   6.735  1.0520 -1.1520  0.0390
 4602TIP3   OH213744   3.313   3.119   0.934 -0.2027 -0.3399 -0.1469
 4602TIP3    H113745   3.244   3.056   0.917 -0.3225 -0.2697  0.0676
 4602TIP3    H213746   3.285   3.199   0.888 -1.0937  0.2031  1.3080
 4603TIP3   OH213747   4.719   5.580   1.269  0.4090  0.1992  0.1108
 4603TIP3    H113748   4.676   5.536   1.195 -0.1819  0.2756  0.4079
 4603TIP3    H213749   4.761   5.509   1.318 -0.5477 -0.0503  0.5941
 4604TIP3   OH213750   1.256   5.907   0.903 -0.2971  0.7210 -0.3235
 4604TIP3    H113751   1.220   5.819   0.888 -0.0465  0.3663  1.0880
 4604TIP3    H213752   1.194   5.949   0.963 -1.1380  2.0166 -2.0560
 4605TIP3   OH213753   3.954   5.508   0.752  0.0599  0.0611  0.5110
 4605TIP3    H113754   4.019   5.520   0.684  0.6401  0.7404  1.1754
 4605TIP3    H213755   3.904   5.431   0.725  1.5590 -0.8627  0.3337
 4606TIP3   OH213756   2.859   3.841   3.153 -0.5825 -0.5676 -0.4029
 4606TIP3    H113757   2.943   3.859   3.195 -1.2422  1.9699 -0.1135
 4606TIP3    H213758   2.795   3.847   3.224 -1.3778  0.7800 -1.2211
 4607TIP3   OH213759   7.047   4.585   2.749  0.3780  0.1167 -0.4624
 4607TIP3    H113760   6.972   4.643   2.738 -1.2020 -1.6716  0.5883
 4607TIP3    H213761   7.107   4.610   2.678 -1.0604  1.7657 -1.1385
 4608TIP3   OH213762   7.321   0.362   0.434  0.1131  0.7252 -0.2680
 4608TIP3    H113763   7.363   0.359   0.520 -0.5344  1.0675  0.0550
 4608TIP3    H213764   7.234   0.396   0.450 -0.6918 -1.0415 -0.7892
 4609TIP3   OH213765   2.907   5.585   0.039 -0.0440 -0.2463 -0.5588
 4609TIP3    H113766   2.987   5.628   0.010  0.6899 -2.4823 -1.9610
 4609TIP3    H213767   2.934   5.528   0.111 -0.3423 -1.0449 -1.0689
 4610TIP3   OH213768   1.184   7.220   1.683 -0.1706  0.3952  0.2161
 4610TIP3    H113769   1.237   7.296   1.710 -0.3644 -0.4130  3.0172
 4610TIP3    H213770   1.097   7.238   1.718 -0.7079 -0.2872 -0.7297
 4611TIP3   OH213771   3.632   6.185   0.233 -0.4508 -0.4009 -0.1064
 4611TIP3    H113772   3.591   6.183   0.320 -2.4043 -3.1996 -1.0269
 4611TIP3    H213773   3.573   6.239   0.181  0.4077  0.7779  0.1147
 4612TIP3   OH213774   1.047   4.433   2.288  0.0269 -0.4089 -0.0640
 4612TIP3    H113775   1.105   4.358   2.297  0.4359  0.0529  1.1961
 4612TIP3    H213776   1.104   4.509   2.298 -0.9294  0.0455  2.1497
 4613TIP3   OH213777   4.773   5.829   1.399  0.6566  0.3214 -0.1367
 4613TIP3    H113778   4.755   5.826   1.493 -1.6921 -0.3416 -0.5831
 4613TIP3    H213779   4.781   5.737   1.373 -1.1357  0.3986 -1.0207
 4614TIP3   OH213780   3.006   6.259   2.494 -0.4107 -0.4058 -0.3192
 4614TIP3    H113781   2.984   6.182   2.546 -2.8509  1.5954  1.7045
 4614TIP3    H213782   3.098   6.277   2.516 -0.5148 -1.3609  0.9643
 4615TIP3   OH213783   2.765   5.927   1.669  0.6370 -0.0939 -0.1461
 4615TIP3    H113784   2.834   5.861   1.678 -0.9584 -2.1786 -2.2205
 4615TIP3    H213785   2.802   5.992   1.609  1.2806 -0.5443 -0.2462
 4616TIP3   OH213786   2.865   7.267   1.575 -0.1149  0.4954 -0.3631
 4616TIP3    H113787   2.903   7.233   1.494  0.1324  0.1039 -0.0859
 4616TIP3    H213788   2.889   7.203   1.642  1.3892  1.7989  0.3879
 4617TIP3   OH213789   5.465   0.096   3.643 -0.3963 -0.1768 -0.0471
 4617TIP3    H113790   5.472   0.188   3.618  1.1790 -0.2416  0.1049
 4617TIP3    H213791   5.539   0.054   3.600 -0.4993 -1.1857  0.7441
 4618TIP3   OH213792   4.569   6.183   2.347  0.1390  0.4011  0.1609
 4618TIP3    H113793   4.476   6.162   2.343  0.3082 -0.3490  0.0573
 4618TIP3    H213794   4.601   6.136   2.425  0.3801  0.8603  0.3437
 4619TIP3   OH213795   2.486   4.308   1.645 -0.1089  0.1261 -0.4070
 4619TIP3    H113796   2.474   4.339   1.735 -0.3488  0.6865 -0.6271
 4619TIP3    H213797   2.547   4.235   1.653  0.1940  0.4328  0.1626
 4620TIP3   OH213798   3.297   6.112   1.573 -0.3307 -0.2807  0.3259
 4620TIP3    H113799   3.237   6.166   1.624 -0.7010  0.7384 -1.1298
 4620TIP3    H213800   3.241   6.073   1.505  0.3833 -0.4862 -0.1537
 4621TIP3   OH213801   3.266   7.259   1.783 -0.1992  0.0008 -0.0912
 4621TIP3    H113802   3.242   7.335   1.730  1.7530  0.5309 -0.2679
 4621TIP3    H213803   3.191   7.201   1.778 -0.8303  0.9386 -1.7918
 4622TIP3   OH213804   3.774   4.250   2.130  0.2780  0.4575 -0.5580
 4622TIP3    H113805   3.745   4.176   2.184  1.6257 -0.2683 -0.7859
 4622TIP3    H213806   3.761   4.220   2.040 -1.6009  1.5123 -0.6508
 4623TIP3   OH213807   5.192   6.120   3.206  0.6405  0.5958  0.0726
 4623TIP3    H113808   5.221   6.032   3.182  0.5624  0.2691  1.1207
 4623TIP3    H213809   5.141   6.151   3.131 -0.5681 -0.8326  0.2967
 4624TIP3   OH213810   4.600   0.084   3.262 -0.0119 -0.1462  0.1056
 4624TIP3    H113811   4.632  -0.005   3.247  0.3171 -0.0037 -0.0614
 4624TIP3    H213812   4.543   0.102   3.187  2.0667  0.7639 -1.3206
 4625TIP3   OH213813   8.369   1.838   6.199  0.0281  0.1570 -0.1413
 4625TIP3    H113814   8.395   1.746   6.197 -1.8584 -0.3950  0.3532
 4625TIP3    H213815   8.452   1.886   6.194  0.9394 -1.5410 -1.9199
 4626TIP3   OH213816   2.282   6.155   0.122  0.3774 -0.5044  0.3948
 4626TIP3    H113817   2.350   6.157   0.188 -0.1071 -0.0016  0.8945
 4626TIP3    H213818   2.293   6.072   0.076  1.7722 -0.0980 -0.0097
 4627TIP3   OH213819   0.401   5.910   2.404 -0.1954  0.2266 -0.8875
 4627TIP3    H113820   0.361   5.990   2.369  0.3807  2.0095  2.3359
 4627TIP3    H213821   0.375   5.908   2.496  3.5229 -0.8385  0.2231
 4628TIP3   OH213822   4.487   4.475   1.337 -0.2374  0.1949 -0.1825
 4628TIP3    H113823   4.563   4.416   1.332 -1.2772 -1.1968  0.1161
 4628TIP3    H213824   4.428   4.432   1.399 -1.6991  0.7649 -1.1641
 4629TIP3   OH213825   2.922   7.388   0.608  0.1062 -0.0688 -0.0550
 4629TIP3    H113826   2.927   7.482   0.590  0.2056 -0.0381  0.1216
 4629TIP3    H213827   2.841   7.359   0.567  0.7277 -0.1585 -1.2227
 4630TIP3   OH213828   3.150   7.898   0.809  0.4719 -0.5537  0.0724
 4630TIP3    H113829   3.117   7.809   0.806  0.3519 -0.5040 -0.0288
 4630TIP3    H213830   3.191   7.912   0.724 -0.1713 -0.2529 -0.1868
 4631TIP3   OH213831   6.226   7.329   6.752 -0.3573  0.3692 -0.3882
 4631TIP3    H113832   6.182   7.327   6.838  1.1825  1.3628  0.4460
 4631TIP3    H213833   6.208   7.417   6.719 -0.0574  0.3450 -0.6144
 4632TIP3   OH213834   3.415   5.541   3.354 -0.4762 -0.0763 -0.1681
 4632TIP3    H113835   3.495   5.494   3.330  0.2090  0.2439  1.4475
 4632TIP3    H213836   3.445   5.623   3.392 -1.5729  0.0408  0.4709
 4633TIP3   OH213837   0.788   6.453   0.495  0.0812 -0.2081  0.1143
 4633TIP3    H113838   0.782   6.405   0.412 -0.4005  0.5038 -0.2721
 4633TIP3    H213839   0.698   6.452   0.529 -0.6198  3.0577 -1.4253
 4634TIP3   OH213840   3.499   7.245   2.835  0.3610  0.1622  0.1427
 4634TIP3    H113841   3.497   7.252   2.930 -0.1759 -0.2689  0.1666
 4634TIP3    H213842   3.563   7.176   2.817 -0.0681 -0.2536  0.2184
 4635TIP3   OH213843   4.028   5.367   2.728  0.0657  0.5459  0.3316
 4635TIP3    H113844   4.086   5.434   2.691 -0.9790  1.6224  0.6120
 4635TIP3    H213845   4.087   5.303   2.766  1.0968  1.5048  0.3820
 4636TIP3   OH213846   4.231   4.859   0.728 -0.4243  0.5087 -0.2118
 4636TIP3    H113847   4.270   4.872   0.814  0.8781 -0.4558 -0.6487
 4636TIP3    H213848   4.137   4.873   0.742 -0.3432 -0.5821  1.5427
 4637TIP3   OH213849   5.491   5.179   2.087  0.2030 -0.2427  0.5319
 4637TIP3    H113850   5.507   5.273   2.083 -0.5078 -0.1851 -1.6354
 4637TIP3    H213851   5.567   5.144   2.134  0.6307  1.3778  1.0808
 4638TIP3   OH213852   1.913   2.704   5.949  0.4587 -0.1130  0.3425
 4638TIP3    H113853   1.932   2.759   5.874  0.8211  1.1148  1.3217
 4638TIP3    H213854   1.887   2.765   6.018  0.3668 -1.1998  1.2864
 4639TIP3   OH213855   8.231   2.595   6.911  0.1191  0.3268 -0.1323
 4639TIP3    H113856   8.150   2.551   6.939 -0.5561  0.4312 -1.8666
 4639TIP3    H213857   8.227   2.681   6.954 -1.0897  0.6278 -0.8067
 4640TIP3   OH213858   4.424   7.598   1.435 -0.2644 -0.2282  0.1197
 4640TIP3    H113859   4.377   7.609   1.518  0.7624 -1.0093  0.8273
 4640TIP3    H213860   4.415   7.505   1.414 -0.8117  0.0358 -0.8383
 4641TIP3   OH213861   3.307   2.677   2.597  0.2065  0.8545 -0.3270
 4641TIP3    H113862   3.389   2.689   2.550  0.7631  1.2040  0.7027
 4641TIP3    H213863   3.241   2.721   2.543  0.5381 -0.2064 -1.6039
 4642TIP3   OH213864   0.616   6.139   2.111 -0.8484 -0.0956 -0.3409
 4642TIP3    H113865   0.677   6.194   2.062 -1.5872  1.4096  0.3825
 4642TIP3    H213866   0.529   6.170   2.084 -1.2686 -0.9140  0.0691
 4643TIP3   OH213867   1.367   7.434   2.782  0.6935 -0.1426  0.0863
 4643TIP3    H113868   1.445   7.397   2.740  0.1556 -2.7304  1.2877
 4643TIP3    H213869   1.402   7.493   2.848  1.6300 -0.6298  0.0374
 4644TIP3   OH213870   4.972   7.954   3.153 -0.4970 -0.8124 -0.3090
 4644TIP3    H113871   4.924   8.034   3.133 -0.5184 -0.6804  0.2570
 4644TIP3    H213872   5.047   7.983   3.205 -0.3676 -1.1289 -0.3169
 4645TIP3   OH213873   6.749   3.289   6.446 -0.6592  0.1969  0.2500
 4645TIP3    H113874   6.681   3.326   6.501  0.0419  2.1334 -0.1704
 4645TIP3    H213875   6.831   3.321   6.484 -0.0549 -0.5396 -0.4049
 4646TIP3   OH213876   4.565   5.114   0.674 -0.0637 -0.3092 -0.4342
 4646TIP3    H113877   4.605   5.187   0.722 -0.7185 -0.2135 -0.0281
 4646TIP3    H213878   4.485   5.095   0.722 -0.7982 -0.1319 -1.5689
 4647TIP3   OH213879   1.161   3.476   6.812 -0.2512 -0.1673 -0.3254
 4647TIP3    H113880   1.088   3.435   6.859 -0.2275  0.0594 -0.0852
 4647TIP3    H213881   1.233   3.413   6.818 -0.6233 -0.6730 -1.1257
 4648TIP3   OH213882   3.504   7.764   1.951 -0.5362 -0.2227  0.5218
 4648TIP3    H113883   3.448   7.821   1.899  0.3786 -0.5365 -0.8442
 4648TIP3    H213884   3.447   7.692   1.979 -0.9304 -0.2809 -0.4250
 4649TIP3   OH213885   4.023   5.963   2.024  0.0325 -0.2433 -0.1782
 4649TIP3    H113886   4.067   5.953   1.939 -0.6676  4.1924 -1.2000
 4649TIP3    H213887   3.930   5.955   2.004 -0.0772 -0.2210  0.3323
 4650TIP3   OH213888   2.672   6.305   1.125 -0.3381  0.0526  0.2427
 4650TIP3    H113889   2.633   6.386   1.095  0.9681  0.1858 -1.1482
 4650TIP3    H213890   2.600   6.242   1.125 -0.2352 -0.1796 -4.0894
 4651TIP3   OH213891   6.014   6.072   0.701 -0.4435 -0.8054  0.3323
 4651TIP3    H113892   5.930   6.074   0.745 -0.4657  0.7064  0.2332
 4651TIP3    H213893   6.000   6.018   0.624 -0.5203 -3.0986  1.9099
 4652TIP3   OH213894   3.894   5.311   1.891 -0.1016  0.1598 -0.1952
 4652TIP3    H113895   3.844   5.231   1.903 -1.6807  1.1560 -0.0087
 4652TIP3    H213896   3.984   5.281   1.876 -0.6211 -1.6196  0.1349
 4653TIP3   OH213897   2.849   6.609   0.965  0.5453 -0.2313 -0.3352
 4653TIP3    H113898   2.890   6.606   1.052 -0.4459 -2.0243  0.0954
 4653TIP3    H213899   2.785   6.680   0.972  3.2397  2.3630 -0.9086
 4654TIP3   OH213900   3.221   6.242   2.718  0.8474  0.7716  0.5003
 4654TIP3    H113901   3.285   6.299   2.675 -0.4183  1.1322 -0.9469
 4654TIP3    H213902   3.150   6.301   2.745  0.9192  0.3206  1.7447
 4655TIP3   OH213903   3.596   5.416   1.786  0.5825  0.1904 -0.1993
 4655TIP3    H113904   3.689   5.405   1.766  0.4643 -0.1076 -0.5757
 4655TIP3    H213905   3.591   5.402   1.881  1.1012  1.3997  0.0212
 4656TIP3   OH213906   3.463   6.931   2.656 -0.2235 -0.3690 -0.0336
 4656TIP3    H113907   3.441   6.901   2.568  0.4082 -1.6512  0.2355
 4656TIP3    H213908   3.437   6.859   2.713  2.6293 -1.0693  0.4811
 4657TIP3   OH213909   2.000   7.591   4.186  0.5072  0.3945  0.2423
 4657TIP3    H113910   1.930   7.527   4.197 -0.3704  1.4042  0.6479
 4657TIP3    H213911   2.071   7.558   4.241 -0.6907  0.8328  2.1234
 4658TIP3   OH213912   3.026   6.366  -0.027  0.0644  0.3990  0.1707
 4658TIP3    H113913   2.972   6.351   0.051 -0.8737  1.2179 -0.3010
 4658TIP3    H213914   3.110   6.396   0.006  0.7506 -2.3275  0.9799
 4659TIP3   OH213915   3.407   6.163   1.072 -0.1963  0.2147  0.2485
 4659TIP3    H113916   3.357   6.083   1.082  0.5651 -0.1412  1.3621
 4659TIP3    H213917   3.390   6.212   1.153  1.6101 -0.1457  0.8834
 4660TIP3   OH213918   5.379   4.807   2.774 -0.2665  0.4094 -0.2089
 4660TIP3    H113919   5.357   4.886   2.725  0.3401 -1.6565 -3.9591
 4660TIP3    H213920   5.454   4.833   2.828 -2.2837  3.3122  1.3176
 4661TIP3   OH213921   2.518   5.521   2.294  0.5402  0.3713  0.2172
 4661TIP3    H113922   2.445   5.526   2.231  1.2116 -0.8753 -0.6806
 4661TIP3    H213923   2.497   5.447   2.350 -0.2027  1.6591  1.6973
 4662TIP3   OH213924   5.000   5.534   2.933  0.4117 -0.5399  0.0004
 4662TIP3    H113925   4.932   5.489   2.885 -0.0475  1.1488 -0.9777
 4662TIP3    H213926   5.033   5.600   2.872 -0.8083  2.2508  2.2229
 4663TIP3   OH213927   1.442   5.330   1.751  0.1728  0.0736  0.5137
 4663TIP3    H113928   1.522   5.311   1.702 -0.7896 -1.2962 -0.5610
 4663TIP3    H213929   1.473   5.366   1.834  1.9196 -0.6965  0.2201
 4664TIP3   OH213930   2.767   5.582   3.162  0.0692  0.3741  0.1290
 4664TIP3    H113931   2.784   5.494   3.194 -1.9189 -0.0870  0.0014
 4664TIP3    H213932   2.746   5.633   3.240  0.4753  0.5620  0.1188
 4665TIP3   OH213933   1.901   6.794   1.289  0.1670  0.0338 -0.6854
 4665TIP3    H113934   1.823   6.837   1.325 -0.0287  0.7297 -1.9031
 4665TIP3    H213935   1.873   6.705   1.270 -0.5336  0.4605 -1.7203
 4666TIP3   OH213936   2.717   5.742   4.380 -0.2208  0.1708  0.0678
 4666TIP3    H113937   2.799   5.745   4.329  0.4633  0.6258  1.1818
 4666TIP3    H213938   2.745   5.734   4.471 -1.4615 -1.7035  0.3181
 4667TIP3   OH213939   3.695   4.037   2.315  0.0609  0.3454  0.0242
 4667TIP3    H113940   3.620   4.078   2.358  0.3738  0.6066  0.3280
 4667TIP3    H213941   3.747   4.000   2.386 -1.0158 -1.9699 -0.3615
 4668TIP3   OH213942   1.954   5.580   2.272 -0.1420 -0.0808  0.1436
 4668TIP3    H113943   2.021   5.514   2.252 -0.3239  0.1914 -1.4607
 4668TIP3    H213944   1.873   5.542   2.239 -0.1364  1.2359 -1.4321
 4669TIP3   OH213945   4.504   4.696   1.741 -0.7248 -0.1952 -0.0647
 4669TIP3    H113946   4.532   4.787   1.749 -1.1555  0.0123 -0.9314
 4669TIP3    H213947   4.424   4.691   1.793 -2.2883  0.6218 -2.3272
 4670TIP3   OH213948   1.908   5.936   0.787  0.4309  1.2608  0.3070
 4670TIP3    H113949   1.959   5.948   0.867  0.8644 -0.9162  0.3782
 4670TIP3    H213950   1.856   5.857   0.803  1.3343  0.1672 -1.9581
 4671TIP3   OH213951   6.070   7.300   1.273 -0.2921  0.0917 -0.1496
 4671TIP3    H113952   6.116   7.384   1.282 -0.8000  0.4073 -0.5172
 4671TIP3    H213953   6.109   7.260   1.196 -2.4190  1.5049 -2.0091
 4672TIP3   OH213954   2.955   5.025   3.298  0.1002 -0.0896 -0.4948
 4672TIP3    H113955   3.010   5.010   3.221 -0.1755 -0.0191 -0.7066
 4672TIP3    H213956   2.889   4.956   3.294 -0.6545  0.6467 -0.9960
 4673TIP3   OH213957   1.337   7.355   1.221 -0.0277 -0.6081 -0.7982
 4673TIP3    H113958   1.422   7.336   1.259  0.4466  1.3865 -0.8334
 4673TIP3    H213959   1.276   7.352   1.295  0.3045 -0.5093 -0.5218
 4674TIP3   OH213960   3.952   7.699   0.101 -0.2114  0.5682  0.1237
 4674TIP3    H113961   3.942   7.734   0.012  0.6585 -0.5334 -0.4269
 4674TIP3    H213962   3.997   7.768   0.149  2.0768  0.0050 -1.1187
 4675TIP3   OH213963   4.579   6.471   0.553  0.2054  0.2725  0.3576
 4675TIP3    H113964   4.525   6.462   0.474  0.2683 -2.3024  0.5729
 4675TIP3    H213965   4.644   6.537   0.529 -0.9306  0.9193 -1.0780
 4676TIP3   OH213966   2.407   5.061   3.776  0.4384 -0.5293  0.0881
 4676TIP3    H113967   2.438   5.095   3.692 -0.1183 -1.2676 -0.4223
 4676TIP3    H213968   2.370   4.975   3.755  1.6721 -1.3940  1.3302
 4677TIP3   OH213969   5.487   7.361   1.490  0.3413  0.0055  0.0776
 4677TIP3    H113970   5.498   7.456   1.498  0.1373  0.2492 -2.0562
 4677TIP3    H213971   5.404   7.351   1.443 -0.2528 -1.2732  1.3790
 4678TIP3   OH213972   2.851   6.904   0.974  0.3794  0.2875 -0.0607
 4678TIP3    H113973   2.869   6.987   1.018  1.5107  0.2705 -0.4816
 4678TIP3    H213974   2.937   6.870   0.950  0.1063 -2.1547  2.1634
 4679TIP3   OH213975   4.181   6.644   2.428 -0.3948  0.4400 -0.6319
 4679TIP3    H113976   4.242   6.719   2.430  0.6368 -0.3999  1.3778
 4679TIP3    H213977   4.095   6.683   2.444  0.1881  1.1960  0.8447
 4680TIP3   OH213978   5.790   0.394   1.849  0.2124 -0.4726 -0.0179
 4680TIP3    H113979   5.834   0.470   1.887  0.3686 -1.1519  1.1839
 4680TIP3    H213980   5.852   0.360   1.784  1.2795 -1.1525  1.3351
 4681TIP3   OH213981   3.417   6.680   1.723 -0.1881 -0.0479  0.7606
 4681TIP3    H113982   3.476   6.681   1.648  0.6662  1.0550  1.4400
 4681TIP3    H213983   3.445   6.605   1.775 -2.2510 -2.2366 -1.1466
 4682TIP3   OH213984   3.999   3.043   1.421 -0.4292 -0.3542  0.5086
 4682TIP3    H113985   3.921   2.992   1.443 -0.1976 -0.1932  1.7172
 4682TIP3    H213986   4.062   3.023   1.490  1.4364 -2.1989 -1.6277
 4683TIP3   OH213987   0.022   2.590   6.342  0.3417  0.0913 -0.1466
 4683TIP3    H113988   0.009   2.657   6.409  2.1159 -0.0176  0.3352
 4683TIP3    H213989   0.011   2.635   6.259  0.0791  0.6547  0.1946
 4684TIP3   OH213990   3.359   4.917   2.544  0.2120 -0.6971 -0.7107
 4684TIP3    H113991   3.265   4.901   2.543  0.2085 -0.9581  1.2349
 4684TIP3    H213992   3.393   4.861   2.474 -1.1277 -0.1063 -1.8674
 4685TIP3   OH213993   3.637   5.897   2.711  0.2267 -0.3694 -0.0736
 4685TIP3    H113994   3.605   5.913   2.800  1.1935 -1.2895  0.4562
 4685TIP3    H213995   3.730   5.881   2.722 -0.0545 -2.7529 -0.9776
 4686TIP3   OH213996   5.987   4.858   0.256  0.2724  0.2692 -0.1993
 4686TIP3    H113997   5.922   4.929   0.258 -0.9588 -0.8356  0.1619
 4686TIP3    H213998   6.070   4.902   0.236 -0.5864  1.7090 -0.7217
 4687TIP3   OH213999   4.609   3.309   1.148  0.4015 -0.3734  0.2328
 4687TIP3    H114000   4.628   3.397   1.181  3.0387  0.3993 -3.0448
 4687TIP3    H214001   4.656   3.250   1.207 -0.0913  0.4966  1.5136
 4688TIP3   OH214002   2.481   1.123   6.708  0.0680 -0.0438 -0.5932
 4688TIP3    H114003   2.398   1.144   6.752  0.2548  0.3005 -0.4018
 4688TIP3    H214004   2.463   1.138   6.615  0.6749  2.5936 -0.3190
 4689TIP3   OH214005   4.529   4.571   2.685 -0.0372 -0.4274 -0.0012
 4689TIP3    H114006   4.468   4.588   2.613 -1.3634 -1.4850  0.8638
 4689TIP3    H214007   4.580   4.496   2.657 -0.0286 -0.3615 -0.1604
 4690TIP3   OH214008   3.198   5.115   1.413 -0.0898  0.2001  0.0966
 4690TIP3    H114009   3.195   5.104   1.318  0.0971  1.3077 -0.0421
 4690TIP3    H214010   3.143   5.191   1.430  0.8850  0.7744  0.7468
 4691TIP3   OH214011   3.275   4.479   4.116  0.0169 -0.3283  0.1521
 4691TIP3    H114012   3.367   4.494   4.134  0.0222  0.7272 -0.6829
 4691TIP3    H214013   3.232   4.561   4.142 -0.3917 -0.0308 -1.4224
 4692TIP3   OH214014   4.820   4.289   0.111  0.3916 -0.0259  0.3324
 4692TIP3    H114015   4.804   4.295   0.017  3.5289 -2.3658 -0.4514
 4692TIP3    H214016   4.778   4.367   0.147  0.3130  1.6878 -3.1833
 4693TIP3   OH214017   3.396   2.911   1.766 -0.1396  0.6807 -0.2271
 4693TIP3    H114018   3.352   2.848   1.822 -1.0020  1.0274 -0.5082
 4693TIP3    H214019   3.453   2.960   1.825 -1.2674  1.2468  0.3986
 4694TIP3   OH214020   3.873   5.294   2.449 -0.0821  0.6392  0.0925
 4694TIP3    H114021   3.829   5.278   2.533 -0.6878  4.1952  0.5182
 4694TIP3    H214022   3.966   5.284   2.468 -0.3074 -0.1494  0.8119
 4695TIP3   OH214023   3.194   4.423   2.254 -0.6781  0.2379 -0.1443
 4695TIP3    H114024   3.126   4.359   2.235  0.5342 -0.9279 -0.6674
 4695TIP3    H214025   3.204   4.472   2.173 -1.8159  1.3138  0.3487
 4696TIP3   OH214026   2.860   5.385   0.970 -0.0950 -0.1757  0.0277
 4696TIP3    H114027   2.785   5.444   0.972 -0.3193 -0.4614  0.0567
 4696TIP3    H214028   2.826   5.305   0.931 -0.5494 -1.3554  2.7752
 4697TIP3   OH214029   3.062   4.318   0.694  0.6108 -0.2252  0.1340
 4697TIP3    H114030   3.042   4.356   0.779  2.1947 -0.4197  0.6103
 4697TIP3    H214031   3.064   4.223   0.710  2.1466 -0.1972  0.1695
 4698TIP3   OH214032   5.895   7.351   5.887  0.5712 -0.1826 -0.2875
 4698TIP3    H114033   5.979   7.355   5.933 -0.1805  0.0068  1.0924
 4698TIP3    H214034   5.866   7.442   5.881  0.6192 -0.2138 -1.0674
 4699TIP3   OH214035   5.255   3.111   2.601 -0.1202  0.2640 -0.3255
 4699TIP3    H114036   5.272   3.073   2.515  0.8286  0.8377 -0.3978
 4699TIP3    H214037   5.274   3.041   2.663 -0.3284  0.0003 -0.5625
 4700TIP3   OH214038   1.300   7.428   4.174  0.1256 -0.0905  0.0947
 4700TIP3    H114039   1.376   7.462   4.223  0.7835 -0.5758 -0.5894
 4700TIP3    H214040   1.226   7.444   4.233  0.4789  2.0955  0.0041
 4701TIP3   OH214041   3.962   7.362   2.850  0.4111 -0.4287  0.4560
 4701TIP3    H114042   3.957   7.310   2.770 -1.0521  1.2115 -0.5382
 4701TIP3    H214043   3.912   7.311   2.914  0.1683 -0.9105 -0.1133
 4702TIP3   OH214044   2.867   5.741   2.551 -0.5830 -0.2802 -0.1678
 4702TIP3    H114045   2.956   5.711   2.568 -0.1846  0.6747 -0.4811
 4702TIP3    H214046   2.869   5.834   2.574 -1.6622 -0.3919  0.3916
 4703TIP3   OH214047   2.764   4.656   2.883  0.3371 -0.0953 -0.6933
 4703TIP3    H114048   2.843   4.616   2.920  1.2104  2.2603  0.0658
 4703TIP3    H214049   2.702   4.660   2.956  0.4461  0.4334 -0.6289
 4704TIP3   OH214050   3.181   5.463   3.110  0.0174 -0.2115 -0.0667
 4704TIP3    H114051   3.248   5.467   3.041  0.8662  1.2943  0.7984
 4704TIP3    H214052   3.163   5.555   3.130 -2.0883 -0.6217 -0.0566
 4705TIP3   OH214053   0.838   6.376   1.261  0.2844  0.2249 -0.3280
 4705TIP3    H114054   0.779   6.304   1.282 -1.1418  1.1302 -1.1923
 4705TIP3    H214055   0.785   6.437   1.210  1.0184  2.6639  1.7303
 4706TIP3   OH214056   5.100   0.227   3.458  0.1294  0.3566 -0.0693
 4706TIP3    H114057   5.135   0.161   3.517 -3.1157 -1.7126 -0.3913
 4706TIP3    H214058   5.053   0.288   3.515 -1.2005 -0.4635 -0.2759
 4707TIP3   OH214059   6.980   1.007   1.987 -0.1634  0.1620 -0.3215
 4707TIP3    H114060   6.996   1.101   1.986 -0.4794  0.2221 -2.0692
 4707TIP3    H214061   6.936   0.991   2.070  0.0773  1.5308  0.0781
 4708TIP3   OH214062   3.672   7.379   1.508  0.4233  0.1255 -0.0255
 4708TIP3    H114063   3.659   7.353   1.599  0.6522 -0.0072 -0.0326
 4708TIP3    H214064   3.721   7.307   1.468 -1.9921 -1.0648 -0.9345
 4709TIP3   OH214065   5.726   6.045   2.975  0.2393 -0.6777  0.0589
 4709TIP3    H114066   5.701   6.093   3.054  2.3563  0.6063 -0.0268
 4709TIP3    H214067   5.737   5.955   3.005 -0.4307 -0.4902  0.9172
 4710TIP3   OH214068   2.883   5.003   1.581  0.0608  0.2072 -0.5790
 4710TIP3    H114069   2.912   4.921   1.541  2.4294  0.2071  1.0229
 4710TIP3    H214070   2.953   5.065   1.560 -0.2207  1.0109  0.8507
 4711TIP3   OH214071   3.482   6.683   3.379 -0.0978 -0.1513  0.1448
 4711TIP3    H114072   3.468   6.772   3.347 -0.9581  0.1774  1.3909
 4711TIP3    H214073   3.533   6.640   3.310  0.7017  1.4268 -0.2652
 4712TIP3   OH214074   1.893   6.364   3.325 -0.1772 -0.3242  0.3974
 4712TIP3    H114075   1.841   6.306   3.269 -0.1216  1.1899 -1.2572
 4712TIP3    H214076   1.874   6.452   3.292  1.5793  0.4274  1.3463
 4713TIP3   OH214077   4.292   4.154   1.820 -0.4005 -0.3519  0.0360
 4713TIP3    H114078   4.237   4.209   1.765 -1.9911 -1.1039  0.8319
 4713TIP3    H214079   4.303   4.073   1.770  0.6694  0.0971 -0.4714
 4714TIP3   OH214080   5.795   3.945   0.890 -0.4609  0.3008  0.0964
 4714TIP3    H114081   5.778   3.927   0.798 -1.0267 -2.7804  0.7170
 4714TIP3    H214082   5.888   3.967   0.894 -0.3025 -0.1288 -1.1384
 4715TIP3   OH214083   4.755   6.272   1.038  0.3421  0.0678  0.7102
 4715TIP3    H114084   4.830   6.281   1.098  0.4847  0.7316  0.4302
 4715TIP3    H214085   4.760   6.349   0.982 -0.6040  0.1562  0.7452
 4716TIP3   OH214086   1.350   1.280   6.843  0.6351  0.2478 -0.3127
 4716TIP3    H114087   1.277   1.271   6.904  1.4505 -1.2852  0.4695
 4716TIP3    H214088   1.421   1.318   6.896  0.9292  0.1450 -0.6292
 4717TIP3   OH214089   2.888   4.294   1.100  0.5262  0.6571 -0.1905
 4717TIP3    H114090   2.808   4.249   1.074  0.1223  1.6615 -0.7291
 4717TIP3    H214091   2.923   4.332   1.019  0.9476  1.1496  0.2125
 4718TIP3   OH214092   1.760   6.971   2.331 -0.3142 -0.4527 -0.2366
 4718TIP3    H114093   1.763   6.963   2.426 -0.4109 -2.0307 -0.3405
 4718TIP3    H214094   1.676   7.013   2.313  1.3209  3.2825  0.5238
 4719TIP3   OH214095   2.839   3.076   1.262  0.2190  0.1326 -0.1631
 4719TIP3    H114096   2.748   3.047   1.262  0.0653  0.6144 -0.1754
 4719TIP3    H214097   2.847   3.131   1.184  0.1951  1.0917  0.4995
 4720TIP3   OH214098   1.406   0.382   6.868  0.2325  0.0057 -0.1544
 4720TIP3    H114099   1.385   0.350   6.956  1.8997 -0.9893 -0.1066
 4720TIP3    H214100   1.447   0.467   6.882 -0.3886  0.2856 -0.0294
 4721TIP3   OH214101   2.208   0.224   2.289  0.0199 -0.1281  0.5813
 4721TIP3    H114102   2.139   0.212   2.354 -1.7344 -2.5606 -1.6079
 4721TIP3    H214103   2.186   0.307   2.246 -0.8056 -0.2381  0.7773
 4722TIP3   OH214104   3.294   4.821   1.496  0.8343 -0.3028 -0.0798
 4722TIP3    H114105   3.253   4.907   1.503  0.5252 -0.3741 -0.9001
 4722TIP3    H214106   3.228   4.759   1.529  0.9260 -0.2528  0.1919
 4723TIP3   OH214107   3.237   6.482   1.544  0.1983  0.0791 -0.4270
 4723TIP3    H114108   3.272   6.564   1.578  1.4800 -1.0253  0.9696
 4723TIP3    H214109   3.310   6.442   1.497  0.2656 -1.3457  0.8740
 4724TIP3   OH214110   3.806   6.065   1.738  0.3350  0.2384 -0.1069
 4724TIP3    H114111   3.843   5.984   1.704 -0.3865 -0.0837 -0.1387
 4724TIP3    H214112   3.712   6.059   1.718  0.2247  0.9378  0.1644
 4725TIP3   OH214113   8.067   0.025   0.974  0.3685  0.2334 -0.3381
 4725TIP3    H114114   8.146   0.075   0.992  1.7649 -1.7112 -1.0178
 4725TIP3    H214115   8.096  -0.066   0.966 -2.1056 -0.7079  0.7336
 4726TIP3   OH214116   2.979   5.728   2.282 -0.5016  0.0080 -0.0618
 4726TIP3    H114117   2.937   5.723   2.367  1.1782 -1.0538  0.7325
 4726TIP3    H214118   3.019   5.642   2.269  1.4885  0.9984 -0.7272
 4727TIP3   OH214119   3.323   4.824   2.237  0.0332 -0.1668 -1.0689
 4727TIP3    H114120   3.334   4.907   2.190 -0.2542  0.8805  0.6760
 4727TIP3    H214121   3.228   4.818   2.252  0.0396 -0.8810 -1.3181
 4728TIP3   OH214122   4.518   0.564   1.268  0.3222  0.0001 -0.0861
 4728TIP3    H114123   4.538   0.470   1.273 -1.3782 -0.3260  1.2536
 4728TIP3    H214124   4.487   0.577   1.178  1.0146 -0.6280 -0.4200
 4729TIP3   OH214125   3.944   4.640   3.106 -0.4480  0.3123  0.3290
 4729TIP3    H114126   3.930   4.585   3.183  0.0599  0.8431  0.8038
 4729TIP3    H214127   4.036   4.628   3.084 -1.2894 -2.2279 -2.0636
 4730TIP3   OH214128   5.022   6.739   1.673  0.3937  0.0057  0.3968
 4730TIP3    H114129   5.097   6.769   1.724  1.8629 -1.9857 -0.5093
 4730TIP3    H214130   5.054   6.736   1.583  0.0898 -3.3627  0.3200
 4731TIP3   OH214131   8.084   1.945   3.988  0.2193  0.1652 -0.0196
 4731TIP3    H114132   7.994   1.973   4.007  0.0472  0.5997 -1.3859
 4731TIP3    H214133   8.106   1.884   4.058 -1.4397 -0.5633 -0.1084
 4732TIP3   OH214134   5.148   6.507   0.410  0.4913  0.3059 -0.0472
 4732TIP3    H114135   5.229   6.552   0.385  0.5216  1.0265  1.3251
 4732TIP3    H214136   5.079   6.558   0.370  0.6249  0.6319  0.1338
 4733TIP3   OH214137   5.096   6.090   1.118  0.0267  0.2949  0.2368
 4733TIP3    H114138   5.053   6.005   1.115  2.0415 -0.7297 -0.6769
 4733TIP3    H214139   5.035   6.146   1.166 -2.5054 -0.9548 -1.4055
 4734TIP3   OH214140   1.225   1.738   6.608 -0.2212  0.9284  0.6486
 4734TIP3    H114141   1.272   1.796   6.667 -0.2474  0.2391  1.3608
 4734TIP3    H214142   1.168   1.687   6.666 -0.1655  0.1717  0.0422
 4735TIP3   OH214143   5.314   5.258   1.065 -0.1807  0.3595  0.4085
 4735TIP3    H114144   5.409   5.253   1.068 -0.1352  0.9674 -0.0125
 4735TIP3    H214145   5.292   5.340   1.110 -0.4785  0.4079  0.1827
 4736TIP3   OH214146   4.588   5.910   1.631 -0.1545  0.0342  0.0281
 4736TIP3    H114147   4.646   5.942   1.700  2.6351 -0.9422 -1.7556
 4736TIP3    H214148   4.549   5.988   1.594 -0.9729  0.6284  2.0919
 4737TIP3   OH214149   4.562   7.177   0.807 -0.4020  0.3468  0.3912
 4737TIP3    H114150   4.563   7.269   0.834 -0.4412  0.1534  1.0649
 4737TIP3    H214151   4.478   7.144   0.838  0.7659 -0.6336  2.6508
 4738TIP3   OH214152   6.661   7.692   2.667  0.3948 -0.0580 -0.2353
 4738TIP3    H114153   6.619   7.632   2.729  2.2000 -0.9152  0.2063
 4738TIP3    H214154   6.670   7.640   2.587  2.6184 -0.6852  0.3677
 4739TIP3   OH214155   4.889   6.334   0.534 -0.3963 -0.1121 -0.8348
 4739TIP3    H114156   4.822   6.321   0.602 -0.2927  1.3812 -0.4236
 4739TIP3    H214157   4.880   6.426   0.509  1.7783  0.2269 -0.4813
 4740TIP3   OH214158   2.631   2.024   6.746 -0.2065  0.1477 -0.5637
 4740TIP3    H114159   2.705   2.020   6.686  0.7327 -0.0876  0.5732
 4740TIP3    H214160   2.623   1.934   6.780 -0.9688  0.1898 -0.6181
 4741TIP3   OH214161   7.907   7.790   6.332  0.2860 -0.1171 -0.1387
 4741TIP3    H114162   7.998   7.802   6.359 -0.2042  1.8542  0.7373
 4741TIP3    H214163   7.867   7.739   6.403 -0.2169  2.3334  1.3944
 4742TIP3   OH214164   3.674   5.541   0.724 -0.2348  0.5365  0.7566
 4742TIP3    H114165   3.648   5.473   0.662 -1.5430  1.4269  0.3189
 4742TIP3    H214166   3.761   5.568   0.694 -0.5155  0.3977 -0.2081
 4743TIP3   OH214167   4.939   5.499   0.324  0.4575 -0.7159 -0.0691
 4743TIP3    H114168   5.017   5.554   0.337  0.5975 -1.0526  0.5318
 4743TIP3    H214169   4.930   5.493   0.229 -0.4213  1.5929 -0.1739
 4744TIP3   OH214170   5.573   5.327   0.991  0.0115  0.3327  0.0749
 4744TIP3    H114171   5.653   5.279   1.015  0.4456  1.2449  0.4805
 4744TIP3    H214172   5.551   5.293   0.904  0.4538 -0.4194  0.2427
 4745TIP3   OH214173   4.516   6.398   0.279  0.9918  0.4054 -0.6913
 4745TIP3    H114174   4.581   6.428   0.216  1.4913 -1.4717 -1.1215
 4745TIP3    H214175   4.500   6.307   0.254  0.9009 -0.2393  1.6358
 4746TIP3   OH214176   7.521   7.083   3.329 -0.0078 -0.0212  0.4897
 4746TIP3    H114177   7.490   7.041   3.248  0.4047  0.5729  0.0208
 4746TIP3    H214178   7.569   7.014   3.375  2.5439  0.4852 -1.2891
 4747TIP3   OH214179   4.143   5.754   1.051  0.4015  0.2490 -0.0214
 4747TIP3    H114180   4.205   5.701   1.001  1.0096  0.1431  0.8446
 4747TIP3    H214181   4.057   5.728   1.017  0.8307  0.5309 -1.3446
 4748TIP3   OH214182   4.666   5.707   2.124 -0.0364  0.7385  0.2008
 4748TIP3    H114183   4.741   5.762   2.145 -0.1977  1.4098 -0.9216
 4748TIP3    H214184   4.646   5.727   2.032  1.0289 -2.5334 -0.8160
 4749TIP3   OH214185   6.153   5.080   0.633 -0.2724 -0.3185  0.3897
 4749TIP3    H114186   6.063   5.108   0.650  0.0066  1.6521 -1.1366
 4749TIP3    H214187   6.203   5.114   0.707 -0.1481  2.2454 -0.8090
 4750TIP3   OH214188   7.893   0.807   3.100  0.2049  0.0632  0.1935
 4750TIP3    H114189   7.946   0.879   3.134  1.4961 -1.4975  1.6295
 4750TIP3    H214190   7.803   0.834   3.113  0.6581  0.3050  3.2626
 4751TIP3   OH214191   1.303   0.917   6.795 -0.6534  0.1026 -0.1707
 4751TIP3    H114192   1.347   0.996   6.825  0.5564 -0.1745 -1.1813
 4751TIP3    H214193   1.220   0.948   6.759 -0.3959  0.8497 -0.1255
 4752TIP3   OH214194   4.213   7.098   1.994 -0.1023 -1.0150 -0.4045
 4752TIP3    H114195   4.166   7.159   1.937  1.5819  0.7066 -0.0269
 4752TIP3    H214196   4.300   7.138   2.005  0.4870 -2.6535  1.2168
 4753TIP3   OH214197   3.503   7.018   2.130  0.1428  0.1095  0.1254
 4753TIP3    H114198   3.450   7.095   2.110  0.8924  0.7801  0.6554
 4753TIP3    H214199   3.472   6.951   2.070  1.1734  1.5525 -2.0855
 4754TIP3   OH214200   2.056   2.395   6.757  0.1739  0.0113  0.5630
 4754TIP3    H114201   2.111   2.356   6.689 -0.1413 -2.1410  1.5104
 4754TIP3    H214202   2.039   2.484   6.726  0.8236 -0.6272 -1.7010
 4755TIP3   OH214203   4.625   5.370   0.796  1.2506 -0.1535  0.5470
 4755TIP3    H114204   4.638   5.382   0.890 -0.1407  2.0321  0.5039
 4755TIP3    H214205   4.530   5.378   0.784  1.3740 -0.8740 -0.9819
 4756TIP3   OH214206   5.133   3.906   1.742  0.0360  0.3120  0.7330
 4756TIP3    H114207   5.133   3.993   1.703  1.2535  0.6904  1.5536
 4756TIP3    H214208   5.106   3.848   1.671 -1.6589  1.4465  0.4202
 4757TIP3   OH214209   4.855   7.658   0.047 -0.5996  0.3660 -0.0773
 4757TIP3    H114210   4.872   7.566   0.027 -0.9914 -0.0934  1.6403
 4757TIP3    H214211   4.760   7.665   0.050 -0.5785  0.8874 -0.4513
 4758TIP3   OH214212   4.922   7.754   1.171  0.2907  0.1998  0.0157
 4758TIP3    H114213   4.936   7.776   1.263  0.8697 -1.3921  0.3346
 4758TIP3    H214214   5.010   7.755   1.133  0.3567 -1.5905  0.0732
 4759TIP3   OH214215   6.785   5.471   0.505  0.3618  0.5008 -0.6199
 4759TIP3    H114216   6.697   5.434   0.502  0.1715  0.7815  1.0664
 4759TIP3    H214217   6.818   5.463   0.416 -2.1980  2.4040 -1.7926
 4760TIP3   OH214218   3.002   5.799   1.221 -0.0305 -0.1417  0.4076
 4760TIP3    H114219   2.959   5.795   1.307  0.5513 -2.2088  0.6338
 4760TIP3    H214220   2.988   5.712   1.184  1.9250 -0.0788 -0.5213
 4761TIP3   OH214221   4.811   4.753   1.353 -0.5069 -0.8218  0.0574
 4761TIP3    H114222   4.854   4.702   1.422 -1.2583  0.6953  1.7035
 4761TIP3    H214223   4.718   4.750   1.376 -0.8444 -0.8955 -1.3072
 4762TIP3   OH214224   6.760   7.944   0.600  0.3426 -0.3329  0.0459
 4762TIP3    H114225   6.810   7.958   0.520  1.8462  0.2426  1.0521
 4762TIP3    H214226   6.731   7.853   0.594 -0.7947  0.1342 -1.7972
 4763TIP3   OH214227   4.659   5.031   1.010  0.6464  0.5571  0.1972
 4763TIP3    H114228   4.663   4.969   1.083 -2.0277  1.4048  1.1372
 4763TIP3    H214229   4.747   5.030   0.973  1.0835 -2.6234  1.1426
 4764TIP3   OH214230   4.340   5.952   0.803  0.4970  0.2699  0.1221
 4764TIP3    H114231   4.290   5.950   0.721 -0.9618  1.5333  0.9495
 4764TIP3    H214232   4.421   5.906   0.783 -0.8355 -1.5223 -1.3825
 4765TIP3   OH214233   3.626   5.947   0.104  0.6211  0.7300  0.0427
 4765TIP3    H114234   3.617   6.028   0.153 -1.5195  0.2819  0.4457
 4765TIP3    H214235   3.660   5.974   0.018 -1.3409  2.2091 -0.2903
 4766TIP3   OH214236   3.621   4.584   0.884  0.1103 -0.1467  0.7437
 4766TIP3    H114237   3.534   4.549   0.864 -0.3357  0.5391  1.4524
 4766TIP3    H214238   3.659   4.603   0.798 -1.4749  2.0166  0.4747
 4767TIP3   OH214239   5.695   7.601   2.019  0.3952  0.1749 -0.3230
 4767TIP3    H114240   5.754   7.538   2.060 -0.2774  0.4345  1.0563
 4767TIP3    H214241   5.753   7.671   1.988  1.0478 -0.6784 -1.0791
 4768TIP3   OH214242   4.875   4.792   0.725  0.1696 -0.3868 -0.6703
 4768TIP3    H114243   4.890   4.723   0.660 -1.4893 -0.9660 -0.4824
 4768TIP3    H214244   4.780   4.792   0.738  0.3499  0.5945  0.8104
 4769TIP3   OH214245   5.855   7.159   1.360  0.1736 -0.3056 -0.3831
 4769TIP3    H114246   5.808   7.204   1.430  0.3234 -0.1938 -0.3561
 4769TIP3    H214247   5.938   7.205   1.353  1.1443 -1.8230  0.9954
 4770TIP3   OH214248   0.625   1.115   6.287 -1.1881 -0.0607 -0.7655
 4770TIP3    H114249   0.667   1.046   6.338  0.6578  0.7495 -1.1470
 4770TIP3    H214250   0.637   1.194   6.338 -2.7048  0.1085 -0.6514
 4771TIP3   OH214251   5.413   5.912   0.585 -0.2186  0.1972  0.5753
 4771TIP3    H114252   5.320   5.897   0.600 -0.2794  0.7880  0.7678
 4771TIP3    H214253   5.446   5.947   0.668  0.0372  0.6382  0.2914
 4772TIP3   OH214254   4.958   6.241   2.354 -0.0056 -0.4350  0.0268
 4772TIP3    H114255   4.884   6.296   2.377 -0.3794 -0.0537 -1.9875
 4772TIP3    H214256   5.035   6.291   2.382 -0.3834  0.7199 -0.9263
 4773TIP3   OH214257   7.787   1.254   1.695 -0.0496  0.5209  0.0922
 4773TIP3    H114258   7.742   1.334   1.667 -0.6025  0.4444  0.7492
 4773TIP3    H214259   7.717   1.189   1.704  0.3596  0.0501 -0.1292
 4774TIP3   OH214260   6.641   7.025   1.054  0.0691  0.6863 -0.4776
 4774TIP3    H114261   6.595   7.100   1.090 -1.7986 -0.3691 -0.5850
 4774TIP3    H214262   6.646   6.962   1.126 -1.7680 -0.5749 -1.4044
 4775TIP3   OH214263   5.214   6.754   1.895 -0.1979  0.8460  0.2219
 4775TIP3    H114264   5.220   6.847   1.918 -0.1729  0.9902 -0.3527
 4775TIP3    H214265   5.190   6.710   1.976 -0.7140  1.4192  0.3791
 4776TIP3   OH214266   4.423   5.446   1.478  0.3047 -0.0057 -0.3635
 4776TIP3    H114267   4.391   5.529   1.512 -1.7077 -0.4276 -1.1224
 4776TIP3    H214268   4.420   5.456   1.382 -1.2742 -1.3668 -0.5023
 4777TIP3   OH214269   5.322   5.958   1.681  0.7692 -0.4853 -0.4508
 4777TIP3    H114270   5.345   5.916   1.598  0.6893  0.5926 -1.0400
 4777TIP3    H214271   5.367   6.043   1.678 -0.5432  0.2405 -0.1149
 4778TIP3   OH214272   3.623   2.072   6.648 -0.3961  0.8562 -0.0355
 4778TIP3    H114273   3.686   2.039   6.585 -3.7750  1.1423 -3.7225
 4778TIP3    H214274   3.546   2.015   6.638 -2.0695  2.6941  1.7367
 4779TIP3   OH214275   3.884   5.943   1.028 -0.8729  0.1601  0.5980
 4779TIP3    H114276   3.867   5.850   1.017 -0.5695  0.1507  0.1923
 4779TIP3    H214277   3.886   5.957   1.122  0.9356 -0.5841  0.6857
 4780TIP3   OH214278   4.726   6.540   2.059 -0.1615 -0.1528  0.4803
 4780TIP3    H114279   4.705   6.511   1.971  0.8213 -0.7010  0.4207
 4780TIP3    H214280   4.682   6.478   2.117 -0.6189  0.0751  0.3845
 4781TIP3   OH214281   5.513   5.772   0.214 -0.8897  0.0680  0.0069
 4781TIP3    H114282   5.604   5.778   0.186 -1.1726  0.4719 -0.8595
 4781TIP3    H214283   5.516   5.722   0.295  0.2856  1.5721  0.9186
 4782TIP3   OH214284   4.789   7.649   1.931 -0.3189 -0.1182  0.0113
 4782TIP3    H114285   4.797   7.595   2.010 -0.8079 -1.0736 -0.5857
 4782TIP3    H214286   4.695   7.664   1.921 -0.3085 -0.4788 -0.6981
 4783TIP3   OH214287   4.724   6.143   1.836 -0.1102  0.4828 -0.3166
 4783TIP3    H114288   4.715   6.160   1.930 -1.8861 -3.0958  0.2418
 4783TIP3    H214289   4.812   6.108   1.827 -0.7473 -1.3394  0.4019
 4784TIP3   OH214290   5.636   4.777   1.241  0.0738  0.5592 -0.3933
 4784TIP3    H114291   5.633   4.855   1.295 -0.5923  1.1656 -1.2901
 4784TIP3    H214292   5.718   4.734   1.265  0.3480  1.4236  0.2428
 4785TIP3   OH214293   2.649   5.788   1.458 -0.0214 -0.1375 -0.2301
 4785TIP3    H114294   2.732   5.747   1.436  0.6671  1.3398 -0.3801
 4785TIP3    H214295   2.668   5.840   1.536 -1.5755 -2.4028  1.7565
 4786TIP3   OH214296   5.114   5.051   2.827 -0.5709 -0.1721 -0.2096
 4786TIP3    H114297   5.171   5.022   2.756  0.1406 -0.7578  0.5879
 4786TIP3    H214298   5.156   5.131   2.860  0.2982 -1.0848  0.9550
 4787TIP3   OH214299   4.931   4.027   0.755 -0.4099 -0.6189  0.2564
 4787TIP3    H114300   5.016   4.004   0.717 -0.9418  1.2794 -2.2329
 4787TIP3    H214301   4.905   3.949   0.804  2.3417 -1.5617  0.3291
 4788TIP3   OH214302   3.234   5.935   1.150  0.3063  0.4625  0.3860
 4788TIP3    H114303   3.304   5.877   1.121  1.3845  0.8350  2.1207
 4788TIP3    H214304   3.158   5.878   1.160  1.2399 -0.6149  1.6441
 4789TIP3   OH214305   1.447   1.228   6.171  0.3933  0.0829  0.0463
 4789TIP3    H114306   1.433   1.134   6.157 -0.9010  0.2356  0.2548
 4789TIP3    H214307   1.435   1.239   6.266  0.7760  0.4228  0.0553
 4790TIP3   OH214308   3.452   0.116   5.661  0.1440 -0.5021  0.2326
 4790TIP3    H114309   3.412   0.139   5.745  2.6410  1.6442  0.9015
 4790TIP3    H214310   3.446   0.197   5.609 -2.7772 -2.2228 -2.3104
 4791TIP3   OH214311   5.270   2.399   1.705  0.3190  0.0162 -0.0263
 4791TIP3    H114312   5.215   2.453   1.762 -0.0682 -0.5827  0.1735
 4791TIP3    H214313   5.353   2.447   1.699 -0.6808  1.6134 -1.4284
 4792TIP3   OH214314   3.783   5.056   1.652  0.5457 -0.4244  0.4798
 4792TIP3    H114315   3.747   5.091   1.734  2.9879 -0.6704  1.6961
 4792TIP3    H214316   3.857   5.113   1.633  0.0752 -0.4667 -1.5021
 4793TIP3   OH214317   0.978   1.251   6.626 -0.0555 -0.7234  0.0552
 4793TIP3    H114318   0.939   1.321   6.574  0.8466 -0.6621 -0.5473
 4793TIP3    H214319   0.904   1.209   6.669 -0.7411 -0.3245 -0.7223
 4794TIP3   OH214320   7.421   7.337   5.683 -0.0062 -0.6007 -0.1105
 4794TIP3    H114321   7.435   7.352   5.590 -2.2582  0.7827 -0.2484
 4794TIP3    H214322   7.509   7.347   5.722  0.8859 -0.8614 -2.0117
 4795TIP3   OH214323   6.423   7.900   2.055  0.1263  0.6227  0.2430
 4795TIP3    H114324   6.386   7.923   1.970 -0.8797  1.0871  0.8014
 4795TIP3    H214325   6.469   7.979   2.084  0.2952  0.5307  0.2255
 4796TIP3   OH214326   1.996   0.233   6.743  0.2403 -0.3337 -0.3471
 4796TIP3    H114327   1.926   0.178   6.707 -0.3611  0.3669 -0.2630
 4796TIP3    H214328   2.076   0.198   6.705 -0.3157 -0.0617 -1.8108
 4797TIP3   OH214329   1.062   0.695   6.765 -0.1098  0.0184 -0.1571
 4797TIP3    H114330   1.054   0.633   6.693 -0.8068  0.7468 -0.7165
 4797TIP3    H214331   1.135   0.752   6.740  0.6587 -0.6942  0.4485
 4798TIP3   OH214332   4.601   7.898   1.698 -0.5429 -0.4023 -0.2874
 4798TIP3    H114333   4.542   7.919   1.771 -1.8524 -0.6110 -1.2581
 4798TIP3    H214334   4.605   7.802   1.696  0.9443 -0.3666  0.6372
 4799TIP3   OH214335   6.669   5.178   1.840 -0.2159 -0.3191  0.4589
 4799TIP3    H114336   6.596   5.239   1.832 -1.1573 -1.1063  2.6821
 4799TIP3    H214337   6.704   5.193   1.928  0.1248 -2.3200  0.6893
 4800TIP3   OH214338   4.608   4.934   1.779 -0.3972 -0.7403  0.7153
 4800TIP3    H114339   4.603   4.971   1.868 -0.2413  0.4023  0.2486
 4800TIP3    H214340   4.697   4.953   1.750 -1.3715  1.6462 -0.8654
 4801TIP3   OH214341   6.486   0.289   1.514  0.7333 -0.3368  0.2800
 4801TIP3    H114342   6.570   0.319   1.548  1.3819 -0.6168 -1.0126
 4801TIP3    H214343   6.427   0.364   1.523  1.1918 -0.0591  0.9589
 4802TIP3   OH214344   8.297   1.793   6.797  0.1334 -0.0213 -0.4048
 4802TIP3    H114345   8.314   1.769   6.888  0.4052 -0.7443 -0.6487
 4802TIP3    H214346   8.383   1.803   6.757  0.0541 -3.1801 -1.5017
 4803TIP3   OH214347   4.040   5.679   1.297  0.3799 -0.3233  0.6095
 4803TIP3    H114348   4.000   5.593   1.282  0.4024 -0.1443 -0.5214
 4803TIP3    H214349   4.104   5.688   1.226  0.9099  0.3050  1.1670
 4804TIP3   OH214350   6.576   4.231   3.949  0.4923 -0.3721  0.4174
 4804TIP3    H114351   6.502   4.257   4.004 -1.0399 -0.9313 -1.3605
 4804TIP3    H214352   6.581   4.300   3.882  1.2390 -0.6343  0.2025
 4805TIP3   OH214353   2.963   3.977   0.278  0.2531  0.5410 -0.2229
 4805TIP3    H114354   3.006   3.987   0.193  0.8883 -2.3824 -0.2753
 4805TIP3    H214355   2.905   3.902   0.268 -0.5392  0.8734  1.5797
 4806TIP3   OH214356   3.535   7.620   2.895 -0.1703 -0.0990 -0.0224
 4806TIP3    H114357   3.614   7.593   2.941 -1.1349 -1.6773  0.7353
 4806TIP3    H214358   3.559   7.619   2.803  0.6305 -0.7980  0.1931
 4807TIP3   OH214359   2.448   5.478   3.583  0.2679 -0.6957  0.1884
 4807TIP3    H114360   2.375   5.500   3.526 -0.1494  0.9859  1.3414
 4807TIP3    H214361   2.414   5.489   3.672  2.1624  1.0850  0.7448
 4808TIP3   OH214362   6.253   7.854   6.483  0.3324 -0.0871 -0.1718
 4808TIP3    H114363   6.175   7.909   6.485  0.7482  0.5965 -2.1847
 4808TIP3    H214364   6.321   7.907   6.525  0.1902  0.0584 -0.1242
 4809TIP3   OH214365   3.539   5.367   2.074 -0.1200 -0.0930  0.0164
 4809TIP3    H114366   3.621   5.382   2.121 -0.0871  0.7610 -0.2971
 4809TIP3    H214367   3.477   5.428   2.114 -0.0964  0.6310 -1.0270
 4810TIP3   OH214368   0.280   2.873   6.222  0.6937 -0.3380 -0.7913
 4810TIP3    H114369   0.305   2.964   6.237  0.5902 -0.4406 -0.0069
 4810TIP3    H214370   0.343   2.822   6.272 -1.3581 -0.5793  1.6345
 4811TIP3   OH214371   2.128   5.556   0.965 -0.4334  0.0853 -0.1643
 4811TIP3    H114372   2.092   5.621   1.024 -1.3631 -2.1453  1.8119
 4811TIP3    H214373   2.086   5.574   0.881  0.7227  3.1404 -0.1471
 4812TIP3   OH214374   5.185   5.012   1.399  0.1382  0.5140 -0.6547
 4812TIP3    H114375   5.257   5.038   1.341 -0.6987  2.2211 -0.9492
 4812TIP3    H214376   5.115   4.985   1.340 -0.7261  2.2778 -0.4662
 4813TIP3   OH214377   3.071   0.690   6.416  0.1335  0.1585  0.0621
 4813TIP3    H114378   2.980   0.664   6.426  0.0032  0.5343 -0.1321
 4813TIP3    H214379   3.074   0.733   6.330  0.9185 -1.7435 -0.9018
 4814TIP3   OH214380   4.831   4.547   3.846 -0.3871  0.2328 -0.7709
 4814TIP3    H114381   4.826   4.454   3.866  1.0714 -0.1319 -2.0599
 4814TIP3    H214382   4.768   4.560   3.775  0.6658 -0.1252 -1.7910
 4815TIP3   OH214383   0.277   4.116   6.389  0.1921  0.7490  0.1452
 4815TIP3    H114384   0.236   4.033   6.364  1.5136  0.2336 -0.3878
 4815TIP3    H214385   0.309   4.101   6.478 -0.0609  0.8757  0.2577
 4816TIP3   OH214386   5.191   6.720   0.065 -0.0159 -0.9920 -0.2541
 4816TIP3    H114387   5.175   6.796   0.008  1.2381 -0.3047  0.2908
 4816TIP3    H214388   5.140   6.649   0.026 -1.6804  0.2903 -0.4257
 4817TIP3   OH214389   3.304   7.585   2.123 -0.2143  0.8369  0.1044
 4817TIP3    H114390   3.229   7.637   2.154 -0.8368  0.7293 -1.1462
 4817TIP3    H214391   3.365   7.584   2.196 -2.1864 -0.5408  1.7832
 4818TIP3   OH214392   7.517   5.920   2.495  0.1975 -0.0295 -0.4392
 4818TIP3    H114393   7.590   5.866   2.463  0.1239  0.7771 -2.0241
 4818TIP3    H214394   7.549   5.958   2.576  0.6548 -1.5928  0.1234
 4819TIP3   OH214395   5.151   5.719   0.225 -0.0578 -0.0967 -0.5054
 4819TIP3    H114396   5.138   5.809   0.254 -0.5835 -0.5585  0.7379
 4819TIP3    H214397   5.073   5.699   0.173 -1.5410 -0.8757  1.9193
 4820TIP3   OH214398   8.390   0.514   2.745 -0.9253 -0.5222  0.3377
 4820TIP3    H114399   8.412   0.592   2.693 -1.1612 -0.1165  0.8362
 4820TIP3    H214400   8.417   0.440   2.691 -2.6016 -0.1455 -1.0503
 4821TIP3   OH214401   7.461   5.943   2.160 -0.7932  0.3919 -0.2649
 4821TIP3    H114402   7.545   5.983   2.183 -1.1073  1.6045 -1.1865
 4821TIP3    H214403   7.396   5.994   2.207 -1.0499 -0.3747  0.2309
 4822TIP3   OH214404   4.998   5.630   0.809 -0.7375  0.6822 -0.2413
 4822TIP3    H114405   5.014   5.559   0.746 -0.5281 -0.3040  0.8881
 4822TIP3    H214406   5.074   5.627   0.867 -0.4411  2.2413 -0.5422
 4823TIP3   OH214407   7.025   5.803   2.102 -0.0906  0.1512  0.0813
 4823TIP3    H114408   7.084   5.778   2.031  0.9339 -0.8690  1.2625
 4823TIP3    H214409   6.968   5.727   2.115 -0.4910  0.4554  0.1340
 4824TIP3   OH214410   5.502   6.605   0.947  0.5316  0.0629 -0.5495
 4824TIP3    H114411   5.565   6.534   0.940  0.6811  0.1664 -0.2498
 4824TIP3    H214412   5.545   6.672   1.000 -0.2588 -0.3477  0.6219
 4825TIP3   OH214413   6.038   5.287   2.646  0.5657  0.7337 -0.0326
 4825TIP3    H114414   5.956   5.317   2.607  0.3547  0.6451  0.3369
 4825TIP3    H214415   6.027   5.192   2.656  0.2927  0.8563  0.9761
 4826TIP3   OH214416   1.759   4.176   5.982  0.5073  0.3405  0.6521
 4826TIP3    H114417   1.764   4.219   5.896  1.8358  0.2731  0.6848
 4826TIP3    H214418   1.851   4.166   6.009  0.0935  0.3231  2.0623
 4827TIP3   OH214419   4.821   6.607   0.518 -0.0712 -0.3733  0.7498
 4827TIP3    H114420   4.860   6.651   0.594 -0.4302 -0.7903  1.1739
 4827TIP3    H214421   4.845   6.663   0.444 -0.2554  0.3713  1.2457
 4828TIP3   OH214422   1.253   2.003   6.424 -0.1844  0.3943 -0.4895
 4828TIP3    H114423   1.174   1.954   6.401  2.0715 -3.8864  0.3626
 4828TIP3    H214424   1.249   2.011   6.519  0.9575 -0.9509 -0.3078
 4829TIP3   OH214425   4.916   6.258   1.268  0.1577 -0.4908  0.0136
 4829TIP3    H114426   4.947   6.323   1.331  0.0364  0.4018 -0.8355
 4829TIP3    H214427   4.836   6.223   1.307  0.3051 -0.2369  0.5502
 4830TIP3   OH214428   2.391   2.669   6.364  0.3166  0.0362 -0.0347
 4830TIP3    H114429   2.402   2.691   6.272 -1.3913  1.8812  0.1586
 4830TIP3    H214430   2.478   2.677   6.402  0.7385  0.8950 -1.1648
 4831TIP3   OH214431   4.305   6.291   2.797 -0.2997 -0.2324  0.1574
 4831TIP3    H114432   4.373   6.232   2.829 -0.0898 -0.0869 -0.0139
 4831TIP3    H214433   4.223   6.245   2.813 -0.1535 -0.4476  0.2842
 4832TIP3   OH214434   4.593   5.498   2.418 -0.8055  0.8086 -0.2255
 4832TIP3    H114435   4.528   5.565   2.436 -0.5947  1.6014 -2.2581
 4832TIP3    H214436   4.676   5.545   2.413 -0.4951  0.2389 -0.5332
 4833TIP3   OH214437   1.936   2.029   6.486  0.6443  0.2022  0.1008
 4833TIP3    H114438   2.027   2.047   6.463  0.5775  1.3630  0.7206
 4833TIP3    H214439   1.940   1.955   6.546  0.9684 -1.5532 -2.0258
 4834TIP3   OH214440   6.114   6.460   1.829  0.0201  0.3546 -0.4174
 4834TIP3    H114441   6.077   6.549   1.830 -0.5517  0.1280 -0.8337
 4834TIP3    H214442   6.050   6.408   1.878  0.5760  0.2590  0.2049
 4835TIP3   OH214443   0.175   0.951   6.615  0.1824  0.4151  0.0194
 4835TIP3    H114444   0.108   1.015   6.590 -0.8707 -0.6195  0.1522
 4835TIP3    H214445   0.126   0.871   6.633  1.3337  0.0237  1.4763
 4836TIP3   OH214446   2.594   7.301   0.492  0.1995  0.0322  0.2844
 4836TIP3    H114447   2.606   7.212   0.459  0.4765 -0.2371  1.1138
 4836TIP3    H214448   2.577   7.353   0.413  0.7935 -0.6187 -0.2832
 4837TIP3   OH214449   5.734   5.303   0.332  0.2542  0.0495  0.9096
 4837TIP3    H114450   5.791   5.378   0.351 -0.8995  0.4794  2.7828
 4837TIP3    H214451   5.647   5.342   0.320  0.0823 -0.7488 -0.5675
 4838TIP3   OH214452   5.425   5.058   0.459 -0.4932 -0.0099  0.3510
 4838TIP3    H114453   5.453   5.150   0.457  2.2657 -0.8177 -0.2240
 4838TIP3    H214454   5.335   5.061   0.493 -0.8357  2.9840 -0.6405
 4839TIP3   OH214455   5.349   5.613   2.761  0.3139  0.2945 -0.4489
 4839TIP3    H114456   5.402   5.687   2.731 -0.3269  0.5280 -1.0088
 4839TIP3    H214457   5.267   5.652   2.790  0.3464 -0.0961  0.1841
 4840TIP3   OH214458   8.124   0.442   0.330 -0.5164  0.4181  0.5497
 4840TIP3    H114459   8.160   0.399   0.253 -0.7223 -0.2813  0.8368
 4840TIP3    H214460   8.048   0.491   0.298 -0.6949  0.0017  0.3264
 4841TIP3   OH214461   3.722   4.919   1.147 -0.3850 -0.2233 -0.2816
 4841TIP3    H114462   3.630   4.911   1.174 -0.4742  0.7795 -0.2890
 4841TIP3    H214463   3.721   4.987   1.080  0.3418 -0.3429 -0.4109
 4842TIP3   OH214464   2.835   5.912   2.914 -0.7166  0.3423  0.7526
 4842TIP3    H114465   2.870   5.823   2.913 -1.1164  0.1887  0.3092
 4842TIP3    H214466   2.746   5.904   2.879 -0.9525  0.8328  1.2223
 4843TIP3   OH214467   6.395   5.279   3.153  0.8550 -0.4603  0.2515
 4843TIP3    H114468   6.406   5.185   3.170 -0.1825 -0.5333  0.5108
 4843TIP3    H214469   6.483   5.316   3.167  1.5592 -1.5764 -1.0874
 4844TIP3   OH214470   8.311   1.491   6.338  0.2035  0.0225  0.3130
 4844TIP3    H114471   8.311   1.494   6.433 -0.6743 -0.9015  0.3626
 4844TIP3    H214472   8.398   1.519   6.312 -0.3452  2.7167  1.2877
 4845TIP3   OH214473   6.097   7.155   1.596  0.1892 -0.3695  0.8166
 4845TIP3    H114474   6.041   7.098   1.542 -0.4398 -0.5893  1.6969
 4845TIP3    H214475   6.040   7.185   1.666  1.0240 -0.1158  1.3881
 4846TIP3   OH214476   7.194   5.927   3.875  0.1988  0.2888 -0.1279
 4846TIP3    H114477   7.228   6.017   3.873  1.7282 -0.2697  0.1003
 4846TIP3    H214478   7.227   5.888   3.793 -1.3858  0.2584 -0.7640
 4847TIP3   OH214479   4.525   6.650   1.656 -0.0384  0.0013  0.5778
 4847TIP3    H114480   4.443   6.691   1.685  0.4295  0.9346  0.6061
 4847TIP3    H214481   4.532   6.674   1.563  0.7846  0.9391  0.8629
 4848TIP3   OH214482   5.515   6.303   1.377  0.1150 -0.4476 -0.0497
 4848TIP3    H114483   5.501   6.318   1.471  0.9115 -0.1363  0.0220
 4848TIP3    H214484   5.430   6.273   1.345  0.0348 -1.2821  0.9213
 4849TIP3   OH214485   6.640   3.212   6.205 -0.5277  0.5376 -0.1366
 4849TIP3    H114486   6.696   3.258   6.267  1.6743 -0.7639 -1.0596
 4849TIP3    H214487   6.588   3.153   6.258  2.3564 -1.6121  0.4574
 4850TIP3   OH214488   0.144   1.369   0.465  0.8861  0.8896  0.6670
 4850TIP3    H114489   0.144   1.458   0.501  1.4591  1.0314  0.3361
 4850TIP3    H214490   0.234   1.339   0.478  1.0075  0.8134 -0.3119
 4851TIP3   OH214491   5.132   4.354   2.234  0.8324  0.0986 -0.2018
 4851TIP3    H114492   5.181   4.306   2.301  1.2875 -0.3947 -0.8741
 4851TIP3    H214493   5.105   4.287   2.171 -0.3276  0.4423 -0.0643
 4852TIP3   OH214494   5.058   6.467   0.049 -0.8369  0.0706  0.2084
 4852TIP3    H114495   5.090   6.386   0.089  0.4144  0.6636  0.4222
 4852TIP3    H214496   5.017   6.438  -0.033  1.8346 -0.5516 -0.9607
 4853TIP3   OH214497   7.548   0.056   0.271 -0.1082  0.2622 -0.3158
 4853TIP3    H114498   7.501   0.117   0.328 -1.4618 -1.2966  0.2720
 4853TIP3    H214499   7.567  -0.019   0.327  1.2434 -0.0243 -1.1335
 4854TIP3   OH214500   4.820   5.283   1.878 -0.3567 -0.0715 -0.1571
 4854TIP3    H114501   4.809   5.203   1.827  0.8134  0.5814 -1.4742
 4854TIP3    H214502   4.907   5.315   1.854  0.1121  0.3721  2.0924
 4855TIP3   OH214503   2.502   1.700   6.544  0.1388  0.2046 -0.1373
 4855TIP3    H114504   2.584   1.749   6.549  1.2350 -1.6306  0.0452
 4855TIP3    H214505   2.451   1.747   6.477  1.2824  1.3963 -0.2044
 4856TIP3   OH214506   7.527   5.379   2.481  0.1895  0.1164 -0.0928
 4856TIP3    H114507   7.498   5.353   2.569  0.8928 -0.4075 -0.0064
 4856TIP3    H214508   7.508   5.303   2.426  0.1599  0.2774 -0.3067
 4857TIP3   OH214509   4.058   5.974   2.577  0.3562 -0.0352 -0.4280
 4857TIP3    H114510   4.023   6.057   2.546 -0.8205  0.0234  0.9690
 4857TIP3    H214511   4.117   5.997   2.648  0.1470 -0.3694 -0.1389
 4858TIP3   OH214512   2.603   0.546   5.401 -0.0812 -0.2062 -0.5220
 4858TIP3    H114513   2.556   0.624   5.429 -0.3788 -0.2064 -1.0122
 4858TIP3    H214514   2.674   0.536   5.464  0.2301  0.7169 -0.7296
 4859TIP3   OH214515   6.355   4.949   3.124  0.3016  0.6676  0.2093
 4859TIP3    H114516   6.337   4.972   3.216 -0.5569 -0.5275  0.3488
 4859TIP3    H214517   6.283   4.987   3.075  1.3261  2.2268 -0.1064
 4860TIP3   OH214518   6.118   6.208   0.980 -0.0998  0.5339 -0.0104
 4860TIP3    H114519   6.055   6.168   1.041  0.3736  1.8231  1.3499
 4860TIP3    H214520   6.093   6.173   0.894 -1.2331 -0.7557  0.8122
 4861TIP3   OH214521   6.634   6.862   1.269  0.1469  0.6645 -0.4560
 4861TIP3    H114522   6.555   6.855   1.323  0.3176  0.7720 -0.1920
 4861TIP3    H214523   6.691   6.793   1.301  0.4465  1.0472 -0.1654
 4862TIP3   OH214524   3.606   5.291   0.194  0.3859 -0.1451  0.4585
 4862TIP3    H114525   3.692   5.280   0.233 -0.6229 -1.2874  2.4677
 4862TIP3    H214526   3.568   5.203   0.195 -0.6692  0.2682 -0.7764
 4863TIP3   OH214527   3.936   5.802   0.653 -0.2632 -0.0991 -0.0387
 4863TIP3    H114528   3.943   5.719   0.701  0.6306 -0.6174 -1.0408
 4863TIP3    H214529   3.855   5.841   0.685  0.8075  0.0587  2.6536
 4864TIP3   OH214530   3.825   1.092   5.982 -0.5808  0.1650  0.3626
 4864TIP3    H114531   3.896   1.155   5.966  2.0646 -1.9434  3.1582
 4864TIP3    H214532   3.785   1.122   6.063 -0.6835 -0.5752  0.5847
 4865TIP3   OH214533   1.641   2.851   6.747  0.1850 -0.3600  0.1361
 4865TIP3    H114534   1.578   2.793   6.704  0.6904 -2.6040  2.3004
 4865TIP3    H214535   1.696   2.883   6.676 -2.9324  1.1293 -1.7198
 4866TIP3   OH214536   4.940   5.860   2.090 -0.4612 -0.5923  0.4082
 4866TIP3    H114537   4.935   5.917   2.014 -1.2892 -0.6828  0.3930
 4866TIP3    H214538   5.026   5.818   2.084 -0.3671 -0.2963 -0.2525
 4867TIP3   OH214539   4.672   5.680   0.349  0.1132  0.1119  0.0091
 4867TIP3    H114540   4.758   5.638   0.353 -0.8300 -1.7907  0.6270
 4867TIP3    H214541   4.633   5.663   0.435 -0.9043  0.9573 -0.2708
 4868TIP3   OH214542   6.882   6.476   1.671 -0.1882 -0.5845  0.2002
 4868TIP3    H114543   6.828   6.399   1.652 -1.2559  0.2583 -0.2248
 4868TIP3    H214544   6.945   6.479   1.600 -1.0950 -0.2257 -0.6088
 4869TIP3   OH214545   1.831   2.252   6.616  0.3639  0.1745  0.1603
 4869TIP3    H114546   1.860   2.171   6.574  0.2715 -0.8223  1.9488
 4869TIP3    H214547   1.894   2.265   6.687 -0.3336  1.0244  0.6190
 4870TIP3   OH214548   6.917   7.055   0.156  0.0270 -0.0507 -0.1492
 4870TIP3    H114549   6.978   6.994   0.196 -0.4112  0.4416  1.3167
 4870TIP3    H214550   6.910   7.026   0.065 -0.0100 -2.0327  0.4628
 4871TIP3   OH214551   8.191   0.878   0.830  0.3300 -0.1330 -0.1954
 4871TIP3    H114552   8.253   0.872   0.757  0.9541 -1.2815  0.4145
 4871TIP3    H214553   8.129   0.807   0.815  1.2091 -1.1835  1.0688
 4872TIP3   OH214554   5.983   5.057   1.452 -0.1604 -0.1628  0.3469
 4872TIP3    H114555   5.914   5.098   1.504 -0.9508 -0.6854 -0.2780
 4872TIP3    H214556   5.984   4.966   1.481  1.9354  0.3740  2.0919
 4873TIP3   OH214557   4.303   6.570   2.018 -0.0550  0.0692  0.3294
 4873TIP3    H114558   4.243   6.622   2.072  0.1337  1.8425 -1.1105
 4873TIP3    H214559   4.374   6.631   1.997  0.9417 -1.2343 -0.1489
 4874TIP3   OH214560   5.505   5.085   2.439 -0.0125 -0.3886  0.3474
 4874TIP3    H114561   5.585   5.083   2.492  0.1867  0.2049  0.0763
 4874TIP3    H214562   5.536   5.076   2.349  0.0044  2.7468 -0.0006
 4875TIP3   OH214563   4.231   4.125   0.899  0.1036  0.6519  0.4199
 4875TIP3    H114564   4.197   4.198   0.849 -1.7528  1.2569  2.5166
 4875TIP3    H214565   4.326   4.132   0.890 -0.1440  1.8979 -1.3559
 4876TIP3   OH214566   5.928   6.182   4.112  0.5391 -0.0077 -0.4138
 4876TIP3    H114567   5.936   6.271   4.147  0.0284 -0.3068  0.4673
 4876TIP3    H214568   5.885   6.132   4.182 -0.1013 -0.7102 -1.2990
 4877TIP3   OH214569   5.193   6.309   2.491  0.4029 -0.2124  0.3358
 4877TIP3    H114570   5.260   6.244   2.470  0.8283  0.4411 -0.3631
 4877TIP3    H214571   5.155   6.279   2.573  0.3697 -1.5239 -0.1574
 4878TIP3   OH214572   4.470   6.803   0.977  0.5869  0.3353  0.2838
 4878TIP3    H114573   4.559   6.799   0.942  0.0625 -1.3883 -0.9215
 4878TIP3    H214574   4.453   6.714   1.008 -1.1166  0.3680 -0.5227
 4879TIP3   OH214575   4.077   4.030   2.738 -0.2818 -0.3077  0.4101
 4879TIP3    H114576   4.159   3.981   2.731  1.0556  1.7097  1.4857
 4879TIP3    H214577   4.023   3.979   2.799 -0.7384 -2.7802 -1.9514
 4880TIP3   OH214578   4.589   5.861   0.738  0.2549  0.0939 -0.0518
 4880TIP3    H114579   4.657   5.920   0.770  0.1842  0.7307 -1.0667
 4880TIP3    H214580   4.628   5.774   0.743  0.6104  0.2900  0.7766
 4881TIP3   OH214581   4.114   6.557   0.909 -0.1295  0.2400 -0.3460
 4881TIP3    H114582   4.097   6.555   1.003 -0.6782 -0.1789 -0.4500
 4881TIP3    H214583   4.038   6.512   0.870 -0.2396  1.0064 -1.0272
 4882TIP3   OH214584   6.100   6.691   0.340  0.6125 -0.0141  0.2943
 4882TIP3    H114585   6.156   6.644   0.402  1.6885  0.4085 -0.3449
 4882TIP3    H214586   6.145   6.684   0.256 -0.8578 -0.6003 -0.4503
 4883TIP3   OH214587   0.691   3.770   6.121  0.1830  0.3971  0.1895
 4883TIP3    H114588   0.730   3.685   6.103  1.1379  1.1437 -1.3823
 4883TIP3    H214589   0.599   3.760   6.097  0.2200 -0.2898  0.3281
 4884TIP3   OH214590   7.145   6.130   3.156  0.1892  0.3177 -0.1437
 4884TIP3    H114591   7.172   6.194   3.222 -0.1694 -0.7631  1.0581
 4884TIP3    H214592   7.168   6.045   3.193 -0.3366 -0.3222 -1.2503
 4885TIP3   OH214593   6.241   7.517   1.332  0.9681  0.0720 -0.3711
 4885TIP3    H114594   6.264   7.551   1.246 -3.0705  2.6302 -0.5485
 4885TIP3    H214595   6.183   7.584   1.370 -0.7098 -2.9125  2.6152
 4886TIP3   OH214596   3.742   6.924   3.209 -0.3022  0.2734  0.2754
 4886TIP3    H114597   3.799   6.987   3.253  0.1555 -0.2944  0.5121
 4886TIP3    H214598   3.657   6.934   3.251 -0.4819  1.4199 -0.3606
 4887TIP3   OH214599   0.845   2.236   1.647 -0.0791  0.5901  0.6326
 4887TIP3    H114600   0.755   2.212   1.623 -0.2123  0.4857  1.2206
 4887TIP3    H214601   0.876   2.162   1.699  0.0026  1.0586  1.2549
 4888TIP3   OH214602   5.053   4.171   2.566 -0.5623  0.3530  0.4770
 4888TIP3    H114603   4.961   4.156   2.589  0.2133 -2.2038  2.1375
 4888TIP3    H214604   5.084   4.086   2.535  1.0461  1.4003 -0.8551
 4889TIP3   OH214605   4.691   3.693   0.574  0.1940  0.2667  0.2096
 4889TIP3    H114606   4.659   3.644   0.499 -1.0764 -2.3494  2.3688
 4889TIP3    H214607   4.637   3.772   0.577  0.1412  0.2997 -1.4949
 4890TIP3   OH214608   5.770   5.777   3.521  0.0440 -0.2042 -0.3423
 4890TIP3    H114609   5.810   5.773   3.434 -0.8695 -1.4541 -0.7165
 4890TIP3    H214610   5.775   5.870   3.545  3.0970 -0.3076 -0.3785
 4891TIP3   OH214611   5.794   6.041   0.002 -0.5598  0.7580  0.0365
 4891TIP3    H114612   5.722   6.065   0.060  1.6939  0.0365  3.2646
 4891TIP3    H214613   5.819   6.123  -0.041 -2.7706  1.1409 -0.5982
 4892TIP3   OH214614   1.152   3.335   6.342  0.4023  0.0689  0.1904
 4892TIP3    H114615   1.155   3.384   6.260  0.2488 -0.9952 -0.4587
 4892TIP3    H214616   1.154   3.402   6.410 -0.3808  0.9993 -0.6906
 4893TIP3   OH214617   1.722   1.916   6.671  0.0567 -0.2825  0.1328
 4893TIP3    H114618   1.665   1.960   6.608  1.5916  0.9684 -0.4358
 4893TIP3    H214619   1.721   1.824   6.644  0.9537  0.2796 -1.9761
 4894TIP3   OH214620   5.209   4.200   0.197  0.1413 -0.1565 -0.0195
 4894TIP3    H114621   5.186   4.108   0.183  0.9385 -0.1640 -1.3654
 4894TIP3    H214622   5.175   4.245   0.120  0.3574  0.5694  0.3072
 4895TIP3   OH214623   0.386   0.083   1.954 -0.3680  0.2883 -0.1059
 4895TIP3    H114624   0.368   0.028   2.030  0.4174  1.0322  0.6257
 4895TIP3    H214625   0.479   0.102   1.959 -0.6727  1.8876 -0.2058
 4896TIP3   OH214626   6.069   4.730   0.679  0.1028 -0.1855 -0.3176
 4896TIP3    H114627   6.036   4.759   0.764  0.0650  0.7836 -0.6576
 4896TIP3    H214628   5.992   4.734   0.621  0.0232 -1.2614 -0.3057
 4897TIP3   OH214629   1.145   6.600   6.013 -0.2348  0.2885 -0.2100
 4897TIP3    H114630   1.106   6.515   6.034 -2.2189  1.3579  0.5933
 4897TIP3    H214631   1.212   6.613   6.081  0.6237 -0.9530 -0.7968
 4898TIP3   OH214632   7.104   6.253   1.509  0.1558 -0.2017  0.0388
 4898TIP3    H114633   7.153   6.333   1.526 -2.1517  0.8998  1.7808
 4898TIP3    H214634   7.100   6.208   1.593 -1.4857 -0.4223 -0.1293
 4899TIP3   OH214635   8.425   5.122   2.436  0.4621 -0.7021  0.4469
 4899TIP3    H114636   8.493   5.188   2.424  0.1068 -0.5290 -0.7254
 4899TIP3    H214637   8.370   5.156   2.506 -0.5510  0.9572 -1.1300
 4900TIP3   OH214638   5.721   6.443   1.003  0.0771 -0.3697  0.4175
 4900TIP3    H114639   5.785   6.442   1.074  0.5753 -1.8956 -0.0354
 4900TIP3    H214640   5.771   6.467   0.925 -0.5561  1.7751  0.6361
 4901TIP3   OH214641   3.961   4.257   3.830  0.1374  0.7871  0.0099
 4901TIP3    H114642   3.928   4.175   3.866 -0.4678  0.1033 -2.0476
 4901TIP3    H214643   3.935   4.324   3.894 -0.7508 -0.4027  0.9109
 4902TIP3   OH214644   3.346   6.042   0.385  0.2465  0.6197 -0.0444
 4902TIP3    H114645   3.358   5.971   0.449 -1.2715  0.1258 -0.2922
 4902TIP3    H214646   3.382   6.120   0.429  0.8666 -0.0677  0.6866
 4903TIP3   OH214647   6.767   7.250   0.007  0.4087 -0.0275  0.7865
 4903TIP3    H114648   6.789   7.176   0.064  2.0590 -0.5317 -0.4998
 4903TIP3    H214649   6.848   7.300   0.000 -0.2530  0.9869  0.2753
 4904TIP3   OH214650   4.252   5.319   2.430  0.1356  0.3969 -0.7252
 4904TIP3    H114651   4.252   5.379   2.504 -2.1825 -0.1730 -0.2092
 4904TIP3    H214652   4.237   5.375   2.354 -2.7192  0.4452 -0.1739
 4905TIP3   OH214653   5.208   3.573   3.467 -0.0285 -0.1222 -0.5511
 4905TIP3    H114654   5.214   3.508   3.538 -1.6757 -1.0949 -1.2666
 4905TIP3    H214655   5.145   3.637   3.499 -0.5823 -0.4278 -1.0178
 4906TIP3   OH214656   1.578   2.149   6.723  0.4162 -0.0505  0.2769
 4906TIP3    H114657   1.561   2.136   6.629  0.6145  2.7145 -0.1943
 4906TIP3    H214658   1.671   2.172   6.727  0.0453  1.4029  0.9503
 4907TIP3   OH214659   2.651   5.918   1.186  0.6867 -0.3376 -0.1437
 4907TIP3    H114660   2.682   5.880   1.268 -2.2856 -0.5381  0.9334
 4907TIP3    H214661   2.627   5.843   1.132  2.4182 -0.1979 -1.1638
 4908TIP3   OH214662   3.576   4.911   0.510  0.1051 -0.7178  0.5552
 4908TIP3    H114663   3.518   4.835   0.508  0.0506 -0.8181  3.3709
 4908TIP3    H214664   3.652   4.881   0.560  2.1735 -0.2761 -2.2261
 4909TIP3   OH214665   3.285   4.660   3.490 -0.4656  0.1786  0.0512
 4909TIP3    H114666   3.323   4.700   3.568  0.1586 -0.8541  0.2852
 4909TIP3    H214667   3.199   4.628   3.518 -1.3567  2.1272 -0.3669
 4910TIP3   OH214668   5.226   5.637   0.965  0.2485  0.2083  0.6482
 4910TIP3    H114669   5.207   5.613   1.056 -0.9067 -0.2387  0.2956
 4910TIP3    H214670   5.260   5.726   0.970 -0.5732  0.4807  1.4430
 4911TIP3   OH214671   2.449   5.388   0.796 -0.0750  0.1942 -0.3876
 4911TIP3    H114672   2.387   5.374   0.725 -0.4153 -0.4132  0.0300
 4911TIP3    H214673   2.396   5.420   0.869  0.3787  1.5523 -0.6361
 4912TIP3   OH214674   5.362   7.043   3.181  0.3371 -0.2919  0.5128
 4912TIP3    H114675   5.311   7.096   3.243 -1.6449 -1.2736 -0.2513
 4912TIP3    H214676   5.369   6.958   3.224 -0.4176 -0.7585 -0.2825
 4913TIP3   OH214677   5.416   6.759   1.679  0.3922 -0.6174 -0.3046
 4913TIP3    H114678   5.396   6.840   1.633  1.3987  1.0428  2.0729
 4913TIP3    H214679   5.341   6.746   1.738  1.0032 -0.5125  0.4995
 4914TIP3   OH214680   5.953   4.849   2.997  0.3181  0.0614 -0.2279
 4914TIP3    H114681   5.983   4.811   3.080  2.1746 -0.4506 -1.0968
 4914TIP3    H214682   5.932   4.940   3.020 -1.3362 -0.6741  1.2510
 4915TIP3   OH214683   8.102   0.579   2.506 -0.0908 -0.3060  0.1706
 4915TIP3    H114684   8.197   0.573   2.513 -0.1187 -0.0174  0.7400
 4915TIP3    H214685   8.082   0.537   2.422  0.5026 -0.7002  0.2233
 4916TIP3   OH214686   6.656   0.808   2.158 -0.8512  0.1537 -0.2874
 4916TIP3    H114687   6.673   0.721   2.121  1.2950  0.4379 -0.0324
 4916TIP3    H214688   6.738   0.831   2.202 -1.5251  2.1620 -0.0635
 4917TIP3   OH214689   2.701   2.867   6.698  0.6171 -0.0033  0.9104
 4917TIP3    H114690   2.656   2.798   6.747  0.3252 -0.7494 -0.3647
 4917TIP3    H214691   2.632   2.928   6.673  0.5998 -0.1746  0.5372
 4918TIP3   OH214692   7.118   6.296   2.240  0.0699  0.7649  0.0113
 4918TIP3    H114693   7.107   6.208   2.276  1.6529  0.9781  1.0355
 4918TIP3    H214694   7.032   6.317   2.204 -1.2090  0.0325  2.5034
 4919TIP3   OH214695   6.256   7.018   0.811  0.5751 -0.2138  0.4344
 4919TIP3    H114696   6.296   7.044   0.728  0.4155  1.7037  0.9360
 4919TIP3    H214697   6.215   6.933   0.792  0.4182  0.2618 -1.4923
 4920TIP3   OH214698   2.825   2.534   6.797 -0.5767  0.6618 -0.2859
 4920TIP3    H114699   2.864   2.604   6.744 -0.9926  1.1192  0.0032
 4920TIP3    H214700   2.771   2.581   6.861 -2.2521  0.0286 -1.1969
 4921TIP3   OH214701   0.679   3.850   6.842  0.6297  0.3612  0.4493
 4921TIP3    H114702   0.614   3.805   6.896 -0.8298  0.9141 -0.8162
 4921TIP3    H214703   0.681   3.939   6.875 -1.1909  1.0444 -1.1567
 4922TIP3   OH214704   1.108   0.530   0.026 -0.5144  0.2577  0.0001
 4922TIP3    H114705   1.030   0.480   0.001  0.5688 -0.4261 -2.1136
 4922TIP3    H214706   1.177   0.464   0.035 -0.0560  0.9043  1.4630
 4923TIP3   OH214707   3.389   6.424   2.227 -0.1482  0.1861  0.2537
 4923TIP3    H114708   3.470   6.412   2.277 -1.4573  0.0672  2.4309
 4923TIP3    H214709   3.353   6.336   2.220 -1.0213  0.4844  0.9486
 4924TIP3   OH214710   6.889   4.442   0.759  0.5055 -0.0726  0.4831
 4924TIP3    H114711   6.886   4.512   0.824 -0.2757  0.4582 -0.1087
 4924TIP3    H214712   6.971   4.396   0.776  0.6831  0.5542  1.3296
 4925TIP3   OH214713   6.050   6.042   2.034  0.2609 -0.2178  0.2718
 4925TIP3    H114714   6.121   5.987   2.069  0.1710 -0.4075  0.1561
 4925TIP3    H214715   6.003   5.985   1.974  0.4941  0.1504 -0.2593
 4926TIP3   OH214716   5.115   5.132   1.659 -0.2023 -0.4205 -0.0302
 4926TIP3    H114717   5.175   5.095   1.723 -0.9900 -0.4741  0.6883
 4926TIP3    H214718   5.150   5.104   1.574  0.4248 -0.9777  0.4090
 4927TIP3   OH214719   2.693   3.370   5.235 -0.0031  0.4016 -0.1417
 4927TIP3    H114720   2.725   3.312   5.304  1.1897 -0.2826 -1.2317
 4927TIP3    H214721   2.624   3.320   5.192  2.0296 -0.8637 -2.0290
 4928TIP3   OH214722   7.255   5.532   1.341 -0.2937  0.1416  0.2422
 4928TIP3    H114723   7.351   5.528   1.343 -0.2777 -0.4434 -1.3732
 4928TIP3    H214724   7.229   5.459   1.285 -1.8181 -1.4399  2.9232
 4929TIP3   OH214725   2.244   0.348   6.924  0.2207  0.8017 -0.6542
 4929TIP3    H114726   2.167   0.308   6.966 -0.8486  0.8373 -2.5662
 4929TIP3    H214727   2.228   0.442   6.929  0.4573  0.8335 -0.4753
 4930TIP3   OH214728   6.623   5.429   1.602 -0.4602 -0.1508 -0.3152
 4930TIP3    H114729   6.611   5.468   1.688 -1.2625 -0.4584 -0.2907
 4930TIP3    H214730   6.716   5.445   1.582 -0.3045  0.0475  0.5355
 4931TIP3   OH214731   3.602   5.658   1.076  0.1438 -0.1392  0.2578
 4931TIP3    H114732   3.521   5.648   1.026  0.4977 -1.9095  0.0337
 4931TIP3    H214733   3.582   5.726   1.141 -2.1933 -2.0792  1.6033
 4932TIP3   OH214734   2.720   2.328   5.761 -0.7540  0.0571  0.2597
 4932TIP3    H114735   2.705   2.240   5.729 -0.4910 -0.5715  1.8313
 4932TIP3    H214736   2.751   2.377   5.684  1.3392 -1.7896 -0.1155
 4933TIP3   OH214737   6.013   6.358   0.675  0.1555 -0.4921  0.4739
 4933TIP3    H114738   5.993   6.264   0.680 -0.0473 -0.4385  0.6441
 4933TIP3    H214739   6.020   6.376   0.581  0.5766 -0.7615  0.4512
 4934TIP3   OH214740   2.721   3.435   6.764  0.5273  0.4761 -0.4892
 4934TIP3    H114741   2.734   3.492   6.688  1.1842 -0.6140 -1.2187
 4934TIP3    H214742   2.761   3.352   6.738  1.5765  0.3691  1.4211
 4935TIP3   OH214743   0.133   0.725   0.966  0.1687  0.3681 -0.8764
 4935TIP3    H114744   0.096   0.797   0.914  0.4296  0.7147 -0.5849
 4935TIP3    H214745   0.211   0.698   0.918  0.3658  0.6356 -0.7068
 4936TIP3   OH214746   3.680   5.291   1.207  0.8276  0.1782  0.6396
 4936TIP3    H114747   3.611   5.348   1.238 -0.8255 -0.0089 -2.4938
 4936TIP3    H214748   3.699   5.233   1.281 -2.3396  0.2551  1.5758
 4937TIP3   OH214749   2.942   5.779   4.247  0.1581  0.2075 -0.3628
 4937TIP3    H114750   3.001   5.850   4.220  0.8903 -0.8036 -1.4992
 4937TIP3    H214751   2.986   5.699   4.217 -1.5060 -0.6028 -0.7010
 4938TIP3   OH214752   4.351   4.818   0.486 -0.3263  1.0752  0.9092
 4938TIP3    H114753   4.297   4.830   0.564  0.3519 -0.9219  1.7140
 4938TIP3    H214754   4.429   4.773   0.517 -1.2869 -2.3632 -1.2776
 4939TIP3   OH214755   7.680   4.969   2.416  0.1753 -0.6649  0.1342
 4939TIP3    H114756   7.670   4.876   2.433  1.9458 -0.9863 -0.4712
 4939TIP3    H214757   7.643   4.983   2.329 -0.5409 -0.7028  0.4305
 4940TIP3   OH214758   0.529   0.329   5.860  0.3159  0.1222 -0.2986
 4940TIP3    H114759   0.541   0.268   5.788 -0.2044  0.3907 -0.6189
 4940TIP3    H214760   0.434   0.328   5.876  0.3128  0.7863 -0.2579
 4941TIP3   OH214761   8.056   4.886   0.728  0.5475  1.1270  0.8800
 4941TIP3    H114762   8.125   4.952   0.720  0.3243  1.3312  0.5935
 4941TIP3    H214763   8.103   4.804   0.740  0.8912  1.0698 -0.7014
 4942TIP3   OH214764   5.441   6.238   1.735 -0.0409  0.2668 -0.1165
 4942TIP3    H114765   5.450   6.333   1.726  0.4221  0.5412  2.6775
 4942TIP3    H214766   5.531   6.206   1.737 -0.1819 -0.1241 -0.1451
 4943TIP3   OH214767   4.838   5.601   2.536  0.3778  0.1484  0.4178
 4943TIP3    H114768   4.893   5.541   2.486 -2.6677 -2.2322 -0.2638
 4943TIP3    H214769   4.828   5.559   2.622  1.2263  1.5514  1.2190
 4944TIP3   OH214770   6.117   6.997   1.966  0.4092 -0.3391 -0.0610
 4944TIP3    H114771   6.021   7.003   1.966  0.3199 -1.5942  0.5590
 4944TIP3    H214772   6.146   7.087   1.952 -0.8598  0.2847  1.0977
 4945TIP3   OH214773   2.415   4.761   6.091 -0.1873  0.1462 -0.0031
 4945TIP3    H114774   2.476   4.737   6.160 -1.4121 -0.1563  0.9821
 4945TIP3    H214775   2.426   4.694   6.024  0.1995 -0.1836  0.3891
 4946TIP3   OH214776   8.153   7.707   1.499 -0.1474 -0.6796  0.0991
 4946TIP3    H114777   8.225   7.767   1.479  0.0201 -1.1811 -0.8156
 4946TIP3    H214778   8.157   7.696   1.594  0.0528  0.4646  0.2342
 4947TIP3   OH214779   7.883   6.647   3.943  0.4726  0.2264 -0.5086
 4947TIP3    H114780   7.845   6.733   3.959  0.9845  0.7684 -2.0567
 4947TIP3    H214781   7.817   6.601   3.892 -0.0196 -0.5002  0.7634
 4948TIP3   OH214782   7.228   6.523   1.538 -0.4099  0.6038 -0.0765
 4948TIP3    H114783   7.237   6.618   1.535 -1.7115  0.7202 -0.4802
 4948TIP3    H214784   7.251   6.500   1.628 -0.1078  1.2910  0.0301
 4949TIP3   OH214785   4.424   0.081   6.767  0.1027  0.1847 -0.5120
 4949TIP3    H114786   4.346   0.134   6.750  1.3888  1.6719 -2.0294
 4949TIP3    H214787   4.445   0.097   6.859 -0.2464  1.3467 -0.6282
 4950TIP3   OH214788   6.162   6.757   0.722  0.0791 -0.0993  0.6828
 4950TIP3    H114789   6.214   6.694   0.672  0.8637 -0.4731  1.9346
 4950TIP3    H214790   6.142   6.712   0.804  0.6038  1.2661  1.5757
 4951TIP3   OH214791   4.587   5.167   2.015 -0.3747  0.3360  0.4306
 4951TIP3    H114792   4.626   5.116   2.086 -0.3938  1.1018  1.0027
 4951TIP3    H214793   4.655   5.230   1.991  0.4305 -1.2700 -1.6788
 4952TIP3   OH214794   7.037   5.263   0.611 -0.2552  0.1928 -0.0775
 4952TIP3    H114795   6.996   5.234   0.693  1.0769 -1.3839  0.0617
 4952TIP3    H214796   6.978   5.231   0.543 -1.6042  1.8962  0.2477
 4953TIP3   OH214797   4.250   4.205   2.179  0.0971  0.0225 -0.1634
 4953TIP3    H114798   4.183   4.256   2.223  0.2908  1.5729 -1.6380
 4953TIP3    H214799   4.272   4.255   2.101  0.1002 -2.4590 -1.8002
 4954TIP3   OH214800   0.558   8.032   1.942 -0.3002 -0.2496 -0.1289
 4954TIP3    H114801   0.627   7.966   1.951 -0.6976 -0.5812  0.5762
 4954TIP3    H214802   0.479   7.988   1.974 -0.0567  1.4557  3.0080
 4955TIP3   OH214803   0.153   6.130   1.904  0.4642 -0.3565 -0.0573
 4955TIP3    H114804   0.246   6.140   1.886  0.8812 -3.3644  0.1777
 4955TIP3    H214805   0.125   6.059   1.846 -1.3130 -0.6168  1.0726
 4956TIP3   OH214806   7.288   5.170   0.571 -0.1344  0.3508 -0.5059
 4956TIP3    H114807   7.209   5.223   0.583 -1.9079 -1.9118 -1.7362
 4956TIP3    H214808   7.330   5.169   0.656 -1.8600  0.9386  0.3772
 4957TIP3   OH214809   4.969   4.911   3.005 -0.0438  0.3240 -0.0167
 4957TIP3    H114810   5.010   4.825   3.017 -1.0471 -0.0210  1.1224
 4957TIP3    H214811   5.025   4.956   2.943 -0.9710 -2.1733 -2.8031
 4958TIP3   OH214812   8.014   6.269   0.243  0.2606  0.4829 -0.3884
 4958TIP3    H114813   7.982   6.206   0.178  1.8231  0.7718 -1.4425
 4958TIP3    H214814   7.935   6.296   0.289 -0.5827 -1.4491 -0.6189
 4959TIP3   OH214815   4.787   5.115   2.433  0.6185 -0.2939  0.1115
 4959TIP3    H114816   4.821   5.061   2.505  0.7529 -1.4635 -0.8193
 4959TIP3    H214817   4.782   5.055   2.358 -0.1375  0.7525 -0.6877
 4960TIP3   OH214818   7.517   5.186   2.230  0.0466 -0.7397  0.6301
 4960TIP3    H114819   7.537   5.103   2.185  1.3382  0.3793 -0.9271
 4960TIP3    H214820   7.422   5.189   2.233 -0.0290 -2.0395  0.2220
 4961TIP3   OH214821   7.711   6.438   2.328 -0.4786 -0.1668  0.3930
 4961TIP3    H114822   7.743   6.518   2.370  0.0352 -0.6069  0.8387
 4961TIP3    H214823   7.616   6.440   2.343 -0.3421 -0.1483  1.2710
 4962TIP3   OH214824   8.055   4.626   3.277 -0.1853 -0.0216  0.1380
 4962TIP3    H114825   8.121   4.631   3.346  0.5487  0.3852 -0.5914
 4962TIP3    H214826   8.085   4.557   3.219 -0.5755 -0.0540 -0.0302
 4963TIP3   OH214827   2.758   3.534   5.799  0.7596 -0.0158 -0.0275
 4963TIP3    H114828   2.683   3.513   5.854  0.6903 -0.2803 -0.2173
 4963TIP3    H214829   2.747   3.626   5.777  2.1780  0.8171  2.5308
 4964TIP3   OH214830   2.580   3.491   6.292  0.3397 -0.4756  0.1617
 4964TIP3    H114831   2.493   3.520   6.321 -0.1765  1.4775 -3.0970
 4964TIP3    H214832   2.598   3.413   6.345 -1.3808  1.6632  4.1104
 4965TIP3   OH214833   7.408   7.162   1.325 -0.5240  0.2019 -0.0759
 4965TIP3    H114834   7.444   7.195   1.407 -1.9421  0.2471  0.5533
 4965TIP3    H214835   7.479   7.169   1.262  1.3112 -1.9014  1.6727
 4966TIP3   OH214836   5.295   6.675   0.744 -0.0800  0.3195 -0.6070
 4966TIP3    H114837   5.369   6.635   0.789  0.5685  1.9534 -0.1803
 4966TIP3    H214838   5.218   6.639   0.787  0.4573 -1.3801 -1.0459
 4967TIP3   OH214839   6.299   7.627   3.737  0.0167 -0.7730 -0.0924
 4967TIP3    H114840   6.356   7.674   3.798  1.9878 -0.5801 -2.0152
 4967TIP3    H214841   6.214   7.623   3.781  0.9567  0.8157  1.9288
 4968TIP3   OH214842   5.485   6.252   2.959 -0.2959 -0.0658 -0.1518
 4968TIP3    H114843   5.516   6.327   3.010  1.4809  0.0728 -1.3702
 4968TIP3    H214844   5.553   6.238   2.893 -1.5353 -1.5461 -1.1675
 4969TIP3   OH214845   7.196   7.123   2.974 -0.0655 -0.2549 -0.3276
 4969TIP3    H114846   7.276   7.123   2.922  0.3230  0.4161  0.2618
 4969TIP3    H214847   7.209   7.052   3.037  0.6802  0.7453  0.6780
 4970TIP3   OH214848   7.665   4.900   1.285 -0.4458  0.0385  0.0564
 4970TIP3    H114849   7.602   4.829   1.275 -0.2909 -0.4150  2.0900
 4970TIP3    H214850   7.612   4.977   1.309 -0.6278  0.6773 -2.2694
 4971TIP3   OH214851   4.546   6.786   1.407 -0.2988 -0.5197 -0.0435
 4971TIP3    H114852   4.455   6.782   1.377  0.0205 -0.7079 -1.0097
 4971TIP3    H214853   4.561   6.878   1.426 -0.6019 -0.4385 -0.1841
 4972TIP3   OH214854   4.521   5.679   1.057 -0.0256  0.5450  0.3527
 4972TIP3    H114855   4.524   5.761   1.107 -0.0100  1.4914 -1.1566
 4972TIP3    H214856   4.601   5.679   1.005  0.8830 -1.3552  1.7339
 4973TIP3   OH214857   8.448  -0.007   1.936 -0.4053 -0.0313 -0.0765
 4973TIP3    H114858   8.460   0.037   2.020  0.3882 -2.2627  1.0148
 4973TIP3    H214859   8.536  -0.015   1.900 -0.7543  1.0472 -1.2118
 4974TIP3   OH214860   5.118   7.000   1.037 -0.0841  0.3140  0.6716
 4974TIP3    H114861   5.077   7.060   0.975  2.0311  1.2616  0.1243
 4974TIP3    H214862   5.066   6.920   1.032 -0.8893  0.9240 -1.1539
 4975TIP3   OH214863   1.447   0.933   1.815  0.0443 -0.3992  0.6446
 4975TIP3    H114864   1.419   0.856   1.766  0.8491 -0.0108 -0.4427
 4975TIP3    H214865   1.518   0.971   1.763  0.3155  0.5295  1.6567
 4976TIP3   OH214866   5.009   5.887   0.779 -0.1243 -0.1050 -0.2748
 4976TIP3    H114867   4.922   5.889   0.819 -0.3711  2.3811 -0.8236
 4976TIP3    H214868   5.031   5.794   0.773 -2.2236 -0.7165  0.9814
 4977TIP3   OH214869   7.430   5.287   1.215  0.1147 -0.3697 -0.5196
 4977TIP3    H114870   7.454   5.199   1.187  1.2837 -0.4998  0.8083
 4977TIP3    H214871   7.498   5.343   1.179  0.7087 -0.3319  0.6254
 4978TIP3   OH214872   3.259   0.968   5.883 -0.3555 -0.1598 -0.3237
 4978TIP3    H114873   3.220   1.052   5.860 -1.1585 -0.3830  0.2151
 4978TIP3    H214874   3.187   0.905   5.875 -0.2320 -0.5005  1.1314
 4979TIP3   OH214875   6.814   6.252   0.143 -0.4243 -0.1906  0.4739
 4979TIP3    H114876   6.721   6.239   0.129 -0.3192  0.4309 -0.9846
 4979TIP3    H214877   6.845   6.170   0.181 -1.4223 -0.6946  0.2178
 4980TIP3   OH214878   6.894   5.461   0.253 -0.0458  0.3474  0.1274
 4980TIP3    H114879   6.854   5.512   0.183  0.8707 -0.7539 -1.2364
 4980TIP3    H214880   6.954   5.401   0.207  1.4659  0.4278  1.9443
 4981TIP3   OH214881   7.363   6.132   0.225  0.2074 -0.3915 -0.2493
 4981TIP3    H114882   7.313   6.199   0.270 -1.7610 -0.7349 -1.8346
 4981TIP3    H214883   7.343   6.051   0.272  0.1004 -0.3604 -0.2409
 4982TIP3   OH214884   3.146   7.197   5.314 -0.1425  0.5288  0.7295
 4982TIP3    H114885   3.059   7.203   5.353 -1.7108 -0.9863 -2.3437
 4982TIP3    H214886   3.133   7.221   5.222  2.2413 -1.7917 -0.3025
 4983TIP3   OH214887   8.387   7.223   3.014  0.4394  0.2444  0.0102
 4983TIP3    H114888   8.316   7.174   2.973  0.3644 -0.3100  0.8002
 4983TIP3    H214889   8.374   7.313   2.985 -0.1281  0.0056 -0.4755
 4984TIP3   OH214890   8.083   4.399   3.118 -0.2787  0.3964  0.4640
 4984TIP3    H114891   7.997   4.359   3.128 -0.3890  0.7652  0.9927
 4984TIP3    H214892   8.142   4.340   3.166 -0.0105 -0.6185 -1.0741
 4985TIP3   OH214893   3.547   1.231   6.763  0.3295 -0.1894  0.2208
 4985TIP3    H114894   3.582   1.154   6.808  0.9206  0.1602  0.3745
 4985TIP3    H214895   3.540   1.297   6.832 -0.8454 -0.3146  0.2336
 4986TIP3   OH214896   5.832   6.923   1.220 -0.1713 -0.4450  0.1570
 4986TIP3    H114897   5.845   6.985   1.291  0.9450  1.8510 -1.9882
 4986TIP3    H214898   5.904   6.940   1.159 -0.9980 -2.4629 -1.4475
 4987TIP3   OH214899   7.800   4.703   3.247 -0.0834 -0.1887 -0.0838
 4987TIP3    H114900   7.787   4.710   3.342  1.0746 -1.0160  0.1520
 4987TIP3    H214901   7.888   4.666   3.238 -0.2330 -0.2171 -1.4831
 4988TIP3   OH214902   4.083   2.462   6.506  0.4916  0.5625  0.0285
 4988TIP3    H114903   4.151   2.409   6.547  2.0213  0.3312 -2.7202
 4988TIP3    H214904   4.124   2.497   6.427 -2.2186  1.3754 -1.0752
 4989TIP3   OH214905   4.856   4.079   1.026 -0.2180 -0.0985  0.3342
 4989TIP3    H114906   4.856   4.070   0.931 -1.6411 -1.4122  0.4362
 4989TIP3    H214907   4.942   4.047   1.053 -0.2760 -0.8968 -0.4153
 4990TIP3   OH214908   8.148   7.764   5.644 -0.4024 -0.5257  0.1383
 4990TIP3    H114909   8.229   7.814   5.636  0.4054 -1.8043  0.1075
 4990TIP3    H214910   8.081   7.829   5.664  0.2377  0.8355 -1.9838
 4991TIP3   OH214911   6.843   5.599   1.001  1.2110  0.4603 -0.0348
 4991TIP3    H114912   6.842   5.688   0.964 -3.4541 -0.5373 -2.8281
 4991TIP3    H214913   6.781   5.603   1.074 -1.4338 -1.0858 -2.0998
 4992TIP3   OH214914   8.175   0.518   0.948 -0.4754 -0.5157 -0.1428
 4992TIP3    H114915   8.153   0.489   0.860  0.4548  0.6074 -0.7564
 4992TIP3    H214916   8.142   0.608   0.953  2.2966  0.6064 -0.5070
 4993TIP3   OH214917   6.994   6.677   1.048  0.0229 -0.1553 -0.4265
 4993TIP3    H114918   6.935   6.741   1.008 -0.9005 -0.6374  0.1458
 4993TIP3    H214919   6.943   6.596   1.052  0.5419 -0.4447  0.5673
 4994TIP3   OH214920   7.141   6.157   1.761  0.0970  0.3308 -0.3641
 4994TIP3    H114921   7.161   6.202   1.843  1.1258 -1.2154  0.2616
 4994TIP3    H214922   7.161   6.065   1.779 -0.9979 -0.2418 -1.9187
 4995TIP3   OH214923   0.747   0.886   1.431 -0.1039 -0.1924 -0.2386
 4995TIP3    H114924   0.733   0.969   1.477  1.2906  0.3394 -0.7655
 4995TIP3    H214925   0.809   0.907   1.362  1.1374 -1.9232  0.3305
 4996TIP3   OH214926   4.886   5.365   3.441  0.1865  0.0631 -0.1727
 4996TIP3    H114927   4.918   5.405   3.360  0.5588 -1.0824 -0.5878
 4996TIP3    H214928   4.790   5.367   3.433  0.1836  1.3075  0.0242
 4997TIP3   OH214929   5.464   4.621   0.526  0.1162 -0.2185  0.1602
 4997TIP3    H114930   5.402   4.578   0.586 -1.0083  2.0227  0.6699
 4997TIP3    H214931   5.492   4.552   0.467 -1.2412 -1.7654  1.2771
 4998TIP3   OH214932   4.660   5.213   4.168 -0.2330 -0.0572 -0.0046
 4998TIP3    H114933   4.658   5.151   4.095  0.9444 -0.7359  0.5205
 4998TIP3    H214934   4.734   5.184   4.222 -0.4944  1.0114  0.9491
 4999TIP3   OH214935   5.424   5.960   2.950  0.3210 -0.1143  0.4244
 4999TIP3    H114936   5.445   6.053   2.957  1.8522 -0.3802 -0.4216
 4999TIP3    H214937   5.422   5.943   2.855  0.3725 -1.0123  0.5808
 5000TIP3   OH214938   0.708   6.709   1.485 -0.2700 -0.2495  0.1952
 5000TIP3    H114939   0.713   6.724   1.580 -0.8997 -1.1858  0.3828
 5000TIP3    H214940   0.703   6.797   1.448  1.1903  0.1671  0.9520
 5001TIP3   OH214941   7.120   7.424   2.115 -0.1742  0.7647  0.5918
 5001TIP3    H114942   7.172   7.407   2.036 -2.0603 -1.4830 -0.2253
 5001TIP3    H214943   7.097   7.516   2.109  1.3342  1.0949 -0.4916
 5002TIP3   OH214944   1.796   0.303   0.301  0.4267 -0.1962  0.1081
 5002TIP3    H114945   1.834   0.220   0.275 -0.4744  0.0891 -2.2048
 5002TIP3    H214946   1.856   0.369   0.266 -0.2578  0.1697 -0.3960
 5003TIP3   OH214947   0.425   6.510   6.643 -0.8886 -0.5022 -0.3751
 5003TIP3    H114948   0.446   6.533   6.553  0.1690 -0.4941 -0.1279
 5003TIP3    H214949   0.332   6.486   6.641 -1.7778  2.6759 -0.8830
 5004TIP3   OH214950   3.582   3.888   6.841  0.1017  0.4285  0.3284
 5004TIP3    H114951   3.579   3.793   6.845  2.3973  0.3945  3.1601
 5004TIP3    H214952   3.651   3.908   6.778 -0.0518  0.2101  0.0920
 5005TIP3   OH214953   1.935   1.068   3.463 -0.3693 -0.3226 -0.6016
 5005TIP3    H114954   1.977   1.116   3.392 -0.3279 -0.8702 -0.9550
 5005TIP3    H214955   1.919   1.133   3.531  3.5084 -0.5987  0.6962
 5006TIP3   OH214956   8.131   7.913   1.972 -0.0587 -0.1397  0.1548
 5006TIP3    H114957   8.053   7.882   2.019 -0.2558 -1.3083 -0.8906
 5006TIP3    H214958   8.097   7.957   1.894  0.2753  1.4036  0.8650
 5007TIP3   OH214959   5.957   4.589   2.932 -0.7906  0.1113  0.1269
 5007TIP3    H114960   6.045   4.558   2.955 -0.0558  1.1258 -1.1620
 5007TIP3    H214961   5.960   4.683   2.952 -0.7392  0.6469 -2.1580
 5008TIP3   OH214962   6.347   6.341   2.149 -0.5652 -0.2681  0.2508
 5008TIP3    H114963   6.343   6.351   2.054  0.4761 -1.5733  0.0463
 5008TIP3    H214964   6.268   6.385   2.181 -0.9938  0.0801 -1.2238
 5009TIP3   OH214965   3.681   3.610   5.723 -0.3583 -0.5612  0.7203
 5009TIP3    H114966   3.687   3.602   5.819  1.4233  0.7180  0.7505
 5009TIP3    H214967   3.721   3.530   5.690 -0.0560 -0.5463  1.0457
 5010TIP3   OH214968   0.878   5.475   1.982  0.5728  0.6147 -0.3293
 5010TIP3    H114969   0.868   5.393   2.030 -1.0408  1.6187  1.1075
 5010TIP3    H214970   0.966   5.505   2.004  1.1821 -0.7057 -0.8828
 5011TIP3   OH214971   8.440   4.439   0.227 -0.4301  0.4889 -0.0964
 5011TIP3    H114972   8.532   4.466   0.228 -0.0560 -0.6779 -1.6562
 5011TIP3    H214973   8.393   4.515   0.192 -0.2710  1.6566  2.1711
 5012TIP3   OH214974   7.351   5.377   0.409  0.2285 -0.7161 -0.1957
 5012TIP3    H114975   7.263   5.414   0.421  0.1759 -0.2838 -1.9047
 5012TIP3    H214976   7.345   5.290   0.449 -0.1902  0.3468  2.1441
 5013TIP3   OH214977   2.973   7.944   6.722 -0.1845 -0.0819 -0.2284
 5013TIP3    H114978   2.897   7.978   6.674 -1.0583  0.7852  1.7131
 5013TIP3    H214979   3.048   7.969   6.668 -1.1987  0.1143 -1.5761
 5014TIP3   OH214980   8.073   5.132   0.455 -0.6709  0.2445 -0.4593
 5014TIP3    H114981   8.138   5.177   0.508 -1.3554  1.6081 -0.7639
 5014TIP3    H214982   8.091   5.160   0.365 -2.3950  1.5632 -0.4148
 5015TIP3   OH214983   6.959   7.786   1.637 -0.3996  0.1964  0.0395
 5015TIP3    H114984   6.963   7.807   1.544  1.3013  0.1158  0.0870
 5015TIP3    H214985   6.935   7.869   1.679 -0.4218  0.4109 -0.3970
 5016TIP3   OH214986   6.536   6.537   0.272 -0.0120 -0.0560 -0.3427
 5016TIP3    H114987   6.556   6.564   0.182  0.1706  2.4814  0.4369
 5016TIP3    H214988   6.454   6.488   0.263  1.6263 -2.6019 -2.2810
 5017TIP3   OH214989   5.066   6.920   0.566  0.1929 -0.1544 -0.3289
 5017TIP3    H114990   4.974   6.945   0.563 -0.4248 -2.3011 -0.1714
 5017TIP3    H214991   5.090   6.904   0.475  0.3617  0.2291 -0.3525
 5018TIP3   OH214992   7.051   6.216   3.717  0.1762  0.0217  0.7233
 5018TIP3    H114993   6.967   6.184   3.684  0.2685 -1.7661  2.1480
 5018TIP3    H214994   7.113   6.198   3.646 -1.0508  3.7962 -1.4365
 5019TIP3   OH214995   5.930   7.787   0.808  0.0594 -0.6195  0.1595
 5019TIP3    H114996   5.929   7.701   0.850  0.4947  0.2149  1.9080
 5019TIP3    H214997   6.024   7.805   0.794 -0.0130 -0.2757  0.1119
 5020TIP3   OH214998   6.544   7.877   1.219 -0.2095 -0.0570  0.0098
 5020TIP3    H114999   6.598   7.943   1.174 -1.7288  1.0775 -0.1905
 5020TIP3    H215000   6.510   7.923   1.296 -1.1352 -0.6659 -0.0339
 5021TIP3   OH215001   0.825   0.576   1.210 -0.0374  0.0676  0.2509
 5021TIP3    H115002   0.850   0.498   1.161  0.2656 -0.1084  0.6904
 5021TIP3    H215003   0.805   0.641   1.142 -2.1363 -0.9535 -0.1360
 5022TIP3   OH215004   7.412   7.353   2.520  0.2007  0.3748 -0.2138
 5022TIP3    H115005   7.397   7.292   2.447 -1.8121  0.0623  0.4444
 5022TIP3    H215006   7.388   7.439   2.484 -1.1730  0.1650  0.2013
 5023TIP3   OH215007   8.211   4.945   4.162 -0.2378 -0.5433  0.2391
 5023TIP3    H115008   8.238   4.896   4.239 -2.4655 -1.0682  0.7177
 5023TIP3    H215009   8.126   4.908   4.138 -0.4993  0.9505 -1.2888
 5024TIP3   OH215010   6.259   7.220   1.060  0.5436  0.5068 -0.1871
 5024TIP3    H115011   6.262   7.180   0.973 -0.0138  1.3279 -0.5911
 5024TIP3    H215012   6.344   7.262   1.070  1.6038 -1.7791  0.7366
 5025TIP3   OH215013   2.150   0.985   3.263  0.2166  0.0374 -0.1379
 5025TIP3    H115014   2.073   0.932   3.284 -0.2154  0.6615 -0.1466
 5025TIP3    H215015   2.214   0.960   3.330 -1.1497  1.9950  1.9704
 5026TIP3   OH215016   6.466   7.437   2.759 -0.2472 -0.1407  0.2030
 5026TIP3    H115017   6.525   7.362   2.770 -0.4511 -0.2731  0.4013
 5026TIP3    H215018   6.488   7.495   2.832 -0.9429 -0.5790  0.7721
 5027TIP3   OH215019   7.144   6.936   3.210 -0.5038 -0.4809  0.2298
 5027TIP3    H115020   7.235   6.910   3.224 -0.2239  0.3945  0.0345
 5027TIP3    H215021   7.114   6.879   3.139 -0.4254 -1.4982  1.0164
 5028TIP3   OH215022   5.697   6.750   1.571 -1.0298 -0.2085 -0.3063
 5028TIP3    H115023   5.614   6.742   1.617 -0.1763 -1.5183  1.0224
 5028TIP3    H215024   5.710   6.845   1.562 -1.6783  0.0453  1.2657
 5029TIP3   OH215025   6.621   5.959   2.005  0.3430  0.4254 -0.7010
 5029TIP3    H115026   6.648   5.877   2.046  0.2668  1.1151  0.7703
 5029TIP3    H215027   6.527   5.966   2.023  0.1752  0.4274 -1.5538
 5030TIP3   OH215028   6.446   7.879   4.151  0.5097 -0.0771 -0.6286
 5030TIP3    H115029   6.454   7.844   4.240 -1.7737 -2.3278 -1.2396
 5030TIP3    H215030   6.504   7.823   4.098  2.3980  1.6934 -0.4747
 5031TIP3   OH215031   6.860   5.502   1.485 -0.1516 -0.2431  0.4080
 5031TIP3    H115032   6.880   5.418   1.443  1.8352 -0.1063  1.0123
 5031TIP3    H215033   6.942   5.552   1.478 -0.8018  1.0128  1.5186
 5032TIP3   OH215034   7.890   5.116   3.040 -0.2139  0.2034  0.3236
 5032TIP3    H115035   7.971   5.066   3.045 -1.0547 -1.4126 -1.8339
 5032TIP3    H215036   7.914   5.203   3.073  1.8791 -0.8267  1.6461
 5033TIP3   OH215037   0.065   0.398   2.004  0.5399 -0.1375  0.6984
 5033TIP3    H115038   0.053   0.309   2.036  0.2416 -0.6713 -0.8501
 5033TIP3    H215039   0.159   0.405   1.987  0.5452 -0.1896  0.7048
 5034TIP3   OH215040   6.737   6.196   4.828 -0.8498 -0.0495 -0.3995
 5034TIP3    H115041   6.791   6.161   4.898 -0.7412  1.5298  0.3245
 5034TIP3    H215042   6.750   6.135   4.755 -1.0823 -1.7879  0.9829
 5035TIP3   OH215043   5.802   5.710   4.557  0.4038 -0.2391 -0.5445
 5035TIP3    H115044   5.779   5.701   4.649  0.0763  0.4154 -0.5552
 5035TIP3    H215045   5.898   5.702   4.555  0.4705  0.3547 -0.0640
 5036TIP3   OH215046   6.560   5.719   0.655  0.4969 -0.5933 -0.5299
 5036TIP3    H115047   6.559   5.655   0.726 -1.6186  0.5821  0.5528
 5036TIP3    H215048   6.548   5.804   0.699  0.1744  0.2323 -2.1811
 5037TIP3   OH215049   6.699   3.980   3.510 -0.0292 -0.0817 -0.6442
 5037TIP3    H115050   6.642   4.052   3.484  0.8745  0.8638 -0.0540
 5037TIP3    H215051   6.640   3.905   3.519 -0.5615 -0.1789 -4.1948
 5038TIP3   OH215052   6.253   5.066   1.106 -1.0532  0.0604 -0.3516
 5038TIP3    H115053   6.172   5.086   1.153 -0.5875  0.3944  0.3250
 5038TIP3    H215054   6.253   5.126   1.032 -0.8380  0.9241  0.3288
 5039TIP3   OH215055   4.701   7.781   0.399  0.0992  0.2679  0.0807
 5039TIP3    H115056   4.759   7.711   0.430 -0.8125 -0.7629 -0.4973
 5039TIP3    H215057   4.647   7.739   0.332 -0.5747  1.4943 -0.1565
 5040TIP3   OH215058   6.375   5.864   2.425  0.4227 -0.2862  0.3342
 5040TIP3    H115059   6.454   5.916   2.410 -0.5228  0.6992 -1.3546
 5040TIP3    H215060   6.309   5.926   2.454 -0.4671 -0.6764 -0.8159
 5041TIP3   OH215061   7.489   6.346   1.036  0.4247  0.5012 -0.2847
 5041TIP3    H115062   7.476   6.301   1.120  1.3131  0.8530  0.0429
 5041TIP3    H215063   7.468   6.280   0.970  1.0944 -0.2051  0.2015
 5042TIP3   OH215064   5.485   6.805   2.169 -0.4240  0.0899 -0.4685
 5042TIP3    H115065   5.416   6.747   2.200 -0.1167  0.0197  0.0824
 5042TIP3    H215066   5.452   6.893   2.186  0.7347  0.0498  2.2876
 5043TIP3   OH215067   7.342   5.046   1.115  0.1736 -0.6050 -0.2606
 5043TIP3    H115068   7.342   4.980   1.184  0.7406 -0.7383 -0.3853
 5043TIP3    H215069   7.379   5.002   1.039  2.0730  0.3155  0.1026
 5044TIP3   OH215070   0.919   0.155   3.655  0.0643  0.4252  0.0892
 5044TIP3    H115071   0.884   0.229   3.606 -0.6570 -0.6817 -1.1174
 5044TIP3    H215072   1.009   0.180   3.674  0.3321  0.9470 -1.7308
 5045TIP3   OH215073   6.953   5.250   1.767 -0.4182 -0.1368 -0.7311
 5045TIP3    H115074   6.891   5.212   1.830 -2.4388  0.9019 -2.0343
 5045TIP3    H215075   6.953   5.344   1.789  1.0391 -0.1970 -0.4637
 5046TIP3   OH215076   6.672   5.203   0.699  0.3456 -0.2346 -0.7489
 5046TIP3    H115077   6.646   5.241   0.616 -1.1277  1.5819  0.4990
 5046TIP3    H215078   6.726   5.270   0.740 -0.5276 -0.3078  0.5635
 5047TIP3   OH215079   7.167   5.965   1.032 -0.4870  0.1905  0.1422
 5047TIP3    H115080   7.213   5.980   1.115 -0.5504 -1.3472  0.4739
 5047TIP3    H215081   7.193   5.877   1.006 -0.1307  0.8366 -1.7150
 5048TIP3   OH215082   6.556   6.190   0.101  1.1417  0.5075 -0.2706
 5048TIP3    H115083   6.483   6.241   0.137  0.7819 -0.2605  0.1012
 5048TIP3    H215084   6.523   6.100   0.099  1.6105  0.3517 -1.3224
 5049TIP3   OH215085   5.069   2.865   1.939  0.0682  0.2968  0.0053
 5049TIP3    H115086   5.046   2.909   1.857 -0.3851 -0.4860 -0.2904
 5049TIP3    H215087   5.110   2.783   1.911  2.6915  1.3859  0.5288
 5050TIP3   OH215088   7.429   6.627   3.093 -0.0605  0.1056  0.2015
 5050TIP3    H115089   7.446   6.694   3.026  1.2352 -1.3576 -0.9901
 5050TIP3    H215090   7.356   6.576   3.057  0.7732 -0.8111 -0.2296
 5051TIP3   OH215091   5.849   5.235   2.432  0.7039 -0.1013 -0.0663
 5051TIP3    H115092   5.879   5.150   2.402  2.9691  0.5659  0.2146
 5051TIP3    H215093   5.811   5.276   2.355  1.0560 -0.7409 -0.5870
 5052TIP3   OH215094   6.327   6.602   2.585  0.2159 -0.0371  0.0040
 5052TIP3    H115095   6.350   6.569   2.499  0.5652 -0.6401  0.3275
 5052TIP3    H215096   6.293   6.690   2.569  1.9379  0.5444 -0.5541
 5053TIP3   OH215097   7.245   5.877   1.719  0.0712  0.4996 -0.2589
 5053TIP3    H115098   7.288   5.884   1.634  0.3788 -1.7410 -0.3135
 5053TIP3    H215099   7.314   5.898   1.782 -0.0169  1.6252 -0.5266
 5054TIP3   OH215100   5.165   7.436   2.564 -0.2527  0.2111 -0.1557
 5054TIP3    H115101   5.158   7.446   2.659  1.4197  1.9288 -0.1880
 5054TIP3    H215102   5.144   7.523   2.530 -1.7759 -0.6379 -1.4239
 5055TIP3   OH215103   0.122   0.851   1.341  0.5514 -0.8009  0.9356
 5055TIP3    H115104   0.144   0.759   1.326  0.4085 -0.8222  0.8591
 5055TIP3    H215105   0.072   0.851   1.423  2.1912 -0.5675  1.9527
 5056TIP3   OH215106   1.375   0.910   0.503  0.0544 -0.4429  0.0478
 5056TIP3    H115107   1.309   0.943   0.442 -0.3297  0.9770  1.1974
 5056TIP3    H215108   1.369   0.815   0.497 -0.8617 -0.3158 -1.1655
 5057TIP3   OH215109   7.201   0.259   0.748  0.6050 -0.2626  0.0555
 5057TIP3    H115110   7.236   0.322   0.811  1.0743  1.1111 -1.5433
 5057TIP3    H215111   7.172   0.313   0.674  1.2265 -1.9392 -1.4455
 5058TIP3   OH215112   3.871   2.002   6.837  0.9018  0.3026  0.0213
 5058TIP3    H115113   3.919   2.077   6.802  0.7176  0.0894 -0.6932
 5058TIP3    H215114   3.804   1.984   6.771  1.7445 -1.2922 -0.4151
 5059TIP3   OH215115   4.543   5.291   0.302 -0.1782 -0.0763  0.5305
 5059TIP3    H115116   4.604   5.238   0.354 -0.6180  1.5486  2.7404
 5059TIP3    H215117   4.600   5.347   0.249  0.2643 -0.3577  0.7038
 5060TIP3   OH215118   8.130   4.106   1.756  0.4126 -0.1960  0.1863
 5060TIP3    H115119   8.040   4.089   1.782  0.2018  0.0506 -0.3774
 5060TIP3    H215120   8.130   4.094   1.661  0.5198  1.7793 -0.0932
 5061TIP3   OH215121   7.547   5.565   0.504 -0.3004  0.0203 -0.3334
 5061TIP3    H115122   7.503   5.504   0.445 -0.3290  0.2205 -0.5194
 5061TIP3    H215123   7.614   5.607   0.449 -0.5553  0.4571 -0.3107
 5062TIP3   OH215124   3.827   1.039   3.169  0.0691  0.0476 -0.0013
 5062TIP3    H115125   3.772   1.117   3.180 -0.2936 -0.2972  0.6288
 5062TIP3    H215126   3.900   1.069   3.114 -1.4860  0.1388 -2.0628
 5063TIP3   OH215127   3.015   1.188   6.777  0.2430  0.7156 -0.1123
 5063TIP3    H115128   2.950   1.134   6.731 -0.5856  1.9605 -0.4195
 5063TIP3    H215129   2.963   1.242   6.836  1.1613  0.4680  0.9339
 5064TIP3   OH215130   5.761   4.571   0.269  0.3479 -0.1515 -0.0733
 5064TIP3    H115131   5.836   4.607   0.317  2.5407 -0.8199 -2.8737
 5064TIP3    H215132   5.684   4.609   0.313  2.3356  1.3497  2.2332
 5065TIP3   OH215133   0.279   5.497   1.326  0.6260 -0.6854  0.4287
 5065TIP3    H115134   0.273   5.472   1.233 -1.0292 -0.2061  0.3928
 5065TIP3    H215135   0.192   5.531   1.347  1.3038  0.1734  1.8915
 5066TIP3   OH215136   6.051   7.739   1.451  0.2428  0.2507  0.7748
 5066TIP3    H115137   5.966   7.763   1.486 -0.3471 -0.9927  0.2358
 5066TIP3    H215138   6.107   7.727   1.528 -0.3054  0.2079  1.1626
 5067TIP3   OH215139   5.118   4.224   0.950  0.0079  0.4721 -0.1828
 5067TIP3    H115140   5.128   4.139   0.905  2.2379  0.9108 -0.6045
 5067TIP3    H215141   5.029   4.252   0.928 -0.8191 -1.8060  0.0691
 5068TIP3   OH215142   7.454   6.085   0.883  0.0639  0.1212  0.1183
 5068TIP3    H115143   7.386   6.028   0.846  1.3452 -0.5296 -1.2776
 5068TIP3    H215144   7.469   6.050   0.971  0.1484 -1.0888 -0.3655
 5069TIP3   OH215145   4.846   5.108   1.669 -0.1340 -0.2990 -0.1996
 5069TIP3    H115146   4.785   5.152   1.609  0.6390  2.5382  1.0187
 5069TIP3    H215147   4.933   5.131   1.636  0.2907  0.1404  1.2066
 5070TIP3   OH215148   3.858   1.620   6.453 -0.0242 -0.2888 -1.1176
 5070TIP3    H115149   3.867   1.598   6.545 -2.7549 -1.7672 -1.1662
 5070TIP3    H215150   3.901   1.549   6.406 -1.0691 -0.9856 -1.0357
 5071TIP3   OH215151   5.169   5.508   3.500  0.1279 -0.2720 -0.2406
 5071TIP3    H115152   5.084   5.494   3.541  0.2620 -2.4014 -0.6561
 5071TIP3    H215153   5.150   5.521   3.407 -0.1693  4.4798  0.3395
 5072TIP3   OH215154   2.889   0.113   3.345  0.1708 -0.5148  0.7278
 5072TIP3    H115155   2.964   0.172   3.342  1.3798 -2.0526 -0.4459
 5072TIP3    H215156   2.924   0.033   3.384 -1.0388 -1.0005  0.8088
 5073TIP3   OH215157   7.426   7.064   4.157  0.1328  0.0605  0.2498
 5073TIP3    H115158   7.452   7.088   4.068 -0.0454  0.7792  0.3828
 5073TIP3    H215159   7.334   7.040   4.149  0.6858 -1.9948 -0.1330
 5074TIP3   OH215160   0.886   7.436   4.486 -0.3168  0.7804 -0.1017
 5074TIP3    H115161   0.881   7.500   4.415 -0.0452 -1.9081 -2.6193
 5074TIP3    H215162   0.802   7.390   4.483 -0.4588  0.9189  1.5972
 5075TIP3   OH215163   8.078   7.735   3.552  0.0932  0.7165 -0.3996
 5075TIP3    H115164   8.170   7.752   3.570  0.0864  2.9956 -2.2868
 5075TIP3    H215165   8.079   7.677   3.476 -0.0397  1.5529 -1.0415
 5076TIP3   OH215166   1.837   0.155   2.716 -0.8000  0.0116 -0.5071
 5076TIP3    H115167   1.743   0.162   2.732 -1.0121  0.1092 -1.7443
 5076TIP3    H215168   1.872   0.241   2.740 -1.1509  0.2388 -0.7971
 5077TIP3   OH215169   3.007   0.365   0.652 -0.3021  0.2092  0.3036
 5077TIP3    H115170   3.030   0.322   0.734  0.4355  0.9225  0.4749
 5077TIP3    H215171   2.917   0.338   0.635 -0.8803  1.0244  1.9877
 5078TIP3   OH215172   2.538   0.595   3.162  0.3813  0.3249  0.5506
 5078TIP3    H115173   2.550   0.549   3.079  2.0467  0.4690  0.6986
 5078TIP3    H215174   2.458   0.557   3.198 -1.1565  1.2901 -1.7741
 5079TIP3   OH215175   1.091   7.027   3.267  0.3131 -0.0368  0.1045
 5079TIP3    H115176   1.090   7.085   3.342 -0.4423 -2.4124  2.0055
 5079TIP3    H215177   1.003   6.988   3.265 -0.3895  1.5604 -3.3019
 5080TIP3   OH215178   7.823   7.363   1.481  0.3916  0.0220 -0.3252
 5080TIP3    H115179   7.817   7.424   1.555  1.3175  1.2938 -1.2696
 5080TIP3    H215180   7.848   7.280   1.520 -0.3016  0.3754  0.9233
 5081TIP3   OH215181   2.742   0.429   2.702 -0.0768  0.4087  0.7899
 5081TIP3    H115182   2.817   0.368   2.707 -0.2168  0.1322 -0.2697
 5081TIP3    H215183   2.752   0.470   2.616 -1.3121  0.1469  0.5170
 5082TIP3   OH215184   0.180   7.772   2.875 -0.3141  0.1956 -0.3344
 5082TIP3    H115185   0.157   7.859   2.908 -1.1671 -0.3527  0.5434
 5082TIP3    H215186   0.107   7.748   2.818 -1.0138 -0.7568  0.9565
 5083TIP3   OH215187   0.601   6.538   3.323  0.3985 -0.1851  0.0607
 5083TIP3    H115188   0.561   6.488   3.394  2.8194 -0.4490  1.2971
 5083TIP3    H215189   0.610   6.626   3.358 -0.4593  0.2214 -0.7462
 5084TIP3   OH215190   0.709   7.701   1.572 -0.2065  0.3520 -0.5744
 5084TIP3    H115191   0.759   7.640   1.518 -0.8614  0.5373 -1.4031
 5084TIP3    H215192   0.618   7.690   1.544 -0.4765  0.8907  0.0658
 5085TIP3   OH215193   6.780   6.874   4.230 -0.8266  0.3608  0.1410
 5085TIP3    H115194   6.824   6.929   4.165 -2.4575  1.3999 -0.0882
 5085TIP3    H215195   6.768   6.931   4.306 -1.8049  0.0889  0.1919
 5086TIP3   OH215196   0.425   1.278   1.756  0.2271  0.2141 -0.1346
 5086TIP3    H115197   0.355   1.310   1.699  0.2632  1.0315  0.2716
 5086TIP3    H215198   0.380   1.238   1.830  0.1671 -1.6562 -1.1497
 5087TIP3   OH215199   1.409   1.064   3.816  0.3964  0.4906  0.2290
 5087TIP3    H115200   1.457   1.005   3.874  0.8816  0.2628 -0.4051
 5087TIP3    H215201   1.435   1.038   3.728 -1.9049 -0.5202 -0.1844
 5088TIP3   OH215202   8.056   7.992   2.248 -0.2519 -0.0516  0.1854
 5088TIP3    H115203   8.122   7.973   2.315 -0.6350 -0.5722  0.4175
 5088TIP3    H215204   8.011   8.070   2.280 -0.1055 -0.0062  0.2848
 5089TIP3   OH215205   8.293   6.935   5.937  0.4130 -0.4623  0.6557
 5089TIP3    H115206   8.333   7.020   5.920  0.3356 -0.9910 -2.5043
 5089TIP3    H215207   8.361   6.884   5.981  1.2588  0.4892  0.4681
 5090TIP3   OH215208   2.145   7.434   2.325 -0.5368 -0.2861 -0.0407
 5090TIP3    H115209   2.080   7.502   2.343  0.5097  0.5168  0.7666
 5090TIP3    H215210   2.119   7.398   2.240 -0.4273  1.9204 -1.0326
 5091TIP3   OH215211   6.420   6.566   2.312  0.1881  0.7845 -0.1142
 5091TIP3    H115212   6.424   6.621   2.234  0.6831  0.4487 -0.3261
 5091TIP3    H215213   6.436   6.477   2.280 -1.8896  0.3322  0.0393
 5092TIP3   OH215214   8.472   4.348   4.830  0.2234  0.4164 -0.4078
 5092TIP3    H115215   8.480   4.431   4.876 -0.3963  1.6739 -2.5232
 5092TIP3    H215216   8.387   4.313   4.857  0.4340  0.5017  0.3825
 5093TIP3   OH215217   2.691   6.810   5.008 -0.1665  0.1422 -0.2543
 5093TIP3    H115218   2.637   6.762   4.946 -1.2281  1.0438 -0.0432
 5093TIP3    H215219   2.702   6.750   5.082 -2.3364  0.5482  0.4472
 5094TIP3   OH215220   1.709   6.676   6.003 -0.4339  0.6903  0.4629
 5094TIP3    H115221   1.805   6.672   6.006 -0.4178  0.7264  0.0136
 5094TIP3    H215222   1.687   6.756   6.051 -0.3812 -0.7314  2.9195
 5095TIP3   OH215223   1.369   0.056   3.283  0.1548  0.5616 -0.1722
 5095TIP3    H115224   1.446   0.031   3.333 -0.6288 -1.4388  0.1078
 5095TIP3    H215225   1.321  -0.026   3.270 -1.4052  1.5954 -1.2121
 5096TIP3   OH215226   0.689   7.897   6.760 -0.4298  0.0799  0.0865
 5096TIP3    H115227   0.734   7.900   6.676  0.5650  1.1832  0.6474
 5096TIP3    H215228   0.645   7.982   6.767  1.4014  0.9480  1.6891
 5097TIP3   OH215229   0.929   0.591   4.151 -0.4684 -0.3437  1.0380
 5097TIP3    H115230   0.971   0.515   4.193  0.8993 -0.2875 -0.1925
 5097TIP3    H215231   0.860   0.616   4.212 -0.6238 -2.2711  1.7062
 5098TIP3   OH215232   8.251   7.488   3.022 -0.1801 -0.5883 -0.0355
 5098TIP3    H115233   8.283   7.563   2.973  0.0432  0.9069  2.3121
 5098TIP3    H215234   8.155   7.494   3.017 -0.1543 -1.1112 -1.2429
 5099TIP3   OH215235   2.198   0.839   1.746  0.1728  0.0067  0.5489
 5099TIP3    H115236   2.258   0.817   1.674 -0.1194  0.2647  0.2274
 5099TIP3    H215237   2.182   0.755   1.790  0.3475 -0.1530  0.3100
 5100TIP3   OH215238   0.083   6.343   3.501  0.3426  0.4043 -0.3406
 5100TIP3    H115239   0.174   6.314   3.493  0.1997 -0.2497  0.3217
 5100TIP3    H215240   0.034   6.286   3.442  0.2745  0.3289 -0.2113
 5101TIP3   OH215241   0.502   1.076   5.384 -0.4929  0.5112 -0.2982
 5101TIP3    H115242   0.523   1.169   5.385  1.4195  0.0896  1.5103
 5101TIP3    H215243   0.535   1.044   5.300  2.8288  0.6217  0.9044
 5102TIP3   OH215244   2.187   2.431   4.027  0.1035  0.1209 -0.4625
 5102TIP3    H115245   2.134   2.373   4.081 -1.0847  1.0961 -0.5554
 5102TIP3    H215246   2.147   2.426   3.940  0.2843  0.7041 -0.5833
 5103TIP3   OH215247   6.815   7.988   1.754  0.2365 -0.7978 -0.2685
 5103TIP3    H115248   6.781   8.073   1.725  1.1812 -0.9214 -1.8165
 5103TIP3    H215249   6.739   7.929   1.749 -0.3857 -0.0976  0.6625
 5104TIP3   OH215250   2.048   6.262   3.014 -0.0583  0.7244 -0.2926
 5104TIP3    H115251   2.101   6.252   2.935 -0.4377 -0.5627 -0.3941
 5104TIP3    H215252   1.958   6.249   2.984 -0.0524 -1.8704  0.6915
 5105TIP3   OH215253   7.745   6.759   2.308  0.3772  0.0642 -0.5545
 5105TIP3    H115254   7.784   6.700   2.372 -0.2672 -0.4040 -0.5877
 5105TIP3    H215255   7.739   6.843   2.353  0.1719 -0.1950 -0.0976
 5106TIP3   OH215256   8.062   7.546   2.254  0.2539  0.1231 -0.2955
 5106TIP3    H115257   8.091   7.478   2.194  0.3801  0.2649 -0.3970
 5106TIP3    H215258   8.137   7.605   2.262 -0.0230  0.5185 -0.5962
 5107TIP3   OH215259   1.996   7.033   3.926  0.1725 -0.0991  0.2911
 5107TIP3    H115260   1.995   6.968   3.996 -0.7670  2.1398  2.4374
 5107TIP3    H215261   2.087   7.063   3.922  0.6345 -1.5864 -0.7888
 5108TIP3   OH215262   1.824   0.176   1.048  0.9099  0.0249  0.2475
 5108TIP3    H115263   1.900   0.132   1.086  2.0086  0.9588 -0.8237
 5108TIP3    H215264   1.751   0.149   1.103  1.4155 -3.6221 -0.7029
 5109TIP3   OH215265   4.017   4.261   6.639 -0.3248  0.4831 -0.2435
 5109TIP3    H115266   3.949   4.280   6.573 -0.3133  0.9670 -0.1177
 5109TIP3    H215267   4.067   4.342   6.645 -0.8002  0.6889  0.9326
 5110TIP3   OH215268   2.792   1.328   3.642  0.0132 -0.1734  0.1059
 5110TIP3    H115269   2.799   1.235   3.662  0.6866  0.4048  2.6593
 5110TIP3    H215270   2.803   1.372   3.726 -0.4865  2.2162 -1.0373
 5111TIP3   OH215271   6.657   1.433   1.737 -0.0395 -0.1018 -0.2518
 5111TIP3    H115272   6.570   1.406   1.706 -0.2813  0.1584  0.1948
 5111TIP3    H215273   6.717   1.368   1.700 -0.5767 -1.0132  0.4583
 5112TIP3   OH215274   2.472   6.127   1.164 -1.0964 -0.2325  0.6129
 5112TIP3    H115275   2.387   6.085   1.146 -0.2651 -1.1567 -1.3515
 5112TIP3    H215276   2.529   6.055   1.190 -0.6122  0.2338  0.8420
 5113TIP3   OH215277   0.419   5.446   4.149  0.1551  0.4083 -0.0522
 5113TIP3    H115278   0.353   5.379   4.167  0.4913  0.1149  0.0946
 5113TIP3    H215279   0.370   5.517   4.107 -0.0275 -0.3762 -1.1968
 5114TIP3   OH215280   2.352   0.439   1.333 -0.6305  0.0352 -0.1831
 5114TIP3    H115281   2.267   0.395   1.328 -0.2580 -0.8944  1.3822
 5114TIP3    H215282   2.352   0.499   1.259 -2.4489 -0.3189 -0.4927
 5115TIP3   OH215283   5.563   7.602   3.554 -0.2976  0.2619  0.4141
 5115TIP3    H115284   5.559   7.598   3.650  1.8898 -1.1870  0.5061
 5115TIP3    H215285   5.594   7.515   3.529 -2.6517  0.0121 -1.7684
 5116TIP3   OH215286   2.852   0.479   2.010  0.0060  0.5820  0.3417
 5116TIP3    H115287   2.919   0.413   2.027 -2.4248 -2.0432 -0.0252
 5116TIP3    H215288   2.853   0.535   2.088  1.4854 -0.3993  1.0403
 5117TIP3   OH215289   0.381   7.805   4.075 -0.1798 -0.0683  0.2163
 5117TIP3    H115290   0.350   7.762   3.996  0.5957 -0.3160  0.0482
 5117TIP3    H215291   0.443   7.871   4.044 -0.2334  0.1556  0.5807
 5118TIP3   OH215292   3.486   5.713   2.368 -0.0537 -0.5784  0.0115
 5118TIP3    H115293   3.536   5.646   2.416 -2.3325 -1.1614  1.6491
 5118TIP3    H215294   3.506   5.794   2.415  0.3149 -0.6011 -0.1009
 5119TIP3   OH215295   3.482   4.635   2.977 -0.1124  0.3500 -0.2443
 5119TIP3    H115296   3.419   4.675   2.917 -1.9791 -1.0966  0.6822
 5119TIP3    H215297   3.442   4.644   3.063  1.6774  0.7497  0.5724
 5120TIP3   OH215298   1.134   7.932   3.071  0.5137  0.4758 -0.2035
 5120TIP3    H115299   1.156   8.023   3.051 -0.8278  1.1051  1.0642
 5120TIP3    H215300   1.125   7.931   3.167  0.6651 -1.0291 -0.1944
 5121TIP3   OH215301   1.377   7.741   1.124  0.2395 -0.1429 -0.4033
 5121TIP3    H115302   1.384   7.767   1.216  0.7236 -0.8692 -0.2347
 5121TIP3    H215303   1.292   7.697   1.118 -1.2992  2.7752 -1.0175
 5122TIP3   OH215304   2.809   6.375   2.357 -0.0826  0.0477  0.0509
 5122TIP3    H115305   2.853   6.432   2.295  0.2334  0.5138  0.7009
 5122TIP3    H215306   2.876   6.354   2.423 -0.4783 -0.2547  0.3627
 5123TIP3   OH215307   0.411   1.425   0.770 -0.2755 -0.2893  0.0406
 5123TIP3    H115308   0.338   1.466   0.816 -0.7244 -1.5699  0.4864
 5123TIP3    H215309   0.451   1.496   0.719 -0.6644  0.8209  1.2714
 5124TIP3   OH215310   4.863   1.054   2.194  0.2518  0.4668  0.1340
 5124TIP3    H115311   4.931   1.087   2.254  0.1037  0.8996  0.0561
 5124TIP3    H215312   4.805   1.003   2.251  2.0869 -2.1041 -0.1988
 5125TIP3   OH215313   8.224   7.841   0.622 -0.7222 -0.1118 -0.4842
 5125TIP3    H115314   8.302   7.843   0.677 -1.1020 -0.1415  0.0532
 5125TIP3    H215315   8.256   7.867   0.535  0.0133 -0.8532 -0.4399
 5126TIP3   OH215316   7.936   6.594   3.605  0.1402  0.4040 -0.4981
 5126TIP3    H115317   7.947   6.501   3.587 -0.9757  0.2257 -0.2898
 5126TIP3    H215318   7.993   6.611   3.681 -0.7711 -0.4269  0.3818
 5127TIP3   OH215319   3.492   7.889   3.072  0.4742 -0.1655  0.4655
 5127TIP3    H115320   3.421   7.942   3.037  2.5644  1.6719 -1.1402
 5127TIP3    H215321   3.503   7.819   3.008  2.7729  1.8930 -1.4931
 5128TIP3   OH215322   4.152   1.709   2.692 -0.2589 -0.1466  0.0392
 5128TIP3    H115323   4.165   1.622   2.656 -0.1640  0.1013 -0.5342
 5128TIP3    H215324   4.240   1.746   2.699 -0.0576 -1.0130  2.6356
 5129TIP3   OH215325   4.310   0.548   2.762 -0.1972  0.1137  0.7150
 5129TIP3    H115326   4.383   0.519   2.816  0.4092  0.4474  0.0879
 5129TIP3    H215327   4.285   0.470   2.712 -0.8002 -0.2104  1.5131
 5130TIP3   OH215328   1.431   7.925   1.819  0.2034 -0.1225  0.0452
 5130TIP3    H115329   1.406   8.011   1.783  3.0374  0.3706 -0.8931
 5130TIP3    H215330   1.367   7.864   1.781 -0.8086  1.3190 -0.6337
 5131TIP3   OH215331   1.454   5.664   4.004  0.3928  0.7074  0.1219
 5131TIP3    H115332   1.380   5.620   3.962 -0.4231 -0.2697  2.4819
 5131TIP3    H215333   1.414   5.736   4.053  0.8284 -0.5429  2.3764
 5132TIP3   OH215334   2.281   0.128   1.900 -0.4920  0.1046 -0.0654
 5132TIP3    H115335   2.218   0.136   1.971  0.4518  3.3771  0.4705
 5132TIP3    H215336   2.241   0.175   1.827  1.0055  1.6926  0.0994
 5133TIP3   OH215337   0.087   6.901   4.450  0.3744  0.3359 -0.0240
 5133TIP3    H115338   0.010   6.922   4.503 -1.3395 -1.2384 -1.8023
 5133TIP3    H215339   0.141   6.847   4.507 -0.3208  0.6057  0.9115
 5134TIP3   OH215340   0.662   1.021   1.784 -0.2002  0.0473  0.3779
 5134TIP3    H115341   0.608   0.949   1.752  0.8297 -0.1966 -0.8617
 5134TIP3    H215342   0.619   1.049   1.865 -0.3816 -2.1857  1.0821
 5135TIP3   OH215343   8.226   7.675   1.779  0.2791  0.4102  0.1019
 5135TIP3    H115344   8.207   7.732   1.854 -1.4437  3.5754 -2.6449
 5135TIP3    H215345   8.309   7.709   1.745 -0.3162  0.7179 -1.0383
 5136TIP3   OH215346   3.850   0.845   2.971 -0.0778  0.1423  0.4365
 5136TIP3    H115347   3.826   0.895   3.048  0.5435  0.1616  0.6187
 5136TIP3    H215348   3.942   0.822   2.984 -0.4692 -1.4053  0.5544
 5137TIP3   OH215349   4.129   0.740   2.663  0.0732 -0.1194  0.9060
 5137TIP3    H115350   4.190   0.672   2.693 -1.8195 -2.0266  0.5678
 5137TIP3    H215351   4.177   0.822   2.673  2.1880 -1.4505  1.9404
 5138TIP3   OH215352   1.547   7.669   2.237  0.1922  0.0533 -0.2448
 5138TIP3    H115353   1.587   7.729   2.175 -0.7079 -0.2999 -1.1911
 5138TIP3    H215354   1.502   7.604   2.182 -1.8087  0.5451  0.7678
 5139TIP3   OH215355   1.589   0.557   3.817  0.6320 -0.4249 -0.8393
 5139TIP3    H115356   1.619   0.476   3.858 -1.5768 -0.7195  0.2623
 5139TIP3    H215357   1.556   0.610   3.889  2.8271  1.8552 -1.4378
 5140TIP3   OH215358   3.464   6.781   1.984 -0.0140  0.4188  0.3825
 5140TIP3    H115359   3.408   6.705   1.967  0.8429 -0.2444  0.4936
 5140TIP3    H215360   3.528   6.779   1.913  0.4989  0.5667  0.8399
 5141TIP3   OH215361   6.996   7.766   0.235  0.8175 -0.2993  0.6310
 5141TIP3    H115362   7.066   7.818   0.195 -0.1716 -0.6487 -1.6605
 5141TIP3    H215363   6.943   7.737   0.160 -0.7720 -1.4796  2.1894
 5142TIP3   OH215364   8.492   6.239   3.746  0.6682 -0.0319  0.4749
 5142TIP3    H115365   8.532   6.304   3.689  0.0393  0.6636  0.8123
 5142TIP3    H215366   8.398   6.246   3.728  0.5064 -0.1265  1.2430
 5143TIP3   OH215367   0.675   6.627   4.065 -0.8742 -0.9172 -0.3581
 5143TIP3    H115368   0.624   6.707   4.079  1.1439  0.5338 -1.0413
 5143TIP3    H215369   0.752   6.639   4.120  0.6418 -1.2626 -2.3689
 5144TIP3   OH215370   4.630   3.731   6.567  0.2525  0.3385  0.6360
 5144TIP3    H115371   4.700   3.667   6.572  0.5522  0.6554  0.4707
 5144TIP3    H215372   4.550   3.678   6.557  0.4947 -0.0056  0.5146
 5145TIP3   OH215373   7.702   7.880   2.623 -0.1362  0.1545  0.2685
 5145TIP3    H115374   7.755   7.950   2.661  0.2094  0.7088 -1.1782
 5145TIP3    H215375   7.701   7.900   2.529 -1.1504 -1.0380  0.0169
 5146TIP3   OH215376   0.291   6.876   1.228 -0.4543  0.4488 -0.1753
 5146TIP3    H115377   0.344   6.874   1.308 -0.1169  1.9610 -0.3443
 5146TIP3    H215378   0.230   6.948   1.242 -1.8138 -0.6374 -0.4123
 5147TIP3   OH215379   4.762   0.260   3.754 -0.0296  0.0309 -0.1011
 5147TIP3    H115380   4.853   0.287   3.766  0.0169  0.4769 -1.3425
 5147TIP3    H215381   4.763   0.208   3.674 -0.7246 -0.6941  0.3589
 5148TIP3   OH215382   5.708   0.703   1.438 -0.3091  0.1709  1.0238
 5148TIP3    H115383   5.685   0.615   1.469 -0.9875  0.8809  2.5338
 5148TIP3    H215384   5.804   0.701   1.430 -0.4293 -1.1470 -0.3296
 5149TIP3   OH215385   5.759   0.132   1.340 -0.2669  0.0540  0.0065
 5149TIP3    H115386   5.707   0.191   1.284  0.4457 -0.2920 -1.0300
 5149TIP3    H215387   5.722   0.045   1.325  0.2237 -0.1072 -0.2821
 5150TIP3   OH215388   1.306   7.446   4.677  0.1441 -0.2294  0.1387
 5150TIP3    H115389   1.343   7.357   4.676 -0.7452 -0.6083 -1.4107
 5150TIP3    H215390   1.246   7.447   4.603  0.6188  1.8743 -0.2482
 5151TIP3   OH215391   6.573   6.987   3.276  0.0631  0.2249  0.5612
 5151TIP3    H115392   6.481   6.966   3.259 -0.0548  0.8489  0.4282
 5151TIP3    H215393   6.571   7.074   3.315  0.6859  0.7282 -0.5147
 5152TIP3   OH215394   1.171   6.542   3.849  0.1116 -0.4820  0.2174
 5152TIP3    H115395   1.262   6.572   3.850 -0.2779  0.7074  2.5458
 5152TIP3    H215396   1.165   6.488   3.770  3.0328 -1.1948  0.4035
 5153TIP3   OH215397   3.281   7.234   4.044  0.2556  0.0901 -0.3873
 5153TIP3    H115398   3.289   7.151   3.998 -1.5187  1.4360 -3.2184
 5153TIP3    H215399   3.201   7.226   4.096  0.3263 -0.1142 -0.3083
 5154TIP3   OH215400   2.119   7.775   3.367 -0.7457 -0.7055 -0.2762
 5154TIP3    H115401   2.049   7.737   3.420 -0.4356  0.0095  0.6661
 5154TIP3    H215402   2.112   7.869   3.382  0.2755 -0.6165 -0.3540
 5155TIP3   OH215403   0.158   7.181   4.463  0.4344  0.2782  0.6720
 5155TIP3    H115404   0.175   7.087   4.468  1.4923  0.2723 -2.2584
 5155TIP3    H215405   0.170   7.212   4.553  0.1847 -2.3347  1.6618
 5156TIP3   OH215406   0.397   7.683   1.645 -0.0720 -0.6105 -0.2273
 5156TIP3    H115407   0.456   7.620   1.686  0.3293 -0.3015 -0.3242
 5156TIP3    H215408   0.311   7.640   1.646  0.0829 -0.9093  0.2478
 5157TIP3   OH215409   0.521   7.833   4.539  0.8380  0.3616  0.2891
 5157TIP3    H115410   0.501   7.747   4.576 -0.8604  1.7593  2.8122
 5157TIP3    H215411   0.599   7.862   4.586  0.5487  0.7745  0.5290
 5158TIP3   OH215412   4.628   6.489   4.465 -0.2553 -0.1995 -0.2892
 5158TIP3    H115413   4.671   6.404   4.459  0.5889  0.1556  0.6264
 5158TIP3    H215414   4.664   6.529   4.544 -2.1414  0.1836  0.3955
 5159TIP3   OH215415   2.901   0.100   2.031 -0.0539  0.8289  0.3093
 5159TIP3    H115416   2.813   0.087   2.069  0.1929  0.0761  0.6380
 5159TIP3    H215417   2.921   0.016   1.990  1.0476  0.5636  1.3417
 5160TIP3   OH215418   1.118   6.655   2.514  0.0995  0.1676 -0.1694
 5160TIP3    H115419   1.187   6.610   2.563  0.8542  1.4446 -0.0373
 5160TIP3    H215420   1.115   6.609   2.430  0.3489 -0.6030  0.2342
 5161TIP3   OH215421   7.419   7.897   5.301 -0.1969  0.2539 -0.0975
 5161TIP3    H115422   7.479   7.836   5.344 -0.0935  1.2000  1.1419
 5161TIP3    H215423   7.465   7.925   5.222  1.1114  1.1184  0.9418
 5162TIP3   OH215424   5.562   7.367   4.987  0.5104 -0.4215  0.7808
 5162TIP3    H115425   5.534   7.399   4.902  1.5372 -2.0113 -0.1971
 5162TIP3    H215426   5.488   7.385   5.046 -0.1571  0.7907 -0.4096
 5163TIP3   OH215427   0.690   7.297   3.108  0.8710  0.3725 -0.0524
 5163TIP3    H115428   0.680   7.206   3.136  1.6483 -0.5200 -2.5722
 5163TIP3    H215429   0.781   7.318   3.125  0.6396  0.7827  0.7325
 5164TIP3   OH215430   0.646   6.186   1.286  0.6064  0.0510 -0.3241
 5164TIP3    H115431   0.627   6.111   1.229  0.9199  0.5950 -1.1639
 5164TIP3    H215432   0.638   6.262   1.228  0.5551  0.6457  0.4594
 5165TIP3   OH215433   4.237   1.541   1.502  0.3291 -0.4014 -0.5366
 5165TIP3    H115434   4.330   1.516   1.497  0.7578  1.0372 -0.0033
 5165TIP3    H215435   4.229   1.587   1.586 -0.2931  1.7652 -1.7523
 5166TIP3   OH215436   0.763   7.014   2.793  0.3185 -0.0535 -0.2061
 5166TIP3    H115437   0.793   7.046   2.878 -1.1021 -0.2760  0.3984
 5166TIP3    H215438   0.785   6.921   2.793  1.8709  0.2991 -0.7978
 5167TIP3   OH215439   2.757   0.558   1.163  0.3262  0.1266 -0.2182
 5167TIP3    H115440   2.821   0.500   1.121 -2.1125 -1.3243 -2.0892
 5167TIP3    H215441   2.717   0.605   1.090 -0.6776  1.0668  0.9299
 5168TIP3   OH215442   8.376   6.991   2.396 -0.5885  0.1792 -0.5959
 5168TIP3    H115443   8.301   6.944   2.361  0.4972 -1.6730 -0.5302
 5168TIP3    H215444   8.424   7.022   2.319 -0.7982  0.3521 -0.6571
 5169TIP3   OH215445   4.972   0.629   1.918  0.0154  0.1539 -0.2338
 5169TIP3    H115446   4.932   0.556   1.966  0.8083  0.5395  1.0395
 5169TIP3    H215447   4.899   0.670   1.871 -0.5971 -0.8570 -0.1872
 5170TIP3   OH215448   4.598   1.809   1.189 -0.0339  0.4750  0.0373
 5170TIP3    H115449   4.673   1.821   1.130 -1.6235 -1.1372 -2.3767
 5170TIP3    H215450   4.579   1.897   1.222  2.9762  0.9069  0.8311
 5171TIP3   OH215451   8.187   6.708   2.974  0.0836  0.0084  0.9050
 5171TIP3    H115452   8.241   6.748   2.905 -1.6929  1.1051  0.1075
 5171TIP3    H215453   8.210   6.756   3.053  1.3328 -0.5113  0.8611
 5172TIP3   OH215454   1.737   7.938   0.342  0.2799 -0.0432  0.0803
 5172TIP3    H115455   1.763   8.000   0.274  1.3964  0.2204  0.7376
 5172TIP3    H215456   1.644   7.922   0.326 -0.0061  1.7610 -0.1204
 5173TIP3   OH215457   1.659   7.101   1.189 -0.2941 -0.0730  1.1589
 5173TIP3    H115458   1.586   7.067   1.138  0.7498 -0.9948  0.2519
 5173TIP3    H215459   1.683   7.029   1.247  0.2669  0.0234  1.0497
 5174TIP3   OH215460   1.771   0.732   1.169 -0.1723 -0.1763 -0.3686
 5174TIP3    H115461   1.710   0.772   1.107  1.2307 -0.4146 -1.9571
 5174TIP3    H215462   1.717   0.679   1.226 -1.7256  1.5697 -0.1681
 5175TIP3   OH215463   7.924   5.147   6.854 -0.3961 -0.0160 -0.1369
 5175TIP3    H115464   8.002   5.131   6.907 -1.2100 -0.1440  1.0140
 5175TIP3    H215465   7.855   5.096   6.895 -1.0350 -0.1353 -1.3273
 5176TIP3   OH215466   2.661   1.503   2.685 -0.4770 -0.2688 -0.2832
 5176TIP3    H115467   2.719   1.454   2.743 -0.5822 -0.1121 -0.0478
 5176TIP3    H215468   2.721   1.551   2.627 -0.3722  0.4862  0.4555
 5177TIP3   OH215469   4.352   0.820   3.304 -0.4675 -0.2364  0.2480
 5177TIP3    H115470   4.284   0.887   3.295  0.0964  0.6359  2.1409
 5177TIP3    H215471   4.336   0.782   3.390 -0.9894 -2.8249 -0.9545
 5178TIP3   OH215472   6.265   2.019   3.524  0.5645  0.6257 -0.2845
 5178TIP3    H115473   6.329   1.964   3.478  1.7080  2.7001 -1.2501
 5178TIP3    H215474   6.278   1.999   3.616  1.6497 -0.0092 -0.5604
 5179TIP3   OH215475   3.700   2.102   2.756  0.2578 -0.3611  0.4700
 5179TIP3    H115476   3.680   2.041   2.827  0.9312 -2.8022 -1.3988
 5179TIP3    H215477   3.796   2.103   2.751  0.2285  0.1988 -0.0987
 5180TIP3   OH215478   7.570   7.551   3.472  0.0156 -0.0443 -0.5377
 5180TIP3    H115479   7.629   7.502   3.415  0.3993  0.1844 -0.3372
 5180TIP3    H215480   7.484   7.545   3.428  0.1336 -0.5915 -0.6907
 5181TIP3   OH215481   0.918   6.220   3.194 -0.3180  0.4247  0.0113
 5181TIP3    H115482   0.924   6.185   3.106 -0.7994 -1.3592  0.6701
 5181TIP3    H215483   0.935   6.314   3.184  1.1047 -0.0062 -1.7627
 5182TIP3   OH215484   7.262   4.442   6.614 -0.2136  0.1745 -0.0824
 5182TIP3    H115485   7.310   4.516   6.577 -0.0635 -0.3038 -0.8626
 5182TIP3    H215486   7.171   4.457   6.590 -0.1337 -0.0721 -0.5628
 5183TIP3   OH215487   4.428   1.689   3.699 -0.2157  0.0233  0.0463
 5183TIP3    H115488   4.464   1.600   3.701 -1.4640 -0.4769  1.3572
 5183TIP3    H215489   4.501   1.745   3.726  0.8733 -0.4800 -1.7832
 5184TIP3   OH215490   2.484   6.448   1.876  0.4928  0.6851  0.1821
 5184TIP3    H115491   2.554   6.385   1.861  0.9363  1.1747  0.1939
 5184TIP3    H215492   2.410   6.395   1.905  0.6545  0.0951 -0.4746
 5185TIP3   OH215493   4.389   0.985   2.220 -0.0304 -0.5159  0.0216
 5185TIP3    H115494   4.328   0.973   2.293 -0.8984 -1.3653 -0.8337
 5185TIP3    H215495   4.475   0.969   2.258 -0.2725  1.1113  1.3508
 5186TIP3   OH215496   8.468   7.063   2.655  0.0684  0.0675  0.0674
 5186TIP3    H115497   8.451   7.037   2.564 -0.4241  0.9080 -0.0833
 5186TIP3    H215498   8.460   7.158   2.655  3.0339  0.3680  0.3811
 5187TIP3   OH215499   0.606   6.301   3.180  0.2800  0.0035  0.1533
 5187TIP3    H115500   0.693   6.264   3.197  0.0689  0.4241  2.3403
 5187TIP3    H215501   0.619   6.396   3.184 -0.5610  0.0530  2.1423
 5188TIP3   OH215502   0.404   6.744   4.028 -0.1677  0.2126  0.5470
 5188TIP3    H115503   0.322   6.696   4.019  0.5153 -1.1636  1.3653
 5188TIP3    H215504   0.442   6.744   3.940  0.0808 -1.2497  0.6435
 5189TIP3   OH215505   0.681   6.995   1.447  0.0385 -0.1068  0.5383
 5189TIP3    H115506   0.758   7.021   1.497  0.0837 -0.5375  0.6981
 5189TIP3    H215507   0.651   7.075   1.404 -0.2485  0.3594  1.5945
 5190TIP3   OH215508   2.708   0.048   0.978 -0.4189 -0.3847 -0.1235
 5190TIP3    H115509   2.645  -0.019   0.951 -0.5761  0.0543 -0.8728
 5190TIP3    H215510   2.744   0.081   0.896  1.2251 -1.0383  0.3162
 5191TIP3   OH215511   4.658   0.636   2.130 -0.0266 -0.1492  0.1909
 5191TIP3    H115512   4.638   0.684   2.050 -1.8592 -1.3048 -0.0868
 5191TIP3    H215513   4.611   0.553   2.120  0.6284 -0.7614  1.9764
 5192TIP3   OH215514   0.764   5.576   3.336 -0.4242 -0.2125  0.2997
 5192TIP3    H115515   0.679   5.594   3.296 -0.0312  1.7390  0.3369
 5192TIP3    H215516   0.818   5.652   3.315  0.7309 -0.5531  1.9221
 5193TIP3   OH215517   2.087   7.311   3.662 -0.1097  0.2914 -0.3547
 5193TIP3    H115518   2.082   7.395   3.708  1.2809  0.8937 -1.2327
 5193TIP3    H215519   2.161   7.265   3.703 -0.5950 -0.3154 -0.1598
 5194TIP3   OH215520   1.146   6.388   3.629 -0.2077 -0.6701  0.2290
 5194TIP3    H115521   1.139   6.346   3.543 -0.0837  1.5405 -0.9081
 5194TIP3    H215522   1.056   6.405   3.655 -0.1877  0.8820 -0.6361
 5195TIP3   OH215523   1.412   6.647   2.623 -0.9966 -0.2295  0.1019
 5195TIP3    H115524   1.480   6.608   2.678 -2.6681 -1.7904  1.0954
 5195TIP3    H215525   1.394   6.732   2.663  0.5345  0.3148 -0.3234
 5196TIP3   OH215526   2.468   6.636   3.686 -0.0675  0.2093 -0.3627
 5196TIP3    H115527   2.445   6.549   3.717  0.9008  0.0713  0.0011
 5196TIP3    H215528   2.556   6.626   3.649 -0.1949  0.9048 -0.8719
 5197TIP3   OH215529   8.319   6.815   3.811  0.2863 -0.4860 -0.6192
 5197TIP3    H115530   8.240   6.762   3.798 -1.1395  1.4132  0.0364
 5197TIP3    H215531   8.330   6.817   3.906  2.1398 -2.1542 -0.7782
 5198TIP3   OH215532   1.024   6.879   2.632  0.1989  0.1782 -0.4859
 5198TIP3    H115533   1.057   6.806   2.579  1.4428 -0.1889  0.7404
 5198TIP3    H215534   0.977   6.837   2.704 -1.4083  0.6709 -1.2302
 5199TIP3   OH215535   0.199   6.929   2.766 -0.4884 -0.4716  0.5719
 5199TIP3    H115536   0.121   6.980   2.745  0.7730  1.9956  1.5825
 5199TIP3    H215537   0.201   6.927   2.862 -1.2459 -3.6732  0.5673
 5200TIP3   OH215538   2.124   6.011   2.655  0.3836 -0.0431 -0.1674
 5200TIP3    H115539   2.033   5.992   2.632  0.4324 -0.9670  0.4031
 5200TIP3    H215540   2.143   5.954   2.730  1.0269  1.0897  0.5418
 5201TIP3   OH215541   1.659   6.342   0.783  0.3937  0.4477  0.4334
 5201TIP3    H115542   1.718   6.288   0.730  0.9492  2.3024 -0.9149
 5201TIP3    H215543   1.662   6.303   0.870  1.2356 -1.3133 -0.3538
 5202TIP3   OH215544   3.862   1.812   2.779  0.3118 -0.3871 -0.1835
 5202TIP3    H115545   3.866   1.859   2.862  0.7598  0.2831 -0.5823
 5202TIP3    H215546   3.954   1.793   2.758  0.2318 -0.0929 -0.7919
 5203TIP3   OH215547   2.127   7.816   2.117  0.3396 -0.3163 -0.0248
 5203TIP3    H115548   2.134   7.836   2.211  0.8530 -1.2035  0.1303
 5203TIP3    H215549   2.129   7.720   2.113  0.7673 -0.2661 -0.9837
 5204TIP3   OH215550   0.442   6.962   3.508  0.4249 -0.1203  0.2105
 5204TIP3    H115551   0.486   6.912   3.577  0.0929  0.1761  0.6335
 5204TIP3    H215552   0.399   6.896   3.454 -1.2473 -0.2104  1.6091
 5205TIP3   OH215553   3.631   0.195   0.857 -0.2513  0.4725  0.1026
 5205TIP3    H115554   3.566   0.158   0.798 -1.2996  0.1801  1.4090
 5205TIP3    H215555   3.595   0.280   0.882 -0.0470  0.3981  0.6696
 5206TIP3   OH215556   2.119   0.254   2.827  0.5982 -0.4827 -0.4930
 5206TIP3    H115557   2.067   0.245   2.908 -0.7939  0.6210 -1.2410
 5206TIP3    H215558   2.189   0.315   2.850  0.3889 -0.4123 -0.0297
 5207TIP3   OH215559   8.138   6.870   2.326 -0.3822  0.5146 -0.0585
 5207TIP3    H115560   8.061   6.832   2.369 -0.0910  0.8895  0.8139
 5207TIP3    H215561   8.184   6.795   2.288 -0.4561  0.1311  0.6010
 5208TIP3   OH215562   2.353   6.231   2.232 -0.1972  0.5427 -0.3828
 5208TIP3    H115563   2.283   6.281   2.274  0.3261  2.0584 -1.2669
 5208TIP3    H215564   2.430   6.288   2.238  1.1553 -1.4064  1.2251
 5209TIP3   OH215565   4.669   0.593   4.543 -0.1000 -0.0832 -0.8085
 5209TIP3    H115566   4.628   0.507   4.552  0.4472 -0.2171  0.5268
 5209TIP3    H215567   4.595   0.653   4.528 -0.4203 -0.8658 -2.4453
 5210TIP3   OH215568   2.163   4.810   4.183 -0.1033  0.3069  0.1877
 5210TIP3    H115569   2.221   4.861   4.125 -1.0776  0.2756 -0.8298
 5210TIP3    H215570   2.078   4.852   4.174 -0.7950 -1.1529 -0.2185
 5211TIP3   OH215571   8.100   5.198   2.755 -0.2516 -0.1029  0.1258
 5211TIP3    H115572   8.145   5.264   2.701 -0.4059  0.3010  0.4879
 5211TIP3    H215573   8.142   5.204   2.841 -1.3922  0.6897  0.6362
 5212TIP3   OH215574   7.439   7.853   2.079  0.6531 -0.1050 -0.4752
 5212TIP3    H115575   7.445   7.808   2.164  3.0477  0.8885 -0.0772
 5212TIP3    H215576   7.447   7.783   2.014  0.6850 -0.6559  0.1137
 5213TIP3   OH215577   1.600   7.487   3.373 -0.0968  0.5840  0.3163
 5213TIP3    H115578   1.519   7.495   3.423  1.4594  0.6215  2.9555
 5213TIP3    H215579   1.658   7.436   3.429  1.3384 -0.4526 -2.0230
 5214TIP3   OH215580   1.548   6.981   3.856 -0.2145 -0.1031 -0.4760
 5214TIP3    H115581   1.613   6.912   3.872  0.9028  0.5836 -1.8446
 5214TIP3    H215582   1.580   7.024   3.776 -2.9394 -0.4264 -1.7746
 5215TIP3   OH215583   2.298   1.199   2.443 -0.1771 -0.0992 -0.2488
 5215TIP3    H115584   2.240   1.272   2.466  1.1614  0.7497  0.5222
 5215TIP3    H215585   2.373   1.209   2.501 -0.2648 -2.4919  0.3009
 5216TIP3   OH215586   3.923   2.281   5.346 -0.2127  0.2615 -0.3771
 5216TIP3    H115587   3.846   2.238   5.382 -0.0835 -0.8325 -1.3950
 5216TIP3    H215588   3.894   2.371   5.328 -0.6111  0.4875  1.3018
 5217TIP3   OH215589   2.500   7.587   2.087 -0.2760  0.0947  0.3170
 5217TIP3    H115590   2.541   7.544   2.163 -0.2735  0.0973  0.3171
 5217TIP3    H215591   2.416   7.543   2.077 -1.0226  1.2514  1.3743
 5218TIP3   OH215592   2.821   6.991   2.024  0.0166  0.3266 -0.5124
 5218TIP3    H115593   2.865   7.071   1.995  2.8393 -0.7062  0.7444
 5218TIP3    H215594   2.871   6.920   1.983 -2.3862 -0.8217 -1.5177
 5219TIP3   OH215595   5.380   0.110   2.609  0.3982  0.1639  0.1282
 5219TIP3    H115596   5.438   0.114   2.534  0.2806  0.4037  0.0491
 5219TIP3    H215597   5.362   0.202   2.631  0.4777  0.0976  0.4823
 5220TIP3   OH215598   0.749   6.460   2.182  0.0977 -0.6364  0.5693
 5220TIP3    H115599   0.756   6.545   2.139  1.3324  0.2455  2.4539
 5220TIP3    H215600   0.730   6.399   2.111  0.1402  1.0596 -0.9447
 5221TIP3   OH215601   1.849   7.153   3.700 -0.0009  0.1181 -0.0915
 5221TIP3    H115602   1.888   7.130   3.785  0.2059 -0.0554 -0.2323
 5221TIP3    H215603   1.824   7.245   3.710  0.4233  0.2261  0.0107
 5222TIP3   OH215604   6.392   7.875   0.994  0.0183  0.9411  0.0198
 5222TIP3    H115605   6.456   7.873   1.065  1.2712 -0.7243 -1.1401
 5222TIP3    H215606   6.349   7.961   1.003  0.2556  0.8216  2.6709
 5223TIP3   OH215607   1.040   7.366   2.094 -0.4693  0.5276  0.3667
 5223TIP3    H115608   1.016   7.287   2.142 -0.3777  0.7458  0.7670
 5223TIP3    H215609   1.093   7.334   2.021  1.3216  0.4003  1.6952
 5224TIP3   OH215610   4.848   2.906   6.662  0.2151  0.2495  0.2187
 5224TIP3    H115611   4.764   2.940   6.631 -0.5860 -2.4247 -0.6819
 5224TIP3    H215612   4.913   2.948   6.605 -0.5037  2.0751  0.6919
 5225TIP3   OH215613   1.864   6.040   4.064 -0.3564 -0.2750 -0.3025
 5225TIP3    H115614   1.928   6.047   3.993  0.4038 -0.9345  0.3095
 5225TIP3    H215615   1.809   5.965   4.040  0.6496 -1.2407  0.3943
 5226TIP3   OH215616   5.925   1.406   0.516 -0.0930 -0.3097  0.2733
 5226TIP3    H115617   6.014   1.443   0.512 -0.4080  0.6389  1.6121
 5226TIP3    H215618   5.897   1.423   0.606 -1.1395 -1.7678  0.2298
 5227TIP3   OH215619   2.282   5.684   2.700 -0.6382  0.1011 -0.2246
 5227TIP3    H115620   2.262   5.702   2.608  0.9700 -1.3882 -0.8889
 5227TIP3    H215621   2.220   5.738   2.749 -2.6705 -0.3649 -2.1828
 5228TIP3   OH215622   3.265   5.877   3.406 -0.0878  0.2859 -0.4101
 5228TIP3    H115623   3.264   5.858   3.499 -2.0879 -1.6135 -0.7490
 5228TIP3    H215624   3.207   5.952   3.396 -0.8705 -0.2923 -0.2525
 5229TIP3   OH215625   2.729   5.565   2.098 -0.5305  0.0463 -0.0561
 5229TIP3    H115626   2.795   5.619   2.143  0.8008 -1.4915 -0.1375
 5229TIP3    H215627   2.658   5.557   2.162  0.3443 -0.1701  0.9157
 5230TIP3   OH215628   0.906   7.980   1.690 -0.7591  0.5585  0.3622
 5230TIP3    H115629   0.829   7.954   1.640 -0.1655  0.5675 -0.5624
 5230TIP3    H215630   0.879   8.059   1.737 -1.6292 -0.0166  0.8395
 5231TIP3   OH215631   8.254   5.737   2.402 -0.0009  0.1752  0.5269
 5231TIP3    H115632   8.288   5.776   2.483  1.6777 -0.9223  0.3682
 5231TIP3    H215633   8.305   5.657   2.390  1.1254  1.2850 -2.6673
 5232TIP3   OH215634   1.346   7.381   3.380 -0.3362 -0.3893  0.0357
 5232TIP3    H115635   1.309   7.456   3.333  0.0147 -0.0628  0.2861
 5232TIP3    H215636   1.347   7.311   3.315  0.8914  0.2865 -0.6839
 5233TIP3   OH215637   2.979   0.396   4.671  0.3358 -0.0911  0.0879
 5233TIP3    H115638   3.007   0.306   4.653 -2.3739 -1.0703  0.6531
 5233TIP3    H215639   2.977   0.438   4.584 -0.8606 -1.3172 -0.4897
 5234TIP3   OH215640   4.427   1.313   2.440  0.0963 -0.5293 -0.0847
 5234TIP3    H115641   4.464   1.400   2.429 -0.6809 -0.1819 -0.0443
 5234TIP3    H215642   4.499   1.259   2.471  0.6571  0.0317 -0.4106
 5235TIP3   OH215643   2.489   6.967   3.683  0.6060  0.1872 -1.0836
 5235TIP3    H115644   2.467   7.056   3.711 -0.4455  0.1809 -1.8441
 5235TIP3    H215645   2.575   6.974   3.643  1.3977  0.4968  0.6208
 5236TIP3   OH215646   4.024   7.011   2.196 -0.0293 -0.0453 -0.0267
 5236TIP3    H115647   3.998   7.102   2.210  0.3177 -0.3306  2.7117
 5236TIP3    H215648   4.087   7.015   2.124  1.0516  2.0589  0.9929
 5237TIP3   OH215649   0.119   7.367   2.846 -0.3846 -0.2367 -0.4601
 5237TIP3    H115650   0.099   7.289   2.898  1.8268 -1.0422 -0.7754
 5237TIP3    H215651   0.156   7.429   2.909 -0.4288 -0.1285 -0.5410
 5238TIP3   OH215652   8.139   7.967   3.749  0.3889  0.3168  0.1773
 5238TIP3    H115653   8.195   7.890   3.741 -1.2830 -1.0404  1.0458
 5238TIP3    H215654   8.153   8.016   3.668  4.0588  0.8902  1.0956
 5239TIP3   OH215655   1.569   6.019   2.787  0.2455 -0.8679 -0.5255
 5239TIP3    H115656   1.628   5.944   2.795 -0.0140 -0.8998  1.2170
 5239TIP3    H215657   1.481   5.982   2.795  0.0145 -0.6827 -2.0733
 5240TIP3   OH215658   3.806   2.153   2.394 -0.6251  0.1449  0.3668
 5240TIP3    H115659   3.784   2.076   2.446  0.3930 -0.0353  0.5256
 5240TIP3    H215660   3.887   2.129   2.348 -0.1214  1.2403  0.6778
 5241TIP3   OH215661   2.111   5.910   1.779 -0.0598 -0.2589  0.1649
 5241TIP3    H115662   2.029   5.942   1.742 -0.1084  0.3659  0.7930
 5241TIP3    H215663   2.104   5.928   1.873  1.0650  0.4046  0.1333
 5242TIP3   OH215664   1.732   7.705   4.255  0.0115  0.5662  0.3121
 5242TIP3    H115665   1.727   7.749   4.340 -0.3253  1.4687 -0.1669
 5242TIP3    H215666   1.789   7.630   4.270 -1.2363 -0.1267  1.7021
 5243TIP3   OH215667   6.541   7.637   2.965 -0.5006  0.2868 -0.4523
 5243TIP3    H115668   6.613   7.700   2.967 -1.0660  1.0235 -2.2669
 5243TIP3    H215669   6.533   7.608   3.056  0.9283  1.5063  0.0962
 5244TIP3   OH215670   0.773   7.290   2.722 -0.1462  0.4632 -0.1567
 5244TIP3    H115671   0.678   7.291   2.711 -0.1908 -2.4193 -0.4958
 5244TIP3    H215672   0.792   7.201   2.753  2.4631  0.8921 -0.4396
 5245TIP3   OH215673   0.824   7.058   1.162  0.2867 -0.1474  0.0379
 5245TIP3    H115674   0.791   7.133   1.111  1.9565  0.8687  0.3980
 5245TIP3    H215675   0.774   7.061   1.243  0.2312  0.4909 -0.0113
 5246TIP3   OH215676   2.724   6.994   0.680 -0.1476 -0.2177 -0.2550
 5246TIP3    H115677   2.754   6.920   0.734 -0.2136 -0.0213  0.0543
 5246TIP3    H215678   2.784   7.065   0.701 -1.8933  0.7293  1.7312
 5247TIP3   OH215679   2.700   6.037   3.262  0.0062 -0.2264 -0.2682
 5247TIP3    H115680   2.714   6.092   3.339  0.1152  0.2152 -0.6026
 5247TIP3    H215681   2.701   6.098   3.188 -0.5684 -0.5845 -0.5773
 5248TIP3   OH215682   7.763   7.077   2.772 -0.0531 -0.0136 -0.2887
 5248TIP3    H115683   7.724   7.032   2.697  0.8806  0.5633 -1.1402
 5248TIP3    H215684   7.828   7.137   2.733  0.1146  0.6277  0.9477
 5249TIP3   OH215685   7.967   6.792   3.255  0.0906  0.1596  0.4197
 5249TIP3    H115686   8.005   6.800   3.167 -0.9528 -0.5476 -0.1058
 5249TIP3    H215687   7.944   6.699   3.263 -0.3568  0.3356  1.2255
 5250TIP3   OH215688   7.838   6.941   4.332  0.0088 -0.0195 -0.3515
 5250TIP3    H115689   7.889   6.988   4.398  0.4350  0.0051 -0.6919
 5250TIP3    H215690   7.878   6.967   4.249 -0.0640 -0.6070 -0.5708
 5251TIP3   OH215691   8.488   6.349   1.845  0.2941 -0.0954  0.4616
 5251TIP3    H115692   8.417   6.338   1.782 -0.9187  1.8790  1.4463
 5251TIP3    H215693   8.536   6.266   1.841 -2.0683 -1.4970 -0.2059
 5252TIP3   OH215694   0.456   6.987   2.680  0.6639 -0.6396 -0.0331
 5252TIP3    H115695   0.453   7.049   2.753  0.7994  1.6698 -1.9357
 5252TIP3    H215696   0.365   6.961   2.666  0.5848 -0.7459  0.6759
 5253TIP3   OH215697   5.508   1.049   1.904  0.3112 -0.4955 -0.3667
 5253TIP3    H115698   5.561   1.075   1.829  0.0071  1.9136  0.2075
 5253TIP3    H215699   5.571   1.019   1.969  0.6696 -1.3963 -1.1256
 5254TIP3   OH215700   6.270   1.343   1.950  0.1207  0.2436 -0.1818
 5254TIP3    H115701   6.292   1.256   1.982 -0.1576  0.7191  1.3610
 5254TIP3    H215702   6.354   1.390   1.949 -0.1163  0.7231  1.4553
 5255TIP3   OH215703   2.904   6.780   1.856  0.5543 -0.1044 -0.5601
 5255TIP3    H115704   2.815   6.784   1.822  1.1854  2.2270 -2.0214
 5255TIP3    H215705   2.936   6.693   1.830 -0.8955 -0.5121 -1.0008
 5256TIP3   OH215706   5.217   7.362   1.418  0.0154  0.5698 -0.1508
 5256TIP3    H115707   5.137   7.387   1.464  0.1730  0.1329  0.3713
 5256TIP3    H215708   5.195   7.280   1.374 -0.3034  1.2694 -1.3259
 5257TIP3   OH215709   6.894   3.856   5.697  0.4394  0.0528 -0.0074
 5257TIP3    H115710   6.963   3.832   5.759 -0.0063 -3.3058 -0.7150
 5257TIP3    H215711   6.815   3.814   5.730 -0.4520  0.6418 -1.2957
 5258TIP3   OH215712   1.838   7.334   2.416 -0.8032  0.2444 -0.0906
 5258TIP3    H115713   1.912   7.274   2.404 -0.9026  0.0869  0.0769
 5258TIP3    H215714   1.797   7.339   2.330 -1.3410 -0.6523  0.1089
 5259TIP3   OH215715   2.149   6.904   1.188 -0.0690  0.1167 -0.2664
 5259TIP3    H115716   2.124   6.907   1.095 -0.7857  1.0878 -0.0442
 5259TIP3    H215717   2.068   6.880   1.234  0.5866 -1.6906 -0.0010
 5260TIP3   OH215718   5.921   7.207   1.827 -0.1961  0.7309  0.5448
 5260TIP3    H115719   5.876   7.280   1.868 -1.0636  0.5980 -0.1657
 5260TIP3    H215720   5.879   7.129   1.863  0.5162  0.5836  1.0647
 5261TIP3   OH215721   3.992   7.565   1.058  0.1629 -0.0263  0.3363
 5261TIP3    H115722   3.994   7.654   1.094  0.4031  0.2578 -0.3732
 5261TIP3    H215723   4.084   7.545   1.038  0.4696 -1.4493  2.9489
 5262TIP3   OH215724   2.425   6.733   3.188 -0.0075 -0.4043 -0.3556
 5262TIP3    H115725   2.367   6.806   3.165  1.7522  0.0730 -3.6393
 5262TIP3    H215726   2.503   6.774   3.223 -0.0461 -0.8469  0.2594
 5263TIP3   OH215727   0.916   2.070   6.138 -0.2247  0.4291  0.4499
 5263TIP3    H115728   0.829   2.046   6.108 -0.8581  1.9704  0.9817
 5263TIP3    H215729   0.907   2.162   6.165  1.8665  1.0239 -0.7307
 5264TIP3   OH215730   4.851   7.328   0.909 -0.4261 -0.3803  0.3525
 5264TIP3    H115731   4.764   7.369   0.910 -0.4816 -0.4674 -0.2807
 5264TIP3    H215732   4.881   7.333   0.999 -1.9869 -2.2208  1.0114
 5265TIP3   OH215733   8.202   4.367   6.665 -0.3340 -0.2790 -0.0571
 5265TIP3    H115734   8.235   4.382   6.576 -2.2517 -1.9292 -1.0628
 5265TIP3    H215735   8.108   4.356   6.654 -0.4731 -1.3219  2.0787
 5266TIP3   OH215736   2.266   4.311   5.835  0.0570 -0.3657  0.0013
 5266TIP3    H115737   2.307   4.295   5.919 -0.5653 -1.6745  0.0615
 5266TIP3    H215738   2.303   4.246   5.776  1.0492  1.0134 -0.9498
 5267TIP3   OH215739   4.688   7.380   2.052  0.2119 -0.3651 -0.1203
 5267TIP3    H115740   4.728   7.360   2.137  1.3962  0.5581 -0.4488
 5267TIP3    H215741   4.726   7.316   1.992  1.9396  1.0669 -0.6160
 5268TIP3   OH215742   4.753   1.142   1.261  0.5880 -0.2209  0.3521
 5268TIP3    H115743   4.797   1.163   1.178 -0.2020  1.6203  0.3682
 5268TIP3    H215744   4.668   1.106   1.235 -1.0629  3.4886  0.3123
 5269TIP3   OH215745   3.381   7.732   1.096  0.0982 -0.1112  0.5423
 5269TIP3    H115746   3.349   7.821   1.081 -0.8044 -0.4898  0.1397
 5269TIP3    H215747   3.302   7.677   1.091  0.8682 -1.1270 -0.9220
 5270TIP3   OH215748   3.433   0.949   3.036 -0.0137  0.5798  0.1398
 5270TIP3    H115749   3.512   0.969   2.987  1.5377 -0.9691  1.9391
 5270TIP3    H215750   3.439   1.004   3.114  0.6518 -1.4734  1.5723
 5271TIP3   OH215751   4.084   6.980   2.522 -0.5114 -0.1126  0.0461
 5271TIP3    H115752   4.085   6.933   2.439  1.1898 -0.9209  0.4926
 5271TIP3    H215753   4.054   6.915   2.586  0.0269 -0.0481  0.3666
 5272TIP3   OH215754   4.800   6.941   3.067 -0.0347 -0.5264 -0.2405
 5272TIP3    H115755   4.753   6.861   3.043  0.2398 -1.1688  1.3149
 5272TIP3    H215756   4.731   7.007   3.078 -0.3799 -0.8815 -0.2511
 5273TIP3   OH215757   7.261   0.901   2.017  0.4792 -0.8396 -0.1392
 5273TIP3    H115758   7.220   0.839   2.077  1.4475 -0.3594  1.0309
 5273TIP3    H215759   7.188   0.938   1.967 -0.2129 -2.1175 -0.1038
 5274TIP3   OH215760   5.293   0.686   0.342 -0.3116 -0.2471  0.2767
 5274TIP3    H115761   5.368   0.718   0.292 -1.5692  1.2719 -0.6735
 5274TIP3    H215762   5.325   0.680   0.432  0.9392  0.3707 -0.1172
 5275TIP3   OH215763   3.144   5.556   1.832 -0.4032  0.8804 -0.3316
 5275TIP3    H115764   3.122   5.474   1.876  1.0006  0.2987 -0.6986
 5275TIP3    H215765   3.183   5.610   1.901  1.3263  0.1569 -0.7147
 5276TIP3   OH215766   1.236   3.532   6.167  0.5369 -0.0561  0.1125
 5276TIP3    H115767   1.312   3.515   6.111  1.2241  1.3550  0.6050
 5276TIP3    H215768   1.270   3.583   6.240 -0.6657 -0.4562  0.9806
 5277TIP3   OH215769   6.228   1.836   2.970 -0.3347 -0.6856  0.0499
 5277TIP3    H115770   6.222   1.904   2.902 -0.0376  0.8292  1.4949
 5277TIP3    H215771   6.140   1.833   3.008  0.2856  0.6639  1.6336
 5278TIP3   OH215772   6.177   1.653   1.980  0.3468 -0.1756 -0.3691
 5278TIP3    H115773   6.265   1.678   2.009 -0.2630  1.5269  0.0584
 5278TIP3    H215774   6.123   1.730   1.998 -0.8738 -0.5536 -2.2806
 5279TIP3   OH215775   8.457   5.220   4.285 -0.7788  0.3840  0.1139
 5279TIP3    H115776   8.466   5.178   4.200 -1.1675 -1.8526  1.1168
 5279TIP3    H215777   8.369   5.256   4.286 -0.0772  2.1817 -1.1587
 5280TIP3   OH215778   7.600   0.598   1.499 -0.3072 -0.2854  0.1128
 5280TIP3    H115779   7.582   0.544   1.422 -0.2022 -1.4624  0.9035
 5280TIP3    H215780   7.553   0.680   1.482 -0.6572 -0.7088 -0.9987
 5281TIP3   OH215781   5.364   0.250   1.631  0.0334 -0.8394 -0.6465
 5281TIP3    H115782   5.298   0.241   1.700 -0.7674 -1.3798 -1.4755
 5281TIP3    H215783   5.424   0.316   1.664 -1.4045  0.2951 -0.2364
 5282TIP3   OH215784   5.787   0.352   3.042  0.0041  0.3235 -0.1696
 5282TIP3    H115785   5.786   0.299   2.963  0.3974 -0.9877  0.6776
 5282TIP3    H215786   5.709   0.407   3.036 -0.9382 -1.0414 -0.6229
 5283TIP3   OH215787   4.622   0.630   1.504  0.2220  0.2050  0.1467
 5283TIP3    H115788   4.574   0.632   1.421 -2.2323  0.1288  1.5338
 5283TIP3    H215789   4.572   0.687   1.562  2.7901  1.5007  1.1424
 5284TIP3   OH215790   6.815   0.919   3.720 -0.1523  0.2715  0.0261
 5284TIP3    H115791   6.763   0.972   3.659  0.1955  0.3113 -0.2361
 5284TIP3    H215792   6.840   0.842   3.670 -0.2560  0.0853  0.2616
 5285TIP3   OH215793   4.183   4.808   1.961  0.4605 -0.5854 -0.9993
 5285TIP3    H115794   4.141   4.790   2.045  1.1755 -2.6959 -1.0802
 5285TIP3    H215795   4.134   4.755   1.898  2.0514 -1.6295 -1.3816
 5286TIP3   OH215796   3.159   3.261   4.994  0.2956  0.5634  0.1104
 5286TIP3    H115797   3.172   3.187   4.935  0.9060  0.0387  0.8953
 5286TIP3    H215798   3.071   3.248   5.030  0.4130  0.2145  0.2660
 5287TIP3   OH215799   5.562   1.550   2.044 -0.0942  0.4075  0.0836
 5287TIP3    H115800   5.645   1.528   2.087 -1.0660 -4.6551 -0.2637
 5287TIP3    H215801   5.496   1.542   2.113 -0.7876 -0.1484 -0.6249
 5288TIP3   OH215802   0.396   2.699   6.396  0.1079  0.3321 -0.3506
 5288TIP3    H115803   0.346   2.653   6.462 -1.0783  1.3519 -0.5135
 5288TIP3    H215804   0.481   2.656   6.395 -0.3312 -0.5719  0.8566
 5289TIP3   OH215805   1.960   6.780   2.889 -0.0013 -0.7788 -0.1373
 5289TIP3    H115806   1.970   6.755   2.797 -0.7427 -0.8503 -0.2035
 5289TIP3    H215807   1.867   6.767   2.907 -0.0595  0.2423  0.3265
 5290TIP3   OH215808   0.614   7.051   3.193  0.4897 -0.0222 -0.2984
 5290TIP3    H115809   0.577   6.984   3.135 -0.3409 -1.2157  1.5473
 5290TIP3    H215810   0.538   7.093   3.232  1.0204 -1.2175  2.1068
 5291TIP3   OH215811   1.161   0.587   2.203  0.8122  0.3461  0.4509
 5291TIP3    H115812   1.181   0.633   2.284 -0.3208  0.0340  0.9151
 5291TIP3    H215813   1.155   0.656   2.136  0.0640  0.7768  0.9589
 5292TIP3   OH215814   5.961   6.711   2.255  0.2808 -0.0760  0.0059
 5292TIP3    H115815   6.037   6.766   2.235  1.0950 -0.4347  1.9432
 5292TIP3    H215816   5.905   6.767   2.309 -0.5524 -0.0252 -0.8965
 5293TIP3   OH215817   4.658   6.440   1.808  0.2590 -0.7211 -0.5728
 5293TIP3    H115818   4.601   6.492   1.750  0.1902 -0.4808 -0.2966
 5293TIP3    H215819   4.622   6.352   1.804  1.2420 -1.0550 -2.1527
 5294TIP3   OH215820   2.156   4.491   0.815 -0.3514  0.2525 -0.5809
 5294TIP3    H115821   2.202   4.455   0.739  0.2156  0.5611 -0.3823
 5294TIP3    H215822   2.174   4.585   0.812 -0.8081  0.3501 -0.3893
 5295TIP3   OH215823   3.383   4.726   1.818  0.6220  0.0552 -0.1931
 5295TIP3    H115824   3.441   4.782   1.767 -0.0609 -0.3434 -1.4383
 5295TIP3    H215825   3.295   4.761   1.803  0.1481 -1.5378 -1.2795
 5296TIP3   OH215826   7.660   4.178   5.727 -0.2599  0.2704 -0.3408
 5296TIP3    H115827   7.576   4.223   5.734 -0.3382  0.4925 -2.2539
 5296TIP3    H215828   7.723   4.237   5.769 -1.0855 -0.0355  1.3717
 5297TIP3   OH215829   1.266   2.382   5.256 -0.1324 -0.5373  0.5673
 5297TIP3    H115830   1.239   2.379   5.164  1.5850 -1.9056  0.0655
 5297TIP3    H215831   1.188   2.358   5.305 -1.3824  1.3456 -0.4500
 5298TIP3   OH215832   2.273   7.571   3.231 -0.3424  0.5754  0.1695
 5298TIP3    H115833   2.227   7.634   3.287  0.0133  1.3948 -0.4538
 5298TIP3    H215834   2.324   7.626   3.170  0.5066 -0.3129  0.0686
 5299TIP3   OH215835   6.617   1.181   2.620  0.2334 -0.1999  0.0306
 5299TIP3    H115836   6.535   1.221   2.647 -0.4224 -1.0956 -0.6032
 5299TIP3    H215837   6.670   1.253   2.587 -1.1653  0.0822 -1.6776
 5300TIP3   OH215838   2.777   7.656   1.065  0.5743 -0.0671 -0.1551
 5300TIP3    H115839   2.693   7.611   1.074  1.4945 -1.9632 -0.9048
 5300TIP3    H215840   2.783   7.679   0.972  0.6937  0.4419 -0.0231
 5301TIP3   OH215841   4.639   5.290   1.523  0.8289  0.0149 -0.4653
 5301TIP3    H115842   4.585   5.367   1.506 -0.4988 -1.1574 -1.6706
 5301TIP3    H215843   4.579   5.229   1.567  1.2743 -1.1421 -1.4572
 5302TIP3   OH215844   6.171   1.105   1.695  0.8711 -0.1304 -0.4688
 5302TIP3    H115845   6.194   1.135   1.607  1.4269  0.4082 -0.1375
 5302TIP3    H215846   6.080   1.132   1.706  1.1950  0.9467 -0.3900
 5303TIP3   OH215847   3.451   7.710   3.279 -0.1472  0.2079 -0.1925
 5303TIP3    H115848   3.436   7.748   3.365  3.0324 -0.1406  0.5869
 5303TIP3    H215849   3.453   7.785   3.220  0.7287  0.7598  0.5217
 5304TIP3   OH215850   2.194   7.296   1.990  0.1877  0.6807  0.9531
 5304TIP3    H115851   2.148   7.220   2.025  1.6509 -0.4065  0.5617
 5304TIP3    H215852   2.283   7.288   2.023  1.2743  0.3144 -1.9274
 5305TIP3   OH215853   0.547   6.402   1.168  0.0440  0.4114  0.1917
 5305TIP3    H115854   0.477   6.419   1.105  1.0352  0.1474 -1.0046
 5305TIP3    H215855   0.597   6.483   1.170  1.2698 -0.2760 -1.0147
 5306TIP3   OH215856   3.439   4.679   0.483  0.1934 -0.1921  0.1651
 5306TIP3    H115857   3.411   4.678   0.392 -2.1541  2.1221  0.8213
 5306TIP3    H215858   3.424   4.589   0.513 -2.0546 -0.2146 -0.8799
 5307TIP3   OH215859   4.966   7.308   1.898 -0.5070 -0.3176  0.0742
 5307TIP3    H115860   4.931   7.236   1.845 -1.6202 -0.7354  1.3375
 5307TIP3    H215861   4.989   7.376   1.835  3.3120 -2.8586 -1.4493
 5308TIP3   OH215862   1.193   6.967   3.616 -0.2090 -0.8709 -0.9000
 5308TIP3    H115863   1.122   6.905   3.634 -0.9899  0.3716  0.3940
 5308TIP3    H215864   1.169   7.046   3.665  0.4200  0.7008 -3.0005
 5309TIP3   OH215865   1.763   5.393   0.128 -0.5442  0.5571 -0.1522
 5309TIP3    H115866   1.828   5.324   0.120 -0.1694  0.4612  2.9645
 5309TIP3    H215867   1.813   5.474   0.127 -0.1498  0.4500  3.2736
 5310TIP3   OH215868   2.666   6.964   1.749  0.2692 -0.6921  0.1098
 5310TIP3    H115869   2.686   7.057   1.759 -0.9867 -0.3101 -0.7158
 5310TIP3    H215870   2.608   6.944   1.823 -2.8648  0.2621 -1.9447
 5311TIP3   OH215871   0.728   5.771   1.090 -0.0227 -0.4446 -0.0215
 5311TIP3    H115872   0.703   5.813   1.007  1.3187  0.4196 -0.0055
 5311TIP3    H215873   0.792   5.705   1.065  1.1924  0.5372  0.4123
 5312TIP3   OH215874   2.467   5.022   0.926  0.1806 -0.3710  0.6515
 5312TIP3    H115875   2.456   5.050   0.835 -0.0496 -0.1240  0.7564
 5312TIP3    H215876   2.386   5.048   0.970 -0.2909 -1.7319  0.6217
 5313TIP3   OH215877   4.733   0.140   3.500 -0.3215  0.3890  0.4516
 5313TIP3    H115878   4.770   0.061   3.461 -2.5898 -1.3745  1.7437
 5313TIP3    H215879   4.644   0.145   3.466  0.0014  2.8048 -0.1537
 5314TIP3   OH215880   8.256   5.799   5.299 -0.4783 -0.0556 -0.3130
 5314TIP3    H115881   8.342   5.833   5.275 -1.1012  1.4237 -0.4855
 5314TIP3    H215882   8.267   5.704   5.298  0.7176  0.0790 -1.9400
 5315TIP3   OH215883   2.778   3.856   1.273 -0.2325 -0.1195 -0.2780
 5315TIP3    H115884   2.841   3.928   1.264  0.1498 -0.3891  0.2217
 5315TIP3    H215885   2.810   3.789   1.213  0.5533 -0.6721  0.7421
 5316TIP3   OH215886   6.374   0.853   2.035 -0.1011  0.5227  0.3583
 5316TIP3    H115887   6.301   0.795   2.056 -1.1087  1.9667  0.9309
 5316TIP3    H215888   6.452   0.806   2.066 -0.8074 -0.8896  0.0261
 5317TIP3   OH215889   5.940   1.336   0.262  0.3834 -0.3471 -0.0866
 5317TIP3    H115890   5.905   1.251   0.287 -1.3185  0.2179 -0.4895
 5317TIP3    H215891   5.916   1.394   0.334  1.8287 -0.2473  0.3483
 5318TIP3   OH215892   4.088   7.571   2.749 -0.1806 -0.1012  0.5079
 5318TIP3    H115893   4.058   7.487   2.783  0.7281 -0.4459  0.4616
 5318TIP3    H215894   4.064   7.634   2.818  0.8935 -0.6727  1.4220
 5319TIP3   OH215895   4.630   5.288   2.591  0.4965  0.2430  0.2927
 5319TIP3    H115896   4.612   5.344   2.515 -0.2224  0.4947  0.6468
 5319TIP3    H215897   4.680   5.215   2.554 -0.1864  0.1629 -0.5028
 5320TIP3   OH215898   4.294   7.799   1.250 -0.2092 -0.1104  0.3842
 5320TIP3    H115899   4.295   7.894   1.241 -0.6455 -0.1439 -0.0787
 5320TIP3    H215900   4.359   7.780   1.318 -1.0996  0.6206  1.4566
 5321TIP3   OH215901   1.574   3.001   5.453 -0.2139  0.1131  0.2208
 5321TIP3    H115902   1.489   2.976   5.491  0.6702  1.7058  3.4485
 5321TIP3    H215903   1.556   3.081   5.405 -0.5351  0.4456  0.8929
 5322TIP3   OH215904   4.378   6.854   2.378 -0.0297 -0.2998 -0.0855
 5322TIP3    H115905   4.344   6.878   2.292  2.2071  1.1934 -0.5979
 5322TIP3    H215906   4.471   6.838   2.363  0.1622 -1.1272  1.8542
 5323TIP3   OH215907   5.675   1.080   2.804 -0.2144 -0.2759 -0.4686
 5323TIP3    H115908   5.678   1.158   2.748 -0.0456  0.7975  0.9963
 5323TIP3    H215909   5.753   1.087   2.859  0.0570 -1.7432 -0.6536
 5324TIP3   OH215910   1.931   7.034   3.044 -0.3245  0.5822 -0.4360
 5324TIP3    H115911   1.951   6.946   3.011  0.6070  0.9277 -0.8148
 5324TIP3    H215912   1.893   7.019   3.130  0.6257 -0.1585 -0.1292
 5325TIP3   OH215913   3.688   7.257   1.762 -0.3297 -0.1727 -0.0074
 5325TIP3    H115914   3.602   7.240   1.801  0.7077 -1.5693  1.7531
 5325TIP3    H215915   3.748   7.253   1.836  1.3578 -0.0405 -1.3585
 5326TIP3   OH215916   4.540   7.180   1.139 -0.0524  0.0373 -0.1614
 5326TIP3    H115917   4.534   7.239   1.065  0.0986  2.7323  1.8979
 5326TIP3    H215918   4.460   7.127   1.134 -0.0113  0.1322 -2.2416
 5327TIP3   OH215919   0.017   1.687   1.363  0.3325  0.5596 -0.7749
 5327TIP3    H115920  -0.026   1.602   1.359 -1.2537  1.3233 -0.2005
 5327TIP3    H215921   0.020   1.717   1.272  2.0896 -0.6735 -1.1520
 5328TIP3   OH215922   8.026   1.620   3.858  0.0003 -0.3224 -0.0716
 5328TIP3    H115923   8.028   1.568   3.938  1.0165 -0.3052 -0.0829
 5328TIP3    H215924   8.109   1.668   3.859 -0.4374  0.4534 -0.6177
 5329TIP3   OH215925   3.539   7.862   2.193 -0.0405 -0.5243 -1.0626
 5329TIP3    H115926   3.549   7.819   2.108  1.2091 -2.3237 -0.0399
 5329TIP3    H215927   3.615   7.920   2.200  0.4432 -1.2000 -0.7055
 5330TIP3   OH215928   6.704   0.048   1.346  0.2917 -0.1094 -0.3371
 5330TIP3    H115929   6.619   0.007   1.330  0.0846  0.6082 -1.0665
 5330TIP3    H215930   6.726   0.091   1.264 -0.0090  2.1641  0.7376
 5331TIP3   OH215931   4.791   6.962   0.966 -0.0068  0.0158  0.2421
 5331TIP3    H115932   4.729   7.029   0.994  0.9365  1.1079 -0.2279
 5331TIP3    H215933   4.823   6.993   0.881 -1.0594 -2.0564 -0.9601
 5332TIP3   OH215934   7.190   1.513   0.460  0.5578  0.1772  0.4731
 5332TIP3    H115935   7.201   1.470   0.375 -1.7086  1.0206 -0.3078
 5332TIP3    H215936   7.192   1.607   0.440 -0.7572  0.3800  1.2066
 5333TIP3   OH215937   2.125   6.399   2.011  0.4668  0.0547  0.6593
 5333TIP3    H115938   2.189   6.329   1.994 -0.3792 -0.7026  0.5697
 5333TIP3    H215939   2.064   6.360   2.073  1.6531  1.6911  2.9307
 5334TIP3   OH215940   6.535   0.771   1.351 -0.6473 -0.0933  0.4851
 5334TIP3    H115941   6.592   0.773   1.275  0.9795 -1.8037  1.6116
 5334TIP3    H215942   6.529   0.863   1.379 -0.7803  0.4653 -1.3313
 5335TIP3   OH215943   8.359   5.679   6.694  0.1544  0.5988  0.5183
 5335TIP3    H115944   8.390   5.712   6.610 -1.2609  0.9673  0.1121
 5335TIP3    H215945   8.369   5.753   6.754 -0.3357  0.8531  0.2886
 5336TIP3   OH215946   4.321   6.940   0.767  0.2460  0.1127  0.0822
 5336TIP3    H115947   4.380   6.909   0.835  1.2042  0.5851 -0.5159
 5336TIP3    H215948   4.253   6.988   0.814  0.4571 -0.2546  0.7695
 5337TIP3   OH215949   2.653   4.873   2.404  0.2392  0.4339  0.0176
 5337TIP3    H115950   2.664   4.811   2.476 -0.7650  0.1453 -0.0684
 5337TIP3    H215951   2.670   4.821   2.325 -0.0807  0.4024 -0.0290
 5338TIP3   OH215952   4.372   7.196   1.496 -0.2127  0.2922 -0.0324
 5338TIP3    H115953   4.308   7.258   1.461  0.2692  0.8068 -0.0094
 5338TIP3    H215954   4.319   7.125   1.532 -0.7644  0.5962 -0.2322
 5339TIP3   OH215955   2.747   7.028   2.599  0.0178  0.0658 -0.5642
 5339TIP3    H115956   2.759   7.052   2.691  1.3357  2.2093 -1.2614
 5339TIP3    H215957   2.673   6.968   2.599 -0.2087  0.3083  1.8622
 5340TIP3   OH215958   2.157   5.820   3.952 -0.4208 -0.4590  0.5358
 5340TIP3    H115959   2.168   5.847   3.860  2.5251 -1.2055  0.5982
 5340TIP3    H215960   2.091   5.752   3.949  0.5987 -1.4381 -1.2677
 5341TIP3   OH215961   3.617   6.347   2.391  0.0792 -0.2027 -0.3348
 5341TIP3    H115962   3.676   6.291   2.340  0.3858  0.6836 -0.9585
 5341TIP3    H215963   3.650   6.341   2.481 -0.5504 -1.8900 -0.1836
 5342TIP3   OH215964   6.889   0.373   0.168  0.5235  0.4017  0.4934
 5342TIP3    H115965   6.911   0.292   0.212  1.3414  0.5053  0.2725
 5342TIP3    H215966   6.954   0.436   0.199 -0.3449  1.0809  0.9753
 5343TIP3   OH215967   2.379   5.602   3.189 -0.0077  0.1486 -0.1427
 5343TIP3    H115968   2.290   5.627   3.216 -0.1772  0.1023 -0.6521
 5343TIP3    H215969   2.424   5.686   3.176 -0.6932  0.2311 -2.2376
 5344TIP3   OH215970   5.604   0.973   0.927  0.7068 -0.4769  0.8894
 5344TIP3    H115971   5.563   1.007   1.007  0.1214  2.1650 -0.4854
 5344TIP3    H215972   5.692   0.948   0.954  0.3701 -0.0207  2.4601
 5345TIP3   OH215973   5.525   0.539   1.158 -0.3252 -1.0873  0.4845
 5345TIP3    H115974   5.489   0.486   1.229 -0.5999  0.1594  1.3007
 5345TIP3    H215975   5.496   0.628   1.178 -0.4938 -0.7358 -1.2508
 5346TIP3   OH215976   1.098   2.209   6.744 -0.3598 -0.2027  0.3488
 5346TIP3    H115977   1.179   2.258   6.756 -2.3525  3.3595  0.0358
 5346TIP3    H215978   1.053   2.215   6.828 -1.5808  0.3618 -0.3307
 5347TIP3   OH215979   2.921   5.665   1.501 -0.4015 -0.2391 -0.3126
 5347TIP3    H115980   2.870   5.598   1.546  0.5210 -0.5477  0.2949
 5347TIP3    H215981   3.002   5.621   1.475  0.5242  0.7978  0.7227
 5348TIP3   OH215982   7.724   2.144   3.862  0.0696  0.3445 -0.2965
 5348TIP3    H115983   7.683   2.228   3.842  0.2743 -0.0379 -2.4135
 5348TIP3    H215984   7.653   2.080   3.854  0.4472  0.0254 -1.1426
 5349TIP3   OH215985   8.445   4.675   6.351 -0.3100  0.2667 -0.0977
 5349TIP3    H115986   8.394   4.747   6.389  1.0309  0.4084  1.4987
 5349TIP3    H215987   8.534   4.689   6.384  0.1885 -1.5374 -0.6179
 5350TIP3   OH215988   4.103   7.538   2.131 -0.2861  0.1608  0.0047
 5350TIP3    H115989   4.049   7.478   2.078 -0.3735  0.2546 -0.0126
 5350TIP3    H215990   4.039   7.591   2.179 -0.2133  0.5938 -0.3749
 5351TIP3   OH215991   5.226   8.007   1.369  0.6805 -0.1574  0.4857
 5351TIP3    H115992   5.298   7.970   1.319 -0.6481 -1.7866 -0.2763
 5351TIP3    H215993   5.164   7.935   1.379 -1.2705  1.4330  0.3112
 5352TIP3   OH215994   6.476   0.156   1.771 -0.0895  0.8731 -0.3760
 5352TIP3    H115995   6.519   0.071   1.758  1.1246  1.0958  1.9218
 5352TIP3    H215996   6.419   0.165   1.696  1.4645 -0.9530 -1.8410
 5353TIP3   OH215997   1.277   7.847   2.557 -0.3022 -0.5426  0.2727
 5353TIP3    H115998   1.199   7.880   2.601  0.3101  1.3123  0.0233
 5353TIP3    H215999   1.335   7.818   2.627  0.1530  1.2250  0.6441
 5354TIP3   OH216000   0.625   2.576   5.746  0.3727 -0.2810  0.2359
 5354TIP3    H116001   0.644   2.615   5.661  3.0854  1.6874  1.6591
 5354TIP3    H216002   0.699   2.516   5.762  0.0067 -0.4698  1.2808
 5355TIP3   OH216003   2.263   4.923   6.878  0.0149 -0.0680  0.4597
 5355TIP3    H116004   2.324   4.984   6.920  0.8525  1.1106 -2.3255
 5355TIP3    H216005   2.317   4.847   6.856  0.1158  0.2890 -0.5382
 5356TIP3   OH216006   7.231   2.015   4.852  0.4859  0.2397 -0.1315
 5356TIP3    H116007   7.238   2.012   4.756 -1.4700  1.5845 -0.3330
 5356TIP3    H216008   7.261   1.928   4.880  1.0224 -0.1952 -1.9468
 5357TIP3   OH216009   3.502   6.229   0.491 -0.0013 -0.0903 -0.4248
 5357TIP3    H116010   3.454   6.310   0.507  2.8241  1.4231  0.8955
 5357TIP3    H216011   3.535   6.203   0.577 -0.5427 -2.4695 -0.8913
 5358TIP3   OH216012   5.384   7.203   1.696  0.1374  0.1916 -0.1723
 5358TIP3    H116013   5.401   7.282   1.645  1.2652 -0.7126 -1.1977
 5358TIP3    H216014   5.468   7.183   1.737 -0.1158 -0.5611 -0.0269
 5359TIP3   OH216015   2.067   7.961   0.666 -0.0305 -0.1763 -0.0428
 5359TIP3    H116016   2.009   7.888   0.646  2.4853 -1.8940 -1.3426
 5359TIP3    H216017   2.098   7.992   0.581  1.2541  0.4505  0.6263
 5360TIP3   OH216018   3.694   7.070   2.736  0.0220  0.1201 -0.6334
 5360TIP3    H116019   3.729   6.996   2.785 -1.6177  1.1861  2.2817
 5360TIP3    H216020   3.609   7.040   2.705  0.8661 -0.3975 -2.4918
 5361TIP3   OH216021   5.174   0.232   1.824  0.0073 -0.6419  0.4580
 5361TIP3    H116022   5.132   0.282   1.754  0.8635  0.7062  0.8870
 5361TIP3    H216023   5.101   0.200   1.877 -0.5936 -0.5179 -0.2818
 5362TIP3   OH216024   5.541   6.459   3.122 -0.2160 -0.7350 -0.0580
 5362TIP3    H116025   5.511   6.452   3.213 -0.7802  0.6638 -0.1307
 5362TIP3    H216026   5.623   6.509   3.128 -1.1075  0.8007 -0.4722
 5363TIP3   OH216027   4.314   4.596   2.516  0.2681 -0.4789 -0.3507
 5363TIP3    H116028   4.365   4.570   2.439 -0.8436 -1.2170 -0.8510
 5363TIP3    H216029   4.293   4.688   2.500  0.4271 -0.5045 -0.7231
 5364TIP3   OH216030   4.692   0.192   1.849 -0.1159 -0.3361 -0.0334
 5364TIP3    H116031   4.721   0.101   1.840 -2.3698 -1.0238 -0.7336
 5364TIP3    H216032   4.650   0.212   1.765  0.7580  1.5100 -0.0477
 5365TIP3   OH216033   1.361   6.028   1.281 -0.1947 -0.0553 -0.1191
 5365TIP3    H116034   1.336   6.103   1.335 -0.8062 -0.5422  0.2840
 5365TIP3    H216035   1.280   6.004   1.236 -0.0030 -0.4960 -0.2264
 5366TIP3   OH216036   2.453   7.294   2.109  0.1426  0.2797 -0.4390
 5366TIP3    H116037   2.538   7.302   2.066  0.4332  1.9500  0.4320
 5366TIP3    H216038   2.473   7.266   2.198 -0.2169  0.6864 -0.2285
 5367TIP3   OH216039   3.806   7.947   2.201 -0.0164 -0.0596  0.4122
 5367TIP3    H116040   3.838   7.997   2.277 -4.2184  1.7530  1.1650
 5367TIP3    H216041   3.829   8.002   2.126 -0.7440  0.8942  0.8694
 5368TIP3   OH216042   0.717   7.450   4.240  0.2212 -0.2242 -0.4673
 5368TIP3    H116043   0.629   7.467   4.207 -0.2511 -1.4933  0.1395
 5368TIP3    H216044   0.752   7.537   4.259 -0.7965  0.3018 -0.9410
 5369TIP3   OH216045   3.382   6.892   4.260 -0.1663  0.9962 -0.4726
 5369TIP3    H116046   3.314   6.832   4.291 -0.2547  0.1734 -2.2197
 5369TIP3    H216047   3.395   6.953   4.333 -0.2326 -1.0012  1.2630
 5370TIP3   OH216048   0.747   7.186   2.039  0.1023 -0.3042 -0.3930
 5370TIP3    H116049   0.693   7.264   2.023 -1.2813 -1.1186  0.2068
 5370TIP3    H216050   0.694   7.132   2.097  1.4491 -1.2807 -0.0490
 5371TIP3   OH216051   2.302   5.539   4.050  0.1376 -0.7977  0.6422
 5371TIP3    H116052   2.370   5.483   4.087  0.0812 -0.7981  0.7459
 5371TIP3    H216053   2.294   5.511   3.959  0.2862 -0.7893  0.6278
 5372TIP3   OH216054   3.530   7.696   0.432  0.5389 -0.3065 -0.0185
 5372TIP3    H116055   3.553   7.638   0.504 -1.1916 -3.1167 -1.6583
 5372TIP3    H216056   3.580   7.663   0.357 -0.6727  0.1526 -1.0442
 5373TIP3   OH216057   5.990   0.905   3.136 -0.2557 -0.4682 -0.3601
 5373TIP3    H116058   6.083   0.900   3.156  0.3982  2.1048 -2.4640
 5373TIP3    H216059   5.958   0.978   3.188 -0.5534  0.2369 -1.5120
 5374TIP3   OH216060   1.800   5.358   6.606  0.4969  0.2734  0.1815
 5374TIP3    H116061   1.718   5.353   6.655 -0.3180  1.1815 -1.0834
 5374TIP3    H216062   1.782   5.312   6.524  1.4134  0.0283  0.1113
 5375TIP3   OH216063   2.342   7.958   1.166 -0.1048 -0.1646 -0.2342
 5375TIP3    H116064   2.401   7.883   1.162 -1.4525 -1.1903 -1.1181
 5375TIP3    H216065   2.364   8.010   1.089  0.7080  0.2840  0.2853
 5376TIP3   OH216066   5.076   0.575   2.482 -0.0481 -0.1640 -0.5213
 5376TIP3    H116067   5.050   0.493   2.442 -2.9431  1.0540 -1.2306
 5376TIP3    H216068   5.013   0.589   2.552  1.7281  0.4136  1.0088
 5377TIP3   OH216069   2.222   2.932   6.117 -0.6025  0.0715  0.5252
 5377TIP3    H116070   2.259   2.881   6.045 -0.2647  2.0815 -0.7741
 5377TIP3    H216071   2.287   2.928   6.186 -0.6371 -1.3472  0.4825
 5378TIP3   OH216072   6.054   0.216   0.645  0.4261 -0.1603 -0.4061
 5378TIP3    H116073   6.114   0.189   0.575  1.1053  3.5737 -1.4106
 5378TIP3    H216074   5.988   0.269   0.600  0.2173  1.3639  1.6199
 5379TIP3   OH216075   3.491   6.793   0.557  0.4027 -0.6508 -0.4106
 5379TIP3    H116076   3.448   6.872   0.590  0.7400 -1.6131  2.4847
 5379TIP3    H216077   3.584   6.806   0.575  0.6010 -1.2127 -0.9864
 5380TIP3   OH216078   2.620   6.472   0.690 -0.0278 -0.2640 -0.4394
 5380TIP3    H116079   2.568   6.551   0.677  0.4834  0.3320  1.0651
 5380TIP3    H216080   2.700   6.488   0.639 -0.5191 -0.4107 -1.2678
 5381TIP3   OH216081   2.175   7.663   2.801  0.4574  0.3667  0.1873
 5381TIP3    H116082   2.139   7.744   2.765 -0.1066  0.2422  0.4556
 5381TIP3    H216083   2.101   7.602   2.802  0.5124  0.2965  1.3270
 5382TIP3   OH216084   6.687   0.007   6.213 -0.8727 -0.1355  0.2703
 5382TIP3    H116085   6.668   0.002   6.119 -3.1343  0.6532  0.6576
 5382TIP3    H216086   6.712   0.098   6.227  0.5241 -0.5084  0.2644
 5383TIP3   OH216087   8.427   1.462   5.895 -0.6309  0.1636  0.0845
 5383TIP3    H116088   8.515   1.451   5.932 -1.5179 -0.8004  1.9815
 5383TIP3    H216089   8.368   1.433   5.964 -2.4872  1.3397 -0.9545
 5384TIP3   OH216090   3.608   0.187   3.605  0.3439 -0.4891  0.1594
 5384TIP3    H116091   3.623   0.143   3.522  1.5084 -1.4054  0.8473
 5384TIP3    H216092   3.539   0.251   3.586  2.0888  0.8282 -2.0367
 5385TIP3   OH216093   0.196   4.328   6.719  0.2862  0.2832  0.0456
 5385TIP3    H116094   0.112   4.367   6.744  0.2555  0.6031 -0.5682
 5385TIP3    H216095   0.179   4.234   6.716  0.5280  0.1397  2.2027
 5386TIP3   OH216096   1.096   2.602   6.227 -0.0283 -0.2309 -0.0898
 5386TIP3    H116097   1.002   2.616   6.214  0.5936  2.1739 -2.4381
 5386TIP3    H216098   1.134   2.616   6.141  2.6188 -0.1208  1.0578
 5387TIP3   OH216099   1.766   5.394   4.426 -0.3423 -0.4889  0.2260
 5387TIP3    H116100   1.685   5.382   4.474  0.5376 -0.9262  1.6473
 5387TIP3    H216101   1.753   5.349   4.343 -1.8197  0.1196  0.1250
 5388TIP3   OH216102   6.167   7.394   4.363  0.4147 -0.5320 -0.3904
 5388TIP3    H116103   6.101   7.348   4.313  0.9353 -1.9292  0.1856
 5388TIP3    H216104   6.250   7.363   4.328  0.7802 -1.2563  1.0734
 5389TIP3   OH216105   2.679   5.332   0.553 -1.0370 -0.0844  0.1929
 5389TIP3    H116106   2.693   5.358   0.462 -0.3130 -0.2194  0.2661
 5389TIP3    H216107   2.619   5.399   0.588 -2.0974 -0.5820 -0.6503
 5390TIP3   OH216108   1.368   7.413   1.796 -0.1644 -0.1668 -0.8492
 5390TIP3    H116109   1.404   7.495   1.762 -0.9685  0.5073 -0.1104
 5390TIP3    H216110   1.284   7.438   1.833  0.3267 -1.0173  0.8875
 5391TIP3   OH216111   2.650   6.012   0.888 -0.5310 -0.1900  0.3140
 5391TIP3    H116112   2.731   5.966   0.908  0.7763  1.8697 -0.0730
 5391TIP3    H216113   2.610   6.027   0.974  0.0832 -0.1783  0.6026
 5392TIP3   OH216114   4.774   7.526   2.464  0.0200  0.1019  0.1231
 5392TIP3    H116115   4.724   7.505   2.543 -0.0956  1.2743  0.3648
 5392TIP3    H216116   4.710   7.567   2.405  0.9245  2.7160  0.8932
 5393TIP3   OH216117   2.398   7.979   0.385  0.2603 -0.3866  0.0902
 5393TIP3    H116118   2.370   8.061   0.426 -0.1718 -1.3490  1.7652
 5393TIP3    H216119   2.317   7.938   0.354  0.6032  0.4172 -1.9151
 5394TIP3   OH216120   7.353   0.669   3.144  0.5240  0.4396  0.2760
 5394TIP3    H116121   7.366   0.576   3.121  1.3182  0.4492  0.6690
 5394TIP3    H216122   7.420   0.715   3.094 -0.2464  0.8772 -0.3765
 5395TIP3   OH216123   2.811   7.399   1.293 -0.5134 -0.5985  0.6574
 5395TIP3    H116124   2.752   7.325   1.280  1.0419 -1.5461 -1.2500
 5395TIP3    H216125   2.754   7.476   1.290 -1.7701 -1.5460 -0.2068
 5396TIP3   OH216126   4.264   5.216   0.859 -0.2351  0.2382 -0.3339
 5396TIP3    H116127   4.335   5.229   0.922 -0.2328 -0.8445 -0.1010
 5396TIP3    H216128   4.292   5.264   0.781  0.7647 -0.1832 -0.2418
 5397TIP3   OH216129   4.947   6.729   0.721  0.3470  0.1124 -0.4531
 5397TIP3    H116130   4.983   6.697   0.803  0.6372 -1.3020 -1.1140
 5397TIP3    H216131   5.014   6.788   0.686  2.2153 -2.6979 -1.8066
 5398TIP3   OH216132   7.099   0.449   0.546 -0.1174 -0.0830 -0.5248
 5398TIP3    H116133   7.086   0.499   0.626  0.9346 -0.3848 -0.1663
 5398TIP3    H216134   7.017   0.400   0.535 -0.4081  0.2432  0.1569
 5399TIP3   OH216135   2.149   6.445   3.548  0.4455  0.0230  0.2482
 5399TIP3    H116136   2.055   6.458   3.534  0.2272 -0.9557  0.7112
 5399TIP3    H216137   2.192   6.502   3.484 -0.4249  2.9204  2.1332
 5400TIP3   OH216138   3.408   7.968   1.787 -0.5827  0.0488  0.7133
 5400TIP3    H116139   3.438   8.004   1.704 -1.9568  0.5107  0.4121
 5400TIP3    H216140   3.350   8.035   1.824 -0.3848 -0.3610  1.8137
 5401TIP3   OH216141   2.930   7.154   0.817  0.5386 -0.1426 -0.6310
 5401TIP3    H116142   2.976   7.236   0.797 -0.5040  0.3232 -1.1967
 5401TIP3    H216143   2.924   7.153   0.913  1.3902 -0.0322 -0.5718
 5402TIP3   OH216144   3.982   7.499   1.804 -0.3510  0.0584  0.2901
 5402TIP3    H116145   3.950   7.511   1.893 -0.5896  0.6538  0.1282
 5402TIP3    H216146   3.904   7.503   1.750 -0.0658  1.0100 -0.0613
 5403TIP3   OH216147   0.222   4.654   6.820  0.0526 -0.7754 -0.2239
 5403TIP3    H116148   0.232   4.591   6.749  3.2181 -2.0849  1.2849
 5403TIP3    H216149   0.203   4.601   6.897  2.4625  0.0700  1.0131
 5404TIP3   OH216150   3.363   7.415   2.626  0.3218 -0.2541 -0.2412
 5404TIP3    H116151   3.353   7.389   2.717 -0.9789  1.9592  0.2819
 5404TIP3    H216152   3.398   7.337   2.582 -1.1019 -2.0356  1.7028
 5405TIP3   OH216153   0.978   2.262   6.511  0.1725 -0.0679 -0.0682
 5405TIP3    H116154   1.026   2.263   6.593  0.7649  1.4100 -0.4078
 5405TIP3    H216155   1.028   2.203   6.454 -0.0549 -0.8303  0.5261
 5406TIP3   OH216156   2.326   7.680   0.930  0.3532  0.5995  0.1670
 5406TIP3    H116157   2.391   7.614   0.952  1.1341  1.4463  0.4661
 5406TIP3    H216158   2.245   7.649   0.969  0.1517 -1.3480 -1.6784
 5407TIP3   OH216159   3.259   5.316   3.330  0.3430  0.7846  0.6636
 5407TIP3    H116160   3.326   5.384   3.340 -1.5004  2.5979  1.0663
 5407TIP3    H216161   3.186   5.361   3.286 -0.4099 -1.2821 -0.2566
 5408TIP3   OH216162   3.439   6.521   5.308  0.2057 -0.0640 -0.3861
 5408TIP3    H116163   3.462   6.567   5.227  3.7722 -1.4660 -0.2486
 5408TIP3    H216164   3.473   6.577   5.378  0.7494 -0.8078 -0.0486
 5409TIP3   OH216165   1.383   6.761   3.951  0.1249 -0.2701  0.0500
 5409TIP3    H116166   1.417   6.844   3.919 -0.5018  0.3136  0.8964
 5409TIP3    H216167   1.350   6.779   4.039 -1.8326 -0.9193 -0.4989
 5410TIP3   OH216168   8.116   1.602   2.456 -0.2323 -0.0395  0.4287
 5410TIP3    H116169   8.068   1.651   2.389  0.0986 -1.9280 -1.2496
 5410TIP3    H216170   8.127   1.664   2.528 -1.2168  1.8241 -0.9759
 5411TIP3   OH216171   4.612   6.542   0.837  0.1475 -0.1023  0.0561
 5411TIP3    H116172   4.576   6.510   0.754  2.1214 -0.3065 -0.7552
 5411TIP3    H216173   4.652   6.626   0.814  1.2062 -0.4309  0.6697
 5412TIP3   OH216174   2.421   7.566   2.567  0.3534 -0.1122  0.1131
 5412TIP3    H116175   2.449   7.558   2.658  0.8500 -0.5199 -0.0739
 5412TIP3    H216176   2.365   7.644   2.566 -1.7912 -1.6021  1.2724
 5413TIP3   OH216177   5.115   7.111   1.307 -0.3303  0.1116 -0.1841
 5413TIP3    H116178   5.041   7.075   1.358 -1.2617  1.1202 -0.8068
 5413TIP3    H216179   5.100   7.079   1.218 -0.8475  1.5451 -0.6251
 5414TIP3   OH216180   0.260   1.226   4.439  0.0396 -0.0292  0.0581
 5414TIP3    H116181   0.296   1.278   4.512 -1.0445  0.2447  0.4021
 5414TIP3    H216182   0.170   1.257   4.429 -0.7406 -2.0639  0.4918
 5415TIP3   OH216183   4.169   5.941   0.566 -0.0648  0.3142 -0.0349
 5415TIP3    H116184   4.150   6.021   0.614  0.8165  0.0488  0.7655
 5415TIP3    H216185   4.086   5.893   0.565  0.1514 -0.1762  2.1898
 5416TIP3   OH216186   3.755   6.458   0.567  0.2076 -1.0044 -0.3167
 5416TIP3    H116187   3.808   6.527   0.527 -0.8047 -0.1189 -0.1481
 5416TIP3    H216188   3.713   6.415   0.493 -0.7106 -0.1533 -0.2999
 5417TIP3   OH216189   2.482   6.475   3.072 -0.0272  0.1113 -0.0123
 5417TIP3    H116190   2.464   6.565   3.098 -0.3221 -0.1415  0.6731
 5417TIP3    H216191   2.566   6.479   3.026 -0.1534  0.7676 -0.1794
 5418TIP3   OH216192   4.591   5.651   2.798 -0.3844  0.0378  0.3485
 5418TIP3    H116193   4.509   5.699   2.808  0.1654  1.1253 -0.3467
 5418TIP3    H216194   4.657   5.718   2.779  0.2810 -1.0327 -1.2534
 5419TIP3   OH216195   5.403   6.993   1.053  0.3063 -0.2741  0.0477
 5419TIP3    H116196   5.424   6.995   0.960 -0.4753 -2.3690 -0.1893
 5419TIP3    H216197   5.307   6.995   1.056  0.3107  3.3281  0.9448
 5420TIP3   OH216198   0.909   0.134   0.165  0.5386  0.4814  0.0920
 5420TIP3    H116199   0.989   0.115   0.115  1.2989  0.7177  1.1965
 5420TIP3    H216200   0.899   0.229   0.160  0.6706  0.5163  0.4547
 5421TIP3   OH216201   4.297   7.166   0.582  0.2770  0.0434  0.4416
 5421TIP3    H116202   4.309   7.101   0.651 -1.7694 -1.6572 -0.7459
 5421TIP3    H216203   4.363   7.143   0.516  1.4247  0.9263  1.2593
 5422TIP3   OH216204   3.277   6.832   2.421  0.1906  0.7588  0.2529
 5422TIP3    H116205   3.183   6.814   2.416  0.1439  0.5612  1.6641
 5422TIP3    H216206   3.285   6.926   2.411 -0.1283  0.7351 -0.2264
 5423TIP3   OH216207   4.174   7.804   0.507  0.1891  0.5024  0.0465
 5423TIP3    H116208   4.099   7.852   0.472  0.0339  1.1032  1.1907
 5423TIP3    H216209   4.135   7.734   0.559  0.4121  0.6755  0.4509
 5424TIP3   OH216210   5.481   6.641   1.325  0.3553  0.5100 -0.2498
 5424TIP3    H116211   5.542   6.660   1.396  0.4111  1.9807 -0.6761
 5424TIP3    H216212   5.516   6.689   1.250 -0.3014 -0.1542 -0.9816
 5425TIP3   OH216213   2.648   7.740   4.709  0.2134 -0.2158  0.1693
 5425TIP3    H116214   2.567   7.755   4.659 -0.3320  0.1613  1.1518
 5425TIP3    H216215   2.714   7.723   4.642 -0.4767  0.4201 -0.6989
 5426TIP3   OH216216   5.750   7.323   1.535 -0.6704  0.2646 -0.0247
 5426TIP3    H116217   5.763   7.353   1.625  0.4427 -2.8622  0.9246
 5426TIP3    H216218   5.658   7.299   1.531 -0.1584 -2.1307  1.1795
 5427TIP3   OH216219   5.469   7.859   3.378  0.6627 -0.7317 -0.2421
 5427TIP3    H116220   5.515   7.782   3.414 -1.0475 -1.6898 -0.0486
 5427TIP3    H216221   5.472   7.923   3.449  3.4622 -0.0219 -0.9543
 5428TIP3   OH216222   5.981   6.158   1.260 -0.1792  0.2686 -0.1351
 5428TIP3    H116223   5.914   6.225   1.243 -0.5479  0.2865  1.2737
 5428TIP3    H216224   6.057   6.208   1.290  0.3622  0.2271 -1.4480
 5429TIP3   OH216225   5.075   0.920   1.313 -0.0272 -0.0485  0.1976
 5429TIP3    H116226   5.090   0.914   1.407 -0.8779  1.5542  0.4480
 5429TIP3    H216227   5.148   0.973   1.280 -0.0632 -0.0881  0.0525
 5430TIP3   OH216228   7.416   0.654   1.988 -0.0763 -0.1031 -0.0206
 5430TIP3    H116229   7.333   0.624   1.952  0.4856 -0.3068 -1.1631
 5430TIP3    H216230   7.406   0.749   1.996 -0.6921 -0.2111  0.5831
 5431TIP3   OH216231   6.405   1.282   1.678  0.3301  0.1222  0.5856
 5431TIP3    H116232   6.369   1.354   1.628 -0.8972 -0.8619  0.0213
 5431TIP3    H216233   6.364   1.289   1.764 -1.8090 -1.3949 -0.2615
 5432TIP3   OH216234   0.331   7.957   6.551  0.0411  0.2639  0.1926
 5432TIP3    H116235   0.252   7.923   6.509  1.2264 -0.2569 -1.7156
 5432TIP3    H216236   0.304   7.978   6.640 -2.5455  1.3372 -0.8061
 5433TIP3   OH216237   3.935   7.472   2.391 -0.0929  0.0291  0.2262
 5433TIP3    H116238   3.861   7.516   2.350 -0.2139  1.6450  2.0741
 5433TIP3    H216239   3.904   7.448   2.479  1.1356 -0.4928  0.5382
 5434TIP3   OH216240   0.181   0.783   1.871 -0.0297  0.5798 -0.0484
 5434TIP3    H116241   0.146   0.749   1.954 -0.3508 -0.3522 -0.5594
 5434TIP3    H216242   0.254   0.839   1.897  0.0984  0.0076  0.8538
 5435TIP3   OH216243   5.705   7.085   0.380 -0.2100  0.3604  0.0671
 5435TIP3    H116244   5.788   7.069   0.336  0.2558  0.4232  0.9214
 5435TIP3    H216245   5.723   7.157   0.440 -0.7782  0.0989  0.5527
 5436TIP3   OH216246   5.313   6.513   2.349 -0.3159 -0.1572  0.3332
 5436TIP3    H116247   5.246   6.466   2.398  0.1594  1.4103  2.5810
 5436TIP3    H216248   5.383   6.449   2.336 -2.1517 -1.7743 -1.9612
 5437TIP3   OH216249   7.113   0.531   0.208 -0.1918  0.3286  0.0713
 5437TIP3    H116250   7.093   0.624   0.218  2.3381  1.0096 -0.7300
 5437TIP3    H216251   7.174   0.527   0.134  0.2899 -1.8830  0.5411
 5438TIP3   OH216252   0.089   2.005   2.699  0.0249  0.0857  0.0832
 5438TIP3    H116253   0.093   2.012   2.603  2.2596  1.1283  0.2082
 5438TIP3    H216254   0.062   2.092   2.728 -1.8661 -0.5697  0.3828
 5439TIP3   OH216255   3.650   7.843   0.664  0.3219 -0.1337 -0.0757
 5439TIP3    H116256   3.667   7.749   0.673  0.7783 -0.1928 -1.4614
 5439TIP3    H216257   3.618   7.853   0.575  0.6847  1.0819 -0.0713
 5440TIP3   OH216258   3.593   7.927   0.928 -0.4289 -0.0037 -0.2137
 5440TIP3    H116259   3.597   7.892   0.839 -1.1243 -0.6841  0.0167
 5440TIP3    H216260   3.641   7.862   0.981 -0.9474 -0.1587  0.0738
 5441TIP3   OH216261   3.364   2.660   6.732  0.2606  0.4078 -0.2625
 5441TIP3    H116262   3.310   2.650   6.810  0.9945 -1.6657 -0.0048
 5441TIP3    H216263   3.450   2.684   6.765 -0.3000  3.1280 -0.6452
 5442TIP3   OH216264   6.860   0.572   2.305 -0.4566  0.3039  0.2461
 5442TIP3    H116265   6.841   0.503   2.241 -1.1357  0.0935  0.6740
 5442TIP3    H216266   6.779   0.623   2.309 -0.5090  0.1490  1.1471
 5443TIP3   OH216267   0.887   7.433   1.249  0.0845 -0.1606  0.1810
 5443TIP3    H116268   0.973   7.453   1.287  0.8161  0.1980 -1.5986
 5443TIP3    H216269   0.853   7.362   1.303  1.8286 -0.8176  0.4592
 5444TIP3   OH216270   8.468   0.424   3.908  0.0920  0.2071  0.0438
 5444TIP3    H116271   8.523   0.346   3.899  0.8475  0.7027  0.3473
 5444TIP3    H216272   8.486   0.456   3.996 -2.0049 -0.6151  0.8154
 5445TIP3   OH216273   4.871   5.461   1.524 -0.0423 -0.2143  0.0395
 5445TIP3    H116274   4.784   5.420   1.533  0.6847 -1.8116 -0.0535
 5445TIP3    H216275   4.901   5.474   1.614 -0.3093  0.2222  0.0695
 5446TIP3   OH216276   4.892   4.767   2.468  0.1146 -0.0651 -0.6714
 5446TIP3    H116277   4.879   4.781   2.562  0.6913  1.7440 -0.8458
 5446TIP3    H216278   4.806   4.784   2.430 -0.6432 -2.8186 -0.2849
 5447TIP3   OH216279   0.264   1.263   4.061  0.3900 -0.4338 -0.4010
 5447TIP3    H116280   0.241   1.197   4.127  3.7230 -2.0466 -0.6961
 5447TIP3    H216281   0.280   1.343   4.111 -0.4914 -0.7181  0.3457
 5448TIP3   OH216282   7.674   0.607   0.409  0.3031 -0.5418 -1.1192
 5448TIP3    H116283   7.580   0.609   0.393  0.3019  0.5971 -0.9813
 5448TIP3    H216284   7.693   0.690   0.453  1.2746 -1.0237 -0.6129
 5449TIP3   OH216285   4.982   7.319   1.155  0.0398 -0.2619 -0.2167
 5449TIP3    H116286   4.898   7.304   1.198  0.4026 -0.9196  0.2799
 5449TIP3    H216287   5.044   7.267   1.206  0.6179 -0.3917 -1.0458
 5450TIP3   OH216288   3.885   6.417   0.819  0.5613  0.7071  0.3575
 5450TIP3    H116289   3.878   6.323   0.834  1.2000  1.0161  2.8121
 5450TIP3    H216290   3.831   6.433   0.742 -0.6487 -1.4475  0.7193
 5451TIP3   OH216291   4.601   7.455   0.875 -0.2353 -0.1207 -0.2573
 5451TIP3    H116292   4.552   7.515   0.818 -0.0427  1.1246  0.8459
 5451TIP3    H216293   4.658   7.512   0.926 -1.5253 -1.0120  2.2945
 5452TIP3   OH216294   0.212   0.550   1.639  0.1926  0.1165 -0.1778
 5452TIP3    H116295   0.232   0.469   1.685  1.6811  0.3692 -0.3480
 5452TIP3    H216296   0.132   0.583   1.681  0.5462 -0.5583  1.0375
 5453TIP3   OH216297   1.162   4.215   6.671  0.4945  0.2752  0.0806
 5453TIP3    H116298   1.237   4.214   6.730 -0.2431  0.2039  1.0127
 5453TIP3    H216299   1.176   4.139   6.614  1.1245  0.2652  0.2432
 5454TIP3   OH216300   0.375  -0.027   4.705 -0.1508 -0.7232 -0.2251
 5454TIP3    H116301   0.364   0.046   4.766  0.8553 -1.2373  0.5879
 5454TIP3    H216302   0.367   0.013   4.619  0.3755  0.3583  0.2064
 5455TIP3   OH216303   2.317   2.220   5.841  0.1110 -0.3984  0.7379
 5455TIP3    H116304   2.362   2.225   5.925 -0.7962 -0.0945  1.2081
 5455TIP3    H216305   2.241   2.164   5.857 -0.8721  0.8262  0.5010
 5456TIP3   OH216306   7.011   0.263   1.273 -0.0497  0.1126 -0.6274
 5456TIP3    H116307   6.959   0.284   1.350  0.3995 -0.5077 -0.1511
 5456TIP3    H216308   6.958   0.292   1.199 -0.6404  0.3710 -0.1006
 5457TIP3   OH216309   2.238   7.233   1.584  0.3559 -0.1193 -0.2533
 5457TIP3    H116310   2.186   7.308   1.613  0.3418 -0.5092  0.7699
 5457TIP3    H216311   2.211   7.162   1.643  3.9624  0.3355  2.0885
 5458TIP3   OH216312   0.391   4.512   5.560 -0.1385 -0.4698  0.7418
 5458TIP3    H116313   0.399   4.554   5.646 -3.7198  0.6906  0.5945
 5458TIP3    H216314   0.359   4.424   5.580  2.6124 -1.5314  0.7451
 5459TIP3   OH216315   5.248   6.294   0.819  0.6522 -0.1142  1.0110
 5459TIP3    H116316   5.333   6.254   0.837 -0.0474 -2.5429 -0.7198
 5459TIP3    H216317   5.260   6.339   0.735  0.3199 -0.2628  0.8813
 5460TIP3   OH216318   0.763   4.614   5.330 -0.8486  0.3746  0.2051
 5460TIP3    H116319   0.816   4.685   5.295 -0.0626  0.0254  0.6964
 5460TIP3    H216320   0.797   4.600   5.418  0.4713 -2.1008 -0.6735
 5461TIP3   OH216321   4.317   6.586   0.222  0.0578  0.7292 -0.0895
 5461TIP3    H116322   4.244   6.526   0.239  0.3030  0.0410 -1.3473
 5461TIP3    H216323   4.395   6.535   0.243  0.1354  2.0061  2.8020
 5462TIP3   OH216324   2.232   5.205   1.562  0.4119  0.2575 -0.2088
 5462TIP3    H116325   2.281   5.125   1.574 -1.7899 -1.1512 -0.2849
 5462TIP3    H216326   2.246   5.229   1.470 -2.1540 -2.3235 -1.3471
 5463TIP3   OH216327   8.349   2.356   6.855 -0.0395 -0.0826  0.1608
 5463TIP3    H116328   8.315   2.444   6.873  1.2474  0.5858 -0.5375
 5463TIP3    H216329   8.273   2.306   6.826 -1.1231  0.2846  2.3065
 5464TIP3   OH216330   3.378   7.433   1.386 -0.3746  0.3065  0.3410
 5464TIP3    H116331   3.320   7.406   1.457  1.0963 -2.8591  0.4079
 5464TIP3    H216332   3.464   7.443   1.427 -0.4230  3.2269 -0.1127
 5465TIP3   OH216333   8.342   0.210   1.342 -0.2058 -0.0390 -0.3495
 5465TIP3    H116334   8.371   0.297   1.311  0.8094 -0.6763 -1.2341
 5465TIP3    H216335   8.251   0.223   1.368 -0.2627  1.1474 -1.1011
 5466TIP3   OH216336   6.840   5.171   0.433  0.1508  0.7057 -0.3062
 5466TIP3    H116337   6.759   5.219   0.451  1.0968  2.1806  0.1587
 5466TIP3    H216338   6.811   5.084   0.406 -1.5724  1.0755  0.2736
 5467TIP3   OH216339   6.396   4.812   1.004 -0.1823 -0.5249  0.4500
 5467TIP3    H116340   6.336   4.754   1.051 -2.5189  1.8820  0.5504
 5467TIP3    H216341   6.359   4.899   1.015  2.2856  0.7895 -1.1780
 5468TIP3   OH216342   4.717   6.983   2.075 -0.2968 -0.5569  0.3388
 5468TIP3    H116343   4.692   7.040   2.002 -0.4688 -1.1725 -0.0917
 5468TIP3    H216344   4.812   6.977   2.069 -0.2654 -0.1738  0.4868
 5469TIP3   OH216345   7.376   1.209   0.936  0.8132  0.6097 -0.4525
 5469TIP3    H116346   7.329   1.251   0.864  2.2592  1.7854 -0.7271
 5469TIP3    H216347   7.383   1.278   1.003  1.0227  0.0515  0.1064
 5470TIP3   OH216348   5.178   5.694   2.217  0.3737 -0.3632 -0.6174
 5470TIP3    H116349   5.129   5.617   2.244 -0.5503  0.3866 -0.1481
 5470TIP3    H216350   5.186   5.747   2.296  1.0053  0.0276 -0.9350
 5471TIP3   OH216351   5.101   7.605   2.163  0.0094 -0.7554 -0.0912
 5471TIP3    H116352   5.074   7.514   2.151 -1.1767 -0.3455 -0.6496
 5471TIP3    H216353   5.019   7.652   2.179  0.7667 -0.0157  1.6376
 5472TIP3   OH216354   3.114   5.346   2.007 -0.0171 -0.5771 -0.0702
 5472TIP3    H116355   3.172   5.307   2.072 -1.1354 -0.1845  1.1959
 5472TIP3    H216356   3.069   5.271   1.967  0.4815 -0.8033 -0.2043
 5473TIP3   OH216357   0.230   0.150   3.220  0.5380  0.0878 -0.0804
 5473TIP3    H116358   0.263   0.077   3.273  1.1743 -0.3655 -1.0855
 5473TIP3    H216359   0.306   0.178   3.169 -0.5219 -0.7575 -2.2084
 5474TIP3   OH216360   6.061   6.757   2.905 -0.5498  0.2649 -0.0037
 5474TIP3    H116361   6.095   6.675   2.869 -0.7992  0.5698 -0.9309
 5474TIP3    H216362   5.967   6.742   2.913 -0.3873 -0.1326  1.4102
 5475TIP3   OH216363   2.609   0.746   6.547  0.2819 -0.1663 -0.1376
 5475TIP3    H116364   2.658   0.666   6.566 -0.7974 -0.6183  0.8130
 5475TIP3    H216365   2.599   0.789   6.632 -0.1102  0.4328 -0.4806
 5476TIP3   OH216366   7.574   0.902   2.003  0.7745 -0.1666  0.2478
 5476TIP3    H116367   7.654   0.953   2.013  0.4960  0.1969  0.6122
 5476TIP3    H216368   7.504   0.959   2.035  0.0385  0.4848 -2.3757
 5477TIP3   OH216369   2.637   6.123   2.191 -1.1241 -0.3783  0.5886
 5477TIP3    H116370   2.648   6.196   2.252  1.0533  1.0520 -1.4300
 5477TIP3    H216371   2.582   6.061   2.238 -1.4827  1.7275  3.0846
 5478TIP3   OH216372   5.083   6.586   0.917 -0.3000  0.7186  0.0052
 5478TIP3    H116373   5.050   6.619   1.000 -0.4103 -0.2509  0.3509
 5478TIP3    H216374   5.075   6.491   0.924 -0.4673  0.6399 -1.1799
 5479TIP3   OH216375   5.947   6.147   2.246 -1.3581 -0.3342  0.3994
 5479TIP3    H116376   5.881   6.205   2.208  0.3652  1.7186  0.4689
 5479TIP3    H216377   5.996   6.114   2.171  0.8146  2.2134  0.6405
 5480TIP3   OH216378   4.448   6.552   1.072 -0.2132  0.4021  0.2110
 5480TIP3    H116379   4.392   6.474   1.081 -0.4337  0.4498 -0.7524
 5480TIP3    H216380   4.522   6.522   1.020 -0.5541  0.9722 -0.6031
 5481TIP3   OH216381   6.048   0.261   2.083 -0.0755  0.5813 -0.3414
 5481TIP3    H116382   5.957   0.290   2.089 -0.0008  0.9598 -0.9807
 5481TIP3    H216383   6.095   0.315   2.146 -0.1966  0.7962 -0.4330
 5482TIP3   OH216384   2.879   6.098   1.462 -0.0612  0.3270 -0.2327
 5482TIP3    H116385   2.895   6.033   1.394  0.5374 -1.8366  1.9362
 5482TIP3    H216386   2.963   6.144   1.472  0.1716 -0.1079 -0.1824
 5483TIP3   OH216387   5.688   7.877   0.769 -0.9431  0.3129  0.4849
 5483TIP3    H116388   5.769   7.843   0.808 -0.7182  0.4788  0.1603
 5483TIP3    H216389   5.714   7.910   0.683 -1.8773 -2.2505 -0.8235
 5484TIP3   OH216390   4.612   5.904   1.201 -0.3900 -0.0831 -0.2118
 5484TIP3    H116391   4.568   5.989   1.209  0.9885  0.5583  0.7666
 5484TIP3    H216392   4.657   5.892   1.285  2.7708  0.1590 -1.7788
 5485TIP3   OH216393   5.717   6.712   2.030  0.0174  0.2780 -0.0079
 5485TIP3    H116394   5.676   6.625   2.025  1.0008 -0.2636  1.1641
 5485TIP3    H216395   5.679   6.752   2.108 -1.2732  1.3582 -1.1686
 5486TIP3   OH216396   8.219   0.310   1.727 -0.9050  0.2060 -0.4008
 5486TIP3    H116397   8.214   0.362   1.807 -0.5472  0.1091 -0.3151
 5486TIP3    H216398   8.233   0.375   1.658  2.7363 -0.0080  0.0679
 5487TIP3   OH216399   3.901   6.969   1.771  0.0213 -0.1194 -0.5419
 5487TIP3    H116400   3.875   7.039   1.832  1.2513 -0.9099  0.9205
 5487TIP3    H216401   3.851   6.893   1.800  0.1120 -0.3333 -0.9449
 5488TIP3   OH216402   1.196   1.051   5.846 -0.2736 -0.2605 -0.0363
 5488TIP3    H116403   1.134   1.123   5.830  1.3570  1.2394  0.2587
 5488TIP3    H216404   1.157   1.002   5.919 -1.0217  0.7828  0.2729
 5489TIP3   OH216405   3.881   4.074   1.331 -0.3447  0.3031 -0.4231
 5489TIP3    H116406   3.796   4.039   1.304 -0.8534  0.2977  1.1304
 5489TIP3    H216407   3.942   4.041   1.266 -1.4530 -0.0839 -1.2928
 5490TIP3   OH216408   5.368   6.684   0.463 -0.0348  0.0147  0.0170
 5490TIP3    H116409   5.323   6.712   0.543  1.0320  0.4570  0.4678
 5490TIP3    H216410   5.450   6.733   0.462  0.2259 -0.4135 -1.0557
 5491TIP3   OH216411   7.847   0.370   1.576 -0.3081  1.0478 -0.2063
 5491TIP3    H116412   7.919   0.321   1.537 -0.7057 -0.4260  0.8564
 5491TIP3    H216413   7.879   0.460   1.580  0.8485  0.7015 -1.2176
 5492TIP3   OH216414   6.678   1.170   1.954  0.3815  0.4283  0.2415
 5492TIP3    H116415   6.601   1.161   2.010 -1.0064  2.6440 -1.2253
 5492TIP3    H216416   6.665   1.106   1.884 -1.2480  2.2598 -1.1828
 5493TIP3   OH216417   4.746   6.466   3.763 -0.0106  0.2043  0.4040
 5493TIP3    H116418   4.823   6.519   3.784  0.1110 -0.5361  1.8681
 5493TIP3    H216419   4.674   6.508   3.810 -0.2498  0.0927  0.1436
 5494TIP3   OH216420   0.323   2.967   3.815  0.2691  0.3957  0.2221
 5494TIP3    H116421   0.388   2.897   3.824 -0.6391 -0.4820  0.0183
 5494TIP3    H216422   0.276   2.967   3.898 -1.7040 -1.2545 -0.8394
 5495TIP3   OH216423   7.635   0.680   2.248  0.1628 -0.2573 -0.2453
 5495TIP3    H116424   7.671   0.607   2.299  3.2808  0.6052 -1.0692
 5495TIP3    H216425   7.614   0.747   2.314 -1.9566 -1.5433  0.4358
 5496TIP3   OH216426   1.015   0.220   1.711 -0.1861 -0.7337 -0.0445
 5496TIP3    H116427   1.066   0.217   1.630 -1.0199  0.1554 -0.6190
 5496TIP3    H216428   0.929   0.253   1.684 -0.0891  0.7795  1.3770
 5497TIP3   OH216429   6.977   1.328   2.792 -0.0943  0.1391  0.1006
 5497TIP3    H116430   6.934   1.412   2.774 -0.2427  0.0438  0.0041
 5497TIP3    H216431   6.977   1.321   2.887 -0.3155  0.1286  0.1002
 5498TIP3   OH216432   5.024   5.501   2.326  0.0148  0.3812 -0.0982
 5498TIP3    H116433   5.033   5.450   2.407 -1.5062  0.8260  0.3549
 5498TIP3    H216434   4.997   5.437   2.260  1.2980  0.0100 -0.2837
 5499TIP3   OH216435   0.103   0.692   0.216 -0.4411 -0.5464 -0.1172
 5499TIP3    H116436   0.139   0.634   0.284  0.4657 -0.3402 -0.4159
 5499TIP3    H216437   0.165   0.685   0.144 -1.5257 -0.9357 -1.0187
 5500TIP3   OH216438   4.862   7.879   0.928  0.7726  0.7221 -0.1453
 5500TIP3    H116439   4.913   7.867   1.008  1.9296  0.0127 -0.9787
 5500TIP3    H216440   4.917   7.842   0.858 -0.1749  1.4193 -1.2824
 5501TIP3   OH216441   4.279   7.735   1.949 -0.4619  0.1529  0.3290
 5501TIP3    H116442   4.330   7.686   2.013 -0.7944 -0.1741  0.3443
 5501TIP3    H216443   4.192   7.694   1.952 -0.7148  0.6892  0.2861
 5502TIP3   OH216444   4.846   7.556   0.485  0.2618 -0.3415  0.4076
 5502TIP3    H116445   4.814   7.481   0.436  0.5907  0.7095 -1.4875
 5502TIP3    H216446   4.891   7.519   0.561  0.4500 -2.0459 -0.5253
 5503TIP3   OH216447   6.205   6.758   1.795  0.4816 -0.2854 -0.0179
 5503TIP3    H116448   6.139   6.728   1.733  0.1942  0.7259 -0.2002
 5503TIP3    H216449   6.155   6.786   1.872  0.6633  0.8307 -0.2992
 5504TIP3   OH216450   6.489   0.942   2.321 -0.3928  0.0674 -0.3723
 5504TIP3    H116451   6.534   0.893   2.253 -0.7228 -0.8639  0.0652
 5504TIP3    H216452   6.557   0.996   2.361 -0.2598  0.8658 -1.6404
 5505TIP3   OH216453   5.929   6.971   0.272 -0.0794 -0.1895  0.1780
 5505TIP3    H116454   5.906   6.884   0.304 -0.7432 -0.2144 -0.3479
 5505TIP3    H216455   6.001   6.956   0.210 -0.0878 -0.3471  0.2072
 5506TIP3   OH216456   4.135   5.841   1.789  0.1823  0.0637 -0.2836
 5506TIP3    H116457   4.086   5.758   1.783 -0.0794 -0.1562  3.4868
 5506TIP3    H216458   4.214   5.826   1.738 -0.8496 -1.7754 -1.4010
 5507TIP3   OH216459   6.673   0.242   3.546  0.2410 -0.0378  0.2220
 5507TIP3    H116460   6.658   0.332   3.577 -0.9985 -0.1325 -0.0815
 5507TIP3    H216461   6.744   0.251   3.481  0.2310  0.6977  0.3086
 5508TIP3   OH216462   1.121   0.128   3.429  0.6510  0.2724 -0.2900
 5508TIP3    H116463   1.189   0.103   3.366  0.0011  1.5505 -1.5354
 5508TIP3    H216464   1.049   0.068   3.411  1.5856 -1.3555  1.3116
 5509TIP3   OH216465   7.492   4.976   2.855  0.3074  0.1014 -0.6786
 5509TIP3    H116466   7.509   4.882   2.858 -1.7187 -0.1994  1.8006
 5509TIP3    H216467   7.511   5.007   2.943 -3.2988  1.2303 -0.2202
 5510TIP3   OH216468   5.588   1.043   0.407 -0.0124  0.5968  0.1500
 5510TIP3    H116469   5.511   1.100   0.409 -0.6882 -0.2457 -1.1305
 5510TIP3    H216470   5.603   1.019   0.498 -0.2534  2.0986  0.6001
 5511TIP3   OH216471   6.871   7.203   3.416 -0.2964 -0.4181  0.2318
 5511TIP3    H116472   6.959   7.229   3.443  0.6987 -2.3877 -1.0293
 5511TIP3    H216473   6.870   7.215   3.321 -1.3014 -0.7137  0.1924
 5512TIP3   OH216474   6.544   1.147   0.438 -0.2702 -0.8886 -0.1169
 5512TIP3    H116475   6.528   1.232   0.398  0.6040 -0.8874 -0.4678
 5512TIP3    H216476   6.537   1.164   0.532  0.2112 -0.3650 -0.1724
 5513TIP3   OH216477   5.816   7.259   0.574  0.2794 -0.5472  0.4510
 5513TIP3    H116478   5.736   7.309   0.593 -0.8330 -2.9360  2.3260
 5513TIP3    H216479   5.883   7.299   0.629  0.1090  0.7589 -0.2865
 5514TIP3   OH216480   7.270   1.571   1.361 -0.1280  0.1208 -0.4566
 5514TIP3    H116481   7.357   1.610   1.358  0.7969 -1.9094 -0.7092
 5514TIP3    H216482   7.278   1.497   1.421 -2.0936  0.8822  0.7945
 5515TIP3   OH216483   3.897   3.983   6.395 -0.5780 -0.3600 -0.0955
 5515TIP3    H116484   3.988   3.994   6.365 -1.3283 -0.2853 -2.4806
 5515TIP3    H216485   3.848   4.051   6.349 -2.1215 -1.4957 -0.1916
 5516TIP3   OH216486   7.547   1.477   3.094  0.0202  0.0473 -0.1048
 5516TIP3    H116487   7.632   1.435   3.084  0.9816  1.2797  2.3729
 5516TIP3    H216488   7.514   1.447   3.179 -0.3687  2.3212  0.5931
 5517TIP3   OH216489   2.150   4.576   6.164  0.1519 -0.0712  0.4509
 5517TIP3    H116490   2.068   4.539   6.132  0.1016  0.0895  0.3901
 5517TIP3    H216491   2.211   4.567   6.091  0.0073  0.3940  0.2686
 5518TIP3   OH216492   5.207   7.361   0.760  0.3178 -0.1697 -0.0808
 5518TIP3    H116493   5.272   7.400   0.701  0.8372 -1.1550 -0.1695
 5518TIP3    H216494   5.210   7.268   0.740 -1.4478 -0.1690 -0.3905
 5519TIP3   OH216495   4.671   7.118   1.815 -0.3519  0.2348 -0.2504
 5519TIP3    H116496   4.738   7.150   1.755 -1.5837 -0.0820 -1.8203
 5519TIP3    H216497   4.651   7.030   1.784  0.4748 -0.7655  1.9052
 5520TIP3   OH216498   4.122   5.206   1.797 -0.2443  0.0581 -0.1398
 5520TIP3    H116499   4.192   5.264   1.767  2.1950 -2.8713 -0.2737
 5520TIP3    H216500   4.096   5.158   1.718 -3.4359  2.0714 -0.4038
 5521TIP3   OH216501   4.710   7.815   3.098  0.3223 -0.3556 -0.0170
 5521TIP3    H116502   4.800   7.784   3.109 -0.3255 -1.9136  1.0409
 5521TIP3    H216503   4.667   7.747   3.046 -0.4124  0.0998 -0.0227
 5522TIP3   OH216504   3.340   3.663   6.759 -0.2017  0.2741  0.2018
 5522TIP3    H116505   3.267   3.601   6.767  0.5988 -0.8317 -0.8130
 5522TIP3    H216506   3.301   3.748   6.776 -1.6405 -0.3488  0.1450
 5523TIP3   OH216507   4.352   6.308   1.077 -0.0068  0.0309  0.1106
 5523TIP3    H116508   4.338   6.296   0.984 -0.9404  0.4941  0.1866
 5523TIP3    H216509   4.401   6.231   1.105 -1.4027 -1.0466 -0.3852
 5524TIP3   OH216510   4.287   5.465   1.765  0.3733  0.3422 -0.4976
 5524TIP3    H116511   4.328   5.435   1.847  0.7419  1.6328 -0.1947
 5524TIP3    H216512   4.337   5.543   1.740  0.6441 -0.3898 -2.2906
 5525TIP3   OH216513   1.824   1.168   5.630  0.1786  0.2711  0.3161
 5525TIP3    H116514   1.884   1.242   5.618  2.5738 -1.4819  1.0080
 5525TIP3    H216515   1.772   1.190   5.707  0.8536  1.2504  0.4887
 5526TIP3   OH216516   3.111   6.269   1.954 -0.0069  0.2619  0.2057
 5526TIP3    H116517   3.138   6.248   1.864 -0.6475  1.8443 -0.3702
 5526TIP3    H216518   3.140   6.194   2.005 -0.8203 -1.2898 -1.5277
 5527TIP3   OH216519   2.434   2.793   6.659 -0.7327  0.9896  0.1067
 5527TIP3    H116520   2.369   2.843   6.710 -1.1100  1.8244 -1.1710
 5527TIP3    H216521   2.469   2.857   6.597  2.1063  0.8347  1.4805
 5528TIP3   OH216522   6.200   6.047   2.491 -0.0731  0.4636 -0.0102
 5528TIP3    H116523   6.233   6.134   2.467  0.6662  0.1614 -0.1115
 5528TIP3    H216524   6.105   6.056   2.491 -0.0244  0.9925 -1.0910
 5529TIP3   OH216525   5.539   5.984   1.851 -0.2466  0.1369  0.3149
 5529TIP3    H116526   5.481   5.945   1.917  0.4024  0.5743  1.1517
 5529TIP3    H216527   5.507   5.950   1.768 -0.3261 -1.3734  0.9542
 5530TIP3   OH216528   6.839   6.745   3.552  0.1075  0.4604 -0.8791
 5530TIP3    H116529   6.821   6.675   3.490  0.8770 -0.9621  0.4722
 5530TIP3    H216530   6.872   6.817   3.498 -1.9703  0.2988 -2.4378
 5531TIP3   OH216531   5.425   6.299   0.253 -0.1932  0.0087  0.0421
 5531TIP3    H116532   5.400   6.319   0.163  0.5221  0.1411 -0.1291
 5531TIP3    H216533   5.437   6.204   0.253  0.9901  0.1546 -0.3037
 5532TIP3   OH216534   1.796   6.193   2.900  0.8256  0.1477  0.2077
 5532TIP3    H116535   1.759   6.110   2.930  1.0515 -0.4036 -1.0074
 5532TIP3    H216536   1.752   6.210   2.816  1.1982  0.9678  0.1707
 5533TIP3   OH216537   5.865   5.538   0.443  0.1672  0.2358  0.7649
 5533TIP3    H116538   5.861   5.625   0.401 -0.8446  0.5983  1.6042
 5533TIP3    H216539   5.804   5.544   0.516  0.6364 -0.9652  1.2604
 5534TIP3   OH216540   1.303   2.151   5.820  0.3135 -0.4273  0.0189
 5534TIP3    H116541   1.314   2.181   5.730 -2.1641 -1.6054 -0.6987
 5534TIP3    H216542   1.355   2.213   5.872  1.6899  0.3147 -2.1880
 5535TIP3   OH216543   0.114   0.643   2.159 -0.2691 -0.0433  0.0505
 5535TIP3    H116544   0.095   0.604   2.244  2.5417  0.6326  1.0498
 5535TIP3    H216545   0.083   0.579   2.095 -0.3643 -1.5733  1.5999
 5536TIP3   OH216546   5.503   5.680   0.478  0.0681  0.6840  0.2513
 5536TIP3    H116547   5.572   5.639   0.529  0.1108  0.2147 -0.1829
 5536TIP3    H216548   5.487   5.764   0.522 -0.0108  0.2096  1.1328
 5537TIP3   OH216549   4.129   4.830   1.364  0.3199 -0.4787 -0.2734
 5537TIP3    H116550   4.181   4.752   1.346 -0.9493 -1.3261 -0.2400
 5537TIP3    H216551   4.130   4.878   1.281  1.5280 -0.2525 -0.1465
 5538TIP3   OH216552   4.908   6.977   1.459 -0.9599  0.1733 -0.6026
 5538TIP3    H116553   4.900   6.889   1.495 -1.8404 -0.2155 -1.7227
 5538TIP3    H216554   4.819   7.001   1.434 -0.5395  0.9175 -1.4018
 5539TIP3   OH216555   8.377   1.732   1.621  0.2456  0.2448  0.8321
 5539TIP3    H116556   8.400   1.639   1.621  1.7034  0.6012  0.2213
 5539TIP3    H216557   8.399   1.763   1.534 -1.3559  0.9124  0.6390
 5540TIP3   OH216558   4.858   7.176   1.634 -0.2110 -0.0487  0.3159
 5540TIP3    H116559   4.914   7.115   1.586 -0.5159 -1.1666  1.3450
 5540TIP3    H216560   4.860   7.256   1.582  2.0793 -0.1672  0.1745
 5541TIP3   OH216561   4.600   7.051   1.499  0.5243  0.6707 -0.4275
 5541TIP3    H116562   4.628   7.090   1.582 -0.8097 -0.0722  0.3844
 5541TIP3    H216563   4.516   7.093   1.480  0.4304  0.2332 -1.0003
 5542TIP3   OH216564   0.622   1.069   0.569  0.2199  0.2833  0.2574
 5542TIP3    H116565   0.558   1.079   0.639  0.2102 -2.0353  0.6243
 5542TIP3    H216566   0.706   1.088   0.611  0.0455  0.5716  0.4760
 5543TIP3   OH216567   8.359   7.428   3.298  0.0288  0.1075 -0.5635
 5543TIP3    H116568   8.340   7.385   3.216 -0.3317 -0.6279 -0.0969
 5543TIP3    H216569   8.450   7.457   3.289  0.4507 -1.2120 -0.6814
 5544TIP3   OH216570   0.616   0.450   2.071  0.3331  0.3995 -0.0354
 5544TIP3    H116571   0.668   0.501   2.133  1.7775 -0.4181 -0.5579
 5544TIP3    H216572   0.579   0.515   2.011 -0.3932  1.1151  1.1650
 5545TIP3   OH216573   4.858   2.038   5.298 -0.3772  0.3572  0.0516
 5545TIP3    H116574   4.868   2.129   5.270  0.2004 -0.3123 -2.0206
 5545TIP3    H216575   4.844   2.043   5.392  0.4448  2.5349  0.0795
 5546TIP3   OH216576   3.462   5.387   1.541 -0.9950 -0.2149  0.3726
 5546TIP3    H116577   3.545   5.382   1.493 -0.9098  0.7030  0.4103
 5546TIP3    H216578   3.489   5.406   1.631 -1.1191 -2.4739  0.9202
 5547TIP3   OH216579   0.589   0.720   0.075  0.6513  0.3494  0.0443
 5547TIP3    H116580   0.603   0.713  -0.019 -0.4392  0.1665 -0.1165
 5547TIP3    H216581   0.677   0.723   0.113  1.1515 -2.0573 -0.7980
 5548TIP3   OH216582   1.290   1.245   1.040  0.0170  0.2275 -0.0941
 5548TIP3    H116583   1.262   1.310   0.976 -3.7449  0.4351  1.5771
 5548TIP3    H216584   1.258   1.162   1.006  2.1162 -0.3404 -0.7268
 5549TIP3   OH216585   6.122   5.214   0.317 -0.5297  0.3873  0.1030
 5549TIP3    H116586   6.114   5.188   0.408  1.0184  0.2270  0.2202
 5549TIP3    H216587   6.140   5.308   0.320 -2.0582  0.6904 -0.1182
 5550TIP3   OH216588   5.801   5.680   0.203 -0.5063  0.1433  0.4221
 5550TIP3    H116589   5.850   5.757   0.174 -1.0354  0.9056  1.4988
 5550TIP3    H216590   5.851   5.605   0.170 -0.0209  0.9517 -0.6847
 5551TIP3   OH216591   6.870   7.750   2.169 -0.3785 -0.0938  0.3150
 5551TIP3    H116592   6.829   7.690   2.107 -0.9971  0.7565 -0.1172
 5551TIP3    H216593   6.964   7.734   2.159 -0.5325 -0.9613  0.1819
 5552TIP3   OH216594   0.620   0.133   1.121 -0.2262 -0.1897  0.2299
 5552TIP3    H116595   0.533   0.173   1.126  0.0276  0.3580  0.3295
 5552TIP3    H216596   0.660   0.173   1.044 -0.1755 -0.6742  0.0030
 5553TIP3   OH216597   6.467   7.618   2.006  0.2596 -0.0608  0.1814
 5553TIP3    H116598   6.460   7.714   2.004  1.4240  0.0021 -1.3501
 5553TIP3    H216599   6.389   7.588   1.959 -0.4115  0.1084  1.1705
 5554TIP3   OH216600   7.879   0.595   3.287  0.5938 -0.1958 -0.1938
 5554TIP3    H116601   7.942   0.633   3.350 -2.6405  0.8409  2.5821
 5554TIP3    H216602   7.858   0.668   3.228  1.3998 -0.3200 -0.6362
 5555TIP3   OH216603   6.221   7.504   2.840  0.4141 -0.2456  0.0072
 5555TIP3    H116604   6.309   7.489   2.806 -0.1769 -0.4146 -1.5316
 5555TIP3    H216605   6.183   7.417   2.848  0.7380 -0.2388  1.6716
 5556TIP3   OH216606   3.792   3.895   6.664 -0.0507  0.4056 -0.3673
 5556TIP3    H116607   3.869   3.848   6.695  0.7574 -0.1998 -3.1799
 5556TIP3    H216608   3.817   3.930   6.579 -2.3795  1.5270 -0.6403
 5557TIP3   OH216609   0.313   0.294   1.801  0.1768  0.0297  0.3177
 5557TIP3    H116610   0.351   0.271   1.717  2.0382 -1.6845  1.5805
 5557TIP3    H216611   0.315   0.212   1.851 -0.4858  1.1252  2.1712
 5558TIP3   OH216612   2.317   0.932   2.468  0.4680 -0.1525 -0.0018
 5558TIP3    H116613   2.319   1.025   2.448 -1.9213 -0.1590 -0.4280
 5558TIP3    H216614   2.291   0.927   2.560  1.2353 -0.4040  0.2109
 5559TIP3   OH216615   5.924   7.116   2.385 -0.3598 -0.2363 -0.3266
 5559TIP3    H116616   5.978   7.046   2.421 -1.1405 -0.3796  0.5893
 5559TIP3    H216617   5.984   7.166   2.328  1.2736  0.7710  2.1572
 5560TIP3   OH216618   6.947   7.819   3.235  0.0976 -0.7776 -0.2049
 5560TIP3    H116619   6.969   7.774   3.154  0.0763 -3.9893  1.5084
 5560TIP3    H216620   6.885   7.762   3.279  1.0797  0.2633  2.6678
 5561TIP3   OH216621   1.080   7.848   1.847  0.3902 -0.5666 -0.3348
 5561TIP3    H116622   1.164   7.831   1.803  0.3049  1.1648 -1.1936
 5561TIP3    H216623   1.027   7.890   1.779 -0.8444 -0.7769  0.5030
 5562TIP3   OH216624   1.000   1.035   2.871 -0.0647  0.3786  0.0041
 5562TIP3    H116625   0.930   0.976   2.844  0.1784 -0.0097  0.2145
 5562TIP3    H216626   1.042   1.062   2.789 -1.0573  1.3665 -0.1954
 5563TIP3   OH216627   6.207   6.752   3.818 -0.7281 -0.2216  0.1794
 5563TIP3    H116628   6.164   6.700   3.750 -0.7036  0.6248 -0.4899
 5563TIP3    H216629   6.281   6.698   3.846 -0.3298 -0.2760 -0.9547
 5564TIP3   OH216630   2.931   0.480   0.945  0.8742 -0.3075 -0.1675
 5564TIP3    H116631   2.964   0.395   0.918  1.7680 -0.0363  0.0701
 5564TIP3    H216632   2.864   0.501   0.879  2.0748 -0.2803 -1.4020
 5565TIP3   OH216633   4.069   5.353   6.463  0.0385 -0.0288 -0.0219
 5565TIP3    H116634   4.082   5.440   6.427 -0.4900  0.2125  0.3652
 5565TIP3    H216635   3.996   5.363   6.524 -0.2597 -0.8115 -0.2407
 5566TIP3   OH216636   6.395   7.119   0.564  0.4369 -0.1073 -0.6820
 5566TIP3    H116637   6.438   7.180   0.505  0.5966 -0.5354 -1.0033
 5566TIP3    H216638   6.358   7.052   0.507 -1.8637  0.9858 -0.5525
 5567TIP3   OH216639   1.313   1.488   0.904 -0.5336  0.0102  0.2405
 5567TIP3    H116640   1.340   1.575   0.933  2.0500 -0.8550  0.6067
 5567TIP3    H216641   1.386   1.458   0.851 -1.3424 -1.9845  0.2331
 5568TIP3   OH216642   3.404   4.746   6.675 -0.0247  0.4064 -0.0759
 5568TIP3    H116643   3.389   4.658   6.640  1.1517 -0.0193  0.4683
 5568TIP3    H216644   3.497   4.761   6.662  0.0690  0.9727  1.2235
 5569TIP3   OH216645   1.249   0.850   0.767  0.1055 -0.0174 -0.2718
 5569TIP3    H116646   1.303   0.783   0.808  1.3101  0.0934 -1.6417
 5569TIP3    H216647   1.275   0.849   0.675 -0.2159  1.9612 -0.4092
 5570TIP3   OH216648   6.249   6.378   0.780  0.1237 -0.2788 -0.1705
 5570TIP3    H116649   6.253   6.295   0.829  0.3382 -0.8279 -1.1090
 5570TIP3    H216650   6.172   6.370   0.724 -0.1713  0.3872  0.1279
 5571TIP3   OH216651   6.475   6.675   1.928 -0.1412 -0.2723  0.2187
 5571TIP3    H116652   6.476   6.706   2.018  0.1609 -0.9996  0.4677
 5571TIP3    H216653   6.398   6.717   1.889  1.6398  2.8055 -0.1735
 5572TIP3   OH216654   3.879   4.429   1.456  0.5579  0.5755 -0.1493
 5572TIP3    H116655   3.871   4.524   1.463  0.7097  0.5416  0.5159
 5572TIP3    H216656   3.900   4.413   1.364 -2.3178  0.9797 -0.9348
 5573TIP3   OH216657   7.971   6.559   2.923 -0.2628 -0.1611  0.5273
 5573TIP3    H116658   8.057   6.589   2.954 -0.1706 -0.5938  0.6901
 5573TIP3    H216659   7.917   6.638   2.922 -0.6507 -0.3481  3.1152
 5574TIP3   OH216660   4.954   5.943  -0.011  0.0017  0.2194 -0.3768
 5574TIP3    H116661   4.950   6.017   0.051 -0.5915 -0.4077  0.3498
 5574TIP3    H216662   5.046   5.934  -0.032  0.2531  0.2257  0.6900
 5575TIP3   OH216663   8.418   7.781   5.634 -0.5367 -0.9159  0.0089
 5575TIP3    H116664   8.481   7.849   5.659 -1.3392  0.1400 -0.7642
 5575TIP3    H216665   8.409   7.791   5.539 -1.9229 -1.0004  0.1245
 5576TIP3   OH216666   6.353   4.649   0.329  0.6565  0.2189  0.1274
 5576TIP3    H116667   6.446   4.664   0.312  0.3347  1.1388 -0.8584
 5576TIP3    H216668   6.325   4.725   0.379 -0.0152  0.9094 -1.2710
 5577TIP3   OH216669   8.391   0.933   6.347  0.8123 -0.2060  0.1264
 5577TIP3    H116670   8.459   0.983   6.301  1.9129  0.4621  2.3797
 5577TIP3    H216671   8.435   0.853   6.375  0.2353 -0.4716  0.2670
 5578TIP3   OH216672   2.368   1.837   6.366  0.6554 -0.7341 -0.3765
 5578TIP3    H116673   2.382   1.912   6.308  1.3455 -0.0661  0.6375
 5578TIP3    H216674   2.274   1.820   6.360  0.7732 -0.9159 -1.9727
 5579TIP3   OH216675   8.097   6.944   6.840  0.0510  0.0697 -0.0112
 5579TIP3    H116676   8.130   6.914   6.925  0.6682 -1.1061 -0.6467
 5579TIP3    H216677   8.101   6.867   6.785 -0.7081  0.7396 -1.0150
 5580TIP3   OH216678   8.230   0.720   4.493 -0.5087  0.4952  0.6008
 5580TIP3    H116679   8.159   0.737   4.431  0.4155  0.9024 -0.3534
 5580TIP3    H216680   8.186   0.715   4.578 -2.1279 -2.2584 -0.2962
 5581TIP3   OH216681   0.070   7.714   5.924  0.1524  0.5645 -0.3185
 5581TIP3    H116682   0.054   7.633   5.877 -0.2434  0.4451  0.0232
 5581TIP3    H216683   0.165   7.726   5.920  0.3173 -0.4461  0.5247
 5582TIP3   OH216684   1.920   6.483   4.473  0.1037  0.6525  0.3782
 5582TIP3    H116685   1.872   6.500   4.554 -1.2648 -0.1088 -0.2551
 5582TIP3    H216686   1.888   6.398   4.444  0.8111  0.7838 -0.8055
 5583TIP3   OH216687   1.558   0.701   4.868 -0.0199 -0.2586  0.1210
 5583TIP3    H116688   1.553   0.650   4.950  0.0195  0.1702  0.3924
 5583TIP3    H216689   1.468   0.729   4.853 -0.1067 -0.7176 -0.2291
 5584TIP3   OH216690   7.986   7.516   4.764 -0.6279 -0.5876 -0.1101
 5584TIP3    H116691   8.034   7.442   4.727 -1.6722 -2.1884  1.6277
 5584TIP3    H216692   7.898   7.482   4.779 -1.2045  1.0914  0.4707
 5585TIP3   OH216693   2.080  -0.007   5.274 -0.7497  0.2904 -0.1841
 5585TIP3    H116694   2.035   0.000   5.357 -1.8863  2.8939 -0.9838
 5585TIP3    H216695   2.014   0.013   5.208  0.8210  1.1998 -1.5417
 5586TIP3   OH216696   7.650   7.825   6.260  0.2229  0.3438  0.1187
 5586TIP3    H116697   7.744   7.812   6.256  0.2770  1.0458 -1.1719
 5586TIP3    H216698   7.616   7.785   6.179 -0.5082  0.6991  0.2433
 5587TIP3   OH216699   2.371   1.250   4.540  0.3284  0.1450 -0.0574
 5587TIP3    H116700   2.410   1.329   4.501  1.6168 -0.1543  0.6079
 5587TIP3    H216701   2.417   1.177   4.497 -1.3385 -0.2765 -1.1762
 5588TIP3   OH216702   2.697   0.372   5.818 -0.2942 -0.0307 -0.4740
 5588TIP3    H116703   2.642   0.422   5.880 -2.3869  0.5178 -2.6986
 5588TIP3    H216704   2.660   0.283   5.820  1.6151 -0.8194  1.3414
 5589TIP3   OH216705   1.796   2.420   6.396 -0.0063 -0.0413  0.2223
 5589TIP3    H116706   1.710   2.397   6.360 -1.1271  1.9559  1.5097
 5589TIP3    H216707   1.794   2.385   6.485  0.6230 -0.2434  0.1562
 5590TIP3   OH216708   1.497   0.555   5.411 -0.3609  0.1999 -0.1997
 5590TIP3    H116709   1.424   0.615   5.393 -1.4296 -1.4370 -1.4117
 5590TIP3    H216710   1.480   0.523   5.499 -0.2827  0.9563  0.0979
 5591TIP3   OH216711   1.143   1.992   6.008 -0.0303 -0.5417  0.7785
 5591TIP3    H116712   1.183   2.039   5.935  0.4050 -0.6790  0.9218
 5591TIP3    H216713   1.062   2.039   6.027 -0.7568 -1.2092 -0.5738
 5592TIP3   OH216714   4.146   6.160   0.771  0.1740 -0.0090  0.1118
 5592TIP3    H116715   4.189   6.111   0.841  0.2218 -0.2261 -0.0674
 5592TIP3    H216716   4.211   6.224   0.742  0.0734  0.2317  0.4199
 5593TIP3   OH216717   4.951   4.630   0.519  0.4731  0.1367  0.2143
 5593TIP3    H116718   4.887   4.559   0.507 -1.0110  1.0399  2.4672
 5593TIP3    H216719   4.928   4.693   0.451  0.8356 -0.8481 -0.8386
 5594TIP3   OH216720   1.984   0.335   6.116 -0.3298 -0.2412  0.0151
 5594TIP3    H116721   1.994   0.303   6.026 -1.7548  0.5398 -0.4476
 5594TIP3    H216722   2.018   0.425   6.112  1.3424 -0.8172  0.7188
 5595TIP3   OH216723   1.749   1.204   6.167  0.2056  0.2338 -0.2972
 5595TIP3    H116724   1.745   1.277   6.228  1.0271  0.7870 -0.8859
 5595TIP3    H216725   1.661   1.167   6.166 -0.1919  1.1765  0.0525
 5596TIP3   OH216726   0.228   0.943   5.755 -0.2961  0.2284  0.0783
 5596TIP3    H116727   0.235   0.863   5.703  0.0270  1.6518 -2.1744
 5596TIP3    H216728   0.152   0.929   5.812 -1.2606 -1.0421 -1.4766
 5597TIP3   OH216729   5.835   5.542   6.000  0.0330 -0.2095 -0.3958
 5597TIP3    H116730   5.899   5.473   6.017  2.3599  2.6646  3.4047
 5597TIP3    H216731   5.866   5.583   5.919  0.8914 -1.1449 -0.5555
 5598TIP3   OH216732   7.852   6.980   4.983  0.0298  0.1343  0.2254
 5598TIP3    H116733   7.827   6.964   4.892  1.5937 -1.0243 -0.0328
 5598TIP3    H216734   7.856   6.893   5.022  0.4522  0.5454  1.1055
 5599TIP3   OH216735   5.354   2.880   0.561 -0.1095  0.2520 -0.3323
 5599TIP3    H116736   5.428   2.875   0.501  0.1576 -0.2040  0.0288
 5599TIP3    H216737   5.390   2.856   0.646 -1.0295 -1.7217 -0.4703
 5600TIP3   OH216738   6.879   7.606   4.460 -0.0916 -0.3660 -0.5522
 5600TIP3    H116739   6.927   7.679   4.501 -2.3285  0.2483  1.1073
 5600TIP3    H216740   6.916   7.598   4.373  1.7584  1.2812  0.0598
 5601TIP3   OH216741   0.467   1.653   6.513 -0.0167  0.0666 -0.4686
 5601TIP3    H116742   0.430   1.614   6.434 -2.0902  0.7633  0.1511
 5601TIP3    H216743   0.430   1.602   6.585  2.8375 -1.3913  0.0537
 5602TIP3   OH216744   3.602   2.250   0.407 -0.1267 -0.1426 -0.1529
 5602TIP3    H116745   3.544   2.182   0.371  0.6849 -1.5707  1.1707
 5602TIP3    H216746   3.596   2.239   0.502  0.8321  0.9544  0.0471
 5603TIP3   OH216747   1.594   6.143   1.154  0.0947  0.1231 -0.3964
 5603TIP3    H116748   1.508   6.105   1.174  0.2381 -0.3314 -0.6208
 5603TIP3    H216749   1.589   6.232   1.186 -1.2094  0.7917 -2.3156
 5604TIP3   OH216750   8.262   7.658   5.870  0.4778 -0.5410  0.0321
 5604TIP3    H116751   8.352   7.664   5.838  0.3841 -0.2966 -0.1914
 5604TIP3    H216752   8.208   7.674   5.792  0.2540  1.9591  0.6406
 5605TIP3   OH216753   1.991   1.771   4.967 -0.1175 -0.4941 -0.8377
 5605TIP3    H116754   1.918   1.765   5.028  2.2549  2.6569  2.5049
 5605TIP3    H216755   1.968   1.842   4.908  0.5276  1.0721  0.7469
 5606TIP3   OH216756   0.183   7.790   4.256 -0.3263  0.7123  0.1348
 5606TIP3    H116757   0.257   7.789   4.195 -0.1700 -0.3109  0.3320
 5606TIP3    H216758   0.131   7.714   4.231 -1.0238  1.1177  0.3515
 5607TIP3   OH216759   0.617   0.142   5.691  0.3817 -0.4305  0.2207
 5607TIP3    H116760   0.587   0.057   5.658  3.3008 -1.0576 -0.9460
 5607TIP3    H216761   0.680   0.173   5.626 -1.7506  3.3888 -0.1528
 5608TIP3   OH216762   4.919   6.258   6.095 -0.0563  0.2064  0.0568
 5608TIP3    H116763   4.957   6.178   6.132 -1.5520 -0.5391  0.0239
 5608TIP3    H216764   4.848   6.280   6.154  1.1825  2.2952  0.8145
 5609TIP3   OH216765   2.284   2.729   5.844  0.7681  0.3075  0.1911
 5609TIP3    H116766   2.311   2.753   5.755  0.5438  0.5730  0.1921
 5609TIP3    H216767   2.240   2.645   5.835  1.5133 -0.0860  0.1746
 5610TIP3   OH216768   0.127   7.346   5.871 -0.0560  0.3619  0.4765
 5610TIP3    H116769   0.188   7.385   5.933  0.0128 -1.2144  1.4194
 5610TIP3    H216770   0.120   7.410   5.800  2.0256  0.9350  0.7728
 5611TIP3   OH216771   3.732   3.937   0.913  0.7095  0.5128  0.1523
 5611TIP3    H116772   3.682   3.968   0.837  1.3987  1.2480 -0.0051
 5611TIP3    H216773   3.754   3.847   0.891 -4.1580 -1.2689  2.0441
 5612TIP3   OH216774   0.846   0.409   4.981 -0.2474 -0.2197 -0.9404
 5612TIP3    H116775   0.858   0.391   4.888  0.4986 -0.8965 -0.7177
 5612TIP3    H216776   0.759   0.373   5.001  0.8156 -2.7716 -0.7277
 5613TIP3   OH216777   2.107   1.226   6.612  0.3242 -0.4760 -0.0022
 5613TIP3    H116778   2.040   1.174   6.569 -0.4662  0.2449  0.3478
 5613TIP3    H216779   2.188   1.175   6.601  0.0413 -0.5265 -1.8937
 5614TIP3   OH216780   6.952   6.736   4.718  0.7211  0.3242 -0.1846
 5614TIP3    H116781   6.877   6.740   4.659 -0.0961  0.5961  0.8746
 5614TIP3    H216782   6.925   6.784   4.796  1.2400 -1.3152  1.0392
 5615TIP3   OH216783   6.088   7.158   4.163  0.2167  0.5494  0.3150
 5615TIP3    H116784   6.159   7.100   4.191  0.2333  1.2329  1.7422
 5615TIP3    H216785   6.026   7.100   4.120  0.1329 -0.5807  1.9070
 5616TIP3   OH216786   7.480   7.906   6.457  0.0934 -0.0218 -0.5119
 5616TIP3    H116787   7.541   7.899   6.383  0.6658 -1.0760  0.0601
 5616TIP3    H216788   7.460   7.816   6.480 -0.5912  0.3170  0.2168
 5617TIP3   OH216789   1.495   6.198   4.366  0.1907  0.6821 -0.1638
 5617TIP3    H116790   1.474   6.291   4.364 -0.3839  0.5901  0.8850
 5617TIP3    H216791   1.569   6.192   4.427  0.0121  0.4230  0.0309
 5618TIP3   OH216792   2.102   0.200   5.898 -0.4793  0.0786 -0.2174
 5618TIP3    H116793   2.158   0.207   5.821  0.3275  2.0360  0.5406
 5618TIP3    H216794   2.159   0.166   5.967 -0.1657  2.1908  0.5882
 5619TIP3   OH216795   2.368   0.636   6.790 -0.3140 -0.3292  0.0250
 5619TIP3    H116796   2.431   0.623   6.861 -1.2310  2.4405  1.4102
 5619TIP3    H216797   2.283   0.639   6.834 -0.9543  0.8121 -1.2756
 5620TIP3   OH216798   7.594   7.613   2.962 -0.4160  0.0616 -0.5901
 5620TIP3    H116799   7.578   7.542   3.023  0.2429  0.4642  0.0554
 5620TIP3    H216800   7.535   7.683   2.990 -0.8373 -0.1076 -1.0345
 5621TIP3   OH216801   2.057   1.450   6.198 -0.3318  0.2356 -0.0367
 5621TIP3    H116802   2.034   1.373   6.145  1.1850 -0.3295  0.1100
 5621TIP3    H216803   2.094   1.413   6.278  0.1753  1.1341  0.1465
 5622TIP3   OH216804   7.716   6.584   4.262 -0.0382 -0.7719 -0.3104
 5622TIP3    H116805   7.660   6.660   4.247 -0.1728 -0.6731  0.7228
 5622TIP3    H216806   7.673   6.514   4.212 -0.7061 -0.5325 -0.0841
 5623TIP3   OH216807   2.581   1.282   4.157 -0.2273  0.2744 -0.4957
 5623TIP3    H116808   2.667   1.261   4.119 -0.9046 -0.3951 -1.6802
 5623TIP3    H216809   2.535   1.198   4.160 -1.8770  1.0674 -2.5087
 5624TIP3   OH216810   3.060   0.307   2.067  0.3616  0.0859 -0.1859
 5624TIP3    H116811   3.123   0.280   2.134 -0.4286 -1.9559 -0.2470
 5624TIP3    H216812   3.013   0.227   2.043 -2.7883  1.6741  0.3846
 5625TIP3   OH216813   0.808   0.149   4.126 -0.3207  0.3571  0.5824
 5625TIP3    H116814   0.894   0.164   4.089 -1.2777  2.6279 -0.8556
 5625TIP3    H216815   0.809   0.057   4.154  1.5328 -0.4973 -2.1214
 5626TIP3   OH216816   6.274   2.648   0.349  0.6076  0.3917  0.2052
 5626TIP3    H116817   6.297   2.622   0.260 -1.3839  1.0724 -0.5309
 5626TIP3    H216818   6.274   2.744   0.347  0.2243  0.4065  0.8440
 5627TIP3   OH216819   5.739   3.411   0.901  0.1388 -0.1647  0.1710
 5627TIP3    H116820   5.647   3.428   0.920 -0.6132 -1.4983 -2.0560
 5627TIP3    H216821   5.787   3.461   0.967 -2.1672  0.5603  1.3555
 5628TIP3   OH216822   6.771   7.984   5.347  0.2289  0.1429 -0.3000
 5628TIP3    H116823   6.679   7.982   5.321  0.3445 -2.0065 -0.6125
 5628TIP3    H216824   6.819   7.972   5.265  0.6942 -2.4582  0.3264
 5629TIP3   OH216825   2.134   7.166   6.720 -0.2961 -0.2372  0.4874
 5629TIP3    H116826   2.126   7.258   6.696  0.8712 -0.8212 -2.3801
 5629TIP3    H216827   2.171   7.167   6.808  0.6264  2.0147  0.1103
 5630TIP3   OH216828   0.430   7.303   4.316  0.8278  0.6133  0.0264
 5630TIP3    H116829   0.499   7.286   4.380  0.5083  1.8339  0.7238
 5630TIP3    H216830   0.349   7.296   4.367  0.5420  1.0537 -0.3673
 5631TIP3   OH216831   0.224   0.391   5.064 -0.4755  0.1802 -0.2521
 5631TIP3    H116832   0.167   0.382   4.988 -0.5271  1.4626 -0.3699
 5631TIP3    H216833   0.165   0.402   5.138 -0.3951  1.3735 -0.3567
 5632TIP3   OH216834   8.097   7.792   6.070 -0.4269 -0.2533 -0.1806
 5632TIP3    H116835   8.131   7.784   6.159  0.2022 -1.0854 -0.4835
 5632TIP3    H216836   8.174   7.781   6.014 -0.7772  0.5204 -0.8194
 5633TIP3   OH216837   0.135   7.989   5.636  0.0314  0.1006  0.5525
 5633TIP3    H116838   0.206   7.992   5.571  0.8774  0.4427  1.4717
 5633TIP3    H216839   0.170   8.038   5.711 -1.6435  1.2952  0.5705
 5634TIP3   OH216840   0.161   1.930   6.154  0.7568  0.2374  0.4219
 5634TIP3    H116841   0.116   2.014   6.158 -0.7219 -0.5491  0.4503
 5634TIP3    H216842   0.205   1.922   6.239 -1.4670 -0.3079  1.5416
 5635TIP3   OH216843   6.013   6.313   5.576  0.5902  0.0650  0.4677
 5635TIP3    H116844   5.956   6.246   5.539  0.9785  0.5119 -0.9831
 5635TIP3    H216845   6.100   6.290   5.544  0.9251  0.5128  1.0483
 5636TIP3   OH216846   4.776   5.955   0.545  0.3827  0.0879  0.2044
 5636TIP3    H116847   4.836   5.938   0.473 -1.5662  1.1918 -1.7556
 5636TIP3    H216848   4.731   5.872   0.561 -0.1569  0.1790 -0.8124
 5637TIP3   OH216849   0.282   0.054   5.466 -0.0780 -0.2670 -0.1979
 5637TIP3    H116850   0.353   0.046   5.530 -1.3624  1.5931  1.5129
 5637TIP3    H216851   0.236  -0.030   5.470  0.2613 -0.4044  0.8334
 5638TIP3   OH216852   6.475   7.957   4.575  0.6515  0.2174 -0.1057
 5638TIP3    H116853   6.432   7.918   4.651  2.3003 -2.0383 -0.2921
 5638TIP3    H216854   6.450   7.901   4.502  2.6841 -0.2595 -0.4594
 5639TIP3   OH216855   1.293   1.588   6.054  0.0552 -0.2697 -0.4856
 5639TIP3    H116856   1.212   1.581   6.105  0.7847 -0.8693  0.5897
 5639TIP3    H216857   1.271   1.549   5.970 -0.3633 -1.7277  0.2841
 5640TIP3   OH216858   0.257   6.979   3.926  0.1777 -0.3635 -0.6868
 5640TIP3    H116859   0.214   6.896   3.946 -1.2160  1.1150  2.8132
 5640TIP3    H216860   0.312   6.997   4.002  0.5257  1.8839 -1.4156
 5641TIP3   OH216861   2.708   0.177   4.235  0.2786 -0.1290 -0.4480
 5641TIP3    H116862   2.754   0.226   4.303  1.1001  1.1804 -1.9421
 5641TIP3    H216863   2.674   0.243   4.176 -0.9614 -1.2386 -1.0101
 5642TIP3   OH216864   1.592   7.988   4.345  0.7881  0.3756  0.2307
 5642TIP3    H116865   1.623   7.916   4.401 -0.4063 -1.6763 -1.6984
 5642TIP3    H216866   1.565   8.056   4.407  1.5147 -0.9889  2.1075
 5643TIP3   OH216867   4.013   0.560   5.351 -0.6355 -0.0407 -0.3922
 5643TIP3    H116868   4.016   0.557   5.447 -1.8487  0.2732 -0.3442
 5643TIP3    H216869   4.036   0.650   5.329  0.8972 -0.4272 -0.4631
 5644TIP3   OH216870   0.767   7.006   5.408 -0.3573  0.1415 -0.2002
 5644TIP3    H116871   0.808   7.025   5.324  1.0995 -1.9644 -0.0146
 5644TIP3    H216872   0.729   6.918   5.397 -0.8174  0.1639  1.0949
 5645TIP3   OH216873   7.427   7.308   6.742  0.2406  0.1286 -0.0475
 5645TIP3    H116874   7.384   7.318   6.827  0.6509  0.8071  0.0855
 5645TIP3    H216875   7.481   7.229   6.750  0.4411  0.3105  0.3911
 5646TIP3   OH216876   1.117   0.369   3.736 -0.4378 -0.1020 -0.2978
 5646TIP3    H116877   1.141   0.393   3.646 -1.2486  0.1221 -0.4579
 5646TIP3    H216878   1.153   0.440   3.789 -1.4486  0.6777 -0.6214
 5647TIP3   OH216879   3.585   2.078   4.940  0.1449 -0.1021  0.4088
 5647TIP3    H116880   3.662   2.026   4.917  0.5953 -0.5613  2.8181
 5647TIP3    H216881   3.523   2.014   4.976 -0.8311  0.4625 -0.2579
 5648TIP3   OH216882   6.261   3.563   1.049  0.2113 -0.0358  0.2534
 5648TIP3    H116883   6.323   3.592   0.981 -0.5432 -0.9034 -0.8333
 5648TIP3    H216884   6.245   3.471   1.028  0.9179 -0.6618  2.3710
 5649TIP3   OH216885   4.560   0.527   5.884 -0.1281  0.4615 -0.1401
 5649TIP3    H116886   4.497   0.569   5.825  1.2891  0.7863 -1.4417
 5649TIP3    H216887   4.505   0.479   5.946 -1.6700  0.1858 -1.6557
 5650TIP3   OH216888   8.076   6.601   6.276  0.4514  0.1499 -0.4482
 5650TIP3    H116889   8.005   6.644   6.228  1.1448 -0.0950 -1.7332
 5650TIP3    H216890   8.129   6.560   6.208  0.8144 -1.2095  0.6243
 5651TIP3   OH216891   6.380   2.316   0.049 -0.5432 -0.1111  0.4746
 5651TIP3    H116892   6.337   2.302  -0.035 -1.1297 -1.0822  0.9381
 5651TIP3    H216893   6.358   2.239   0.101  3.0323 -1.4177  0.1857
 5652TIP3   OH216894   6.997   4.209   0.386  0.3306  0.4755 -0.2781
 5652TIP3    H116895   7.010   4.299   0.414  0.8981  0.4543 -0.4482
 5652TIP3    H216896   6.945   4.216   0.306 -0.4552  0.5927  0.2445
 5653TIP3   OH216897   5.765   0.815   6.349  0.0891 -0.5291 -0.4537
 5653TIP3    H116898   5.695   0.822   6.283 -0.7817 -2.3838  0.2383
 5653TIP3    H216899   5.769   0.722   6.370  1.0595 -0.1035  1.3654
 5654TIP3   OH216900   1.260   7.821   6.124 -0.2159 -0.0736  0.0445
 5654TIP3    H116901   1.169   7.827   6.151 -0.3554 -0.8162 -0.2441
 5654TIP3    H216902   1.309   7.813   6.206 -0.2669  1.8906  0.2794
 5655TIP3   OH216903   0.051   0.740   5.856  0.1540 -0.3023 -0.0377
 5655TIP3    H116904  -0.017   0.772   5.915  0.3787 -1.9727  1.1693
 5655TIP3    H216905   0.005   0.722   5.774 -0.4660  0.4611  0.1341
 5656TIP3   OH216906   2.644   1.627   5.121  0.5283 -0.1607 -0.0614
 5656TIP3    H116907   2.663   1.566   5.192  0.5002 -0.5010 -0.3489
 5656TIP3    H216908   2.580   1.688   5.159  1.3684  0.3427  0.5701
 5657TIP3   OH216909   2.132   0.272   3.617 -0.1745  0.0792  0.2600
 5657TIP3    H116910   2.219   0.310   3.600  0.2196 -0.8321  0.2226
 5657TIP3    H216911   2.141   0.180   3.593 -0.9709 -0.1644  0.8878
 5658TIP3   OH216912   0.023   6.380   5.103  0.7201 -0.0357  0.1440
 5658TIP3    H116913  -0.056   6.427   5.075 -0.7505 -2.2280  0.4020
 5658TIP3    H216914   0.051   6.426   5.182 -0.0947  1.0162 -0.1611
 5659TIP3   OH216915   7.554   5.719   1.047  0.6414 -0.2562 -0.1975
 5659TIP3    H116916   7.610   5.752   0.977 -0.5181 -0.2660 -1.1286
 5659TIP3    H216917   7.570   5.780   1.120  1.7034 -0.1377 -0.5164
 5660TIP3   OH216918   1.328   7.865   6.649 -0.3123 -0.2722 -0.5755
 5660TIP3    H116919   1.418   7.871   6.617 -0.2253  2.4462  0.0404
 5660TIP3    H216920   1.337   7.869   6.744 -1.0329 -0.8841 -0.4798
 5661TIP3   OH216921   4.513   0.519   3.474 -0.2124 -0.5907  0.4526
 5661TIP3    H116922   4.601   0.482   3.464  0.2840  0.8222 -0.4373
 5661TIP3    H216923   4.524   0.591   3.536 -1.7820 -3.9256  4.9305
 5662TIP3   OH216924   3.078   0.640   4.428 -0.1299  0.2582  0.1244
 5662TIP3    H116925   3.011   0.598   4.375  1.4159  0.0205 -1.7124
 5662TIP3    H216926   3.134   0.685   4.365  0.9425  1.1491  1.6756
 5663TIP3   OH216927   2.694   0.265   6.539  0.3922  0.6311  0.0826
 5663TIP3    H116928   2.656   0.231   6.620  1.9019  0.9857  0.9579
 5663TIP3    H216929   2.659   0.354   6.531 -0.1598  0.4157  0.0598
 5664TIP3   OH216930   2.915   7.298   4.632  0.2599  1.0811 -0.0686
 5664TIP3    H116931   2.863   7.230   4.675  1.4542 -0.2954 -0.7182
 5664TIP3    H216932   2.862   7.325   4.557 -0.0261  0.5295 -0.0668
 5665TIP3   OH216933   1.817   7.196   5.978 -0.2641  0.6961  0.2153
 5665TIP3    H116934   1.803   7.257   5.906  0.4279  1.0237  0.3493
 5665TIP3    H216935   1.828   7.251   6.055  1.3406  0.4572  0.1768
 5666TIP3   OH216936   0.110   4.395   0.481  0.0884  0.1972  0.1562
 5666TIP3    H116937   0.114   4.479   0.526 -2.2361  0.1231  0.5590
 5666TIP3    H216938   0.137   4.331   0.546  0.6522  0.5102  0.2272
 5667TIP3   OH216939   2.931  -0.006   2.965  0.1070  0.4904 -0.7203
 5667TIP3    H116940   2.889   0.079   2.971  0.2133  0.5639 -1.0202
 5667TIP3    H216941   2.992  -0.008   3.038 -2.2057 -0.6170  1.2660
 5668TIP3   OH216942   2.317   0.237   5.085  0.1260  0.3989  0.5791
 5668TIP3    H116943   2.266   0.317   5.102  2.0626  1.8000 -0.0561
 5668TIP3    H216944   2.387   0.265   5.026  0.1462 -2.0425 -0.6016
 5669TIP3   OH216945   1.044   6.741   5.811  0.2752  0.0651 -0.4190
 5669TIP3    H116946   1.060   6.835   5.814  0.1113  0.0871 -0.1315
 5669TIP3    H216947   1.072   6.709   5.897  0.0853 -0.1072 -0.4200
 5670TIP3   OH216948   4.768   3.342   0.542 -0.0937 -0.4407  0.0240
 5670TIP3    H116949   4.687   3.392   0.530 -0.3496 -0.7776  0.3618
 5670TIP3    H216950   4.742   3.263   0.589  0.3649 -0.7502 -0.2347
 5671TIP3   OH216951   0.471   5.839   4.138 -0.4268  0.1415  0.5080
 5671TIP3    H116952   0.502   5.754   4.107 -0.4228  0.3398 -0.0472
 5671TIP3    H216953   0.423   5.875   4.063 -0.0909  0.7946  0.6057
 5672TIP3   OH216954   2.551   0.610   5.134 -0.1374 -0.6543 -0.3507
 5672TIP3    H116955   2.466   0.581   5.102 -1.9740  2.3093  1.6792
 5672TIP3    H216956   2.556   0.579   5.224 -0.7426  2.3960  0.7824
 5673TIP3   OH216957   2.161   1.254   3.175  0.0258 -0.2420  0.4681
 5673TIP3    H116958   2.084   1.225   3.125  0.0858  0.2186  0.0989
 5673TIP3    H216959   2.185   1.178   3.228  0.3760 -0.9859 -0.7265
 5674TIP3   OH216960   0.725   6.886   6.193  0.0900  0.0272 -0.2759
 5674TIP3    H116961   0.767   6.829   6.257  0.8543  0.0266 -0.7761
 5674TIP3    H216962   0.701   6.964   6.243 -0.2447 -0.3930  0.2329
 5675TIP3   OH216963   3.839   0.282   5.548 -0.0136 -0.2383  0.1321
 5675TIP3    H116964   3.836   0.208   5.608  1.2514 -1.5402 -1.3627
 5675TIP3    H216965   3.931   0.309   5.548 -0.2402  0.5205 -0.2841
 5676TIP3   OH216966   0.358   7.689   5.867 -0.4444  0.7139 -0.3449
 5676TIP3    H116967   0.415   7.632   5.918  1.1293  1.8211 -0.8124
 5676TIP3    H216968   0.414   7.721   5.796 -1.3296  2.6741 -0.1948
 5677TIP3   OH216969   1.823   1.510   3.588 -0.0350 -0.6066 -0.4096
 5677TIP3    H116970   1.728   1.502   3.597 -0.0117  0.5598  1.0882
 5677TIP3    H216971   1.856   1.420   3.594 -0.9845 -0.9525 -0.3206
 5678TIP3   OH216972   2.359   0.002   5.654 -0.6811 -0.0891 -0.0086
 5678TIP3    H116973   2.268  -0.027   5.654 -0.3524 -1.1135 -1.2344
 5678TIP3    H216974   2.377   0.027   5.564  0.7048 -1.2813 -0.0681
 5679TIP3   OH216975   3.038   0.130   4.753  0.4095  0.2100  0.4417
 5679TIP3    H116976   2.949   0.165   4.747  1.1890  2.0335 -0.6350
 5679TIP3    H216977   3.065   0.148   4.843 -0.5459 -0.9660  0.9808
 5680TIP3   OH216978   4.232   0.811   6.746 -0.3825 -0.1502  0.0350
 5680TIP3    H116979   4.212   0.852   6.662  0.0501  0.1664  0.0821
 5680TIP3    H216980   4.160   0.835   6.803 -1.3934 -1.5250 -0.6313
 5681TIP3   OH216981   4.055   7.192   0.097  0.3731 -0.2181  0.8169
 5681TIP3    H116982   4.013   7.126   0.152  0.3028 -0.6853  0.2075
 5681TIP3    H216983   4.140   7.207   0.139  0.4408 -0.7884  0.8940
 5682TIP3   OH216984   1.565   6.408   4.829 -0.1681 -0.1401 -0.5691
 5682TIP3    H116985   1.539   6.396   4.920 -0.9305 -0.4974 -0.8249
 5682TIP3    H216986   1.484   6.432   4.784 -0.1584 -1.7179 -1.4709
 5683TIP3   OH216987   3.803   2.237   4.974  0.1734  0.2717  0.1085
 5683TIP3    H116988   3.734   2.174   4.956  0.7680 -0.0835 -1.0327
 5683TIP3    H216989   3.792   2.260   5.066  0.5259 -2.2267  0.8069
 5684TIP3   OH216990   5.014   1.650   4.599 -0.7364  0.1241 -0.0803
 5684TIP3    H116991   5.042   1.563   4.573 -0.6477  0.6750 -1.8797
 5684TIP3    H216992   5.094   1.694   4.628 -0.2364  0.6503 -2.2032
 5685TIP3   OH216993   4.204   0.398   5.236  0.0644 -0.5351  0.3305
 5685TIP3    H116994   4.263   0.462   5.196  1.0900 -1.3360  0.5244
 5685TIP3    H216995   4.126   0.448   5.259 -0.1051  0.1778 -1.6628
 5686TIP3   OH216996   5.004   5.322   2.510  0.4222 -0.8002  0.0901
 5686TIP3    H116997   4.957   5.242   2.489  0.2985 -0.8280  0.4594
 5686TIP3    H216998   5.077   5.294   2.565  0.3171 -0.6493  0.3082
 5687TIP3   OH216999   1.781   7.270   4.497 -0.0816 -0.0368  0.3954
 5687TIP3    H117000   1.810   7.225   4.576 -0.1742  0.0727  0.4906
 5687TIP3    H217001   1.751   7.200   4.439 -2.8373  0.1107  1.5946
 5688TIP3   OH217002   0.355   6.846   5.764 -0.1383  0.2172  0.1076
 5688TIP3    H117003   0.321   6.799   5.841 -0.6394 -1.0425 -0.8631
 5688TIP3    H217004   0.308   6.808   5.690  0.0943  1.6526 -0.8042
 5689TIP3   OH217005   1.249   7.596   3.226  0.0192  0.1098  0.1953
 5689TIP3    H117006   1.325   7.619   3.172  2.0148 -3.6406  1.2259
 5689TIP3    H217007   1.180   7.576   3.163  1.0326 -0.0668 -0.8899
 5690TIP3   OH217008   2.528   1.457   6.299  0.2955  0.7501  0.7204
 5690TIP3    H117009   2.615   1.426   6.323 -0.1027 -0.7040  0.2964
 5690TIP3    H217010   2.528   1.460   6.204 -0.3633  0.0399  0.6952
 5691TIP3   OH217011   6.477   5.874   0.335  0.5952  0.4237 -0.6833
 5691TIP3    H117012   6.514   5.952   0.375  0.1818 -0.3615  1.2468
 5691TIP3    H217013   6.542   5.806   0.348 -0.0902 -0.1506 -0.2215
 5692TIP3   OH217014   2.983   2.090   5.320 -0.3939  0.5564 -0.1768
 5692TIP3    H117015   2.999   2.011   5.372  0.5752  1.9473  1.6860
 5692TIP3    H217016   3.034   2.077   5.240 -0.5159 -0.8450 -0.0376
 5693TIP3   OH217017   2.314   0.667   1.535 -0.1071  0.0346  0.3096
 5693TIP3    H117018   2.267   0.666   1.451 -0.9690  1.1641  0.7624
 5693TIP3    H217019   2.298   0.580   1.572 -1.4345  0.2331  0.2244
 5694TIP3   OH217020   1.046   7.703   6.251  0.3872  0.0091 -0.4759
 5694TIP3    H117021   0.953   7.686   6.235 -0.0181 -0.6597  2.2093
 5694TIP3    H217022   1.091   7.627   6.215 -0.1227  0.1952 -1.5254
 5695TIP3   OH217023   5.874   1.080   0.351 -0.4736  0.4364  0.5068
 5695TIP3    H117024   5.802   1.023   0.377 -0.0923 -0.4547 -0.3749
 5695TIP3    H217025   5.942   1.063   0.416 -1.1184  1.4423  1.4717
 5696TIP3   OH217026   2.033   1.349   5.776 -0.1605  0.1075  0.3184
 5696TIP3    H117027   2.094   1.277   5.761 -3.4117 -2.9523  1.0416
 5696TIP3    H217028   1.995   1.330   5.861 -0.8657  2.8930  0.6493
 5697TIP3   OH217029   3.540   0.973   4.473 -0.2546 -0.2931 -0.0506
 5697TIP3    H117030   3.611   0.911   4.458 -0.2399 -0.1467 -0.5951
 5697TIP3    H217031   3.551   1.039   4.405 -0.7596 -0.1331  0.0210
 5698TIP3   OH217032   1.594   2.455   2.899 -0.0102 -1.4807 -0.0830
 5698TIP3    H117033   1.541   2.397   2.845 -1.0502  0.5397 -1.2649
 5698TIP3    H217034   1.545   2.463   2.981  0.1567 -2.2718  0.1014
 5699TIP3   OH217035   0.294   7.089   6.502 -0.3673 -0.2747 -0.4889
 5699TIP3    H117036   0.220   7.149   6.503  0.7267  1.1045  1.0240
 5699TIP3    H217037   0.257   7.004   6.526 -1.5189  0.3263 -0.1305
 5700TIP3   OH217038   7.661   3.741   0.828  0.3618 -0.2287  0.6849
 5700TIP3    H117039   7.755   3.729   0.814  0.8981  1.1042  2.8777
 5700TIP3    H217040   7.628   3.771   0.743  2.2559  1.0689  0.3769
 5701TIP3   OH217041   7.586   5.082   0.649  0.2854 -0.2077 -0.1387
 5701TIP3    H117042   7.520   5.131   0.697 -0.2598 -1.6055  0.5802
 5701TIP3    H217043   7.667   5.094   0.699 -0.2379 -1.4985  1.0352
 5702TIP3   OH217044   5.500   3.220   2.414 -0.5148 -0.3928  0.0423
 5702TIP3    H117045   5.535   3.134   2.389 -1.9039 -0.6775 -0.9261
 5702TIP3    H217046   5.411   3.202   2.445  0.2088  0.3003  2.6879
 5703TIP3   OH217047   3.413   1.311   4.225 -0.7076  0.0248 -0.9533
 5703TIP3    H117048   3.488   1.370   4.229 -1.5933  1.1129  0.0823
 5703TIP3    H217049   3.444   1.230   4.267 -0.2566  0.6313 -0.0917
 5704TIP3   OH217050   7.120   3.456   0.652 -0.0619  0.6459 -0.2236
 5704TIP3    H117051   7.040   3.437   0.603 -0.0113 -0.6762  0.1863
 5704TIP3    H217052   7.097   3.439   0.743  1.6408 -3.1687 -0.4184
 5705TIP3   OH217053   2.426   0.156   4.453 -0.4066  0.5569 -0.3743
 5705TIP3    H117054   2.482   0.113   4.389 -0.9974 -0.5939 -0.1170
 5705TIP3    H217055   2.366   0.088   4.483 -2.4963  1.9860 -1.2547
 5706TIP3   OH217056   6.690   3.373   1.049  0.4182  0.0768 -0.2583
 5706TIP3    H117057   6.765   3.313   1.050 -0.3731 -0.8902  0.4095
 5706TIP3    H217058   6.686   3.408   1.138 -0.7123 -0.8455  0.0580
 5707TIP3   OH217059   5.858   0.203   4.865 -0.2092  0.3303 -0.2853
 5707TIP3    H117060   5.916   0.127   4.862  1.2024  1.4637 -3.2413
 5707TIP3    H217061   5.783   0.177   4.811  0.3010  1.0613 -1.3436
 5708TIP3   OH217062   6.814   2.690   0.231  0.3508 -0.1900  0.1894
 5708TIP3    H117063   6.812   2.747   0.308  2.0407 -1.3149  1.1024
 5708TIP3    H217064   6.744   2.724   0.175 -0.6952  0.8796  2.0470
 5709TIP3   OH217065   4.947   1.061   4.059  0.1522 -0.7855  0.5846
 5709TIP3    H117066   4.912   1.096   4.141  2.0986  0.9356  0.7069
 5709TIP3    H217067   4.910   1.118   3.991 -0.0639 -1.1406  0.3992
 5710TIP3   OH217068   6.282   5.893   0.143  0.2087  0.0561  0.5431
 5710TIP3    H117069   6.325   5.842   0.075 -0.2240 -0.1301  0.4140
 5710TIP3    H217070   6.341   5.886   0.219  2.1453  2.5854 -0.6348
 5711TIP3   OH217071   3.010   0.805   5.629  0.2062  0.4162  0.1676
 5711TIP3    H117072   3.024   0.727   5.575  1.2558 -0.2486  1.3963
 5711TIP3    H217073   3.012   0.878   5.566  0.3659 -0.4362 -0.8236
 5712TIP3   OH217074   1.734   6.272   5.130 -0.8436 -0.0807 -0.0203
 5712TIP3    H117075   1.643   6.276   5.162 -0.7203 -0.5267  0.3964
 5712TIP3    H217076   1.785   6.318   5.197 -0.6934 -0.3006  0.0177
 5713TIP3   OH217077   0.036   7.200   6.386  0.4800 -0.2973 -0.0601
 5713TIP3    H117078   0.016   7.141   6.312 -3.2899  1.8017 -0.8570
 5713TIP3    H217079   0.007   7.152   6.463  0.6499 -0.9013 -0.3715
 5714TIP3   OH217080   4.396   1.501   5.858 -0.0125  0.2432 -0.0383
 5714TIP3    H117081   4.427   1.566   5.795 -2.4395  0.7044 -0.8006
 5714TIP3    H217082   4.451   1.514   5.935 -0.9111  3.6855  0.0704
 5715TIP3   OH217083   5.351   0.176   6.234  0.3592  0.9765  0.0918
 5715TIP3    H117084   5.262   0.146   6.213  0.9179 -1.5241  1.1756
 5715TIP3    H217085   5.341   0.220   6.319  0.5266 -1.4693  1.4272
 5716TIP3   OH217086   8.084   7.796   2.838 -0.4354  0.6327  0.6374
 5716TIP3    H117087   8.172   7.820   2.868 -0.0539  0.6962 -0.5072
 5716TIP3    H217088   8.089   7.802   2.743 -1.4593 -0.1554  0.5291
 5717TIP3   OH217089   5.109   6.767   3.723  0.3380 -0.1667  0.3026
 5717TIP3    H117090   5.054   6.808   3.656 -0.6781 -0.7115  0.7885
 5717TIP3    H217091   5.071   6.680   3.736  0.2111  0.1101  1.9319
 5718TIP3   OH217092   1.816   0.492   5.387  0.1266  0.0903 -0.5212
 5718TIP3    H117093   1.864   0.471   5.467 -0.5456 -1.1925 -0.4429
 5718TIP3    H217094   1.724   0.477   5.409 -0.0169 -0.8375 -1.6840
 5719TIP3   OH217095   4.203   1.622   4.738  0.0974  0.3115  0.1012
 5719TIP3    H117096   4.281   1.640   4.792  0.0120  1.0652 -0.0261
 5719TIP3    H217097   4.207   1.686   4.668 -1.1610  0.9961  0.6364
 5720TIP3   OH217098   4.674   1.377   4.213  0.2576  0.6049 -0.4493
 5720TIP3    H117099   4.700   1.403   4.302 -0.1057 -1.0652  0.1764
 5720TIP3    H217100   4.634   1.455   4.176 -0.5581  1.0232  1.2565
 5721TIP3   OH217101   2.411   0.493   3.798  0.0657 -0.5388 -0.0154
 5721TIP3    H117102   2.409   0.440   3.718  0.2930  0.8940 -0.9892
 5721TIP3    H217103   2.375   0.578   3.772 -0.0195 -0.1103  1.4474
 5722TIP3   OH217104   4.083   0.331   5.777  0.1210  0.5291  0.0319
 5722TIP3    H117105   4.070   0.360   5.867 -0.4599  0.0672  0.0973
 5722TIP3    H217106   4.028   0.254   5.768  0.6859  0.1872 -0.5248
 5723TIP3   OH217107   5.634   0.763   5.782  0.6064  0.4699 -0.4567
 5723TIP3    H117108   5.689   0.840   5.768 -0.1094  1.2364  0.9079
 5723TIP3    H217109   5.546   0.797   5.793  0.1141 -0.6267 -0.9174
 5724TIP3   OH217110   5.375   3.169   1.885  1.1330 -0.7242  0.5141
 5724TIP3    H117111   5.362   3.264   1.887  1.4148 -0.6697 -0.0858
 5724TIP3    H217112   5.304   3.136   1.830  1.3211 -0.8131  0.3260
 5725TIP3   OH217113   2.373   1.467   3.556 -0.4034  0.5683  0.0190
 5725TIP3    H117114   2.324   1.434   3.481  1.3691  0.0039 -0.9260
 5725TIP3    H217115   2.369   1.563   3.547  1.1624  0.4962 -1.7370
 5726TIP3   OH217116   3.915   0.779   3.610  0.9971 -0.1227  0.1911
 5726TIP3    H117117   3.955   0.858   3.573  2.4954 -1.2115 -0.5460
 5726TIP3    H217118   3.963   0.707   3.571  1.3458 -1.3675  2.7876
 5727TIP3   OH217119   0.130   0.023   2.347  0.1039 -0.0389 -0.2867
 5727TIP3    H117120   0.127  -0.032   2.425 -0.4519  0.1869 -0.1431
 5727TIP3    H217121   0.133   0.112   2.380 -1.9026  0.1329 -0.5158
 5728TIP3   OH217122   0.350  -0.001   3.430  0.0796 -0.2229 -0.4738
 5728TIP3    H117123   0.422  -0.057   3.401  0.2956 -0.2847  0.1599
 5728TIP3    H217124   0.390   0.059   3.493 -0.6620 -1.1014  0.8676
 5729TIP3   OH217125   6.617   1.601   3.764  0.0546 -0.5803 -0.1924
 5729TIP3    H117126   6.563   1.529   3.730  0.0686 -1.1337  0.9202
 5729TIP3    H217127   6.673   1.559   3.830  1.0132  0.2121 -0.4976
 5730TIP3   OH217128   1.376   6.716   4.765  0.0349  0.4096 -0.5903
 5730TIP3    H117129   1.297   6.768   4.763  0.3246  0.9338  0.9312
 5730TIP3    H217130   1.416   6.735   4.850 -0.3225 -2.9609  0.4041
 5731TIP3   OH217131   0.456   7.568   4.994 -0.4062  0.1442 -0.2167
 5731TIP3    H117132   0.438   7.651   4.949 -0.1368  0.3185 -0.0076
 5731TIP3    H217133   0.547   7.575   5.021 -0.2482 -0.4118 -0.5945
 5732TIP3   OH217134   3.274   1.105   6.821 -0.1451 -1.0562 -0.0942
 5732TIP3    H117135   3.314   1.168   6.761 -1.2661 -1.1848 -0.9988
 5732TIP3    H217136   3.181   1.129   6.822 -0.0396 -0.6341  2.1251
 5733TIP3   OH217137   1.152   0.939   5.061 -0.4279 -0.0750 -0.0888
 5733TIP3    H117138   1.137   0.956   5.154  0.5342  0.1944  0.0206
 5733TIP3    H217139   1.128   1.020   5.017  1.7506  0.7444  0.1926
 5734TIP3   OH217140   7.649   7.311   3.402 -0.0957  0.2682  0.3553
 5734TIP3    H117141   7.744   7.316   3.414  0.1309 -1.3282 -0.5311
 5734TIP3    H217142   7.633   7.218   3.386 -1.9625  0.3558  1.6910
 5735TIP3   OH217143   4.086   0.845   5.289 -0.6107  0.2078  0.5588
 5735TIP3    H117144   4.177   0.838   5.319 -0.4818 -2.3503 -0.2823
 5735TIP3    H217145   4.041   0.893   5.358  1.4555  1.8208  0.8183
 5736TIP3   OH217146   1.030   7.704   5.876  0.5263 -0.0810  0.1627
 5736TIP3    H117147   1.053   7.797   5.875  2.6220 -0.4705  3.1174
 5736TIP3    H217148   0.937   7.702   5.895  0.3813  1.4318 -0.3697
 5737TIP3   OH217149   2.315   0.138   5.409 -0.1327  0.4880 -0.1030
 5737TIP3    H117150   2.262   0.148   5.330 -1.1250 -0.4826  0.4364
 5737TIP3    H217151   2.375   0.213   5.407  0.4040  0.0308 -2.1973
 5738TIP3   OH217152   1.090   0.028   4.776 -0.4590 -0.9078  0.3041
 5738TIP3    H117153   1.041   0.011   4.695 -1.4119  5.1316 -0.6471
 5738TIP3    H217154   1.174   0.063   4.746  0.1827 -0.9982  1.9582
 5739TIP3   OH217155   1.139   7.391   3.939  0.4296 -0.7653 -0.0160
 5739TIP3    H117156   1.221   7.343   3.950  0.1602 -1.2233  0.0131
 5739TIP3    H217157   1.160   7.481   3.963  1.4293 -0.4427 -2.0277
 5740TIP3   OH217158   7.024   4.019   1.027  0.0309  0.2044  0.0119
 5740TIP3    H117159   6.958   4.053   0.967 -0.7378  0.5630  1.0274
 5740TIP3    H217160   7.068   3.950   0.978 -3.3224 -2.3289  0.3593
 5741TIP3   OH217161   2.623   1.446   3.435 -0.1323  0.2668  0.1383
 5741TIP3    H117162   2.692   1.444   3.501  2.0910  2.4366 -2.0160
 5741TIP3    H217163   2.545   1.474   3.482  0.4101 -2.2206  2.6136
 5742TIP3   OH217164   6.299   2.355   0.791 -0.0148 -0.1846 -0.0120
 5742TIP3    H117165   6.212   2.367   0.752  0.2648 -0.4956 -0.7274
 5742TIP3    H217166   6.283   2.363   0.886 -0.6133  1.0539 -0.2091
 5743TIP3   OH217167   3.600   1.351   5.458 -0.0803 -0.1405 -0.5669
 5743TIP3    H117168   3.584   1.442   5.483 -0.9778 -0.4819  0.0973
 5743TIP3    H217169   3.615   1.306   5.540  0.7337 -0.5338 -0.9228
 5744TIP3   OH217170   0.719   7.453   6.262 -0.3559 -0.0990 -0.3688
 5744TIP3    H117171   0.755   7.541   6.258 -2.5633  0.7962 -1.7902
 5744TIP3    H217172   0.775   7.406   6.324  1.4385  2.0062 -0.3495
 5745TIP3   OH217173   3.655   0.914   4.037  0.1173 -0.3586  0.4687
 5745TIP3    H117174   3.708   0.936   3.961 -1.6123  0.4107 -0.5341
 5745TIP3    H217175   3.622   0.826   4.019  1.7224 -1.1815  1.4826
 5746TIP3   OH217176   3.462   7.381   6.659  0.2060  0.1291  0.2702
 5746TIP3    H117177   3.458   7.462   6.711 -1.8404  0.3874 -0.2375
 5746TIP3    H217178   3.555   7.368   6.642  1.0866 -0.4045  4.7158
 5747TIP3   OH217179   8.091   5.486   0.864  0.0418  0.0577 -0.0828
 5747TIP3    H117180   8.022   5.443   0.916  1.6904 -2.1801  0.3481
 5747TIP3    H217181   8.048   5.561   0.824 -2.6536 -1.2701  0.2001
 5748TIP3   OH217182   3.469   0.900   5.741 -0.0742  0.3915  0.5105
 5748TIP3    H117183   3.404   0.932   5.804  1.1351  1.1099  1.4121
 5748TIP3    H217184   3.484   0.974   5.682 -1.2133 -0.2844 -0.6496
 5749TIP3   OH217185   0.472   6.548   5.726 -0.1372  0.0840 -0.6258
 5749TIP3    H117186   0.393   6.598   5.706  0.4886  0.6207 -1.8153
 5749TIP3    H217187   0.441   6.461   5.750 -1.0989  0.3670 -0.8496
 5750TIP3   OH217188   1.649   7.068   5.231  0.0952 -0.5766  0.1137
 5750TIP3    H117189   1.737   7.093   5.262 -0.7257  0.7263  1.4965
 5750TIP3    H217190   1.609   7.150   5.204 -1.3443 -0.8822  1.2290
 5751TIP3   OH217191   0.670   7.949   6.247  0.6947 -0.0598 -0.4031
 5751TIP3    H117192   0.602   8.015   6.262 -0.3039 -0.7262 -1.9764
 5751TIP3    H217193   0.711   7.975   6.165  0.9814 -0.8158 -0.4971
 5752TIP3   OH217194   2.842   1.067   3.720 -0.4896 -0.2404 -0.1672
 5752TIP3    H117195   2.753   1.032   3.721 -0.6589  0.1937  0.7114
 5752TIP3    H217196   2.886   1.020   3.649 -1.5425 -0.1440 -0.8997
 5753TIP3   OH217197   2.606   1.770   5.722  0.7505  0.0171 -0.6267
 5753TIP3    H117198   2.560   1.691   5.695 -0.7128  0.7773 -0.4277
 5753TIP3    H217199   2.544   1.842   5.703  3.4879  1.5444 -4.3642
 5754TIP3   OH217200   0.466   7.588   4.630 -0.0767 -0.7885  0.1140
 5754TIP3    H117201   0.485   7.566   4.721 -0.0853 -1.1582  0.0280
 5754TIP3    H217202   0.449   7.504   4.588 -2.3494 -0.4607  0.2887
 5755TIP3   OH217203   7.072   4.422   0.017 -0.2018 -0.0251  0.1067
 5755TIP3    H117204   6.998   4.455   0.068 -0.0587 -0.6908  0.7422
 5755TIP3    H217205   7.149   4.465   0.054 -0.0732 -0.6779  0.5974
 5756TIP3   OH217206   4.530   0.845   6.529 -0.1053 -0.1862  0.1452
 5756TIP3    H117207   4.503   0.754   6.542  2.1864 -0.6821  1.6427
 5756TIP3    H217208   4.586   0.843   6.452 -2.2241  0.4396 -1.4620
 5757TIP3   OH217209   6.511   4.644   0.634  0.4441  0.2882  0.1814
 5757TIP3    H117210   6.428   4.691   0.641  0.3541  0.1642 -0.0405
 5757TIP3    H217211   6.573   4.708   0.599  0.4125  0.3492  0.2381
 5758TIP3   OH217212   7.798   4.011   0.630  0.2172 -0.1471  0.3820
 5758TIP3    H117213   7.743   3.933   0.621  1.0427 -1.0341  2.6230
 5758TIP3    H217214   7.887   3.979   0.620  0.5149  0.7014  0.2593
 5759TIP3   OH217215   0.915   1.433   3.138  0.4123  0.0789  0.3874
 5759TIP3    H117216   0.974   1.414   3.210  0.0650  2.9645  1.5009
 5759TIP3    H217217   0.834   1.463   3.180 -0.5559 -0.2255 -1.1754
 5760TIP3   OH217218   3.291   0.117   6.316  0.5216  0.3118 -0.5666
 5760TIP3    H117219   3.227   0.052   6.287  2.8625 -0.8596 -3.4042
 5760TIP3    H217220   3.240   0.197   6.330 -2.0428 -1.4551  0.6024
 5761TIP3   OH217221   7.594   7.715   5.436 -0.3935  0.0598 -0.2168
 5761TIP3    H117222   7.558   7.627   5.448 -1.4723  0.3209 -1.3130
 5761TIP3    H217223   7.686   7.701   5.415 -0.3398 -0.7597  0.5704
 5762TIP3   OH217224   1.343   0.573   4.586  0.7656  0.3001 -0.1870
 5762TIP3    H117225   1.280   0.642   4.608 -1.2293 -1.1970 -1.0003
 5762TIP3    H217226   1.401   0.613   4.521  0.0142  1.3956 -0.1948
 5763TIP3   OH217227   6.903   5.869   0.969  0.0342 -0.2857  0.4123
 5763TIP3    H117228   6.981   5.905   1.011  0.5151 -0.7229 -0.0863
 5763TIP3    H217229   6.830   5.905   1.018  0.5583  0.0258  0.9701
 5764TIP3   OH217230   7.566   1.028   5.906 -0.9226 -0.7384  0.3279
 5764TIP3    H117231   7.543   0.950   5.956  0.9376 -1.7986 -0.4142
 5764TIP3    H217232   7.603   0.994   5.824 -1.4467  0.9377 -0.6378
 5765TIP3   OH217233   7.267   5.640   0.634 -0.4541 -0.3434 -0.3544
 5765TIP3    H117234   7.351   5.632   0.588  0.3823  0.4696  0.9838
 5765TIP3    H217235   7.204   5.597   0.577  1.2092 -2.6439 -0.5319
 5766TIP3   OH217236   0.411   7.945   5.443  0.5728 -0.0247  0.0203
 5766TIP3    H117237   0.507   7.940   5.442  0.5111 -1.2295 -0.9892
 5766TIP3    H217238   0.383   7.894   5.366 -0.9631 -1.7716  1.6758
 5767TIP3   OH217239   6.182   4.354   0.824 -0.2446 -0.0982 -0.3817
 5767TIP3    H117240   6.227   4.270   0.833 -1.5197 -0.9305 -1.5437
 5767TIP3    H217241   6.252   4.419   0.826  0.8618 -1.2580 -0.6183
 5768TIP3   OH217242   3.183   3.431   6.534  0.2577  0.0477  0.1406
 5768TIP3    H117243   3.164   3.524   6.520 -2.5292 -0.6305 -0.9392
 5768TIP3    H217244   3.232   3.404   6.456 -1.7325 -0.1105 -1.0741
 5769TIP3   OH217245   4.557   1.781   6.851  0.2005 -0.1111 -0.6888
 5769TIP3    H117246   4.538   1.873   6.872 -0.3728 -0.1318 -1.1491
 5769TIP3    H217247   4.609   1.785   6.771 -1.4375 -0.2984 -1.7653
 5770TIP3   OH217248   1.625   7.823   5.534  0.2348  0.0875 -0.1694
 5770TIP3    H117249   1.610   7.838   5.441  0.0062  0.8706 -0.0105
 5770TIP3    H217250   1.538   7.828   5.573  0.1682 -1.4958 -0.0828
 5771TIP3   OH217251   2.228   1.337   4.243 -0.0830  0.0936  0.1369
 5771TIP3    H117252   2.268   1.422   4.255 -0.0932  0.0541  0.4501
 5771TIP3    H217253   2.210   1.305   4.331 -1.9737  0.6703 -0.0132
 5772TIP3   OH217254   0.387   8.019   4.258 -0.2010 -0.5296 -0.3289
 5772TIP3    H117255   0.437   8.000   4.179  1.6163 -1.6217  1.0378
 5772TIP3    H217256   0.348   7.935   4.283 -3.1691  0.4009 -1.6340
 5773TIP3   OH217257   3.563   0.030   5.967 -0.0377 -0.6863 -0.7642
 5773TIP3    H117258   3.470   0.050   5.956  0.2402  0.2985 -1.3375
 5773TIP3    H217259   3.608   0.095   5.915  1.1044  1.0451  2.2516
 5774TIP3   OH217260   7.371   7.898   6.727 -0.3615  0.1135  0.8368
 5774TIP3    H117261   7.312   7.970   6.747 -0.8687 -0.5782  1.8765
 5774TIP3    H217262   7.339   7.863   6.644 -0.5545  0.6178  0.6966
 5775TIP3   OH217263   7.630   5.857   0.614  0.1684  0.0311 -0.0884
 5775TIP3    H117264   7.664   5.869   0.702  0.7560  0.4750 -0.3699
 5775TIP3    H217265   7.582   5.774   0.617  2.0963 -1.1006  0.0766
 5776TIP3   OH217266   4.425   1.082   5.398  0.0336 -0.3614 -0.6618
 5776TIP3    H117267   4.431   1.056   5.490 -0.3910 -1.2513 -0.8805
 5776TIP3    H217268   4.510   1.122   5.378  0.3048 -0.6240 -0.0269
 5777TIP3   OH217269   2.158   5.444   4.779  0.1620 -0.0414  0.4304
 5777TIP3    H117270   2.208   5.370   4.745  1.2749  1.3267 -1.0495
 5777TIP3    H217271   2.068   5.411   4.788  0.9680 -2.0277  1.4372
 5778TIP3   OH217272   3.461   0.935   4.734  0.3460 -0.5346  0.2030
 5778TIP3    H117273   3.381   0.883   4.740  0.4807 -0.7380  0.2419
 5778TIP3    H217274   3.490   0.922   4.643 -0.5912  0.9127 -0.3236
 5779TIP3   OH217275   4.612   4.571   0.120 -0.1490  0.0482  0.0067
 5779TIP3    H117276   4.634   4.539   0.033 -0.0044 -1.6468  0.6472
 5779TIP3    H217277   4.687   4.626   0.145 -0.1923  0.5451 -0.9217
 5780TIP3   OH217278   0.906   7.279   5.994  0.0898 -0.0571 -0.1247
 5780TIP3    H117279   0.927   7.307   5.905 -0.7240  1.5886  0.1776
 5780TIP3    H217280   0.886   7.186   5.986 -0.3598  0.1648 -1.7328
 5781TIP3   OH217281   4.034   0.562   5.640 -0.0850  0.4696  0.4582
 5781TIP3    H117282   4.044   0.485   5.696  0.0180  1.1719  1.4299
 5781TIP3    H217283   4.070   0.634   5.692  0.3791  1.0680 -0.6896
 5782TIP3   OH217284   2.630   0.865   4.848  0.4289  0.0839  0.0421
 5782TIP3    H117285   2.565   0.815   4.799 -0.3016  0.0146  1.0611
 5782TIP3    H217286   2.592   0.875   4.936  0.1658  3.1282 -0.3567
 5783TIP3   OH217287   2.296   0.115   3.908 -0.3240  0.2774  0.1485
 5783TIP3    H117288   2.206   0.121   3.876 -0.3220 -0.3318  0.0242
 5783TIP3    H217289   2.337   0.048   3.853  0.3590  0.9322 -0.1473
 5784TIP3   OH217290   6.763   6.743   1.569 -0.0323  0.1373  0.0309
 5784TIP3    H117291   6.682   6.706   1.603 -0.1349 -0.5292 -0.9339
 5784TIP3    H217292   6.790   6.683   1.499  0.6430  1.0184 -0.4724
 5785TIP3   OH217293   4.454   6.370   6.654 -0.4221  0.4191  0.0051
 5785TIP3    H117294   4.423   6.419   6.577 -0.5472 -0.1197 -0.2945
 5785TIP3    H217295   4.391   6.299   6.663  0.3856 -0.3338 -0.2369
 5786TIP3   OH217296   1.707   0.780   6.224  0.3579 -0.2016 -0.5443
 5786TIP3    H117297   1.692   0.823   6.308 -0.5072 -1.0230 -0.2723
 5786TIP3    H217298   1.753   0.699   6.245  1.9733  0.5634 -1.0596
 5787TIP3   OH217299   3.933   0.101   5.730  0.1043  0.1877 -0.1796
 5787TIP3    H117300   3.961   0.025   5.679  1.2594 -0.4813  1.3832
 5787TIP3    H217301   3.883   0.064   5.803 -0.6745  1.0518 -0.2623
 5788TIP3   OH217302   2.791   2.598   5.670 -0.2018  0.1152 -0.1361
 5788TIP3    H117303   2.849   2.572   5.598  0.2024 -0.5306  0.4180
 5788TIP3    H217304   2.845   2.653   5.726 -0.5201  0.6261 -0.3288
 5789TIP3   OH217305   1.953   7.017   4.543 -0.4933 -0.2550 -0.0390
 5789TIP3    H117306   1.989   7.086   4.486  0.6554  0.2319  1.2389
 5789TIP3    H217307   1.903   6.961   4.484 -0.9650  1.3525 -1.2026
 5790TIP3   OH217308   0.255   7.358   4.948 -0.1990 -0.1026  0.2445
 5790TIP3    H117309   0.329   7.416   4.964  0.0819 -0.2439 -0.5344
 5790TIP3    H217310   0.199   7.368   5.025  0.3845  0.3783  0.6034
 5791TIP3   OH217311   2.315   2.032   4.616 -0.2513  0.0962 -0.0113
 5791TIP3    H117312   2.263   1.961   4.653  0.0986  0.1385  0.5654
 5791TIP3    H217313   2.328   2.092   4.689  0.6898  0.0407 -0.1324
 5792TIP3   OH217314   2.633   1.972   5.995  0.5092 -0.9453 -0.5967
 5792TIP3    H117315   2.561   1.939   6.049  0.2516 -0.7440 -0.8099
 5792TIP3    H217316   2.654   1.899   5.936  0.0244 -0.7780 -0.9849
 5793TIP3   OH217317   3.882   1.634   5.453 -0.4788 -0.2411  0.5957
 5793TIP3    H117318   3.822   1.654   5.381 -0.4697  0.2612  0.7246
 5793TIP3    H217319   3.921   1.550   5.429 -0.5473 -0.1241  0.0640
 5794TIP3   OH217320   4.312   0.730   5.465 -0.0613 -0.3083  0.2876
 5794TIP3    H117321   4.389   0.751   5.412  0.0332  0.6503  0.7990
 5794TIP3    H217322   4.325   0.639   5.491  1.3743  0.1329  1.1535
 5795TIP3   OH217323   4.425   2.439   4.256  0.5561 -0.2688  0.0448
 5795TIP3    H117324   4.456   2.524   4.224  0.0680  0.2701  0.9561
 5795TIP3    H217325   4.379   2.460   4.337 -0.0394 -1.3476 -0.0047
 5796TIP3   OH217326   6.619   4.601   0.278  0.1046  0.7297 -0.1714
 5796TIP3    H117327   6.712   4.591   0.261  0.1346  0.7613 -0.0296
 5796TIP3    H217328   6.582   4.514   0.265  0.0788  0.8139 -0.6869
 5797TIP3   OH217329   5.813   1.610   4.635  0.0938 -0.3450  0.3655
 5797TIP3    H117330   5.833   1.551   4.562 -0.8648 -1.2229  0.8089
 5797TIP3    H217331   5.899   1.638   4.667  0.5209  0.1194 -1.1551
 5798TIP3   OH217332   1.372   7.866   5.654 -0.4984 -0.3032  0.6192
 5798TIP3    H117333   1.382   7.945   5.708  0.3569  0.1395 -0.1579
 5798TIP3    H217334   1.307   7.890   5.588 -0.1887 -0.2206  0.3419
 5799TIP3   OH217335   7.940   0.127   4.898  1.4305 -0.1536  0.0179
 5799TIP3    H117336   7.893   0.110   4.980  2.1269  0.4772  0.5569
 5799TIP3    H217337   7.884   0.090   4.830  0.5327 -0.1111  0.7218
 5800TIP3   OH217338   5.267   1.772   4.653 -0.3596 -0.0727 -0.3349
 5800TIP3    H117339   5.297   1.843   4.710 -1.8525  1.0432 -0.9109
 5800TIP3    H217340   5.330   1.770   4.581 -0.9280  1.4436 -0.9031
 5801TIP3   OH217341   3.637   0.427   4.192 -0.1240  0.0614  0.6255
 5801TIP3    H117342   3.712   0.395   4.141  0.3090 -0.6401  1.6884
 5801TIP3    H217343   3.641   0.522   4.184  0.0940 -0.0335 -0.4277
 5802TIP3   OH217344   3.125   2.047   4.455  0.3463  0.1441 -0.5895
 5802TIP3    H117345   3.210   2.075   4.491  0.8359  0.8213 -2.2126
 5802TIP3    H217346   3.130   2.069   4.362 -1.3390 -0.4980 -0.8529
 5803TIP3   OH217347   6.477   2.039   5.512  0.4216 -0.4411  0.7827
 5803TIP3    H117348   6.442   2.004   5.430  1.1644  1.7642 -0.5402
 5803TIP3    H217349   6.430   1.992   5.581  0.9975 -3.5795 -0.8689
 5804TIP3   OH217350   4.850   1.847   4.474  0.3301 -0.5149 -0.0094
 5804TIP3    H117351   4.852   1.832   4.380  1.9776  1.7849 -0.3838
 5804TIP3    H217352   4.888   1.768   4.512 -1.8863 -2.1680 -1.1430
 5805TIP3   OH217353   4.594   7.882   3.339  0.3467 -0.2632  0.0556
 5805TIP3    H117354   4.657   7.855   3.272  2.0827 -0.1608  1.5952
 5805TIP3    H217355   4.634   7.854   3.422 -1.4514  0.1923  1.1025
 5806TIP3   OH217356   8.317   5.216   0.331 -0.0677 -0.0390 -0.1954
 5806TIP3    H117357   8.378   5.289   0.336  0.9765 -0.8559 -0.6991
 5806TIP3    H217358   8.356   5.148   0.386 -1.1675 -0.1252  0.4933
 5807TIP3   OH217359   2.170   6.930   4.306  0.3352  0.7174 -0.0513
 5807TIP3    H117360   2.136   6.874   4.376 -0.7517  2.3514  0.7478
 5807TIP3    H217361   2.242   6.979   4.347  1.7300 -0.5378 -0.9310
 5808TIP3   OH217362   2.319   5.208   4.664 -0.1441 -0.3696  0.2160
 5808TIP3    H117363   2.275   5.158   4.595  0.6269 -0.7379 -0.0117
 5808TIP3    H217364   2.365   5.278   4.618  0.0479 -0.3787  0.3921
 5809TIP3   OH217365   0.744   7.704   5.527 -0.7291 -0.3298  0.6557
 5809TIP3    H117366   0.717   7.749   5.447 -1.6290 -0.4309  0.8969
 5809TIP3    H217367   0.759   7.613   5.499  1.4745  0.1657  0.0892
 5810TIP3   OH217368   6.856   0.293   3.345  0.2270 -0.0951 -0.1072
 5810TIP3    H117369   6.907   0.234   3.290 -0.1308 -0.0933 -0.4407
 5810TIP3    H217370   6.825   0.362   3.285 -0.6506 -0.4086 -0.0276
 5811TIP3   OH217371   4.558   2.171   4.201  0.1617 -0.2045  0.5808
 5811TIP3    H117372   4.550   2.215   4.286 -1.6453  0.2905  0.1819
 5811TIP3    H217373   4.501   2.221   4.143  0.3046 -1.3674 -0.5750
 5812TIP3   OH217374   4.818   0.616   3.802 -0.4255 -0.5732  0.4228
 5812TIP3    H117375   4.760   0.606   3.877 -0.1977 -1.8805  0.4321
 5812TIP3    H217376   4.845   0.527   3.780  0.1161 -0.1359 -0.7344
 5813TIP3   OH217377   5.921   0.923   5.189  0.9957 -0.4486 -0.0579
 5813TIP3    H117378   5.916   0.994   5.125 -1.3721 -1.1485 -0.6963
 5813TIP3    H217379   6.006   0.936   5.233  0.8297  2.4347 -0.5031
 5814TIP3   OH217380   2.216   3.386   6.219  0.5498 -0.1226  0.0711
 5814TIP3    H117381   2.145   3.449   6.223 -0.4744 -1.3440  1.6460
 5814TIP3    H217382   2.242   3.385   6.126  1.4205  3.4514  0.2242
 5815TIP3   OH217383   2.062   6.862   5.137  0.2294 -0.4479 -0.1778
 5815TIP3    H117384   2.145   6.898   5.106 -0.5000 -0.9598 -2.8487
 5815TIP3    H217385   2.067   6.769   5.117  0.2524 -1.0610  2.5340
 5816TIP3   OH217386   4.997   1.499   6.416  0.1237  0.0774  0.3368
 5816TIP3    H117387   5.078   1.543   6.390  0.5732  0.0262  1.5886
 5816TIP3    H217388   5.020   1.453   6.497 -1.0243 -0.3552  0.4307
 5817TIP3   OH217389   5.415   2.105   6.719 -0.6253  0.4293 -0.2487
 5817TIP3    H117390   5.439   2.053   6.796  0.5676 -1.5849 -1.9486
 5817TIP3    H217391   5.324   2.131   6.735 -0.7102 -0.7946  1.3753
 5818TIP3   OH217392   5.798   2.860   5.338  0.4489 -0.4337  0.4095
 5818TIP3    H117393   5.706   2.881   5.358  0.9191  1.8197  0.2518
 5818TIP3    H217394   5.827   2.808   5.414 -1.1983 -1.9536  0.0448
 5819TIP3   OH217395   5.212   1.947   5.043  0.1419 -0.3202  0.0440
 5819TIP3    H117396   5.168   2.032   5.037  0.2108 -0.3142 -0.3750
 5819TIP3    H217397   5.268   1.943   4.965  2.3907  0.5310  1.5491
 5820TIP3   OH217398   2.545   5.930   5.081  0.4451 -0.2099  0.5694
 5820TIP3    H117399   2.574   6.015   5.048 -1.7664 -0.0494 -1.0629
 5820TIP3    H217400   2.458   5.946   5.117 -0.3885 -1.9170 -0.5644
 5821TIP3   OH217401   5.863   1.121   4.987  0.2639  0.6376 -0.3739
 5821TIP3    H117402   5.847   1.133   4.893 -0.5478  0.5244 -0.2552
 5821TIP3    H217403   5.890   1.208   5.018  0.0637  0.7904 -0.6222
 5822TIP3   OH217404   3.794   7.461   3.779  0.0655 -0.2776  0.1798
 5822TIP3    H117405   3.799   7.403   3.855  0.0873  0.4563  0.7409
 5822TIP3    H217406   3.744   7.411   3.714  0.1379 -0.9489  0.6352
 5823TIP3   OH217407   3.138   7.944   4.819  0.2486  0.1226 -0.3969
 5823TIP3    H117408   3.219   7.930   4.769 -0.3564 -2.0492 -0.8316
 5823TIP3    H217409   3.154   7.900   4.903 -0.0599  0.6657 -0.0555
 5824TIP3   OH217410   5.263   1.867   4.368  0.0097 -0.2282  0.4132
 5824TIP3    H117411   5.224   1.784   4.339 -0.7651 -0.3637  1.8285
 5824TIP3    H217412   5.344   1.841   4.412  1.8861  0.0635 -2.6805
 5825TIP3   OH217413   5.642   1.968   5.260  0.2936  0.2112  0.0612
 5825TIP3    H117414   5.569   2.022   5.229 -0.1502 -0.8521 -0.7964
 5825TIP3    H217415   5.633   1.968   5.355 -1.5372 -0.8511 -0.0858
 5826TIP3   OH217416   4.943   1.152   6.802 -0.0542 -0.0157 -0.4288
 5826TIP3    H117417   4.973   1.145   6.893 -2.8086 -1.7073  0.4234
 5826TIP3    H217418   4.853   1.120   6.804 -0.1434 -0.1750 -3.7888
 5827TIP3   OH217419   7.343   1.377   4.234  0.3442  0.0015  0.1086
 5827TIP3    H117420   7.350   1.470   4.212 -0.3286  0.8140  3.1071
 5827TIP3    H217421   7.269   1.372   4.295  0.5781 -2.4412  0.2507
 5828TIP3   OH217422   4.644   0.544   4.022  0.0468 -0.2439  0.0307
 5828TIP3    H117423   4.717   0.502   4.067  1.6102 -1.1706 -3.2024
 5828TIP3    H217424   4.578   0.475   4.013  0.2099 -0.3795 -0.1290
 5829TIP3   OH217425   6.576   1.326   4.325 -0.0383  0.3228  0.4148
 5829TIP3    H117426   6.547   1.238   4.304 -0.6628  0.1899  1.7420
 5829TIP3    H217427   6.498   1.380   4.314  0.6948  0.9595 -1.8080
 5830TIP3   OH217428   0.063   6.553   0.601  0.6584  0.1894 -0.0168
 5830TIP3    H117429   0.029   6.465   0.586  1.0001  0.2238 -0.9984
 5830TIP3    H217430   0.154   6.540   0.625  0.5700  0.2468  0.3555
 5831TIP3   OH217431   4.938   1.911   4.842  0.2922 -0.0157  0.1259
 5831TIP3    H117432   4.864   1.912   4.902 -0.1169 -0.1282 -0.3725
 5831TIP3    H217433   5.009   1.869   4.891 -0.4845 -1.5034  0.0025
 5832TIP3   OH217434   6.033   1.820   6.688  0.2222  0.3421  0.4882
 5832TIP3    H117435   5.978   1.840   6.764 -0.4361  0.4598 -0.0108
 5832TIP3    H217436   5.987   1.747   6.645  0.0142  0.9915 -0.3896
 5833TIP3   OH217437   3.875   1.495   4.423  1.2024  0.1378  0.5780
 5833TIP3    H117438   3.882   1.490   4.519  2.6397 -0.5606  0.4511
 5833TIP3    H217439   3.958   1.458   4.391  0.8166  0.5544 -0.9338
 5834TIP3   OH217440   6.841   1.999   3.459  0.3307 -0.8176  0.1326
 5834TIP3    H117441   6.769   2.058   3.437  0.9200 -1.0283 -2.5413
 5834TIP3    H217442   6.798   1.920   3.491 -0.6195 -0.6565 -0.7268
 5835TIP3   OH217443   5.516   1.736   5.186  0.2872 -0.4120  0.2375
 5835TIP3    H117444   5.582   1.676   5.152 -0.8785 -1.6074  0.0413
 5835TIP3    H217445   5.565   1.814   5.211  1.5887 -0.7503 -1.1856
 5836TIP3   OH217446   2.984   2.412   5.914 -0.2469  0.3876 -0.1349
 5836TIP3    H117447   3.012   2.388   5.826 -1.1000 -0.6505 -0.1225
 5836TIP3    H217448   2.890   2.429   5.906 -0.8100 -2.0452  1.0513
 5837TIP3   OH217449   5.724   0.717   5.243  0.0780 -0.5460  0.0568
 5837TIP3    H117450   5.775   0.786   5.202  0.9577 -0.1694  1.7460
 5837TIP3    H217451   5.789   0.661   5.286 -0.7907 -1.0377  0.7536
 5838TIP3   OH217452   8.193   1.010   6.758  0.1805 -0.1166 -0.2158
 5838TIP3    H117453   8.208   0.920   6.787  1.2924 -0.5447 -2.0215
 5838TIP3    H217454   8.098   1.017   6.749  0.0006 -0.6979  1.1985
 5839TIP3   OH217455   5.467   3.014   4.806 -0.1050 -0.4128 -0.2471
 5839TIP3    H117456   5.524   3.030   4.881 -0.1439  0.9610 -0.5022
 5839TIP3    H217457   5.386   3.061   4.827  0.8320  2.2567 -2.3225
 5840TIP3   OH217458   3.364   0.076   3.766 -0.3345  0.5812  0.0644
 5840TIP3    H117459   3.344   0.148   3.826  0.2947  0.8126 -0.0104
 5840TIP3    H217460   3.413   0.116   3.695 -0.9479  0.2762 -0.5396
 5841TIP3   OH217461   3.859   3.057   5.689 -0.3055 -0.1768 -0.0259
 5841TIP3    H117462   3.775   3.011   5.689  0.1871 -1.1004  1.8077
 5841TIP3    H217463   3.917   3.003   5.743  0.8036  1.6363  0.6504
 5842TIP3   OH217464   2.537   7.779   3.328 -0.0224  0.3349  0.3375
 5842TIP3    H117465   2.545   7.716   3.257 -0.8824 -0.8615  1.2628
 5842TIP3    H217466   2.480   7.848   3.293  1.3687  0.8810 -0.8650
 5843TIP3   OH217467   3.727   7.859   5.559 -0.5415 -0.0450 -0.1190
 5843TIP3    H117468   3.760   7.902   5.638  3.1624 -1.5545 -0.7158
 5843TIP3    H217469   3.696   7.774   5.588 -3.6313  1.1994  0.3715
 5844TIP3   OH217470   5.692   0.339   5.097  0.3520 -0.0085  0.2230
 5844TIP3    H117471   5.731   0.252   5.092  0.4432  0.0769 -0.6548
 5844TIP3    H217472   5.766   0.398   5.113  0.4393  0.0367 -0.3576
 5845TIP3   OH217473   6.723   2.553   6.325  0.0615  0.4099 -0.2586
 5845TIP3    H117474   6.780   2.557   6.248  1.1510  1.8089  0.5992
 5845TIP3    H217475   6.651   2.496   6.298  0.1774  1.2563 -2.4752
 5846TIP3   OH217476   5.121   2.538   4.347  0.0564 -0.6038 -0.4669
 5846TIP3    H117477   5.144   2.447   4.331  1.1224 -0.4853  0.3665
 5846TIP3    H217478   5.091   2.539   4.438  1.1406  0.0844 -0.1156
 5847TIP3   OH217479   6.283   1.128   6.760 -0.1744  0.2581 -0.0703
 5847TIP3    H117480   6.280   1.219   6.728  2.0312  0.2908 -0.2513
 5847TIP3    H217481   6.345   1.085   6.702  0.1778 -0.9230  1.1718
 5848TIP3   OH217482   6.388   1.988   3.834  0.6682 -0.1390  0.2277
 5848TIP3    H117483   6.402   2.083   3.831 -0.9091  0.0823 -0.8371
 5848TIP3    H217484   6.406   1.964   3.925  1.9919  1.0221  0.2926
 5849TIP3   OH217485   6.334   1.520   5.472  0.7006  0.4922  0.2127
 5849TIP3    H117486   6.281   1.545   5.397  1.1546 -0.8921 -0.5959
 5849TIP3    H217487   6.421   1.501   5.435  0.2771 -2.6531  0.6685
 5850TIP3   OH217488   4.263   0.992   6.263 -0.3848 -0.2620 -0.0986
 5850TIP3    H117489   4.320   1.036   6.325 -0.5364 -1.6456  1.0545
 5850TIP3    H217490   4.321   0.965   6.192  0.0604  0.0015  0.1634
 5851TIP3   OH217491   2.570   2.002   3.526 -0.0439 -0.1660 -0.1031
 5851TIP3    H117492   2.508   2.027   3.457  0.5911  1.9728  0.0743
 5851TIP3    H217493   2.515   1.992   3.604 -0.5783 -1.2447 -0.6159
 5852TIP3   OH217494   6.068   3.363   0.753  0.2011 -0.0542  0.2760
 5852TIP3    H117495   6.163   3.373   0.755  0.2846 -1.0441  1.1685
 5852TIP3    H217496   6.048   3.345   0.661  0.9478 -0.6034  0.2214
 5853TIP3   OH217497   1.186   8.039   3.685  0.0577  0.4705  0.8169
 5853TIP3    H117498   1.214   7.993   3.606 -2.4145 -0.1549  0.2607
 5853TIP3    H217499   1.169   7.969   3.749 -0.5437  0.8058  1.0278
 5854TIP3   OH217500   4.402   1.100   6.463 -0.3926 -0.0525 -0.4777
 5854TIP3    H117501   4.476   1.158   6.446  2.2109 -3.3007 -0.7262
 5854TIP3    H217502   4.440   1.027   6.510 -3.7071 -1.2603  0.4148
 5855TIP3   OH217503   3.325   0.142   5.936 -0.3083 -0.6022  0.6283
 5855TIP3    H117504   3.266   0.160   6.009  0.1506 -0.4673  0.9674
 5855TIP3    H217505   3.367   0.226   5.918 -0.4443 -0.6276  0.1859
 5856TIP3   OH217506   8.016   0.766   4.337  0.1412  0.7058  0.0316
 5856TIP3    H117507   8.026   0.792   4.246  1.5106 -1.2015 -0.3863
 5856TIP3    H217508   7.923   0.745   4.346  0.0302  0.7550 -0.9487
 5857TIP3   OH217509   5.119   2.057   4.464 -0.1408 -0.5004 -0.4877
 5857TIP3    H117510   5.057   2.005   4.515  1.3105 -1.5089  0.2603
 5857TIP3    H217511   5.172   1.993   4.418  1.1125  0.3345 -0.2211
 5858TIP3   OH217512   4.862   1.286   5.337  0.0448 -0.0771  0.3191
 5858TIP3    H117513   4.862   1.380   5.324  1.7556 -0.1413 -0.2846
 5858TIP3    H217514   4.892   1.250   5.253  3.0117 -0.9292  1.6627
 5859TIP3   OH217515   7.060   4.450   0.491 -0.0370  0.4466 -0.4939
 5859TIP3    H117516   7.071   4.413   0.578  0.9078 -0.1612 -0.8646
 5859TIP3    H217517   7.132   4.512   0.482 -0.4600  0.9226 -0.6295
 5860TIP3   OH217518   6.487   1.027   4.606 -0.2631 -0.2733  0.3331
 5860TIP3    H117519   6.499   0.938   4.573  0.4016 -0.3176  0.7097
 5860TIP3    H217520   6.464   1.078   4.528  2.6318 -0.1097 -0.4607
 5861TIP3   OH217521   4.769   2.660   0.329 -0.4735  0.2455  0.1278
 5861TIP3    H117522   4.855   2.699   0.346 -0.2091 -0.5668  0.6987
 5861TIP3    H217523   4.733   2.646   0.417 -1.1002  0.3816 -0.1103
 5862TIP3   OH217524   1.294   6.819   4.206 -0.4482  0.1768  0.2366
 5862TIP3    H117525   1.283   6.755   4.277 -0.1448 -0.1145  0.0240
 5862TIP3    H217526   1.262   6.901   4.243 -0.4196 -0.0009  0.6652
 5863TIP3   OH217527   4.046   1.836   5.022 -0.0336 -0.3107 -0.2095
 5863TIP3    H117528   4.072   1.744   5.019 -1.2716 -0.6303 -3.0009
 5863TIP3    H217529   4.128   1.884   5.034  0.6727 -1.7428  0.7679
 5864TIP3   OH217530   5.982   1.880   3.076  0.1093 -0.0031 -0.8162
 5864TIP3    H117531   5.957   1.826   3.151 -0.5766  1.7426  0.2421
 5864TIP3    H217532   5.963   1.969   3.104  0.1716  0.6952 -2.9635
 5865TIP3   OH217533   5.482   0.217   4.346 -0.2091 -0.4235 -0.3460
 5865TIP3    H117534   5.509   0.136   4.304 -0.1234 -0.0700 -0.9883
 5865TIP3    H217535   5.390   0.227   4.321 -0.0506 -0.0125 -0.7903
 5866TIP3   OH217536   3.581   2.524   4.771 -0.3633  0.0049  0.0420
 5866TIP3    H117537   3.497   2.485   4.748 -0.5219 -0.3290  1.1645
 5866TIP3    H217538   3.564   2.571   4.853  0.5026  0.0832  0.1818
 5867TIP3   OH217539   3.412   0.051   4.834  0.8780  0.4385  0.1884
 5867TIP3    H117540   3.376   0.133   4.800  0.6338  0.4122  0.3859
 5867TIP3    H217541   3.413   0.063   4.929  1.6693  0.5601  0.1744
 5868TIP3   OH217542   1.493   7.012   5.760  0.1897 -0.0523 -0.3408
 5868TIP3    H117543   1.466   7.069   5.832  1.3435 -1.2356  1.0433
 5868TIP3    H217544   1.458   6.926   5.783  1.1139 -0.5792 -0.8689
 5869TIP3   OH217545   4.270   0.597   5.938 -0.1635  0.0962  0.7387
 5869TIP3    H117546   4.238   0.671   5.886 -0.6232  1.0117  2.2908
 5869TIP3    H217547   4.191   0.559   5.976  0.0347 -1.4544 -0.3636
 5870TIP3   OH217548   6.829   4.902   0.393 -0.1884  0.0951  0.1070
 5870TIP3    H117549   6.863   4.840   0.457 -0.8514 -0.2983  0.0758
 5870TIP3    H217550   6.873   4.880   0.312  0.1439  0.1585  0.2685
 5871TIP3   OH217551   6.752   2.495   5.491  0.3445  0.1338  0.6022
 5871TIP3    H117552   6.714   2.474   5.406 -0.0261 -0.1881  0.8411
 5871TIP3    H217553   6.692   2.455   5.554  1.4739 -1.0254  0.9659
 5872TIP3   OH217554   0.379   0.227   2.632 -0.3191 -0.6737 -0.7148
 5872TIP3    H117555   0.384   0.135   2.656  0.3870 -0.1663  1.0939
 5872TIP3    H217556   0.334   0.227   2.547 -1.2411 -2.5967 -0.2395
 5873TIP3   OH217557   6.964   1.503   4.194  0.5476  0.1522  0.4915
 5873TIP3    H117558   6.990   1.567   4.260  0.2712 -1.3759  2.1263
 5873TIP3    H217559   6.992   1.541   4.111  1.4844  1.8208  1.5457
 5874TIP3   OH217560   0.338   4.859   0.566 -0.2870 -0.0826  0.2383
 5874TIP3    H117561   0.284   4.910   0.507 -1.8699 -0.5608  1.2310
 5874TIP3    H217562   0.292   4.863   0.650  2.1396  0.9902  1.5968
 5875TIP3   OH217563   5.272   1.322   5.431  0.0038 -0.2488  0.0250
 5875TIP3    H117564   5.229   1.252   5.479  0.4070  0.0354  0.8009
 5875TIP3    H217565   5.352   1.340   5.481  0.9642 -0.6768 -1.3180
 5876TIP3   OH217566   4.493   0.954   5.653 -0.6273  0.6686 -0.1380
 5876TIP3    H117567   4.533   0.873   5.683  0.8893  1.2587 -0.5437
 5876TIP3    H217568   4.548   1.023   5.690 -1.2004  1.4864 -0.7964
 5877TIP3   OH217569   5.850   1.217   4.722  0.2559  0.3437  0.6230
 5877TIP3    H117570   5.847   1.272   4.643  1.1311  1.1824  1.1743
 5877TIP3    H217571   5.779   1.154   4.709  0.9000 -0.0409 -1.2141
 5878TIP3   OH217572   3.438   7.973   6.697  0.7103  0.3725 -1.0461
 5878TIP3    H117573   3.527   7.940   6.681  0.2772 -0.9874 -0.7211
 5878TIP3    H217574   3.385   7.894   6.706 -0.1559  1.1461  0.9520
 5879TIP3   OH217575   4.466   1.815   5.026 -0.4072 -0.1275 -0.3273
 5879TIP3    H117576   4.408   1.891   5.032  0.5375  0.4801  1.4224
 5879TIP3    H217577   4.442   1.761   5.102  1.1885  0.0418  0.3032
 5880TIP3   OH217578   4.258   1.798   4.538 -0.2399 -0.3416  0.2045
 5880TIP3    H117579   4.328   1.757   4.487  0.0001  1.0302 -0.6000
 5880TIP3    H217580   4.193   1.823   4.473 -0.2739  0.7477  0.6428
 5881TIP3   OH217581   4.660   1.106   6.577  0.0772 -0.2551  0.3136
 5881TIP3    H117582   4.640   1.015   6.594 -1.0401 -0.1102 -0.1857
 5881TIP3    H217583   4.754   1.107   6.559  0.4143 -1.0501  1.9355
 5882TIP3   OH217584   5.655   0.890   3.464  0.1862  0.0670  0.2356
 5882TIP3    H117585   5.609   0.921   3.543  0.4743  0.3897  0.2757
 5882TIP3    H217586   5.661   0.795   3.476  0.3719  0.1334  0.6796
 5883TIP3   OH217587   5.754   3.663   6.212  0.2412 -0.2311  0.0984
 5883TIP3    H117588   5.759   3.632   6.121  0.5471 -0.8090  0.3080
 5883TIP3    H217589   5.660   3.672   6.229  0.0961 -2.2142  0.4161
 5884TIP3   OH217590   6.996   3.236   3.043 -0.5604 -0.0132 -0.4296
 5884TIP3    H117591   6.913   3.284   3.044 -1.1527 -1.0458  0.2872
 5884TIP3    H217592   7.060   3.299   3.076 -1.5600 -0.0941  1.7886
 5885TIP3   OH217593   4.175   2.466   5.163 -0.2001  0.1255 -0.3271
 5885TIP3    H117594   4.225   2.400   5.211  2.2227  1.4217 -1.0244
 5885TIP3    H217595   4.165   2.430   5.075  0.3167  0.2763 -0.4477
 5886TIP3   OH217596   3.817   3.682   3.620  0.3951  0.3251 -0.2321
 5886TIP3    H117597   3.886   3.632   3.663  0.5888  0.7791 -0.0166
 5886TIP3    H217598   3.859   3.765   3.595  0.3032  0.0613 -1.3203
 5887TIP3   OH217599   2.443   7.978   4.165  0.1761 -0.1623 -0.2420
 5887TIP3    H117600   2.449   7.882   4.163  3.5242 -0.0291  0.4945
 5887TIP3    H217601   2.503   8.007   4.096 -0.1817  1.4088  0.0859
 5888TIP3   OH217602   1.848   7.961   2.882  0.2231 -0.0512  0.7825
 5888TIP3    H117603   1.787   7.894   2.916 -1.2585  1.1651  0.5954
 5888TIP3    H217604   1.794   8.015   2.825  1.6851  0.6182  0.0168
 5889TIP3   OH217605   0.821   5.987   4.179 -0.1681 -0.0790 -0.0840
 5889TIP3    H117606   0.822   5.931   4.257  0.7152 -1.1879 -0.8653
 5889TIP3    H217607   0.794   5.928   4.108 -0.4987  0.8028 -0.6944
 5890TIP3   OH217608   4.894   2.513   5.107  0.5015 -0.4111 -0.0550
 5890TIP3    H117609   4.989   2.525   5.117  0.7157 -1.0887 -1.2077
 5890TIP3    H217610   4.865   2.592   5.061  0.3984  0.0853  0.8450
 5891TIP3   OH217611   1.481   7.912   4.775  0.5969 -0.2358 -0.1441
 5891TIP3    H117612   1.531   7.972   4.721  0.4802 -0.2335 -0.2511
 5891TIP3    H217613   1.448   7.966   4.847  2.2235 -0.6146  0.8965
 5892TIP3   OH217614   3.932   1.069   5.191 -0.3409  0.3748 -0.1343
 5892TIP3    H117615   4.012   1.113   5.222 -0.3579  0.7791 -0.6675
 5892TIP3    H217616   3.952   0.976   5.199 -0.4281  0.4593  1.3297
 5893TIP3   OH217617   2.208   7.226   3.980 -0.2279 -0.2723  0.1178
 5893TIP3    H117618   2.138   7.288   3.997 -1.9643 -1.9752 -0.5696
 5893TIP3    H217619   2.259   7.223   4.061 -1.7436  0.0069  1.0925
 5894TIP3   OH217620   6.968   1.089   5.116  0.1370  0.2447 -0.1127
 5894TIP3    H117621   6.938   0.999   5.101  2.2985 -0.8865  1.9106
 5894TIP3    H217622   7.020   1.110   5.038  0.8437 -0.8395  0.0467
 5895TIP3   OH217623   4.503   0.794   5.252  0.0325  0.3487  0.2022
 5895TIP3    H117624   4.574   0.859   5.250 -0.5122  1.0800  2.7654
 5895TIP3    H217625   4.433   0.834   5.199  1.2206 -0.0315 -1.6869
 5896TIP3   OH217626   0.215   7.457   3.623  0.3902  0.4389 -0.2837
 5896TIP3    H117627   0.271   7.405   3.680  1.2099  1.2770 -0.3088
 5896TIP3    H217628   0.169   7.393   3.569 -0.4050 -0.3754  1.3245
 5897TIP3   OH217629   4.921   1.203   5.087 -0.5061  0.2425  0.6586
 5897TIP3    H117630   4.895   1.181   4.998 -2.2733 -2.2530  1.7247
 5897TIP3    H217631   5.002   1.253   5.077 -0.9884  0.4732 -2.3547
 5898TIP3   OH217632   0.240   5.303   0.275  0.4580  0.1747  0.1795
 5898TIP3    H117633   0.311   5.274   0.218  0.3966  1.2938 -0.4809
 5898TIP3    H217634   0.169   5.327   0.214 -0.2307 -0.2843  0.7983
 5899TIP3   OH217635   5.617   4.516   6.207 -0.1808  0.3470  0.2524
 5899TIP3    H117636   5.640   4.595   6.255 -1.2652 -0.8307  2.8058
 5899TIP3    H217637   5.664   4.524   6.124 -1.5575  4.4113 -0.2416
 5900TIP3   OH217638   4.653   0.608   6.765 -0.7456  0.2292  0.0181
 5900TIP3    H117639   4.605   0.579   6.843 -1.8175 -0.0027 -0.7190
 5900TIP3    H217640   4.585   0.634   6.703 -0.0104 -1.7081 -1.6884
 5901TIP3   OH217641   4.593   1.104   2.524  0.4246  0.1437  0.0021
 5901TIP3    H117642   4.670   1.055   2.497 -1.5484 -2.0984 -1.7624
 5901TIP3    H217643   4.593   1.099   2.620  2.4486  0.1998  0.0246
 5902TIP3   OH217644   6.070   2.844   4.776 -0.1284 -0.1475  0.3509
 5902TIP3    H117645   6.000   2.806   4.829  0.9311 -1.0212  1.1327
 5902TIP3    H217646   6.117   2.768   4.742 -0.1577  0.4272 -0.9827
 5903TIP3   OH217647   6.927   0.830   4.654 -0.1915  0.6995 -0.6166
 5903TIP3    H117648   6.924   0.769   4.580 -2.1968  1.9930 -1.6516
 5903TIP3    H217649   6.943   0.916   4.614  2.5705  0.9118  0.8227
 5904TIP3   OH217650   5.508   2.567   6.887  0.2085 -0.4962 -0.6807
 5904TIP3    H117651   5.451   2.642   6.903  0.6419 -0.8398  2.7999
 5904TIP3    H217652   5.464   2.493   6.929  1.9912 -1.2600 -0.0825
 5905TIP3   OH217653   2.025   7.781   3.812  0.0293  0.0788 -0.6262
 5905TIP3    H117654   2.075   7.823   3.742 -1.3735 -0.0484 -1.7312
 5905TIP3    H217655   1.933   7.793   3.787 -0.4463 -1.6204  0.2207
 5906TIP3   OH217656   0.445   7.144   0.014  0.6566 -0.0941 -0.7430
 5906TIP3    H117657   0.410   7.226   0.049  1.3141  0.6382 -1.7844
 5906TIP3    H217658   0.468   7.093   0.092  1.2310  1.1290 -0.0972
 5907TIP3   OH217659   5.349   8.000   4.240 -0.1284  0.0315  0.1975
 5907TIP3    H117660   5.415   7.975   4.305 -0.9337 -4.0313 -0.4046
 5907TIP3    H217661   5.270   8.017   4.291  0.8687  3.3950  0.7759
 5908TIP3   OH217662   6.209   0.909   4.018  0.3380 -0.2206 -0.1663
 5908TIP3    H117663   6.187   0.843   3.952  0.0724  1.0759 -1.3979
 5908TIP3    H217664   6.280   0.959   3.979  0.6690  0.1057  0.8378
 5909TIP3   OH217665   4.806   1.089   6.189  0.4125 -0.2218 -0.3828
 5909TIP3    H117666   4.813   1.045   6.104  2.0715 -0.8084  0.0286
 5909TIP3    H217667   4.890   1.134   6.200  0.3194 -0.3603  1.0485
 5910TIP3   OH217668   5.057   1.469   5.108  0.0930 -0.0243 -0.5594
 5910TIP3    H117669   5.114   1.393   5.114  0.0917 -0.0603 -0.9611
 5910TIP3    H217670   5.094   1.521   5.037  1.1711  1.2587  0.9020
 5911TIP3   OH217671   5.103   1.109   5.477  0.3501  0.2529 -0.2953
 5911TIP3    H117672   5.062   1.079   5.396  0.5918  0.3493 -0.4536
 5911TIP3    H217673   5.101   1.032   5.534 -1.2812  0.6290  0.1917
 5912TIP3   OH217674   0.497   7.470   3.244 -0.0357  0.0552 -0.2661
 5912TIP3    H117675   0.541   7.407   3.188 -4.3024 -2.6201 -0.8818
 5912TIP3    H217676   0.476   7.421   3.324 -1.2092  1.4229  0.2877
 5913TIP3   OH217677   3.618   0.273   5.356 -0.3692 -0.3705  0.3648
 5913TIP3    H117678   3.689   0.266   5.421  0.3940 -1.0323 -0.5354
 5913TIP3    H217679   3.662   0.267   5.272 -1.5190 -0.8458 -0.2050
 5914TIP3   OH217680   6.643   1.232   5.049  0.1130  0.1794 -0.1166
 5914TIP3    H117681   6.726   1.186   5.031 -1.2229 -2.2033 -0.4591
 5914TIP3    H217682   6.601   1.238   4.963  0.7689  3.1896 -0.2829
 5915TIP3   OH217683   5.027   0.937   5.729  0.1146 -0.6798  0.3507
 5915TIP3    H117684   5.096   0.885   5.688  0.2805  0.4379 -0.7832
 5915TIP3    H217685   4.960   0.872   5.753  0.2657 -1.4198 -1.1599
 5916TIP3   OH217686   6.458   3.087   0.479  0.1436  0.5401  0.7166
 5916TIP3    H117687   6.554   3.077   0.479  0.2928  1.8721 -0.1558
 5916TIP3    H217688   6.432   3.071   0.389 -0.4340  0.5084  0.8869
 5917TIP3   OH217689   4.542   1.623   2.397 -0.1764 -0.5927  0.0245
 5917TIP3    H117690   4.472   1.659   2.452 -0.4994  0.1766 -0.8745
 5917TIP3    H217691   4.601   1.697   2.381 -0.9018 -0.4023 -1.9246
 5918TIP3   OH217692   4.439   1.578   5.193 -0.1972 -0.7353  0.6735
 5918TIP3    H117693   4.388   1.506   5.154  0.6158 -0.8393 -0.2127
 5918TIP3    H217694   4.530   1.553   5.179  0.1947 -1.8982  4.7027
 5919TIP3   OH217695   1.633   7.201   5.584  0.2665 -0.0247 -0.0907
 5919TIP3    H117696   1.604   7.134   5.645  0.0296  0.9104  0.8545
 5919TIP3    H217697   1.573   7.195   5.511 -0.7756  0.2451  0.7342
 5920TIP3   OH217698   0.816   4.135   1.526  0.1005 -0.7654  0.1904
 5920TIP3    H117699   0.893   4.139   1.582  0.1970 -0.4831  0.0419
 5920TIP3    H217700   0.843   4.180   1.446 -0.9257  1.3004  0.9744
 5921TIP3   OH217701   7.382   3.855   2.455  0.2666  0.0922  0.4338
 5921TIP3    H117702   7.374   3.930   2.396 -1.8965 -1.8885 -1.9264
 5921TIP3    H217703   7.294   3.844   2.493  1.2823  0.4893  3.0222
 5922TIP3   OH217704   2.178   7.454   4.747 -0.4958  0.5430  0.0192
 5922TIP3    H117705   2.262   7.488   4.777  0.1627 -0.3683 -0.7648
 5922TIP3    H217706   2.132   7.430   4.828 -0.2626  1.6374  0.4828
 5923TIP3   OH217707   1.437   7.225   4.631 -0.3279 -0.0630 -0.1884
 5923TIP3    H117708   1.446   7.191   4.542 -0.1623  0.0616 -0.2197
 5923TIP3    H217709   1.459   7.151   4.687  0.8194  0.2249 -0.2642
 5924TIP3   OH217710   1.545   0.027   4.207  0.1530  0.0017 -0.0154
 5924TIP3    H117711   1.528   0.065   4.120 -0.2433 -0.9043 -0.3433
 5924TIP3    H217712   1.476   0.063   4.262  0.2996  0.4451 -0.1205
 5925TIP3   OH217713   4.601   1.730   4.455  0.5599 -0.1909 -0.7427
 5925TIP3    H117714   4.537   1.784   4.408 -0.5276 -2.1411 -1.5782
 5925TIP3    H217715   4.660   1.793   4.496 -0.5184  1.6213 -1.8916
 5926TIP3   OH217716   3.701   7.073   5.065 -0.1716 -0.2365  0.7118
 5926TIP3    H117717   3.663   7.002   5.116  2.3988 -1.6119  0.7813
 5926TIP3    H217718   3.690   7.046   4.974  0.6950 -0.6868  0.7347
 5927TIP3   OH217719   5.280   0.851   4.242  0.2229  0.2858 -0.3551
 5927TIP3    H117720   5.283   0.834   4.337 -3.2185  1.5461  0.0309
 5927TIP3    H217721   5.347   0.793   4.206  0.8512 -1.0318  2.7437
 5928TIP3   OH217722   0.340   6.180   0.134  0.1483 -0.3501 -0.2869
 5928TIP3    H117723   0.379   6.151   0.216 -0.8295  1.3281  0.7946
 5928TIP3    H217724   0.406   6.235   0.093  0.5164 -0.9409 -0.5036
 5929TIP3   OH217725   6.717   1.547   5.276  0.3991 -0.3000  0.0423
 5929TIP3    H117726   6.772   1.563   5.199 -0.4266  2.0091 -0.0966
 5929TIP3    H217727   6.631   1.580   5.251  0.6924  2.7536  2.7876
 5930TIP3   OH217728   4.409   0.094   3.073 -0.2554  0.0739  0.1651
 5930TIP3    H117729   4.364   0.116   2.991 -1.7762  0.7992  1.1911
 5930TIP3    H217730   4.397  -0.001   3.081 -0.0540 -0.0102 -0.4844
 5931TIP3   OH217731   5.603   1.092   3.678 -0.3169 -0.4350 -0.2595
 5931TIP3    H117732   5.685   1.118   3.636 -0.5798 -1.5310 -1.4969
 5931TIP3    H217733   5.630   1.058   3.764  0.6817 -1.9090 -1.1248
 5932TIP3   OH217734   4.218   0.328   2.614  0.0401  0.2410  0.3714
 5932TIP3    H117735   4.132   0.356   2.583  0.3286  0.5895 -0.1146
 5932TIP3    H217736   4.279   0.357   2.546  0.3871 -1.2090  0.0530
 5933TIP3   OH217737   2.014   6.722   2.615  0.8848 -0.2806 -0.2516
 5933TIP3    H117738   1.954   6.677   2.556 -0.3047  0.8792  0.0718
 5933TIP3    H217739   2.100   6.687   2.592  0.4814  0.2975 -2.8306
 5934TIP3   OH217740   2.796   7.725   3.061 -0.0614  0.0084  0.2396
 5934TIP3    H117741   2.765   7.728   2.970  1.0599  0.2266 -0.1418
 5934TIP3    H217742   2.739   7.660   3.103 -0.2447 -0.4810 -0.7499
 5935TIP3   OH217743   3.440   0.115   5.090 -0.1118 -0.4282  0.6215
 5935TIP3    H117744   3.379   0.159   5.149 -0.8743 -1.3101  0.5023
 5935TIP3    H217745   3.460   0.032   5.133  0.5955 -0.3677  0.4122
 5936TIP3   OH217746   6.015   1.618   3.878  0.0779 -0.0705  0.3388
 5936TIP3    H117747   6.057   1.545   3.833 -1.2048 -1.1822  0.9128
 5936TIP3    H217748   6.022   1.692   3.817  1.3318 -0.6817 -0.2671
 5937TIP3   OH217749   7.790   2.106   3.122 -0.3541 -0.4243  0.4334
 5937TIP3    H117750   7.857   2.058   3.073 -0.5770 -0.8509  0.5428
 5937TIP3    H217751   7.831   2.125   3.206 -0.5401 -1.1339  0.6936
 5938TIP3   OH217752   2.850   7.299   6.860  0.1884 -0.2278  0.2120
 5938TIP3    H117753   2.797   7.374   6.887 -2.1299 -0.8213 -2.4267
 5938TIP3    H217754   2.816   7.226   6.912  1.8979  0.3672  2.1953
 5939TIP3   OH217755   3.170   7.978   3.166  0.0507 -0.0261  0.2681
 5939TIP3    H117756   3.222   7.918   3.113 -1.3450  0.9063 -2.2707
 5939TIP3    H217757   3.085   7.982   3.121 -1.3890  0.4000  2.8927
 5940TIP3   OH217758   4.737   0.580   5.609 -0.2681 -0.1449  0.6028
 5940TIP3    H117759   4.743   0.605   5.517 -2.2777 -0.6146  0.3408
 5940TIP3    H217760   4.770   0.491   5.612 -1.4023 -0.5815  0.1328
 5941TIP3   OH217761   5.218   0.268   5.168 -0.4015  0.1167  0.1830
 5941TIP3    H117762   5.297   0.318   5.144  0.5975 -1.1787  0.7379
 5941TIP3    H217763   5.217   0.194   5.107 -2.8241  1.6885 -1.7794
 5942TIP3   OH217764   2.074   5.607   4.189  0.0343  1.1295 -0.1822
 5942TIP3    H117765   2.017   5.612   4.113 -0.8396 -1.7151  0.2263
 5942TIP3    H217766   2.163   5.604   4.152 -0.2872  1.5924 -0.9997
 5943TIP3   OH217767   3.233   7.805   2.917  0.3150  0.1827  0.6795
 5943TIP3    H117768   3.229   7.747   2.841 -0.0156  0.4315  0.5078
 5943TIP3    H217769   3.265   7.888   2.883 -0.0655  0.3674  0.7712
 5944TIP3   OH217770   4.500   0.260   5.437  0.3249  0.3766 -0.2184
 5944TIP3    H117771   4.537   0.223   5.518  1.6545 -1.0651 -1.4540
 5944TIP3    H217772   4.510   0.355   5.448 -2.7162  0.4421  2.7931
 5945TIP3   OH217773   2.978   0.049   6.832 -0.0963 -0.3591  0.5078
 5945TIP3    H117774   2.996  -0.033   6.878 -1.1059 -0.2185  1.1783
 5945TIP3    H217775   2.889   0.072   6.857 -0.1759  0.4478 -0.4413
 5946TIP3   OH217776   1.950   0.171   0.575  0.4559  0.5207 -0.1505
 5946TIP3    H117777   2.030   0.144   0.531  0.7235  0.2503  0.4859
 5946TIP3    H217778   1.965   0.262   0.598  0.1809  0.7621 -0.9073
 5947TIP3   OH217779   0.006   7.671   1.148  0.2768 -0.0926 -0.0066
 5947TIP3    H117780  -0.055   7.713   1.087 -1.0976 -0.6345  0.9963
 5947TIP3    H217781   0.057   7.612   1.093  0.1237  0.5983 -0.9028
 5948TIP3   OH217782   2.771   1.588   6.847  0.1044 -0.1806  0.1580
 5948TIP3    H117783   2.852   1.639   6.850  0.4660 -0.7505  0.2479
 5948TIP3    H217784   2.791   1.515   6.788  0.2163 -1.2512  1.4859
 5949TIP3   OH217785   2.308   1.290   5.188 -0.5560 -0.3675  0.3230
 5949TIP3    H117786   2.382   1.289   5.248 -0.0652  1.0938 -0.2462
 5949TIP3    H217787   2.346   1.273   5.102 -0.6284  1.9672 -0.2072
 5950TIP3   OH217788   3.559   2.834   4.463 -0.4965 -0.4669 -0.3284
 5950TIP3    H117789   3.550   2.738   4.461 -0.5238 -0.5640  2.6378
 5950TIP3    H217790   3.651   2.848   4.488 -0.6521  0.2705 -0.1680
 5951TIP3   OH217791   5.730   2.973   4.667  0.2057  0.3625 -0.1305
 5951TIP3    H117792   5.647   3.014   4.643 -0.2121 -0.9153 -0.9203
 5951TIP3    H217793   5.704   2.896   4.718  0.9106  0.0065 -0.3059
 5952TIP3   OH217794   2.898   8.003   3.049 -0.4226  0.1658 -0.5666
 5952TIP3    H117795   2.863   7.916   3.069 -0.9735  0.1091 -1.7187
 5952TIP3    H217796   2.851   8.029   2.970  0.6782  0.9717 -0.9545
 5953TIP3   OH217797   5.063   1.093   6.245  0.2830 -0.2393 -0.0590
 5953TIP3    H117798   5.108   1.096   6.161  1.0055  0.1182  0.3351
 5953TIP3    H217799   5.123   1.137   6.306 -0.7681  0.5956  0.3885
 5954TIP3   OH217800   2.641   7.917   4.965  0.1600 -0.3956 -0.5595
 5954TIP3    H117801   2.641   7.862   4.887 -1.7389 -0.9846 -0.1591
 5954TIP3    H217802   2.614   7.859   5.036 -1.3707  0.9200 -0.0427
 5955TIP3   OH217803   7.520   6.587   0.681 -0.0773  0.5211  0.5447
 5955TIP3    H117804   7.472   6.533   0.618  0.1274 -1.7193  2.2384
 5955TIP3    H217805   7.452   6.625   0.736 -0.1568  0.8877  0.1897
 5956TIP3   OH217806   7.057   6.054   0.295  0.7772  0.3391  0.1553
 5956TIP3    H117807   6.967   6.051   0.328  0.9824  0.3123  0.7301
 5956TIP3    H217808   7.078   5.963   0.275  0.6224  0.3659 -0.1187
 5957TIP3   OH217809   6.851   2.622   3.318 -0.1326 -0.6139  0.2980
 5957TIP3    H117810   6.862   2.717   3.331 -1.8408 -0.2400 -0.7589
 5957TIP3    H217811   6.911   2.600   3.246  1.1218 -0.5719  1.3126
 5958TIP3   OH217812   4.535   1.695   5.599 -0.2247  0.4707 -0.1636
 5958TIP3    H117813   4.542   1.602   5.617 -0.9849  0.5763  0.7335
 5958TIP3    H217814   4.625   1.728   5.610  0.1255 -0.2146 -0.9053
 5959TIP3   OH217815   4.869   0.353   5.683  0.3331 -0.2804  0.1761
 5959TIP3    H117816   4.926   0.399   5.745  1.1777  0.6587 -1.2311
 5959TIP3    H217817   4.924   0.283   5.648 -0.1881 -0.9005  0.5989
 5960TIP3   OH217818   4.718   3.200   6.396  0.5565 -0.3251 -0.6211
 5960TIP3    H117819   4.687   3.157   6.317  0.8297 -1.7551  0.0368
 5960TIP3    H217820   4.638   3.229   6.440  0.4558  1.7228 -2.0811
 5961TIP3   OH217821   6.209   1.946   4.249  0.4876  0.2369 -0.0572
 5961TIP3    H117822   6.256   1.968   4.329  0.4034  0.2567 -0.0125
 5961TIP3    H217823   6.220   1.851   4.240 -0.5903  0.0345  0.6817
 5962TIP3   OH217824   7.292   0.523   3.977 -0.4858 -0.5905  0.0644
 5962TIP3    H117825   7.323   0.513   3.887 -0.7812 -1.3323  0.0388
 5962TIP3    H217826   7.300   0.616   3.995  0.2411 -0.5425 -0.4884
 5963TIP3   OH217827   3.802   1.372   6.916  0.0151 -0.2439  0.3142
 5963TIP3    H117828   3.859   1.296   6.900  0.2482  0.2610 -1.3571
 5963TIP3    H217829   3.861   1.447   6.916 -0.2876  0.0024  1.4337
 5964TIP3   OH217830   5.392   7.872   3.673  0.5073  0.5177  0.3706
 5964TIP3    H117831   5.345   7.852   3.754  1.0426  0.4710  0.6718
 5964TIP3    H217832   5.384   7.967   3.664  0.0020  0.4628  0.1979
 5965TIP3   OH217833   6.535   3.404   6.578 -0.4372 -0.3147 -0.2132
 5965TIP3    H117834   6.477   3.332   6.601 -1.7639  0.8153  0.0941
 5965TIP3    H217835   6.479   3.465   6.529  0.7946  0.2369 -0.9448
 5966TIP3   OH217836   0.124   2.436   4.782 -0.1770  0.6046  0.1854
 5966TIP3    H117837   0.047   2.488   4.763 -0.9196 -1.1420 -1.7438
 5966TIP3    H217838   0.186   2.459   4.712 -0.0345 -0.1411  0.0672
 5967TIP3   OH217839   6.405   1.270   2.824  0.8833  0.3630 -0.4104
 5967TIP3    H117840   6.395   1.176   2.842  0.6422  0.6401  0.9716
 5967TIP3    H217841   6.464   1.301   2.892  0.5247  1.3288 -0.5356
 5968TIP3   OH217842   8.102   1.071   4.512 -0.3224 -0.0860  0.3949
 5968TIP3    H117843   8.061   1.102   4.592 -0.7359 -2.3833  1.1239
 5968TIP3    H217844   8.062   0.986   4.496  0.3526 -0.0236 -1.8089
 5969TIP3   OH217845   4.727   2.387   4.726 -0.0703  0.1537  0.0102
 5969TIP3    H117846   4.743   2.330   4.801  0.6712  0.6771  0.2518
 5969TIP3    H217847   4.719   2.327   4.652  0.2560 -0.2915  0.3319
 5970TIP3   OH217848   3.697   7.848   4.499 -0.0618 -0.4412 -0.2683
 5970TIP3    H117849   3.724   7.805   4.580 -1.5800  0.7054  0.8866
 5970TIP3    H217850   3.617   7.803   4.473 -0.7614  0.5743  0.0662
 5971TIP3   OH217851   5.848   7.233   6.367 -0.2563  0.0776 -0.7607
 5971TIP3    H117852   5.808   7.234   6.280 -0.7976  1.3171 -0.4973
 5971TIP3    H217853   5.784   7.275   6.424 -0.8342 -2.6447  0.6658
 5972TIP3   OH217854   8.287   0.465   5.414  0.1043  0.3117  0.0261
 5972TIP3    H117855   8.310   0.512   5.494  0.2168 -0.4502  0.4494
 5972TIP3    H217856   8.216   0.515   5.375 -0.7180  0.0532  1.1934
 5973TIP3   OH217857   6.747   0.776   6.009 -0.1901  0.4217 -0.1785
 5973TIP3    H117858   6.721   0.777   6.101 -1.5292 -0.2409 -0.5340
 5973TIP3    H217859   6.685   0.834   5.965 -0.2467 -0.1243 -0.8353
 5974TIP3   OH217860   6.299   1.663   4.964  0.1100  0.4079 -0.0683
 5974TIP3    H117861   6.307   1.620   4.879 -1.0991  0.3686 -0.1819
 5974TIP3    H217862   6.311   1.756   4.946  3.1435  0.1053  0.2381
 5975TIP3   OH217863   0.598   0.480   2.649  0.3967 -0.1211  0.0433
 5975TIP3    H117864   0.680   0.481   2.599  0.3284  0.8588 -0.0695
 5975TIP3    H217865   0.557   0.397   2.627  0.4907  0.1814 -1.3392
 5976TIP3   OH217866   8.446   1.072   3.716  0.7986 -0.1502 -0.3494
 5976TIP3    H117867   8.425   0.984   3.684 -0.6302  0.2898 -0.6608
 5976TIP3    H217868   8.498   1.112   3.646  0.1104 -0.1992 -0.8929
 5977TIP3   OH217869   4.552   0.309   4.650 -0.0878  0.2781  0.4394
 5977TIP3    H117870   4.497   0.276   4.721  0.7590 -2.4834 -0.1424
 5977TIP3    H217871   4.639   0.272   4.668  0.6601  1.4263 -0.7784
 5978TIP3   OH217872   7.617   2.442   1.448 -0.4000  0.7021  0.1901
 5978TIP3    H117873   7.618   2.448   1.544  0.0265  0.4939  0.2010
 5978TIP3    H217874   7.710   2.447   1.423 -0.4804  0.3101 -0.1856
 5979TIP3   OH217875   6.664   1.449   2.906 -0.7872  1.0317  0.3895
 5979TIP3    H117876   6.697   1.534   2.936 -1.4868  1.2619  0.5152
 5979TIP3    H217877   6.692   1.387   2.974  0.9985  0.9149 -0.4327
 5980TIP3   OH217878   7.202   1.120   3.650 -0.2421 -0.3083  0.1985
 5980TIP3    H117879   7.223   1.210   3.673  1.4188 -1.1874  2.2422
 5980TIP3    H217880   7.150   1.088   3.723 -1.7878 -0.7004 -1.0312
 5981TIP3   OH217881   6.801   1.236   5.309 -0.3411 -0.0330  0.1926
 5981TIP3    H117882   6.841   1.185   5.239  0.7497  1.0114  0.0564
 5981TIP3    H217883   6.711   1.251   5.280  0.2008  0.6784 -1.1252
 5982TIP3   OH217884   7.848   0.581   3.972 -0.5241 -0.3009  0.9157
 5982TIP3    H117885   7.912   0.640   4.011 -0.1304 -0.1218 -0.0088
 5982TIP3    H217886   7.894   0.497   3.964  0.3039  0.3626 -1.7035
 5983TIP3   OH217887   8.196   0.974   3.442 -0.3941  0.1134  0.8033
 5983TIP3    H117888   8.254   1.039   3.403 -0.1884  0.1501  1.1706
 5983TIP3    H217889   8.243   0.943   3.520 -0.2504 -0.8453  0.3500
 5984TIP3   OH217890   5.768   1.705   3.525 -0.4291 -0.1938 -0.0038
 5984TIP3    H117891   5.674   1.709   3.507 -0.2324  0.0711 -0.9988
 5984TIP3    H217892   5.778   1.626   3.578 -1.1865 -0.3440 -0.0675
 5985TIP3   OH217893   8.338   0.822   3.647 -0.2195  0.4039  0.8194
 5985TIP3    H117894   8.410   0.773   3.607 -0.3807 -0.0107  1.0380
 5985TIP3    H217895   8.277   0.755   3.677  0.5160  0.6820  2.9603
 5986TIP3   OH217896   8.029   1.988   3.011  0.3150  0.2910 -0.3508
 5986TIP3    H117897   8.095   1.923   2.987 -0.0501  0.0839 -0.7989
 5986TIP3    H217898   8.006   2.031   2.929  0.1074  0.5680 -0.1513
 5987TIP3   OH217899   1.129   1.810   4.232  0.4059 -0.2385 -0.4382
 5987TIP3    H117900   1.069   1.735   4.225 -1.1143  1.0742 -1.8921
 5987TIP3    H217901   1.092   1.876   4.173  1.9697  1.5111  0.4909
 5988TIP3   OH217902   0.870   0.937   3.366 -0.2450  0.0347 -0.1847
 5988TIP3    H117903   0.917   0.880   3.426  1.6163  1.2752 -0.4329
 5988TIP3    H217904   0.822   0.878   3.309  1.5480 -1.2774 -0.3537
 5989TIP3   OH217905   6.364   1.108   4.374  0.3094  0.4180  0.2013
 5989TIP3    H117906   6.288   1.050   4.376  2.0712 -1.9448  0.6956
 5989TIP3    H217907   6.397   1.102   4.284 -0.8128  2.4537 -0.3746
 5990TIP3   OH217908   7.516   2.355   3.967  0.6294 -0.4205 -0.1535
 5990TIP3    H117909   7.470   2.320   4.043 -0.7152  0.8096 -0.3574
 5990TIP3    H217910   7.588   2.406   4.003  0.2115 -0.1392  0.2876
 5991TIP3   OH217911   6.479   3.069   4.174 -0.4607 -0.1640  0.0132
 5991TIP3    H117912   6.539   3.014   4.225  0.6298  1.1885  0.2096
 5991TIP3    H217913   6.503   3.051   4.083 -0.1605 -0.0795  0.0730
 5992TIP3   OH217914   7.777   0.045   6.256 -0.0462  0.1536  0.1945
 5992TIP3    H117915   7.775  -0.000   6.341  3.1043 -1.5542 -0.5773
 5992TIP3    H217916   7.709   0.002   6.204  1.8828 -2.7407 -0.0135
 5993TIP3   OH217917   7.159   1.245   5.715 -0.6120 -0.6071  0.1273
 5993TIP3    H117918   7.129   1.336   5.718 -0.1535 -0.4953  2.0226
 5993TIP3    H217919   7.083   1.194   5.745 -0.8546 -0.8625 -0.8909
 5994TIP3   OH217920   7.578   1.443   6.709  0.0905 -0.0889  0.0950
 5994TIP3    H117921   7.555   1.500   6.635 -1.8986  0.0388  0.7712
 5994TIP3    H217922   7.565   1.497   6.786 -0.2069 -0.9585  0.6610
 5995TIP3   OH217923   0.700   0.721   3.269 -0.6595 -0.0019  0.2491
 5995TIP3    H117924   0.615   0.684   3.292 -0.4296 -0.5141  0.2903
 5995TIP3    H217925   0.685   0.765   3.185 -0.3092 -2.6043 -1.2513
 5996TIP3   OH217926   7.981   1.870   3.742  0.0591  0.1400  0.3867
 5996TIP3    H117927   7.956   1.781   3.768 -2.0762  0.8600  0.8993
 5996TIP3    H217928   8.020   1.908   3.820  1.5879 -0.5382 -0.0227
 5997TIP3   OH217929   7.282   1.789   1.997 -0.0409 -0.0722  0.5629
 5997TIP3    H117930   7.204   1.786   2.052 -0.2945 -0.5577  0.1757
 5997TIP3    H217931   7.252   1.825   1.914 -0.1875 -1.7988 -0.1372
 5998TIP3   OH217932   6.108   1.618   4.197  0.4963  0.0453 -0.0844
 5998TIP3    H117933   6.029   1.671   4.210 -0.8281 -1.6777 -0.9391
 5998TIP3    H217934   6.106   1.597   4.103  0.5763 -2.1426  0.3818
 5999TIP3   OH217935   4.320   7.569   5.551  0.7683 -0.2648  0.1124
 5999TIP3    H117936   4.266   7.638   5.512 -0.0345 -1.0781 -0.2432
 5999TIP3    H217937   4.410   7.598   5.537  0.4616  0.1429 -1.0955
 6000TIP3   OH217938   8.287   2.188   2.599  0.2388 -0.0962 -0.5592
 6000TIP3    H117939   8.198   2.225   2.596 -0.4931 -1.7057  0.8261
 6000TIP3    H217940   8.331   2.237   2.669  0.5146  0.8004 -1.3413
 6001TIP3   OH217941   6.215   2.326   3.371  0.0525 -0.2747  0.3032
 6001TIP3    H117942   6.215   2.419   3.346 -1.8540 -0.4311 -0.3229
 6001TIP3    H217943   6.223   2.328   3.467  1.7584  0.4624  0.1756
 6002TIP3   OH217944   4.037   0.496   4.375 -0.3815  0.2819 -0.2484
 6002TIP3    H117945   4.062   0.502   4.283 -0.7252  1.5796 -0.2751
 6002TIP3    H217946   4.115   0.463   4.419 -0.1449 -0.1380 -0.9740
 6003TIP3   OH217947   6.233   7.911   3.946  0.3029 -0.0822  0.1565
 6003TIP3    H117948   6.181   7.868   4.013  1.4529 -1.4649  0.1999
 6003TIP3    H217949   6.323   7.909   3.980  0.5735  1.2068 -0.4318
 6004TIP3   OH217950   5.218   1.023   5.002 -0.2295 -0.1401  0.4551
 6004TIP3    H117951   5.288   1.048   4.940 -0.5016 -0.5235 -0.0097
 6004TIP3    H217952   5.217   1.094   5.066 -2.4588  2.2142 -2.0613
 6005TIP3   OH217953   6.937   0.236   4.411  0.3429 -0.2401 -0.0172
 6005TIP3    H117954   6.928   0.202   4.500  1.9605 -1.0572 -0.1421
 6005TIP3    H217955   7.027   0.270   4.408  0.3923 -0.4911 -1.4303
 6006TIP3   OH217956   5.576   0.737   4.199 -0.5830  0.3953  0.5247
 6006TIP3    H117957   5.630   0.662   4.223 -0.3868  0.1394 -0.7237
 6006TIP3    H217958   5.637   0.811   4.198 -0.6077  0.4208  0.9001
 6007TIP3   OH217959   5.455   1.293   4.982 -0.0084  1.1643 -0.3858
 6007TIP3    H117960   5.452   1.362   4.915  0.1765  0.3116 -1.2907
 6007TIP3    H217961   5.492   1.217   4.936 -3.5493 -0.6432 -0.4161
 6008TIP3   OH217962   7.059   2.674   3.938 -0.2548 -0.0749 -0.6463
 6008TIP3    H117963   7.122   2.650   4.005 -0.2633 -2.5420 -1.4680
 6008TIP3    H217964   6.986   2.713   3.986 -0.3903 -2.0629  0.8296
 6009TIP3   OH217965   7.559   2.645   3.177 -0.4650  0.0488 -0.0607
 6009TIP3    H117966   7.567   2.552   3.198  1.0930 -0.0298 -0.9037
 6009TIP3    H217967   7.627   2.660   3.112  1.1184  2.3600  2.0212
 6010TIP3   OH217968   2.490   7.690   5.082 -0.3377  0.6322 -0.0661
 6010TIP3    H117969   2.419   7.746   5.112 -0.9682  0.0276 -0.4248
 6010TIP3    H217970   2.467   7.668   4.992  0.1338  0.1523 -0.0718
 6011TIP3   OH217971   5.507   0.427   6.179 -0.1324  0.5194 -0.0012
 6011TIP3    H117972   5.507   0.333   6.199 -0.4139  0.4922 -0.1216
 6011TIP3    H217973   5.533   0.431   6.087 -1.3026  0.4752 -0.3500
 6012TIP3   OH217974   7.373   1.115   2.939  0.1715  0.2093 -0.2527
 6012TIP3    H117975   7.318   1.165   3.000  0.4505  1.1884 -0.7884
 6012TIP3    H217976   7.311   1.058   2.893 -0.1358 -0.0291  0.4439
 6013TIP3   OH217977   6.846   0.306   6.637 -0.1782 -0.0372  0.4802
 6013TIP3    H117978   6.819   0.222   6.599  0.1792  0.1190 -0.1327
 6013TIP3    H217979   6.940   0.310   6.623 -0.4302  1.2601 -1.1419
 6014TIP3   OH217980   2.810   7.201   4.259  0.7082 -0.4008  0.8047
 6014TIP3    H117981   2.841   7.238   4.176  1.8712 -0.2487  1.3011
 6014TIP3    H217982   2.730   7.155   4.236  2.2275 -2.3201 -0.8431
 6015TIP3   OH217983   0.749   0.343   4.334  0.5351 -0.2387  0.1809
 6015TIP3    H117984   0.741   0.282   4.260 -1.7864 -1.4832  1.4285
 6015TIP3    H217985   0.689   0.414   4.313  1.6824  0.6245 -0.2578
 6016TIP3   OH217986   0.026   0.680   6.437  0.5293 -0.0439  0.2256
 6016TIP3    H117987   0.006   0.595   6.399  1.1849 -0.3114  0.4543
 6016TIP3    H217988   0.018   0.666   6.531 -1.4813  0.7201  0.1819
 6017TIP3   OH217989   7.535   1.767   2.486  0.0351 -0.2375 -0.3501
 6017TIP3    H117990   7.565   1.829   2.553 -1.3369  0.5141 -0.3997
 6017TIP3    H217991   7.583   1.687   2.503  0.5758  0.3225  0.7990
 6018TIP3   OH217992   7.169   1.597   6.416  0.1351  0.0335  0.1516
 6018TIP3    H117993   7.106   1.604   6.344  0.6773 -0.0609 -0.3346
 6018TIP3    H217994   7.198   1.506   6.415  2.3068  0.6983 -1.3700
 6019TIP3   OH217995   0.461   1.348   5.433 -0.4578  0.7473 -0.4077
 6019TIP3    H117996   0.493   1.437   5.420 -2.8094  1.6817 -0.2064
 6019TIP3    H217997   0.417   1.351   5.518 -0.1944 -0.7165 -0.2062
 6020TIP3   OH217998   1.528   0.145   3.964  0.2058 -0.8484 -0.3243
 6020TIP3    H117999   1.515   0.104   3.879  0.3697  0.5749 -1.0569
 6020TIP3    H218000   1.618   0.178   3.961  0.3702 -1.2033  0.5749
 6021TIP3   OH218001   7.125   0.300   4.986 -0.1029  0.1162  0.4285
 6021TIP3    H118002   7.086   0.331   4.905  0.0505 -1.0497 -0.1020
 6021TIP3    H218003   7.052   0.266   5.037  0.0539 -0.9831 -0.0684
 6022TIP3   OH218004   3.440   5.812   3.945  0.5929 -0.4647 -0.2807
 6022TIP3    H118005   3.356   5.788   3.907  0.3046 -2.0131  1.2904
 6022TIP3    H218006   3.484   5.728   3.961  1.6208  0.2488  0.7182
 6023TIP3   OH218007   7.936   2.087   4.758  0.3436  0.2374 -0.1196
 6023TIP3    H118008   7.893   2.077   4.843 -0.2498  1.7053 -0.2326
 6023TIP3    H218009   7.930   2.181   4.739  0.9499  0.0011 -1.5320
 6024TIP3   OH218010   8.242   0.830   5.245 -0.5685  0.0673 -0.1520
 6024TIP3    H118011   8.224   0.751   5.192  1.5047 -0.5620  0.0484
 6024TIP3    H218012   8.253   0.900   5.180 -0.6192 -0.1673 -0.4168
 6025TIP3   OH218013   1.609   3.940   0.145  0.1814  0.2443  0.0119
 6025TIP3    H118014   1.693   3.913   0.108 -1.4005 -2.1854 -1.9188
 6025TIP3    H218015   1.579   4.011   0.089  0.2549  0.1296 -0.1721
 6026TIP3   OH218016   4.169   7.030   3.841 -0.3682 -0.0556 -0.0573
 6026TIP3    H118017   4.235   7.015   3.908 -1.7131 -1.3158  1.0203
 6026TIP3    H218018   4.096   6.972   3.865 -1.8884  1.3201 -1.1878
 6027TIP3   OH218019   7.157   1.354   4.681 -0.0110 -0.0008 -0.0227
 6027TIP3    H118020   7.066   1.380   4.695 -1.0078 -2.0845 -2.3186
 6027TIP3    H218021   7.197   1.430   4.638 -1.0136  0.4277 -0.2010
 6028TIP3   OH218022   7.063   1.250   1.743 -0.4536 -0.0020  0.1102
 6028TIP3    H118023   7.142   1.299   1.766 -1.4287  1.6260  0.0182
 6028TIP3    H218024   7.082   1.214   1.656 -0.0126  0.8220 -0.1405
 6029TIP3   OH218025   5.579   0.386   2.749  0.6140  0.2095 -0.7558
 6029TIP3    H118026   5.526   0.410   2.825 -0.4581 -0.8964 -1.1443
 6029TIP3    H218027   5.642   0.457   2.740 -0.2416  1.1019  0.2417
 6030TIP3   OH218028   8.446   1.132   3.401 -0.0743  0.1092  0.0585
 6030TIP3    H118029   8.478   1.073   3.333 -1.4933  1.7633 -2.1375
 6030TIP3    H218030   8.519   1.191   3.418 -0.6314  1.5491 -2.2417
 6031TIP3   OH218031   4.049   7.724   4.291  0.5289 -0.0317  0.4696
 6031TIP3    H118032   4.071   7.683   4.375 -1.6342 -0.4019  0.8965
 6031TIP3    H218033   4.133   7.746   4.252  1.6601 -2.1071  1.6313
 6032TIP3   OH218034   8.379   0.443   4.717 -0.1444 -0.1412  0.1946
 6032TIP3    H118035   8.397   0.537   4.720  0.1089 -0.1183 -1.4609
 6032TIP3    H218036   8.299   0.432   4.768  0.4439  0.8102  1.3350
 6033TIP3   OH218037   4.231   7.912   4.795  0.0926  0.1551  0.3624
 6033TIP3    H118038   4.197   7.828   4.824  1.0718 -0.7754 -1.1014
 6033TIP3    H218039   4.298   7.890   4.729 -0.0632  2.0762 -0.4924
 6034TIP3   OH218040   7.003   5.774   3.745  0.1250  0.1675 -0.4035
 6034TIP3    H118041   7.054   5.701   3.781  1.2881  0.8227 -0.7003
 6034TIP3    H218042   7.030   5.850   3.796 -2.3338  0.1206  1.0399
 6035TIP3   OH218043   7.091   1.989   6.648  0.2831 -0.7419  0.0853
 6035TIP3    H118044   7.068   2.028   6.564 -0.0883  0.5208  0.7661
 6035TIP3    H218045   7.086   1.894   6.633 -1.8626 -0.5136 -0.7363
 6036TIP3   OH218046   8.333   0.217   4.582  0.0980  0.4096 -0.7308
 6036TIP3    H118047   8.376   0.152   4.639  1.0637  1.4573 -0.2447
 6036TIP3    H218048   8.338   0.299   4.631 -3.5849  0.3584 -0.0935
 6037TIP3   OH218049   7.395   0.779   4.981 -0.0258  0.5390 -0.0306
 6037TIP3    H118050   7.388   0.765   4.887  1.4363  0.8851 -0.2135
 6037TIP3    H218051   7.380   0.873   4.993  0.1104  0.5536  0.0346
 6038TIP3   OH218052   0.563   0.832   3.520 -0.2158 -0.1714 -0.1388
 6038TIP3    H118053   0.536   0.741   3.506 -0.6686 -0.0297 -0.2050
 6038TIP3    H218054   0.624   0.851   3.450 -0.8289 -0.1360 -0.6661
 6039TIP3   OH218055   6.765   0.073   2.390  0.1822 -0.7802 -0.2738
 6039TIP3    H118056   6.791   0.158   2.427 -1.4811 -0.3724  0.0012
 6039TIP3    H218057   6.827   0.010   2.428 -1.0570 -0.2625  2.6876
 6040TIP3   OH218058   0.305   0.762   2.882 -0.1420 -0.3794 -0.4681
 6040TIP3    H118059   0.240   0.832   2.890 -1.5395 -1.5849 -0.9016
 6040TIP3    H218060   0.361   0.789   2.809 -1.2645 -0.1615 -1.2676
 6041TIP3   OH218061   7.964   1.612   2.847  0.1250  0.7184  0.2095
 6041TIP3    H118062   7.975   1.519   2.824 -0.3096  0.4484  1.0944
 6041TIP3    H218063   7.931   1.652   2.766 -0.2258 -0.0033 -0.0165
 6042TIP3   OH218064   7.820   1.275   2.443 -0.5194  0.5276  0.1266
 6042TIP3    H118065   7.755   1.297   2.375 -0.4412  0.5123  0.0476
 6042TIP3    H218066   7.771   1.224   2.507 -0.3470 -0.3588 -0.4430
 6043TIP3   OH218067   7.340   1.909   4.599 -0.3556 -0.1186  0.0836
 6043TIP3    H118068   7.391   1.988   4.617 -0.7046 -0.0260  0.6844
 6043TIP3    H218069   7.269   1.938   4.542 -0.5409  0.0151  0.3859
 6044TIP3   OH218070   5.940   0.752   5.995 -0.1686 -0.2964  0.3262
 6044TIP3    H118071   5.887   0.809   6.051 -0.3970 -0.2415  0.0539
 6044TIP3    H218072   5.886   0.738   5.917  0.3596  0.0479 -0.1046
 6045TIP3   OH218073   6.878   1.788   4.030 -0.0405 -0.2681 -0.0546
 6045TIP3    H118074   6.880   1.847   3.955 -0.1373 -0.1154  0.0622
 6045TIP3    H218075   6.957   1.736   4.021  0.7601  0.8126  0.5901
 6046TIP3   OH218076   6.436   4.362   2.694  0.0542  0.6404  0.0420
 6046TIP3    H118077   6.511   4.304   2.697 -0.3841  0.1279  1.5277
 6046TIP3    H218078   6.423   4.389   2.785 -2.0332  0.0672 -0.0581
 6047TIP3   OH218079   7.489   1.618   3.976  0.0321  0.3628 -0.1533
 6047TIP3    H118080   7.574   1.578   3.992 -0.5187 -0.5474  0.5206
 6047TIP3    H218081   7.507   1.686   3.910  1.3649  0.5517  0.3781
 6048TIP3   OH218082   5.950   0.967   2.146 -0.2624  0.3090  0.1433
 6048TIP3    H118083   6.004   0.999   2.073 -0.1000  0.5256  0.3577
 6048TIP3    H218084   6.013   0.946   2.215 -0.3077 -1.2169 -0.2671
 6049TIP3   OH218085   4.999   0.439   3.574  0.2329  0.4019 -0.4097
 6049TIP3    H118086   5.050   0.494   3.515 -0.2407  1.0162 -0.2460
 6049TIP3    H218087   4.967   0.498   3.642 -0.5820  0.0035 -0.4309
 6050TIP3   OH218088   0.672   1.800   2.828 -0.4435  0.4518  0.8234
 6050TIP3    H118089   0.713   1.739   2.889 -0.5937  1.6472  2.1592
 6050TIP3    H218090   0.743   1.831   2.772  0.1350  1.0187  1.8484
 6051TIP3   OH218091   8.102   1.285   4.788 -0.0771  0.2817 -0.2539
 6051TIP3    H118092   8.067   1.292   4.877 -1.3329  2.1973 -0.8868
 6051TIP3    H218093   8.024   1.280   4.732  0.7039  0.9614 -1.4012
 6052TIP3   OH218094   5.796   1.463   3.647  0.7735  0.5314 -0.0656
 6052TIP3    H118095   5.729   1.418   3.698  1.7193  0.3131  0.9896
 6052TIP3    H218096   5.844   1.393   3.603  1.0668  0.6074  0.1281
 6053TIP3   OH218097   5.306   0.733   4.522 -0.1514  0.2359 -0.0270
 6053TIP3    H118098   5.307   0.727   4.617  0.9636  0.6014 -0.0122
 6053TIP3    H218099   5.358   0.658   4.492  0.1588  0.5686 -0.3258
 6054TIP3   OH218100   1.320   7.440   6.129  0.0482 -0.1774  0.1169
 6054TIP3    H118101   1.227   7.451   6.109 -0.0687 -1.6684 -0.2261
 6054TIP3    H218102   1.326   7.451   6.223 -0.6858 -1.2845  0.3092
 6055TIP3   OH218103   5.935   0.437   5.202  0.1118 -0.0955  0.0429
 6055TIP3    H118104   5.875   0.433   5.277  1.2376  3.4214  1.2648
 6055TIP3    H218105   6.011   0.387   5.230 -0.5563 -1.0496  0.1688
 6056TIP3   OH218106   6.633   2.917   3.585 -0.4620 -0.4177  0.4304
 6056TIP3    H118107   6.633   2.921   3.489 -0.2657  1.6563  0.5127
 6056TIP3    H218108   6.691   2.843   3.605 -0.2560 -0.6755 -1.0404
 6057TIP3   OH218109   3.511   7.160   3.732  0.4301 -0.0574  0.0621
 6057TIP3    H118110   3.546   7.118   3.654  1.3725  0.1884  0.3410
 6057TIP3    H218111   3.445   7.220   3.700  0.4725 -0.3109 -0.5041
 6058TIP3   OH218112   7.732   1.116   3.937 -0.9658 -0.1379 -0.4536
 6058TIP3    H118113   7.709   1.057   4.009 -1.2977  0.6299  0.0764
 6058TIP3    H218114   7.822   1.093   3.916 -1.2097 -1.0884 -0.4975
 6059TIP3   OH218115   6.107   4.258   3.438 -0.3351  0.5127  0.0209
 6059TIP3    H118116   6.194   4.233   3.469 -0.3590  2.1254  1.4533
 6059TIP3    H218117   6.100   4.351   3.458 -2.3381  0.4298 -0.1978
 6060TIP3   OH218118   1.588   2.369   2.504 -0.1774 -0.3727  0.9136
 6060TIP3    H118119   1.680   2.395   2.514 -0.5132  0.2458  2.4849
 6060TIP3    H218120   1.546   2.444   2.461  0.2081 -0.9754 -0.5351
 6061TIP3   OH218121   8.240   1.691   4.412 -0.5476 -0.9145  0.3659
 6061TIP3    H118122   8.250   1.612   4.465 -1.0959  0.9772  3.3644
 6061TIP3    H218123   8.291   1.758   4.458  1.2934  0.1456 -3.0091
 6062TIP3   OH218124   7.445   2.827   6.206 -0.2043 -0.3239  0.2253
 6062TIP3    H118125   7.477   2.798   6.121 -0.0735  1.5110 -0.3518
 6062TIP3    H218126   7.467   2.755   6.265  1.6945 -0.6582 -0.8677
 6063TIP3   OH218127   0.832   0.920   4.190  0.1062  0.1343  0.1785
 6063TIP3    H118128   0.816   0.946   4.280  0.2391  0.5865  0.0692
 6063TIP3    H218129   0.750   0.878   4.162  0.0931 -0.0775  0.5310
 6064TIP3   OH218130   7.055   1.749   2.130  0.5664  0.4486 -0.4616
 6064TIP3    H118131   7.078   1.657   2.112  2.2614  0.6768  0.4476
 6064TIP3    H218132   7.014   1.747   2.216  0.2746  0.5094 -0.5975
 6065TIP3   OH218133   3.719   7.639   5.098 -0.0392 -0.0014  0.1830
 6065TIP3    H118134   3.718   7.643   5.002 -0.3297 -0.9353  0.1411
 6065TIP3    H218135   3.777   7.565   5.118  0.9648  0.9309  0.7598
 6066TIP3   OH218136   0.709   3.266   0.331 -0.1766  0.3533  0.5247
 6066TIP3    H118137   0.803   3.271   0.348 -0.2655  0.7952  0.9107
 6066TIP3    H218138   0.695   3.177   0.300  0.1833 -0.0892  1.6096
 6067TIP3   OH218139   0.223   1.997   2.932  0.3455 -0.2050 -0.0734
 6067TIP3    H118140   0.163   1.970   3.001 -0.0255 -2.3412 -1.1807
 6067TIP3    H218141   0.169   1.999   2.853  1.5606 -1.5644 -0.9673
 6068TIP3   OH218142   7.056   3.314   6.007  0.2494 -0.0320  0.1268
 6068TIP3    H118143   7.062   3.247   6.075 -1.1898  0.7042  0.9967
 6068TIP3    H218144   7.143   3.352   6.003 -0.1049  1.1662  2.8647
 6069TIP3   OH218145   1.063   1.518   2.297 -0.0589 -0.0266  0.3321
 6069TIP3    H118146   1.109   1.593   2.259 -2.4342  1.8383  0.9761
 6069TIP3    H218147   0.996   1.497   2.232 -1.3454  0.3813  1.5198
 6070TIP3   OH218148   7.840   0.626   3.709  0.0258  0.0362  0.2474
 6070TIP3    H118149   7.844   0.533   3.688 -0.0382 -0.1625  1.1079
 6070TIP3    H218150   7.814   0.629   3.801 -1.6782  0.9325 -0.2461
 6071TIP3   OH218151   4.830   0.610   3.234 -0.4329  0.2682  0.2732
 6071TIP3    H118152   4.906   0.648   3.278 -0.3108  0.1311  0.1834
 6071TIP3    H218153   4.798   0.543   3.294  0.7952 -1.1397 -0.5966
 6072TIP3   OH218154   5.210   5.851   1.883  0.0059 -0.2794 -0.4006
 6072TIP3    H118155   5.250   5.893   1.807 -1.2449 -0.4054 -1.1541
 6072TIP3    H218156   5.198   5.760   1.856  1.4230 -0.8087  0.7062
 6073TIP3   OH218157   7.198   2.357   3.155 -0.0247  0.2976  0.1343
 6073TIP3    H118158   7.277   2.313   3.187  0.6707 -0.6816 -2.7772
 6073TIP3    H218159   7.126   2.305   3.191  0.7301 -0.5996  0.3769
 6074TIP3   OH218160   6.776   1.056   5.509 -0.0444  0.0772  0.0808
 6074TIP3    H118161   6.734   1.113   5.573 -0.4667  1.3718 -1.3297
 6074TIP3    H218162   6.788   1.111   5.432 -0.8323 -1.8245 -1.4537
 6075TIP3   OH218163   6.599   2.150   2.989  0.2789 -0.1725 -0.3626
 6075TIP3    H118164   6.554   2.230   2.961 -1.1773 -1.0466 -0.5692
 6075TIP3    H218165   6.586   2.148   3.084  0.6227  0.0122 -0.3098
 6076TIP3   OH218166   5.437   0.475   1.445  0.3398 -0.3085 -0.0319
 6076TIP3    H118167   5.435   0.477   1.540 -0.7465  0.1966 -0.0627
 6076TIP3    H218168   5.414   0.385   1.422 -1.0841 -0.0044  0.1511
 6077TIP3   OH218169  -0.017   0.083   5.373  0.1750  0.8423  0.0977
 6077TIP3    H118170   0.075   0.082   5.398  0.4167  0.2852 -0.7870
 6077TIP3    H218171  -0.028   0.163   5.322  0.0601  1.1532  0.6128
 6078TIP3   OH218172   0.186   1.979   4.651 -0.2698 -0.2570 -0.2174
 6078TIP3    H118173   0.155   2.018   4.570  0.0680  0.1270 -0.1675
 6078TIP3    H218174   0.153   2.037   4.720 -2.6433 -1.9416  0.0972
 6079TIP3   OH218175   5.034   0.793   4.113 -0.4768  0.1215 -0.0032
 6079TIP3    H118176   4.992   0.873   4.083  2.6262  1.3169 -1.3655
 6079TIP3    H218177   5.096   0.821   4.181  0.8290 -1.0612 -0.6668
 6080TIP3   OH218178   6.925   1.363   4.957 -0.3155 -0.1339 -0.2832
 6080TIP3    H118179   6.833   1.371   4.981 -0.1232  0.8909  0.1265
 6080TIP3    H218180   6.947   1.447   4.916  0.8729  0.2649  1.1302
 6081TIP3   OH218181   8.073   0.653   4.728  0.0034  0.1333 -0.1057
 6081TIP3    H118182   8.044   0.598   4.801  0.3455 -0.1303 -0.1699
 6081TIP3    H218183   7.996   0.707   4.707 -0.0941  0.2214  0.4574
 6082TIP3   OH218184   6.137   2.163   3.790 -0.2918  0.1627  0.1007
 6082TIP3    H118185   6.133   2.108   3.868  0.5919 -0.2559 -0.1403
 6082TIP3    H218186   6.074   2.233   3.807  0.8653  0.8364  1.7768
 6083TIP3   OH218187   6.349   2.017   4.509 -0.2338 -0.1085 -0.6412
 6083TIP3    H118188   6.432   1.984   4.475 -0.1844 -0.9369  0.2655
 6083TIP3    H218189   6.366   2.035   4.602 -0.9621  0.0826 -0.5370
 6084TIP3   OH218190   6.751   1.786   4.287  0.1925 -0.1719  0.1944
 6084TIP3    H118191   6.793   1.786   4.201  0.3230  0.7879  0.2525
 6084TIP3    H218192   6.791   1.712   4.333  0.5483 -0.3319 -0.3696
 6085TIP3   OH218193   7.442   1.248   5.711  0.2739 -0.0517 -0.4283
 6085TIP3    H118194   7.468   1.164   5.749  0.3765  0.4532  0.6248
 6085TIP3    H218195   7.347   1.250   5.721  0.4615  0.7866  1.2742
 6086TIP3   OH218196   7.443   0.707   4.330  0.0865 -0.3561  0.0709
 6086TIP3    H118197   7.514   0.670   4.278  0.1676 -0.4661  0.2602
 6086TIP3    H218198   7.364   0.693   4.277  0.2039 -0.2417 -0.1347
 6087TIP3   OH218199   6.659   1.732   2.791 -0.0439 -0.3905 -0.0849
 6087TIP3    H118200   6.689   1.724   2.882 -0.7757  0.4817  0.2369
 6087TIP3    H218201   6.634   1.824   2.782 -0.8315 -0.6785 -0.9079
 6088TIP3   OH218202   7.551   1.214   3.640  0.0956 -0.4226 -0.6743
 6088TIP3    H118203   7.486   1.229   3.708  1.2347  1.6080  0.0260
 6088TIP3    H218204   7.559   1.299   3.596  1.2580 -1.0179 -1.6348
 6089TIP3   OH218205   2.382   7.480   3.729  0.0405 -0.2569  0.0667
 6089TIP3    H118206   2.446   7.551   3.729  1.3357 -1.3827  0.2429
 6089TIP3    H218207   2.389   7.442   3.642 -0.8938  0.0473 -0.1407
 6090TIP3   OH218208   4.851   0.446   5.025 -0.2377  0.1082  0.1529
 6090TIP3    H118209   4.828   0.353   5.028 -0.4195  0.0815 -1.4951
 6090TIP3    H218210   4.777   0.491   5.065 -0.6460 -0.3940 -0.0282
 6091TIP3   OH218211   7.932   2.219   1.764  0.1964  0.3259 -0.4656
 6091TIP3    H118212   7.849   2.180   1.792  0.4411 -0.1607 -0.4159
 6091TIP3    H218213   7.909   2.308   1.739  0.0284  0.9087  1.6671
 6092TIP3   OH218214   5.819   7.679   3.690 -0.3152 -0.0223  0.0469
 6092TIP3    H118215   5.850   7.706   3.604  1.5676  0.4956  0.8549
 6092TIP3    H218216   5.759   7.749   3.717  0.0375  0.4279 -0.3293
 6093TIP3   OH218217   8.092   2.334   5.793  0.4484  0.2492  0.1454
 6093TIP3    H118218   8.100   2.293   5.879 -0.2649 -0.5335 -0.1554
 6093TIP3    H218219   8.030   2.406   5.807  0.3566  0.1419  0.2957
 6094TIP3   OH218220   8.065   0.407   3.139  0.4496  0.0870 -0.1531
 6094TIP3    H118221   8.091   0.408   3.232  0.2752 -0.1151 -0.1020
 6094TIP3    H218222   7.999   0.476   3.133 -0.6266 -0.8907  0.1935
 6095TIP3   OH218223   0.047   1.555   2.027 -0.4362 -0.6674  0.0755
 6095TIP3    H118224   0.030   1.648   2.044 -0.3504 -0.5645 -0.4191
 6095TIP3    H218225  -0.023   1.510   2.076 -1.5350 -0.2803 -1.1107
 6096TIP3   OH218226   4.493   7.395   5.791  0.3648 -0.0196  0.1691
 6096TIP3    H118227   4.435   7.467   5.815 -0.1022 -0.6637  0.9844
 6096TIP3    H218228   4.553   7.387   5.865  0.6947 -0.1776 -0.1144
 6097TIP3   OH218229   7.394   1.664   4.228  0.0212 -0.0694  0.4005
 6097TIP3    H118230   7.460   1.716   4.274 -0.2099  0.1221  0.5126
 6097TIP3    H218231   7.429   1.655   4.139 -0.0839  0.5305  0.2977
 6098TIP3   OH218232   5.663   7.821   2.631 -0.3497  0.3775 -0.1158
 6098TIP3    H118233   5.601   7.874   2.681  0.7473  2.6950 -1.1566
 6098TIP3    H218234   5.744   7.823   2.682 -0.7242 -1.6009  0.6040
 6099TIP3   OH218235   2.650   1.249   3.232 -0.2097  0.7782  0.4534
 6099TIP3    H118236   2.590   1.284   3.166 -0.4748  1.1373  0.8818
 6099TIP3    H218237   2.658   1.319   3.297 -0.7461  0.0364  1.3270
 6100TIP3   OH218238   6.968   1.971   4.251 -0.2182  0.1736 -0.2633
 6100TIP3    H118239   6.912   1.897   4.273  0.7692 -0.6067 -0.3359
 6100TIP3    H218240   6.965   1.975   4.155 -0.6923  0.5490 -0.2292
 6101TIP3   OH218241   1.265   3.867   0.383 -0.1316  0.1296  0.9234
 6101TIP3    H118242   1.332   3.862   0.315 -0.6315  0.4101  0.4138
 6101TIP3    H218243   1.246   3.960   0.391  2.1517  0.4395  3.6129
 6102TIP3   OH218244   7.058   2.179   2.921 -0.0974 -0.0190 -0.3423
 6102TIP3    H118245   7.009   2.180   3.003 -0.4178 -0.2782 -0.5275
 6102TIP3    H218246   7.138   2.130   2.941  1.6189  3.1759  0.8137
 6103TIP3   OH218247   7.952   0.951   5.619  0.4111 -0.0712 -0.1019
 6103TIP3    H118248   8.041   0.981   5.602  0.8556 -0.0328  2.1951
 6103TIP3    H218249   7.951   0.928   5.712 -1.7812 -0.7550 -0.2583
 6104TIP3   OH218250   7.945   0.720   2.850 -0.0532  0.2911  0.3638
 6104TIP3    H118251   7.947   0.802   2.801  1.7261  1.1039  1.7537
 6104TIP3    H218252   7.923   0.747   2.939 -2.6890 -1.1086  0.1964
 6105TIP3   OH218253   0.604   1.862   6.861  0.1330  0.1619  0.6297
 6105TIP3    H118254   0.676   1.868   6.924 -0.6847 -0.0899  1.6034
 6105TIP3    H218255   0.550   1.940   6.878  0.1939  0.3711 -0.1184
 6106TIP3   OH218256   6.145   0.545   6.110 -0.1063 -0.0066  0.1982
 6106TIP3    H118257   6.207   0.611   6.142 -1.0273  0.9124  0.1183
 6106TIP3    H218258   6.075   0.596   6.070 -0.7451 -1.0514 -0.0239
 6107TIP3   OH218259   2.345   2.936   0.470 -0.0378  0.5432  0.0452
 6107TIP3    H118260   2.387   2.876   0.408  0.0411 -0.4560  1.0414
 6107TIP3    H218261   2.321   3.012   0.417 -1.0939 -0.8099 -1.4738
 6108TIP3   OH218262   4.561   6.381   4.081 -0.7013  0.0029 -0.3372
 6108TIP3    H118263   4.657   6.379   4.077 -0.5672 -0.9783  2.7571
 6108TIP3    H218264   4.540   6.473   4.095 -0.1372  0.0468  0.2642
 6109TIP3   OH218265   7.773   1.493   4.014  0.4507 -0.5226  0.1462
 6109TIP3    H118266   7.760   1.417   3.957  0.5435 -1.0280  0.7936
 6109TIP3    H218267   7.786   1.456   4.101 -0.9937  0.2817  0.7323
 6110TIP3   OH218268   0.398   5.174   0.967  0.0146 -0.0394  0.0030
 6110TIP3    H118269   0.337   5.153   0.896 -1.4652  0.1004  1.1962
 6110TIP3    H218270   0.467   5.109   0.959 -0.8646 -0.9120 -0.7044
 6111TIP3   OH218271   6.191   2.984   3.076  0.5097  0.4351 -0.2379
 6111TIP3    H118272   6.101   2.993   3.044  0.5992 -0.5229 -0.8022
 6111TIP3    H218273   6.183   2.984   3.171 -0.3656 -2.1211 -0.2855
 6112TIP3   OH218274   6.073   1.243   4.381 -0.3788  0.3748  0.4852
 6112TIP3    H118275   6.101   1.221   4.293 -0.8029 -2.0756  0.9458
 6112TIP3    H218276   6.145   1.215   4.437  0.2921  2.7468  0.8875
 6113TIP3   OH218277   8.307   1.421   3.955  0.1622 -0.4768 -0.2399
 6113TIP3    H118278   8.276   1.397   3.868 -1.2901  0.0866  0.1113
 6113TIP3    H218279   8.395   1.383   3.960  0.3103 -0.3983 -1.9893
 6114TIP3   OH218280   4.967   1.910   6.578  0.1528  0.9040 -0.3453
 6114TIP3    H118281   4.931   1.822   6.583  0.4924  0.8495  1.6868
 6114TIP3    H218282   5.062   1.897   6.579  0.2144  1.3499  1.9663
 6115TIP3   OH218283   0.431   5.651   1.480  0.1942 -0.1039  0.5692
 6115TIP3    H118284   0.354   5.610   1.439 -0.0960  1.7155 -0.7460
 6115TIP3    H218285   0.498   5.583   1.477 -1.4730 -1.9273  2.2319
 6116TIP3   OH218286   7.127   1.179   4.892  0.5041  0.0684  0.4816
 6116TIP3    H118287   7.048   1.225   4.920 -0.5140 -1.0314 -0.5383
 6116TIP3    H218288   7.151   1.220   4.810 -0.2307 -0.9858 -0.2754
 6117TIP3   OH218289   7.299   2.425   4.452  0.1244 -0.5531  1.3523
 6117TIP3    H118290   7.386   2.459   4.434  0.7774 -2.7118  0.2587
 6117TIP3    H218291   7.239   2.488   4.411  1.2142  0.0833  0.7325
 6118TIP3   OH218292   7.030   0.481   5.426 -0.3992  0.5008 -0.1828
 6118TIP3    H118293   7.025   0.462   5.520  0.3778  1.0222 -0.0308
 6118TIP3    H218294   6.961   0.428   5.387  0.7769 -1.5002  0.4063
 6119TIP3   OH218295   6.779   1.105   4.785 -0.0814 -0.0678  0.3696
 6119TIP3    H118296   6.821   1.080   4.703 -0.9904 -1.1235  0.2198
 6119TIP3    H218297   6.686   1.113   4.763 -0.0533  1.5885  0.8525
 6120TIP3   OH218298   6.060   1.135   4.140 -0.3299  0.3217 -0.4644
 6120TIP3    H118299   5.970   1.106   4.127 -0.3016  0.7460 -1.6587
 6120TIP3    H218300   6.112   1.075   4.087  0.0030  0.6736 -0.5361
 6121TIP3   OH218301   5.780   4.384   5.501 -0.2415  0.6431  0.0189
 6121TIP3    H118302   5.689   4.375   5.531 -0.5520  1.4345 -0.6871
 6121TIP3    H218303   5.773   4.396   5.406  0.5193  2.1920  0.1516
 6122TIP3   OH218304   6.289   0.718   4.420  0.2346 -0.0452  0.1420
 6122TIP3    H118305   6.239   0.784   4.372 -0.9850  0.2605  1.8230
 6122TIP3    H218306   6.228   0.645   4.431  1.2784 -1.1053 -0.8680
 6123TIP3   OH218307   0.502   0.214   3.176 -0.1348  0.1280  0.7035
 6123TIP3    H118308   0.556   0.288   3.203  1.5209 -0.5031 -0.7961
 6123TIP3    H218309   0.558   0.138   3.188 -0.7502 -0.5539 -0.6326
 6124TIP3   OH218310   7.117   0.692   2.104 -0.8245  0.1456  0.2332
 6124TIP3    H118311   7.176   0.648   2.166  1.1297  1.0094 -0.9966
 6124TIP3    H218312   7.052   0.735   2.160 -0.2881 -0.7823  1.5988
 6125TIP3   OH218313   3.446   0.695   3.525 -0.2104  0.1198  0.0073
 6125TIP3    H118314   3.538   0.697   3.552 -0.3535  0.8595  0.4380
 6125TIP3    H218315   3.435   0.608   3.486  0.4011 -0.3744  0.9026
 6126TIP3   OH218316   5.463   7.031   5.856  0.4874  0.0087 -0.0201
 6126TIP3    H118317   5.407   7.000   5.785  3.2570 -0.9131 -1.8536
 6126TIP3    H218318   5.472   7.125   5.840  0.5514 -0.0778 -0.4922
 6127TIP3   OH218319   7.824   2.920   4.062 -0.0657  0.1783 -0.5433
 6127TIP3    H118320   7.870   2.972   4.128  1.1124  0.2455 -1.4074
 6127TIP3    H218321   7.870   2.836   4.062 -2.5725 -1.2508  1.5495
 6128TIP3   OH218322   3.239   8.002   3.676  0.1387  0.2121 -0.0418
 6128TIP3    H118323   3.331   7.985   3.659  0.1516 -0.1395  0.3686
 6128TIP3    H218324   3.193   7.960   3.604  0.1873 -1.3117  0.7938
 6129TIP3   OH218325   6.119   2.926   3.515  0.4800  0.4804 -0.0499
 6129TIP3    H118326   6.109   2.831   3.524  3.0795  0.1681  0.1238
 6129TIP3    H218327   6.057   2.950   3.447 -0.1793 -1.3700 -0.1386
 6130TIP3   OH218328   5.240   6.981   5.660 -0.4993 -0.3732 -0.5637
 6130TIP3    H118329   5.202   6.901   5.695  1.2428  0.5406  3.7606
 6130TIP3    H218330   5.168   7.045   5.666 -0.5045 -0.4626  0.6358
 6131TIP3   OH218331   0.006   0.295   3.182  0.3154 -0.4150 -0.0773
 6131TIP3    H118332   0.065   0.220   3.172  1.7122  0.6600 -0.0540
 6131TIP3    H218333  -0.050   0.291   3.104  1.5621 -0.4617 -0.9998
 6132TIP3   OH218334   6.695   2.169   5.567  0.3357 -0.1543  0.0913
 6132TIP3    H118335   6.760   2.099   5.560  0.8058  0.4312 -1.7417
 6132TIP3    H218336   6.613   2.129   5.540  0.7570  0.1800 -1.7527
 6133TIP3   OH218337   7.030   3.009   2.202  0.1112  0.5716  0.3167
 6133TIP3    H118338   7.083   3.037   2.127  0.1216 -1.1862 -0.3409
 6133TIP3    H218339   7.069   3.055   2.277  2.5278 -0.6308 -0.1616
 6134TIP3   OH218340   0.434   4.223   1.856  0.0041  0.0715 -0.3340
 6134TIP3    H118341   0.472   4.201   1.771  2.5280 -0.8490  0.9715
 6134TIP3    H218342   0.481   4.303   1.883 -0.8760  0.4366  0.1194
 6135TIP3   OH218343   0.484   1.123   5.856  0.4843  0.1035 -0.3130
 6135TIP3    H118344   0.429   1.052   5.822 -0.4493  0.9225 -0.5203
 6135TIP3    H218345   0.447   1.143   5.942 -0.5330  1.7204 -1.1102
 6136TIP3   OH218346   7.994   0.476   4.264 -0.1177  0.1532  0.3032
 6136TIP3    H118347   8.020   0.555   4.312  0.0456  0.6229 -0.5442
 6136TIP3    H218348   7.924   0.439   4.317 -0.8658  1.4007  0.2165
 6137TIP3   OH218349   0.232   0.337   2.836  0.5362 -0.7385 -0.5375
 6137TIP3    H118350   0.144   0.359   2.805 -0.5281 -2.8965  0.7999
 6137TIP3    H218351   0.282   0.317   2.757 -1.0480 -2.4524 -1.1498
 6138TIP3   OH218352   0.025   0.519   4.189  0.1956  0.2032  0.4957
 6138TIP3    H118353   0.108   0.549   4.224  0.1246  0.7717  0.1698
 6138TIP3    H218354  -0.023   0.487   4.266  0.8595 -0.4948  0.6338
 6139TIP3   OH218355   1.027   2.323   2.517 -0.4566  0.4542  0.1342
 6139TIP3    H118356   1.044   2.262   2.445 -0.2330 -0.6679  1.1183
 6139TIP3    H218357   0.982   2.270   2.583 -0.6701  1.4726  0.8220
 6140TIP3   OH218358   7.742   1.931   4.621 -0.1419  0.1572  0.6515
 6140TIP3    H118359   7.818   1.977   4.656  1.4441 -1.6938 -0.3098
 6140TIP3    H218360   7.667   1.984   4.649  1.5459  2.5492  0.7448
 6141TIP3   OH218361   7.103   1.686   1.164 -0.8207 -0.0886  0.5953
 6141TIP3    H118362   7.113   1.664   1.257  0.5546  0.7209  0.6659
 6141TIP3    H218363   7.034   1.753   1.162 -1.0703 -0.3350  1.0058
 6142TIP3   OH218364   4.382   7.543   2.130  0.5670 -0.1947  0.4168
 6142TIP3    H118365   4.421   7.577   2.211  0.7138 -1.6798  0.9836
 6142TIP3    H218366   4.290   7.529   2.151  0.2845  0.8016 -0.1242
 6143TIP3   OH218367   4.869   6.576   3.369 -0.1670  0.0482  0.1236
 6143TIP3    H118368   4.947   6.622   3.399 -0.0157 -1.3731  1.9599
 6143TIP3    H218369   4.847   6.619   3.286  1.9258  1.1643  0.1122
 6144TIP3   OH218370   7.576   1.803   4.436 -0.0898 -0.7330  0.0190
 6144TIP3    H118371   7.602   1.891   4.463 -2.3805  0.1575 -0.5357
 6144TIP3    H218372   7.508   1.778   4.498 -0.1108 -1.7386 -0.3944
 6145TIP3   OH218373   4.012   5.048   0.857 -0.1169  0.0443  0.2464
 6145TIP3    H118374   4.089   5.098   0.885 -0.2792 -0.2068  1.1623
 6145TIP3    H218375   4.002   4.981   0.925 -0.7258 -0.3598 -0.2447
 6146TIP3   OH218376   7.196   1.264   6.665 -0.2927 -0.4566 -0.4556
 6146TIP3    H118377   7.105   1.245   6.688  0.4087 -1.2380  1.7442
 6146TIP3    H218378   7.241   1.180   6.671  0.9326  0.2305  0.1544
 6147TIP3   OH218379   0.546   0.377   4.975  0.1838  0.3249  0.2207
 6147TIP3    H118380   0.506   0.446   5.028 -0.2153  0.5078 -0.3157
 6147TIP3    H218381   0.491   0.300   4.991  2.4461 -0.7327  3.2822
 6148TIP3   OH218382   6.935   1.889   2.365  0.0809 -0.6749  0.4063
 6148TIP3    H118383   6.910   1.808   2.409  0.7617 -0.9828  0.2345
 6148TIP3    H218384   6.966   1.945   2.436  1.0372 -1.1182  0.3518
 6149TIP3   OH218385   6.266   0.380   2.507 -0.4107 -0.3117 -0.3736
 6149TIP3    H118386   6.310   0.427   2.435 -0.4342  1.6733  0.8672
 6149TIP3    H218387   6.330   0.381   2.578  0.2865 -3.8093 -0.8868
 6150TIP3   OH218388   6.697   2.674   2.413 -0.2349  0.5155 -0.0407
 6150TIP3    H118389   6.700   2.579   2.405  1.5323  0.5770 -0.1687
 6150TIP3    H218390   6.749   2.707   2.340 -0.0872  1.5491  0.5173
 6151TIP3   OH218391   1.938   0.505   4.357  1.2840  0.6038  0.0349
 6151TIP3    H118392   1.871   0.483   4.291  0.9220 -0.7500  0.8536
 6151TIP3    H218393   1.916   0.595   4.383 -0.3030  0.1245  0.3966
 6152TIP3   OH218394   7.625   0.296   5.445 -0.2976 -0.2339 -0.3186
 6152TIP3    H118395   7.590   0.263   5.529 -0.2751 -1.6752 -0.8604
 6152TIP3    H218396   7.565   0.261   5.379  1.4086 -1.6635 -1.1555
 6153TIP3   OH218397   0.410   0.967   4.005 -0.3567  0.1976 -0.4468
 6153TIP3    H118398   0.411   0.930   3.917 -1.3778  2.0590 -1.2743
 6153TIP3    H218399   0.356   1.046   3.998  1.7822  1.8911  1.2193
 6154TIP3   OH218400   0.379   1.844   5.187  0.8494 -0.2454 -0.3543
 6154TIP3    H118401   0.328   1.924   5.200  1.5604  0.0886  0.4086
 6154TIP3    H218402   0.323   1.775   5.223  0.8439  0.0933  0.2961
 6155TIP3   OH218403   7.083   4.012   3.918 -0.3376  0.0900 -0.4939
 6155TIP3    H118404   7.106   3.922   3.897  1.8012  0.5372 -0.1860
 6155TIP3    H218405   7.034   4.043   3.842 -2.1103 -1.6578 -0.1143
 6156TIP3   OH218406   0.956   1.861   3.667 -0.3869  0.6613 -0.0749
 6156TIP3    H118407   1.030   1.803   3.647  1.2674  1.8593  2.1889
 6156TIP3    H218408   0.889   1.803   3.703  0.0089 -0.2577 -0.8020
 6157TIP3   OH218409   0.674   1.091   4.001 -0.5183  0.2273 -0.0740
 6157TIP3    H118410   0.625   1.013   4.030  2.8331 -1.7747  0.5117
 6157TIP3    H218411   0.690   1.076   3.908 -0.1655  0.3852 -0.0377
 6158TIP3   OH218412   0.581   1.538   5.103  0.1416  0.0104  0.6072
 6158TIP3    H118413   0.676   1.541   5.107  0.2931 -0.3380 -1.9423
 6158TIP3    H218414   0.553   1.628   5.123  0.9422 -0.0554  2.0858
 6159TIP3   OH218415   1.872   0.411   2.717 -0.4166 -0.1644  0.2727
 6159TIP3    H118416   1.956   0.421   2.672 -0.4673  1.2386  0.4411
 6159TIP3    H218417   1.817   0.481   2.681 -1.7404 -1.4783 -0.3254
 6160TIP3   OH218418   6.948   7.951   3.595  0.0766  0.0707 -0.0952
 6160TIP3    H118419   6.888   8.013   3.552  1.8437  0.1128 -2.6090
 6160TIP3    H218420   6.901   7.868   3.591 -1.8775  0.9622  2.3942
 6161TIP3   OH218421   1.311   2.990   5.148  0.2052  0.1572  0.4727
 6161TIP3    H118422   1.286   2.972   5.238 -0.3249  1.8412  0.6920
 6161TIP3    H218423   1.360   2.913   5.120 -0.8958 -1.0240  1.7104
 6162TIP3   OH218424   8.029   2.185   4.252  0.5857  0.1353  0.6120
 6162TIP3    H118425   7.972   2.123   4.207  0.3809  0.2671  0.6877
 6162TIP3    H218426   8.033   2.261   4.194 -0.3229  0.6230  1.1901
 6163TIP3   OH218427   8.140   2.176   6.001 -0.2942 -0.0005 -0.2306
 6163TIP3    H118428   8.152   2.082   5.991 -0.2431 -0.2344  1.8912
 6163TIP3    H218429   8.152   2.193   6.094 -0.2984  2.1138 -0.5750
 6164TIP3   OH218430   1.510   3.575   5.697 -0.4969 -0.6931  0.0932
 6164TIP3    H118431   1.576   3.507   5.687  1.4665  1.2563 -0.5343
 6164TIP3    H218432   1.537   3.623   5.775 -1.1861  0.1054 -0.1594
 6165TIP3   OH218433   7.195   2.375   6.583 -0.4026 -0.5372  0.1719
 6165TIP3    H118434   7.132   2.410   6.519 -0.5091  0.7401  0.9641
 6165TIP3    H218435   7.140   2.336   6.651 -0.2871 -2.1509 -0.6159
 6166TIP3   OH218436   1.196   1.564   6.335 -0.0155 -0.4371  0.1964
 6166TIP3    H118437   1.177   1.607   6.418 -0.7004  0.7837 -0.5822
 6166TIP3    H218438   1.292   1.559   6.332  0.1262  1.8854 -0.1128
 6167TIP3   OH218439   7.855   2.902   5.736  0.2405  0.4638 -0.2508
 6167TIP3    H118440   7.883   2.902   5.827  0.2134 -0.2157 -0.2352
 6167TIP3    H218441   7.842   2.994   5.714 -2.5347  0.4842  1.2971
 6168TIP3   OH218442   3.880   7.726   0.474  0.2542 -0.2659 -0.0261
 6168TIP3    H118443   3.864   7.632   0.479 -1.2548  0.0032  0.7616
 6168TIP3    H218444   3.923   7.747   0.557  0.0827 -0.1901  0.0458
 6169TIP3   OH218445   7.572   7.744   5.977 -0.0734  0.1923 -0.4781
 6169TIP3    H118446   7.552   7.837   5.965 -1.6424 -0.1517 -0.6510
 6169TIP3    H218447   7.666   7.737   5.959  0.3773  1.9923  1.0369
 6170TIP3   OH218448   2.056   1.895   6.153 -0.1085 -0.0078 -0.0654
 6170TIP3    H118449   2.076   1.846   6.233 -1.5313  2.1860  1.6971
 6170TIP3    H218450   2.034   1.983   6.184  1.2512  1.4490 -3.0328
 6171TIP3   OH218451   7.618   4.642   4.528  0.4013  0.1108  0.8695
 6171TIP3    H118452   7.663   4.723   4.551 -0.9806  0.6038  1.9167
 6171TIP3    H218453   7.688   4.579   4.513  1.5645  1.8862 -1.5968
 6172TIP3   OH218454   8.071   2.591   6.524  0.2964 -0.1199 -0.3327
 6172TIP3    H118455   8.085   2.521   6.460  0.4659  0.7380 -1.2608
 6172TIP3    H218456   8.081   2.672   6.473 -0.4152  0.5763  0.6061
 6173TIP3   OH218457   1.717   2.697   4.978  0.0442  0.0231 -0.2545
 6173TIP3    H118458   1.755   2.609   4.980 -2.2752 -1.1797 -4.0689
 6173TIP3    H218459   1.792   2.755   4.969  1.4832 -1.6861  0.4318
 6174TIP3   OH218460   1.908   1.703   5.459  0.9067  0.5921  0.1465
 6174TIP3    H118461   1.931   1.762   5.387 -0.7465  1.0713  0.0064
 6174TIP3    H218462   1.828   1.660   5.431  0.4535  0.4971  1.5401
 6175TIP3   OH218463   0.157   1.393   5.457 -0.5261  0.2973  0.0353
 6175TIP3    H118464   0.186   1.313   5.502 -0.0517 -0.9874 -2.4877
 6175TIP3    H218465   0.116   1.362   5.377  2.0137  2.6819 -2.2653
 6176TIP3   OH218466   0.348   2.536   3.322 -0.2135  0.4354  0.6033
 6176TIP3    H118467   0.390   2.461   3.364  0.6300 -1.1093 -2.8677
 6176TIP3    H218468   0.398   2.551   3.242 -2.0531  2.9669 -0.1525
 6177TIP3   OH218469   8.344   1.321   6.135 -0.7114  0.1496 -0.0798
 6177TIP3    H118470   8.414   1.277   6.184  0.6329  0.9538 -1.2775
 6177TIP3    H218471   8.303   1.378   6.200 -0.1612 -0.1917  0.5819
 6178TIP3   OH218472   1.480   1.848   6.333  0.5044 -0.0655 -0.5161
 6178TIP3    H118473   1.396   1.859   6.378  1.9171  0.5188  2.1561
 6178TIP3    H218474   1.457   1.819   6.245 -2.5550  1.6063 -0.3629
 6179TIP3   OH218475   0.111   1.646   6.159 -0.0617 -0.2405 -0.2445
 6179TIP3    H118476   0.147   1.587   6.093  0.9652 -0.3617  0.4214
 6179TIP3    H218477   0.158   1.729   6.146  1.0560 -0.6400  1.1513
 6180TIP3   OH218478   0.157   2.079   5.355  0.3126 -0.7784 -0.6248
 6180TIP3    H118479   0.134   1.996   5.397 -0.3312 -0.1054  0.3739
 6180TIP3    H218480   0.102   2.143   5.398 -0.9070 -0.1741 -3.0460
 6181TIP3   OH218481   7.577   2.389   5.961  0.0024  0.2068  0.1004
 6181TIP3    H118482   7.650   2.327   5.958  2.6681  3.1016  1.9010
 6181TIP3    H218483   7.515   2.351   6.023  0.9137 -1.3376  0.0827
 6182TIP3   OH218484   2.457   1.269   5.640 -0.1407 -0.4914 -0.3132
 6182TIP3    H118485   2.372   1.228   5.654  0.4372 -2.0742 -1.2665
 6182TIP3    H218486   2.513   1.234   5.709  0.4380 -1.5720 -1.3173
 6183TIP3   OH218487   6.718   6.930   4.915  0.1052  0.3768  0.2724
 6183TIP3    H118488   6.782   6.861   4.935 -0.7777 -0.7963 -0.8320
 6183TIP3    H218489   6.639   6.902   4.961 -0.5594  0.0917 -1.0071
 6184TIP3   OH218490   8.012   6.102   6.527  0.5572  0.2113  0.4793
 6184TIP3    H118491   8.055   6.184   6.501  1.5314  0.2139  2.0792
 6184TIP3    H218492   8.032   6.042   6.455  0.7605  1.0411 -0.1757
 6185TIP3   OH218493   3.880   5.959   0.280  0.6251  0.0743  0.3835
 6185TIP3    H118494   3.812   5.978   0.345 -0.8093 -1.1001 -0.7264
 6185TIP3    H218495   3.831   5.932   0.202  2.3290  0.9448 -1.0178
 6186TIP3   OH218496   2.286   1.531   3.838 -0.0937  0.3600 -0.2817
 6186TIP3    H118497   2.361   1.524   3.897 -0.7285  3.1136  0.9537
 6186TIP3    H218498   2.324   1.536   3.751  1.1185  0.8293  0.2653
 6187TIP3   OH218499   0.875   0.810   5.174  0.1600  0.7604 -1.0724
 6187TIP3    H118500   0.921   0.795   5.091  2.0801 -1.2886  0.3350
 6187TIP3    H218501   0.785   0.780   5.158  1.6206 -3.8255 -1.1070
 6188TIP3   OH218502   7.773   1.547   4.929 -0.6255  0.1963  0.2205
 6188TIP3    H118503   7.757   1.588   4.844 -2.3790  2.3887  1.5564
 6188TIP3    H218504   7.703   1.483   4.938 -0.8353  0.4320  0.2844
 6189TIP3   OH218505   7.001   7.446   4.677  0.3713  0.3845 -0.8643
 6189TIP3    H118506   7.094   7.431   4.661  0.7191  0.4799  1.0163
 6189TIP3    H218507   6.972   7.500   4.603  1.5519 -0.5332 -2.0203
 6190TIP3   OH218508   8.125   7.749   3.994 -0.8950 -0.3324 -0.4880
 6190TIP3    H118509   8.069   7.756   3.916 -0.1423 -0.9636 -1.0932
 6190TIP3    H218510   8.070   7.706   4.059 -1.4372 -0.0578 -0.7570
 6191TIP3   OH218511   0.622   0.857   6.072 -0.3319  1.1600 -0.4044
 6191TIP3    H118512   0.641   0.947   6.046 -1.7137  1.4402 -0.4611
 6191TIP3    H218513   0.683   0.840   6.144 -1.8097  3.0349  1.3469
 6192TIP3   OH218514   1.833   1.055   5.102  0.0315 -0.2106 -0.2432
 6192TIP3    H118515   1.829   1.150   5.092  2.1516 -0.2262 -1.3015
 6192TIP3    H218516   1.827   1.042   5.197 -0.2066  0.9800 -0.0801
 6193TIP3   OH218517   1.229   1.425   5.797 -0.3060 -0.1491  0.1848
 6193TIP3    H118518   1.162   1.361   5.819 -0.6530 -0.3870 -1.4930
 6193TIP3    H218519   1.300   1.374   5.758 -0.5314  0.4403 -1.0415
 6194TIP3   OH218520   5.944   2.411   6.308  0.4696 -0.1878  0.1889
 6194TIP3    H118521   5.855   2.431   6.337  0.7406  0.8027  0.3415
 6194TIP3    H218522   5.968   2.483   6.250  0.2258 -1.7303 -1.9125
 6195TIP3   OH218523   8.196   1.279   5.763 -0.1327 -0.3325 -0.0834
 6195TIP3    H118524   8.250   1.210   5.801 -0.8818 -1.1746 -0.5243
 6195TIP3    H218525   8.253   1.323   5.700 -0.0250 -1.3405 -0.6903
 6196TIP3   OH218526   8.041   4.365   6.191 -0.4103 -0.5301 -0.8388
 6196TIP3    H118527   7.961   4.356   6.243 -0.1925 -0.0522 -0.4132
 6196TIP3    H218528   8.030   4.448   6.144 -0.0501 -0.3273 -0.5693
 6197TIP3   OH218529   5.022   6.327   0.970  0.5366  0.0473  0.3150
 6197TIP3    H118530   5.027   6.285   1.055  0.9324  0.0607  0.2993
 6197TIP3    H218531   5.096   6.291   0.920  0.0535 -0.2850 -0.1685
 6198TIP3   OH218532   3.478   0.383   5.563  0.4659  0.2509 -0.9862
 6198TIP3    H118533   3.525   0.399   5.482  1.1896  0.3728 -0.5440
 6198TIP3    H218534   3.452   0.470   5.594  1.9830  0.3756 -0.0248
 6199TIP3   OH218535   3.556   7.004   0.932 -0.2563  0.3265  0.1822
 6199TIP3    H118536   3.525   6.979   0.845 -2.4473  0.8236  0.7838
 6199TIP3    H218537   3.539   7.098   0.937 -1.5457  0.0419  1.6722
 6200TIP3   OH218538   2.342   4.982   0.250  0.0954  0.1831  0.4008
 6200TIP3    H118539   2.424   4.933   0.249  0.6850  1.1593  0.8976
 6200TIP3    H218540   2.351   5.046   0.179  0.1400  0.9082  1.0580
 6201TIP3   OH218541   1.764   1.443   6.296  0.0618 -0.2074  0.2991
 6201TIP3    H118542   1.703   1.512   6.270 -1.4633 -2.3790 -2.0557
 6201TIP3    H218543   1.847   1.468   6.256 -0.1241  0.9492  0.6219
 6202TIP3   OH218544   6.776   7.704   5.381 -0.5380 -0.5313  0.0390
 6202TIP3    H118545   6.767   7.708   5.286  1.0586 -0.8364 -0.1418
 6202TIP3    H218546   6.761   7.794   5.410 -1.8453 -0.5893 -0.4054
 6203TIP3   OH218547   8.139   2.266   5.288  0.4356  0.2866  0.0408
 6203TIP3    H118548   8.198   2.195   5.315 -2.0992 -1.6111  0.7592
 6203TIP3    H218549   8.145   2.330   5.358 -2.2844 -2.3138  2.7766
 6204TIP3   OH218550   8.406   2.074   5.809  0.5214 -0.3084 -0.0770
 6204TIP3    H118551   8.364   2.010   5.751 -0.6252  0.6113 -0.2976
 6204TIP3    H218552   8.336   2.100   5.869  1.2602 -0.0293  0.6636
 6205TIP3   OH218553   1.968   7.622   0.736  0.8297 -0.5910  0.0173
 6205TIP3    H118554   2.055   7.619   0.698  1.7072  0.6123  1.8997
 6205TIP3    H218555   1.909   7.612   0.661  2.5490 -0.9159 -1.3229
 6206TIP3   OH218556   8.250   3.229   5.530  0.0880  0.1052 -0.1021
 6206TIP3    H118557   8.341   3.257   5.514  0.8446 -2.0156  0.3157
 6206TIP3    H218558   8.210   3.305   5.573  0.9528  1.9780 -2.4731
 6207TIP3   OH218559   6.057   5.398   0.590 -0.1430 -0.6979 -0.1657
 6207TIP3    H118560   5.997   5.342   0.638 -1.1750  1.2432  0.8559
 6207TIP3    H218561   6.005   5.432   0.516  0.6854 -1.6472 -1.1996
 6208TIP3   OH218562   7.099   1.339   6.193 -0.4777  0.0181 -0.0785
 6208TIP3    H118563   7.038   1.412   6.204 -1.0615 -0.2907 -1.1904
 6208TIP3    H218564   7.144   1.333   6.277  1.0270  2.9600 -0.5941
 6209TIP3   OH218565   1.280   2.420   3.899 -0.0080  0.0690 -0.3178
 6209TIP3    H118566   1.210   2.482   3.879  0.7096  1.0923  0.3030
 6209TIP3    H218567   1.360   2.471   3.894  0.6609 -0.9783 -0.5148
 6210TIP3   OH218568   7.875   2.554   4.375  0.1128  0.7738 -0.1415
 6210TIP3    H118569   7.907   2.567   4.464 -0.0229 -1.3863  0.2507
 6210TIP3    H218570   7.841   2.640   4.348 -1.0127  1.1255  2.3275
 6211TIP3   OH218571   1.809   3.081   5.773 -0.4164  0.2153 -0.2565
 6211TIP3    H118572   1.734   3.023   5.775 -1.2892  1.2342 -1.8835
 6211TIP3    H218573   1.880   3.029   5.734 -0.3309 -0.6782  1.0867
 6212TIP3   OH218574   1.090   4.313   3.063 -0.2879  0.8322  0.1797
 6212TIP3    H118575   1.123   4.367   3.135  1.2349  1.5075 -0.9945
 6212TIP3    H218576   1.097   4.223   3.095 -0.9921  1.2000  1.4062
 6213TIP3   OH218577   3.734   0.678   5.600  0.1180 -0.1498 -0.1739
 6213TIP3    H118578   3.772   0.628   5.528 -0.1013 -0.7175  0.0988
 6213TIP3    H218579   3.803   0.738   5.627 -0.0263  0.5202 -1.2891
 6214TIP3   OH218580   7.969   3.181   5.019  0.1566 -0.0180  0.0681
 6214TIP3    H118581   7.951   3.137   5.102 -0.9854 -0.9393 -0.6431
 6214TIP3    H218582   8.056   3.151   4.994  0.0164 -0.6797  0.3608
 6215TIP3   OH218583   7.475   7.815   5.013 -0.0500  0.1184 -0.3046
 6215TIP3    H118584   7.402   7.789   4.956  0.6112 -0.1414 -1.0550
 6215TIP3    H218585   7.538   7.743   5.005 -0.5765 -0.6319  1.9459
 6216TIP3   OH218586   3.320   2.321   5.020  0.0532 -0.9654 -0.5271
 6216TIP3    H118587   3.356   2.297   4.934 -0.9340 -2.3687 -0.5509
 6216TIP3    H218588   3.266   2.398   5.001  0.4889 -0.7746 -1.0290
 6217TIP3   OH218589   0.898   1.004   5.962  0.3409 -0.2823  0.5251
 6217TIP3    H118590   0.915   0.991   5.869 -0.3558 -0.5111  0.4188
 6217TIP3    H218591   0.869   0.917   5.993 -3.9718  0.7973 -0.0816
 6218TIP3   OH218592   0.267   0.834   5.135 -0.1242 -0.0229 -0.4055
 6218TIP3    H118593   0.215   0.891   5.078 -1.4952 -1.2114 -0.3594
 6218TIP3    H218594   0.233   0.852   5.223 -2.0598 -2.4593 -0.6187
 6219TIP3   OH218595   2.005   3.297   5.659  0.3199 -0.0763  0.1755
 6219TIP3    H118596   2.083   3.269   5.610 -1.5535 -1.1970 -2.2273
 6219TIP3    H218597   1.989   3.225   5.720 -0.4008 -1.1038 -1.2006
 6220TIP3   OH218598   0.687   2.959   4.956 -0.0163  0.0620 -0.6647
 6220TIP3    H118599   0.668   2.866   4.947 -0.6850  0.1130  0.1180
 6220TIP3    H218600   0.764   2.974   4.902 -0.9370 -0.5991 -2.1761
 6221TIP3   OH218601   7.187   7.550   4.873 -0.6663 -0.1569 -0.7721
 6221TIP3    H118602   7.111   7.545   4.815 -0.4312 -1.4043 -0.9997
 6221TIP3    H218603   7.238   7.624   4.840 -2.0796  1.0907 -0.2239
 6222TIP3   OH218604   6.636   0.387   1.298  0.0731  0.2773 -0.4258
 6222TIP3    H118605   6.650   0.478   1.324  1.4188  0.0545 -0.3164
 6222TIP3    H218606   6.586   0.348   1.370  1.8883  0.2328  0.8390
 6223TIP3   OH218607   0.242   0.942   4.662  0.1015 -0.3570 -0.1823
 6223TIP3    H118608   0.304   1.013   4.677  2.1774 -2.0734 -0.3738
 6223TIP3    H218609   0.180   0.947   4.735  0.4246  1.4189 -0.0274
 6224TIP3   OH218610   8.440   2.482   5.512  0.6770  0.4816  0.4039
 6224TIP3    H118611   8.481   2.458   5.595  0.8322  0.4747  0.3249
 6224TIP3    H218612   8.432   2.578   5.517 -0.7934  0.3405  1.1160
 6225TIP3   OH218613   0.918   1.696   4.535 -0.4052  0.4372  0.3877
 6225TIP3    H118614   1.005   1.731   4.556 -0.0607  0.0827 -0.3989
 6225TIP3    H218615   0.932   1.647   4.453 -1.4559  0.8051 -0.0124
 6226TIP3   OH218616   2.446   0.270   6.326 -0.0243  0.3807  0.0112
 6226TIP3    H118617   2.439   0.175   6.328  0.6808  0.3564  2.1400
 6226TIP3    H218618   2.361   0.299   6.291  0.8237 -1.0841 -3.5397
 6227TIP3   OH218619   0.775   2.678   4.346  0.0559  0.3478 -0.2336
 6227TIP3    H118620   0.822   2.724   4.276  0.1412  0.0570 -0.3688
 6227TIP3    H218621   0.740   2.747   4.401  1.6283  0.5612  0.5249
 6228TIP3   OH218622   1.136   3.628   5.921 -0.6215  0.2307  0.2210
 6228TIP3    H118623   1.160   3.563   5.987  0.7204  0.7937  0.3161
 6228TIP3    H218624   1.198   3.701   5.936  0.4573 -0.1070 -2.3415
 6229TIP3   OH218625   7.985   7.861   5.330 -0.5781  0.3392 -0.1053
 6229TIP3    H118626   8.050   7.927   5.304 -0.6266  0.4994  0.1825
 6229TIP3    H218627   7.906   7.911   5.348  0.3354  0.6083  3.5114
 6230TIP3   OH218628   0.322   1.432   6.293  0.0674  0.2898  0.3628
 6230TIP3    H118629   0.299   1.434   6.201  1.0773 -0.0489  0.0952
 6230TIP3    H218630   0.273   1.359   6.330 -1.7982  1.5757  0.5052
 6231TIP3   OH218631   7.465   2.281   5.251  0.0675 -0.2157 -0.1221
 6231TIP3    H118632   7.407   2.287   5.175  1.4478  1.0962 -1.1230
 6231TIP3    H218633   7.422   2.219   5.310 -0.9916 -1.3417 -2.0191
 6232TIP3   OH218634   1.470   4.525   6.628 -0.3422 -0.7315 -0.3179
 6232TIP3    H118635   1.511   4.441   6.648 -2.4009 -1.3800  1.3971
 6232TIP3    H218636   1.431   4.552   6.711  0.1471  1.8460 -0.8978
 6233TIP3   OH218637   3.973   6.741   0.722 -0.2074  0.4085  0.2364
 6233TIP3    H118638   4.015   6.678   0.781 -1.2420 -0.1972  0.3244
 6233TIP3    H218639   3.952   6.690   0.644  1.6764  1.3374 -0.9154
 6234TIP3   OH218640   5.331   7.436   5.113  0.2335 -0.0196 -0.3065
 6234TIP3    H118641   5.254   7.389   5.145  1.0324 -0.8378  0.4392
 6234TIP3    H218642   5.300   7.525   5.097 -0.3191  0.2750  2.2535
 6235TIP3   OH218643   1.109   0.655   5.589 -0.4333 -0.5638  1.0409
 6235TIP3    H118644   1.201   0.629   5.602  0.0156 -0.6705 -2.0799
 6235TIP3    H218645   1.104   0.743   5.626  1.2995  0.0113 -0.0226
 6236TIP3   OH218646   7.483   1.000   6.215  0.3404  0.1745  0.1753
 6236TIP3    H118647   7.492   0.967   6.126  0.4249 -0.9117  0.5746
 6236TIP3    H218648   7.398   0.967   6.245 -1.1887  3.2078 -0.5937
 6237TIP3   OH218649   8.117   1.809   5.004  0.4938  0.1261 -0.9658
 6237TIP3    H118650   8.051   1.803   5.073  2.1844 -1.9962  0.5112
 6237TIP3    H218651   8.166   1.889   5.024  1.7374 -1.1156  1.0012
 6238TIP3   OH218652   1.106   1.726   5.745 -0.2831 -0.1964  0.5121
 6238TIP3    H118653   1.145   1.654   5.696 -0.5581 -1.0918  1.5868
 6238TIP3    H218654   1.161   1.801   5.725 -1.2488 -0.2032 -2.3167
 6239TIP3   OH218655   0.392   2.213   5.551 -0.4455 -0.3666  0.4436
 6239TIP3    H118656   0.454   2.230   5.622  0.0890  0.6751 -0.2616
 6239TIP3    H218657   0.432   2.253   5.473 -0.9385 -1.6398 -0.4869
 6240TIP3   OH218658   1.008   1.936   4.756 -0.6600  0.3901 -0.0194
 6240TIP3    H118659   1.064   2.007   4.787  0.8688 -1.3046  1.2123
 6240TIP3    H218660   1.019   1.937   4.661 -0.3402  1.5535  0.0196
 6241TIP3   OH218661   8.482   1.436   5.196 -0.2835  0.4093  0.2331
 6241TIP3    H118662   8.435   1.357   5.169 -1.8052  0.8796  1.4291
 6241TIP3    H218663   8.502   1.481   5.114 -0.0507 -0.8499 -0.4122
 6242TIP3   OH218664   5.488   7.785   6.258 -0.2215 -0.7445 -0.1397
 6242TIP3    H118665   5.402   7.751   6.231 -0.2910  0.3686 -1.3418
 6242TIP3    H218666   5.521   7.831   6.181  1.2514 -0.7356  0.4763
 6243TIP3   OH218667   1.456   1.270   5.710  0.5398 -0.3246 -0.2315
 6243TIP3    H118668   1.521   1.239   5.773  0.2226  0.3413  0.4364
 6243TIP3    H218669   1.501   1.337   5.660  0.6262 -0.4701 -0.3502
 6244TIP3   OH218670   2.812   0.159   5.500 -0.5307  0.3359  0.4675
 6244TIP3    H118671   2.873   0.099   5.544 -1.2856  1.4695  3.1369
 6244TIP3    H218672   2.868   0.229   5.465 -0.0775  0.1952  0.9111
 6245TIP3   OH218673   1.481   2.764   5.097 -0.3267  0.2180  0.0932
 6245TIP3    H118674   1.557   2.768   5.039 -0.2685 -1.5228  0.0027
 6245TIP3    H218675   1.517   2.740   5.182 -0.5786  1.2312  0.4827
 6246TIP3   OH218676   1.495   0.442   6.365  0.0875  0.2256  0.0164
 6246TIP3    H118677   1.492   0.350   6.390  0.6567  0.7911  2.2498
 6246TIP3    H218678   1.420   0.481   6.409 -0.3472  0.7698 -1.2056
 6247TIP3   OH218679   0.643   2.553   6.389 -0.3273  0.3262 -0.0792
 6247TIP3    H118680   0.605   2.465   6.395  0.4241 -0.0634 -0.8756
 6247TIP3    H218681   0.731   2.544   6.427  0.0030  0.5712 -0.7774
 6248TIP3   OH218682   5.807   3.348   4.618  0.2860 -0.4065 -0.1283
 6248TIP3    H118683   5.832   3.255   4.618 -0.4836 -0.6134  0.2068
 6248TIP3    H218684   5.883   3.393   4.655 -0.3368 -1.1835  2.1820
 6249TIP3   OH218685   7.584   2.577   4.476  0.2351  0.1292  0.5173
 6249TIP3    H118686   7.526   2.600   4.404  0.5068  0.5140  0.4185
 6249TIP3    H218687   7.664   2.546   4.434  0.2012 -0.1400  0.6515
 6250TIP3   OH218688   0.894   0.673   4.888  0.1145  0.2615 -0.2862
 6250TIP3    H118689   0.974   0.645   4.843  0.6010  1.2900 -0.0879
 6250TIP3    H218690   0.860   0.594   4.929  0.7053 -0.3077 -0.8891
 6251TIP3   OH218691   8.152   2.398   6.340  0.1433 -0.0197  0.1217
 6251TIP3    H118692   8.126   2.340   6.411  2.1054  0.5146  1.3078
 6251TIP3    H218693   8.218   2.349   6.291  0.7656  0.6403  0.2873
 6252TIP3   OH218694   1.609   1.956   5.719 -0.2783  0.5469  0.0120
 6252TIP3    H118695   1.574   1.954   5.808  1.4494  1.3586  0.7393
 6252TIP3    H218696   1.658   1.875   5.711  2.4595  2.0450  1.0553
 6253TIP3   OH218697   7.232   0.118   0.300 -0.1610  0.0283  0.1360
 6253TIP3    H118698   7.289   0.063   0.352  1.6614  0.1108 -1.7109
 6253TIP3    H218699   7.234   0.203   0.344 -0.4283 -0.5058  1.1846
 6254TIP3   OH218700   7.572   2.849   5.806 -0.1388 -0.0201 -0.1501
 6254TIP3    H118701   7.664   2.831   5.786  0.3355 -0.7331  2.4488
 6254TIP3    H218702   7.546   2.778   5.865 -1.8388  1.1727  0.5920
 6255TIP3   OH218703   1.448   1.816   3.757 -0.5752  0.2146 -0.3174
 6255TIP3    H118704   1.519   1.849   3.813 -0.9251  0.1946  0.1461
 6255TIP3    H218705   1.369   1.855   3.795 -0.9619 -0.9459  0.0676
 6256TIP3   OH218706   8.376   3.541   6.519 -0.3816 -1.0906  0.1418
 6256TIP3    H118707   8.290   3.540   6.561 -1.1386 -2.6572 -1.3375
 6256TIP3    H218708   8.399   3.448   6.510 -0.4221 -0.8567 -3.1295
 6257TIP3   OH218709   1.665   1.723   3.930 -0.4863  0.5746  0.0001
 6257TIP3    H118710   1.644   1.630   3.938  2.2658  0.0660  1.9013
 6257TIP3    H218711   1.736   1.727   3.865 -1.2754  1.4766 -0.8334
 6258TIP3   OH218712   3.258   2.784   5.944  0.3921 -0.0643 -0.1091
 6258TIP3    H118713   3.291   2.696   5.927 -1.2888 -0.8098  0.3754
 6258TIP3    H218714   3.329   2.842   5.918  1.5362 -1.5692 -0.3795
 6259TIP3   OH218715   6.736   2.109   6.380  0.1041 -0.3058  0.5778
 6259TIP3    H118716   6.777   2.028   6.348 -0.7398 -1.0933  1.4334
 6259TIP3    H218717   6.673   2.132   6.312  0.7731 -0.0184  0.0453
 6260TIP3   OH218718   7.910   2.390   3.161 -0.1383 -0.0351 -0.2018
 6260TIP3    H118719   7.946   2.474   3.133 -0.8864  0.3633  0.0110
 6260TIP3    H218720   7.980   2.327   3.144  0.5639  0.6826 -0.0213
 6261TIP3   OH218721   8.316   1.613   3.185  0.4591  0.4445 -0.2629
 6261TIP3    H118722   8.387   1.551   3.167  0.9597  0.9100  0.0541
 6261TIP3    H218723   8.329   1.637   3.277 -2.0967 -1.9735  0.8035
 6262TIP3   OH218724   0.263   1.097   5.519  0.0153  0.6335  0.1520
 6262TIP3    H118725   0.351   1.103   5.482 -0.0480 -0.9979 -0.2919
 6262TIP3    H218726   0.276   1.079   5.612  0.1446 -0.1758 -0.0248
 6263TIP3   OH218727   1.740   2.909   6.504  0.1832 -0.0233 -0.4146
 6263TIP3    H118728   1.820   2.952   6.475  0.4808 -0.2319  0.0852
 6263TIP3    H218729   1.757   2.815   6.491  0.9838 -0.2618  1.9731
 6264TIP3   OH218730   0.526   1.323   4.834  0.4096  0.3860  0.1703
 6264TIP3    H118731   0.516   1.343   4.928 -1.3327  0.0016  0.0855
 6264TIP3    H218732   0.437   1.328   4.799  1.2010  1.7455 -1.7363
 6265TIP3   OH218733   1.050   1.142   4.418  0.6375 -0.0709 -0.1117
 6265TIP3    H118734   0.956   1.124   4.410  0.5018  0.6867 -0.1850
 6265TIP3    H218735   1.068   1.133   4.512  0.1871  1.2842  0.1156
 6266TIP3   OH218736   1.341   3.363   5.945 -0.1993  0.0624 -0.4856
 6266TIP3    H118737   1.357   3.281   5.992  0.3164  0.2378 -0.3587
 6266TIP3    H218738   1.299   3.336   5.863  0.7913 -0.3924 -0.8485
 6267TIP3   OH218739   7.864   2.024   3.559  0.5359  0.0849  0.4577
 6267TIP3    H118740   7.928   1.974   3.610  3.4252  3.3970  0.2244
 6267TIP3    H218741   7.781   2.011   3.606  1.5909 -3.1200  1.5712
 6268TIP3   OH218742   8.066   1.882   6.368  0.2769  0.1208 -0.2018
 6268TIP3    H118743   8.011   1.846   6.437 -0.2028 -0.6314 -0.9701
 6268TIP3    H218744   8.072   1.812   6.303  0.9990  0.7003 -0.7623
 6269TIP3   OH218745   1.991   1.244   6.033 -0.4619  0.0685  0.4603
 6269TIP3    H118746   2.042   1.165   6.049 -0.2596 -0.1153 -1.0245
 6269TIP3    H218747   1.903   1.222   6.064 -0.3467 -0.6509  0.2836
 6270TIP3   OH218748   0.564   2.269   5.287  0.2203 -0.0326  0.3911
 6270TIP3    H118749   0.545   2.272   5.194 -0.5535 -0.7337  0.5121
 6270TIP3    H218750   0.613   2.188   5.300  2.2187  1.1257  0.2846
 6271TIP3   OH218751   0.472   1.776   5.568 -0.3715 -0.0233 -0.3557
 6271TIP3    H118752   0.524   1.707   5.525  3.4472  1.8652  0.9967
 6271TIP3    H218753   0.454   1.740   5.655 -0.6746 -0.3458 -0.5462
 6272TIP3   OH218754   6.602   6.894   5.729  0.0118 -0.7183 -0.0161
 6272TIP3    H118755   6.688   6.930   5.751  0.1548 -0.1650 -1.3918
 6272TIP3    H218756   6.569   6.952   5.661 -1.4910 -0.8902  0.5602
 6273TIP3   OH218757   2.624   2.846   6.327 -0.0649  0.0059 -0.7860
 6273TIP3    H118758   2.694   2.867   6.389 -0.2006 -0.8743 -0.3268
 6273TIP3    H218759   2.666   2.849   6.241  0.5677 -0.6528 -0.5037
 6274TIP3   OH218760   6.340   2.260   5.601  0.3273 -0.3311  0.5788
 6274TIP3    H118761   6.407   2.198   5.574  0.5928 -0.3228  1.2132
 6274TIP3    H218762   6.273   2.207   5.643  0.8745 -0.1149  1.7353
 6275TIP3   OH218763   0.608   1.385   6.344 -0.2224  0.3626  0.4292
 6275TIP3    H118764   0.633   1.430   6.264  1.6984  0.1437  0.8844
 6275TIP3    H218765   0.512   1.392   6.347 -0.1537  2.0474 -0.8736
 6276TIP3   OH218766   0.203   3.450   4.438  0.4142 -0.4169  0.4958
 6276TIP3    H118767   0.169   3.534   4.469 -0.6949 -0.4898 -0.5190
 6276TIP3    H218768   0.133   3.387   4.455  0.8726 -0.9675  0.3864
 6277TIP3   OH218769   8.054   7.298   5.739  0.2649  0.5766  0.2691
 6277TIP3    H118770   8.068   7.208   5.711 -0.1114  0.7968 -0.6446
 6277TIP3    H218771   8.017   7.291   5.828  1.6734 -0.1198  0.8096
 6278TIP3   OH218772   8.036   5.149   5.700 -0.0626  0.1774 -0.1130
 6278TIP3    H118773   8.115   5.177   5.747  0.5535 -3.5532  1.2864
 6278TIP3    H218774   7.967   5.207   5.732  1.6241  1.9156  0.4764
 6279TIP3   OH218775   0.024   3.447   5.078 -0.9131  0.0816  0.0392
 6279TIP3    H118776  -0.069   3.460   5.094 -0.6254  2.0563  0.2994
 6279TIP3    H218777   0.049   3.376   5.136 -1.9768  0.4674  0.9912
 6280TIP3   OH218778   7.757   2.336   5.071 -0.4995 -0.0345  0.1491
 6280TIP3    H118779   7.779   2.333   4.978 -0.0934 -0.2034  0.2483
 6280TIP3    H218780   7.692   2.267   5.083  0.2079 -0.7045  0.1856
 6281TIP3   OH218781   1.502   0.065   4.669  0.4743 -0.7920  0.1735
 6281TIP3    H118782   1.459   0.150   4.675  0.2607 -0.8063 -1.0044
 6281TIP3    H218783   1.596   0.085   4.668  0.4047 -0.4924 -1.1290
 6282TIP3   OH218784   0.050   2.069   6.448 -0.3060  0.8151  0.0038
 6282TIP3    H118785   0.037   2.163   6.461 -2.8087  0.2875  1.5950
 6282TIP3    H218786  -0.038   2.033   6.442  0.6182 -1.5620  0.1755
 6283TIP3   OH218787   0.662   2.030   6.013 -0.2834 -0.1838  0.2286
 6283TIP3    H118788   0.684   2.011   5.921  0.8846 -0.4866  0.5648
 6283TIP3    H218789   0.607   1.957   6.040 -0.8081  0.0135 -0.2974
 6284TIP3   OH218790   6.416   0.364   0.194 -0.2908  0.0299 -0.1294
 6284TIP3    H118791   6.378   0.444   0.233 -0.0899  0.0243  0.0789
 6284TIP3    H218792   6.417   0.382   0.100  1.0051  0.8155  0.0255
 6285TIP3   OH218793   2.780   6.874   1.531 -0.1084 -0.4316  0.1960
 6285TIP3    H118794   2.721   6.894   1.604  1.0646 -1.4463  1.4492
 6285TIP3    H218795   2.793   6.779   1.536 -0.8822 -0.6788 -2.0121
 6286TIP3   OH218796   0.479   0.649   4.713  0.2015  0.5518  0.7297
 6286TIP3    H118797   0.387   0.656   4.736 -0.2233  0.0339 -0.7722
 6286TIP3    H218798   0.501   0.557   4.728  0.4165  0.6266  0.8784
 6287TIP3   OH218799   8.017   1.620   5.853 -0.1078 -0.4859 -0.6099
 6287TIP3    H118800   8.021   1.559   5.927  0.4562 -1.5817 -1.5112
 6287TIP3    H218801   7.966   1.573   5.787 -1.9269  1.1145 -0.3597
 6288TIP3   OH218802   8.288   0.058   5.720 -0.0579  0.4744 -0.7267
 6288TIP3    H118803   8.235   0.025   5.793  1.5911 -0.5135  0.0493
 6288TIP3    H218804   8.242   0.027   5.642 -0.0258 -1.3505 -0.0415
 6289TIP3   OH218805   0.827   1.439   6.487 -0.2353  0.3510  0.1527
 6289TIP3    H118806   0.874   1.489   6.421 -1.4072  1.7843  0.3554
 6289TIP3    H218807   0.749   1.406   6.441  0.0227 -0.4279  0.2774
 6290TIP3   OH218808   2.219   0.754   4.941 -0.1061  0.5354  0.1801
 6290TIP3    H118809   2.281   0.761   4.868  0.0772  0.3766  0.3180
 6290TIP3    H218810   2.144   0.806   4.914  0.1082  0.7714  0.0282
 6291TIP3   OH218811   3.656   5.730   1.535 -0.0905  0.1111 -0.4407
 6291TIP3    H118812   3.652   5.716   1.630  1.7475  1.5713 -0.1090
 6291TIP3    H218813   3.733   5.681   1.507  0.8299  1.6957 -0.7507
 6292TIP3   OH218814   6.940   2.283   5.508 -0.1460  0.1551  0.0629
 6292TIP3    H118815   6.874   2.213   5.509 -0.5511  0.4574 -2.4545
 6292TIP3    H218816   6.890   2.364   5.508  0.2796  0.4230  0.3159
 6293TIP3   OH218817   8.246   7.089   6.256  0.4052  0.3161  0.1943
 6293TIP3    H118818   8.151   7.092   6.244  0.5058  1.4451 -0.4202
 6293TIP3    H218819   8.258   7.060   6.346 -0.4829 -2.0270 -0.3982
 6294TIP3   OH218820   0.809   2.365   4.431  0.3046  0.2624  0.3544
 6294TIP3    H118821   0.760   2.306   4.488 -0.8201  1.4061  0.5874
 6294TIP3    H218822   0.755   2.444   4.425  1.3367  0.9124 -0.7152
 6295TIP3   OH218823   1.317   0.888   4.311 -0.1525  0.0698  0.2376
 6295TIP3    H118824   1.322   0.961   4.373 -0.1575  0.4206 -0.1702
 6295TIP3    H218825   1.301   0.930   4.227 -1.0532 -0.4540  0.1333
 6296TIP3   OH218826   8.445   7.110   6.826  0.4566 -0.2526  0.1835
 6296TIP3    H118827   8.354   7.090   6.848  0.2628 -1.0788 -1.2678
 6296TIP3    H218828   8.497   7.052   6.881  0.0620 -0.5258  0.2671
 6297TIP3   OH218829   1.527   2.275   5.926 -0.6555  0.1321  0.2154
 6297TIP3    H118830   1.533   2.353   5.982  1.2170 -0.7189  1.2280
 6297TIP3    H218831   1.588   2.293   5.854 -0.4916 -0.2503  0.2591
 6298TIP3   OH218832   6.141   7.841   5.884  0.0612 -0.5228 -0.0287
 6298TIP3    H118833   6.223   7.849   5.934  0.7540 -2.3964 -0.8273
 6298TIP3    H218834   6.120   7.748   5.886 -1.5043 -0.2008 -0.7331
 6299TIP3   OH218835   1.752   0.585   6.398  0.6670  0.1860  0.3187
 6299TIP3    H118836   1.676   0.537   6.366  0.5230 -0.0788  1.0547
 6299TIP3    H218837   1.719   0.635   6.473  1.3100 -0.2547  0.9062
 6300TIP3   OH218838   8.096   0.338   4.771 -0.1690 -0.5009  0.5501
 6300TIP3    H118839   8.034   0.271   4.798 -0.7339  0.6560  2.1718
 6300TIP3    H218840   8.051   0.385   4.700  0.9937 -3.0110 -1.9731
 6301TIP3   OH218841   7.930   2.493   5.262  0.6516 -0.1489  0.5861
 6301TIP3    H118842   7.901   2.423   5.204  0.1237  0.0115  0.6520
 6301TIP3    H218843   7.899   2.466   5.349 -3.4035  2.2566 -0.0183
 6302TIP3   OH218844   0.666   1.923   5.733  0.1262  0.0085  0.1657
 6302TIP3    H118845   0.700   1.839   5.763 -0.8692 -0.3669  0.2672
 6302TIP3    H218846   0.608   1.901   5.661  3.1317  0.9495 -2.6848
 6303TIP3   OH218847   1.797   2.442   5.047  0.3077  0.6955 -0.4002
 6303TIP3    H118848   1.726   2.378   5.049 -0.0586  1.1399  1.7538
 6303TIP3    H218849   1.870   2.398   5.091  1.2839  0.3809 -2.2749
 6304TIP3   OH218850   0.561   3.612   4.692  0.0532  0.3588 -0.2897
 6304TIP3    H118851   0.637   3.584   4.744  0.3424 -1.0115 -1.4287
 6304TIP3    H218852   0.559   3.707   4.701  0.0797  0.1616  2.2639
 6305TIP3   OH218853   2.016   4.194   6.595 -0.0272  0.2854  0.1349
 6305TIP3    H118854   1.995   4.101   6.586  1.3473 -0.0629  0.5033
 6305TIP3    H218855   2.051   4.219   6.510 -1.9061  0.8852 -0.4949
 6306TIP3   OH218856   1.337   3.468   5.517  0.0707 -0.5281 -0.2123
 6306TIP3    H118857   1.298   3.532   5.457 -0.8344 -1.2784 -0.4353
 6306TIP3    H218858   1.408   3.516   5.560 -0.7766  0.7194 -0.1615
 6307TIP3   OH218859   3.105   2.999   6.618 -0.2372 -0.1738  0.0852
 6307TIP3    H118860   3.195   2.979   6.589  0.3351 -0.1095  1.7614
 6307TIP3    H218861   3.056   2.919   6.598  0.5852 -0.8557  0.7113
 6308TIP3   OH218862   2.703   1.498   4.511  0.0215  0.1677 -0.2439
 6308TIP3    H118863   2.774   1.561   4.505 -0.3076  0.4327 -1.7541
 6308TIP3    H218864   2.744   1.418   4.544  0.5191  1.0482  1.2805
 6309TIP3   OH218865   0.577   2.890   4.520  0.0392 -0.0622  0.4054
 6309TIP3    H118866   0.540   2.965   4.474  0.8570  0.7486  1.0521
 6309TIP3    H218867   0.507   2.861   4.578 -0.0610  0.6142  0.6303
 6310TIP3   OH218868   2.862   3.371   6.410  0.1909 -0.3214 -0.1130
 6310TIP3    H118869   2.885   3.445   6.354 -0.6718  0.2451  0.2741
 6310TIP3    H218870   2.947   3.332   6.433  0.5214 -0.9528 -2.3180
 6311TIP3   OH218871   4.651   6.770   2.446 -0.0153  0.6986 -0.1172
 6311TIP3    H118872   4.701   6.738   2.521 -1.8957 -0.2031  0.7668
 6311TIP3    H218873   4.697   6.850   2.419  2.3450 -0.5223  0.1707
 6312TIP3   OH218874   7.988   7.589   5.181 -0.3586  0.2291  0.2831
 6312TIP3    H118875   8.054   7.530   5.144  0.8688  0.2089  2.4790
 6312TIP3    H218876   7.925   7.602   5.109  0.6273 -1.8307 -0.9950
 6313TIP3   OH218877   0.758   0.393   6.523  0.1944  0.2686 -0.1305
 6313TIP3    H118878   0.816   0.380   6.448  1.4677 -0.5935  0.9709
 6313TIP3    H218879   0.783   0.324   6.585  0.3335  1.9784  1.7779
 6314TIP3   OH218880   4.684   5.413   0.052 -0.5978 -0.3436 -0.1234
 6314TIP3    H118881   4.751   5.386  -0.011 -0.1446  0.5586 -0.0338
 6314TIP3    H218882   4.640   5.487   0.011  0.5725  1.1002  1.1448
 6315TIP3   OH218883   6.145   7.908   5.608  0.0087 -0.3171  0.6695
 6315TIP3    H118884   6.132   7.902   5.703 -1.4518 -1.8753  0.4041
 6315TIP3    H218885   6.206   7.837   5.588  0.8453  0.4373  0.5265
 6316TIP3   OH218886   1.591   2.798   6.066  0.2106 -0.5013  0.0568
 6316TIP3    H118887   1.676   2.842   6.063 -0.7209  1.3544 -0.2588
 6316TIP3    H218888   1.559   2.802   5.976 -1.2435  0.9762  0.6119
 6317TIP3   OH218889   6.950   0.122   0.242  0.1642  0.9933 -0.0165
 6317TIP3    H118890   6.911   0.036   0.254  0.9384  0.6973  0.4718
 6317TIP3    H218891   7.040   0.112   0.274  0.2234  2.0157  0.1727
 6318TIP3   OH218892   0.807   0.883   4.751  0.6725 -0.0267 -0.0274
 6318TIP3    H118893   0.720   0.907   4.782  0.5763 -0.1352 -0.2170
 6318TIP3    H218894   0.834   0.811   4.808 -0.4177 -1.7260 -1.6212
 6319TIP3   OH218895   4.642   1.028   4.499  0.4324  0.0926  0.1922
 6319TIP3    H118896   4.714   0.976   4.466  0.5854 -0.2286  1.0201
 6319TIP3    H218897   4.669   1.053   4.587 -0.5060 -0.1303  0.5517
 6320TIP3   OH218898   3.692   3.172   6.284 -0.0523  0.3165  0.4448
 6320TIP3    H118899   3.659   3.083   6.267  0.3318  0.0091  1.2605
 6320TIP3    H218900   3.712   3.207   6.198  0.1894 -0.5467  0.1450
 6321TIP3   OH218901   2.753   1.797   4.765 -0.4468 -0.1423 -0.2184
 6321TIP3    H118902   2.777   1.870   4.822 -0.1556 -0.6227  0.2778
 6321TIP3    H218903   2.803   1.722   4.799 -0.6427 -0.5448 -0.8005
 6322TIP3   OH218904   3.557   2.940   6.260 -0.0174 -0.5658  0.2931
 6322TIP3    H118905   3.546   2.871   6.325  2.2031 -0.7531  0.5088
 6322TIP3    H218906   3.611   2.900   6.191 -0.5922  0.2713 -0.6668
 6323TIP3   OH218907   0.690   1.426   5.680 -0.1548 -0.1588  0.1585
 6323TIP3    H118908   0.649   1.434   5.766  0.7628 -1.4674  0.7345
 6323TIP3    H218909   0.699   1.331   5.666  1.4007  0.0780 -0.5561
 6324TIP3   OH218910   4.688   6.720   0.224 -0.6929 -0.7249 -0.2936
 6324TIP3    H118911   4.778   6.692   0.238 -0.6029 -0.7402 -0.8869
 6324TIP3    H218912   4.653   6.657   0.160 -1.5154 -1.4933  0.8766
 6325TIP3   OH218913   7.197   7.664   5.647 -0.5800  0.1323 -0.6194
 6325TIP3    H118914   7.216   7.756   5.630  0.2570  0.1535  0.4330
 6325TIP3    H218915   7.160   7.632   5.564  1.8147  0.6963 -1.9474
 6326TIP3   OH218916   1.330   1.918   3.390 -0.1652 -0.7715 -0.4807
 6326TIP3    H118917   1.379   1.988   3.433 -1.6248 -1.1842  1.9527
 6326TIP3    H218918   1.314   1.950   3.301  0.6502  1.2400  0.0831
 6327TIP3   OH218919   0.816   2.662   6.186 -0.3352 -0.2734  0.6055
 6327TIP3    H118920   0.733   2.634   6.148 -0.7418  0.7344  0.7202
 6327TIP3    H218921   0.804   2.653   6.281  0.6096 -2.5976  0.5467
 6328TIP3   OH218922   1.842   4.407   6.371  0.2791 -0.0424 -0.8133
 6328TIP3    H118923   1.853   4.315   6.346  0.9322 -0.5900  1.3118
 6328TIP3    H218924   1.823   4.452   6.290 -0.6481 -2.1607 -1.8279
 6329TIP3   OH218925   7.856   3.193   5.730  0.1365 -0.4546  0.0204
 6329TIP3    H118926   7.923   3.239   5.781  0.4123 -1.7398  0.8420
 6329TIP3    H218927   7.781   3.187   5.789 -0.4888  0.4605 -0.6907
 6330TIP3   OH218928   6.671   4.757   5.940  0.1940  0.5899 -0.0197
 6330TIP3    H118929   6.600   4.735   6.000  0.4086  0.8628  0.3387
 6330TIP3    H218930   6.637   4.737   5.853  0.2798 -0.8920  0.2627
 6331TIP3   OH218931   8.061   1.484   6.589 -0.0424  0.2860  0.2013
 6331TIP3    H118932   8.024   1.572   6.592 -0.6548  0.0591 -0.4466
 6331TIP3    H218933   7.987   1.428   6.566 -0.0696 -0.6545  2.4376
 6332TIP3   OH218934   6.619   0.211   0.366 -0.0925 -0.2179  0.0568
 6332TIP3    H118935   6.554   0.209   0.296  1.3595 -1.0740 -1.3059
 6332TIP3    H218936   6.571   0.183   0.444 -1.0756 -2.0746 -1.1796
 6333TIP3   OH218937   0.631   2.037   3.723  0.4409 -0.3904  0.4399
 6333TIP3    H118938   0.674   2.059   3.640  1.3299  1.3018  1.3307
 6333TIP3    H218939   0.681   1.963   3.757 -0.7002 -1.9293 -1.1083
 6334TIP3   OH218940   7.252   0.685   6.728 -0.0274 -0.5183  0.2450
 6334TIP3    H118941   7.204   0.656   6.805 -1.2084  2.6865  0.7463
 6334TIP3    H218942   7.327   0.733   6.762  0.2246 -0.3047 -0.5865
 6335TIP3   OH218943   0.456   2.952   5.851  0.2040 -0.4705 -0.3677
 6335TIP3    H118944   0.400   2.878   5.872  0.9644 -0.6740  0.9838
 6335TIP3    H218945   0.409   3.028   5.884 -0.0556 -0.4610 -0.7552
 6336TIP3   OH218946   1.914   5.141   5.325 -0.0908 -0.4355  0.1914
 6336TIP3    H118947   1.889   5.051   5.346 -0.0373 -0.3595  0.5915
 6336TIP3    H218948   1.832   5.191   5.329 -0.1692 -0.5237 -0.3367
 6337TIP3   OH218949   0.131   1.833   5.888 -0.5877  0.2695 -0.4596
 6337TIP3    H118950   0.156   1.869   5.974 -1.2794 -0.2180 -0.0552
 6337TIP3    H218951   0.061   1.891   5.857  0.4569  1.1495 -1.2336
 6338TIP3   OH218952   1.957   1.645   3.362  0.3085  0.0119 -0.2273
 6338TIP3    H118953   1.899   1.721   3.356 -1.4606 -1.2420  0.3206
 6338TIP3    H218954   1.918   1.591   3.431  3.1372 -0.0554  1.3454
 6339TIP3   OH218955   6.472   2.713   5.417 -0.4617 -0.0461  0.0216
 6339TIP3    H118956   6.520   2.637   5.450 -0.9453 -0.2803  0.1838
 6339TIP3    H218957   6.459   2.695   5.324  0.2709  0.2854 -0.1546
 6340TIP3   OH218958   0.723   1.148   6.779  0.5237  0.9944  0.1706
 6340TIP3    H118959   0.687   1.217   6.723  1.4245  0.6830 -0.7940
 6340TIP3    H218960   0.655   1.132   6.844 -0.7586  0.9541 -1.1738
 6341TIP3   OH218961   0.721   0.651   4.335 -0.0872 -0.5847  0.3487
 6341TIP3    H118962   0.660   0.713   4.296  0.8305 -0.0953 -0.3246
 6341TIP3    H218963   0.709   0.662   4.429  1.0016  1.5832  0.2630
 6342TIP3   OH218964   2.264   0.961   6.790  0.1375  0.2023  0.2755
 6342TIP3    H118965   2.238   0.885   6.737  0.5467  0.6336 -0.5661
 6342TIP3    H218966   2.321   0.925   6.858 -0.3471 -0.3576  0.3891
 6343TIP3   OH218967   1.043   1.850   6.304 -0.1569  0.1037  0.4675
 6343TIP3    H118968   0.998   1.911   6.246 -3.5667 -2.2131  0.5434
 6343TIP3    H218969   1.065   1.775   6.248 -2.3653 -1.6143  1.8321
 6344TIP3   OH218970   7.857   7.718   4.371 -0.0587  0.1163  0.6195
 6344TIP3    H118971   7.821   7.659   4.437 -1.6395  0.2070 -0.1512
 6344TIP3    H218972   7.868   7.801   4.417 -1.9652  0.4177  0.5806
 6345TIP3   OH218973   1.952   0.789   4.672 -0.1622  0.0614  0.3460
 6345TIP3    H118974   1.953   0.842   4.752 -3.0028 -0.6693  0.9433
 6345TIP3    H218975   1.867   0.810   4.632  0.1748 -1.4535 -1.1947
 6346TIP3   OH218976   1.078   0.115   5.587  0.0392  0.1641  0.1218
 6346TIP3    H118977   1.123   0.074   5.514 -0.3080 -1.0029  0.5567
 6346TIP3    H218978   0.985   0.110   5.565 -0.0029  0.8164  0.1279
 6347TIP3   OH218979   5.971   6.609   4.016  0.1872  0.0247  0.0326
 6347TIP3    H118980   6.052   6.643   4.053  0.0393 -1.2802  1.5932
 6347TIP3    H218981   5.934   6.553   4.085 -1.0867 -0.8847 -1.3537
 6348TIP3   OH218982   2.865   1.940   4.485 -0.6772  0.0626 -0.7486
 6348TIP3    H118983   2.890   1.850   4.505 -2.0878 -0.5135 -1.4583
 6348TIP3    H218984   2.947   1.988   4.483 -0.1559 -0.4473  3.2785
 6349TIP3   OH218985   1.335   4.392   5.943  0.4006 -0.2641  0.1418
 6349TIP3    H118986   1.273   4.429   5.881  0.2449  1.8531  1.4967
 6349TIP3    H218987   1.294   4.310   5.972 -0.2729 -0.4512 -1.3125
 6350TIP3   OH218988   1.573   1.386   3.645  0.1425 -0.1417 -0.0262
 6350TIP3    H118989   1.552   1.295   3.625 -1.5376  0.0029  0.9625
 6350TIP3    H218990   1.559   1.434   3.563  0.5863 -0.6860 -0.4225
 6351TIP3   OH218991   0.612   0.378   6.864 -0.3689 -0.2706 -0.1192
 6351TIP3    H118992   0.674   0.313   6.832 -0.3101 -0.8529  1.1562
 6351TIP3    H218993   0.536   0.369   6.805  0.0845 -0.7066 -0.6450
 6352TIP3   OH218994   1.555   1.497   6.129  0.7299 -0.2182  0.2360
 6352TIP3    H118995   1.477   1.542   6.096  0.2465 -0.6454  0.7918
 6352TIP3    H218996   1.526   1.407   6.143  1.1791 -0.2448  0.9815
 6353TIP3   OH218997   2.954   2.522   3.147 -0.5570 -0.1155 -0.0317
 6353TIP3    H118998   3.029   2.479   3.105 -1.6237 -0.1707 -1.9795
 6353TIP3    H218999   2.956   2.491   3.237  2.4853  0.8560  0.3190
 6354TIP3   OH219000   3.413   3.233   5.705  0.3460 -0.2057  0.3933
 6354TIP3    H119001   3.412   3.323   5.672 -2.1308  0.3456  1.7909
 6354TIP3    H219002   3.466   3.237   5.785 -1.3638  0.4541  1.5164
 6355TIP3   OH219003   1.853   4.527   6.103 -0.5459  0.3086 -0.0872
 6355TIP3    H119004   1.775   4.582   6.092  0.5143  1.4806 -1.7699
 6355TIP3    H219005   1.878   4.502   6.015  1.1503  0.1481  0.4231
 6356TIP3   OH219006   2.501   3.674   4.852  0.3576 -0.8972  0.5178
 6356TIP3    H119007   2.544   3.695   4.934  2.4842 -0.3023 -0.7031
 6356TIP3    H219008   2.478   3.759   4.814  2.0833 -1.0048 -0.8601
 6357TIP3   OH219009   1.125   7.325   4.463  0.4884 -0.4269  0.3571
 6357TIP3    H119010   1.052   7.376   4.499 -0.2912 -1.0304 -0.3375
 6357TIP3    H219011   1.119   7.338   4.368 -0.2554 -2.4814  0.1054
 6358TIP3   OH219012   5.464   5.366   0.299  0.4137  0.0606 -0.4587
 6358TIP3    H119013   5.410   5.388   0.375  1.7981  1.2148  0.2151
 6358TIP3    H219014   5.409   5.391   0.224  0.0274  1.3260  0.2184
 6359TIP3   OH219015   5.495   3.750   6.229 -0.6252  0.0025  0.3765
 6359TIP3    H119016   5.412   3.797   6.230 -0.7498 -0.2358  1.0911
 6359TIP3    H219017   5.477   3.668   6.275  0.0248 -0.0198  0.5924
 6360TIP3   OH219018   3.533   2.052   5.678 -0.5783  0.1432 -0.0843
 6360TIP3    H119019   3.529   2.015   5.766 -2.4647 -2.6415 -1.2670
 6360TIP3    H219020   3.477   2.130   5.682  0.6855  0.9886  1.5798
 6361TIP3   OH219021   3.600   0.537   4.498  0.0922  0.2873 -0.3166
 6361TIP3    H119022   3.517   0.506   4.461  0.2270 -1.1107  0.5047
 6361TIP3    H219023   3.591   0.523   4.592  0.2919  2.5337  0.0591
 6362TIP3   OH219024   4.897   1.378   6.187  1.2190  0.0341  0.4043
 6362TIP3    H119025   4.918   1.431   6.264 -0.1061 -0.3702  1.0736
 6362TIP3    H219026   4.975   1.383   6.132  1.6253  1.5394  1.0913
 6363TIP3   OH219027   3.003   1.347   5.098 -0.3372  0.0077 -0.4547
 6363TIP3    H119028   2.919   1.318   5.062 -1.2849  3.9215 -1.6284
 6363TIP3    H219029   3.064   1.336   5.025 -0.9254  1.8436 -1.2664
 6364TIP3   OH219030   2.847   0.287   4.879 -0.1661 -0.7250 -0.5101
 6364TIP3    H119031   2.874   0.350   4.812  2.0144 -1.1659 -0.0818
 6364TIP3    H219032   2.869   0.330   4.962 -2.7452 -0.2333 -0.0447
 6365TIP3   OH219033   3.527   1.974   5.980 -0.4006 -0.4995 -0.1084
 6365TIP3    H119034   3.615   1.993   6.013 -0.2046  0.2060 -1.0260
 6365TIP3    H219035   3.533   1.885   5.945  0.3248  0.0606 -1.4434
 6366TIP3   OH219036   3.411   1.081   5.382 -0.2717  0.2114 -0.7103
 6366TIP3    H119037   3.400   1.106   5.474 -0.4176 -0.4774 -0.5422
 6366TIP3    H219038   3.329   1.107   5.340 -0.2092  0.5161 -0.6477
 6367TIP3   OH219039   1.836   3.220   5.417  0.3267 -0.5790 -0.1528
 6367TIP3    H119040   1.861   3.263   5.499  2.2576 -0.4324 -0.7912
 6367TIP3    H219041   1.826   3.127   5.441  1.2705 -0.6042  0.1808
 6368TIP3   OH219042   3.595   2.735   4.079 -0.0551 -0.2273  0.3836
 6368TIP3    H119043   3.509   2.747   4.040  0.6545 -0.6024 -1.3489
 6368TIP3    H219044   3.649   2.804   4.040  0.2872  0.4103  1.9327
 6369TIP3   OH219045   2.572   1.785   6.901 -0.0670  0.4166 -0.0934
 6369TIP3    H119046   2.627   1.707   6.886  0.9253  1.1006 -0.0862
 6369TIP3    H219047   2.593   1.811   6.991  0.7329  1.5634 -0.6060
 6370TIP3   OH219048   2.357   2.996   4.885  0.0510  0.4193  0.1684
 6370TIP3    H119049   2.286   3.010   4.823  0.4950 -2.4660 -1.0679
 6370TIP3    H219050   2.313   2.972   4.966 -0.4518  1.9470  0.3765
 6371TIP3   OH219051   2.757   1.224   5.039 -0.0147  0.0212 -0.5667
 6371TIP3    H119052   2.706   1.166   5.096 -1.7154  1.8274 -0.2081
 6371TIP3    H219053   2.728   1.202   4.950 -2.4354  1.9174 -0.2942
 6372TIP3   OH219054   2.893   0.869   4.486 -0.1085 -0.4304 -0.1007
 6372TIP3    H119055   2.854   0.801   4.542 -2.3614  0.0596 -1.0468
 6372TIP3    H219056   2.957   0.821   4.433 -1.7391 -1.8791 -0.8373
 6373TIP3   OH219057   2.558   3.512   6.014  0.2290 -0.1686 -0.2686
 6373TIP3    H119058   2.551   3.473   6.101  0.8118 -0.7869 -0.5021
 6373TIP3    H219059   2.478   3.484   5.968  0.6172 -1.0462 -0.4168
 6374TIP3   OH219060   4.767   2.030   4.671 -0.2742  0.1273 -0.3952
 6374TIP3    H119061   4.794   1.975   4.597  0.7284 -0.6861  0.5473
 6374TIP3    H219062   4.830   2.009   4.740 -1.4653  0.5412  0.8409
 6375TIP3   OH219063   4.255   0.120   5.747  0.0685  0.3378 -0.3448
 6375TIP3    H119064   4.219   0.205   5.774  0.7785  0.3862  0.4956
 6375TIP3    H219065   4.322   0.141   5.682  0.9962  0.5125  0.6529
 6376TIP3   OH219066   4.208   4.433   2.832  0.0156  0.3142 -0.0931
 6376TIP3    H119067   4.283   4.473   2.789 -0.9127  0.9804 -1.1119
 6376TIP3    H219068   4.139   4.431   2.765 -0.6533 -0.9631  0.5919
 6377TIP3   OH219069   1.524   2.169   5.361  0.4226 -0.1483 -0.3350
 6377TIP3    H119070   1.516   2.212   5.275  2.5672  0.6423 -0.1547
 6377TIP3    H219071   1.593   2.104   5.349  0.8146  0.0506  0.8267
 6378TIP3   OH219072   3.821   3.239   6.047 -0.1220 -0.9594  0.8947
 6378TIP3    H119073   3.867   3.163   6.010  1.3025 -0.1568  0.9709
 6378TIP3    H219074   3.867   3.314   6.010 -0.0599 -0.1468  2.6163
 6379TIP3   OH219075   1.948   3.602   3.821 -0.2765  0.3256  0.2529
 6379TIP3    H119076   2.006   3.575   3.750 -1.1135  1.7515 -1.0049
 6379TIP3    H219077   1.881   3.534   3.824 -0.1079  0.1382 -0.1598
 6380TIP3   OH219078   4.157   1.372   3.899  0.2241  0.6362 -0.5518
 6380TIP3    H119079   4.105   1.292   3.889  0.6729  0.2143  0.4100
 6380TIP3    H219080   4.235   1.357   3.846  0.4161  0.3434 -0.1844
 6381TIP3   OH219081   2.757   3.540   4.760  0.4992  0.2428 -0.4889
 6381TIP3    H119082   2.771   3.530   4.855  0.9461  0.0788 -0.5709
 6381TIP3    H219083   2.662   3.547   4.751  0.2248 -2.8129 -0.3201
 6382TIP3   OH219084   3.040   1.643   3.984  0.1102  0.4216 -0.1802
 6382TIP3    H119085   3.013   1.671   3.896  0.2042 -2.8846 -1.3708
 6382TIP3    H219086   2.968   1.670   4.041 -0.0103  2.5225 -1.2901
 6383TIP3   OH219087   2.556   2.246   6.012  0.3807 -0.2164  0.3397
 6383TIP3    H119088   2.548   2.151   6.021  1.0647 -0.2054  1.1169
 6383TIP3    H219089   2.624   2.258   5.946  0.7846 -0.2681  0.7432
 6384TIP3   OH219090   3.448   0.664   5.594  0.1188 -0.1966  0.0536
 6384TIP3    H119091   3.541   0.663   5.573  0.3921 -1.2337  1.2072
 6384TIP3    H219092   3.438   0.734   5.659  0.1638 -0.3370  0.2125
 6385TIP3   OH219093   0.668   3.965   6.439  0.1667 -0.0443  0.1640
 6385TIP3    H119094   0.749   3.922   6.465 -0.8842 -1.4510  1.1957
 6385TIP3    H219095   0.693   4.056   6.424  2.4867 -1.0002 -2.2596
 6386TIP3   OH219096   3.084   1.226   5.581 -0.1667  0.5109  0.1053
 6386TIP3    H119097   3.011   1.165   5.570 -0.5649  0.9733  0.1735
 6386TIP3    H219098   3.062   1.300   5.524  1.5775 -0.5368 -2.0203
 6387TIP3   OH219099   7.227   7.324   6.527 -0.1839 -0.0914 -0.0004
 6387TIP3    H119100   7.298   7.352   6.586  0.0732 -1.9987  0.6367
 6387TIP3    H219101   7.271   7.272   6.460 -1.1151 -2.5335  1.2162
 6388TIP3   OH219102   4.937   2.917   4.819  0.7381  0.2705 -0.0911
 6388TIP3    H119103   4.898   2.864   4.889  1.3517 -0.4986 -0.3248
 6388TIP3    H219104   4.871   2.984   4.801  0.7243  0.7230  1.4844
 6389TIP3   OH219105   7.339   7.985   6.173  0.0232 -0.3526 -0.0916
 6389TIP3    H119106   7.385   8.062   6.208 -1.0774  2.3598 -4.1390
 6389TIP3    H219107   7.409   7.931   6.135  0.7415 -1.0473  2.1804
 6390TIP3   OH219108   1.650   2.227   5.647 -0.1092 -0.1033 -0.0114
 6390TIP3    H119109   1.615   2.144   5.679 -1.9458  0.6762  0.0879
 6390TIP3    H219110   1.632   2.226   5.553  0.5963 -0.1779 -0.1408
 6391TIP3   OH219111   2.469   0.585   5.991  0.5707 -0.2984  0.2827
 6391TIP3    H119112   2.387   0.573   6.039  1.1153 -0.9036  1.0828
 6391TIP3    H219113   2.456   0.664   5.940 -0.4695 -0.3220  0.5079
 6392TIP3   OH219114   3.100   0.855   6.196 -0.2249 -0.0406  0.4761
 6392TIP3    H119115   3.121   0.803   6.118 -0.3371 -0.3280  0.6364
 6392TIP3    H219116   3.165   0.925   6.196 -0.0633 -0.1883  0.2676
 6393TIP3   OH219117   7.193   7.762   4.181  0.1611 -0.1562  0.1993
 6393TIP3    H119118   7.260   7.751   4.114 -1.5297  0.5913 -1.6780
 6393TIP3    H219119   7.187   7.856   4.194 -0.8329 -0.1781 -0.0168
 6394TIP3   OH219120   3.906   1.828   4.588 -0.1161 -0.6165  0.6170
 6394TIP3    H119121   4.001   1.829   4.600 -0.0281 -1.0048 -0.0396
 6394TIP3    H219122   3.893   1.861   4.499 -0.4193 -3.5959 -0.4720
 6395TIP3   OH219123   0.902   2.531   6.538 -0.2065 -0.1771  1.0331
 6395TIP3    H119124   0.978   2.588   6.525 -1.1580  1.2138  1.4151
 6395TIP3    H219125   0.936   2.443   6.525  1.2925  0.4718  0.3471
 6396TIP3   OH219126   2.568   2.427   5.512  0.0065 -0.0804 -0.0520
 6396TIP3    H119127   2.478   2.409   5.540 -0.7027  0.1098 -2.1679
 6396TIP3    H219128   2.598   2.497   5.571 -1.3897  0.1874  0.3504
 6397TIP3   OH219129   1.657   3.528   6.323 -0.2798  0.0592  0.1707
 6397TIP3    H119130   1.712   3.465   6.276  1.4811 -0.5287  2.9107
 6397TIP3    H219131   1.587   3.475   6.361  0.3775 -0.0332  1.2612
 6398TIP3   OH219132   4.274   1.539   6.856  0.1449  0.2561 -0.4271
 6398TIP3    H119133   4.343   1.549   6.921 -0.5742  1.5031  0.1673
 6398TIP3    H219134   4.238   1.452   6.872 -1.0513  1.1348  1.8837
 6399TIP3   OH219135   4.556   3.563   2.761 -0.3204  0.1577  0.5089
 6399TIP3    H119136   4.464   3.538   2.753  0.0646 -0.7068 -1.6101
 6399TIP3    H219137   4.592   3.503   2.827 -0.7424 -1.0765 -0.3647
 6400TIP3   OH219138   3.506   1.914   2.908  0.1645  0.0903  0.1570
 6400TIP3    H119139   3.519   1.868   2.991 -0.0960 -0.5134 -0.1377
 6400TIP3    H219140   3.527   1.850   2.841  4.6605  1.8147 -0.2768
 6401TIP3   OH219141   1.557   2.340   6.233 -0.3367  0.3728 -0.1574
 6401TIP3    H119142   1.504   2.260   6.222  1.0295 -0.3262 -1.8399
 6401TIP3    H219143   1.494   2.411   6.221 -1.0223 -0.4419 -1.5840
 6402TIP3   OH219144   3.230   0.774   4.706  0.4785 -0.4744  0.1401
 6402TIP3    H119145   3.217   0.722   4.626  0.2675  1.7993 -1.3579
 6402TIP3    H219146   3.156   0.750   4.762  1.3741 -3.1303  0.2827
 6403TIP3   OH219147   5.086   3.932   6.911  0.3197  0.3163 -0.3077
 6403TIP3    H119148   5.040   3.886   6.841 -1.7968 -0.2833  1.4442
 6403TIP3    H219149   5.034   4.012   6.925 -0.6198 -0.6852  2.1395
 6404TIP3   OH219150   1.311   3.941   6.860  0.4478 -0.1725 -0.3773
 6404TIP3    H119151   1.378   3.905   6.918  0.5111  0.4418 -0.0681
 6404TIP3    H219152   1.330   4.035   6.857 -0.1020 -0.0724 -0.6799
 6405TIP3   OH219153   4.316   0.291   6.506 -0.4234  0.0361 -0.2574
 6405TIP3    H119154   4.274   0.294   6.420 -0.7924  1.8144 -0.0344
 6405TIP3    H219155   4.244   0.305   6.569 -0.1162 -0.9759  0.3339
 6406TIP3   OH219156   6.693   2.790   0.676  0.0157 -0.1032 -0.2877
 6406TIP3    H119157   6.656   2.702   0.688  1.3567 -0.6231  0.1383
 6406TIP3    H219158   6.643   2.845   0.735  0.7054 -1.0262  1.1794
 6407TIP3   OH219159   3.686   1.156   5.260  0.3618 -0.1092  0.4645
 6407TIP3    H119160   3.683   1.215   5.336 -0.3526  0.6357 -0.1308
 6407TIP3    H219161   3.778   1.158   5.232  0.5970 -0.2653  1.2136
 6408TIP3   OH219162   3.777   3.778   4.102 -0.2205 -0.1100 -0.6778
 6408TIP3    H119163   3.795   3.692   4.141 -1.7987 -0.7555 -1.3169
 6408TIP3    H219164   3.683   3.790   4.115  0.0270  1.6344 -0.3977
 6409TIP3   OH219165   4.406   2.330   4.002  0.1522  0.3506 -0.0606
 6409TIP3    H119166   4.381   2.355   4.091 -1.5896 -1.0277 -0.1234
 6409TIP3    H219167   4.357   2.389   3.945  0.9833  0.9923 -0.1103
 6410TIP3   OH219168   3.062   1.539   6.167  0.1938 -0.1808  0.0392
 6410TIP3    H119169   3.042   1.502   6.253 -0.3113  2.2741  1.0061
 6410TIP3    H219170   3.156   1.526   6.156  0.1495 -1.0766  0.6628
 6411TIP3   OH219171   2.477   2.243   4.501 -0.1713 -0.1281 -0.0199
 6411TIP3    H119172   2.427   2.207   4.574 -1.1730 -1.7030 -1.4470
 6411TIP3    H219173   2.443   2.198   4.424  1.8177  0.5090 -1.3089
 6412TIP3   OH219174   5.079   1.956   5.861 -0.2634 -0.1701 -0.0643
 6412TIP3    H119175   5.118   2.023   5.805  0.8200  0.0492  0.9336
 6412TIP3    H219176   4.986   1.980   5.866 -0.0478  0.7406 -0.4337
 6413TIP3   OH219177   4.148   2.123   5.897  0.3761  0.1510  1.0764
 6413TIP3    H119178   4.159   2.093   5.987  0.4421 -0.0530  0.9994
 6413TIP3    H219179   4.227   2.175   5.879  0.2755  0.3480  1.1988
 6414TIP3   OH219180   5.580   3.728   5.531  0.1248 -0.0187  0.2640
 6414TIP3    H119181   5.623   3.745   5.447  1.3430  0.2199  0.9287
 6414TIP3    H219182   5.649   3.739   5.596 -0.6339 -0.9870  1.2402
 6415TIP3   OH219183   0.082   8.014   5.952  0.1781 -0.5979  0.0662
 6415TIP3    H119184   0.083   7.931   5.905  0.9881 -0.5798  0.0301
 6415TIP3    H219185   0.102   8.080   5.886  0.9308 -0.5325  0.3410
 6416TIP3   OH219186   2.723   1.991   4.261 -0.4588 -0.2386  0.4929
 6416TIP3    H119187   2.767   2.076   4.257 -0.0660 -0.4272  0.9146
 6416TIP3    H219188   2.744   1.956   4.347 -1.6269 -0.2229  0.7932
 6417TIP3   OH219189   1.120   2.987   6.053 -0.2029 -0.5709  0.3090
 6417TIP3    H119190   1.115   2.980   6.148 -0.6404 -0.2167  0.3149
 6417TIP3    H219191   1.041   3.035   6.028 -0.1203 -0.7110 -0.2381
 6418TIP3   OH219192   0.862   7.425   4.925  0.0773  0.0086  0.2534
 6418TIP3    H119193   0.770   7.398   4.928  0.4423 -1.2917 -0.1317
 6418TIP3    H219194   0.864   7.496   4.861 -0.6180 -0.1526  0.0505
 6419TIP3   OH219195   4.185   2.179   4.292  0.1845 -0.4500  0.6424
 6419TIP3    H119196   4.164   2.268   4.321 -0.2449 -0.5564  0.6461
 6419TIP3    H219197   4.190   2.185   4.197 -0.1410 -0.4885  0.6231
 6420TIP3   OH219198   3.734   2.878   5.992  0.6978  0.0013  0.5745
 6420TIP3    H119199   3.812   2.890   6.046  0.4083  0.8750  0.8017
 6420TIP3    H219200   3.741   2.788   5.960  1.7712  0.0564  0.6326
 6421TIP3   OH219201   0.807   1.389   4.844  0.3560 -0.4483 -0.0981
 6421TIP3    H119202   0.821   1.380   4.938 -1.1521 -1.0118  0.0797
 6421TIP3    H219203   0.717   1.360   4.830 -0.1040  1.5598 -1.4518
 6422TIP3   OH219204   3.266   1.732   5.397 -0.4260  0.3617 -0.3582
 6422TIP3    H119205   3.290   1.823   5.376  0.5454  0.4534  1.0739
 6422TIP3    H219206   3.232   1.736   5.486 -1.0420 -0.5813 -0.5440
 6423TIP3   OH219207   3.029   1.960   6.356  0.0412  0.4223 -0.0564
 6423TIP3    H119208   2.983   1.998   6.281 -0.7063 -2.0530 -0.9050
 6423TIP3    H219209   3.109   1.924   6.319  0.6271  0.9556  0.6886
 6424TIP3   OH219210   3.768   2.681   3.182  0.6876 -0.0970 -1.0326
 6424TIP3    H119211   3.700   2.641   3.129 -0.1552  0.5170 -0.4324
 6424TIP3    H219212   3.841   2.695   3.122  0.7717 -1.9576 -1.3764
 6425TIP3   OH219213   0.960   2.286   4.016  0.0912 -0.3135 -0.3687
 6425TIP3    H119214   0.920   2.256   3.934  2.4439 -0.4176 -1.5310
 6425TIP3    H219215   0.991   2.206   4.058 -1.3478 -0.2884  0.8008
 6426TIP3   OH219216   8.176   7.611   5.428 -0.0254 -0.1072 -0.3430
 6426TIP3    H119217   8.235   7.540   5.455 -1.0233 -0.2671  1.5644
 6426TIP3    H219218   8.170   7.667   5.505 -0.2822  1.3529 -1.4084
 6427TIP3   OH219219   2.632   1.129   4.789 -0.1352 -0.2837 -0.1799
 6427TIP3    H119220   2.599   1.040   4.800 -2.5919  0.9766  3.2549
 6427TIP3    H219221   2.579   1.165   4.718 -1.2061 -0.6135  0.4382
 6428TIP3   OH219222   3.362   1.393   5.876  0.4588 -0.1521 -0.5074
 6428TIP3    H119223   3.288   1.453   5.880 -0.8060 -1.5696 -2.0728
 6428TIP3    H219224   3.429   1.434   5.932 -1.6089  0.9464  1.2213
 6429TIP3   OH219225   3.320   1.461   5.282  0.0238  0.2359  0.5375
 6429TIP3    H119226   3.343   1.537   5.335  0.1741  0.8745 -0.4257
 6429TIP3    H219227   3.228   1.444   5.304 -0.5497  1.7849 -0.5187
 6430TIP3   OH219228   3.385   1.839   5.008  0.0305  0.0136  0.8845
 6430TIP3    H119229   3.323   1.776   5.046  1.1175 -2.0807 -0.6931
 6430TIP3    H219230   3.332   1.889   4.945 -0.5195 -0.3699  1.0385
 6431TIP3   OH219231   3.200   3.915   6.227 -0.1251  0.4450 -0.0539
 6431TIP3    H119232   3.238   3.968   6.157  1.5236 -0.8620 -0.1716
 6431TIP3    H219233   3.275   3.877   6.272 -1.2544 -0.7969  0.8083
 6432TIP3   OH219234   7.113   7.741   6.769  0.6337  0.0354  0.3651
 6432TIP3    H119235   7.124   7.722   6.676  0.1507  0.8202  0.1433
 6432TIP3    H219236   7.192   7.789   6.794  0.4525  0.4281  0.1907
 6433TIP3   OH219237   4.131   4.081   6.248  0.6136 -0.3537  0.2096
 6433TIP3    H119238   4.210   4.134   6.256  0.6184 -0.3496  0.1363
 6433TIP3    H219239   4.153   4.014   6.183 -0.2282  1.1058 -1.6520
 6434TIP3   OH219240   2.726   2.978   3.654 -0.3281  0.8685 -0.0225
 6434TIP3    H119241   2.656   3.040   3.675 -2.3546 -1.0805 -0.8080
 6434TIP3    H219242   2.799   3.033   3.627 -1.0337  3.0253  2.2372
 6435TIP3   OH219243   3.187   2.475   4.297  0.1173 -0.0525 -0.4297
 6435TIP3    H119244   3.209   2.555   4.345  1.7569  0.0023 -1.2534
 6435TIP3    H219245   3.224   2.488   4.210 -1.2131 -0.9400 -1.1458
 6436TIP3   OH219246   2.091   0.805   5.436  0.3196 -0.6026  0.1137
 6436TIP3    H119247   2.008   0.783   5.479  0.3340  0.7915  0.8838
 6436TIP3    H219248   2.086   0.762   5.351 -0.3768 -2.1110  0.8981
 6437TIP3   OH219249   4.025   6.711   2.158  0.3083  0.2007  0.4406
 6437TIP3    H119250   3.972   6.678   2.230 -0.9391 -0.3851 -0.7259
 6437TIP3    H219251   4.033   6.805   2.175 -1.8772  0.4571  0.1617
 6438TIP3   OH219252   4.195   1.997   6.177 -0.3863 -0.3767 -0.1345
 6438TIP3    H119253   4.229   2.080   6.212 -1.4865 -0.2917  0.7562
 6438TIP3    H219254   4.208   1.934   6.248 -2.0467 -0.3545  0.1996
 6439TIP3   OH219255   2.898   0.905   4.890 -0.3907 -0.0524 -0.2431
 6439TIP3    H119256   2.922   0.812   4.890 -0.5693 -0.1284 -2.2846
 6439TIP3    H219257   2.802   0.905   4.885 -0.4566  0.2435  0.9891
 6440TIP3   OH219258   4.243   3.299   6.282  0.3641 -0.1215  0.0550
 6440TIP3    H119259   4.258   3.243   6.357  1.0491  1.4317  1.1021
 6440TIP3    H219260   4.149   3.318   6.284  0.3472 -0.2485  0.3932
 6441TIP3   OH219261   2.816   0.092   6.353  0.2278  0.3780  0.4622
 6441TIP3    H119262   2.787   0.140   6.430 -0.4843  1.2384 -0.3246
 6441TIP3    H219263   2.858   0.158   6.298  0.3735 -0.1515 -0.0733
 6442TIP3   OH219264   3.353   1.511   6.157  0.2018 -0.4347 -0.1243
 6442TIP3    H119265   3.366   1.585   6.217 -0.2192 -1.4464  1.2593
 6442TIP3    H219266   3.438   1.467   6.155 -0.3431 -1.6075  1.4234
 6443TIP3   OH219267   3.384   2.950   6.507 -0.0453 -0.3407  0.2252
 6443TIP3    H119268   3.395   2.858   6.481 -1.1266 -0.6768  0.9154
 6443TIP3    H219269   3.373   2.997   6.425  1.5457 -0.6763 -0.2005
 6444TIP3   OH219270   3.057   0.574   5.478 -0.1204 -0.3079  0.0142
 6444TIP3    H119271   3.024   0.491   5.514 -1.9355  0.4054  0.0329
 6444TIP3    H219272   3.023   0.576   5.388 -1.6641  1.2614  0.6002
 6445TIP3   OH219273   2.849   1.658   5.377 -0.9214 -0.1966  0.1813
 6445TIP3    H119274   2.851   1.701   5.292 -2.3220  1.3948  0.9136
 6445TIP3    H219275   2.766   1.611   5.377 -1.8161  1.3286  1.3509
 6446TIP3   OH219276   5.652   7.469   0.126  0.2495  0.4236  0.6501
 6446TIP3    H119277   5.631   7.380   0.098  1.7621  0.4889 -0.7680
 6446TIP3    H219278   5.570   7.517   0.120 -0.0136 -0.2336 -1.1227
 6447TIP3   OH219279   4.431   2.908   5.395  0.1205 -0.8909  0.2014
 6447TIP3    H119280   4.402   2.819   5.373 -0.9619 -0.2780 -0.9685
 6447TIP3    H219281   4.350   2.959   5.400  0.5155 -0.4675  3.3697
 6448TIP3   OH219282   3.078   3.771   2.753  0.0596  0.8651  0.1474
 6448TIP3    H119283   3.116   3.700   2.702  0.0969  1.2202 -0.3241
 6448TIP3    H219284   2.988   3.744   2.770 -0.3482  1.3167 -1.2106
 6449TIP3   OH219285   0.970   2.945   6.572  0.2838 -0.1742 -0.1173
 6449TIP3    H119286   0.932   2.965   6.657  0.4654  1.4469 -0.4072
 6449TIP3    H219287   1.040   2.882   6.591 -2.2579 -2.9248  0.4559
 6450TIP3   OH219288   3.547   3.459   4.065  0.5705  0.3413  0.1215
 6450TIP3    H119289   3.551   3.498   3.978 -1.6105  0.7603  0.1887
 6450TIP3    H219290   3.632   3.479   4.104  0.5326  2.5931 -0.8678
 6451TIP3   OH219291   3.227   0.408   3.697  0.4979  0.1289 -0.1787
 6451TIP3    H119292   3.284   0.397   3.773 -1.6106 -0.7028  1.3117
 6451TIP3    H219293   3.287   0.410   3.622  2.5309  0.1464  1.4224
 6452TIP3   OH219294   2.406   1.948   5.660  0.0256 -0.0663 -0.0714
 6452TIP3    H119295   2.378   2.038   5.678  1.2914  0.5917 -1.3496
 6452TIP3    H219296   2.333   1.909   5.612 -0.0158  0.6549 -0.5897
 6453TIP3   OH219297   1.799   3.227   5.997  0.2483  0.3475  0.3204
 6453TIP3    H119298   1.793   3.173   5.918  1.7887  0.4267  0.1440
 6453TIP3    H219299   1.752   3.308   5.975  0.6688  0.3668 -0.5081
 6454TIP3   OH219300   2.521   2.536   6.698  0.1930  0.3946  0.4516
 6454TIP3    H119301   2.485   2.596   6.634  1.1273  1.2428  0.7041
 6454TIP3    H219302   2.502   2.576   6.783  1.8496  0.9449  0.5818
 6455TIP3   OH219303   1.975   2.268   5.187 -0.4609 -0.2069 -0.2080
 6455TIP3    H119304   1.969   2.265   5.091 -1.1785  1.2002 -0.2110
 6455TIP3    H219305   1.999   2.179   5.212 -0.6397 -0.6766 -1.6736
 6456TIP3   OH219306   0.668   0.890   5.569  0.4230 -0.9745  0.0768
 6456TIP3    H119307   0.630   0.858   5.651  1.0595  0.1065  0.8085
 6456TIP3    H219308   0.593   0.904   5.511  0.0862 -3.1438 -0.0425
 6457TIP3   OH219309   5.253   1.687   5.120  0.0311  0.2328  0.2643
 6457TIP3    H119310   5.219   1.772   5.089 -1.2264 -0.0567  0.8248
 6457TIP3    H219311   5.343   1.706   5.146 -0.3270  1.4681  0.6548
 6458TIP3   OH219312   4.029   2.228   2.219  0.9171 -0.2602  0.2511
 6458TIP3    H119313   3.988   2.203   2.137  0.8902 -0.0976  0.2145
 6458TIP3    H219314   4.065   2.316   2.202  0.8816 -0.2121  0.4223
 6459TIP3   OH219315   3.830   1.275   5.013  0.6542 -0.2824  0.3200
 6459TIP3    H119316   3.887   1.278   4.936  0.7557  2.1608  0.4473
 6459TIP3    H219317   3.862   1.200   5.063  3.0449  0.3469 -0.1638
 6460TIP3   OH219318   3.029   1.184   4.212  0.1514  0.1859 -1.0444
 6460TIP3    H119319   2.958   1.130   4.245 -0.1375  1.0731 -0.2207
 6460TIP3    H219320   3.023   1.176   4.116 -1.6980  1.1057 -1.0090
 6461TIP3   OH219321   0.882   1.223   6.139  0.1401 -0.0329 -0.0305
 6461TIP3    H119322   0.797   1.256   6.169 -0.4221 -0.1477 -1.4670
 6461TIP3    H219323   0.861   1.159   6.071  1.3821  0.1610 -0.6129
 6462TIP3   OH219324   0.928   7.643   4.295 -0.2721  0.1459  0.1497
 6462TIP3    H119325   0.908   7.732   4.264  1.9625  0.3824 -0.6694
 6462TIP3    H219326   1.005   7.654   4.351 -0.1580 -1.2548  0.2804
 6463TIP3   OH219327   7.130   7.811   5.319 -0.6373 -0.6321 -0.0542
 6463TIP3    H119328   7.215   7.836   5.355 -0.9854 -1.3248  1.2667
 6463TIP3    H219329   7.110   7.881   5.256  0.7681 -0.3195 -0.1781
 6464TIP3   OH219330   0.149   0.872   5.391  0.1278  0.0253 -0.2580
 6464TIP3    H119331   0.204   0.942   5.427 -3.7273  2.7468  0.6152
 6464TIP3    H219332   0.127   0.817   5.466 -1.1635  0.9530  0.0544
 6465TIP3   OH219333   3.070   1.560   6.699 -0.3032  1.0440  0.8025
 6465TIP3    H119334   3.153   1.533   6.739  0.1336  2.1632  0.6520
 6465TIP3    H219335   3.046   1.640   6.745 -2.1557 -0.1713  1.9991
 6466TIP3   OH219336   3.832   1.914   6.555  0.1252 -0.6350  0.4785
 6466TIP3    H119337   3.917   1.945   6.526  0.5278 -0.2093  2.0778
 6466TIP3    H219338   3.830   1.822   6.529  0.2971 -0.1787 -1.2348
 6467TIP3   OH219339   0.528   2.322   6.451  0.8688 -0.6246  0.0470
 6467TIP3    H119340   0.433   2.333   6.455  1.1654  1.6622  1.5220
 6467TIP3    H219341   0.540   2.230   6.427 -1.7052 -1.0249  0.1387
 6468TIP3   OH219342   7.979   1.385   5.021  0.5041  0.5126  0.1377
 6468TIP3    H119343   8.034   1.437   5.078 -1.3230  2.5051  0.1547
 6468TIP3    H219344   7.907   1.443   4.997 -0.9850 -1.6289 -0.8034
 6469TIP3   OH219345   4.190   4.487   5.115 -0.0129  0.1921  0.4047
 6469TIP3    H119346   4.131   4.434   5.169 -0.9839 -0.2175 -1.0119
 6469TIP3    H219347   4.141   4.567   5.097  0.2283  0.2439 -0.0324
 6470TIP3   OH219348   2.954   2.939   5.707 -0.0767  0.3302  0.1817
 6470TIP3    H119349   2.923   2.936   5.617 -1.2531  0.6981  0.5724
 6470TIP3    H219350   3.014   3.014   5.710 -0.9006  1.0001 -0.0268
 6471TIP3   OH219351   0.278   1.907   6.412  0.7772  0.7284 -0.5650
 6471TIP3    H119352   0.209   1.974   6.421  2.3761  2.3998 -0.3581
 6471TIP3    H219353   0.290   1.874   6.501  0.1768  0.3524 -0.6194
 6472TIP3   OH219354   4.232   2.735   5.204  0.3659 -0.0899 -0.0005
 6472TIP3    H119355   4.275   2.692   5.279  2.8021 -0.4347 -1.5350
 6472TIP3    H219356   4.178   2.667   5.165 -0.9711  0.1037  1.4550
 6473TIP3   OH219357   3.885   2.555   5.272  0.1115 -0.2291  0.2338
 6473TIP3    H119358   3.974   2.537   5.240  0.6527 -0.9098  2.0411
 6473TIP3    H219359   3.893   2.636   5.321 -0.7567  0.9171 -1.4625
 6474TIP3   OH219360   3.453   3.727   3.293 -0.4353  0.2415 -0.1288
 6474TIP3    H119361   3.491   3.646   3.259  0.6178  0.1558  1.2190
 6474TIP3    H219362   3.439   3.781   3.216  0.2082 -0.6525 -0.8896
 6475TIP3   OH219363   2.208   2.440   6.374  0.1145 -0.5854 -0.7182
 6475TIP3    H119364   2.251   2.402   6.451 -0.3166  0.1779 -0.0920
 6475TIP3    H219365   2.268   2.508   6.345 -0.5022  0.2562 -0.0442
 6476TIP3   OH219366   2.435   3.391   4.459  0.0299  0.1544 -0.2653
 6476TIP3    H119367   2.508   3.442   4.424  0.8553 -0.6588  0.2341
 6476TIP3    H219368   2.469   3.301   4.464 -2.2085 -0.9279 -3.4515
 6477TIP3   OH219369   1.352   3.006   5.845 -0.0509 -0.3997 -0.6754
 6477TIP3    H119370   1.279   3.020   5.784 -0.1345  0.8297 -0.3074
 6477TIP3    H219371   1.315   3.023   5.932  0.5224 -0.3319 -0.4379
 6478TIP3   OH219372   4.737   0.110   3.994  0.1279  0.1729  0.0246
 6478TIP3    H119373   4.793   0.136   3.921  1.5193 -0.6413  0.7884
 6478TIP3    H219374   4.746   0.015   3.998 -1.0607  0.0723  0.3637
 6479TIP3   OH219375   0.859   2.325   6.266  0.2242  0.1630 -0.1798
 6479TIP3    H119376   0.953   2.333   6.254  0.3589 -0.9072  0.1847
 6479TIP3    H219377   0.845   2.335   6.360  0.0952 -0.8450 -0.0875
 6480TIP3   OH219378   2.169   4.545   2.903 -0.1044  0.1789  0.2054
 6480TIP3    H119379   2.151   4.456   2.935 -0.0798  0.2050  0.2908
 6480TIP3    H219380   2.114   4.601   2.956 -3.0693 -0.1184 -2.4160
 6481TIP3   OH219381   3.238   3.455   4.628 -0.2105 -0.0072 -0.3498
 6481TIP3    H119382   3.244   3.375   4.682 -1.6820  0.1319  0.0455
 6481TIP3    H219383   3.168   3.506   4.669  1.5435  2.0844  0.1417
 6482TIP3   OH219384   1.277   0.306   4.928 -0.1451  1.1048  0.1138
 6482TIP3    H119385   1.196   0.352   4.951  0.9417  2.3795  1.5631
 6482TIP3    H219386   1.326   0.301   5.010  1.5433  0.9821 -0.8663
 6483TIP3   OH219387   0.787   1.791   5.413  0.4542  0.5374  0.4385
 6483TIP3    H119388   0.828   1.756   5.492  1.8287  1.3072  0.0644
 6483TIP3    H219389   0.717   1.728   5.393  1.1179 -0.5020  1.3527
 6484TIP3   OH219390   2.420   2.081   6.209  0.3487 -0.3094 -0.4637
 6484TIP3    H119391   2.352   2.133   6.166 -0.4972 -1.6087 -0.7114
 6484TIP3    H219392   2.463   2.143   6.268  1.2621  1.4175 -2.8295
 6485TIP3   OH219393   2.766   1.356   6.370  0.1655  0.3542 -0.0125
 6485TIP3    H119394   2.856   1.382   6.388 -0.1214  0.2065  1.6783
 6485TIP3    H219395   2.765   1.261   6.382 -0.9148  0.7096  3.1806
 6486TIP3   OH219396   3.940   0.649   4.579  0.1514  0.8556 -0.3995
 6486TIP3    H119397   3.861   0.703   4.577  0.9482  2.0270 -0.4012
 6486TIP3    H219398   3.945   0.610   4.492 -0.9697 -0.0333 -0.0821
 6487TIP3   OH219399   2.060   4.088   5.580  0.1101  0.3127 -0.2964
 6487TIP3    H119400   2.077   4.176   5.547 -1.0819  0.0315 -1.6667
 6487TIP3    H219401   2.041   4.036   5.503  2.1355 -1.4839  0.3671
 6488TIP3   OH219402   1.266   7.608   5.755 -0.1300  0.2925 -0.0927
 6488TIP3    H119403   1.261   7.688   5.703 -2.1869  0.0208 -0.3645
 6488TIP3    H219404   1.183   7.605   5.803 -1.1539 -2.8120 -1.8681
 6489TIP3   OH219405   6.271   5.447   0.403 -0.2384 -0.0504 -0.5511
 6489TIP3    H119406   6.310   5.530   0.432  2.4363 -1.5415  0.1849
 6489TIP3    H219407   6.202   5.430   0.468  0.1269  0.8835  0.0956
 6490TIP3   OH219408   4.867   3.212   5.780 -0.1108  0.0386  0.4153
 6490TIP3    H119409   4.825   3.132   5.749  0.3561  0.0834 -0.3259
 6490TIP3    H219410   4.960   3.199   5.763 -0.1040  1.0303 -0.3557
 6491TIP3   OH219411   0.636   7.643   6.915 -0.4572  0.4266  0.2429
 6491TIP3    H119412   0.652   7.727   6.874 -1.6649  0.6935  0.3015
 6491TIP3    H219413   0.648   7.579   6.845  0.7480  0.6114  0.2661
 6492TIP3   OH219414   0.553   7.068   6.362  0.3527 -0.6445  0.4330
 6492TIP3    H119415   0.571   7.132   6.293 -0.3084 -0.4702  0.4204
 6492TIP3    H219416   0.467   7.094   6.397  0.2940 -1.2480  0.7361
 6493TIP3   OH219417   3.014   2.146   4.684 -0.4849 -0.0744 -0.0942
 6493TIP3    H119418   2.919   2.141   4.678 -0.5135  2.0521 -2.2055
 6493TIP3    H219419   3.044   2.135   4.594  1.1978  0.2838  0.4103
 6494TIP3   OH219420   5.826   3.520   6.460 -0.5764  0.8447 -0.1420
 6494TIP3    H119421   5.776   3.536   6.540 -0.7839  0.4138 -0.1857
 6494TIP3    H219422   5.767   3.546   6.390 -0.6589  0.5334 -0.1859
 6495TIP3   OH219423   8.464   7.711   5.135 -0.2848  0.2293  0.0048
 6495TIP3    H119424   8.550   7.698   5.174 -0.8275  0.0326  1.1820
 6495TIP3    H219425   8.471   7.675   5.047  0.5332 -0.7610  0.4627
 6496TIP3   OH219426   0.688   7.622   5.114  0.0256  0.1624 -0.5340
 6496TIP3    H119427   0.764   7.647   5.061 -1.2214  0.6472 -2.1507
 6496TIP3    H219428   0.652   7.705   5.144  0.0814 -0.0636  0.1593
 6497TIP3   OH219429   7.439   7.705   4.491 -0.0023 -0.1327  0.2716
 6497TIP3    H119430   7.437   7.779   4.430  0.9407  0.2691  0.7116
 6497TIP3    H219431   7.532   7.689   4.506 -0.2267 -0.3262  1.4958
 6498TIP3   OH219432   3.709   2.618   4.308 -0.6899  0.3328  0.1774
 6498TIP3    H119433   3.652   2.583   4.376 -1.6105  0.9250 -0.2859
 6498TIP3    H219434   3.650   2.658   4.244  0.1180 -0.9347 -1.3974
 6499TIP3   OH219435   3.162   2.976   3.476 -0.9763  0.2758  0.2036
 6499TIP3    H119436   3.203   2.898   3.513 -1.2242  0.2775  0.4894
 6499TIP3    H219437   3.093   2.942   3.419 -2.5066  0.3003  1.9902
 6500TIP3   OH219438   0.779   3.014   6.017 -0.0907 -0.3594  0.1297
 6500TIP3    H119439   0.823   2.929   6.029  1.3496  0.4252  0.5323
 6500TIP3    H219440   0.745   3.035   6.104  1.6416  0.5901  0.6038
 6501TIP3   OH219441   1.356   0.933   5.652  0.1323  0.3584  0.3497
 6501TIP3    H119442   1.326   1.015   5.691 -0.4097  0.5399 -0.4337
 6501TIP3    H219443   1.318   0.865   5.708  0.7292  0.6452  1.1008
 6502TIP3   OH219444   3.505   4.447   6.313 -0.2592  0.5122  0.1693
 6502TIP3    H119445   3.463   4.439   6.399  0.6461 -0.8264  0.5065
 6502TIP3    H219446   3.568   4.518   6.325 -1.7837  1.9305 -0.0867
 6503TIP3   OH219447   3.074   2.344   5.361  0.4539  0.4758  0.0237
 6503TIP3    H119448   3.046   2.276   5.299  0.4033  0.2985  0.2407
 6503TIP3    H219449   3.006   2.411   5.355  0.9455  0.9130 -0.8278
 6504TIP3   OH219450   4.700   1.349   5.983  0.5792 -0.0310 -0.0166
 6504TIP3    H119451   4.767   1.320   6.045 -1.1440 -1.5461  1.1959
 6504TIP3    H219452   4.622   1.361   6.037 -0.1420  1.6652 -1.4159
 6505TIP3   OH219453   1.615   3.433   5.969 -0.1464  0.4723  0.2837
 6505TIP3    H119454   1.619   3.524   5.941 -1.3834  0.2978 -0.4679
 6505TIP3    H219455   1.523   3.409   5.962  0.2074 -0.9175  0.2364
 6506TIP3   OH219456   1.829   4.270   4.644 -0.0895 -0.4435  0.0211
 6506TIP3    H119457   1.898   4.300   4.704  0.6350 -0.0389 -0.9993
 6506TIP3    H219458   1.875   4.250   4.563 -1.1456 -0.4222 -0.5896
 6507TIP3   OH219459   2.884   3.028   4.856  0.0995  0.6435 -0.6823
 6507TIP3    H119460   2.829   2.951   4.839  1.7136 -0.4362 -1.1987
 6507TIP3    H219461   2.914   3.055   4.770  3.3372 -1.0618 -0.1617
 6508TIP3   OH219462   4.118   2.851   4.632 -0.3229  0.0336  0.1501
 6508TIP3    H119463   4.049   2.785   4.627  0.9605 -1.2156 -1.4569
 6508TIP3    H219464   4.143   2.867   4.541  1.1278  0.8867  0.6879
 6509TIP3   OH219465   4.722   2.675   6.295 -0.1809 -0.0586 -0.0036
 6509TIP3    H119466   4.660   2.620   6.344  2.6308 -1.9066  1.6035
 6509TIP3    H219467   4.667   2.723   6.233 -3.4500 -0.1885  2.6513
 6510TIP3   OH219468   3.629   2.440   5.570 -0.7340 -0.0272  0.3009
 6510TIP3    H119469   3.681   2.459   5.648 -2.6820  0.0248  1.6376
 6510TIP3    H219470   3.645   2.347   5.553  1.3164  0.4531 -0.4996
 6511TIP3   OH219471   5.716   7.830   0.224  0.1605 -0.1575 -0.4620
 6511TIP3    H119472   5.660   7.872   0.158 -1.1606  0.0640  0.7797
 6511TIP3    H219473   5.735   7.743   0.187 -0.2172  0.1164 -1.3146
 6512TIP3   OH219474   2.636   2.985   5.739 -0.6064 -0.3443 -0.0533
 6512TIP3    H119475   2.721   2.990   5.694 -0.1521  0.4308  0.8665
 6512TIP3    H219476   2.605   3.076   5.740 -1.5329 -0.6567 -0.5468
 6513TIP3   OH219477   0.439   3.807   6.393 -0.0914  0.2247 -0.4715
 6513TIP3    H119478   0.514   3.867   6.396 -1.6151  2.2153 -1.1607
 6513TIP3    H219479   0.433   3.781   6.301 -0.6313  0.5652 -0.5312
 6514TIP3   OH219480   5.870   2.776   4.979 -0.6498 -0.0122  0.0063
 6514TIP3    H119481   5.896   2.849   5.036 -0.7020 -0.2490  0.3354
 6514TIP3    H219482   5.841   2.708   5.040  0.4966 -0.7427 -0.2367
 6515TIP3   OH219483   3.715   0.508   5.829  0.0407 -0.0687  0.2249
 6515TIP3    H119484   3.633   0.554   5.849 -0.3916 -1.2965  1.3689
 6515TIP3    H219485   3.745   0.547   5.747 -1.6356  0.4724 -0.1587
 6516TIP3   OH219486   4.455   2.422   5.647  0.2577 -0.4081  0.2985
 6516TIP3    H119487   4.509   2.491   5.608  1.4810 -0.6816  1.4850
 6516TIP3    H219488   4.365   2.454   5.637  0.7170  0.6188 -0.5949
 6517TIP3   OH219489   4.919   3.600   5.481  0.0507  0.1373  0.0147
 6517TIP3    H119490   4.874   3.522   5.513 -2.4042  1.4286 -0.1622
 6517TIP3    H219491   4.989   3.566   5.425 -0.8450 -1.9123  0.0997
 6518TIP3   OH219492   6.628   4.300   0.366 -0.1935 -0.3171 -0.2927
 6518TIP3    H119493   6.537   4.316   0.342 -0.4952 -1.6839 -0.0958
 6518TIP3    H219494   6.636   4.334   0.455 -1.3724 -2.9790  0.9033
 6519TIP3   OH219495   6.483   5.885   0.899  0.3700 -0.3032 -0.4146
 6519TIP3    H119496   6.457   5.802   0.939  1.4230 -0.9516 -1.0578
 6519TIP3    H219497   6.566   5.907   0.940 -0.9386  1.5610  1.3408
 6520TIP3   OH219498   2.809   7.896   6.213 -0.1938  0.1300 -0.6502
 6520TIP3    H119499   2.856   7.837   6.271 -0.5994  0.5291  0.0966
 6520TIP3    H219500   2.865   7.974   6.208 -0.5506  0.4243 -0.1254
 6521TIP3   OH219501   2.312   1.977   5.325  0.2464 -0.4074  0.1340
 6521TIP3    H119502   2.324   2.062   5.368  1.6569 -0.5412  0.0452
 6521TIP3    H219503   2.231   1.942   5.362  0.0144  0.6752  0.6684
 6522TIP3   OH219504   4.646   0.564   5.174  0.3981  0.1831 -0.7771
 6522TIP3    H119505   4.593   0.628   5.223 -0.5323 -2.0668  1.2485
 6522TIP3    H219506   4.634   0.588   5.082 -1.1717  1.9800 -0.1316
 6523TIP3   OH219507   0.014   7.627   6.586  0.4063  0.1474 -0.8637
 6523TIP3    H119508   0.008   7.717   6.555  0.8543  0.4429 -0.1111
 6523TIP3    H219509   0.102   7.598   6.562  0.7894  0.4085  0.1828
 6524TIP3   OH219510   3.753   0.287   4.663  0.0739  0.0093 -0.3771
 6524TIP3    H119511   3.753   0.311   4.570  0.1543  0.1519 -0.3401
 6524TIP3    H219512   3.671   0.321   4.697 -0.4427 -0.9610 -0.6348
 6525TIP3   OH219513   3.728   2.832   5.143  0.2847 -0.0569  0.6517
 6525TIP3    H119514   3.656   2.769   5.145  0.9628 -0.8788  0.0632
 6525TIP3    H219515   3.786   2.803   5.214  1.0366 -0.6354 -0.1951
 6526TIP3   OH219516   1.790   6.821   3.883  0.5913 -0.0595 -0.2059
 6526TIP3    H119517   1.860   6.881   3.856 -0.9611  0.7087 -2.6912
 6526TIP3    H219518   1.836   6.741   3.909  2.4319  0.6574 -1.1237
 6527TIP3   OH219519   1.538   1.992   5.964 -0.4957  0.4202 -0.0996
 6527TIP3    H119520   1.472   1.933   6.002 -0.2318  0.8258  1.0003
 6527TIP3    H219521   1.494   2.076   5.957  0.3199  1.0604  1.9846
 6528TIP3   OH219522   3.797   0.028   5.188 -0.3040  0.2393  0.2606
 6528TIP3    H119523   3.777   0.104   5.134 -2.2966 -1.4916 -1.5807
 6528TIP3    H219524   3.714   0.007   5.232  0.4860 -0.2574  1.5500
 6529TIP3   OH219525   2.085   1.352   4.832  0.0440  0.2499  0.3273
 6529TIP3    H119526   2.015   1.289   4.817  1.0196 -0.4075 -1.6259
 6529TIP3    H219527   2.089   1.362   4.927 -2.2182 -0.2269  0.4948
 6530TIP3   OH219528   2.170   2.624   5.326  0.0077  0.0387  0.4070
 6530TIP3    H119529   2.122   2.546   5.354  0.4230 -0.1308  0.6431
 6530TIP3    H219530   2.207   2.660   5.406  0.0070  0.3526  0.2663
 6531TIP3   OH219531   4.673   3.110   6.130 -0.4682 -0.3150 -0.5181
 6531TIP3    H119532   4.749   3.162   6.102 -1.2887  0.6459 -1.0188
 6531TIP3    H219533   4.604   3.135   6.069 -0.7991 -2.2595 -0.9761
 6532TIP3   OH219534   1.726   4.194   6.937  0.3015  0.5071 -0.7903
 6532TIP3    H119535   1.725   4.172   6.843  0.4478  1.0195 -0.9144
 6532TIP3    H219536   1.792   4.137   6.974 -1.8559 -1.8699 -0.4492
 6533TIP3   OH219537   3.546   0.905   5.143  0.2588 -0.3291  0.6232
 6533TIP3    H119538   3.597   0.869   5.071  0.7151 -0.0600  0.8105
 6533TIP3    H219539   3.455   0.885   5.121  0.2355  1.3016 -0.9266
 6534TIP3   OH219540   2.833   3.030   6.157  0.4083  0.7581  0.3033
 6534TIP3    H119541   2.909   3.046   6.101  0.6163 -0.0155  0.3643
 6534TIP3    H219542   2.848   2.944   6.194 -0.3033  0.7772  0.6403
 6535TIP3   OH219543   2.298   1.781   4.837  0.1487  0.3052 -0.3644
 6535TIP3    H119544   2.372   1.724   4.858  0.3577  0.4755 -0.6320
 6535TIP3    H219545   2.229   1.721   4.809  0.8152  0.2633 -1.9536
 6536TIP3   OH219546   1.626   3.204   4.934 -0.3788 -0.2168 -0.1479
 6536TIP3    H119547   1.663   3.199   5.022 -0.0003  0.0773 -0.2883
 6536TIP3    H219548   1.537   3.236   4.948 -0.7178 -1.2830  0.2228
 6537TIP3   OH219549   1.586   2.089   6.454  0.2451  0.0453  0.3164
 6537TIP3    H119550   1.533   2.014   6.427 -2.2983  1.5977  0.7140
 6537TIP3    H219551   1.635   2.113   6.375  1.6440 -2.4530  0.4065
 6538TIP3   OH219552   3.229   2.770   3.677  0.9678  0.2867 -0.2073
 6538TIP3    H119553   3.139   2.778   3.709  1.5635 -0.5686  1.7866
 6538TIP3    H219554   3.240   2.677   3.658  1.0975  0.5595 -1.5045
 6539TIP3   OH219555   3.654   2.823   6.817 -0.1606  0.4257  0.1521
 6539TIP3    H119556   3.726   2.761   6.829 -0.2905  0.1933 -0.2712
 6539TIP3    H219557   3.645   2.865   6.902  2.5302  2.6709 -0.5876
 6540TIP3   OH219558   7.853   7.645   5.467 -0.3722  0.3076 -0.4740
 6540TIP3    H119559   7.858   7.552   5.492  1.4792  0.5130 -0.0268
 6540TIP3    H219560   7.831   7.690   5.549 -0.2248  0.3735 -0.4714
 6541TIP3   OH219561   1.206   6.971   5.117 -0.1185  0.2162 -0.6042
 6541TIP3    H119562   1.210   7.048   5.059 -0.3929  1.2928  0.7959
 6541TIP3    H219563   1.265   6.992   5.189 -0.8368 -0.5464  0.2115
 6542TIP3   OH219564   4.227   0.029   5.036  0.0489 -0.3592  0.5005
 6542TIP3    H119565   4.150   0.033   5.092 -1.0319  0.6137 -1.0084
 6542TIP3    H219566   4.296   0.072   5.086 -0.8251  0.2459  1.1976
 6543TIP3   OH219567   3.351   2.404   4.701 -0.0179  0.0049  0.0529
 6543TIP3    H119568   3.261   2.404   4.735  0.1843 -1.7936  0.6440
 6543TIP3    H219569   3.344   2.363   4.614  0.3118 -0.7862  0.3888
 6544TIP3   OH219570   4.422   2.644   4.027  0.3305  0.2419 -0.9758
 6544TIP3    H119571   4.378   2.729   4.021 -1.7890 -0.7909 -0.7395
 6544TIP3    H219572   4.387   2.594   3.953  1.2644 -0.5683 -0.8821
 6545TIP3   OH219573   2.421   2.763   4.672 -0.3315  0.2488 -0.2826
 6545TIP3    H119574   2.348   2.702   4.680 -1.3777  1.6120  0.8160
 6545TIP3    H219575   2.406   2.827   4.741  0.7330  1.7720 -1.4376
 6546TIP3   OH219576   1.382   0.084   5.325 -0.4413 -1.0206 -0.2091
 6546TIP3    H119577   1.366   0.099   5.232 -2.1249 -0.6770  0.1220
 6546TIP3    H219578   1.297   0.096   5.366  0.4376 -0.3690  1.4771
 6547TIP3   OH219579   2.151   0.101   4.877 -0.1403 -0.7010 -0.6072
 6547TIP3    H119580   2.161   0.173   4.815  1.0881  0.4978  0.9246
 6547TIP3    H219581   2.074   0.124   4.929  1.2001  0.4117  0.9733
 6548TIP3   OH219582   3.111   2.264   3.720 -0.1801  0.3690 -0.3867
 6548TIP3    H119583   3.193   2.284   3.765 -0.4339  0.6265 -0.0371
 6548TIP3    H219584   3.043   2.299   3.777 -0.6190 -1.2279  0.1001
 6549TIP3   OH219585   5.164   1.185   4.359  0.1464  0.2862  0.0523
 6549TIP3    H119586   5.085   1.231   4.330 -1.5027 -1.6364  1.4045
 6549TIP3    H219587   5.162   1.102   4.312  0.9210 -0.1219  0.7252
 6550TIP3   OH219588   0.331   1.436   4.636  0.2967  0.1793  0.4023
 6550TIP3    H119589   0.335   1.531   4.649 -1.5222  0.4948 -1.1233
 6550TIP3    H219590   0.245   1.412   4.670  0.1783 -0.7013 -0.5092
 6551TIP3   OH219591   3.688   2.036   4.618 -0.1037  0.1526 -0.1090
 6551TIP3    H119592   3.753   1.971   4.643 -0.7418 -0.0249  1.1542
 6551TIP3    H219593   3.632   1.991   4.555  0.7327  0.1676 -0.8627
 6552TIP3   OH219594   3.504   1.557   3.036 -0.2184 -0.3141  0.0512
 6552TIP3    H119595   3.530   1.484   3.093  1.4431 -0.4069 -0.7781
 6552TIP3    H219596   3.423   1.527   2.994  0.0412 -1.3733  0.2835
 6553TIP3   OH219597   1.740   3.541   4.182 -0.7745 -0.0236  0.4726
 6553TIP3    H119598   1.828   3.576   4.166 -1.0251 -0.2399 -1.5635
 6553TIP3    H219599   1.718   3.571   4.270  0.2573  2.3197 -0.0139
 6554TIP3   OH219600   2.049   2.527   3.345  0.3285 -0.4253  0.1283
 6554TIP3    H119601   2.077   2.525   3.254  1.4398 -0.0960  0.4477
 6554TIP3    H219602   1.995   2.606   3.352  1.0229  0.0704 -0.0362
 6555TIP3   OH219603   7.904   0.940   5.304  0.2690 -0.4775  0.0149
 6555TIP3    H119604   7.922   1.032   5.284 -0.5233 -0.5888 -1.2880
 6555TIP3    H219605   7.852   0.942   5.384 -2.1546  0.4001 -1.5102
 6556TIP3   OH219606   5.882   2.175   1.587  0.5246 -0.2887 -0.1140
 6556TIP3    H119607   5.947   2.234   1.625 -0.2176 -0.4238  1.3913
 6556TIP3    H219608   5.798   2.207   1.620 -0.1131 -0.6868 -1.2897
 6557TIP3   OH219609   4.298   2.940   4.820  0.2677 -0.1675 -0.1081
 6557TIP3    H119610   4.225   2.902   4.771  0.3790 -0.6451  0.0833
 6557TIP3    H219611   4.260   3.013   4.868  0.2569  0.5829 -1.2500
 6558TIP3   OH219612   3.405   2.105   4.662 -0.0488 -0.2629 -0.1628
 6558TIP3    H119613   3.414   2.141   4.574 -0.3656  1.0071  0.3063
 6558TIP3    H219614   3.495   2.091   4.692  0.0581 -0.6161 -0.6525
 6559TIP3   OH219615   2.629   3.957   4.959  0.4527 -0.0219 -1.1667
 6559TIP3    H119616   2.714   3.915   4.974  0.5031  0.7504  0.8025
 6559TIP3    H219617   2.645   4.015   4.884  1.6398  0.0756 -0.8551
 6560TIP3   OH219618   4.922   1.681   3.930 -0.2140  0.4482  0.1109
 6560TIP3    H119619   4.859   1.612   3.912  0.0169  0.4286 -0.6252
 6560TIP3    H219620   4.911   1.743   3.858  1.4995 -0.1944 -0.7291
 6561TIP3   OH219621   4.182   2.426   6.038  0.0915  0.4986  0.0867
 6561TIP3    H119622   4.260   2.373   6.024  0.0290  0.2077  0.7945
 6561TIP3    H219623   4.109   2.363   6.032 -0.0318  0.6247  0.2501
 6562TIP3   OH219624   6.209   4.446   0.130  0.5124  0.3000  0.0388
 6562TIP3    H119625   6.159   4.486   0.202 -1.3455  0.3301 -1.2402
 6562TIP3    H219626   6.165   4.477   0.051  1.1625 -1.5347 -1.0634
 6563TIP3   OH219627   4.787   1.704   5.912  0.2653  0.7254 -0.5535
 6563TIP3    H119628   4.873   1.683   5.951  0.2275  1.2397 -0.1984
 6563TIP3    H219629   4.777   1.798   5.925 -1.0720  0.4029  0.8416
 6564TIP3   OH219630   5.027   3.484   5.023  0.1627  0.2074  0.5739
 6564TIP3    H119631   5.034   3.397   4.984 -1.4405  0.4818 -0.4124
 6564TIP3    H219632   5.069   3.476   5.108 -1.6146 -2.0564  1.3111
 6565TIP3   OH219633   1.295   7.548   5.103 -0.0664 -0.7984 -0.3875
 6565TIP3    H119634   1.283   7.613   5.034  1.7737 -0.4769 -0.4251
 6565TIP3    H219635   1.214   7.552   5.154 -0.6814  0.2679 -1.4301
 6566TIP3   OH219636   5.237   1.254   5.165  0.1363  1.1817 -0.5411
 6566TIP3    H119637   5.310   1.280   5.110 -0.4970  1.2625 -1.3621
 6566TIP3    H219638   5.273   1.250   5.253  0.7766  2.6672 -0.7233
 6567TIP3   OH219639   4.785   1.781   5.636  0.1919 -0.5553 -0.0318
 6567TIP3    H119640   4.766   1.753   5.725 -0.0860 -0.9614 -0.2163
 6567TIP3    H219641   4.872   1.747   5.618  0.0701 -0.8486 -0.0681
 6568TIP3   OH219642   3.522   1.935   6.345  0.3419  0.0705  0.2125
 6568TIP3    H119643   3.502   1.930   6.439  0.4494  1.2058  0.3091
 6568TIP3    H219644   3.604   1.888   6.335 -0.1568 -0.8903  0.5221
 6569TIP3   OH219645   5.281   2.606   6.618 -0.1837  0.5339  0.3775
 6569TIP3    H119646   5.251   2.520   6.589 -0.2900  0.7633 -0.1872
 6569TIP3    H219647   5.217   2.633   6.683  0.2732 -0.1561  1.1259
 6570TIP3   OH219648   4.869   2.836   5.715  0.0044 -0.0909 -0.4139
 6570TIP3    H119649   4.778   2.847   5.688 -0.6851 -0.6193  1.6271
 6570TIP3    H219650   4.912   2.798   5.638 -1.2872  0.9806 -1.6938
 6571TIP3   OH219651   7.120   6.291   0.128 -0.1120 -0.3631 -0.5538
 6571TIP3    H119652   7.121   6.210   0.179  1.6441 -0.4685 -0.7084
 6571TIP3    H219653   7.037   6.332   0.151  0.0312 -1.0500  1.3717
 6572TIP3   OH219654   3.587   3.177   5.456 -0.3504  0.3442 -0.3781
 6572TIP3    H119655   3.550   3.203   5.540  0.3376  0.9673 -0.2613
 6572TIP3    H219656   3.575   3.254   5.400  0.7387  0.5503 -0.3415
 6573TIP3   OH219657   4.322   1.338   5.106  0.0831  0.4175 -0.0854
 6573TIP3    H119658   4.282   1.288   5.177  0.5142  0.0569 -0.0992
 6573TIP3    H219659   4.380   1.277   5.062  0.1123  0.7472 -0.5133
 6574TIP3   OH219660   6.096   4.001   3.136  0.4663  0.0315  0.5417
 6574TIP3    H119661   6.122   3.911   3.117 -0.9855 -0.4368  0.7190
 6574TIP3    H219662   6.131   4.018   3.223 -0.7841 -1.0053  1.2742
 6575TIP3   OH219663   3.929   1.402   5.341 -0.9436 -0.5383  0.1208
 6575TIP3    H119664   3.998   1.378   5.279  0.2311  1.8461  0.4450
 6575TIP3    H219665   3.859   1.437   5.286 -0.5715  0.0543  0.0218
 6576TIP3   OH219666   4.601   2.169   6.678 -0.6086  0.1023  0.4374
 6576TIP3    H119667   4.534   2.236   6.687 -0.2061  0.3853  1.4459
 6576TIP3    H219668   4.589   2.113   6.755  1.1426  0.9187  1.3305
 6577TIP3   OH219669   5.537   4.531   4.313 -0.3235 -0.8214 -0.0658
 6577TIP3    H119670   5.622   4.565   4.343 -1.1848  0.4553  0.9943
 6577TIP3    H219671   5.548   4.517   4.219  0.8443  0.0071 -0.0600
 6578TIP3   OH219672   5.802   0.383   5.446 -0.0021 -0.5648  0.3078
 6578TIP3    H119673   5.774   0.434   5.522 -0.0878 -2.1383  1.3649
 6578TIP3    H219674   5.886   0.344   5.473 -0.2203 -1.4380 -0.2492
 6579TIP3   OH219675   8.288   6.183   0.254  0.2398  0.1357 -0.1240
 6579TIP3    H119676   8.203   6.215   0.285 -0.9586 -0.9002 -2.2515
 6579TIP3    H219677   8.313   6.115   0.317 -1.3619 -0.8066 -0.4959
 6580TIP3   OH219678   3.962   2.208   5.711 -0.1677  0.3927 -0.2106
 6580TIP3    H119679   4.017   2.264   5.657  0.4481 -1.8623 -1.9842
 6580TIP3    H219680   4.023   2.165   5.771 -0.2250 -0.6542 -0.8910
 6581TIP3   OH219681   4.809   3.500   3.717  0.9714 -0.0207  0.5866
 6581TIP3    H119682   4.729   3.467   3.675  0.6993  3.3882 -1.8213
 6581TIP3    H219683   4.779   3.536   3.800  0.6368 -2.1764  1.4125
 6582TIP3   OH219684   4.319   1.706   6.648  0.6503 -0.1051 -0.3451
 6582TIP3    H119685   4.274   1.670   6.725  0.6913 -0.0342 -0.2877
 6582TIP3    H219686   4.363   1.785   6.681  1.8115 -0.8352 -0.1286
 6583TIP3   OH219687   4.690   2.336   3.823 -0.6417 -0.1606  0.0833
 6583TIP3    H119688   4.617   2.327   3.884 -0.0693  1.0536  0.9720
 6583TIP3    H219689   4.767   2.319   3.876 -0.1308  1.0808 -0.2334
 6584TIP3   OH219690   5.980   2.298   5.374 -0.1409  0.0130 -0.0890
 6584TIP3    H119691   5.946   2.348   5.448 -1.1362  0.3524 -0.7644
 6584TIP3    H219692   5.905   2.284   5.317  0.3798 -1.2342 -0.4944
 6585TIP3   OH219693   6.624   3.730   6.457 -0.0487  0.0872 -0.0019
 6585TIP3    H119694   6.605   3.636   6.463  0.9808 -0.1697 -0.6128
 6585TIP3    H219695   6.539   3.772   6.471 -0.2304 -0.8637  1.9904
 6586TIP3   OH219696   3.978   3.088   4.585 -0.0687  0.0012 -0.0276
 6586TIP3    H119697   3.892   3.069   4.624  0.0608 -1.7388 -0.5586
 6586TIP3    H219698   4.028   3.008   4.598  1.0682  0.5788 -0.8307
 6587TIP3   OH219699   4.508   3.611   4.411 -0.0928  0.6249 -0.1322
 6587TIP3    H119700   4.468   3.683   4.363  0.9565  0.8786 -0.6483
 6587TIP3    H219701   4.473   3.619   4.500 -0.6441  1.2504 -0.4028
 6588TIP3   OH219702   5.581   3.184   5.774 -0.1869  0.0224  0.4539
 6588TIP3    H119703   5.580   3.103   5.823  0.3466  1.0126  2.1424
 6588TIP3    H219704   5.637   3.243   5.826 -1.0013  1.6324 -0.4565
 6589TIP3   OH219705   4.043   0.613   3.456  0.0071  0.3172  0.5510
 6589TIP3    H119706   4.124   0.656   3.484  0.3098 -0.7131  1.2599
 6589TIP3    H219707   4.062   0.520   3.460 -1.1711  0.0681  0.5801
 6590TIP3   OH219708   2.043   2.876   5.688 -0.1221 -0.3331 -0.2604
 6590TIP3    H119709   2.133   2.907   5.690 -0.8989  2.5175 -3.7718
 6590TIP3    H219710   2.039   2.815   5.615 -0.7524 -1.6132  0.8126
 6591TIP3   OH219711   6.039   1.923   5.044 -0.0070 -0.2210  0.6164
 6591TIP3    H119712   6.019   1.928   5.138  0.0866  1.3074  0.5743
 6591TIP3    H219713   6.133   1.902   5.041  0.0642  0.0423  0.8863
 6592TIP3   OH219714   3.919   2.197   3.954 -0.2886  0.5265  0.4198
 6592TIP3    H119715   3.865   2.202   3.875 -0.2938 -0.8982  0.3159
 6592TIP3    H219716   3.944   2.287   3.972 -0.9302  0.9505 -0.7683
 6593TIP3   OH219717   6.995   0.398   5.734  0.6841 -0.4126  0.0175
 6593TIP3    H119718   6.922   0.415   5.793 -3.0173 -1.1233 -4.1210
 6593TIP3    H219719   6.997   0.303   5.724  0.6567 -0.2465 -1.7119
 6594TIP3   OH219720   4.125   3.217   5.604 -0.1755 -0.0117  0.2122
 6594TIP3    H119721   4.126   3.275   5.680 -2.0907  1.0266 -0.5329
 6594TIP3    H219722   4.077   3.266   5.538 -0.1330 -1.6833 -1.0623
 6595TIP3   OH219723   4.495   3.420   4.231 -0.1000 -0.0454 -0.4198
 6595TIP3    H119724   4.501   3.497   4.288 -1.8073 -0.1604 -0.0750
 6595TIP3    H219725   4.516   3.346   4.288 -0.6138 -0.0444 -0.2302
 6596TIP3   OH219726   6.911   7.322   0.263 -0.1072 -0.3597  0.3465
 6596TIP3    H119727   6.969   7.333   0.187  1.1091 -0.0740  1.2983
 6596TIP3    H219728   6.862   7.242   0.244  1.2676 -1.1227 -0.0572
 6597TIP3   OH219729   4.059   2.843   4.167  0.2633  0.0085  0.2390
 6597TIP3    H119730   4.023   2.813   4.251  2.3911  0.6319  1.4214
 6597TIP3    H219731   4.092   2.931   4.186  0.0001  0.4867 -1.4899
 6598TIP3   OH219732   5.482   2.503   5.809 -0.6241  0.0428 -0.2192
 6598TIP3    H119733   5.473   2.558   5.731 -0.2074  0.7890  0.2547
 6598TIP3    H219734   5.552   2.544   5.859 -0.9884 -0.3552  0.6202
 6599TIP3   OH219735   6.436   4.047   2.951  0.3453  0.3821 -0.4764
 6599TIP3    H119736   6.456   4.116   2.888  0.0030 -0.3819 -1.4284
 6599TIP3    H219737   6.518   3.998   2.960  0.0120 -0.3801 -1.4330
 6600TIP3   OH219738   6.896   2.741   5.531 -0.2276  0.8320  0.1290
 6600TIP3    H119739   6.865   2.651   5.533  0.5473  0.4991 -1.9650
 6600TIP3    H219740   6.817   2.794   5.545 -0.8916 -0.1341  0.0874
 6601TIP3   OH219741   2.662   2.023   5.208  0.2922 -0.1433 -0.6392
 6601TIP3    H119742   2.742   2.014   5.259 -0.3853  2.3506  0.9508
 6601TIP3    H219743   2.607   2.082   5.259 -1.9836 -0.6387 -2.4145
 6602TIP3   OH219744   4.125   3.261   5.069 -0.0181  0.6629 -0.7722
 6602TIP3    H119745   4.040   3.283   5.106 -0.8913 -0.0844 -2.2583
 6602TIP3    H219746   4.127   3.165   5.067  0.6002  0.6782 -1.2692
 6603TIP3   OH219747   5.669   3.023   2.370 -0.4094 -0.0502 -0.5800
 6603TIP3    H119748   5.754   3.047   2.407  0.3766 -0.1108 -2.3095
 6603TIP3    H219749   5.691   2.961   2.300 -1.9470 -0.7532 -0.4507
 6604TIP3   OH219750   5.238   1.576   4.342 -0.5069 -0.3289  0.1353
 6604TIP3    H119751   5.322   1.546   4.308 -1.1676 -0.6247 -1.2436
 6604TIP3    H219752   5.180   1.578   4.266 -1.7895 -0.2456  1.0987
 6605TIP3   OH219753   4.405   4.085   3.683  0.1774  0.0330  0.0043
 6605TIP3    H119754   4.361   4.012   3.640  0.7646  0.0810 -0.6959
 6605TIP3    H219755   4.335   4.137   3.721 -0.4495  0.5386 -1.7781
 6606TIP3   OH219756   3.082   1.148   5.856  0.1384  0.2781 -0.6384
 6606TIP3    H119757   2.999   1.105   5.878  0.2005  0.0116 -0.9178
 6606TIP3    H219758   3.064   1.194   5.774 -0.1706  1.4908  0.0988
 6607TIP3   OH219759   3.319   3.478   5.025 -0.1030 -0.2680  0.0526
 6607TIP3    H119760   3.255   3.408   5.015 -0.5994  0.3268 -1.1034
 6607TIP3    H219761   3.267   3.557   5.036  0.4202  0.1705 -0.5408
 6608TIP3   OH219762   7.177   7.382   1.052  0.3973  0.0240  0.3271
 6608TIP3    H119763   7.146   7.418   0.969  1.3954  0.4456  0.1389
 6608TIP3    H219764   7.126   7.302   1.063  1.1340 -0.6913 -1.3049
 6609TIP3   OH219765   4.609   2.686   5.810  0.5346  0.3420 -0.4487
 6609TIP3    H119766   4.514   2.681   5.794  0.3794 -1.1291  0.8517
 6609TIP3    H219767   4.616   2.695   5.905  1.6474  2.8252 -0.7204
 6610TIP3   OH219768   5.141   1.686   3.571 -0.1732 -0.2256  0.0691
 6610TIP3    H119769   5.093   1.657   3.493  0.9190 -0.1525 -0.6462
 6610TIP3    H219770   5.168   1.604   3.613  1.1921 -0.2641 -0.8675
 6611TIP3   OH219771   3.871   4.379   4.586  0.3116 -0.6326 -0.0049
 6611TIP3    H119772   3.811   4.320   4.540  2.1061 -2.1580 -0.4045
 6611TIP3    H219773   3.931   4.410   4.519 -1.8499  3.3998 -0.2780
 6612TIP3   OH219774   5.960   3.453   3.028  0.1309 -0.3915 -0.4620
 6612TIP3    H119775   5.963   3.530   2.971 -1.3416  0.0751  0.0711
 6612TIP3    H219776   5.870   3.451   3.061  0.2036 -2.2415 -0.3291
 6613TIP3   OH219777   6.012   0.682   4.734 -0.0713  0.2237  0.1684
 6613TIP3    H119778   5.929   0.636   4.746 -0.4382  0.5634 -1.0663
 6613TIP3    H219779   6.078   0.619   4.763 -0.7365 -0.1298  0.9394
 6614TIP3   OH219780   6.538   3.698   3.482  0.7087  0.4765  0.2494
 6614TIP3    H119781   6.492   3.689   3.565  1.4678  2.4089  0.9205
 6614TIP3    H219782   6.605   3.630   3.483 -0.5703 -0.7864  0.3245
 6615TIP3   OH219783   2.991   6.075   6.805  0.2524  0.7730  0.4897
 6615TIP3    H119784   2.998   5.979   6.802 -1.2404  0.6079  1.9991
 6615TIP3    H219785   2.943   6.098   6.725  0.0960  0.2166  0.4228
 6616TIP3   OH219786   7.551   2.134   5.020  0.0967  0.1076 -0.0143
 6616TIP3    H119787   7.464   2.173   5.010 -0.3247 -0.7524  0.2238
 6616TIP3    H219788   7.547   2.090   5.105  1.5146  1.9602  1.0630
 6617TIP3   OH219789   5.880   1.406   4.474 -0.7972  0.0813 -0.0853
 6617TIP3    H119790   5.813   1.391   4.407  0.6990  1.7117 -2.0081
 6617TIP3    H219791   5.957   1.359   4.441 -0.6093 -0.7364  1.4834
 6618TIP3   OH219792   6.537   0.550   5.254  0.1455  0.4570 -0.3998
 6618TIP3    H119793   6.575   0.476   5.300 -1.9868 -0.9690 -0.8172
 6618TIP3    H219794   6.600   0.571   5.185  0.0764 -1.9969 -1.2441
 6619TIP3   OH219795   5.453   1.337   4.589 -0.4079  0.1550 -0.0408
 6619TIP3    H119796   5.459   1.242   4.578  0.7101  0.4134 -1.7227
 6619TIP3    H219797   5.362   1.352   4.615 -0.7932 -1.3093 -0.5067
 6620TIP3   OH219798   5.231   1.915   3.076 -0.5684 -0.2099 -0.3136
 6620TIP3    H119799   5.321   1.882   3.085  0.2106  1.6311 -0.9849
 6620TIP3    H219800   5.208   1.947   3.163 -0.3073 -0.0425 -0.3062
 6621TIP3   OH219801   4.963   0.820   5.447  0.0550  0.2665 -0.4141
 6621TIP3    H119802   4.917   0.736   5.436  2.0599 -0.6351 -2.2402
 6621TIP3    H219803   4.956   0.861   5.361  1.5762  0.6709 -0.3445
 6622TIP3   OH219804   3.925   1.979   5.211 -0.5627  0.5778  0.5170
 6622TIP3    H119805   3.951   1.916   5.144 -0.1721  0.2647  0.9614
 6622TIP3    H219806   3.974   1.953   5.288 -1.1719  0.8099  0.9857
 6623TIP3   OH219807   4.993   3.595   5.810  0.4774 -0.1118  0.8239
 6623TIP3    H119808   4.901   3.576   5.789  0.0837  0.6753  1.7857
 6623TIP3    H219809   4.995   3.689   5.827  1.6010 -0.0028  0.1628
 6624TIP3   OH219810   5.359   3.919   5.943 -0.3395  0.2850 -0.0937
 6624TIP3    H119811   5.349   3.854   5.873  0.2416 -0.4780  0.5190
 6624TIP3    H219812   5.331   3.873   6.022 -1.9020  1.4352  0.0602
 6625TIP3   OH219813   6.478   1.899   6.200 -0.1395 -0.2662  0.5021
 6625TIP3    H119814   6.538   1.847   6.147 -1.8215 -1.9989  0.2510
 6625TIP3    H219815   6.456   1.843   6.274 -2.4619 -0.1944 -0.0930
 6626TIP3   OH219816   4.515   3.868   6.240 -0.1157  0.0381  0.0200
 6626TIP3    H119817   4.515   3.898   6.149  0.2818 -1.5440 -0.5287
 6626TIP3    H219818   4.592   3.811   6.247 -0.6677 -0.6082  1.0814
 6627TIP3   OH219819   7.126   0.041   5.275  0.1921  0.2084 -0.3974
 6627TIP3    H119820   7.161   0.066   5.189 -2.1706  2.4775 -0.7597
 6627TIP3    H219821   7.053  -0.018   5.254 -0.1965  0.5239  0.0807
 6628TIP3   OH219822   3.328   0.217   5.344  0.0177 -0.1980  0.3764
 6628TIP3    H119823   3.421   0.237   5.350 -0.3717  1.0620  2.4541
 6628TIP3    H219824   3.314   0.145   5.405 -0.6977  0.8399  1.4586
 6629TIP3   OH219825   3.298   0.256   3.264 -0.4095 -0.5481 -0.0088
 6629TIP3    H119826   3.392   0.267   3.277 -0.1796 -0.8896 -1.3212
 6629TIP3    H219827   3.287   0.251   3.169 -1.7018 -0.9834  0.1506
 6630TIP3   OH219828   5.155   1.666   4.082  0.3059 -0.0153  0.1140
 6630TIP3    H119829   5.184   1.751   4.048 -1.2269  0.2083 -0.6833
 6630TIP3    H219830   5.086   1.638   4.021  2.3197 -2.9144 -0.9817
 6631TIP3   OH219831   4.757   3.081   4.734 -0.0651 -0.5934  0.7418
 6631TIP3    H119832   4.788   3.116   4.651 -1.1743 -0.4519  0.3798
 6631TIP3    H219833   4.676   3.128   4.752 -0.5385 -1.5726  1.2331
 6632TIP3   OH219834   5.706   3.903   5.091 -0.3180 -0.2125  0.1239
 6632TIP3    H119835   5.629   3.958   5.109 -2.2286 -2.8872  0.4108
 6632TIP3    H219836   5.766   3.921   5.164 -1.5954  0.3250  1.0701
 6633TIP3   OH219837   3.948   1.241   5.568 -0.4343  0.2803  0.4215
 6633TIP3    H119838   3.916   1.302   5.502 -0.5753 -0.5562 -0.2879
 6633TIP3    H219839   4.028   1.281   5.602 -0.9370  1.2291  0.5145
 6634TIP3   OH219840   8.335   5.741   0.684 -0.1118  0.2160  0.1194
 6634TIP3    H119841   8.274   5.673   0.653  1.1397 -1.1691  0.6004
 6634TIP3    H219842   8.350   5.797   0.608 -2.0157  0.6023  0.0085
 6635TIP3   OH219843   4.155   1.132   4.477 -0.3644 -0.1130 -0.1867
 6635TIP3    H119844   4.104   1.146   4.556  1.6158  0.4380  1.0309
 6635TIP3    H219845   4.179   1.220   4.447  0.4698 -0.3797 -0.3310
 6636TIP3   OH219846   7.058   2.956   5.389 -0.4074  0.2151 -0.0679
 6636TIP3    H119847   7.015   2.898   5.452  1.6886 -1.8112 -0.4522
 6636TIP3    H219848   7.036   2.918   5.303 -0.3768  0.9447 -0.3975
 6637TIP3   OH219849   4.340   2.759   5.767  0.1615 -0.1700 -0.3823
 6637TIP3    H119850   4.339   2.846   5.809 -0.1541 -0.3729  0.0345
 6637TIP3    H219851   4.247   2.740   5.753  0.1276 -1.2048  1.1150
 6638TIP3   OH219852   1.794   7.987   1.265 -0.4807 -0.0350 -0.7277
 6638TIP3    H119853   1.838   8.024   1.189 -0.9798  0.5256 -0.7451
 6638TIP3    H219854   1.707   7.962   1.233 -0.8068  0.4977 -0.2663
 6639TIP3   OH219855   2.019   0.618   5.238  0.3119 -0.0305 -0.2245
 6639TIP3    H119856   1.943   0.585   5.286  0.8568  0.5693  1.0832
 6639TIP3    H219857   1.982   0.661   5.161 -0.5725 -1.1028 -0.4203
 6640TIP3   OH219858   4.865   3.995   6.496  0.0600 -0.3264 -0.6848
 6640TIP3    H119859   4.803   4.062   6.468 -0.2338 -0.3272 -0.0347
 6640TIP3    H219860   4.949   4.041   6.499 -0.6850  0.9132  3.0685
 6641TIP3   OH219861   3.702   1.818   3.493 -0.5522  1.1756 -0.5413
 6641TIP3    H119862   3.621   1.824   3.443 -1.7306 -2.1568  0.8453
 6641TIP3    H219863   3.745   1.739   3.461  0.5879  1.1621  0.9635
 6642TIP3   OH219864   5.901   2.923   4.143 -0.2578  0.3679  0.2691
 6642TIP3    H119865   5.832   2.868   4.105 -0.1312 -1.2829  2.3811
 6642TIP3    H219866   5.853   2.995   4.185 -0.4698  1.3344 -1.5619
 6643TIP3   OH219867   3.466   3.179   4.072 -0.2106 -0.2316 -0.4285
 6643TIP3    H119868   3.489   3.271   4.063 -3.1205  0.3701 -2.1535
 6643TIP3    H219869   3.424   3.155   3.989 -1.0034 -2.6357  0.6011
 6644TIP3   OH219870   6.172   4.062   5.877 -0.3557  0.2644 -0.1283
 6644TIP3    H119871   6.231   4.050   5.951 -0.1183  1.0579 -0.1776
 6644TIP3    H219872   6.112   3.988   5.882 -0.5956  0.5273  1.0921
 6645TIP3   OH219873   7.212   4.360   4.460  0.1630  0.9594 -0.1200
 6645TIP3    H119874   7.283   4.404   4.506 -0.2973  0.0521  1.4625
 6645TIP3    H219875   7.149   4.431   4.441  0.9468  1.5577 -0.5123
 6646TIP3   OH219876   4.631   1.804   6.549 -0.1187  0.3318 -0.5612
 6646TIP3    H119877   4.723   1.821   6.527  0.0278  0.8868  0.4731
 6646TIP3    H219878   4.585   1.815   6.465  0.8723 -0.8915 -1.2821
 6647TIP3   OH219879   1.411   3.592   3.545  0.9101  0.3687 -0.3234
 6647TIP3    H119880   1.406   3.687   3.539 -1.8747  0.4222  2.0503
 6647TIP3    H219881   1.321   3.563   3.553  1.7731 -2.3955  0.0313
 6648TIP3   OH219882   2.415   4.004   6.045 -0.5450 -0.0762 -0.1717
 6648TIP3    H119883   2.361   4.082   6.054 -0.2692  0.0414  0.4587
 6648TIP3    H219884   2.505   4.037   6.046 -0.3788 -0.5328  1.5620
 6649TIP3   OH219885   5.867   3.311   5.134 -0.2559  0.0384 -0.2365
 6649TIP3    H119886   5.805   3.354   5.075  0.0405  2.2267  0.9957
 6649TIP3    H219887   5.819   3.300   5.216  0.1998 -0.4834 -0.0358
 6650TIP3   OH219888   5.924   3.118   4.781  0.1042 -0.3989 -0.3260
 6650TIP3    H119889   5.955   3.059   4.850 -1.4596  0.9208  1.5676
 6650TIP3    H219890   5.858   3.066   4.734 -0.2777 -0.6527  0.4728
 6651TIP3   OH219891   2.819   2.075   6.202  0.2889  0.7623  0.3808
 6651TIP3    H119892   2.752   2.079   6.271 -1.5487  0.4145 -1.3302
 6651TIP3    H219893   2.782   2.015   6.137  2.5392  0.1107 -0.3533
 6652TIP3   OH219894   4.538   1.350   6.650  0.2316 -0.1871  0.2775
 6652TIP3    H119895   4.527   1.411   6.577  0.2758 -0.3612  0.1237
 6652TIP3    H219896   4.580   1.273   6.611  3.0663  0.9177  1.0519
 6653TIP3   OH219897   4.595   3.221   3.947  0.6886 -0.5348  0.7524
 6653TIP3    H119898   4.645   3.232   3.866  1.3124 -1.0687  1.0634
 6653TIP3    H219899   4.661   3.215   4.016  0.2287 -1.7984  1.0996
 6654TIP3   OH219900   5.855   2.705   5.547 -0.2360  0.0807 -0.0140
 6654TIP3    H119901   5.866   2.612   5.528 -1.0368 -0.1287  0.4823
 6654TIP3    H219902   5.896   2.717   5.633 -1.1284 -0.0648  0.4452
 6655TIP3   OH219903   2.548   3.038   5.297  0.5533 -0.2731  0.0743
 6655TIP3    H119904   2.557   2.946   5.271  4.6760  0.2055 -0.4988
 6655TIP3    H219905   2.556   3.087   5.215 -0.9416  0.6566  0.4672
 6656TIP3   OH219906   4.983   2.493   5.443 -0.4945 -0.2996 -0.4007
 6656TIP3    H119907   4.927   2.415   5.446 -0.7154 -0.1018  0.6277
 6656TIP3    H219908   5.070   2.462   5.465 -0.9969  0.1178  2.2792
 6657TIP3   OH219909   3.705   0.917   5.401  0.3961  0.2981 -0.4376
 6657TIP3    H119910   3.785   0.961   5.429  0.6626 -0.5133  0.1232
 6657TIP3    H219911   3.710   0.831   5.443 -0.9469  0.3733 -0.0916
 6658TIP3   OH219912   4.464   3.600   5.425  0.5293 -0.7396 -0.1657
 6658TIP3    H119913   4.436   3.577   5.336  2.7620 -1.7079 -0.6667
 6658TIP3    H219914   4.530   3.668   5.411  0.7771 -0.7899  0.7759
 6659TIP3   OH219915   2.487   3.890   2.585 -0.0087  0.1232 -0.3082
 6659TIP3    H119916   2.538   3.811   2.602  0.3779  0.5204  0.4273
 6659TIP3    H219917   2.450   3.913   2.670 -2.1361 -0.6394 -0.9953
 6660TIP3   OH219918   6.306   3.288   6.302  0.0683 -0.1932 -0.4276
 6660TIP3    H119919   6.288   3.368   6.350  1.0494 -0.5520  0.5819
 6660TIP3    H219920   6.301   3.219   6.368  0.1524 -0.8543 -1.1005
 6661TIP3   OH219921   5.824   1.037   5.445 -0.0747  0.1859  0.2139
 6661TIP3    H119922   5.868   1.120   5.428  0.3146  0.5965  3.0223
 6661TIP3    H219923   5.862   0.976   5.381  2.8468  1.1160  0.9764
 6662TIP3   OH219924   5.173   3.563   3.159  0.0653 -0.2689  0.4698
 6662TIP3    H119925   5.211   3.577   3.246  1.1227  0.9287 -0.1624
 6662TIP3    H219926   5.210   3.480   3.130  0.1549 -0.3931  0.9297
 6663TIP3   OH219927   5.359   4.599   6.192  0.7844 -0.2390  0.0724
 6663TIP3    H119928   5.379   4.654   6.117  2.1007 -0.3116  0.3594
 6663TIP3    H219929   5.440   4.552   6.210  0.2083 -0.9083  0.9650
 6664TIP3   OH219930   4.713   2.290   5.990  0.7825 -0.3799 -1.1408
 6664TIP3    H119931   4.796   2.334   6.010  1.3301 -1.3976 -1.1023
 6664TIP3    H219932   4.677   2.266   6.075 -1.5451  3.5324 -0.9047
 6665TIP3   OH219933   6.623   2.831   4.239 -0.4231  0.1638  0.3459
 6665TIP3    H119934   6.656   2.784   4.315  0.3903  0.4268  0.1588
 6665TIP3    H219935   6.543   2.784   4.215 -1.3845  0.8490  2.1192
 6666TIP3   OH219936   6.039   4.187   5.153 -0.4484 -0.0844  0.2096
 6666TIP3    H119937   6.059   4.259   5.094 -1.3329  0.3245  0.4106
 6666TIP3    H219938   6.125   4.151   5.177 -0.0154  0.7872 -0.0237
 6667TIP3   OH219939   3.885   3.229   3.495  0.5370 -0.5828  0.0103
 6667TIP3    H119940   3.915   3.266   3.579 -0.1029  2.2421 -0.9787
 6667TIP3    H219941   3.956   3.170   3.469  1.3010 -0.5576  1.9354
 6668TIP3   OH219942   3.431   2.537   5.985 -0.3055 -0.1070 -0.4753
 6668TIP3    H119943   3.377   2.529   6.064 -1.2158  1.3165 -0.9214
 6668TIP3    H219944   3.429   2.449   5.946 -0.8829 -0.5083  0.4353
 6669TIP3   OH219945   5.516   1.783   4.431  0.5567  0.2365 -0.7954
 6669TIP3    H119946   5.536   1.704   4.481  0.3813  1.7967  1.8216
 6669TIP3    H219947   5.580   1.783   4.360  1.3394 -1.6231 -0.1279
 6670TIP3   OH219948   4.892   2.146   6.708  0.1028 -0.1170  0.2208
 6670TIP3    H119949   4.798   2.152   6.689 -0.8456 -4.0074  2.8784
 6670TIP3    H219950   4.925   2.085   6.642  0.8333  1.3956 -0.8267
 6671TIP3   OH219951   7.372   6.810   0.026  0.0712  0.0902 -0.0968
 6671TIP3    H119952   7.390   6.810   0.120 -1.5162  0.6694  0.2187
 6671TIP3    H219953   7.413   6.890  -0.006  1.8250 -0.7983 -0.1629
 6672TIP3   OH219954   4.580   3.438   6.019  0.2686  0.1584 -0.0292
 6672TIP3    H119955   4.596   3.344   6.026  0.3789  0.1665 -0.1891
 6672TIP3    H219956   4.508   3.454   6.081  0.0959 -0.0688 -0.1698
 6673TIP3   OH219957   4.242   1.828   4.059  0.6091 -0.4177 -0.0610
 6673TIP3    H119958   4.163   1.875   4.033  1.0686 -0.7164 -2.0412
 6673TIP3    H219959   4.221   1.736   4.047  0.4704 -0.6459  1.7018
 6674TIP3   OH219960   4.681   1.415   3.482 -0.3408 -0.1252  0.3207
 6674TIP3    H119961   4.683   1.511   3.474 -0.4429 -0.0771  0.8499
 6674TIP3    H219962   4.771   1.388   3.469 -0.5913 -0.1084 -1.6256
 6675TIP3   OH219963   4.919   3.623   3.082  0.0419 -0.0275  0.1118
 6675TIP3    H119964   5.004   3.588   3.109  0.5083  1.3678  0.4619
 6675TIP3    H219965   4.930   3.718   3.084 -1.3100  0.1535 -0.5452
 6676TIP3   OH219966   3.144   5.804   1.677  0.1906 -0.1239 -0.0244
 6676TIP3    H119967   3.186   5.756   1.606  0.5659 -0.7395  0.6093
 6676TIP3    H219968   3.110   5.736   1.736 -1.1241  0.3700 -0.1995
 6677TIP3   OH219969   2.860   1.567   4.904  0.1807 -0.1292  0.4707
 6677TIP3    H119970   2.873   1.478   4.873  0.3637  0.5704 -1.5595
 6677TIP3    H219971   2.794   1.560   4.972  0.3130 -1.8267  0.4349
 6678TIP3   OH219972   3.689   0.586   1.409  0.4257  0.2368  0.2251
 6678TIP3    H119973   3.627   0.551   1.472 -0.3587  2.3389  0.6738
 6678TIP3    H219974   3.659   0.554   1.324 -1.0358  0.8867  0.4877
 6679TIP3   OH219975   5.541   2.439   6.569 -0.0752 -0.1849  0.2823
 6679TIP3    H119976   5.448   2.455   6.586  0.0721  0.4997  0.4358
 6679TIP3    H219977   5.586   2.516   6.603  0.4936 -0.2007 -0.4233
 6680TIP3   OH219978   5.262   1.856   5.380  0.0048 -0.3588 -0.8650
 6680TIP3    H119979   5.304   1.898   5.305 -0.1999  0.1719 -0.6854
 6680TIP3    H219980   5.253   1.764   5.355  0.7944 -0.3714 -1.1172
 6681TIP3   OH219981   2.966   1.007   5.449  0.9088  0.7493  0.1286
 6681TIP3    H119982   2.955   0.927   5.398 -0.2799  0.6224  0.5777
 6681TIP3    H219983   3.011   1.067   5.390 -1.2809  0.9277 -1.3934
 6682TIP3   OH219984   5.915   1.805   4.229  0.0629  0.1094  0.2085
 6682TIP3    H119985   5.823   1.778   4.218  0.2605 -0.7365  0.6262
 6682TIP3    H219986   5.912   1.901   4.221 -0.7700  0.0476 -0.3924
 6683TIP3   OH219987   0.313   7.834   5.170  0.1611 -0.9075  0.0174
 6683TIP3    H119988   0.310   7.827   5.075 -0.3290  0.8561 -0.1053
 6683TIP3    H219989   0.332   7.745   5.200  1.6659 -1.2122 -1.7838
 6684TIP3   OH219990   2.185   1.502   5.524 -0.0714 -0.3350  0.0260
 6684TIP3    H119991   2.125   1.523   5.595 -0.5394  0.4940 -0.5968
 6684TIP3    H219992   2.175   1.574   5.462 -0.6075 -1.6699 -1.4763
 6685TIP3   OH219993   4.127   3.742   5.022 -0.1777  0.7529  0.1355
 6685TIP3    H119994   4.183   3.677   5.064  0.8079  2.1633  1.0580
 6685TIP3    H219995   4.059   3.759   5.087 -0.2730  0.8578  0.0083
 6686TIP3   OH219996   4.111   2.200   5.034 -0.0306 -0.3599 -0.0109
 6686TIP3    H119997   4.065   2.169   5.113  0.5992  0.1795  0.5703
 6686TIP3    H219998   4.057   2.168   4.962  0.2061 -2.2013  0.5890
 6687TIP3   OH219999   4.527   3.225   4.792  0.3047  0.0278  0.0260
 6687TIP3    H120000   4.481   3.173   4.725  1.1777 -0.0131 -0.5531
 6687TIP3    H220001   4.461   3.286   4.824  0.0906  0.6178 -1.4813
 6688TIP3   OH220002   4.792   2.551   5.673 -0.4685  0.0218  0.1881
 6688TIP3    H120003   4.731   2.598   5.730 -1.0845 -0.2216 -0.2717
 6688TIP3    H220004   4.876   2.557   5.719 -0.9936 -0.3188  1.2234
 6689TIP3   OH220005   5.588   3.497   4.715 -0.6803 -0.4723 -0.2888
 6689TIP3    H120006   5.545   3.566   4.665 -1.2686 -1.4867 -1.2036
 6689TIP3    H220007   5.653   3.461   4.655  0.3739  0.0048  0.5558
 6690TIP3   OH220008   7.397   7.811   0.693 -0.2957  0.4075  0.2218
 6690TIP3    H120009   7.353   7.748   0.637  0.8459  0.3053 -0.5553
 6690TIP3    H220010   7.331   7.879   0.709 -0.0606  1.3666 -2.7229
 6691TIP3   OH220011   2.709   2.491   3.953  0.7705 -0.1392  0.1680
 6691TIP3    H120012   2.729   2.581   3.929 -0.3311  0.2069  0.5592
 6691TIP3    H220013   2.635   2.467   3.899  0.0746 -0.2958  1.1759
 6692TIP3   OH220014   4.708   4.119   5.040  0.3821  0.0097  0.3134
 6692TIP3    H120015   4.644   4.132   4.970  0.3401  3.1737  0.8956
 6692TIP3    H220016   4.707   4.200   5.090  4.4561 -0.0426  0.6588
 6693TIP3   OH220017   6.917   4.217   5.477  0.5550 -0.4787  0.0767
 6693TIP3    H120018   6.990   4.157   5.491  0.9075 -0.3559 -1.1540
 6693TIP3    H220019   6.882   4.193   5.391 -0.0061  0.3282  0.0734
 6694TIP3   OH220020   5.170   1.890   6.135 -0.0169  0.1379  0.5425
 6694TIP3    H120021   5.111   1.919   6.205  0.6057 -0.1273  1.1792
 6694TIP3    H220022   5.148   1.947   6.061 -0.1516  0.9397  1.1863
 6695TIP3   OH220023   6.075   4.284   5.988 -0.6821 -0.2955  0.3688
 6695TIP3    H120024   6.103   4.208   5.937 -1.5900  0.2651 -0.9829
 6695TIP3    H220025   6.094   4.359   5.932  1.0436  0.5642  2.0659
 6696TIP3   OH220026   3.718   3.048   2.385 -0.3043  0.0759  0.1543
 6696TIP3    H120027   3.718   3.085   2.296 -0.7199  0.0084  0.1260
 6696TIP3    H220028   3.706   2.954   2.372 -2.2451  0.2801  0.3675
 6697TIP3   OH220029   6.368   3.923   4.724 -0.5826  0.4845  0.1565
 6697TIP3    H120030   6.340   3.985   4.657 -0.7729 -0.7652 -0.9536
 6697TIP3    H220031   6.460   3.943   4.739 -0.1045 -0.2335 -1.6535
 6698TIP3   OH220032   7.021   0.643   4.076 -0.1595 -0.0353 -0.1969
 6698TIP3    H120033   6.930   0.614   4.081 -0.1103 -0.1428  0.1743
 6698TIP3    H220034   7.054   0.607   3.994 -0.5611  0.3330 -0.5195
 6699TIP3   OH220035   6.705   2.207   4.216  0.2242  0.0028 -0.2320
 6699TIP3    H120036   6.647   2.275   4.182 -1.8306 -1.3848  0.4478
 6699TIP3    H220037   6.741   2.244   4.297 -1.5159 -0.0466  0.5655
 6700TIP3   OH220038   5.983   4.131   4.246 -0.6503 -0.1614  0.1838
 6700TIP3    H120039   6.051   4.189   4.281 -1.0854  0.5747 -0.1807
 6700TIP3    H220040   5.959   4.170   4.162 -2.2440  0.1541  0.7691
 6701TIP3   OH220041   6.060   2.991   5.801  0.5916 -0.2690  0.2760
 6701TIP3    H120042   6.005   3.045   5.744 -0.5592 -0.9093  0.7594
 6701TIP3    H220043   6.140   2.977   5.750  0.5331  1.1202 -0.2187
 6702TIP3   OH220044   4.769   3.085   5.469  0.4470  0.0545  0.2303
 6702TIP3    H120045   4.724   3.013   5.513  0.3171  0.0885  0.1513
 6702TIP3    H220046   4.862   3.067   5.483  0.5061 -1.4344 -1.8577
 6703TIP3   OH220047   6.439   3.147   4.855  0.0875  0.2834 -0.1577
 6703TIP3    H120048   6.383   3.070   4.860 -1.0106  1.0235 -0.8032
 6703TIP3    H220049   6.379   3.220   4.839  1.3440  0.8925 -2.3974
 6704TIP3   OH220050   3.974   2.675   6.687 -0.3754 -0.3990 -0.0112
 6704TIP3    H120051   4.000   2.759   6.651  0.3968 -0.5545  0.1713
 6704TIP3    H220052   4.054   2.639   6.724 -0.7895 -1.0270  0.2867
 6705TIP3   OH220053   4.512   2.553   4.683  0.1388 -0.1312  0.0291
 6705TIP3    H120054   4.587   2.498   4.701  0.0439  0.1604  1.3662
 6705TIP3    H220055   4.494   2.598   4.766 -0.7195  0.7525 -0.6149
 6706TIP3   OH220056   2.962   0.300   5.313  0.2125 -0.2961 -0.0501
 6706TIP3    H120057   2.955   0.377   5.257  1.5397 -0.0490  0.1063
 6706TIP3    H220058   3.004   0.234   5.258  0.2210 -0.5089  0.2069
 6707TIP3   OH220059   6.172   1.034   5.611  0.0948 -0.3504 -0.0598
 6707TIP3    H120060   6.174   1.116   5.561 -0.1274 -0.3565 -0.0793
 6707TIP3    H220061   6.155   0.967   5.545 -2.6950 -0.1017  0.3467
 6708TIP3   OH220062   8.033   6.560   0.796  0.0959  0.2063 -0.5756
 6708TIP3    H120063   8.023   6.608   0.713 -1.4380  0.0313 -0.5073
 6708TIP3    H220064   7.944   6.554   0.831  0.8801  1.2268  1.6319
 6709TIP3   OH220065   5.239   5.522   6.478  0.0052  0.1843  0.0193
 6709TIP3    H120066   5.217   5.614   6.493 -1.7900 -0.2300  0.0360
 6709TIP3    H220067   5.238   5.483   6.565  0.5008  0.0939 -0.0167
 6710TIP3   OH220068   7.490   7.087   1.026 -0.7168  0.0405  0.3654
 6710TIP3    H120069   7.441   7.138   1.090 -0.5624  0.1300  0.4118
 6710TIP3    H220070   7.438   7.008   1.013 -0.7868  0.0574  0.5434
 6711TIP3   OH220071   5.655   3.169   6.205  0.1298 -0.5924 -0.0326
 6711TIP3    H120072   5.713   3.215   6.265  1.6741 -1.6434 -0.6903
 6711TIP3    H220073   5.574   3.220   6.206  0.7921  0.4645  1.4768
 6712TIP3   OH220074   8.300   5.682   0.346 -0.1437  0.1520 -0.2047
 6712TIP3    H120075   8.357   5.741   0.394 -0.1359 -0.8344  1.0421
 6712TIP3    H220076   8.346   5.664   0.264  1.9961 -1.6722  1.3416
 6713TIP3   OH220077   1.796   5.516   0.494  0.4114 -0.5532 -0.0367
 6713TIP3    H120078   1.891   5.505   0.489  0.5508  0.0353  1.1492
 6713TIP3    H220079   1.777   5.516   0.587 -0.8821 -1.6236 -0.2941
 6714TIP3   OH220080   5.650   4.948   3.154  0.2531 -0.2014 -0.0209
 6714TIP3    H120081   5.697   4.900   3.222 -2.1032 -2.5205  0.0443
 6714TIP3    H220082   5.607   4.880   3.102  1.1960  1.5625 -3.2765
 6715TIP3   OH220083   4.217   1.488   5.460  0.6881 -0.0673  0.3533
 6715TIP3    H120084   4.219   1.467   5.366  0.2042 -0.2083  0.3755
 6715TIP3    H220085   4.288   1.551   5.471  0.6197  0.1021 -0.1437
 6716TIP3   OH220086   5.868   2.302   4.592 -0.6396 -0.2954  1.0329
 6716TIP3    H120087   5.946   2.353   4.567 -0.0441 -1.1825  1.0487
 6716TIP3    H220088   5.822   2.286   4.510 -0.0458 -0.9848  0.8203
 6717TIP3   OH220089   2.889   3.211   4.244 -0.3524  0.1459  0.2546
 6717TIP3    H120090   2.959   3.251   4.296  1.0864 -2.1267  0.1457
 6717TIP3    H220091   2.929   3.200   4.157 -1.5303  0.6317 -0.3560
 6718TIP3   OH220092   5.713   2.217   6.551  0.3174  0.0184 -0.2717
 6718TIP3    H120093   5.754   2.198   6.635  3.1764 -0.1827 -1.6615
 6718TIP3    H220094   5.647   2.284   6.571  2.1707  1.2904  1.8382
 6719TIP3   OH220095   5.828   2.551   4.254  0.3258  0.2322 -0.7725
 6719TIP3    H120096   5.804   2.600   4.332 -2.4560  0.7035 -1.8399
 6719TIP3    H220097   5.827   2.459   4.282  0.5451  0.4781  0.0391
 6720TIP3   OH220098   5.327   3.306   5.369 -0.7821 -0.6132  0.6449
 6720TIP3    H120099   5.363   3.340   5.451  1.1187 -0.1194 -0.3635
 6720TIP3    H220100   5.372   3.222   5.356  0.7109  0.4079 -1.0574
 6721TIP3   OH220101   4.784   2.321   5.271 -0.5044  0.0954 -0.1363
 6721TIP3    H120102   4.822   2.405   5.246  0.4067 -0.2603  0.0197
 6721TIP3    H220103   4.759   2.280   5.189 -0.0492  0.1015 -0.2768
 6722TIP3   OH220104   5.413   3.447   4.039 -0.2455  0.0735  0.0757
 6722TIP3    H120105   5.332   3.495   4.060  0.3446  1.7206 -1.2596
 6722TIP3    H220106   5.471   3.464   4.113 -1.0404 -0.9328  0.9362
 6723TIP3   OH220107   8.363   2.770   3.992  0.8049 -0.0329 -0.0171
 6723TIP3    H120108   8.362   2.789   3.898 -0.9563 -0.5384 -0.1063
 6723TIP3    H220109   8.311   2.690   4.001 -1.1196  1.3890  1.6847
 6724TIP3   OH220110   4.583   2.359   3.253  0.1468 -0.3485 -0.2102
 6724TIP3    H120111   4.668   2.321   3.275  0.0559 -0.3995  0.0569
 6724TIP3    H220112   4.599   2.453   3.251 -0.0114 -0.2926  0.8286
 6725TIP3   OH220113   3.861   4.182   1.610  0.4766  0.0163 -0.0757
 6725TIP3    H120114   3.879   4.114   1.545 -0.5611  0.0286 -0.3894
 6725TIP3    H220115   3.823   4.254   1.559  0.5743  0.4109  0.4052
 6726TIP3   OH220116   5.570   4.962   4.734  0.2430 -0.1498 -0.1713
 6726TIP3    H120117   5.532   5.035   4.687 -0.8622  0.1980  1.2081
 6726TIP3    H220118   5.628   5.002   4.799 -0.2793 -0.4914  0.5149
 6727TIP3   OH220119   7.020   4.357   1.478 -0.0949 -0.4091  0.5074
 6727TIP3    H120120   7.090   4.398   1.426 -1.0412  1.2880  0.5509
 6727TIP3    H220121   7.053   4.358   1.568  0.8190 -1.8028  0.2156
 6728TIP3   OH220122   4.968   4.049   4.506  0.6521  0.6405 -0.5400
 6728TIP3    H120123   5.047   4.103   4.511  0.2299  1.3970 -1.8087
 6728TIP3    H220124   4.901   4.107   4.470  0.3281 -0.8467 -2.4404
 6729TIP3   OH220125   5.733   2.392   6.948 -0.2645 -0.1628 -0.5142
 6729TIP3    H120126   5.669   2.454   6.911  0.2928  1.0224  0.4670
 6729TIP3    H220127   5.801   2.386   6.882 -0.4191  0.1217 -0.7031
 6730TIP3   OH220128   3.872   4.173   5.524  0.2005 -0.4894  0.6227
 6730TIP3    H120129   3.782   4.180   5.554 -0.1829  1.3798 -0.8830
 6730TIP3    H220130   3.883   4.081   5.500 -1.7520 -0.4250 -0.5717
 6731TIP3   OH220131   5.227   3.359   3.722  0.1403  0.4914 -0.4983
 6731TIP3    H120132   5.321   3.344   3.733  0.1930  0.6917 -0.6541
 6731TIP3    H220133   5.213   3.448   3.755 -0.3822 -0.3446  1.5852
 6732TIP3   OH220134   0.953   7.775   5.270  0.3286  0.5517 -0.2122
 6732TIP3    H120135   0.979   7.853   5.221 -2.1659 -0.1880 -2.8723
 6732TIP3    H220136   0.861   7.790   5.291  0.0978 -1.2497  0.1131
 6733TIP3   OH220137   3.359   7.011   0.625 -0.4518  0.0158  0.2370
 6733TIP3    H120138   3.266   7.008   0.603 -0.2836  2.8119 -1.1143
 6733TIP3    H220139   3.390   7.093   0.587  2.2781 -0.2000  1.8316
 6734TIP3   OH220140   1.721   6.345   0.261  0.0413  0.0079  0.4873
 6734TIP3    H120141   1.772   6.422   0.236 -0.3609  0.4277  0.9626
 6734TIP3    H220142   1.645   6.380   0.307 -1.2723 -0.5537 -1.2067
 6735TIP3   OH220143   6.385   3.822   6.218  0.6658  0.0155 -0.4391
 6735TIP3    H120144   6.374   3.839   6.311  1.1936  0.8895 -0.5283
 6735TIP3    H220145   6.336   3.741   6.202  1.2934 -0.6111  0.7618
 6736TIP3   OH220146   2.698   0.819   0.279  0.0555  0.6352  0.0590
 6736TIP3    H120147   2.761   0.835   0.209  0.0886  0.2007 -0.0078
 6736TIP3    H220148   2.749   0.830   0.360  0.2968 -0.0436  0.0020
 6737TIP3   OH220149   6.906   3.889   5.252  0.6382 -0.1670  0.3558
 6737TIP3    H120150   6.924   3.929   5.337  1.3805  1.5395 -0.5737
 6737TIP3    H220151   6.982   3.833   5.236  0.3194 -0.7809  0.9770
 6738TIP3   OH220152   7.358   2.249   6.341 -0.0720  0.2638 -0.1153
 6738TIP3    H120153   7.299   2.294   6.402 -0.0034  0.0945  0.0753
 6738TIP3    H220154   7.344   2.156   6.358  1.1166  0.2251  0.7788
 6739TIP3   OH220155   0.091   7.924   0.554 -0.1574 -0.0920  0.3515
 6739TIP3    H120156   0.177   7.965   0.558 -0.4894  0.9383 -2.1956
 6739TIP3    H220157   0.103   7.849   0.496 -1.0316  0.2825 -0.3297
 6740TIP3   OH220158   7.249   2.020   3.638  0.9034  0.1699 -0.6080
 6740TIP3    H120159   7.165   1.975   3.643  0.7558  0.1290 -2.9493
 6740TIP3    H220160   7.313   1.953   3.661  0.6020 -1.0541 -3.0682
 6741TIP3   OH220161   3.529   2.743   2.444 -0.2780  0.0114  0.2511
 6741TIP3    H120162   3.515   2.763   2.351 -0.4154  2.6788  0.8188
 6741TIP3    H220163   3.623   2.725   2.451 -0.0663  0.9377 -0.1964
 6742TIP3   OH220164   2.064   3.271   6.622 -0.5057 -0.1234  0.3822
 6742TIP3    H120165   2.154   3.297   6.604 -0.1056 -0.9799  1.1204
 6742TIP3    H220166   2.051   3.192   6.569 -1.6023  1.2966 -1.5721
 6743TIP3   OH220167   0.640   3.398   5.013  0.2016 -0.0305 -0.0074
 6743TIP3    H120168   0.708   3.425   4.951  0.7529 -0.3038  0.4740
 6743TIP3    H220169   0.609   3.480   5.052  2.0283 -0.0953  1.6122
 6744TIP3   OH220170   1.121   7.730   3.487 -0.9972  0.7965 -0.3253
 6744TIP3    H120171   1.078   7.660   3.536  1.2341 -0.7924 -0.5562
 6744TIP3    H220172   1.145   7.690   3.403  0.2280  1.8488 -0.4976
 6745TIP3   OH220173   8.066   7.225   0.398 -0.3611 -0.0658 -0.6233
 6745TIP3    H120174   8.004   7.169   0.444 -0.5939 -0.9036 -1.9086
 6745TIP3    H220175   8.020   7.308   0.386 -1.2181 -0.6438 -1.4661
 6746TIP3   OH220176   4.309   2.225   6.261  0.2034  0.4732  0.4998
 6746TIP3    H120177   4.291   2.257   6.349  1.0901  3.1539 -0.2230
 6746TIP3    H220178   4.259   2.283   6.203 -1.3588 -2.0110 -0.7500
 6747TIP3   OH220179   5.234   3.481   5.765 -0.2820 -0.0757  0.2814
 6747TIP3    H120180   5.250   3.390   5.791 -2.2280 -0.6946 -0.6067
 6747TIP3    H220181   5.142   3.496   5.785  0.0081  1.6947  0.3683
 6748TIP3   OH220182   6.587   4.195   4.869  0.0307 -0.4944 -0.6117
 6748TIP3    H120183   6.542   4.263   4.820 -0.5930 -0.0008  0.6164
 6748TIP3    H220184   6.680   4.212   4.852 -0.1847 -0.5400 -1.8772
 6749TIP3   OH220185   7.674   2.095   6.807 -0.3623 -0.2659 -0.4560
 6749TIP3    H120186   7.654   2.172   6.753 -0.6635 -0.7577 -1.0561
 6749TIP3    H220187   7.726   2.039   6.750  1.2200  0.1924  0.5061
 6750TIP3   OH220188   4.228   2.021   5.655 -0.2790  0.6042 -0.3478
 6750TIP3    H120189   4.169   1.984   5.589 -1.4440  0.6768  0.6179
 6750TIP3    H220190   4.177   2.017   5.736  1.6006 -0.7371  0.8181
 6751TIP3   OH220191   4.272   2.865   3.937  0.1149 -0.1678  0.6788
 6751TIP3    H120192   4.225   2.903   3.862  1.0550  0.1486  0.2480
 6751TIP3    H220193   4.217   2.888   4.012  0.6949  2.1611  0.4357
 6752TIP3   OH220194   8.023   6.001   0.492 -0.2892 -0.2858  1.0436
 6752TIP3    H120195   8.118   6.007   0.484 -0.4639  1.7967  0.2166
 6752TIP3    H220196   8.008   5.972   0.582  1.1167 -0.0333  1.3772
 6753TIP3   OH220197   5.436   1.078   4.809 -0.4131  0.1479  0.3668
 6753TIP3    H120198   5.518   1.029   4.817 -1.2542 -1.2590  0.4861
 6753TIP3    H220199   5.422   1.086   4.715 -1.4574 -1.8800  0.3284
 6754TIP3   OH220200   5.068   2.385   5.779  0.2865 -0.3649 -0.2127
 6754TIP3    H120201   4.994   2.344   5.735 -0.2452  0.2799  0.0767
 6754TIP3    H220202   5.037   2.402   5.868  1.3459 -1.6527  0.4175
 6755TIP3   OH220203   5.379   3.793   5.275  0.4671 -0.2831  0.7059
 6755TIP3    H120204   5.305   3.805   5.215  2.7369 -0.2744 -2.2382
 6755TIP3    H220205   5.395   3.880   5.311  0.9024  0.3400 -0.9577
 6756TIP3   OH220206   4.387   4.533   6.507 -0.4631 -0.0187 -0.3126
 6756TIP3    H120207   4.302   4.528   6.550 -0.5222  0.7226 -0.3442
 6756TIP3    H220208   4.367   4.525   6.413 -0.4978  0.2017 -0.3225
 6757TIP3   OH220209   8.451   5.683   0.105  0.1263 -0.3278  0.1305
 6757TIP3    H120210   8.523   5.621   0.088  0.8163  0.5548 -0.2094
 6757TIP3    H220211   8.494   5.760   0.143 -0.7971 -0.2645  1.0690
 6758TIP3   OH220212   5.282   3.325   6.541  0.3620  0.0474 -0.1356
 6758TIP3    H120213   5.189   3.323   6.519  0.6436 -0.5291 -1.2584
 6758TIP3    H220214   5.283   3.339   6.636 -0.8570  1.0193 -0.2464
 6759TIP3   OH220215   6.317   0.151   5.944  0.1236 -0.2879 -0.4523
 6759TIP3    H120216   6.236   0.174   5.896  1.2882  1.2071 -1.7651
 6759TIP3    H220217   6.364   0.234   5.951  1.8371 -1.2755 -0.2473
 6760TIP3   OH220218   6.847   0.671   3.581 -0.3421 -0.5141  0.2768
 6760TIP3    H120219   6.772   0.649   3.525  0.3858 -0.0635 -0.9021
 6760TIP3    H220220   6.921   0.677   3.520  0.4126  0.2585  1.2557
 6761TIP3   OH220221   3.849   2.787   5.401 -0.3229 -0.5028 -0.0648
 6761TIP3    H120222   3.762   2.809   5.432 -0.3231 -1.1257  0.3889
 6761TIP3    H220223   3.907   2.852   5.441 -0.8773  1.4848 -2.3837
 6762TIP3   OH220224   3.690   0.283   5.092  0.4344 -0.0001  0.7244
 6762TIP3    H120225   3.616   0.246   5.044  1.6672 -0.3564 -0.9724
 6762TIP3    H220226   3.674   0.377   5.093 -0.0961 -0.0863  0.4466
 6763TIP3   OH220227   2.474   0.884   6.333  0.4117 -0.0892 -0.1340
 6763TIP3    H120228   2.521   0.894   6.250 -0.2095 -0.6543 -0.5633
 6763TIP3    H220229   2.534   0.834   6.388  0.4154 -0.6198 -0.6071
 6764TIP3   OH220230   8.314   7.258   1.299 -0.3660 -0.1709 -0.1888
 6764TIP3    H120231   8.240   7.197   1.304 -0.2325 -0.5287 -2.1991
 6764TIP3    H220232   8.274   7.342   1.275 -0.5070  0.4799  2.2062
 6765TIP3   OH220233   4.612   1.270   6.317  0.1363 -0.2344 -0.0319
 6765TIP3    H120234   4.679   1.211   6.283  1.5256 -0.3132  2.7172
 6765TIP3    H220235   4.648   1.358   6.306 -0.5916 -0.0700 -1.2325
 6766TIP3   OH220236   4.081   4.228   5.101  0.1611 -0.4580  0.5600
 6766TIP3    H120237   4.153   4.166   5.108 -0.0563 -0.8808 -0.7888
 6766TIP3    H220238   4.116   4.301   5.050  0.4394  0.5867  2.1943
 6767TIP3   OH220239   5.067   3.256   4.121  0.9628 -0.1511  0.0360
 6767TIP3    H120240   5.084   3.193   4.050 -0.5717  0.3427 -0.7957
 6767TIP3    H220241   5.096   3.211   4.200 -1.0556 -2.3623 -0.4182
 6768TIP3   OH220242   4.066  -0.010   5.256 -0.6948 -0.2864 -0.5240
 6768TIP3    H120243   3.971  -0.004   5.248 -0.9022  0.0821  1.9712
 6768TIP3    H220244   4.087   0.040   5.334  1.7130  0.7703 -1.7776
 6769TIP3   OH220245   5.755   4.060   3.676  0.1520  0.0249 -0.3607
 6769TIP3    H120246   5.810   3.992   3.716 -1.0342 -0.9271 -0.3091
 6769TIP3    H220247   5.676   4.013   3.648  0.1162  1.0432 -2.0430
 6770TIP3   OH220248   5.976   4.208   1.097  0.9604 -0.4718  0.2498
 6770TIP3    H120249   6.001   4.154   1.172 -0.5684 -1.2118  0.2434
 6770TIP3    H220250   5.998   4.155   1.020  0.8991 -0.4461  0.2138
 6771TIP3   OH220251   6.460   4.055   0.399  0.0127  0.1091 -0.3163
 6771TIP3    H120252   6.479   4.124   0.335  0.3709  0.2767 -0.0290
 6771TIP3    H220253   6.369   4.029   0.379 -0.6122  1.6351  0.4777
 6772TIP3   OH220254   4.854   2.574   6.647  0.0980  0.5197 -0.3524
 6772TIP3    H120255   4.803   2.564   6.727 -1.5273 -0.6808 -1.5028
 6772TIP3    H220256   4.909   2.650   6.663 -1.1410  1.0842  1.4063
 6773TIP3   OH220257   5.109   3.544   4.064  0.2604 -0.4327 -0.4636
 6773TIP3    H120258   5.053   3.472   4.094 -2.7976  1.3660 -1.6622
 6773TIP3    H220259   5.118   3.601   4.140  1.5524 -1.3518  0.0918
 6774TIP3   OH220260   6.539   0.915   6.634 -0.3517 -0.1426  0.0373
 6774TIP3    H120261   6.455   0.885   6.601 -0.3008  1.4153 -1.5881
 6774TIP3    H220262   6.604   0.865   6.585 -0.3034 -1.2210  1.1696
 6775TIP3   OH220263   4.136   4.507   6.672 -0.5438  0.4390  0.1925
 6775TIP3    H120264   4.211   4.496   6.731  1.1178  1.0131 -1.7370
 6775TIP3    H220265   4.098   4.591   6.696  0.4174  0.8972  0.1096
 6776TIP3   OH220266   6.713   3.466   2.419 -0.6702  0.6404 -0.2429
 6776TIP3    H120267   6.800   3.493   2.388 -1.1376 -0.1000 -2.2844
 6776TIP3    H220268   6.731   3.415   2.498  0.7224  0.9549 -0.3374
 6777TIP3   OH220269   6.609   1.678   3.359 -0.1604  0.6137 -0.6883
 6777TIP3    H120270   6.613   1.649   3.268  1.6856 -0.1914 -0.3763
 6777TIP3    H220271   6.701   1.687   3.386 -0.6916  2.5863  0.5487
 6778TIP3   OH220272   5.025   1.221   5.830  0.1037 -0.4182  0.0704
 6778TIP3    H120273   4.986   1.259   5.752 -0.4183 -0.1540  0.4557
 6778TIP3    H220274   5.039   1.129   5.808  1.8061  0.0794 -1.0292
 6779TIP3   OH220275   7.428   2.101   5.775 -0.1051 -0.5906 -0.2985
 6779TIP3    H120276   7.398   2.147   5.853 -2.1785 -2.0114 -0.2316
 6779TIP3    H220277   7.448   2.012   5.806 -1.6947 -1.3967 -1.5019
 6780TIP3   OH220278   5.392   0.316   3.422 -0.0173 -0.7223 -0.7882
 6780TIP3    H120279   5.318   0.259   3.445  1.1251 -1.6275  0.7307
 6780TIP3    H220280   5.439   0.268   3.353 -0.2080 -0.6710 -0.9544
 6781TIP3   OH220281   7.422   0.804   6.008  0.3891 -0.1123  0.0026
 6781TIP3    H120282   7.469   0.721   6.021  1.8677  0.6644 -0.2945
 6781TIP3    H220283   7.347   0.781   5.953 -1.0958 -1.8581  2.6278
 6782TIP3   OH220284   3.327   1.500   6.789 -0.2053  0.2142  0.6284
 6782TIP3    H120285   3.394   1.454   6.840  0.3510  0.2911 -0.0319
 6782TIP3    H220286   3.367   1.516   6.704 -1.0043  0.4106  0.2774
 6783TIP3   OH220287   6.424   2.879   6.332 -0.2123 -0.4058 -0.1635
 6783TIP3    H120288   6.336   2.896   6.366 -0.3965 -2.7660  0.6238
 6783TIP3    H220289   6.461   2.816   6.393  1.8437  0.1653 -0.7908
 6784TIP3   OH220290   7.504   1.261   3.961 -0.2248  0.3766  0.4027
 6784TIP3    H120291   7.552   1.294   4.037 -0.4100  1.5730  0.0077
 6784TIP3    H220292   7.559   1.191   3.926  0.2915  0.4281  1.1074
 6785TIP3   OH220293   0.238   1.065   3.060  0.5535 -0.1949 -0.1028
 6785TIP3    H120294   0.215   1.046   2.970 -2.0974 -1.6247  0.8068
 6785TIP3    H220295   0.260   0.980   3.098 -0.0559  0.1479  1.0401
 6786TIP3   OH220296   6.291   2.347   4.025 -0.0625  0.0531  0.1304
 6786TIP3    H120297   6.223   2.405   3.994 -1.4267  0.4312  3.5725
 6786TIP3    H220298   6.245   2.267   4.052  1.2957 -1.0693 -0.7755
 6787TIP3   OH220299   5.015   0.337   4.400  0.6208  0.3479  0.0137
 6787TIP3    H120300   4.935   0.300   4.362  1.4657 -0.9659 -0.5115
 6787TIP3    H220301   4.988   0.424   4.430 -1.2485 -0.4444  0.7528
 6788TIP3   OH220302   7.962   2.124   2.802 -0.6109  0.3588  0.3435
 6788TIP3    H120303   7.889   2.185   2.794 -0.7757  0.0190 -0.7598
 6788TIP3    H220304   7.976   2.091   2.713  0.6528  0.1573  0.6068
 6789TIP3   OH220305   5.489   1.430   4.293 -0.4228  0.0555  0.6728
 6789TIP3    H120306   5.492   1.411   4.386  1.2998 -0.2261  0.5647
 6789TIP3    H220307   5.579   1.423   4.263 -0.7983  1.1928 -0.8135
 6790TIP3   OH220308   5.704   1.312   3.367 -0.1827  0.1313  0.1296
 6790TIP3    H120309   5.646   1.383   3.395 -1.5742 -0.5869 -0.8300
 6790TIP3    H220310   5.668   1.284   3.283  1.6079 -0.3095 -0.4985
 6791TIP3   OH220311   7.292   2.693   2.113 -0.0866  0.3355  0.5112
 6791TIP3    H120312   7.234   2.720   2.184 -0.3896  1.1205 -0.0241
 6791TIP3    H220313   7.234   2.652   2.049 -0.0752  1.2406 -0.0835
 6792TIP3   OH220314   5.952   3.563   4.689  0.0961  0.4875  0.2633
 6792TIP3    H120315   5.996   3.620   4.626  0.4110 -0.1036 -0.0513
 6792TIP3    H220316   5.886   3.619   4.730  0.3919  1.0746 -0.0547
 6793TIP3   OH220317   8.252   3.081   3.162  0.1901 -0.2482  0.5249
 6793TIP3    H120318   8.193   3.024   3.114 -1.0283  1.0517  0.4368
 6793TIP3    H220319   8.293   3.024   3.227  0.8296 -1.7227 -1.1272
 6794TIP3   OH220320   5.784   1.437   5.600 -0.4024  0.0131  0.5044
 6794TIP3    H120321   5.853   1.426   5.535 -1.3113 -0.0558 -0.4781
 6794TIP3    H220322   5.726   1.362   5.586  0.1800 -0.8431  2.4291
 6795TIP3   OH220323   8.063   3.078   2.282 -0.1771 -0.6216  0.3046
 6795TIP3    H120324   8.069   3.146   2.349  0.3616 -0.3375 -0.0285
 6795TIP3    H220325   8.036   3.125   2.203  0.5506 -0.7370 -0.0154
 6796TIP3   OH220326   6.015   2.775   6.268  0.6945 -0.0201  0.2567
 6796TIP3    H120327   5.938   2.822   6.237  0.9187 -1.1611 -2.1419
 6796TIP3    H220328   6.086   2.801   6.208  1.2410 -1.9322  0.0134
 6797TIP3   OH220329   6.479   1.224   3.112 -0.6607 -0.1691  0.4742
 6797TIP3    H120330   6.388   1.221   3.141 -0.3421 -1.1965  1.3995
 6797TIP3    H220331   6.512   1.135   3.127  0.3820  0.0879 -0.2248
 6798TIP3   OH220332   5.112   2.272   4.659 -0.1337  0.3785 -0.4232
 6798TIP3    H120333   5.083   2.203   4.599  0.2724 -0.3037  0.1445
 6798TIP3    H220334   5.071   2.352   4.626  0.1787  0.0364 -1.6700
 6799TIP3   OH220335   6.639   4.207   2.755  0.3708  0.3284 -0.3655
 6799TIP3    H120336   6.721   4.187   2.710 -0.4030 -0.4107 -1.4647
 6799TIP3    H220337   6.661   4.200   2.848  1.3256 -0.7858 -0.6594
 6800TIP3   OH220338   6.685   0.663   2.826  0.2754 -0.6603 -0.1495
 6800TIP3    H120339   6.636   0.736   2.789 -0.0953 -1.6768 -1.7056
 6800TIP3    H220340   6.618   0.609   2.869  0.4704 -0.3843  0.5013
 6801TIP3   OH220341   6.091   0.316   4.317  0.0963 -0.3535  0.1046
 6801TIP3    H120342   6.065   0.336   4.228  3.2521 -1.1776 -1.0827
 6801TIP3    H220343   6.095   0.401   4.361  0.6921  0.3047 -1.1974
 6802TIP3   OH220344   7.519   1.691   3.358 -0.1513  0.2651 -0.1021
 6802TIP3    H120345   7.562   1.776   3.360 -0.5025  0.4447 -0.2042
 6802TIP3    H220346   7.475   1.688   3.273 -0.6151  0.2154  0.1353
 6803TIP3   OH220347   1.358   1.687   1.681  0.0645 -0.4563  0.0816
 6803TIP3    H120348   1.421   1.758   1.674  0.4191 -0.7988 -0.2298
 6803TIP3    H220349   1.274   1.730   1.695  0.4634 -0.0183  1.2114
 6804TIP3   OH220350   6.989   2.372   4.039 -0.2648  0.1604  0.6782
 6804TIP3    H120351   7.029   2.333   4.117 -0.5182 -1.1596  0.1574
 6804TIP3    H220352   7.053   2.356   3.970 -0.3851  0.6562  0.4551
 6805TIP3   OH220353   7.348   2.442   2.842  0.0738 -0.3572 -0.4829
 6805TIP3    H120354   7.321   2.358   2.805  0.1040 -0.6087  0.0695
 6805TIP3    H220355   7.405   2.480   2.775  0.8193 -1.1935 -0.3288
 6806TIP3   OH220356   6.441   3.583   2.403 -0.3841  0.5411 -0.7967
 6806TIP3    H120357   6.387   3.550   2.475 -0.6580  1.1565 -0.7129
 6806TIP3    H220358   6.528   3.546   2.418 -0.4550  0.6323 -0.1731
 6807TIP3   OH220359   6.782   3.645   3.876  0.3393 -0.1620 -0.2953
 6807TIP3    H120360   6.729   3.658   3.798 -0.3917 -0.4222  0.1515
 6807TIP3    H220361   6.719   3.646   3.948  1.2687  2.4245  0.5181
 6808TIP3   OH220362   6.635   1.859   4.957  0.2216  0.1998 -0.0555
 6808TIP3    H120363   6.636   1.954   4.946 -0.2806  0.1264 -0.7436
 6808TIP3    H220364   6.543   1.838   4.977  0.3072 -0.1465 -0.0239
 6809TIP3   OH220365   1.479   0.723   2.900  0.3927  0.0236  0.5416
 6809TIP3    H120366   1.449   0.673   2.976  0.0603  0.5593  0.7628
 6809TIP3    H220367   1.558   0.677   2.871 -1.4977 -2.3751 -1.0542
 6810TIP3   OH220368   7.021   4.792   2.310 -0.6151 -0.6106  0.2021
 6810TIP3    H120369   6.964   4.717   2.291  1.0884 -1.8072 -0.2973
 6810TIP3    H220370   7.072   4.804   2.229 -1.5334  1.7087 -0.0760
 6811TIP3   OH220371   0.386   3.482   4.246  0.2245 -0.2443 -0.1025
 6811TIP3    H120372   0.358   3.475   4.337 -1.6060  2.3203 -0.4144
 6811TIP3    H220373   0.474   3.519   4.250  1.0935 -2.2766  0.6448
 6812TIP3   OH220374   3.770   4.234   6.376 -0.2254  0.3650  0.3260
 6812TIP3    H120375   3.847   4.279   6.342  0.6846 -0.9101  0.6780
 6812TIP3    H220376   3.728   4.299   6.434  0.1357  1.3219 -0.4741
 6813TIP3   OH220377   6.850   2.214   2.713  0.2066  0.2028 -1.0339
 6813TIP3    H120378   6.844   2.309   2.723  0.9471  0.2710 -1.1735
 6813TIP3    H220379   6.926   2.190   2.767 -0.8429 -0.4900  0.1644
 6814TIP3   OH220380   7.616   4.445   4.122  0.6852 -0.0684  0.1524
 6814TIP3    H120381   7.529   4.417   4.151  1.3226 -1.0159  1.1737
 6814TIP3    H220382   7.640   4.381   4.054 -0.0504  1.0977 -1.2315
 6815TIP3   OH220383   0.370   2.742   2.624  0.0103  0.0557  0.3906
 6815TIP3    H120384   0.289   2.752   2.574 -1.1594 -2.7175  1.6249
 6815TIP3    H220385   0.354   2.791   2.705 -0.6703 -0.9834  0.8891
 6816TIP3   OH220386   5.989   1.828   5.802 -0.1010  0.1877 -0.1943
 6816TIP3    H120387   5.936   1.908   5.805  0.7031  0.8127 -1.6514
 6816TIP3    H220388   5.925   1.757   5.801 -0.8546  0.8511  0.0755
 6817TIP3   OH220389   7.802   6.143   3.089  0.0241 -0.3676  0.3892
 6817TIP3    H120390   7.800   6.181   3.001 -0.1904 -0.1555  0.4851
 6817TIP3    H220391   7.848   6.208   3.142 -1.3615  0.2975  0.8042
 6818TIP3   OH220392   7.296   2.953   5.782 -0.5079 -0.0152 -0.4260
 6818TIP3    H120393   7.377   2.906   5.762 -0.0166 -0.0063  1.5057
 6818TIP3    H220394   7.229   2.885   5.784 -0.0686 -0.4204  0.7514
 6819TIP3   OH220395   5.966   3.021   3.867 -0.1965  0.5607  0.4796
 6819TIP3    H120396   6.017   3.027   3.948 -0.1800  1.7731  0.3921
 6819TIP3    H220397   5.892   3.080   3.881  0.0359  1.0946 -0.5559
 6820TIP3   OH220398   5.649   0.748   4.603  0.5216 -0.1725  0.0884
 6820TIP3    H120399   5.682   0.726   4.516 -1.5213 -0.3951 -0.6552
 6820TIP3    H220400   5.618   0.665   4.638 -0.6364  0.2723  0.1445
 6821TIP3   OH220401   6.477   4.261   1.714 -0.6682 -0.2021 -0.6810
 6821TIP3    H120402   6.494   4.187   1.772  0.1943 -0.5935 -1.4101
 6821TIP3    H220403   6.491   4.339   1.769 -0.7835 -0.5777 -0.1225
 6822TIP3   OH220404   6.871   2.544   6.076 -0.2388 -0.4560 -0.6070
 6822TIP3    H120405   6.870   2.470   6.016  0.7793 -0.0953 -1.0805
 6822TIP3    H220406   6.892   2.620   6.021  1.9727 -0.3144  0.3886
 6823TIP3   OH220407   6.268   4.016   5.208 -0.0405  0.1565  0.5928
 6823TIP3    H120408   6.328   4.055   5.272  1.3310 -0.5487 -0.2530
 6823TIP3    H220409   6.288   3.923   5.210 -0.2358  0.0864 -0.6145
 6824TIP3   OH220410   6.620   3.296   4.429 -0.1556  0.0361  0.1524
 6824TIP3    H120411   6.686   3.241   4.386  0.3413 -0.0167  0.9808
 6824TIP3    H220412   6.666   3.377   4.451 -0.9613  0.9383 -1.3462
 6825TIP3   OH220413   7.184   0.956   2.790 -0.5999 -0.2660  0.1430
 6825TIP3    H120414   7.149   0.892   2.852 -2.4591  0.5306 -0.0603
 6825TIP3    H220415   7.107   1.000   2.754  0.6420  2.4114  0.6095
 6826TIP3   OH220416   6.285   1.896   1.199  0.4320 -0.1430 -0.1321
 6826TIP3    H120417   6.258   1.956   1.268 -1.0139  2.7522 -3.0989
 6826TIP3    H220418   6.374   1.923   1.177  0.6716 -0.6717  0.1843
 6827TIP3   OH220419   4.698   1.773   3.737 -0.2096  0.5225  0.2344
 6827TIP3    H120420   4.773   1.777   3.678  1.9379  0.0455  2.8813
 6827TIP3    H220421   4.681   1.865   3.759  0.9661  0.4921  1.3077
 6828TIP3   OH220422   7.113   4.212   2.684  0.3131 -0.2058 -0.1049
 6828TIP3    H120423   7.193   4.218   2.736  0.0577  0.6052  0.1899
 6828TIP3    H220424   7.140   4.240   2.596  0.0061  1.5665  0.3551
 6829TIP3   OH220425  -0.018   2.051   3.448  0.0072 -0.1873  0.3742
 6829TIP3    H120426   0.069   2.075   3.416 -0.8028 -0.9358 -2.5619
 6829TIP3    H220427  -0.037   2.115   3.516  1.9691  1.3492 -0.4616
 6830TIP3   OH220428   7.214   3.121   3.807 -0.2690 -0.0865  0.1355
 6830TIP3    H120429   7.169   3.090   3.886  0.0825 -0.1493  0.3148
 6830TIP3    H220430   7.150   3.175   3.762 -0.8306 -0.9480 -0.0995
 6831TIP3   OH220431   5.854   3.000   5.119  0.1221 -1.1271 -0.6662
 6831TIP3    H120432   5.883   3.083   5.157 -1.1351 -0.2658 -1.5510
 6831TIP3    H220433   5.826   2.947   5.194 -2.0557  0.4424 -0.3317
 6832TIP3   OH220434   3.872   0.280   3.750 -0.1100 -0.0034 -0.0915
 6832TIP3    H120435   3.931   0.204   3.745  0.0617  0.0183  1.5458
 6832TIP3    H220436   3.809   0.265   3.679  1.0086 -0.7472 -0.9564
 6833TIP3   OH220437   7.637   1.954   2.920 -0.0589  0.0765  0.0246
 6833TIP3    H120438   7.653   1.865   2.952 -1.1422  0.4414  1.6434
 6833TIP3    H220439   7.677   2.011   2.986  1.1919  0.8103 -1.3252
 6834TIP3   OH220440   7.507   1.522   4.604 -0.0348 -0.3114 -0.1230
 6834TIP3    H120441   7.502   1.496   4.696 -1.5410  1.9329  0.4719
 6834TIP3    H220442   7.595   1.559   4.594  0.7035 -2.0059 -0.0112
 6835TIP3   OH220443   5.727   2.442   3.112  0.0080 -0.2227 -0.1752
 6835TIP3    H120444   5.785   2.432   3.187  1.3904  0.2321 -1.1684
 6835TIP3    H220445   5.783   2.429   3.035 -0.6512  2.6754 -1.2248
 6836TIP3   OH220446   7.534   2.588   2.165 -0.5308 -0.7947 -0.2126
 6836TIP3    H120447   7.531   2.513   2.225 -1.2921  0.3864  1.2565
 6836TIP3    H220448   7.448   2.628   2.171 -0.9388 -1.1934 -2.8512
 6837TIP3   OH220449   6.486   2.671   3.863  0.1953 -0.2099 -0.0023
 6837TIP3    H120450   6.490   2.603   3.795  1.4460 -1.1936  1.0057
 6837TIP3    H220451   6.578   2.683   3.889 -0.0823  1.4584  0.2500
 6838TIP3   OH220452   6.126   2.192   5.761 -0.7737 -0.2549 -0.2455
 6838TIP3    H120453   6.057   2.157   5.705 -1.0595  0.2705 -0.2215
 6838TIP3    H220454   6.081   2.229   5.836 -0.3699 -1.2374  0.4980
 6839TIP3   OH220455   6.702   5.144   3.184 -0.2373 -0.1923 -0.1586
 6839TIP3    H120456   6.757   5.220   3.166  2.1010 -1.8259 -0.0602
 6839TIP3    H220457   6.749   5.096   3.252 -1.2152 -2.2244 -0.8921
 6840TIP3   OH220458   5.618   0.117   3.928 -0.1679  0.5470  0.1449
 6840TIP3    H120459   5.567   0.195   3.907  0.1859  0.1678 -2.3698
 6840TIP3    H220460   5.555   0.045   3.926 -0.0820  0.4730  0.0227
 6841TIP3   OH220461   6.585   3.116   3.149  0.3611  0.6937 -0.1788
 6841TIP3    H120462   6.501   3.100   3.193  0.9816  0.3742  0.9027
 6841TIP3    H220463   6.648   3.062   3.197  1.0869  0.4612 -1.3569
 6842TIP3   OH220464   6.762   2.938   2.589 -0.0799 -0.2270  0.2167
 6842TIP3    H120465   6.784   2.911   2.678  0.5133  0.4981  0.3013
 6842TIP3    H220466   6.777   2.860   2.535  0.2289 -0.4667  0.6499
 6843TIP3   OH220467   4.907   3.871   3.389  0.1682 -0.1102 -0.1481
 6843TIP3    H120468   4.917   3.816   3.466 -0.2998  0.8877  0.6425
 6843TIP3    H220469   4.977   3.936   3.397  0.2370 -0.1220 -0.6645
 6844TIP3   OH220470   5.603   1.266   5.217 -0.0290  0.3635 -0.4140
 6844TIP3    H120471   5.605   1.211   5.139 -0.6237  0.4486 -0.4957
 6844TIP3    H220472   5.607   1.355   5.185  3.5124  0.3527 -0.1579
 6845TIP3   OH220473   6.141   1.758   6.391  0.4977 -0.4289 -0.2481
 6845TIP3    H120474   6.053   1.796   6.400  0.0744 -1.1105 -1.3565
 6845TIP3    H220475   6.200   1.828   6.419 -0.2393  1.2225 -2.6840
 6846TIP3   OH220476   7.790   2.800   6.697  0.0714  0.1461 -0.3187
 6846TIP3    H120477   7.823   2.855   6.625 -0.7539 -0.8965 -1.5132
 6846TIP3    H220478   7.767   2.717   6.655  0.1559 -0.6930  1.2676
 6847TIP3   OH220479   2.616   7.892   4.438 -0.1077  0.5368  0.3901
 6847TIP3    H120480   2.557   7.909   4.365  1.6423 -0.2743 -1.2542
 6847TIP3    H220481   2.661   7.811   4.414 -0.1048 -0.2078  2.7747
 6848TIP3   OH220482   5.016   1.654   6.053  0.3966  0.5094 -0.3170
 6848TIP3    H120483   5.089   1.713   6.071  1.2888 -0.2092 -1.5986
 6848TIP3    H220484   5.056   1.572   6.025 -0.8881  0.3721 -1.8595
 6849TIP3   OH220485   5.643   1.760   4.172 -0.2337 -0.4547  0.0787
 6849TIP3    H120486   5.592   1.833   4.138  1.9684  1.4735  0.7304
 6849TIP3    H220487   5.648   1.698   4.099 -1.3228  0.4755 -0.8098
 6850TIP3   OH220488   5.726   3.414   2.105  0.0334 -0.4771  0.2026
 6850TIP3    H120489   5.640   3.430   2.144  0.8054  0.8616  1.4154
 6850TIP3    H220490   5.725   3.464   2.023  0.9311  2.6510  1.9821
 6851TIP3   OH220491   7.288   0.349   4.586 -0.3746  0.2110  0.0389
 6851TIP3    H120492   7.258   0.439   4.568  2.8943  1.3717 -0.0302
 6851TIP3    H220493   7.299   0.346   4.681 -1.4679 -0.4765  0.1512
 6852TIP3   OH220494   5.958   3.254   3.441  0.2773  0.3592 -0.5710
 6852TIP3    H120495   5.899   3.305   3.496 -1.1710 -1.1334 -0.7158
 6852TIP3    H220496   6.031   3.313   3.423  0.5949  1.0162  2.6073
 6853TIP3   OH220497   6.769   3.383   4.866  0.3086 -0.0780 -0.1527
 6853TIP3    H120498   6.692   3.391   4.922 -0.6696  0.2699 -1.5236
 6853TIP3    H220499   6.772   3.465   4.818  2.6151  0.6745  1.2113
 6854TIP3   OH220500   5.798   3.700   3.571 -0.2473 -0.4467 -0.3815
 6854TIP3    H120501   5.718   3.752   3.578  0.9472  1.2354  1.6643
 6854TIP3    H220502   5.846   3.741   3.499  0.5729  1.1772  1.0564
 6855TIP3   OH220503   6.348   3.213   2.999 -0.3211 -0.7945 -0.2429
 6855TIP3    H120504   6.417   3.202   3.064  0.1923  1.4025 -0.3662
 6855TIP3    H220505   6.284   3.144   3.019  2.0580 -3.1047 -0.3671
 6856TIP3   OH220506   6.776   1.717   6.584  0.6651 -1.0555 -0.1129
 6856TIP3    H120507   6.867   1.740   6.570  0.8267 -1.2685  0.5894
 6856TIP3    H220508   6.775   1.667   6.666  0.2322 -2.9234 -1.2204
 6857TIP3   OH220509   4.862   2.318   3.235 -0.6991 -0.1009 -0.1110
 6857TIP3    H120510   4.926   2.264   3.281  0.3553  0.3704 -0.9794
 6857TIP3    H220511   4.906   2.403   3.225 -1.7475  0.4541 -0.0837
 6858TIP3   OH220512   6.914   2.962   3.092  0.5954 -0.2927  0.5442
 6858TIP3    H120513   6.935   3.055   3.089  1.7234 -0.5781 -1.3353
 6858TIP3    H220514   6.999   2.918   3.095  0.1532 -1.3050 -0.9915
 6859TIP3   OH220515   5.490   3.783   3.286  0.3700 -0.2809 -0.2943
 6859TIP3    H120516   5.479   3.702   3.336  0.0371 -0.0674 -0.0208
 6859TIP3    H220517   5.568   3.767   3.233 -0.0798 -1.0341 -0.7393
 6860TIP3   OH220518   5.691   5.540   3.657 -0.2148  0.0119 -0.2888
 6860TIP3    H120519   5.715   5.622   3.615 -1.2906  0.7893  0.5743
 6860TIP3    H220520   5.641   5.492   3.591 -0.2398  0.3862 -0.5385
 6861TIP3   OH220521   6.141   2.922   2.248 -0.7620 -0.2084  0.8758
 6861TIP3    H120522   6.087   2.986   2.295  1.4382  0.6892  2.2576
 6861TIP3    H220523   6.194   2.975   2.188  0.5771 -0.8012  1.5211
 6862TIP3   OH220524   7.170   3.946   2.032 -0.8309  0.1273  0.7426
 6862TIP3    H120525   7.248   3.990   1.996 -0.2647 -0.0594  1.7220
 6862TIP3    H220526   7.115   3.929   1.956  0.5078 -0.5716 -0.0903
 6863TIP3   OH220527   7.110   3.956   2.466  0.1558  0.4689 -0.1681
 6863TIP3    H120528   7.106   4.052   2.473  2.8499  0.4548  2.9003
 6863TIP3    H220529   7.059   3.925   2.541  1.3191 -0.4493  0.2553
 6864TIP3   OH220530   6.435   1.085   5.231  0.1460 -0.3480 -0.3010
 6864TIP3    H120531   6.480   1.012   5.275  0.5798  0.9843  1.5611
 6864TIP3    H220532   6.490   1.106   5.156  0.1892 -1.7100 -0.6637
 6865TIP3   OH220533   7.395   2.668   4.311 -0.0652 -0.1709 -0.3036
 6865TIP3    H120534   7.303   2.692   4.313 -0.0922 -0.2784 -0.2812
 6865TIP3    H220535   7.419   2.673   4.219 -0.4969 -1.6922 -0.5071
 6866TIP3   OH220536   5.793   2.070   4.965 -0.1555 -0.3350  0.4327
 6866TIP3    H120537   5.798   2.071   4.869  1.5222  2.0849  0.4874
 6866TIP3    H220538   5.868   2.017   4.992 -0.8727 -1.3680  0.4047
 6867TIP3   OH220539   6.446   1.931   3.146  0.2067  0.2452  0.0428
 6867TIP3    H120540   6.378   1.918   3.080  0.3474  0.8950 -0.2281
 6867TIP3    H220541   6.478   2.020   3.131  1.1259 -0.0583  0.1576
 6868TIP3   OH220542   6.691   2.847   4.920  0.4308  0.3905 -0.6040
 6868TIP3    H120543   6.749   2.916   4.888 -2.0233  1.6116 -2.5940
 6868TIP3    H220544   6.623   2.894   4.969 -0.6004 -0.7149 -0.9587
 6869TIP3   OH220545   4.425   1.806   5.990 -0.1445  0.2083  0.2987
 6869TIP3    H120546   4.339   1.779   5.958  0.4968 -1.5451 -0.0553
 6869TIP3    H220547   4.453   1.874   5.930 -0.0671 -1.2266 -1.3287
 6870TIP3   OH220548   0.063   3.592   3.613  0.3369  0.1366 -0.0153
 6870TIP3    H120549   0.107   3.613   3.696  0.9246 -1.6090  0.1397
 6870TIP3    H220550   0.100   3.507   3.588 -1.0256 -0.1003 -1.2444
 6871TIP3   OH220551   0.117   2.395   2.982 -0.8300  0.0440 -0.7646
 6871TIP3    H120552   0.158   2.423   2.900 -2.1638  0.4114 -1.3203
 6871TIP3    H220553   0.105   2.476   3.032 -0.2387 -0.1497 -0.3102
 6872TIP3   OH220554   4.339   2.326   2.887 -0.0063  0.1842  0.2400
 6872TIP3    H120555   4.339   2.238   2.923  2.3493 -0.2175 -0.6788
 6872TIP3    H220556   4.351   2.383   2.963  2.7883 -0.5405  0.3691
 6873TIP3   OH220557   6.696   3.173   4.722 -0.0236  0.4641  0.0067
 6873TIP3    H120558   6.604   3.197   4.710 -0.3042  0.0231  1.2615
 6873TIP3    H220559   6.732   3.243   4.777  0.3532  0.5257 -0.3119
 6874TIP3   OH220560   6.730   1.827   4.703  0.4780  0.5070 -0.1126
 6874TIP3    H120561   6.816   1.860   4.729  0.4659  0.6589 -0.2699
 6874TIP3    H220562   6.676   1.835   4.781  1.1616 -1.4759  0.5835
 6875TIP3   OH220563  -0.011   2.250   3.174  0.2644 -0.5093  0.3611
 6875TIP3    H120564   0.042   2.288   3.104 -2.5745 -0.3444 -1.7548
 6875TIP3    H220565   0.009   2.304   3.250  1.8115  0.6247 -0.8108
 6876TIP3   OH220566   8.394   1.424   2.522 -0.0987 -0.4404 -0.1947
 6876TIP3    H120567   8.342   1.444   2.444  1.9983  0.6402 -1.3358
 6876TIP3    H220568   8.334   1.440   2.595 -1.5090  0.3383 -1.4984
 6877TIP3   OH220569   6.178   0.950   5.280 -0.1391 -0.1350  0.0996
 6877TIP3    H120570   6.216   0.874   5.324 -0.0465 -0.4246 -0.4843
 6877TIP3    H220571   6.245   0.979   5.219 -0.7994 -0.5664 -0.8364
 6878TIP3   OH220572   6.788   4.160   3.023 -0.1184  0.5575 -0.2548
 6878TIP3    H120573   6.792   4.251   3.053  1.4002  0.2134  0.6931
 6878TIP3    H220574   6.853   4.114   3.078 -1.6620 -1.3206  0.0690
 6879TIP3   OH220575   6.018   5.341   4.024 -0.4533  0.5622 -0.4175
 6879TIP3    H120576   6.009   5.310   3.934 -0.7679 -2.3116  0.5560
 6879TIP3    H220577   5.930   5.332   4.061 -1.0882  4.6887 -0.6559
 6880TIP3   OH220578   4.601   0.995   4.771  0.2530  0.3321 -0.0901
 6880TIP3    H120579   4.597   0.918   4.827 -1.0803  1.2625  1.1360
 6880TIP3    H220580   4.524   0.989   4.715  0.8364  0.1318 -0.8934
 6881TIP3   OH220581   6.955   4.532   2.181 -0.2793  0.5318  0.2014
 6881TIP3    H120582   6.871   4.498   2.211  0.6094 -1.0600  0.9884
 6881TIP3    H220583   6.943   4.547   2.087 -1.1635 -0.6153  0.1236
 6882TIP3   OH220584   6.505   0.693   4.186  0.2144  0.0701 -0.0449
 6882TIP3    H120585   6.508   0.610   4.235  1.2422  0.0853 -0.0721
 6882TIP3    H220586   6.436   0.743   4.230 -0.1146 -0.6230  0.2537
 6883TIP3   OH220587   6.156   1.850   3.731  0.1359  0.1103  0.3054
 6883TIP3    H120588   6.231   1.886   3.778  0.6873  0.2470 -0.6641
 6883TIP3    H220589   6.194   1.796   3.662 -0.6522  0.3815 -0.3577
 6884TIP3   OH220590   6.601   2.088   5.127  0.0226  0.0975  0.3092
 6884TIP3    H120591   6.601   2.042   5.211  0.2839  0.5346  0.5536
 6884TIP3    H220592   6.681   2.140   5.128 -0.2736  0.5693  0.0533
 6885TIP3   OH220593   5.609   2.714   6.234  0.3912  0.2202  0.5049
 6885TIP3    H120594   5.524   2.727   6.275 -0.3680 -2.0298 -0.3066
 6885TIP3    H220595   5.644   2.635   6.275  0.4025 -1.0403 -1.8470
 6886TIP3   OH220596   5.398   2.608   2.666 -0.2330 -0.4498 -0.3857
 6886TIP3    H120597   5.433   2.633   2.752 -2.1143  1.3535 -0.1050
 6886TIP3    H220598   5.426   2.679   2.607 -0.8336 -0.5440 -0.7852
 6887TIP3   OH220599   6.130   2.154   4.103 -0.3152 -0.4410  0.3964
 6887TIP3    H120600   6.170   2.097   4.169  0.3783 -1.7345 -1.1118
 6887TIP3    H220601   6.048   2.111   4.079  0.2811 -0.9093 -0.8551
 6888TIP3   OH220602   6.844   5.069   2.915 -0.3225 -0.0982 -0.4143
 6888TIP3    H120603   6.804   5.152   2.891 -1.3831 -0.6821 -0.7141
 6888TIP3    H220604   6.777   5.023   2.966 -0.0491 -1.1134 -0.9500
 6889TIP3   OH220605   6.032   4.158   2.925  0.0569 -0.0073  0.7190
 6889TIP3    H120606   6.090   4.149   2.849 -0.2884 -0.4274  0.5046
 6889TIP3    H220607   6.076   4.107   2.994 -0.8713 -1.7220  0.0841
 6890TIP3   OH220608   6.689   4.033   4.258  0.0286  0.2882  0.2360
 6890TIP3    H120609   6.726   4.121   4.247 -2.4322  1.3132 -0.1628
 6890TIP3    H220610   6.666   4.006   4.169  0.6422 -0.7194  0.3761
 6891TIP3   OH220611   7.121   1.500   5.614  0.4243  0.5409  0.1865
 6891TIP3    H120612   7.117   1.448   5.534  0.6025  0.6456  0.1085
 6891TIP3    H220613   7.096   1.588   5.587  3.9169  1.4017 -0.4890
 6892TIP3   OH220614   5.067   2.649   4.098  0.1338  0.0759 -0.1640
 6892TIP3    H120615   5.112   2.597   4.165  0.8134  0.7673 -0.0799
 6892TIP3    H220616   5.016   2.713   4.147 -0.3819 -0.2487 -0.2761
 6893TIP3   OH220617   7.516   4.878   2.205 -0.3193  0.2624 -0.4607
 6893TIP3    H120618   7.565   4.845   2.130  1.2689 -0.1393  0.7356
 6893TIP3    H220619   7.531   4.813   2.274 -1.7024  0.6564  0.2409
 6894TIP3   OH220620   2.933   6.650   0.031  0.0733  0.3210 -0.3258
 6894TIP3    H120621   3.013   6.610   0.065  0.4982  0.3759 -1.2298
 6894TIP3    H220622   2.899   6.585  -0.031 -2.1016 -0.9343  2.0676
 6895TIP3   OH220623   6.261   2.649   3.555 -0.3784  0.1847  0.2196
 6895TIP3    H120624   6.165   2.646   3.551 -0.3002  0.0670 -3.9765
 6895TIP3    H220625   6.287   2.561   3.579 -1.2712 -0.3482 -0.7265
 6896TIP3   OH220626   4.830   2.285   4.986 -0.4341 -0.3139 -0.1583
 6896TIP3    H120627   4.850   2.374   5.017 -1.4644 -0.3474  0.6377
 6896TIP3    H220628   4.915   2.248   4.964  0.0839  0.6138  0.2167
 6897TIP3   OH220629   5.186   1.576   5.378  0.4433 -0.4195 -0.2329
 6897TIP3    H120630   5.221   1.491   5.407 -0.6977 -0.2873  1.5746
 6897TIP3    H220631   5.182   1.568   5.283  1.2757 -2.0346 -0.1565
 6898TIP3   OH220632   8.408   1.890   3.797  0.1810 -0.6905  0.0881
 6898TIP3    H120633   8.364   1.840   3.866  0.7055 -2.3695 -0.7899
 6898TIP3    H220634   8.490   1.843   3.782  1.3783  1.2875  0.2998
 6899TIP3   OH220635   6.963   6.717   0.557  0.3966 -0.2785  0.4676
 6899TIP3    H120636   7.046   6.670   0.566  1.1595  0.7833 -0.8502
 6899TIP3    H220637   6.915   6.695   0.637  1.9524 -0.8771  1.2725
 6900TIP3   OH220638   5.327   2.669   5.283 -0.5241  0.1380 -0.1146
 6900TIP3    H120639   5.299   2.598   5.341  1.5880 -0.1239  0.6188
 6900TIP3    H220640   5.330   2.630   5.196  2.6892 -1.3227  0.5805
 6901TIP3   OH220641   5.052   3.034   5.522 -0.1451  0.0043  0.0261
 6901TIP3    H120642   5.052   2.948   5.479  0.9056  1.0098 -2.0612
 6901TIP3    H220643   5.047   3.097   5.450  0.5267  1.7238  1.4444
 6902TIP3   OH220644   4.747   1.992   5.931 -0.5407  0.6432  0.4659
 6902TIP3    H120645   4.728   2.062   5.993 -1.4489 -0.3006  1.2781
 6902TIP3    H220646   4.668   1.985   5.877 -0.4622  0.2307  0.3986
 6903TIP3   OH220647   7.219   2.269   1.996 -0.2503  0.1178  0.4939
 6903TIP3    H120648   7.162   2.198   1.967  0.7885  0.5564 -2.7469
 6903TIP3    H220649   7.262   2.234   2.074 -1.0440 -2.1635 -0.0429
 6904TIP3   OH220650   4.888   1.343   5.630 -0.5183  0.0438  0.3487
 6904TIP3    H120651   4.897   1.312   5.539  1.3419 -0.7583  0.7690
 6904TIP3    H220652   4.923   1.432   5.628  0.5029 -0.3425  0.4609
 6905TIP3   OH220653   7.954   3.440   2.497 -0.0861 -0.2453 -0.2273
 6905TIP3    H120654   7.964   3.442   2.592 -0.9443 -1.3947 -0.1030
 6905TIP3    H220655   8.011   3.369   2.468  0.4216  0.3161 -0.6063
 6906TIP3   OH220656   5.582   2.189   5.709 -0.4958 -0.8910 -0.0420
 6906TIP3    H120657   5.625   2.255   5.763 -1.6409  0.8282 -1.1742
 6906TIP3    H220658   5.488   2.205   5.722 -0.7875 -1.0570 -1.7978
 6907TIP3   OH220659   6.979   3.657   4.238 -0.4887  0.1193 -0.1130
 6907TIP3    H120660   6.910   3.596   4.214 -0.0619 -0.4732  0.1544
 6907TIP3    H220661   6.937   3.722   4.294 -0.9926  0.2058 -0.5833
 6908TIP3   OH220662   7.795   2.704   5.916  0.4992 -0.1399  1.1935
 6908TIP3    H120663   7.730   2.704   5.986  0.6192  0.4234  1.3112
 6908TIP3    H220664   7.878   2.726   5.960  1.1254 -2.6040  1.3466
 6909TIP3   OH220665   7.179   3.506   3.509 -0.0048 -0.2503 -0.0179
 6909TIP3    H120666   7.240   3.432   3.507  0.6882  0.3020  0.5874
 6909TIP3    H220667   7.196   3.553   3.427  0.0263 -0.3810 -0.0865
 6910TIP3   OH220668   7.189   3.127   5.595 -0.2818  0.5057  0.3576
 6910TIP3    H120669   7.177   3.057   5.531  0.5720 -0.2038  0.9722
 6910TIP3    H220670   7.222   3.083   5.673 -1.7229  1.2991  1.4422
 6911TIP3   OH220671   7.330   3.388   3.999 -0.5840 -0.3221 -0.7913
 6911TIP3    H120672   7.261   3.453   4.011 -0.4766 -0.2015 -0.8159
 6911TIP3    H220673   7.395   3.432   3.944  0.2923  0.1654  0.5995
 6912TIP3   OH220674   7.034   1.323   3.280  0.1024  0.0632  0.9021
 6912TIP3    H120675   7.098   1.300   3.214 -0.9260 -0.0959 -0.0464
 6912TIP3    H220676   7.067   1.405   3.318  0.2563  0.6109 -0.4014
 6913TIP3   OH220677   4.675   0.040   5.210 -0.0015 -0.4068  0.0959
 6913TIP3    H120678   4.750   0.078   5.257 -0.2746  1.2373 -0.7521
 6913TIP3    H220679   4.679  -0.053   5.230  1.0027 -0.0073  1.8252
 6914TIP3   OH220680   5.842   2.266   3.537 -0.0860 -0.3400 -0.2309
 6914TIP3    H120681   5.759   2.279   3.581 -0.3387  0.6873 -0.9858
 6914TIP3    H220682   5.905   2.249   3.608 -0.2950  2.2134  0.6506
 6915TIP3   OH220683   8.079   2.904   4.475  0.0596 -0.4110 -0.5119
 6915TIP3    H120684   7.991   2.938   4.456 -0.6757  0.1492  3.5339
 6915TIP3    H220685   8.137   2.957   4.421 -2.0324 -0.6495 -3.0939
 6916TIP3   OH220686   7.350   2.783   2.812 -0.2644  0.3231  0.5270
 6916TIP3    H120687   7.340   2.743   2.899 -0.6267 -1.5583 -0.3546
 6916TIP3    H220688   7.388   2.713   2.758 -1.5054  0.9663 -1.2136
 6917TIP3   OH220689   6.531   1.753   5.276  0.4691 -0.7248  0.2087
 6917TIP3    H120690   6.450   1.804   5.283  1.0726  0.5930 -1.9568
 6917TIP3    H220691   6.599   1.818   5.259  1.7713 -1.9728  0.5276
 6918TIP3   OH220692   5.616   0.789   6.631  0.2222 -0.4404 -0.5499
 6918TIP3    H120693   5.600   0.755   6.543  2.0797  0.5385 -1.2933
 6918TIP3    H220694   5.536   0.837   6.654 -0.0443 -0.2085 -1.9523
 6919TIP3   OH220695   6.119   2.574   4.687  0.3230  0.1100 -0.5411
 6919TIP3    H120696   6.080   2.602   4.605  0.8636  0.5387 -0.6545
 6919TIP3    H220697   6.125   2.479   4.680  0.8133  0.1912 -1.1886
 6920TIP3   OH220698   1.599   7.115   0.468 -0.2780 -0.0490 -0.3240
 6920TIP3    H120699   1.634   7.028   0.484  1.7475  0.7189 -0.4437
 6920TIP3    H220700   1.545   7.134   0.545 -0.1382 -1.1228  0.0385
 6921TIP3   OH220701   5.425   1.216   6.658  0.6795 -0.1365 -0.0918
 6921TIP3    H120702   5.511   1.232   6.696  0.1477  2.7697  0.0109
 6921TIP3    H220703   5.365   1.268   6.711 -1.1857 -2.2611 -0.0463
 6922TIP3   OH220704   7.467   4.881   6.630  0.7071 -0.7098 -0.5875
 6922TIP3    H120705   7.418   4.849   6.706  2.0223 -0.1900  0.4885
 6922TIP3    H220706   7.466   4.976   6.640  2.8895 -0.7376  0.0514
 6923TIP3   OH220707   7.621   1.882   5.951 -0.9214  0.6584 -0.1224
 6923TIP3    H120708   7.646   1.806   5.898 -1.0421  1.0565 -0.7434
 6923TIP3    H220709   7.703   1.928   5.968 -0.9998  1.0259 -0.7242
 6924TIP3   OH220710   8.174   1.896   5.992  0.0950  0.4271 -0.0312
 6924TIP3    H120711   8.232   1.897   6.068  0.0651 -0.5063  0.0123
 6924TIP3    H220712   8.210   1.827   5.936 -0.6225  0.2520 -0.2787
 6925TIP3   OH220713   0.874   1.188   4.184  0.5190 -0.3872 -0.2029
 6925TIP3    H120714   0.822   1.193   4.103  0.2852 -1.4333 -0.1297
 6925TIP3    H220715   0.869   1.096   4.209  2.5988 -0.5378 -0.3195
 6926TIP3   OH220716   8.095   2.574   6.026 -0.0255  0.0623 -0.3899
 6926TIP3    H120717   8.133   2.645   6.077 -1.1099 -0.2904  0.9562
 6926TIP3    H220718   8.167   2.513   6.011  0.8421  1.2911 -1.3155
 6927TIP3   OH220719   7.195   2.582   5.569 -1.0542 -0.3502 -0.2421
 6927TIP3    H120720   7.154   2.598   5.484 -0.7552 -1.6968 -0.6453
 6927TIP3    H220721   7.286   2.560   5.549 -0.7031  0.3764  0.5027
 6928TIP3   OH220722   6.337   1.926   4.943  0.3328 -1.0008 -0.2771
 6928TIP3    H120723   6.337   1.995   5.010  2.1960 -0.7110 -0.5235
 6928TIP3    H220724   6.358   1.973   4.862 -0.4373 -1.5681 -0.8054
 6929TIP3   OH220725   4.586   2.820   6.104 -0.6839 -0.1399  0.0583
 6929TIP3    H120726   4.589   2.908   6.141  0.4876  0.1492 -0.6789
 6929TIP3    H220727   4.516   2.824   6.039  0.7885  0.8856 -1.4977
 6930TIP3   OH220728   5.238   2.669   3.451  0.1127 -0.1459  0.3104
 6930TIP3    H120729   5.310   2.610   3.474  0.9474  0.8185  0.1998
 6930TIP3    H220730   5.171   2.652   3.517 -0.0251 -1.8591 -0.2387
 6931TIP3   OH220731   5.270   3.307   3.082 -0.1973  1.0811  0.1846
 6931TIP3    H120732   5.327   3.253   3.137 -0.4878 -0.7169 -1.2367
 6931TIP3    H220733   5.313   3.309   2.997 -0.7661  2.1618 -0.0888
 6932TIP3   OH220734   5.692   2.978   3.657  0.2868 -0.1951 -0.0417
 6932TIP3    H120735   5.725   3.041   3.721 -1.5130  0.9717 -0.2289
 6932TIP3    H220736   5.602   3.005   3.640 -0.2087 -2.2345 -0.8789
 6933TIP3   OH220737   6.527   3.413   2.662  0.3604  0.3395 -0.5222
 6933TIP3    H120738   6.452   3.355   2.667  0.5922  0.1309  0.6222
 6933TIP3    H220739   6.603   3.356   2.674  0.5035  1.1405  2.9587
 6934TIP3   OH220740   5.411   4.725   3.243  0.5725  0.3111  0.3655
 6934TIP3    H120741   5.469   4.685   3.308  0.9411 -0.9934 -0.7449
 6934TIP3    H220742   5.434   4.682   3.161 -0.5657  1.2472 -0.4528
 6935TIP3   OH220743   7.048   3.766   2.671 -0.1173  0.4260 -0.4984
 6935TIP3    H120744   7.129   3.754   2.721 -1.0618  2.9399  1.7516
 6935TIP3    H220745   7.028   3.679   2.637  1.8962 -0.8667  1.4609
 6936TIP3   OH220746   6.024   1.752   5.526  0.4429  0.0799  0.1183
 6936TIP3    H120747   6.077   1.674   5.509  1.6199  0.8997 -0.0272
 6936TIP3    H220748   6.026   1.762   5.622  0.1095 -0.1840  0.1558
 6937TIP3   OH220749   7.204   3.007   2.735  0.3939  0.2005 -0.5436
 6937TIP3    H120750   7.246   3.071   2.793  0.9574 -0.1137 -0.6039
 6937TIP3    H220751   7.267   2.935   2.729 -0.4274 -0.5544 -0.1340
 6938TIP3   OH220752   7.826   1.615   3.472 -0.3660  0.7115 -0.0859
 6938TIP3    H120753   7.894   1.567   3.425 -1.0175  0.1013 -0.4198
 6938TIP3    H220754   7.818   1.698   3.425 -0.0009  0.6936 -0.1776
 6939TIP3   OH220755   7.074   2.735   2.804 -0.8390 -0.0658 -0.0321
 6939TIP3    H120756   7.133   2.776   2.867  0.1991 -3.3934  1.2334
 6939TIP3    H220757   7.113   2.754   2.719 -0.3091  1.3874  0.5154
 6940TIP3   OH220758   7.642   4.257   4.658 -0.3992 -0.2464 -0.2301
 6940TIP3    H120759   7.597   4.232   4.577 -0.0943 -3.6040  0.5781
 6940TIP3    H220760   7.593   4.212   4.727  1.0480  0.2947  1.1670
 6941TIP3   OH220761   7.386   4.232   0.603  0.2064 -0.4254  0.0017
 6941TIP3    H120762   7.453   4.218   0.671  0.2766  0.5111  0.1323
 6941TIP3    H220763   7.383   4.149   0.555  0.7302 -0.8229  0.6444
 6942TIP3   OH220764   7.547   2.929   4.420  0.3901 -0.3768  0.9956
 6942TIP3    H120765   7.496   2.955   4.497  0.8460  0.3459  1.0587
 6942TIP3    H220766   7.497   2.858   4.381 -2.1295  2.1515 -0.5336
 6943TIP3   OH220767   5.700   2.682   4.763  0.1161 -0.0098 -0.7721
 6943TIP3    H120768   5.736   2.706   4.849 -0.3696  0.4838 -0.7064
 6943TIP3    H220769   5.608   2.662   4.780  0.0301  0.0520 -1.1717
 6944TIP3   OH220770   7.138   3.789   4.792 -0.4585  0.0250  0.0274
 6944TIP3    H120771   7.223   3.762   4.757 -0.0952  1.2511 -0.0630
 6944TIP3    H220772   7.094   3.707   4.814  0.8020 -0.6137  0.2178
 6945TIP3   OH220773   6.914   1.898   6.333  0.3547  0.0363  0.4897
 6945TIP3    H120774   6.973   1.945   6.274 -0.6772 -0.6574 -1.1447
 6945TIP3    H220775   6.926   1.806   6.309  0.7463 -0.3697  2.1547
 6946TIP3   OH220776   3.442   6.436   1.033 -0.2332 -0.1048 -0.2202
 6946TIP3    H120777   3.466   6.343   1.033  0.4168  0.0471 -1.3939
 6946TIP3    H220778   3.472   6.468   0.948 -0.2504  1.2342  0.2635
 6947TIP3   OH220779   5.838  -0.009   2.133  0.0874  0.1895  0.0062
 6947TIP3    H120780   5.933  -0.002   2.138  0.2208 -1.4421 -0.1245
 6947TIP3    H220781   5.815   0.028   2.048  0.8069 -1.2698 -0.8425
 6948TIP3   OH220782   6.993   2.037   5.298  0.0802  0.1078 -0.0861
 6948TIP3    H120783   7.057   2.046   5.369 -0.5881 -0.2657  0.5761
 6948TIP3    H220784   7.011   1.950   5.261 -0.4996 -0.2943  0.5644
 6949TIP3   OH220785   1.258   2.301   4.296  0.2479  0.4611  1.0589
 6949TIP3    H120786   1.187   2.237   4.303  0.8829 -0.1898  1.6774
 6949TIP3    H220787   1.312   2.268   4.224 -0.4347  1.3228  0.1400
 6950TIP3   OH220788   6.477   1.205   4.803  0.2050  0.5047  0.2097
 6950TIP3    H120789   6.461   1.124   4.754  1.6121 -0.7621  1.7416
 6950TIP3    H220790   6.505   1.268   4.738 -1.9282  0.0619 -1.1671
 6951TIP3   OH220791   5.561   2.015   6.175 -0.4229  0.2401 -0.1236
 6951TIP3    H120792   5.531   1.998   6.086  0.4476 -2.2879  0.0349
 6951TIP3    H220793   5.652   1.987   6.177 -0.9525 -1.5359  2.0246
 6952TIP3   OH220794   0.455   1.493   4.211  0.2860 -0.3647 -0.2520
 6952TIP3    H120795   0.416   1.535   4.288  0.2680  0.6036 -0.7770
 6952TIP3    H220796   0.536   1.455   4.243 -1.4018 -3.0158  1.0126
 6953TIP3   OH220797   5.249   0.636   3.692  0.4205  0.0107 -0.0158
 6953TIP3    H120798   5.273   0.728   3.708  1.4967 -0.4492  1.1226
 6953TIP3    H220799   5.221   0.604   3.778 -0.4891 -0.5832 -0.5312
 6954TIP3   OH220800   4.424   7.570   6.147 -0.1638 -0.0931 -0.1704
 6954TIP3    H120801   4.400   7.589   6.057 -1.6506  0.7028  0.3732
 6954TIP3    H220802   4.483   7.641   6.172  2.2065 -1.6105 -1.2512
 6955TIP3   OH220803   6.374   4.483   1.904  0.0976  0.2772 -0.2924
 6955TIP3    H120804   6.280   4.473   1.889  0.6875 -1.0246 -3.4133
 6955TIP3    H220805   6.392   4.574   1.879  0.0777 -0.2227 -2.2223
 6956TIP3   OH220806   8.049   3.162   3.517 -0.1427 -0.4786 -0.1908
 6956TIP3    H120807   8.112   3.120   3.576  0.8702 -0.3735 -1.1692
 6956TIP3    H220808   8.104   3.205   3.451 -1.2571 -1.8290 -2.0491
 6957TIP3   OH220809   0.642   1.822   5.131 -0.3628  0.4251 -0.0890
 6957TIP3    H120810   0.671   1.906   5.097 -0.4631  0.2904 -0.5081
 6957TIP3    H220811   0.553   1.839   5.163 -0.0232  0.7095  0.7130
 6958TIP3   OH220812   5.477   2.142   3.261  0.3436  0.1645 -0.1737
 6958TIP3    H120813   5.474   2.229   3.221  0.1257  0.4161  0.3912
 6958TIP3    H220814   5.564   2.109   3.239  0.4218  0.5173 -0.4010
 6959TIP3   OH220815   6.610   3.693   2.666 -0.1072  0.5745  0.3917
 6959TIP3    H120816   6.546   3.727   2.604 -0.8724 -0.4861  0.5947
 6959TIP3    H220817   6.584   3.603   2.681  1.7967 -0.0775 -0.0068
 6960TIP3   OH220818   2.844   1.990   3.577 -0.1774 -0.2529  0.1895
 6960TIP3    H120819   2.748   1.993   3.578 -0.1474  1.8186  0.2278
 6960TIP3    H220820   2.865   1.921   3.515 -1.7146  0.2387 -0.9212
 6961TIP3   OH220821   6.297   3.166   3.872  0.2362 -0.3223 -0.7217
 6961TIP3    H120822   6.231   3.124   3.927 -0.9731  1.1486 -1.0206
 6961TIP3    H220823   6.358   3.096   3.850  1.4424 -0.7507  3.4541
 6962TIP3   OH220824   6.135   1.410   3.748 -0.3575  0.2514  0.6851
 6962TIP3    H120825   6.193   1.416   3.672  0.3166  0.0941  1.1860
 6962TIP3    H220826   6.084   1.330   3.733 -0.5530  0.4651  0.1778
 6963TIP3   OH220827   5.535   2.946   4.229 -0.1628  0.0686  0.0589
 6963TIP3    H120828   5.461   2.912   4.279 -0.4832  1.3372  0.4679
 6963TIP3    H220829   5.550   3.034   4.264  0.9999  0.1489 -0.5975
 6964TIP3   OH220830   7.934   3.894   4.238 -0.2562  0.1033  0.5627
 6964TIP3    H120831   7.945   3.986   4.212 -0.2036  0.5374  2.0474
 6964TIP3    H220832   7.898   3.851   4.161 -0.4100  1.4066 -0.1066
 6965TIP3   OH220833   7.044   2.253   4.290  0.1353 -0.7164  0.1917
 6965TIP3    H120834   6.989   2.174   4.289 -0.8825 -0.0173 -1.6138
 6965TIP3    H220835   6.984   2.324   4.313  0.6806 -0.2182  0.0708
 6966TIP3   OH220836   7.917   2.554   4.652 -0.4569  0.5582  0.1836
 6966TIP3    H120837   7.890   2.616   4.719 -1.3149  0.4076 -0.0167
 6966TIP3    H220838   7.886   2.469   4.684  1.1076  0.1563  0.6836
 6967TIP3   OH220839   5.370   4.593   2.918 -0.3859  0.0139  0.6008
 6967TIP3    H120840   5.453   4.548   2.902 -0.4379  0.3873 -0.7346
 6967TIP3    H220841   5.368   4.664   2.854 -1.6141  0.1826  0.8089
 6968TIP3   OH220842   6.424   3.248   1.028  0.7601  0.0431  0.1195
 6968TIP3    H120843   6.506   3.295   1.013 -0.6645  2.5050 -0.2413
 6968TIP3    H220844   6.394   3.224   0.940  0.9826 -0.7082  0.2416
 6969TIP3   OH220845   6.397   3.308   4.266 -0.3844 -0.1721  0.4531
 6969TIP3    H120846   6.475   3.306   4.322 -0.2107 -2.5715  0.1785
 6969TIP3    H220847   6.413   3.241   4.200 -1.9240  0.5244 -0.6523
 6970TIP3   OH220848   7.315   4.410   4.200 -0.1317 -0.0597 -0.4144
 6970TIP3    H120849   7.274   4.404   4.286  1.9496  0.2963  0.6580
 6970TIP3    H220850   7.275   4.340   4.149 -2.9290  1.0554  0.1555
 6971TIP3   OH220851   4.750   1.487   6.811  0.6112 -0.4433  0.0685
 6971TIP3    H120852   4.679   1.440   6.768  0.4822  0.8977 -1.2391
 6971TIP3    H220853   4.706   1.544   6.875  0.6904 -1.2812  0.8808
 6972TIP3   OH220854   6.424   3.815   5.137 -0.3753  0.4562 -0.0793
 6972TIP3    H120855   6.471   3.771   5.208 -1.0646 -0.4996 -0.2101
 6972TIP3    H220856   6.486   3.880   5.104  0.8363 -0.7294 -0.1822
 6973TIP3   OH220857   4.177   2.432   5.554  0.2706 -0.4939  0.2096
 6973TIP3    H120858   4.152   2.347   5.516 -0.1704  0.5577 -1.9218
 6973TIP3    H220859   4.097   2.483   5.552  0.9998  0.6399 -0.3702
 6974TIP3   OH220860   3.915   1.903   2.022  0.0395 -0.5637 -0.1286
 6974TIP3    H120861   3.849   1.902   2.091 -1.0401 -2.8906 -1.1173
 6974TIP3    H220862   3.956   1.817   2.027  1.0187 -0.1873 -1.3893
 6975TIP3   OH220863   7.548   1.910   5.215 -0.0926  0.7960  0.3981
 6975TIP3    H120864   7.482   1.853   5.175 -0.9631  0.6442  2.0385
 6975TIP3    H220865   7.624   1.853   5.227 -1.1472 -0.1969  2.5580
 6976TIP3   OH220866   7.243   3.626   2.798 -0.3216 -0.2119  0.1447
 6976TIP3    H120867   7.331   3.660   2.781 -1.0090  0.3407 -2.6693
 6976TIP3    H220868   7.254   3.531   2.794 -0.2208 -0.1429 -2.7904
 6977TIP3   OH220869   3.941   1.505   3.782  0.5213 -0.0690  0.2006
 6977TIP3    H120870   4.028   1.467   3.774  0.7727  0.4315  0.5849
 6977TIP3    H220871   3.911   1.480   3.869  0.7966  0.8390  0.5605
 6978TIP3   OH220872   3.541   0.704   3.929 -0.1712  0.1620 -0.1020
 6978TIP3    H120873   3.539   0.611   3.908 -0.4934  0.1191  0.1157
 6978TIP3    H220874   3.454   0.736   3.904  0.3176  0.6370 -1.2283
 6979TIP3   OH220875   7.616   2.247   2.683 -0.0747 -0.0242  0.5242
 6979TIP3    H120876   7.636   2.269   2.774 -0.6015  2.1160  0.1468
 6979TIP3    H220877   7.678   2.299   2.632  0.6907 -1.7460 -0.3540
 6980TIP3   OH220878   7.743   0.088   4.015  0.5435  0.1806  0.2828
 6980TIP3    H120879   7.661   0.043   3.996  0.1414  1.2192 -0.4417
 6980TIP3    H220880   7.780   0.109   3.929  0.5766  1.5064  0.6113
 6981TIP3   OH220881   4.485   1.897   3.945  0.0848 -0.1141 -0.3863
 6981TIP3    H120882   4.476   1.969   3.882  0.2186  0.6198  0.4279
 6981TIP3    H220883   4.396   1.875   3.970 -0.0667 -1.4455 -1.9764
 6982TIP3   OH220884   5.608   2.398   3.668  0.3639 -0.0764 -0.2570
 6982TIP3    H120885   5.617   2.424   3.760  0.5043 -0.4064 -0.1753
 6982TIP3    H220886   5.627   2.478   3.618 -1.9654  0.7039  0.0387
 6983TIP3   OH220887   5.700   3.485   3.158  0.1082  0.2015  0.0105
 6983TIP3    H120888   5.707   3.580   3.158  1.1006  0.1676  2.3659
 6983TIP3    H220889   5.647   3.465   3.235  0.7886 -1.2116  0.1311
 6984TIP3   OH220890   4.319   2.500   3.801  0.1763  0.2118 -0.3646
 6984TIP3    H120891   4.360   2.461   3.724 -1.7382 -0.9050 -0.8376
 6984TIP3    H220892   4.291   2.586   3.772 -0.2882 -0.0958 -0.8270
 6985TIP3   OH220893   8.182   2.967   4.082  0.4522  0.3473  0.2935
 6985TIP3    H120894   8.123   2.892   4.092  0.8945 -0.2146 -1.1502
 6985TIP3    H220895   8.266   2.929   4.058  0.5794  1.3287 -0.8710
 6986TIP3   OH220896   6.943   3.633   3.168 -0.1886  0.6058  0.6514
 6986TIP3    H120897   6.933   3.702   3.234  1.3797  1.0131  0.4804
 6986TIP3    H220898   6.856   3.594   3.161 -1.2267  2.8702  0.4136
 6987TIP3   OH220899   5.649   3.056   5.550  0.1020 -0.5241 -0.4345
 6987TIP3    H120900   5.610   2.970   5.538  1.4622 -1.3382  0.7957
 6987TIP3    H220901   5.633   3.077   5.642 -0.6385  0.7717 -0.8329
 6988TIP3   OH220902   7.261   1.105   5.501  0.3327 -0.2401  0.7096
 6988TIP3    H120903   7.190   1.042   5.514 -0.9271  0.8117 -0.8267
 6988TIP3    H220904   7.250   1.169   5.572  0.7845 -0.9968  1.4659
 6989TIP3   OH220905   5.190   2.626   3.154 -0.0635 -0.1660  0.5545
 6989TIP3    H120906   5.234   2.642   3.237  0.6841 -0.3005  0.1897
 6989TIP3    H220907   5.261   2.614   3.091 -0.5950 -3.0556  0.4519
 6990TIP3   OH220908   7.561   0.725   5.411 -0.1673 -0.2821 -0.7848
 6990TIP3    H120909   7.572   0.707   5.318 -1.4039  1.2631 -1.2500
 6990TIP3    H220910   7.468   0.710   5.428 -0.2172  0.7563 -0.1066
 6991TIP3   OH220911   7.103   3.155   4.064  0.0154  0.0120  0.1605
 6991TIP3    H120912   7.158   3.205   4.125  0.3353  0.1371 -0.2306
 6991TIP3    H220913   7.062   3.088   4.119 -0.1165  0.4614  0.6139
 6992TIP3   OH220914   0.499   1.867   4.476  0.2978 -0.5834 -0.7448
 6992TIP3    H120915   0.498   1.948   4.424 -0.5606  0.8347  1.3764
 6992TIP3    H220916   0.564   1.884   4.544 -0.2646 -1.4749  0.0213
 6993TIP3   OH220917   0.209   3.026   2.291  0.3155 -0.2034 -0.3987
 6993TIP3    H120918   0.218   3.032   2.387 -0.4057  0.2046 -0.3557
 6993TIP3    H220919   0.285   3.074   2.258  1.6080 -1.9537 -0.0405
 6994TIP3   OH220920   6.598   4.824   3.380 -0.7189  0.1170  0.6704
 6994TIP3    H120921   6.677   4.877   3.389 -1.1830  0.4290  3.3652
 6994TIP3    H220922   6.526   4.888   3.380 -1.1572 -0.3465  1.9507
 6995TIP3   OH220923   1.295   2.573   2.943  0.3239  0.1814 -0.6722
 6995TIP3    H120924   1.355   2.645   2.923 -0.0130 -0.2757 -3.6133
 6995TIP3    H220925   1.209   2.614   2.947  0.7279  0.7927  3.2751
 6996TIP3   OH220926   4.073   7.055   6.794 -0.2051  0.4370 -0.3988
 6996TIP3    H120927   4.034   7.014   6.717 -1.5322  0.1775  0.3901
 6996TIP3    H220928   4.124   7.128   6.759 -1.2054  0.6390 -1.4768
 6997TIP3   OH220929   7.442   0.971   4.490 -0.7385  0.0161 -0.1859
 6997TIP3    H120930   7.425   0.879   4.508 -0.9030 -0.0720 -0.7790
 6997TIP3    H220931   7.355   1.011   4.487 -0.7488 -0.0591 -1.2312
 6998TIP3   OH220932   1.054   3.896   3.180 -0.1764  0.0114  0.2866
 6998TIP3    H120933   1.015   3.814   3.208 -0.1863  0.7951  2.7015
 6998TIP3    H220934   0.991   3.933   3.118 -1.3621 -0.6458  1.0717
 6999TIP3   OH220935   7.701   5.850   2.863 -0.5381  0.0806  0.0430
 6999TIP3    H120936   7.784   5.812   2.835 -0.3228  0.2874  0.4003
 6999TIP3    H220937   7.673   5.905   2.790 -0.5954 -0.3606 -0.2686
 7000TIP3   OH220938   0.697   2.764   3.063  0.2104  0.8029  0.4298
 7000TIP3    H120939   0.734   2.683   3.097 -0.7776  0.2809  0.2640
 7000TIP3    H220940   0.753   2.787   2.989  0.0832 -0.1047  0.0406
 7001TIP3   OH220941  -0.002   3.210   3.701 -0.1123 -0.3690  0.0577
 7001TIP3    H120942   0.008   3.233   3.794 -1.8352 -0.0767  0.1879
 7001TIP3    H220943   0.047   3.279   3.655  2.2591 -1.5093  0.7901
 7002TIP3   OH220944   6.671   0.959   0.830  0.3684 -0.3427  0.1244
 7002TIP3    H120945   6.690   1.020   0.901 -0.2090 -1.7760  1.5567
 7002TIP3    H220946   6.756   0.942   0.789  1.1016 -1.3631  2.0329
 7003TIP3   OH220947   6.422   2.947   3.737  0.4534 -0.0132  0.0853
 7003TIP3    H120948   6.411   2.855   3.758  0.7282 -0.0862 -0.0875
 7003TIP3    H220949   6.488   2.948   3.667  2.0668  0.4539  1.5628
 7004TIP3   OH220950   0.128   1.975   2.441 -0.2000 -0.4587 -0.1388
 7004TIP3    H120951   0.180   1.903   2.404 -0.1446 -0.6132  0.2414
 7004TIP3    H220952   0.179   2.053   2.422  0.6914 -0.7155  1.1686
 7005TIP3   OH220953   0.125   5.771   2.565  0.4920  0.3119 -0.0959
 7005TIP3    H120954   0.171   5.847   2.601 -0.2174  1.6897 -1.9759
 7005TIP3    H220955   0.035   5.781   2.597  0.6143 -0.2767  0.4383
 7006TIP3   OH220956   0.425   3.353   3.247 -0.6334  0.5997  0.2273
 7006TIP3    H120957   0.437   3.448   3.243 -1.0428  0.5882 -2.3657
 7006TIP3    H220958   0.331   3.340   3.245 -0.5767  0.1106 -3.1083
 7007TIP3   OH220959   7.962   2.311   3.990 -0.3044  0.3747  0.0373
 7007TIP3    H120960   8.019   2.386   4.008 -1.4549  0.9215  1.5394
 7007TIP3    H220961   7.878   2.335   4.030 -1.4860 -0.5701 -1.8083
 7008TIP3   OH220962   0.649   0.681   3.785 -0.7169  0.2165 -0.0604
 7008TIP3    H120963   0.656   0.691   3.690 -1.3505 -1.6155 -0.3142
 7008TIP3    H220964   0.623   0.590   3.798  0.9648 -0.0144  1.9572
 7009TIP3   OH220965   7.112   2.298   5.742  0.5078  0.2582 -0.4696
 7009TIP3    H120966   7.202   2.329   5.745 -0.3438  2.8533 -0.3174
 7009TIP3    H220967   7.089   2.299   5.649  0.2587  0.7479 -0.4026
 7010TIP3   OH220968   8.370   1.595   5.004  0.7425  0.1724 -0.2484
 7010TIP3    H120969   8.338   1.668   4.951 -0.2994 -0.4076 -0.4404
 7010TIP3    H220970   8.291   1.556   5.041  1.3995  0.0807  1.1046
 7011TIP3   OH220971   7.481   3.289   2.519 -0.3445  0.5863  0.1270
 7011TIP3    H120972   7.425   3.256   2.449 -0.7781  1.5485  0.0066
 7011TIP3    H220973   7.533   3.358   2.477 -0.7634  1.3139  0.7949
 7012TIP3   OH220974   0.288   2.964   3.422  0.4101 -0.1466  0.0673
 7012TIP3    H120975   0.372   2.934   3.387 -0.1282 -2.7063  0.8447
 7012TIP3    H220976   0.311   3.033   3.485  1.9529 -0.8773  0.3302
 7013TIP3   OH220977   7.413   1.144   3.413 -0.0378 -0.3008  0.1536
 7013TIP3    H120978   7.489   1.117   3.362 -0.9970 -1.2524 -0.7938
 7013TIP3    H220979   7.449   1.167   3.498  1.6067  1.4931 -0.9998
 7014TIP3   OH220980   6.965   1.080   2.676 -0.0179 -0.1861 -0.0551
 7014TIP3    H120981   6.906   1.038   2.737  0.0311 -0.3753 -0.1383
 7014TIP3    H220982   6.966   1.172   2.703 -0.4914 -0.1443 -0.1661
 7015TIP3   OH220983   6.626   2.989   3.935  0.0463 -0.0122  0.0638
 7015TIP3    H120984   6.556   2.958   3.879  0.8106 -0.8366 -0.4540
 7015TIP3    H220985   6.665   3.062   3.887 -0.3983  0.3912  0.3140
 7016TIP3   OH220986   5.775   2.703   2.633  0.1638 -0.1635 -0.0806
 7016TIP3    H120987   5.830   2.696   2.555 -0.3333 -0.3571 -0.4174
 7016TIP3    H220988   5.795   2.790   2.668 -1.4383  0.9432 -1.8255
 7017TIP3   OH220989   0.586   5.431   1.747 -0.4919 -0.4769 -0.2377
 7017TIP3    H120990   0.650   5.403   1.682  0.2665 -1.4011  0.8800
 7017TIP3    H220991   0.619   5.515   1.778 -0.6300 -0.2364 -0.7373
 7018TIP3   OH220992   7.221   4.767   2.555 -0.1700 -0.4838  0.2708
 7018TIP3    H120993   7.256   4.856   2.558 -0.8873 -0.1820 -0.1127
 7018TIP3    H220994   7.145   4.774   2.498  1.0328 -1.7770 -1.5435
 7019TIP3   OH220995   7.053   3.144   1.941 -0.3086  0.1274  0.2375
 7019TIP3    H120996   7.069   3.212   2.007  2.6717 -1.2185  0.9820
 7019TIP3    H220997   7.031   3.193   1.862  1.7275  1.9904  0.7828
 7020TIP3   OH220998   7.397   4.807   4.374 -0.2791 -0.0366  0.5889
 7020TIP3    H120999   7.453   4.883   4.387  1.8137 -1.5477  0.6884
 7020TIP3    H221000   7.403   4.760   4.458 -0.2714 -1.1131 -0.0161
 7021TIP3   OH221001   5.891   7.897   2.754  0.7616  0.4162  0.1440
 7021TIP3    H121002   5.925   7.826   2.807 -0.0800  0.0143  0.1571
 7021TIP3    H221003   5.962   7.961   2.750  2.0444 -1.0407 -1.0553
 7022TIP3   OH221004   0.616   3.514   4.384  0.7445 -0.0764 -0.5866
 7022TIP3    H121005   0.657   3.600   4.375  2.3780 -0.8190 -0.4511
 7022TIP3    H221006   0.622   3.495   4.478 -1.6442  0.6123 -0.2571
 7023TIP3   OH221007   3.017   2.454   2.682  0.0475 -0.1619 -0.1165
 7023TIP3    H121008   2.976   2.415   2.759 -0.3898 -1.6647 -1.0870
 7023TIP3    H221009   3.065   2.382   2.642  0.8442  0.7761 -0.8755
 7024TIP3   OH221010   1.601   1.822   2.549  0.3715  0.2654 -0.3143
 7024TIP3    H121011   1.607   1.860   2.461 -2.1673  2.3857  0.3621
 7024TIP3    H221012   1.533   1.755   2.542  0.7694 -0.1614 -0.1509
 7025TIP3   OH221013   8.080   1.786   3.493 -0.2545 -0.3418 -0.4903
 7025TIP3    H121014   8.062   1.812   3.583 -2.8854 -0.4736 -0.9262
 7025TIP3    H221015   8.110   1.695   3.500 -0.7613 -0.4614  0.2465
 7026TIP3   OH221016   7.608   1.461   2.282 -0.1269  0.7059  0.3365
 7026TIP3    H121017   7.672   1.495   2.345  0.6255 -0.9234  0.4683
 7026TIP3    H221018   7.572   1.539   2.240  2.8456  1.6323 -0.6013
 7027TIP3   OH221019   7.263   2.634   3.011  0.6350  0.0460 -0.6747
 7027TIP3    H121020   7.301   2.600   3.093 -3.2551 -1.2839  0.6914
 7027TIP3    H221021   7.251   2.557   2.956  2.2244  0.8001 -2.1271
 7028TIP3   OH221022   0.115   4.162   1.632 -0.0908  0.5157 -0.0534
 7028TIP3    H121023   0.134   4.180   1.724 -1.5431  0.3324  0.2920
 7028TIP3    H221024   0.069   4.078   1.634 -0.0530  0.4748 -0.9583
 7029TIP3   OH221025   0.577   2.246   1.607  0.5295 -0.4008  0.3798
 7029TIP3    H121026   0.550   2.155   1.610 -0.0264 -0.2200  1.0747
 7029TIP3    H221027   0.526   2.289   1.676  0.0565  0.6314 -0.5910
 7030TIP3   OH221028   0.900   3.427   2.061  0.5853  0.6776 -0.4132
 7030TIP3    H121029   0.865   3.505   2.103 -2.2559 -0.9163  0.3127
 7030TIP3    H221030   0.917   3.454   1.971 -1.9536  1.7529 -0.6234
 7031TIP3   OH221031   7.276   3.442   4.774 -0.1594 -0.2413 -0.3303
 7031TIP3    H121032   7.344   3.397   4.723 -1.1894  0.6392 -2.5773
 7031TIP3    H221033   7.287   3.534   4.753 -0.0024  0.2576  1.8478
 7032TIP3   OH221034   8.429   1.800   2.784  0.2803  0.2443 -0.4567
 7032TIP3    H121035   8.477   1.717   2.788  2.2273  1.3835  3.7085
 7032TIP3    H221036   8.494   1.864   2.755  0.5794  1.2992  2.3630
 7033TIP3   OH221037   1.766   1.975   1.965 -0.3102 -0.2935  0.5528
 7033TIP3    H121038   1.836   2.038   1.949 -0.0457 -0.4389  1.1181
 7033TIP3    H221039   1.694   2.004   1.909 -0.9626  1.7811  2.3795
 7034TIP3   OH221040   1.875   2.206   3.628  0.4518 -0.2041 -0.0495
 7034TIP3    H121041   1.789   2.217   3.587  0.1823  1.3219  0.8802
 7034TIP3    H221042   1.860   2.145   3.700  0.1573  0.0012  0.0636
 7035TIP3   OH221043   7.984   1.589   4.520  0.6696  0.0946  0.2550
 7035TIP3    H121044   8.046   1.657   4.494  0.7154 -0.6545 -1.7463
 7035TIP3    H221045   8.020   1.508   4.483 -0.6261 -0.6104  0.5016
 7036TIP3   OH221046   1.167   1.528   1.217  0.6261  0.0033 -0.3183
 7036TIP3    H121047   1.257   1.544   1.189 -0.2035  1.5503 -2.1511
 7036TIP3    H221048   1.151   1.593   1.285  0.1258  1.2869 -1.6520
 7037TIP3   OH221049   2.813   1.699   2.204  0.6087  0.1969 -0.3579
 7037TIP3    H121050   2.750   1.660   2.143  0.7610  1.1266 -1.1260
 7037TIP3    H221051   2.898   1.669   2.171  0.7271  1.1924 -0.9655
 7038TIP3   OH221052   1.760   2.106   4.938  0.3879  0.0787  0.2059
 7038TIP3    H121053   1.763   2.022   4.892 -0.2849  0.0621  0.1856
 7038TIP3    H221054   1.836   2.154   4.905  0.2854 -0.1859 -0.4257
 7039TIP3   OH221055   8.454   1.146   5.546  0.3611  0.1136  0.4620
 7039TIP3    H121056   8.527   1.140   5.484  0.0780  1.8722 -0.0846
 7039TIP3    H221057   8.376   1.143   5.491  0.0780  0.4378  0.8402
 7040TIP3   OH221058   0.542   1.176   4.394 -0.9259 -0.0707  0.9335
 7040TIP3    H121059   0.450   1.188   4.374 -0.3319 -0.4417 -2.3715
 7040TIP3    H221060   0.581   1.262   4.383 -0.4227 -0.4729 -0.5496
 7041TIP3   OH221061   0.700   0.187   1.957 -0.0682  0.7756 -0.7252
 7041TIP3    H121062   0.782   0.173   2.005 -1.8008 -0.4470  2.0111
 7041TIP3    H221063   0.663   0.267   1.996 -1.9313 -0.7294  0.6571
 7042TIP3   OH221064   0.096   4.301   3.108 -0.2817  0.2837 -0.0139
 7042TIP3    H121065   0.048   4.248   3.044 -0.6129  1.2579 -0.5806
 7042TIP3    H221066   0.060   4.389   3.098  0.4153  0.6594  0.7693
 7043TIP3   OH221067   0.801   2.986   4.681  0.3196  0.2777  0.1351
 7043TIP3    H121068   0.751   3.066   4.692 -1.7071 -0.9732  0.3763
 7043TIP3    H221069   0.740   2.925   4.638  2.9302 -0.0466 -3.2744
 7044TIP3   OH221070   1.234   2.228   3.108  0.0185  0.0708 -0.0046
 7044TIP3    H121071   1.284   2.297   3.152 -0.4145 -0.3650  1.2197
 7044TIP3    H221072   1.212   2.264   3.023 -0.4489  1.5608  0.7333
 7045TIP3   OH221073   0.670   2.235   4.632  0.1403 -0.7509 -0.3495
 7045TIP3    H121074   0.643   2.313   4.679  0.0717 -1.0754  0.1547
 7045TIP3    H221075   0.622   2.163   4.674  0.6551 -1.1395 -0.4114
 7046TIP3   OH221076   0.453   3.158   2.272  0.7056  0.2426  0.0252
 7046TIP3    H121077   0.485   3.241   2.235  1.7630 -0.2229 -0.1225
 7046TIP3    H221078   0.528   3.099   2.266 -0.1352 -0.8141 -0.1439
 7047TIP3   OH221079   0.656   1.347   2.675 -0.5274  0.0791  0.1005
 7047TIP3    H121080   0.705   1.265   2.672 -0.5062  0.0818  0.3669
 7047TIP3    H221081   0.575   1.325   2.722 -0.3574  0.2962  0.4967
 7048TIP3   OH221082   7.680   3.231   2.100  0.4769 -0.0861  0.2260
 7048TIP3    H121083   7.641   3.272   2.023  1.5889 -0.0244 -0.3202
 7048TIP3    H221084   7.631   3.266   2.174  0.1464  0.7337 -0.3759
 7049TIP3   OH221085   0.579   1.455   1.973 -0.0188 -0.2646  0.0597
 7049TIP3    H121086   0.553   1.383   1.916 -1.4718  0.7537 -0.6113
 7049TIP3    H221087   0.504   1.466   2.032  0.6960 -0.0920  0.9371
 7050TIP3   OH221088   0.128   3.339   2.553 -0.4447  0.2625  0.4519
 7050TIP3    H121089   0.204   3.392   2.575  0.5069 -0.9350  0.1200
 7050TIP3    H221090   0.058   3.372   2.610  0.4744  0.9871  1.1688
 7051TIP3   OH221091   0.570   1.919   2.239  0.0012  0.2715 -0.7723
 7051TIP3    H121092   0.565   1.948   2.330 -1.0875 -0.8868 -0.4468
 7051TIP3    H221093   0.536   1.992   2.188  2.1248  1.5640 -0.4038
 7052TIP3   OH221094   3.279   2.634   2.260  0.9306  0.0275 -0.3818
 7052TIP3    H121095   3.305   2.664   2.173 -0.9990  1.2716 -0.5719
 7052TIP3    H221096   3.253   2.714   2.306 -2.1027 -1.0561 -0.1076
 7053TIP3   OH221097   6.029   3.665   2.187  0.8054  0.3317 -0.0267
 7053TIP3    H121098   6.023   3.570   2.199  0.0596  0.6262  2.2370
 7053TIP3    H221099   5.946   3.689   2.145  1.0787 -0.0300 -0.7880
 7054TIP3   OH221100   7.045   2.039   2.612 -0.2937  0.3238 -0.2562
 7054TIP3    H121101   6.976   2.106   2.614 -1.0619 -0.4729 -0.1436
 7054TIP3    H221102   7.120   2.082   2.653 -0.7450  1.1585 -0.2782
 7055TIP3   OH221103   6.534   1.067   4.125  0.4882 -0.1249  0.3504
 7055TIP3    H121104   6.488   1.067   4.041  0.0742 -0.1897  0.5712
 7055TIP3    H221105   6.612   1.014   4.110  0.3764 -0.1982  0.0268
 7056TIP3   OH221106   6.595   2.697   3.187  0.0889  0.1904  0.0468
 7056TIP3    H121107   6.630   2.616   3.225  0.9691  0.1273 -0.8714
 7056TIP3    H221108   6.524   2.723   3.247 -1.2186 -2.0731 -0.4563
 7057TIP3   OH221109   7.262   6.160   3.543 -0.1857  0.4033 -0.3704
 7057TIP3    H121110   7.283   6.101   3.471 -1.1586 -1.2416  0.6442
 7057TIP3    H221111   7.346   6.174   3.588  0.0364 -0.2748 -0.5692
 7058TIP3   OH221112   6.606   1.645   4.528  0.4950  0.1658  0.0232
 7058TIP3    H121113   6.653   1.673   4.450  1.1542 -0.9266  0.0147
 7058TIP3    H221114   6.656   1.683   4.601 -0.2993  1.4466 -0.0765
 7059TIP3   OH221115   1.776   4.675   2.235  0.1925  0.4086 -0.2091
 7059TIP3    H121116   1.725   4.650   2.158  0.8176  1.0110 -0.8344
 7059TIP3    H221117   1.725   4.645   2.310 -0.7511  0.4184 -0.8492
 7060TIP3   OH221118   7.777   2.779   4.291  0.1908  0.5633 -0.0431
 7060TIP3    H121119   7.793   2.854   4.349 -0.4805  0.2310  0.5786
 7060TIP3    H221120   7.700   2.804   4.240  0.4347  0.6165 -0.3849
 7061TIP3   OH221121   6.980   2.866   3.449  0.0004 -0.1249  0.3240
 7061TIP3    H121122   6.950   2.828   3.531 -1.0842  3.0611  1.4914
 7061TIP3    H221123   7.023   2.948   3.475  1.7262 -0.2101 -2.0941
 7062TIP3   OH221124   7.511   3.086   3.691  0.0013 -0.3014  0.3451
 7062TIP3    H121125   7.431   3.120   3.730  0.1197  0.7160 -0.2582
 7062TIP3    H221126   7.582   3.125   3.743  0.1261  0.0358 -0.0662
 7063TIP3   OH221127   0.577   3.051   1.407 -0.3554  0.3506  0.0944
 7063TIP3    H121128   0.481   3.059   1.409 -0.4123  1.1291 -2.9293
 7063TIP3    H221129   0.596   3.017   1.319  2.1887  1.0795  0.3300
 7064TIP3   OH221130   7.781   2.321   4.722 -0.3684 -0.2093  0.2428
 7064TIP3    H121131   7.687   2.310   4.735 -0.7748  0.5430 -1.8180
 7064TIP3    H221132   7.792   2.323   4.627  1.8307 -1.0990  0.4400
 7065TIP3   OH221133   6.928   3.158   3.439  0.8740 -0.0599  0.6783
 7065TIP3    H121134   6.891   3.243   3.417 -0.4569 -0.3781  1.6102
 7065TIP3    H221135   6.888   3.097   3.377  0.9909 -0.1792  0.7175
 7066TIP3   OH221136   7.096   3.237   4.608 -0.0838 -0.0591 -0.2275
 7066TIP3    H121137   7.029   3.221   4.675 -0.4664  0.4265 -0.4990
 7066TIP3    H221138   7.169   3.274   4.657 -0.2097 -0.0930 -0.0113
 7067TIP3   OH221139   8.334   2.771   2.864 -0.0382  0.1627 -0.0903
 7067TIP3    H121140   8.257   2.764   2.808  0.1307  0.7545 -0.3977
 7067TIP3    H221141   8.406   2.786   2.804  0.7137 -2.7888 -0.0140
 7068TIP3   OH221142   0.090   2.581   3.177 -0.2277 -0.2137  0.1962
 7068TIP3    H121143   0.159   2.544   3.232 -1.8665 -2.3573  0.8941
 7068TIP3    H221144   0.095   2.675   3.193  0.4815 -0.6274  2.6794
 7069TIP3   OH221145   0.561   2.901   1.860  0.0649  0.4659  0.4500
 7069TIP3    H121146   0.468   2.915   1.875 -0.3004 -0.1207 -1.1692
 7069TIP3    H221147   0.579   2.943   1.776  0.4858 -2.4080 -0.9810
 7070TIP3   OH221148   8.335   4.969   3.212  0.0030 -0.5289  0.0120
 7070TIP3    H121149   8.411   4.986   3.268  0.3572  0.2827 -0.7045
 7070TIP3    H221150   8.362   5.000   3.125 -0.7043 -1.3587 -0.5088
 7071TIP3   OH221151   7.638   1.958   2.640 -0.1306  0.1404 -0.0525
 7071TIP3    H121152   7.649   1.946   2.734  0.9257  1.3168 -0.0146
 7071TIP3    H221153   7.625   2.052   2.629 -1.6865 -0.1640 -0.9503
 7072TIP3   OH221154   5.729   3.044   6.807 -0.7323 -0.1353  0.0006
 7072TIP3    H121155   5.767   3.038   6.720 -0.6321 -0.1302  0.0439
 7072TIP3    H221156   5.728   3.138   6.827  0.3752 -0.2129  0.4991
 7073TIP3   OH221157   2.386   7.969   5.763 -0.6233  0.6575  0.3008
 7073TIP3    H121158   2.464   7.937   5.718 -0.9505  0.1298  0.1036
 7073TIP3    H221159   2.420   8.024   5.834 -0.0798  0.5892  0.0977
 7074TIP3   OH221160   6.804   0.339   2.197 -0.1011 -0.7421 -0.1179
 7074TIP3    H121161   6.791   0.383   2.113 -0.4086 -0.9051 -0.1568
 7074TIP3    H221162   6.798   0.246   2.177 -1.4388 -0.7547  0.2857
 7075TIP3   OH221163   7.975   2.230   3.730  0.1186 -0.0484 -0.0012
 7075TIP3    H121164   7.903   2.167   3.720 -0.5241  0.4410  1.5112
 7075TIP3    H221165   7.975   2.252   3.823  3.4356 -1.4642  0.4047
 7076TIP3   OH221166   0.831   1.970   3.107  0.1642  0.0580  0.3289
 7076TIP3    H121167   0.834   2.003   3.197  0.4136  1.8068 -0.3002
 7076TIP3    H221168   0.878   1.887   3.111 -0.4582 -0.2457  1.9569
 7077TIP3   OH221169   1.328   3.045   1.849  0.5765  0.1371 -0.0881
 7077TIP3    H121170   1.349   3.138   1.842  2.1008 -0.2032 -0.2898
 7077TIP3    H221171   1.335   3.012   1.759 -3.2829  0.4694 -0.5884
 7078TIP3   OH221172   0.628   2.214   2.625 -0.1703  0.0433  0.2708
 7078TIP3    H121173   0.589   2.141   2.673 -0.7227 -0.4230 -0.8635
 7078TIP3    H221174   0.553   2.264   2.593  0.1847  0.0246 -0.5894
 7079TIP3   OH221175   6.356   3.835   2.557 -0.0341 -0.2583  0.5218
 7079TIP3    H121176   6.393   3.859   2.472 -1.9560  0.8927 -0.0226
 7079TIP3    H221177   6.329   3.744   2.547 -2.7350  0.6672 -1.0198
 7080TIP3   OH221178   6.347   3.636   4.945  0.1110  0.0993 -0.2814
 7080TIP3    H121179   6.334   3.687   5.025 -0.0867 -1.3947  0.6629
 7080TIP3    H221180   6.371   3.700   4.878 -0.7569  1.4893  0.7337
 7081TIP3   OH221181   4.580   0.882   2.790 -0.0243  0.1170  0.3185
 7081TIP3    H121182   4.660   0.931   2.810  0.5354 -0.5750 -0.1920
 7081TIP3    H221183   4.554   0.844   2.874 -0.3576  1.1148  0.6775
 7082TIP3   OH221184   1.042   1.447   3.382  1.0272  0.4584  0.1543
 7082TIP3    H121185   0.967   1.446   3.442  0.8157 -0.4155 -0.1202
 7082TIP3    H221186   1.080   1.534   3.394  0.5417  0.5662  1.0050
 7083TIP3   OH221187   0.479   2.712   3.862  0.1074 -0.0625  0.0527
 7083TIP3    H121188   0.530   2.639   3.828 -0.2812 -1.2690  1.9468
 7083TIP3    H221189   0.410   2.670   3.914 -0.2380  1.6499  1.0150
 7084TIP3   OH221190   7.836   2.376   5.478  0.4653 -0.6144 -0.0077
 7084TIP3    H121191   7.868   2.289   5.457 -1.2721 -1.2478 -0.0936
 7084TIP3    H221192   7.825   2.376   5.574  1.4864 -0.1212  0.1202
 7085TIP3   OH221193   6.715   4.811   4.529 -0.1837 -0.2086 -0.0306
 7085TIP3    H121194   6.670   4.881   4.484  1.3456  1.8781  1.5686
 7085TIP3    H221195   6.785   4.785   4.469 -1.2750 -1.0043 -0.9885
 7086TIP3   OH221196   7.110   4.693   3.516  0.1027 -0.4142 -0.3284
 7086TIP3    H121197   7.112   4.666   3.424  0.6494 -2.0361  0.1405
 7086TIP3    H221198   7.017   4.698   3.537 -0.0194 -0.5712 -0.8190
 7087TIP3   OH221199   8.157   4.402   3.750 -0.1768 -0.0249 -0.6365
 7087TIP3    H121200   8.103   4.347   3.807  0.4327  0.5958  0.5820
 7087TIP3    H221201   8.098   4.431   3.681 -1.1758 -0.1204  0.1575
 7088TIP3   OH221202   7.700   4.494   2.365 -0.3639 -0.0286  0.5953
 7088TIP3    H121203   7.743   4.412   2.390 -1.9058 -0.5709  1.5483
 7088TIP3    H221204   7.770   4.549   2.331  0.8018 -1.4919  0.6028
 7089TIP3   OH221205   0.131   1.334   2.995  0.8058 -0.8187  0.3062
 7089TIP3    H121206   0.129   1.261   3.057  1.6220  0.1940  1.5426
 7089TIP3    H221207   0.109   1.410   3.048 -2.0043 -0.4026 -1.3533
 7090TIP3   OH221208   0.510   2.030   2.813 -0.1245 -0.1628  0.1714
 7090TIP3    H121209   0.547   1.942   2.813  0.0273 -0.0983  0.1410
 7090TIP3    H221210   0.423   2.019   2.851 -0.3328 -0.4243 -0.3679
 7091TIP3   OH221211   6.644   2.634   4.434 -0.2697  0.1162 -0.2293
 7091TIP3    H121212   6.565   2.581   4.434 -0.7859  0.8692 -0.1912
 7091TIP3    H221213   6.647   2.671   4.522 -0.2243  0.5916 -0.4279
 7092TIP3   OH221214   0.680   3.669   1.613  0.8823  0.8966  0.0072
 7092TIP3    H121215   0.628   3.637   1.539  0.5288  1.2899  0.0817
 7092TIP3    H221216   0.770   3.669   1.581  0.5253  2.8448 -1.0615
 7093TIP3   OH221217   7.699   3.286   4.231 -0.7169 -0.4491  0.2489
 7093TIP3    H121218   7.626   3.241   4.189 -0.5747  0.2559 -0.7702
 7093TIP3    H221219   7.712   3.240   4.314 -1.1960 -1.6613 -0.3478
 7094TIP3   OH221220   7.127   2.706   2.331  0.2432  0.4221 -0.0394
 7094TIP3    H121221   7.049   2.757   2.310 -0.5219  0.0049  1.6547
 7094TIP3    H221222   7.092   2.624   2.367  1.4679  0.1299  0.4925
 7095TIP3   OH221223   6.384   1.499   4.223  0.3369 -0.4489  0.4875
 7095TIP3    H121224   6.415   1.590   4.233 -0.9324  0.1280 -0.6258
 7095TIP3    H221225   6.289   1.506   4.222  0.2473 -1.5282 -1.7937
 7096TIP3   OH221226   7.705   2.620   3.563  0.3395  0.1459  0.7294
 7096TIP3    H121227   7.727   2.530   3.537 -1.2628  0.1827 -0.8307
 7096TIP3    H221228   7.610   2.621   3.569  0.1744  2.3024 -1.5144
 7097TIP3   OH221229   0.077   3.187   1.135 -0.0244  0.6830 -0.1599
 7097TIP3    H121230   0.110   3.219   1.050  0.4419 -0.6106 -0.4737
 7097TIP3    H221231  -0.016   3.210   1.134 -0.4151 -0.8583 -1.7683
 7098TIP3   OH221232   0.895   4.469   3.379  1.0707 -0.1341 -0.1903
 7098TIP3    H121233   0.872   4.561   3.385  0.1293 -0.3440 -0.4627
 7098TIP3    H221234   0.845   4.436   3.304  3.2955 -0.3116 -1.6560
 7099TIP3   OH221235   6.409   2.687   4.129  0.1064 -0.3076 -0.1775
 7099TIP3    H121236   6.322   2.724   4.145  0.8881  1.7561 -0.6730
 7099TIP3    H221237   6.410   2.667   4.035  0.5198  0.6230 -0.3771
 7100TIP3   OH221238   6.895   1.349   3.534  0.4482 -0.2144  0.0420
 7100TIP3    H121239   6.825   1.375   3.474  1.7883  0.9205 -1.0536
 7100TIP3    H221240   6.940   1.277   3.490  0.5725 -0.2950  0.2999
 7101TIP3   OH221241   0.373   3.818   1.371  0.2891 -0.4469 -0.5441
 7101TIP3    H121242   0.435   3.889   1.383 -1.9037  1.1191  1.7787
 7101TIP3    H221243   0.316   3.848   1.300  0.0787 -0.4125 -0.3586
 7102TIP3   OH221244   8.053   1.673   5.553 -0.6179  0.1134  0.0256
 7102TIP3    H121245   7.996   1.596   5.559 -1.1648  0.2461 -2.6018
 7102TIP3    H221246   8.137   1.638   5.524 -0.7052  0.4342 -0.6241
 7103TIP3   OH221247   0.166   2.427   5.691 -0.2620 -0.0214 -1.0417
 7103TIP3    H121248   0.238   2.474   5.651  0.9553 -0.5512  0.4818
 7103TIP3    H221249   0.184   2.429   5.785 -2.4829  0.2631 -0.5862
 7104TIP3   OH221250   7.799   2.033   4.996  0.4734  0.1798  0.1696
 7104TIP3    H121251   7.704   2.035   5.010  0.4672 -2.2005  0.6023
 7104TIP3    H221252   7.836   2.058   5.081  0.2426  0.3371  0.2248
 7105TIP3   OH221253   3.215   7.234   0.073 -0.0924  0.2831 -0.1953
 7105TIP3    H121254   3.201   7.167   0.139  0.8084 -0.2985 -0.5947
 7105TIP3    H221255   3.224   7.316   0.123  0.6313 -0.1580  0.3932
 7106TIP3   OH221256   8.457   3.248   4.514  0.0456 -0.1236 -0.3063
 7106TIP3    H121257   8.432   3.158   4.533 -0.1197  0.3992  2.1212
 7106TIP3    H221258   8.411   3.300   4.580  1.9481  1.5053 -0.2274
 7107TIP3   OH221259   6.770   0.528   6.834 -0.5283  0.4781 -0.2698
 7107TIP3    H121260   6.810   0.480   6.907  0.7340  1.0922 -0.5464
 7107TIP3    H221261   6.786   0.473   6.757 -0.2467  0.7047 -0.3746
 7108TIP3   OH221262   0.087   6.111   4.523 -0.3916 -0.1729 -0.3236
 7108TIP3    H121263   0.003   6.071   4.547  0.2978 -1.3143  0.2278
 7108TIP3    H221264   0.146   6.037   4.508  0.5002  0.6154 -0.7697
 7109TIP3   OH221265   8.521   4.393   4.137 -0.2349  0.1250 -0.4133
 7109TIP3    H121266   8.440   4.376   4.089 -0.2085 -1.0505 -0.0527
 7109TIP3    H221267   8.492   4.429   4.221 -0.3456  0.7151 -0.7076
 7110TIP3   OH221268   0.603   2.240   3.912  0.3550  0.3468  0.3714
 7110TIP3    H121269   0.660   2.181   3.864  0.6665 -0.0342  1.2075
 7110TIP3    H221270   0.515   2.223   3.877  0.7556  1.0439 -1.0198
 7111TIP3   OH221271   4.329   7.920   0.109  0.1053 -0.2671  0.0623
 7111TIP3    H121272   4.326   7.856   0.179  0.8482 -0.4599 -0.0782
 7111TIP3    H221273   4.357   8.001   0.151  0.3577 -0.3338  0.0215
 7112TIP3   OH221274   7.688   2.670   6.193 -0.2051 -0.0941  0.4886
 7112TIP3    H121275   7.735   2.587   6.199 -0.1701 -0.0178  1.3348
 7112TIP3    H221276   7.650   2.682   6.280  0.0994  0.9517  0.4859
 7113TIP3   OH221277   0.711   2.101   4.156  0.2983 -0.0927  0.3059
 7113TIP3    H121278   0.693   2.180   4.106  0.1277 -0.0842  0.3816
 7113TIP3    H221279   0.659   2.111   4.236 -0.9761 -1.0196 -0.3893
 7114TIP3   OH221280   8.238   3.434   5.117 -0.2391 -0.5543  0.4879
 7114TIP3    H121281   8.150   3.456   5.089 -0.2170 -1.2831 -0.1808
 7114TIP3    H221282   8.265   3.363   5.059  0.1853 -1.4239  1.7016
 7115TIP3   OH221283   8.519   1.957   3.131 -0.2179  1.1105  0.1471
 7115TIP3    H121284   8.434   1.952   3.088  0.0997 -0.8559 -0.2738
 7115TIP3    H221285   8.520   2.044   3.172 -2.6345  0.9603  0.5893
 7116TIP3   OH221286   0.652   3.266   5.645  0.0399 -0.0182  0.4165
 7116TIP3    H121287   0.687   3.312   5.570 -0.6473  0.6278  0.4906
 7116TIP3    H221288   0.628   3.180   5.611 -0.0314  0.1812 -0.0407
 7117TIP3   OH221289   7.392   3.243   6.587 -0.3156 -0.4851  0.6798
 7117TIP3    H121290   7.329   3.193   6.639 -0.4377 -0.7252  0.3039
 7117TIP3    H221291   7.346   3.262   6.505  0.2641 -1.0879  0.1985
 7118TIP3   OH221292   8.122   2.053   5.493  0.0814 -0.4043  0.4783
 7118TIP3    H121293   8.034   2.025   5.520 -0.0188  0.5676  1.1828
 7118TIP3    H221294   8.158   2.097   5.570  1.1156 -0.6176  0.1238
 7119TIP3   OH221295   7.385   4.128   5.573  0.1627 -0.2519 -0.0141
 7119TIP3    H121296   7.417   4.043   5.543  1.0338 -0.3274  1.0849
 7119TIP3    H221297   7.339   4.109   5.655  0.6816  0.3674  0.4358
 7120TIP3   OH221298   0.452   4.339   5.880 -0.3148 -0.2212 -0.0811
 7120TIP3    H121299   0.411   4.412   5.832  0.4848 -0.4510 -1.1459
 7120TIP3    H221300   0.452   4.367   5.971 -1.2044  0.5566 -0.3158
 7121TIP3   OH221301   8.147   2.366   4.781  0.3968  0.1880  0.0594
 7121TIP3    H121302   8.152   2.320   4.865  0.6279  1.1344  0.5680
 7121TIP3    H221303   8.205   2.316   4.723 -1.9823 -2.1969 -0.3871
 7122TIP3   OH221304   0.447   2.460   6.082 -0.6836  0.0897  0.1267
 7122TIP3    H121305   0.526   2.414   6.052 -2.4053 -1.8292 -1.6134
 7122TIP3    H221306   0.467   2.553   6.067  0.2028 -0.5295 -2.9514
 7123TIP3   OH221307   2.346   3.449   4.878  0.1488 -0.0110 -0.1298
 7123TIP3    H121308   2.401   3.522   4.850 -2.3273  1.5553 -0.9939
 7123TIP3    H221309   2.354   3.384   4.808  0.5004  0.3984 -0.4681
 7124TIP3   OH221310   1.057   3.124   5.078  0.2849  0.0252 -0.1386
 7124TIP3    H121311   1.145   3.086   5.077  0.8136  1.2339 -0.4132
 7124TIP3    H221312   0.999   3.050   5.098  1.1969 -1.1144 -1.6328
 7125TIP3   OH221313   7.892   2.464   6.193  0.2073 -0.2020  0.2684
 7125TIP3    H121314   7.936   2.391   6.237  0.0399 -0.7049 -0.3951
 7125TIP3    H221315   7.959   2.502   6.136  0.0554 -0.3552 -0.0094
 7126TIP3   OH221316   1.149   3.392   5.742 -0.2927 -0.5888 -0.0601
 7126TIP3    H121317   1.184   3.452   5.677  0.2493 -0.6156  0.2094
 7126TIP3    H221318   1.110   3.448   5.809  1.7578 -0.4863  1.0704
 7127TIP3   OH221319   1.540   2.935   2.007  0.3986 -0.0176 -0.1639
 7127TIP3    H121320   1.482   2.948   1.931  1.7354 -2.2780 -1.6282
 7127TIP3    H221321   1.591   3.016   2.011 -0.8166  0.8029 -0.6431
 7128TIP3   OH221322   0.810   4.637   2.533 -0.1950  0.1721  0.2468
 7128TIP3    H121323   0.750   4.700   2.572 -1.4004 -1.6072  1.3150
 7128TIP3    H221324   0.891   4.647   2.582 -0.8819 -0.2150  1.4730
 7129TIP3   OH221325   7.024   1.719   5.456 -0.2802 -0.0974  0.1274
 7129TIP3    H121326   6.938   1.726   5.498 -0.6258  0.5474 -0.6768
 7129TIP3    H221327   7.015   1.647   5.394  0.0043 -0.5510  0.6054
 7130TIP3   OH221328   0.356   2.626   5.705 -0.1022 -0.5478  0.6189
 7130TIP3    H121329   0.320   2.687   5.769  1.7584  0.0042  1.1595
 7130TIP3    H221330   0.451   2.630   5.718  0.3092 -0.6032 -1.9874
 7131TIP3   OH221331   2.108   3.331   5.267 -0.1226 -0.0004 -0.3385
 7131TIP3    H121332   2.184   3.280   5.239  0.1577 -0.2559  0.8499
 7131TIP3    H221333   2.063   3.276   5.331 -0.3432  0.8444  0.2571
 7132TIP3   OH221334   2.494   4.084   3.762  0.3172 -0.3091 -0.2598
 7132TIP3    H121335   2.486   4.098   3.856  3.4388  0.8226 -0.1266
 7132TIP3    H221336   2.460   3.996   3.748 -2.4453  0.4014  1.5313
 7133TIP3   OH221337   1.338   4.506   5.496  0.1217 -0.2303  0.3037
 7133TIP3    H121338   1.288   4.445   5.549  0.3538 -0.5574  0.1514
 7133TIP3    H221339   1.319   4.592   5.533 -0.7697 -0.3196  0.0748
 7134TIP3   OH221340   8.157   4.229   4.912 -0.0548  0.0800 -0.2352
 7134TIP3    H121341   8.112   4.208   4.994  2.0066 -0.2798  0.8629
 7134TIP3    H221342   8.181   4.143   4.876  0.6016  0.2790 -0.2854
 7135TIP3   OH221343   7.586   3.894   5.617  0.7196 -0.7340  0.3134
 7135TIP3    H121344   7.601   3.821   5.556 -1.0471  0.2850 -1.3885
 7135TIP3    H221345   7.539   3.854   5.690 -1.8430 -1.0418 -1.4201
 7136TIP3   OH221346   6.417   2.353   6.238 -0.2835 -0.6526 -0.1523
 7136TIP3    H121347   6.350   2.403   6.192 -0.4391 -1.3388 -0.6745
 7136TIP3    H221348   6.449   2.290   6.174  0.8358 -0.3702  0.1057
 7137TIP3   OH221349   0.266   3.115   5.004  0.0128 -0.1265 -0.3800
 7137TIP3    H121350   0.355   3.139   5.030 -0.3280 -1.2835  1.9181
 7137TIP3    H221351   0.277   3.033   4.955  0.1378 -0.6641  0.5426
 7138TIP3   OH221352   0.178   4.734   6.466  0.4261  0.1580 -0.1319
 7138TIP3    H121353   0.236   4.659   6.478  0.2503 -0.3724 -2.2744
 7138TIP3    H221354   0.237   4.810   6.465  0.6538  0.0246  1.5542
 7139TIP3   OH221355   0.565   2.003   3.375 -0.1686 -0.0882 -0.3155
 7139TIP3    H121356   0.514   2.075   3.339 -1.0497 -0.9271 -0.7541
 7139TIP3    H221357   0.656   2.031   3.365 -0.4411  0.1988 -2.1028
 7140TIP3   OH221358   0.482   4.602   4.104 -0.1396  0.0691  0.8512
 7140TIP3    H121359   0.400   4.560   4.079 -0.3461  0.8645  0.1901
 7140TIP3    H221360   0.544   4.576   4.034  0.0967 -0.2838  1.1888
 7141TIP3   OH221361   1.874   5.609   6.482  0.2765  0.0373  0.5939
 7141TIP3    H121362   1.877   5.516   6.506 -1.1634 -0.3649 -0.6866
 7141TIP3    H221363   1.817   5.649   6.547 -0.0417 -0.2040  0.4646
 7142TIP3   OH221364   6.850   2.165   0.340  0.1602 -0.3537 -0.6184
 7142TIP3    H121365   6.786   2.186   0.409  0.7605 -1.5735  0.3253
 7142TIP3    H221366   6.876   2.251   0.307  0.9264  0.3534  1.6741
 7143TIP3   OH221367   0.312   1.817   3.938 -0.8487  0.1196  0.0913
 7143TIP3    H121368   0.262   1.757   3.883  2.6293 -1.8439 -1.0219
 7143TIP3    H221369   0.325   1.895   3.883 -1.2642 -0.0041 -0.1845
 7144TIP3   OH221370   7.497   3.177   4.081  0.5601 -0.3383 -0.2276
 7144TIP3    H121371   7.425   3.233   4.054  1.0486  0.5034  0.2027
 7144TIP3    H221372   7.459   3.089   4.084  0.0183 -0.1687 -1.7564
 7145TIP3   OH221373   1.809   3.294   3.358 -0.0539  0.3955 -0.0489
 7145TIP3    H121374   1.872   3.364   3.344 -1.1665  1.2964 -0.5764
 7145TIP3    H221375   1.724   3.336   3.352 -0.7282 -0.9185  0.0724
 7146TIP3   OH221376   3.796   4.202   4.115 -0.0135 -0.2295  0.1990
 7146TIP3    H121377   3.867   4.138   4.120  0.1953 -0.1028 -1.0789
 7146TIP3    H221378   3.764   4.209   4.205  0.0535 -2.0224  0.3812
 7147TIP3   OH221379   7.992   4.923   5.574 -0.6708  0.3708  0.1407
 7147TIP3    H121380   7.995   5.008   5.616  1.9060 -0.3241  1.4818
 7147TIP3    H221381   7.921   4.876   5.618 -1.1048  1.2805  0.4208
 7148TIP3   OH221382   1.771   3.899   1.696  0.1176  0.2281  0.4399
 7148TIP3    H121383   1.833   3.841   1.740 -1.2135 -1.2386  0.4581
 7148TIP3    H221384   1.774   3.874   1.604  0.9901  1.5089  0.1108
 7149TIP3   OH221385   0.047   6.015   2.169  0.7625 -0.1644  0.2527
 7149TIP3    H121386   0.114   6.063   2.121  1.7501 -1.8554 -0.0939
 7149TIP3    H221387   0.040   5.931   2.123 -0.8065 -0.4288  0.9462
 7150TIP3   OH221388   7.265   5.944   5.252  0.3200  0.0831 -0.0207
 7150TIP3    H121389   7.312   6.025   5.269 -2.1056  1.3902  0.7508
 7150TIP3    H221390   7.172   5.969   5.255 -0.4529 -2.3821 -1.4381
 7151TIP3   OH221391   7.891   3.504   4.701 -0.0625  0.2205 -0.2308
 7151TIP3    H121392   7.818   3.524   4.643  0.3356 -0.7618 -1.0900
 7151TIP3    H221393   7.852   3.452   4.772 -0.1733 -0.4706 -0.7910
 7152TIP3   OH221394   0.586   3.123   6.219 -0.5718 -0.0556 -0.5557
 7152TIP3    H121395   0.593   3.218   6.226  1.4838 -0.2842  1.0137
 7152TIP3    H221396   0.624   3.090   6.301 -0.0719 -2.2569 -1.6341
 7153TIP3   OH221397   0.585   5.088   5.601  0.1217 -0.2424 -0.2629
 7153TIP3    H121398   0.562   5.026   5.531 -1.3639  0.6778 -0.6237
 7153TIP3    H221399   0.654   5.142   5.563 -1.2682  0.8058 -1.3713
 7154TIP3   OH221400   6.879   0.311   0.498 -0.1261 -0.0790  0.6381
 7154TIP3    H121401   6.814   0.303   0.428  0.8067 -0.5805 -0.1741
 7154TIP3    H221402   6.863   0.235   0.554 -0.5175  0.0289  0.6742
 7155TIP3   OH221403   1.381   2.305   4.542  0.3216 -0.5715 -0.3487
 7155TIP3    H121404   1.471   2.332   4.528 -0.0194  1.4846  1.1977
 7155TIP3    H221405   1.337   2.324   4.459  0.8580  0.4557 -0.4052
 7156TIP3   OH221406   8.153   2.416   5.535 -0.3621  0.0752 -0.5146
 7156TIP3    H121407   8.227   2.471   5.561 -1.3951  1.2008  0.1348
 7156TIP3    H221408   8.121   2.379   5.617 -0.9300  0.1383 -0.7021
 7157TIP3   OH221409   7.300   2.258   5.014  0.2490 -0.1313 -0.6631
 7157TIP3    H121410   7.230   2.196   4.997 -0.0158 -0.1912  0.6175
 7157TIP3    H221411   7.294   2.321   4.942 -0.0826 -1.0436 -1.4453
 7158TIP3   OH221412   7.234   2.496   4.878  0.1422  0.1167  0.0727
 7158TIP3    H121413   7.319   2.522   4.914  0.7308 -0.7281 -0.6755
 7158TIP3    H221414   7.208   2.569   4.821  0.9634 -0.1477 -0.6591
 7159TIP3   OH221415   3.851   6.278   0.084  0.0992 -0.5113  0.0650
 7159TIP3    H121416   3.785   6.223   0.125  1.1697  0.3699  3.0593
 7159TIP3    H221417   3.905   6.310   0.156  1.4329  1.9243 -1.9178
 7160TIP3   OH221418   0.269   4.684   4.796  0.1651  0.3740 -0.0392
 7160TIP3    H121419   0.289   4.696   4.703  0.0958  0.3252 -0.0613
 7160TIP3    H221420   0.351   4.655   4.835  0.0953  0.0188 -0.1563
 7161TIP3   OH221421   4.797   7.518   3.064  0.0479 -0.3141 -1.2225
 7161TIP3    H121422   4.847   7.589   3.025  0.5796 -1.2702 -2.2999
 7161TIP3    H221423   4.855   7.442   3.060 -0.3612 -0.7195  0.2945
 7162TIP3   OH221424   8.313   3.139   5.208 -0.2473  0.0542  0.3549
 7162TIP3    H121425   8.409   3.136   5.216 -0.1428  1.1575 -0.2954
 7162TIP3    H221426   8.282   3.161   5.296  0.1004 -0.2570  0.5565
 7163TIP3   OH221427   7.113   2.599   4.350 -0.0660  0.2464  0.7753
 7163TIP3    H121428   7.094   2.646   4.431  1.2259 -2.0654  2.4912
 7163TIP3    H221429   7.032   2.551   4.330 -0.4707  1.0261  0.5479
 7164TIP3   OH221430   6.266   2.367   5.359 -0.2873 -0.1289 -0.7775
 7164TIP3    H121431   6.307   2.339   5.441 -1.9522 -2.0038 -0.5401
 7164TIP3    H221432   6.174   2.342   5.368 -1.3601  3.2566 -1.6402
 7165TIP3   OH221433   5.850   2.423   5.592 -0.5445  0.1994  0.1501
 7165TIP3    H121434   5.903   2.452   5.666 -1.2488 -1.0902  1.1797
 7165TIP3    H221435   5.785   2.365   5.630 -1.5587  0.3099 -1.3539
 7166TIP3   OH221436   1.244   4.404   6.253  0.2748  0.1125  0.4645
 7166TIP3    H121437   1.294   4.483   6.276 -0.0234  0.7353 -0.9823
 7166TIP3    H221438   1.310   4.344   6.218  0.5632 -0.4485  1.9127
 7167TIP3   OH221439   1.900   5.532   3.329  0.8421  0.1773  0.0346
 7167TIP3    H121440   1.897   5.480   3.248 -3.6173  0.8183 -0.3549
 7167TIP3    H221441   1.863   5.474   3.396 -0.1028  1.2882  0.5057
 7168TIP3   OH221442   0.351   2.968   4.212  0.0376 -0.3023 -0.5350
 7168TIP3    H121443   0.298   2.901   4.254 -1.1062  0.3043 -0.9903
 7168TIP3    H221444   0.299   2.996   4.137  1.0507  0.2232 -1.0451
 7169TIP3   OH221445   1.753   2.560   2.684 -0.6515 -0.0254 -0.2688
 7169TIP3    H121446   1.716   2.525   2.765 -1.0386 -1.4400 -1.0434
 7169TIP3    H221447   1.733   2.654   2.688 -0.8677 -0.1119  1.1580
 7170TIP3   OH221448   1.048   1.593   4.915 -0.5704  0.2028 -0.0357
 7170TIP3    H121449   0.999   1.670   4.943 -0.7953 -0.0267  0.2093
 7170TIP3    H221450   0.981   1.531   4.885 -0.4920 -0.4061  1.0150
 7171TIP3   OH221451   7.705   3.145   3.908 -0.0200  0.1586  0.4539
 7171TIP3    H121452   7.637   3.158   3.974  1.5444  1.8239  1.7632
 7171TIP3    H221453   7.754   3.069   3.938 -0.1221  0.1088  0.4961
 7172TIP3   OH221454   0.120   3.168   4.007 -0.0890  0.2699  0.3232
 7172TIP3    H121455   0.139   3.233   3.939 -0.5471  1.1249  0.9947
 7172TIP3    H221456   0.061   3.214   4.068 -1.6020 -1.2350  0.0445
 7173TIP3   OH221457   0.626   2.904   3.716 -0.3519 -0.2418  0.1437
 7173TIP3    H121458   0.566   2.890   3.642 -1.4654 -0.3294  1.0440
 7173TIP3    H221459   0.586   2.855   3.788  0.2717  0.5621  1.0360
 7174TIP3   OH221460   1.178   2.801   4.103  0.1017 -0.0460 -0.1534
 7174TIP3    H121461   1.187   2.730   4.166  0.3320 -0.1949 -0.3553
 7174TIP3    H221462   1.088   2.831   4.113 -0.5622 -1.5757 -1.3716
 7175TIP3   OH221463   0.437   0.075   4.424  0.0692 -0.1780 -0.2360
 7175TIP3    H121464   0.447   0.074   4.329 -0.7101  3.2005 -0.3972
 7175TIP3    H221465   0.511   0.127   4.456  0.4072 -1.4013  1.0711
 7176TIP3   OH221466   8.468   3.117   6.046 -0.6484  0.3322 -0.0533
 7176TIP3    H121467   8.516   3.197   6.064  2.9446 -1.4569 -1.2748
 7176TIP3    H221468   8.463   3.112   5.950 -0.4749 -1.0932 -0.0028
 7177TIP3   OH221469   1.092   4.184   6.049 -0.7452 -0.3910 -0.5854
 7177TIP3    H121470   1.029   4.129   6.095 -1.0777 -0.3389 -0.9766
 7177TIP3    H221471   1.058   4.273   6.060  0.4967 -0.1000  1.1905
 7178TIP3   OH221472   1.070   6.049   5.574  0.5982 -0.3505 -0.0610
 7178TIP3    H121473   1.097   6.071   5.663  0.3100  1.1941 -0.3448
 7178TIP3    H221474   1.152   6.037   5.526  0.7505  0.0870  0.0978
 7179TIP3   OH221475   5.893   3.112   4.370  0.1376  0.2777 -0.1378
 7179TIP3    H121476   5.958   3.179   4.349 -1.3312  1.9398  0.4451
 7179TIP3    H221477   5.944   3.034   4.392  1.9050  1.4799  0.1065
 7180TIP3   OH221478   8.009   5.735   6.214 -0.1058  0.6391 -0.1287
 7180TIP3    H121479   8.001   5.651   6.260 -0.9319  1.3405  1.0244
 7180TIP3    H221480   7.952   5.725   6.138 -0.3659  0.2290  0.1133
 7181TIP3   OH221481   2.917   2.524   6.173  0.7687  0.2544  0.0278
 7181TIP3    H121482   2.982   2.470   6.128  0.6108  0.4385 -0.4328
 7181TIP3    H221483   2.846   2.532   6.110  0.7208  0.8597  0.1540
 7182TIP3   OH221484   1.245   2.917   4.596 -0.2851  0.2553 -0.2302
 7182TIP3    H121485   1.197   2.872   4.665 -2.1858  0.9192 -1.1033
 7182TIP3    H221486   1.277   2.846   4.540  0.0511 -0.2064  0.5376
 7183TIP3   OH221487   0.205   2.595   5.231  0.0395 -0.0708  1.0593
 7183TIP3    H121488   0.234   2.548   5.153 -1.6978  0.5194  0.0411
 7183TIP3    H221489   0.286   2.624   5.273  0.9684  0.6095 -1.1473
 7184TIP3   OH221490   8.305   4.013   6.403  0.1013 -0.0904 -0.0111
 7184TIP3    H121491   8.358   3.942   6.366  0.3900  0.5490 -0.8486
 7184TIP3    H221492   8.298   3.992   6.496  1.7430 -0.2516  0.0893
 7185TIP3   OH221493   2.185   5.076   5.294  0.3946  0.0104 -0.2702
 7185TIP3    H121494   2.215   5.118   5.213  0.5510  1.1059  0.3369
 7185TIP3    H221495   2.090   5.087   5.292  0.3719 -0.2094 -0.4350
 7186TIP3   OH221496   0.869   1.896   4.099  0.0319  0.2621 -0.4103
 7186TIP3    H121497   0.839   1.807   4.115 -0.2401  0.5620  0.8249
 7186TIP3    H221498   0.801   1.952   4.137  0.5508  0.9926 -0.5332
 7187TIP3   OH221499   2.177   3.645   6.620  0.0353  0.2150  0.8556
 7187TIP3    H121500   2.082   3.641   6.630  0.0222  0.1395  0.6982
 7187TIP3    H221501   2.207   3.691   6.699 -0.3062  1.9885 -0.0181
 7188TIP3   OH221502   0.900   3.860   5.173  0.5605  0.6533  0.6532
 7188TIP3    H121503   0.839   3.929   5.149  0.6916  0.9665  1.2063
 7188TIP3    H221504   0.855   3.812   5.243  0.8765  0.7913  0.9568
 7189TIP3   OH221505   1.835   6.474   3.589  0.1845  0.4673  0.1874
 7189TIP3    H121506   1.822   6.401   3.649  0.4115 -0.4764 -0.8739
 7189TIP3    H221507   1.846   6.432   3.503  2.3716  1.6245 -0.1423
 7190TIP3   OH221508   0.182   3.196   6.248  0.5836  0.0300 -0.3704
 7190TIP3    H121509   0.110   3.169   6.305 -0.8540  1.5961 -1.4141
 7190TIP3    H221510   0.201   3.286   6.272  1.0844  0.1663 -1.2233
 7191TIP3   OH221511   7.085   2.570   5.127 -0.0622 -0.7661  0.0599
 7191TIP3    H121512   7.097   2.531   5.214 -1.2987 -0.0767  0.5578
 7191TIP3    H221513   7.127   2.508   5.067 -0.3712 -1.9312  1.0214
 7192TIP3   OH221514   0.586   3.615   5.549  0.2728 -0.2144  0.1873
 7192TIP3    H121515   0.568   3.624   5.643  0.2328 -3.6200  0.5713
 7192TIP3    H221516   0.515   3.561   5.516  1.9201 -1.6028 -1.1839
 7193TIP3   OH221517   0.309   6.177   6.078  0.3411  0.0769  0.0170
 7193TIP3    H121518   0.329   6.218   6.162 -1.0421  0.6944  0.0660
 7193TIP3    H221519   0.217   6.198   6.062 -0.4991 -3.1623  0.1307
 7194TIP3   OH221520   0.542   2.878   6.576  0.1399  0.0989 -0.2026
 7194TIP3    H121521   0.495   2.829   6.508  0.7225 -0.6643 -0.0640
 7194TIP3    H221522   0.630   2.889   6.540 -0.0939  1.3694 -0.3863
 7195TIP3   OH221523   8.095   2.225   5.018 -0.2945 -0.1718 -0.5417
 7195TIP3    H121524   8.093   2.254   5.109 -1.7292 -0.7178 -0.3868
 7195TIP3    H221525   8.150   2.146   5.020 -2.4798 -1.7313  0.3488
 7196TIP3   OH221526   7.888   2.697   5.575 -0.6177 -0.1069 -0.3679
 7196TIP3    H121527   7.855   2.618   5.618 -3.4188 -0.3105 -2.7292
 7196TIP3    H221528   7.872   2.767   5.638 -1.1894 -0.9448  0.4338
 7197TIP3   OH221529   2.155   4.272   5.087  0.0652 -0.1059  0.1309
 7197TIP3    H121530   2.174   4.347   5.142  1.6848 -0.6983  0.4052
 7197TIP3    H221531   2.226   4.271   5.023 -0.5386 -0.7721 -0.5397
 7198TIP3   OH221532   2.402   5.108   3.507  0.1148 -0.5093  0.0104
 7198TIP3    H121533   2.482   5.068   3.472  0.3753 -0.1407  0.1830
 7198TIP3    H221534   2.399   5.195   3.468 -0.4469 -0.6890 -0.3527
 7199TIP3   OH221535   1.263   5.997   6.245  0.1433 -0.2283 -0.3784
 7199TIP3    H121536   1.203   5.984   6.171 -1.1904  1.7175  0.3270
 7199TIP3    H221537   1.238   5.928   6.307 -1.5757  0.7354  0.0285
 7200TIP3   OH221538   1.907   4.855   4.835  0.1497 -0.6866 -0.2778
 7200TIP3    H121539   1.988   4.805   4.821  0.0264 -1.0277  0.1974
 7200TIP3    H221540   1.914   4.886   4.926 -0.8683 -1.8654  0.2163
 7201TIP3   OH221541   7.524   3.671   5.459  0.1259  0.5058 -0.0947
 7201TIP3    H121542   7.558   3.587   5.492 -1.0777  0.3372  0.7650
 7201TIP3    H221543   7.479   3.648   5.378  0.4237  0.4431 -0.2455
 7202TIP3   OH221544   2.552   3.616   5.131 -0.0606 -0.0472 -0.6330
 7202TIP3    H121545   2.607   3.544   5.161  0.2266  0.0862 -0.8338
 7202TIP3    H221546   2.470   3.575   5.106  1.2286 -0.8112 -3.9770
 7203TIP3   OH221547   7.795   2.725   4.851 -0.2293 -0.1258  0.0982
 7203TIP3    H121548   7.842   2.692   4.927 -0.9958  0.1713  0.7088
 7203TIP3    H221549   7.830   2.814   4.838  1.7834 -1.1204 -1.5046
 7204TIP3   OH221550   0.212   3.238   5.564  0.0127  0.1038  0.1921
 7204TIP3    H121551   0.294   3.231   5.612  0.0881 -0.9026 -0.0597
 7204TIP3    H221552   0.224   3.314   5.507  0.8396 -0.1484  0.0222
 7205TIP3   OH221553   2.652   0.301   6.843 -1.0025 -0.1673 -0.0529
 7205TIP3    H121554   2.699   0.377   6.877  0.0619  0.8108 -3.4924
 7205TIP3    H221555   2.706   0.226   6.870 -0.0007  0.5875  0.0944
 7206TIP3   OH221556   8.429   2.751   5.568 -0.3878 -0.0481  0.5452
 7206TIP3    H121557   8.479   2.832   5.578 -0.5570  0.1453 -0.1583
 7206TIP3    H221558   8.351   2.763   5.623 -1.0293  0.7716 -0.5307
 7207TIP3   OH221559   0.223   2.956   1.282 -0.2733  0.2222 -0.0503
 7207TIP3    H121560   0.212   3.028   1.220  0.1784  0.2226 -0.1317
 7207TIP3    H221561   0.231   2.999   1.368  3.7537  0.5362 -0.4851
 7208TIP3   OH221562   7.704   2.941   6.149  0.0944  0.3738  0.6716
 7208TIP3    H121563   7.644   2.998   6.197 -0.0493  0.0372  0.8915
 7208TIP3    H221564   7.682   2.853   6.179 -0.5183  0.0852 -0.5569
 7209TIP3   OH221565   0.253   1.611   5.289  0.1582  0.1948  1.0732
 7209TIP3    H121566   0.181   1.627   5.229 -0.8492 -0.5660  2.0621
 7209TIP3    H221567   0.223   1.540   5.345  1.8034 -0.3581  1.2953
 7210TIP3   OH221568   1.641   5.029   2.875 -0.8685  0.5034  0.4897
 7210TIP3    H121569   1.665   4.978   2.797 -1.2757 -0.9147  1.2665
 7210TIP3    H221570   1.662   5.119   2.852  1.8811 -0.2458 -0.1516
 7211TIP3   OH221571   7.056   1.641   3.677  0.1782 -0.5124 -0.2833
 7211TIP3    H121572   7.083   1.559   3.636 -0.6560 -0.7371 -0.3921
 7211TIP3    H221573   7.002   1.614   3.752 -0.0636 -0.0717 -0.2913
 7212TIP3   OH221574   0.506   3.258   3.793 -0.1019  0.2278  0.2516
 7212TIP3    H121575   0.576   3.210   3.837 -1.9096 -2.4683  0.3074
 7212TIP3    H221576   0.440   3.271   3.862 -1.2640 -0.5904 -0.6877
 7213TIP3   OH221577   7.948   2.692   3.656 -0.1593 -0.7243  0.1601
 7213TIP3    H121578   7.857   2.675   3.632 -0.6194 -0.1546  1.4753
 7213TIP3    H221579   7.966   2.781   3.626 -0.7559  0.0147  1.8976
 7214TIP3   OH221580   8.434   2.767   3.710 -0.1461  0.6581 -0.4365
 7214TIP3    H121581   8.445   2.686   3.659 -1.4381 -0.4194  0.9324
 7214TIP3    H221582   8.476   2.835   3.657  1.1800 -0.9556 -1.5018
 7215TIP3   OH221583   6.454   3.796   3.245  0.2822  0.1200  0.1273
 7215TIP3    H121584   6.531   3.792   3.188 -0.3831  1.1005 -0.8643
 7215TIP3    H221585   6.487   3.774   3.332  1.2586 -1.7452 -0.6795
 7216TIP3   OH221586   7.130   5.170   5.361  0.2248  0.2701 -0.5251
 7216TIP3    H121587   7.107   5.085   5.326  0.0077  0.6060 -1.2060
 7216TIP3    H221588   7.055   5.226   5.341  0.8272  0.8954 -1.0694
 7217TIP3   OH221589   6.855   3.050   5.046 -0.3742 -0.2988 -1.2797
 7217TIP3    H121590   6.899   2.977   5.090  1.9291  0.5972 -2.0135
 7217TIP3    H221591   6.839   3.113   5.116  2.0877  0.5579 -1.4311
 7218TIP3   OH221592   2.225   3.548   5.156 -0.1920  0.0556 -0.2216
 7218TIP3    H121593   2.205   3.469   5.207  2.4667  0.7066  1.9528
 7218TIP3    H221594   2.159   3.549   5.086 -1.7788 -2.7539  1.1511
 7219TIP3   OH221595   1.054   1.106   2.582 -0.3790 -0.1024  0.0896
 7219TIP3    H121596   1.094   1.187   2.551  0.2960 -0.0722  1.0040
 7219TIP3    H221597   1.068   1.044   2.511 -1.8279  0.8527 -1.0569
 7220TIP3   OH221598   1.409   2.565   4.696 -0.0769  0.2607 -0.1236
 7220TIP3    H121599   1.388   2.628   4.628 -2.3626 -0.6891 -0.3376
 7220TIP3    H221600   1.422   2.482   4.649  1.0519  0.1593  0.3390
 7221TIP3   OH221601   1.994   1.173   2.609 -0.0368  0.1416 -0.1141
 7221TIP3    H121602   1.939   1.208   2.539  0.7450 -0.1725 -0.8998
 7221TIP3    H221603   1.940   1.109   2.654 -0.3243 -0.1285 -0.8493
 7222TIP3   OH221604   1.275   4.874   5.040  0.8634 -0.4366 -0.8505
 7222TIP3    H121605   1.245   4.802   5.096  0.3013  0.3745 -0.0881
 7222TIP3    H221606   1.369   4.861   5.033  0.8072 -1.0876 -0.4719
 7223TIP3   OH221607   7.429   3.815   4.067 -0.1551  0.3203  0.0457
 7223TIP3    H121608   7.489   3.742   4.080  1.4648  2.0223  2.5358
 7223TIP3    H221609   7.343   3.781   4.092  0.2743 -1.2070 -0.4803
 7224TIP3   OH221610   0.835   4.223   5.676 -0.3423  0.2873 -0.3123
 7224TIP3    H121611   0.852   4.300   5.730 -0.4131  0.5550 -0.6661
 7224TIP3    H221612   0.917   4.210   5.628 -0.3303  0.1444 -0.2508
 7225TIP3   OH221613   5.839   0.128   1.625 -0.0007 -0.3532 -0.3678
 7225TIP3    H121614   5.811   0.130   1.533  1.6454  0.6916 -0.8700
 7225TIP3    H221615   5.829   0.036   1.651 -3.4125 -0.1447 -0.6189
 7226TIP3   OH221616   1.147   4.690   3.799  0.2917 -0.1393 -0.1458
 7226TIP3    H121617   1.077   4.753   3.820 -1.9480 -2.7262  0.4223
 7226TIP3    H221618   1.198   4.684   3.880 -0.0488  0.2237  0.0982
 7227TIP3   OH221619   1.122   3.442   4.050 -0.7697  0.3498 -0.2931
 7227TIP3    H121620   1.041   3.475   4.090  0.4362  0.1777  2.4316
 7227TIP3    H221621   1.101   3.353   4.023 -1.4390  0.2399  0.5734
 7228TIP3   OH221622   0.921   2.558   3.721 -0.0035  0.0931  0.5888
 7228TIP3    H121623   0.996   2.606   3.756  0.4463  0.3079 -0.6597
 7228TIP3    H221624   0.958   2.496   3.659 -0.8822  0.3584 -0.2180
 7229TIP3   OH221625   0.753   5.778   4.366 -0.1211  0.5020 -0.0498
 7229TIP3    H121626   0.766   5.774   4.461  0.6465  1.1275 -0.1221
 7229TIP3    H221627   0.766   5.687   4.337 -2.7082 -0.1518  0.7108
 7230TIP3   OH221628   0.112   5.976   3.547  0.0086 -0.8485  0.5908
 7230TIP3    H121629   0.084   5.980   3.639 -0.7060 -1.0817  0.3846
 7230TIP3    H221630   0.070   5.898   3.512 -2.9183  1.3209 -0.9758
 7231TIP3   OH221631   1.905   2.759   4.627  0.1966 -0.4910  0.1796
 7231TIP3    H121632   1.828   2.769   4.570  0.8150 -1.1375 -0.7909
 7231TIP3    H221633   1.893   2.673   4.667 -0.0277 -0.2154  0.6982
 7232TIP3   OH221634   7.507   2.435   4.712  0.1916 -0.1158  0.4001
 7232TIP3    H121635   7.526   2.495   4.639 -2.4618  0.9676  0.5081
 7232TIP3    H221636   7.501   2.492   4.788 -2.2282 -0.4871  0.5293
 7233TIP3   OH221637   6.310   2.912   6.718 -0.3414  0.5095 -0.0382
 7233TIP3    H121638   6.249   2.888   6.787 -0.8091  1.0164 -0.2606
 7233TIP3    H221639   6.260   2.898   6.637  0.4095 -0.6624 -0.2962
 7234TIP3   OH221640   0.708   3.257   3.526  0.8647 -0.0964 -0.2519
 7234TIP3    H121641   0.680   3.331   3.580 -0.0038  0.2628 -1.1846
 7234TIP3    H221642   0.737   3.191   3.589  1.2034  0.8510  0.6084
 7235TIP3   OH221643   1.192   2.665   5.558 -0.3195  0.5615 -0.5708
 7235TIP3    H121644   1.144   2.747   5.544  0.8788  1.2849 -0.5672
 7235TIP3    H221645   1.269   2.674   5.501 -0.4675 -0.8116 -0.9911
 7236TIP3   OH221646   1.490   3.583   6.774 -0.0330 -0.8958  0.0344
 7236TIP3    H121647   1.461   3.492   6.781 -2.1564 -0.3191 -0.8840
 7236TIP3    H221648   1.414   3.634   6.799  1.6636  0.6417  2.2314
 7237TIP3   OH221649   0.029   3.688   6.717 -0.1240 -0.2148  0.4767
 7237TIP3    H121650   0.023   3.619   6.651 -2.3104 -0.8401  1.2829
 7237TIP3    H221651  -0.028   3.757   6.683 -0.1853  0.0186  1.0545
 7238TIP3   OH221652   0.020   3.054   4.891  0.0561  0.2001 -0.2840
 7238TIP3    H121653   0.051   3.049   4.981  0.7826  0.1402 -0.5306
 7238TIP3    H221654   0.043   3.142   4.862  0.5305 -0.0484 -0.6632
 7239TIP3   OH221655   7.625   2.549   5.187  1.2030  0.9888  0.3794
 7239TIP3    H121656   7.683   2.502   5.127  0.5608  2.5005 -1.4588
 7239TIP3    H221657   7.604   2.485   5.256  3.2828 -0.2393 -0.0998
 7240TIP3   OH221658   7.447   5.883   4.328  0.2068  0.3472  0.5422
 7240TIP3    H121659   7.483   5.800   4.360 -3.5645 -2.1947 -1.3757
 7240TIP3    H221660   7.492   5.899   4.246 -1.4360 -1.7445 -0.8306
 7241TIP3   OH221661   6.827   1.108   0.397  0.5334 -0.0837 -0.1041
 7241TIP3    H121662   6.867   1.049   0.461  0.6090 -0.5645 -0.5915
 7241TIP3    H221663   6.733   1.097   0.410  0.5384 -0.6209 -0.4581
 7242TIP3   OH221664   1.675   4.806   0.994 -0.1518  0.0215 -0.2465
 7242TIP3    H121665   1.689   4.711   0.996  0.0935  0.0594 -0.2034
 7242TIP3    H221666   1.599   4.818   0.937 -0.1592 -0.1982 -0.2827
 7243TIP3   OH221667   8.308   1.945   5.333  0.3291 -0.0807  0.0202
 7243TIP3    H121668   8.369   1.905   5.395 -0.9879  0.0543  1.4313
 7243TIP3    H221669   8.237   1.978   5.387  0.5420  2.6256 -1.2874
 7244TIP3   OH221670   0.404   3.927   2.882 -0.2527 -0.2895  0.3839
 7244TIP3    H121671   0.496   3.915   2.903  0.0105  0.1890 -0.5027
 7244TIP3    H221672   0.363   3.949   2.966  0.5434  0.1347  0.6654
 7245TIP3   OH221673   4.846   2.476   0.098 -0.2678  0.2062 -0.3485
 7245TIP3    H121674   4.758   2.488   0.062 -0.1570  0.6982 -0.4586
 7245TIP3    H221675   4.848   2.531   0.176 -0.8292 -1.5911  0.9707
 7246TIP3   OH221676   1.527   5.277   5.202 -0.9121  0.1093  0.0775
 7246TIP3    H121677   1.520   5.355   5.148 -0.3361  0.1847  0.1147
 7246TIP3    H221678   1.594   5.223   5.159 -0.7579 -0.0220  0.4764
 7247TIP3   OH221679   0.998   5.252   6.040 -0.0153  0.2717  0.3063
 7247TIP3    H121680   1.068   5.195   6.072 -1.1588 -0.7306  1.0782
 7247TIP3    H221681   0.964   5.296   6.119 -1.9102 -1.1524  0.3283
 7248TIP3   OH221682   0.878   3.524   4.145 -0.2417 -0.6818  0.0373
 7248TIP3    H121683   0.817   3.457   4.177  0.6278 -1.0366  0.9940
 7248TIP3    H221684   0.849   3.605   4.188 -0.4373 -0.7246 -0.0131
 7249TIP3   OH221685   2.801   4.137   5.313 -0.0540  0.4269 -0.8184
 7249TIP3    H121686   2.753   4.057   5.336  1.2717  0.0595  0.7777
 7249TIP3    H221687   2.859   4.111   5.242 -1.3909  0.5920 -1.9830
 7250TIP3   OH221688   2.406   1.206   5.925 -0.0557  0.6511  0.0708
 7250TIP3    H121689   2.345   1.203   5.851  0.6104  2.5820 -0.5842
 7250TIP3    H221690   2.359   1.165   5.997 -0.9125 -0.7996 -1.2805
 7251TIP3   OH221691   8.239   5.457   6.789  0.4029  0.0187 -0.8824
 7251TIP3    H121692   8.288   5.536   6.768 -0.0961 -0.1971 -2.9767
 7251TIP3    H221693   8.162   5.489   6.836  0.2986  0.7689 -1.5430
 7252TIP3   OH221694   2.223   2.727   5.082  0.1871 -0.0339 -0.8554
 7252TIP3    H121695   2.192   2.683   5.162  0.2630  1.2341 -0.1070
 7252TIP3    H221696   2.144   2.742   5.031  0.2780 -1.8789 -1.5483
 7253TIP3   OH221697   2.869   3.495   5.030  0.3253 -0.1996  0.0582
 7253TIP3    H121698   2.835   3.425   5.086  1.0048 -1.8903 -1.6212
 7253TIP3    H221699   2.919   3.551   5.090  0.9247 -1.9078  1.1695
 7254TIP3   OH221700   1.388   3.447   4.722  0.0691 -0.3127 -0.6595
 7254TIP3    H121701   1.327   3.460   4.649 -0.1347  0.6388 -0.3245
 7254TIP3    H221702   1.454   3.386   4.687 -0.1247 -0.0100 -1.5862
 7255TIP3   OH221703   2.957   4.499   6.863 -0.1183 -0.1349 -0.1026
 7255TIP3    H121704   3.036   4.550   6.878 -0.4122 -0.1434  1.5882
 7255TIP3    H221705   2.899   4.558   6.815  0.2273  0.4967  0.2494
 7256TIP3   OH221706   2.853   0.992   6.626  0.1358 -0.2448  0.0243
 7256TIP3    H121707   2.899   0.909   6.624 -1.1190 -0.9294 -1.6819
 7256TIP3    H221708   2.773   0.974   6.676  1.3240  0.7440  2.3369
 7257TIP3   OH221709   2.403   3.108   1.852 -0.2205 -0.7894 -0.0560
 7257TIP3    H121710   2.459   3.033   1.829  0.1749 -0.1062 -1.3277
 7257TIP3    H221711   2.443   3.182   1.806 -1.4910 -0.0773 -0.0059
 7258TIP3   OH221712   1.106   2.514   3.328 -0.1528  0.3046 -0.1281
 7258TIP3    H121713   1.051   2.553   3.260 -0.2914 -0.7278 -0.6113
 7258TIP3    H221714   1.178   2.473   3.280  0.7636  1.1988  0.4713
 7259TIP3   OH221715   0.322   3.148   3.623  0.1305  0.4222 -0.1212
 7259TIP3    H121716   0.314   3.065   3.670 -3.1683  1.0786  0.6280
 7259TIP3    H221717   0.393   3.194   3.667  0.1086 -0.8492  1.2886
 7260TIP3   OH221718   2.232   4.474   5.465  0.2120 -0.6464 -0.1639
 7260TIP3    H121719   2.325   4.477   5.445  0.2998 -0.3101  0.2994
 7260TIP3    H221720   2.218   4.545   5.527 -0.6331  0.2877 -1.4026
 7261TIP3   OH221721   1.609   4.456   5.598  0.0445  0.3794  0.2332
 7261TIP3    H121722   1.606   4.376   5.651 -1.9143 -0.9790 -1.8522
 7261TIP3    H221723   1.601   4.527   5.662 -1.9890 -1.1928  1.7952
 7262TIP3   OH221724   6.852   0.437   0.773 -0.2457 -0.6189 -0.3481
 7262TIP3    H121725   6.813   0.427   0.687  1.7132 -1.4605 -1.1586
 7262TIP3    H221726   6.778   0.461   0.830 -1.7955 -1.4836 -1.9513
 7263TIP3   OH221727   0.294   2.152   5.099  0.2034  0.4456 -0.3043
 7263TIP3    H121728   0.271   2.140   5.191 -1.0147 -1.3473 -0.8066
 7263TIP3    H221729   0.388   2.133   5.095  0.0520 -0.4820  0.4052
 7264TIP3   OH221730   0.239   2.812   5.884  0.1269  0.1573  0.1181
 7264TIP3    H121731   0.188   2.814   5.965 -0.7095  0.1215 -0.4070
 7264TIP3    H221732   0.197   2.875   5.827  0.9413  0.4524 -0.1684
 7265TIP3   OH221733   7.931   5.788   4.711  0.1850  0.0736  0.1766
 7265TIP3    H121734   7.900   5.838   4.636 -0.8997 -1.9997 -0.7804
 7265TIP3    H221735   7.945   5.700   4.677  1.9166 -0.3360  1.8739
 7266TIP3   OH221736   2.156   1.739   4.473 -0.1428 -0.5256 -0.1925
 7266TIP3    H121737   2.133   1.682   4.546 -1.6373 -0.7189 -0.7805
 7266TIP3    H221738   2.246   1.716   4.451 -1.6605 -4.9086 -2.4016
 7267TIP3   OH221739   4.920   4.342   6.045 -0.1192  0.8049  0.1947
 7267TIP3    H121740   4.874   4.398   5.983  0.1393 -1.1601 -1.8214
 7267TIP3    H221741   4.866   4.263   6.050  1.7606 -0.5244 -0.3222
 7268TIP3   OH221742   8.356   5.124   3.716 -0.0405 -0.1023 -0.3209
 7268TIP3    H121743   8.270   5.083   3.723  0.4469 -1.3994 -1.7163
 7268TIP3    H221744   8.375   5.154   3.805 -1.4638 -0.7387  0.2215
 7269TIP3   OH221745   7.020   2.261   6.210 -0.0588 -0.1874  0.0610
 7269TIP3    H121746   6.975   2.300   6.135 -0.4557 -1.2568 -0.2687
 7269TIP3    H221747   7.060   2.181   6.175 -0.2534 -0.6973  0.9901
 7270TIP3   OH221748   0.156   3.361   3.520  0.1828 -0.4113 -0.7261
 7270TIP3    H121749   0.158   3.338   3.427  1.4057  0.0203 -0.8154
 7270TIP3    H221750   0.211   3.295   3.562 -0.1086 -0.4154 -0.3481
 7271TIP3   OH221751   0.084   5.190   4.669 -0.9717 -0.2496 -0.0441
 7271TIP3    H121752   0.080   5.095   4.681  1.9514 -0.3956  0.2612
 7271TIP3    H221753   0.113   5.202   4.579  1.9547  0.2329  0.9200
 7272TIP3   OH221754   6.507   0.396   0.707 -0.2391 -0.3898  0.9790
 7272TIP3    H121755   6.425   0.445   0.701 -0.5365 -1.1077 -1.2078
 7272TIP3    H221756   6.571   0.459   0.742 -0.7717  1.3517 -1.1112
 7273TIP3   OH221757   1.443   6.516   6.028 -0.5137 -0.1011  0.2935
 7273TIP3    H121758   1.402   6.565   5.957 -0.2594  0.8398  0.7761
 7273TIP3    H221759   1.530   6.555   6.036 -0.3323 -0.5952  0.7267
 7274TIP3   OH221760   8.217   3.510   3.906  0.3547 -0.1381 -0.4492
 7274TIP3    H121761   8.234   3.540   3.817  1.5034  0.3580 -0.0622
 7274TIP3    H221762   8.284   3.552   3.960  0.2926 -1.2114  0.5022
 7275TIP3   OH221763   8.213   4.378   4.106 -0.4195 -0.0714 -0.3097
 7275TIP3    H121764   8.146   4.372   4.038 -0.1600  2.2390 -0.8442
 7275TIP3    H221765   8.165   4.372   4.188 -0.7038 -3.2398 -0.6409
 7276TIP3   OH221766   0.468   4.339   6.850 -0.0291  0.4274 -0.6545
 7276TIP3    H121767   0.518   4.351   6.769  0.1661 -3.5985 -1.2556
 7276TIP3    H221768   0.393   4.285   6.823 -1.4023  1.2718  1.3785
 7277TIP3   OH221769   7.215   2.379   1.109 -0.1304  0.0393 -0.0013
 7277TIP3    H121770   7.207   2.292   1.071  0.1421  0.8545 -2.0050
 7277TIP3    H221771   7.300   2.411   1.078 -0.5617  1.3063  0.1007
 7278TIP3   OH221772   6.687   4.600   6.346 -0.0443  0.2830 -0.4415
 7278TIP3    H121773   6.618   4.539   6.319 -1.3507  1.2923  0.5678
 7278TIP3    H221774   6.734   4.620   6.265  0.8499 -2.5596 -0.6868
 7279TIP3   OH221775   1.015   1.269   5.760 -0.4816 -0.5786 -0.5856
 7279TIP3    H121776   0.925   1.240   5.773 -0.5838  0.2985  0.8027
 7279TIP3    H221777   1.031   1.257   5.667 -1.9836 -0.8849 -0.8133
 7280TIP3   OH221778   8.249   3.169   4.926 -0.1345  0.3098 -0.6131
 7280TIP3    H121779   8.327   3.129   4.886 -0.6779 -1.3881 -0.0537
 7280TIP3    H221780   8.256   3.147   5.019 -0.4952  1.4843 -0.3038
 7281TIP3   OH221781   1.064   1.998   5.307  0.2659  0.4953 -0.2511
 7281TIP3    H121782   0.969   2.008   5.307  0.1374 -0.5159 -2.2635
 7281TIP3    H221783   1.094   2.048   5.231  1.1994 -0.4078 -0.4904
 7282TIP3   OH221784   7.580   2.009   3.592  0.7352  0.3593 -0.5048
 7282TIP3    H121785   7.574   2.099   3.625 -0.0544  0.4363 -0.8358
 7282TIP3    H221786   7.584   2.019   3.497  0.7903  0.0511 -0.5332
 7283TIP3   OH221787   1.012   1.552   2.878  0.1917  0.2856 -0.2375
 7283TIP3    H121788   0.944   1.520   2.938 -1.3023  0.2390 -1.9212
 7283TIP3    H221789   1.077   1.481   2.875 -1.1967 -0.9721 -0.9593
 7284TIP3   OH221790   8.419   3.643   4.013 -0.6680  0.0336 -0.3967
 7284TIP3    H121791   8.451   3.730   4.037 -1.3544  0.2800 -0.3675
 7284TIP3    H221792   8.497   3.587   4.017 -0.2608  0.6049 -0.2229
 7285TIP3   OH221793   0.224   2.726   4.251 -0.9480 -0.0919  0.0150
 7285TIP3    H121794   0.155   2.766   4.198 -1.7898 -0.5672  0.7330
 7285TIP3    H221795   0.263   2.661   4.193 -2.2750 -1.0359  0.1535
 7286TIP3   OH221796   5.636   6.848   5.943 -0.1295 -0.3948  0.1051
 7286TIP3    H121797   5.701   6.897   5.993  0.2606 -0.6900 -0.1095
 7286TIP3    H221798   5.582   6.915   5.901  1.1899 -0.1392 -1.2114
 7287TIP3   OH221799   8.343   0.422   2.998 -0.1796 -0.4702  0.0683
 7287TIP3    H121800   8.353   0.462   2.912  3.5573  0.5758  0.9020
 7287TIP3    H221801   8.266   0.464   3.036 -0.9043  0.2173 -2.1271
 7288TIP3   OH221802   1.191   2.354   4.996  0.1300 -0.0316  0.1023
 7288TIP3    H121803   1.212   2.441   4.962 -1.1645  0.6163  0.9177
 7288TIP3    H221804   1.207   2.295   4.923 -0.0123  1.0217 -0.7846
 7289TIP3   OH221805   8.129   4.045   5.500 -0.1099 -0.0059 -0.8321
 7289TIP3    H121806   8.199   3.983   5.514 -1.2156 -1.1740 -0.3547
 7289TIP3    H221807   8.173   4.126   5.474  1.2996 -1.1418 -2.0413
 7290TIP3   OH221808   1.488   3.168   4.229  0.4010  0.3783  0.1345
 7290TIP3    H121809   1.529   3.107   4.290 -1.0953 -0.0801  0.7066
 7290TIP3    H221810   1.418   3.117   4.188 -0.5851  1.5811  0.3055
 7291TIP3   OH221811   1.769   7.461   0.028 -0.4170 -0.7387  0.0033
 7291TIP3    H121812   1.825   7.384   0.035 -3.6350 -3.2492 -0.7113
 7291TIP3    H221813   1.728   7.470   0.115 -1.2904 -0.8523 -0.3867
 7292TIP3   OH221814   2.743   5.798   0.290  0.1326 -0.5022  0.5413
 7292TIP3    H121815   2.826   5.751   0.301  1.6669  1.7186 -0.8903
 7292TIP3    H221816   2.721   5.828   0.379  1.7847  0.2817  0.7210
 7293TIP3   OH221817   1.843   4.236   5.707 -0.5703 -0.2050  0.2782
 7293TIP3    H121818   1.869   4.278   5.625 -2.4172 -0.0827 -0.2494
 7293TIP3    H221819   1.816   4.148   5.681 -2.9588  0.4480  0.4790
 7294TIP3   OH221820   1.780   2.499   4.726  0.8180 -0.2427 -0.0711
 7294TIP3    H121821   1.844   2.431   4.702  1.0241 -0.7549  1.8848
 7294TIP3    H221822   1.742   2.468   4.808  0.2976  1.6071  0.3966
 7295TIP3   OH221823   1.202   3.088   3.739  0.1846  0.0322 -0.5490
 7295TIP3    H121824   1.166   3.023   3.679  1.1695  0.1247 -1.2380
 7295TIP3    H221825   1.294   3.095   3.716  0.1179  1.6044 -0.4049
 7296TIP3   OH221826   1.423   2.716   3.276 -0.4050 -0.1297 -0.2855
 7296TIP3    H121827   1.373   2.784   3.321 -0.0776 -0.7088  0.9630
 7296TIP3    H221828   1.470   2.763   3.207 -0.3655  0.8803  0.4159
 7297TIP3   OH221829   1.775   3.713   4.775 -0.7689  0.2750 -0.0922
 7297TIP3    H121830   1.742   3.628   4.803 -0.6420  0.6860  1.3122
 7297TIP3    H221831   1.862   3.720   4.815 -0.5396  0.8211 -0.6723
 7298TIP3   OH221832   1.781   5.469   5.671 -0.0178  0.4015 -0.5833
 7298TIP3    H121833   1.859   5.513   5.638 -0.2181  0.9805 -0.2967
 7298TIP3    H221834   1.733   5.538   5.717  0.0082 -0.2706  0.4714
 7299TIP3   OH221835   1.565   6.361   2.285  0.0195 -0.0523 -0.3042
 7299TIP3    H121836   1.573   6.450   2.251  0.8916 -0.2769 -0.7058
 7299TIP3    H221837   1.513   6.315   2.219  0.0297  0.0203 -0.3632
 7300TIP3   OH221838   2.615   4.499   5.774  0.5900  0.5964 -0.1158
 7300TIP3    H121839   2.692   4.521   5.720  0.5332  2.3944  0.4850
 7300TIP3    H221840   2.541   4.512   5.715  0.7630 -1.9065 -0.9297
 7301TIP3   OH221841   4.103   4.333   5.748 -0.5492 -0.2699 -0.1385
 7301TIP3    H121842   4.170   4.375   5.694  0.0036 -0.6370  0.2565
 7301TIP3    H221843   4.062   4.269   5.690 -0.7281  0.1216 -0.4519
 7302TIP3   OH221844   2.535   2.730   5.680 -0.0227 -0.0948  1.0781
 7302TIP3    H121845   2.613   2.680   5.701  0.5748  0.0525 -0.6926
 7302TIP3    H221846   2.561   2.822   5.690 -0.1793 -0.0629  1.1981
 7303TIP3   OH221847   2.592   2.495   4.689 -0.0363  0.0366  0.4249
 7303TIP3    H121848   2.569   2.583   4.720  1.2389  0.2786  0.7131
 7303TIP3    H221849   2.561   2.493   4.599 -0.5836  0.5876  0.5937
 7304TIP3   OH221850   5.610   0.941   0.656  0.5272 -0.4312 -0.4965
 7304TIP3    H121851   5.602   0.949   0.751  1.2532 -0.3773 -0.4378
 7304TIP3    H221852   5.695   0.898   0.642 -0.4086 -2.1259 -1.0460
 7305TIP3   OH221853   3.031   4.255   6.318  0.3160 -0.4931 -0.2172
 7305TIP3    H121854   3.090   4.197   6.367 -1.3838 -1.3810  0.8273
 7305TIP3    H221855   2.989   4.198   6.253  0.2412  0.0211 -0.6195
 7306TIP3   OH221856   0.679   0.353   3.445 -0.2333 -0.2875 -0.3861
 7306TIP3    H121857   0.728   0.359   3.363 -0.7362 -1.2791 -0.7786
 7306TIP3    H221858   0.739   0.384   3.512  0.3097  0.1893 -1.0939
 7307TIP3   OH221859   1.675   5.806   4.475 -0.2245  0.0485  0.0532
 7307TIP3    H121860   1.603   5.827   4.415  1.9393  1.1156 -2.2506
 7307TIP3    H221861   1.734   5.750   4.424  0.5609 -0.9008  1.9400
 7308TIP3   OH221862   3.094   3.777   4.079 -0.3821 -0.0797  0.2520
 7308TIP3    H121863   3.110   3.727   4.159 -0.2761 -1.0103 -0.3478
 7308TIP3    H221864   3.125   3.721   4.009 -2.1774 -0.0706 -0.5886
 7309TIP3   OH221865   1.025   1.745   6.023  0.4427 -0.1071 -0.4007
 7309TIP3    H121866   1.048   1.837   6.032 -2.2005  0.5890 -0.2897
 7309TIP3    H221867   1.064   1.719   5.939  1.0622  1.1502 -0.5142
 7310TIP3   OH221868   2.667   4.306   3.833  0.4310  0.9598  0.0144
 7310TIP3    H121869   2.605   4.239   3.804  2.0864  0.4321 -2.4270
 7310TIP3    H221870   2.639   4.385   3.787  2.3223  0.4037 -2.1895
 7311TIP3   OH221871   0.164   2.269   2.231 -0.0936  0.2984  0.7264
 7311TIP3    H121872   0.139   2.340   2.171  0.1573  0.3317  0.6622
 7311TIP3    H221873   0.136   2.299   2.317  0.1636  0.5464  0.7218
 7312TIP3   OH221874   1.770   5.017   1.749 -0.0560 -0.1715 -0.4380
 7312TIP3    H121875   1.786   5.079   1.678 -1.4555  0.7489  0.0317
 7312TIP3    H221876   1.842   5.033   1.810  1.1627 -0.9835 -1.6350
 7313TIP3   OH221877   1.051   2.547   2.747 -0.0142  0.7557  0.0346
 7313TIP3    H121878   0.971   2.494   2.744 -0.3018  1.1517  0.5269
 7313TIP3    H221879   1.062   2.578   2.657 -1.3547  2.0489  0.2863
 7314TIP3   OH221880   1.862   1.476   5.605  0.0348 -0.0271 -0.7954
 7314TIP3    H121881   1.897   1.559   5.573  0.6555  0.3385  0.7575
 7314TIP3    H221882   1.929   1.445   5.667 -0.7168 -1.1277 -0.5274
 7315TIP3   OH221883   2.072   4.860   5.812  0.2029  0.4472 -0.2191
 7315TIP3    H121884   2.082   4.915   5.735 -1.7194 -0.6934 -1.3442
 7315TIP3    H221885   2.110   4.776   5.787 -0.6603 -0.0065 -0.0456
 7316TIP3   OH221886   3.362   3.385   4.346  0.2703 -0.5097  0.4996
 7316TIP3    H121887   3.384   3.370   4.437  0.5824  1.6726  0.8222
 7316TIP3    H221888   3.447   3.385   4.301  0.3464  0.8816  0.6212
 7317TIP3   OH221889   3.009   5.211   5.482  0.6626  0.3784  0.3033
 7317TIP3    H121890   2.914   5.200   5.476  0.7690 -0.2705 -0.1515
 7317TIP3    H221891   3.032   5.262   5.404  0.4730  1.9563  1.2553
 7318TIP3   OH221892   2.106   3.590   3.596  0.3837  0.2409  0.0960
 7318TIP3    H121893   2.085   3.503   3.562 -0.4846 -0.2276  1.7591
 7318TIP3    H221894   2.196   3.607   3.568  0.1176 -0.6395 -1.3263
 7319TIP3   OH221895   2.262   3.763   6.883 -0.2738 -0.8931  0.3020
 7319TIP3    H121896   2.302   3.845   6.911  1.0584 -1.1064 -0.8609
 7319TIP3    H221897   2.202   3.739   6.953 -1.5277  1.6556  0.1196
 7320TIP3   OH221898   0.981   4.154   5.432  0.4688 -0.2134  0.2881
 7320TIP3    H121899   1.036   4.099   5.376  0.0340 -2.3423  1.9198
 7320TIP3    H221900   0.898   4.161   5.384  1.3484  1.1309 -1.0991
 7321TIP3   OH221901   1.512   4.364   5.339 -0.4093  0.3162  0.1958
 7321TIP3    H121902   1.441   4.314   5.299 -0.6395  0.8842 -0.1132
 7321TIP3    H221903   1.469   4.418   5.406 -0.1261 -0.0915  0.7137
 7322TIP3   OH221904   6.631   0.742   0.036 -0.2788 -0.2619 -0.3023
 7322TIP3    H121905   6.640   0.766   0.128  2.3800 -2.5896  0.1103
 7322TIP3    H221906   6.572   0.667   0.036  1.2767 -1.4963 -0.2747
 7323TIP3   OH221907   1.871   4.439   6.658  0.2747  0.0790 -0.5835
 7323TIP3    H121908   1.866   4.461   6.565 -0.4467 -0.8474 -0.7638
 7323TIP3    H221909   1.890   4.345   6.660  0.1492  0.0659  0.2097
 7324TIP3   OH221910   1.359   4.592   6.865 -0.1487  0.0167 -0.5261
 7324TIP3    H121911   1.322   4.653   6.928 -1.1926 -1.2281  0.0811
 7324TIP3    H221912   1.427   4.545   6.914  0.2790  0.3105 -0.8365
 7325TIP3   OH221913   3.215   4.246   3.647 -0.1065  0.1456  0.0351
 7325TIP3    H121914   3.217   4.225   3.741 -0.6285  0.7968  0.1973
 7325TIP3    H221915   3.300   4.285   3.629  0.3797 -0.9030  0.0128
 7326TIP3   OH221916   8.244   2.187   3.998  0.3019 -0.1629 -0.3206
 7326TIP3    H121917   8.249   2.187   3.902  0.9129 -0.6148 -0.2867
 7326TIP3    H221918   8.175   2.124   4.018 -2.3544  2.5132 -0.5849
 7327TIP3   OH221919   4.803   4.724   1.075 -0.8986 -0.2451  0.3886
 7327TIP3    H121920   4.879   4.666   1.076 -0.6768 -0.0411 -2.1803
 7327TIP3    H221921   4.781   4.735   1.167  1.8678 -0.7128  1.1599
 7328TIP3   OH221922   0.898   4.072   6.531  0.1352  0.0405  0.1538
 7328TIP3    H121923   0.990   4.100   6.532 -0.2517  1.3344  1.4519
 7328TIP3    H221924   0.867   4.089   6.620 -1.0468 -1.4664  0.0424
 7329TIP3   OH221925   3.141   3.196   4.379  0.0103  0.7418 -0.1353
 7329TIP3    H121926   3.169   3.106   4.362 -0.0059  0.5352  0.8980
 7329TIP3    H221927   3.221   3.248   4.368  0.3620  0.4040  0.8043
 7330TIP3   OH221928   2.582   5.197   5.802 -0.1290 -0.0097  0.1261
 7330TIP3    H121929   2.593   5.267   5.866  0.3479  0.3049 -0.3004
 7330TIP3    H221930   2.531   5.131   5.848 -2.1236  1.3688 -0.0026
 7331TIP3   OH221931   8.013   2.751   5.088 -0.0598  0.1191 -0.2372
 7331TIP3    H121932   7.994   2.841   5.112  1.1476  0.5700 -0.8915
 7331TIP3    H221933   8.064   2.758   5.007 -0.6218 -1.1846 -0.7221
 7332TIP3   OH221934   3.324   4.586   3.823 -0.1088 -0.3553  0.1063
 7332TIP3    H121935   3.234   4.558   3.837 -0.0469 -0.6896 -0.1792
 7332TIP3    H221936   3.345   4.639   3.900 -0.4222 -0.5936  0.3537
 7333TIP3   OH221937   1.428   3.245   5.382  0.1348  0.1905 -0.0493
 7333TIP3    H121938   1.405   3.274   5.293 -1.3633  1.0400  0.6081
 7333TIP3    H221939   1.407   3.319   5.438 -3.5102 -1.9448  1.6442
 7334TIP3   OH221940   2.536   3.159   1.440  0.3947 -0.0813 -0.1921
 7334TIP3    H121941   2.446   3.191   1.438  0.9903  1.5937 -1.8146
 7334TIP3    H221942   2.537   3.086   1.377 -0.8305 -3.0492  3.0930
 7335TIP3   OH221943   1.274   1.629   3.329  0.4614  0.2491 -0.4127
 7335TIP3    H121944   1.263   1.724   3.321  2.8697  0.7526  1.6497
 7335TIP3    H221945   1.333   1.605   3.258  1.0882  0.5621 -0.0043
 7336TIP3   OH221946   2.352   2.198   4.816  0.0199  0.1906  0.1382
 7336TIP3    H121947   2.378   2.153   4.897  3.3367 -0.3856 -1.2051
 7336TIP3    H221948   2.354   2.291   4.838 -1.5574 -0.0438  1.3875
 7337TIP3   OH221949   4.302   5.141   1.433  0.7982  0.0820 -0.4418
 7337TIP3    H121950   4.358   5.140   1.511  0.7402  1.3769 -0.3698
 7337TIP3    H221951   4.280   5.233   1.421 -0.9373 -0.3622 -0.7525
 7338TIP3   OH221952   3.738   4.435   5.195  0.0234  0.2104 -0.6378
 7338TIP3    H121953   3.669   4.433   5.261 -0.5543  1.9512 -1.1732
 7338TIP3    H221954   3.703   4.382   5.123  0.3381 -1.0472  0.1074
 7339TIP3   OH221955   1.344   2.195   5.554 -0.2577 -0.2821 -0.1231
 7339TIP3    H121956   1.392   2.152   5.483  1.0847 -1.6107  1.5665
 7339TIP3    H221957   1.386   2.280   5.564  0.7166 -0.8020  0.2691
 7340TIP3   OH221958   2.152   2.318   2.831 -0.0604  0.1946  0.1156
 7340TIP3    H121959   2.081   2.314   2.767  0.3369 -0.6454 -0.2856
 7340TIP3    H221960   2.179   2.227   2.843  0.6028  0.4548  0.6519
 7341TIP3   OH221961   2.156   4.106   6.335  0.1331  0.1161 -0.3495
 7341TIP3    H121962   2.153   4.056   6.253  1.5626 -0.2142 -0.2151
 7341TIP3    H221963   2.100   4.056   6.395 -1.9268  1.0330 -1.4585
 7342TIP3   OH221964   1.156   2.564   1.430 -0.4563 -0.1535  0.2734
 7342TIP3    H121965   1.103   2.585   1.507  0.1620  0.3828  0.5639
 7342TIP3    H221966   1.234   2.619   1.440 -0.6208  0.3218 -1.0322
 7343TIP3   OH221967   3.659   2.812   3.457  0.0104  0.5106 -0.1806
 7343TIP3    H121968   3.636   2.766   3.376 -1.1491 -0.1908  0.5309
 7343TIP3    H221969   3.598   2.886   3.460  1.0539  1.4050 -0.6978
 7344TIP3   OH221970   1.552   2.586   3.525  0.6648 -0.0539 -0.3959
 7344TIP3    H121971   1.472   2.626   3.491  3.0429  3.9514 -1.6998
 7344TIP3    H221972   1.577   2.642   3.599  4.0693  0.9863 -2.2145
 7345TIP3   OH221973   2.043   2.564   4.434  0.2862  0.0753  0.1582
 7345TIP3    H121974   2.126   2.610   4.422  0.0658  0.0068 -1.6882
 7345TIP3    H221975   2.054   2.482   4.387 -0.4942 -0.3668  0.7360
 7346TIP3   OH221976   3.421   2.629   5.536  0.0760 -0.2745 -0.0605
 7346TIP3    H121977   3.483   2.562   5.567  0.9973  1.3171  1.6198
 7346TIP3    H221978   3.396   2.599   5.448  0.0920 -3.0709  0.8408
 7347TIP3   OH221979   2.790   4.886   6.380  0.0126 -0.3067  0.0596
 7347TIP3    H121980   2.743   4.819   6.331 -0.9684  1.6845 -1.8297
 7347TIP3    H221981   2.876   4.890   6.338  0.5677 -1.3008  1.0644
 7348TIP3   OH221982   8.100   2.729   5.365 -0.3127 -0.3288 -0.3101
 7348TIP3    H121983   8.116   2.820   5.388  0.3017 -0.1567 -1.4176
 7348TIP3    H221984   8.054   2.693   5.441 -2.3128  1.3965 -0.6729
 7349TIP3   OH221985   2.543   0.132   2.789  0.1417  0.3207  0.3876
 7349TIP3    H121986   2.606   0.074   2.746 -0.4382 -0.0028 -0.0412
 7349TIP3    H221987   2.465   0.127   2.733 -0.2686  0.6957  0.9268
 7350TIP3   OH221988   1.556   3.856   6.595  0.7751 -0.7073  0.7952
 7350TIP3    H121989   1.622   3.855   6.526  0.8336 -0.8325  0.8536
 7350TIP3    H221990   1.564   3.943   6.634 -1.3995  0.5750 -1.4329
 7351TIP3   OH221991   1.140   2.698   3.841 -0.0476  0.5941  0.7953
 7351TIP3    H121992   1.181   2.751   3.910 -0.1627  0.8577  0.6605
 7351TIP3    H221993   1.207   2.692   3.773 -0.2608  1.0955  0.5392
 7352TIP3   OH221994   0.834   4.413   6.593  0.5948  0.3460  0.1129
 7352TIP3    H121995   0.855   4.499   6.628  1.8486  0.0123  0.1976
 7352TIP3    H221996   0.910   4.389   6.540 -0.4025 -0.0508 -1.1597
 7353TIP3   OH221997   2.782   5.323   3.824  0.8410 -0.3591 -0.0289
 7353TIP3    H121998   2.765   5.370   3.906  0.5687  0.2502 -0.4278
 7353TIP3    H221999   2.733   5.241   3.833  0.7059 -0.2364  0.3688
 7354TIP3   OH222000   1.310   2.765   3.647 -0.1689  0.4376  0.5473
 7354TIP3    H122001   1.377   2.833   3.654 -0.3061  0.5375  0.8820
 7354TIP3    H222002   1.266   2.783   3.564 -0.9007  1.3893  1.1367
 7355TIP3   OH222003   3.708   3.793   4.980  0.5747  0.2903 -0.1285
 7355TIP3    H122004   3.700   3.866   4.919  1.1917  0.3272 -0.1693
 7355TIP3    H222005   3.655   3.723   4.942  0.2261  0.6206 -0.2407
 7356TIP3   OH222006   2.832   1.873   2.734  0.2444 -0.1414 -0.0334
 7356TIP3    H122007   2.744   1.864   2.769 -0.0440  0.0829 -0.6901
 7356TIP3    H222008   2.836   1.810   2.662  0.0821  0.9690 -1.0342
 7357TIP3   OH222009   6.399   1.339   0.018  0.6137 -0.0621 -0.2677
 7357TIP3    H122010   6.413   1.425  -0.021  0.5276 -0.1213 -0.4307
 7357TIP3    H222011   6.435   1.346   0.106  2.1437 -0.3643 -0.8561
 7358TIP3   OH222012   7.956   2.105   6.244 -0.1883 -0.0783  0.0083
 7358TIP3    H122013   7.997   2.036   6.297  4.1175  1.2823 -1.2867
 7358TIP3    H222014   7.946   2.066   6.157 -0.0211  0.1315 -0.1067
 7359TIP3   OH222015   3.021   3.512   5.938  0.0802  0.5372  0.2862
 7359TIP3    H122016   3.069   3.591   5.914 -1.1515  2.4229  3.7208
 7359TIP3    H222017   2.931   3.529   5.909  0.0748 -0.2346 -0.1941
 7360TIP3   OH222018   1.252   4.315   5.684 -0.3456  0.3917 -0.3355
 7360TIP3    H122019   1.344   4.291   5.698 -0.5701 -0.4764 -0.3429
 7360TIP3    H222020   1.206   4.232   5.674 -0.9867  0.8534 -1.3112
 7361TIP3   OH222021   2.368   3.747   4.372 -0.2317  0.4367  0.2307
 7361TIP3    H122022   2.462   3.754   4.355 -0.5070 -1.4494 -2.4356
 7361TIP3    H222023   2.330   3.729   4.286 -2.5562 -2.9610  1.8765
 7362TIP3   OH222024   2.866   3.415   4.532  0.4105  0.0255 -0.1950
 7362TIP3    H122025   2.872   3.498   4.580  0.1259  0.6535 -1.2305
 7362TIP3    H222026   2.827   3.439   4.448 -1.4454 -1.4487  0.2099
 7363TIP3   OH222027   2.647   5.563   0.827  0.0207  0.0722 -0.5487
 7363TIP3    H122028   2.665   5.605   0.743 -1.1028  1.6030 -0.0491
 7363TIP3    H222029   2.568   5.512   0.811  0.4187 -0.4892 -0.7104
 7364TIP3   OH222030   2.686   4.220   2.246 -0.2253  0.2994  0.3586
 7364TIP3    H122031   2.678   4.151   2.312 -0.6756 -0.3192 -0.3380
 7364TIP3    H222032   2.643   4.296   2.286  0.9779  0.4197  1.4549
 7365TIP3   OH222033   1.761   3.004   4.805 -0.0171 -0.4024  0.7845
 7365TIP3    H122034   1.714   3.077   4.846  0.8500  1.1094 -0.8533
 7365TIP3    H222035   1.693   2.957   4.756 -0.1301  0.7434 -0.1494
 7366TIP3   OH222036   6.395   0.626   0.306  0.2249 -0.7835  0.4324
 7366TIP3    H122037   6.400   0.721   0.304 -0.1179 -0.7556  0.8671
 7366TIP3    H222038   6.475   0.599   0.351 -0.0081 -0.6667  0.9233
 7367TIP3   OH222039   2.722   4.199   4.175 -0.5763  0.4833 -0.1015
 7367TIP3    H122040   2.762   4.216   4.260 -0.9280 -0.1476  0.1898
 7367TIP3    H222041   2.739   4.278   4.124 -1.5233  1.3892  0.9849
 7368TIP3   OH222042   3.295   3.826   2.945 -0.4014  0.1644 -0.2033
 7368TIP3    H122043   3.229   3.815   2.876 -1.1215  0.5930  0.4102
 7368TIP3    H222044   3.368   3.770   2.917 -1.4758 -1.2124 -0.3263
 7369TIP3   OH222045   2.230   4.567   6.723 -0.2530 -0.5464  0.0601
 7369TIP3    H122046   2.246   4.652   6.681 -0.9803 -0.6879 -0.5095
 7369TIP3    H222047   2.227   4.504   6.651  1.9306 -1.3253  0.6095
 7370TIP3   OH222048   3.650   4.201   5.056 -0.3443 -0.1307 -0.8024
 7370TIP3    H122049   3.652   4.138   4.984 -0.8477 -0.8828 -0.1689
 7370TIP3    H222050   3.588   4.163   5.118 -1.5819  1.5725 -0.9617
 7371TIP3   OH222051   2.646   4.663   1.965 -0.0876 -0.1586  0.0786
 7371TIP3    H122052   2.655   4.672   1.870  1.3419  0.2303  0.2284
 7371TIP3    H222053   2.660   4.570   1.982  0.6005 -0.0745 -0.0108
 7372TIP3   OH222054   8.145   2.443   2.949 -1.0456  0.4105  0.1704
 7372TIP3    H122055   8.209   2.501   2.990 -2.7215  2.4638 -0.0427
 7372TIP3    H222056   8.168   2.356   2.980  2.5027  0.9518 -0.7629
 7373TIP3   OH222057   1.913   3.562   5.819 -0.1612 -0.4394  0.6430
 7373TIP3    H122058   1.990   3.548   5.874  1.8755  1.5949 -1.6019
 7373TIP3    H222059   1.920   3.497   5.750 -0.4565 -0.2324  0.4144
 7374TIP3   OH222060   2.116   5.355   3.410  0.5836  0.4545 -0.3254
 7374TIP3    H122061   2.061   5.345   3.332  0.0725  0.0174  0.0917
 7374TIP3    H222062   2.205   5.347   3.376  0.4134  1.5685 -1.0634
 7375TIP3   OH222063   2.764   1.240   5.635  0.1576  0.2366 -0.1010
 7375TIP3    H122064   2.734   1.256   5.725 -0.0567  1.2190 -0.3391
 7375TIP3    H222065   2.753   1.324   5.591  2.0082  0.2728 -0.5605
 7376TIP3   OH222066   3.363   4.499   0.822 -0.2521 -0.1776 -0.5337
 7376TIP3    H122067   3.313   4.490   0.903 -0.4783 -0.0756 -0.6602
 7376TIP3    H222068   3.301   4.473   0.753  0.3320 -1.5214 -0.5725
 7377TIP3   OH222069   3.058   3.606   5.496 -0.0974  0.1462 -0.0610
 7377TIP3    H122070   2.982   3.578   5.547 -0.8434  3.5856  0.8332
 7377TIP3    H222071   3.021   3.649   5.419  0.9173  1.4747  0.1734
 7378TIP3   OH222072   2.090   3.207   2.111 -0.4017 -1.0655 -0.2028
 7378TIP3    H122073   2.076   3.118   2.142 -0.8614 -1.1535 -0.6669
 7378TIP3    H222074   2.174   3.204   2.065  0.7989 -0.7075  1.9055
 7379TIP3   OH222075   1.476   3.898   4.888  0.5114 -0.1583 -0.1943
 7379TIP3    H122076   1.556   3.950   4.881  1.4455 -1.5977 -0.4265
 7379TIP3    H222077   1.466   3.860   4.800  0.6155 -1.4785  0.3629
 7380TIP3   OH222078   3.194   2.574   4.973 -0.2951 -0.6220 -0.7143
 7380TIP3    H122079   3.180   2.668   4.962 -1.1299 -0.8684 -1.7257
 7380TIP3    H222080   3.178   2.536   4.887 -5.1528 -2.3136  0.7717
 7381TIP3   OH222081   2.618   4.461   2.370 -0.7148  0.2578  0.1882
 7381TIP3    H122082   2.530   4.497   2.373 -0.7263  0.2178  0.3453
 7381TIP3    H222083   2.672   4.531   2.332 -0.4583  1.0209  1.9263
 7382TIP3   OH222084   0.644   5.228   4.090 -0.1534 -0.0405 -0.1682
 7382TIP3    H122085   0.686   5.269   4.015 -1.0659 -1.6216 -1.5566
 7382TIP3    H222086   0.575   5.290   4.115  0.1281  0.4717 -0.6361
 7383TIP3   OH222087   1.961   4.095   5.219  0.3202 -0.1550 -0.8052
 7383TIP3    H122088   1.869   4.121   5.214  0.2402 -0.2600  0.1584
 7383TIP3    H222089   2.010   4.175   5.199  0.0293 -0.0235 -0.9947
 7384TIP3   OH222090   3.960   3.534   4.609 -0.1033 -0.5013 -0.9485
 7384TIP3    H122091   3.878   3.530   4.560  0.5129  0.4582 -2.1056
 7384TIP3    H222092   3.988   3.626   4.602 -0.0479 -0.3140  1.3284
 7385TIP3   OH222093   0.073   3.039   6.451 -0.2110  0.0529  0.5481
 7385TIP3    H122094   0.146   3.073   6.504 -0.4576  0.0244  0.9063
 7385TIP3    H222095   0.079   2.944   6.461  2.0740 -0.1811 -2.5479
 7386TIP3   OH222096   2.804   3.586   3.637  0.0735  0.5852  0.7916
 7386TIP3    H122097   2.888   3.542   3.642  0.5707  1.1002 -2.1257
 7386TIP3    H222098   2.809   3.655   3.702  1.8472  0.4859  0.7766
 7387TIP3   OH222099   2.916   5.643   2.918  0.8437  0.4266  0.2848
 7387TIP3    H122100   2.919   5.572   2.854  0.4293  0.3134  0.3893
 7387TIP3    H222101   2.841   5.622   2.974  1.7088  0.0865  1.3284
 7388TIP3   OH222102   3.972   3.558   5.197 -0.6174 -0.3003 -0.4985
 7388TIP3    H122103   3.923   3.634   5.164  1.0253  1.5459  1.1960
 7388TIP3    H222104   3.974   3.497   5.123 -1.1515  1.7021 -2.2086
 7389TIP3   OH222105   1.337   3.884   5.880  0.6327 -0.3688  0.6465
 7389TIP3    H122106   1.243   3.901   5.873  1.1255  1.6362 -1.6958
 7389TIP3    H222107   1.368   3.877   5.790  2.6385 -1.6554  1.3932
 7390TIP3   OH222108   1.970   4.142   3.289 -0.1876 -0.3630 -0.1742
 7390TIP3    H122109   2.010   4.062   3.255 -0.3206 -0.5920  0.2135
 7390TIP3    H222110   1.879   4.137   3.260 -0.0746 -0.1024 -0.5874
 7391TIP3   OH222111   2.557   3.209   5.076 -0.1846 -0.0157 -0.2637
 7391TIP3    H122112   2.605   3.222   4.995  0.1089 -0.9883 -0.2498
 7391TIP3    H222113   2.466   3.227   5.053 -0.1557 -0.6699 -0.9025
 7392TIP3   OH222114   1.060   1.707   5.346 -0.0306 -0.1163  0.4272
 7392TIP3    H122115   0.997   1.688   5.415 -3.0984  1.3551 -1.8389
 7392TIP3    H222116   1.076   1.801   5.354 -0.1580  0.0043 -0.6254
 7393TIP3   OH222117   1.456   1.225   5.428  0.0915  0.0223 -0.6166
 7393TIP3    H122118   1.446   1.313   5.463  1.2050 -0.4685  1.0019
 7393TIP3    H222119   1.516   1.181   5.489 -2.2400 -2.5682 -0.0969
 7394TIP3   OH222120   2.268   3.886   1.389  0.1083  0.0193 -0.1807
 7394TIP3    H122121   2.255   3.913   1.298 -1.4768  3.4531  0.9783
 7394TIP3    H222122   2.202   3.935   1.438 -1.9246 -4.8869  2.4018
 7395TIP3   OH222123   0.384   3.663   5.875  0.2987  0.6206  0.5419
 7395TIP3    H122124   0.462   3.711   5.847  0.1076  0.2186 -0.7390
 7395TIP3    H222125   0.398   3.574   5.841 -0.7270  0.5636  0.2577
 7396TIP3   OH222126   0.126   3.993   5.362  0.0741  0.2101 -0.5974
 7396TIP3    H122127   0.145   4.008   5.455 -0.7026  0.0921 -0.4163
 7396TIP3    H222128   0.195   4.040   5.315  0.4002  0.3671  0.0394
 7397TIP3   OH222129   1.420   6.701   5.379  0.4455 -0.1009  0.2893
 7397TIP3    H122130   1.502   6.653   5.393  0.4295 -0.4682 -0.7899
 7397TIP3    H222131   1.371   6.690   5.461  0.4301 -1.9745  0.0611
 7398TIP3   OH222132   1.606   4.952   5.096 -0.0626  0.5967  0.0466
 7398TIP3    H122133   1.567   4.874   5.055  0.6706 -1.3133  2.8359
 7398TIP3    H222134   1.544   4.976   5.166  1.2591  0.5956  1.2364
 7399TIP3   OH222135   2.217   3.927   2.464 -0.0600 -0.1799  0.0844
 7399TIP3    H122136   2.296   3.879   2.492  1.1174  1.3063 -0.5899
 7399TIP3    H222137   2.243   4.019   2.471 -1.7427  0.3163 -0.2081
 7400TIP3   OH222138   3.016   4.615   3.295 -0.2681  0.3858  0.2933
 7400TIP3    H122139   3.049   4.526   3.284 -2.1993 -0.0841 -1.9841
 7400TIP3    H222140   2.989   4.619   3.387  2.0874 -0.5707  1.0578
 7401TIP3   OH222141   2.277   3.507   3.942  0.0088 -0.4498 -0.3163
 7401TIP3    H122142   2.219   3.568   3.897 -0.5282 -0.2537  0.6260
 7401TIP3    H222143   2.319   3.559   4.011  1.6414 -0.4867 -1.2545
 7402TIP3   OH222144   3.936   7.961   0.338  0.1407 -0.8203 -0.2030
 7402TIP3    H122145   3.892   7.890   0.384  2.4481 -1.3260  1.2613
 7402TIP3    H222146   3.907   8.041   0.383  0.1054 -1.0898  0.2539
 7403TIP3   OH222147   0.928   3.672   3.269  0.0672 -0.4073  0.4040
 7403TIP3    H122148   0.850   3.719   3.298 -0.3184 -0.2265 -0.8628
 7403TIP3    H222149   0.946   3.609   3.338 -0.3498  0.5282  1.3783
 7404TIP3   OH222150   3.940   7.038   0.286  0.0808 -0.3975  0.2247
 7404TIP3    H122151   3.853   7.009   0.313 -0.3361 -0.1159 -0.7846
 7404TIP3    H222152   3.998   6.966   0.311 -0.6766 -1.2968 -0.5618
 7405TIP3   OH222153   0.028   5.087   6.291  0.1563 -0.6149 -0.2535
 7405TIP3    H122154   0.100   5.123   6.238  1.7413 -1.7832  1.0486
 7405TIP3    H222155   0.056   5.102   6.381 -1.4353 -0.7304  0.2646
 7406TIP3   OH222156   1.634   4.184   3.435 -0.7437 -0.4958  0.4262
 7406TIP3    H122157   1.690   4.109   3.412 -2.3579 -1.1543 -1.4460
 7406TIP3    H222158   1.589   4.206   3.354 -3.6724 -0.3687  2.0209
 7407TIP3   OH222159   1.164   5.555   4.774  0.2150 -0.5761  0.5777
 7407TIP3    H122160   1.145   5.645   4.748  2.0182 -0.9449 -2.1435
 7407TIP3    H222161   1.185   5.561   4.867  1.0311  1.9323  0.2603
 7408TIP3   OH222162   0.033   5.025   1.794  0.0236 -0.2068 -0.2398
 7408TIP3    H122163   0.096   5.009   1.723  0.9727  1.0655  0.3012
 7408TIP3    H222164   0.079   5.083   1.854 -1.6674  0.7207  0.1799
 7409TIP3   OH222165   0.843   4.604   6.239  0.2923  0.2742  0.0080
 7409TIP3    H122166   0.851   4.546   6.315  2.1244 -1.7979 -1.7232
 7409TIP3    H222167   0.770   4.662   6.261  0.1767 -0.9185  2.9347
 7410TIP3   OH222168   1.381   3.143   6.170 -0.0322  0.5715  0.3846
 7410TIP3    H122169   1.318   3.127   6.240  0.7444  2.2075  1.5156
 7410TIP3    H222170   1.452   3.081   6.187 -1.1061 -0.9763 -0.6410
 7411TIP3   OH222171   7.232   7.527   0.102 -0.4546 -0.1203  0.4568
 7411TIP3    H122172   7.231   7.620   0.082 -0.7647  0.0380  1.2001
 7411TIP3    H222173   7.325   7.505   0.107 -0.3809  0.0887  0.0065
 7412TIP3   OH222174   3.005   4.763   2.434  0.7906 -0.1625  0.0863
 7412TIP3    H122175   2.945   4.689   2.433  1.0333 -0.3662  0.3818
 7412TIP3    H222176   3.091   4.723   2.451  1.3350 -0.1157 -2.3972
 7413TIP3   OH222177   1.890   4.425   5.053 -0.0382 -0.0410 -0.4494
 7413TIP3    H122178   1.957   4.378   5.004 -0.8541 -0.2345 -1.4061
 7413TIP3    H222179   1.938   4.475   5.119  0.8627 -1.9580  0.3715
 7414TIP3   OH222180   2.981   2.713   5.831  0.4593 -0.3022 -0.0178
 7414TIP3    H122181   3.074   2.709   5.855  0.7628  0.6845 -1.0106
 7414TIP3    H222182   2.969   2.801   5.796 -0.8110 -0.4954 -0.0734
 7415TIP3   OH222183   3.227   1.995   4.836  0.2290  0.3074  0.0168
 7415TIP3    H122184   3.285   2.046   4.779 -0.5620  2.1690  0.8449
 7415TIP3    H222185   3.141   2.001   4.795  0.0081  0.1420  0.4478
 7416TIP3   OH222186   2.706   2.113   4.640 -0.5696 -0.1482  0.0279
 7416TIP3    H122187   2.641   2.150   4.580  1.2219  0.0635 -1.8230
 7416TIP3    H222188   2.743   2.039   4.592  1.9716  0.9613  0.2151
 7417TIP3   OH222189   7.888   2.400   1.379  0.1109 -0.6618 -0.1025
 7417TIP3    H122190   7.918   2.459   1.448 -0.2166 -0.5914 -0.0219
 7417TIP3    H222191   7.968   2.357   1.349  0.8111  2.0143 -2.2498
 7418TIP3   OH222192   7.326   1.331   0.614 -0.5308 -0.1593 -0.1035
 7418TIP3    H122193   7.275   1.397   0.566  1.9666  1.2108 -0.9788
 7418TIP3    H222194   7.384   1.383   0.671  2.8998 -1.4656 -2.2501
 7419TIP3   OH222195   1.317   3.991   6.254 -0.4505 -0.5477  0.4213
 7419TIP3    H122196   1.401   4.021   6.221 -0.0248 -1.7324  0.4396
 7419TIP3    H222197   1.262   3.982   6.176 -0.7169  0.6538  0.4494
 7420TIP3   OH222198   2.588   6.241   6.312  0.1603 -0.1594  0.1301
 7420TIP3    H122199   2.625   6.318   6.268 -0.9613  0.4277  0.2078
 7420TIP3    H222200   2.622   6.167   6.263  1.9010  0.3354  0.5253
 7421TIP3   OH222201   1.222   3.631   4.436  0.6845  0.0420 -0.1722
 7421TIP3    H122202   1.214   3.536   4.425  0.7214  0.1240 -0.9294
 7421TIP3    H222203   1.203   3.667   4.350 -1.3701  0.8606  0.6058
 7422TIP3   OH222204   0.701   3.531   6.004 -0.2328 -0.0834  0.1155
 7422TIP3    H122205   0.721   3.468   5.936 -0.7291 -0.5292  0.3827
 7422TIP3    H222206   0.648   3.483   6.067  0.1746  0.3394  0.7889
 7423TIP3   OH222207   2.023   3.870   5.370  0.1693  0.6446 -0.0108
 7423TIP3    H122208   2.108   3.836   5.342  1.3566  2.4370  1.3117
 7423TIP3    H222209   1.996   3.927   5.299  0.6801  1.0712  0.1352
 7424TIP3   OH222210   4.140   3.724   6.453 -0.2852  0.1372 -0.5686
 7424TIP3    H122211   4.221   3.769   6.430  0.2006 -1.1581 -1.5006
 7424TIP3    H222212   4.098   3.706   6.369 -1.0658 -0.0547 -0.1430
 7425TIP3   OH222213   1.427   2.455   5.509 -0.4104 -0.4363  0.5960
 7425TIP3    H122214   1.446   2.460   5.416  0.5913 -1.8050  0.7170
 7425TIP3    H222215   1.450   2.542   5.543  1.9342 -0.8320  0.0543
 7426TIP3   OH222216   2.916   3.629   3.001  0.2936  0.4621  0.3349
 7426TIP3    H122217   2.908   3.706   3.056  0.8918  1.5776 -1.1033
 7426TIP3    H222218   3.009   3.608   3.002  0.4387  1.0170 -0.9413
 7427TIP3   OH222219   1.293   6.660   0.604  0.4900  0.3496 -0.2178
 7427TIP3    H122220   1.322   6.661   0.512 -0.0476  2.2537 -0.3853
 7427TIP3    H222221   1.198   6.663   0.599  0.3695 -1.5122  0.4083
 7428TIP3   OH222222   0.098   5.306   5.736 -0.6228  0.5869 -0.3811
 7428TIP3    H122223   0.029   5.274   5.794 -0.0469 -2.0380 -1.0759
 7428TIP3    H222224   0.172   5.247   5.752  0.7400  2.0245 -1.2028
 7429TIP3   OH222225   0.838   2.930   5.724  0.1342  0.2796  0.2271
 7429TIP3    H122226   0.850   2.886   5.808  0.8174 -2.5282 -1.2858
 7429TIP3    H222227   0.749   2.966   5.729 -0.2106 -0.7225  1.7785
 7430TIP3   OH222228   4.273   5.869   4.131  0.0434 -0.0419 -0.5503
 7430TIP3    H122229   4.291   5.957   4.163  1.7938 -0.7059  0.3626
 7430TIP3    H222230   4.297   5.812   4.204 -3.0218 -1.1873 -0.3634
 7431TIP3   OH222231   4.855   3.075   5.061  0.5920 -0.1288  0.1261
 7431TIP3    H122232   4.830   3.120   4.980  2.4102  0.7875  0.0477
 7431TIP3    H222233   4.812   2.990   5.056 -1.6103  0.9714 -0.4758
 7432TIP3   OH222234   1.814   5.108   4.772 -0.2044  0.2307  0.0420
 7432TIP3    H122235   1.833   5.014   4.762  0.9706  0.2499  1.8208
 7432TIP3    H222236   1.800   5.119   4.866 -1.0363  1.7342 -0.2428
 7433TIP3   OH222237   3.478   2.626   5.014  0.3120 -0.4626  0.5405
 7433TIP3    H122238   3.384   2.610   5.008  0.4790 -1.4884  0.6394
 7433TIP3    H222239   3.506   2.580   5.093  0.5355  1.6184  1.7372
 7434TIP3   OH222240   4.601   2.929   4.319  0.1654 -0.5177  0.4528
 7434TIP3    H122241   4.629   2.837   4.328  1.2083 -0.0527  2.1256
 7434TIP3    H222242   4.670   2.979   4.360 -0.4609  1.0404 -0.3596
 7435TIP3   OH222243   2.622   4.522   4.664  0.5657 -0.6404  0.3595
 7435TIP3    H122244   2.621   4.439   4.712  0.1764 -0.0539  1.3808
 7435TIP3    H222245   2.579   4.584   4.723  3.2193  0.9202  0.7369
 7436TIP3   OH222246   2.111   6.320   6.247 -0.2916 -0.2554  0.4830
 7436TIP3    H122247   2.200   6.293   6.225  0.0675  1.3782 -0.1928
 7436TIP3    H222248   2.055   6.257   6.203  0.5196 -1.4145  1.0735
 7437TIP3   OH222249   4.279   4.407   1.511  0.1804  0.0376 -0.1000
 7437TIP3    H122250   4.323   4.431   1.593  0.5280  1.3338 -0.6608
 7437TIP3    H222251   4.186   4.400   1.536  0.2878  0.3958  0.4078
 7438TIP3   OH222252   1.857   1.021   5.393  0.5191  0.9306 -0.4785
 7438TIP3    H122253   1.801   0.953   5.429  0.4404  0.7195 -0.9864
 7438TIP3    H222254   1.867   1.084   5.464  0.5260  0.4304 -0.0290
 7439TIP3   OH222255   2.110   3.197   5.907 -0.2668 -0.0605 -0.4580
 7439TIP3    H122256   2.139   3.110   5.933  1.4156  0.6163  0.0721
 7439TIP3    H222257   2.024   3.207   5.945  0.1824 -0.9082  0.7978
 7440TIP3   OH222258   4.276   5.164   4.537 -0.6701 -0.6998 -0.5422
 7440TIP3    H122259   4.337   5.226   4.577 -1.4162  0.0637 -0.5746
 7440TIP3    H222260   4.285   5.084   4.589 -2.1310  0.5062  1.6270
 7441TIP3   OH222261   3.521   3.728   4.162  0.4625  0.0889 -0.2208
 7441TIP3    H122262   3.492   3.769   4.243  0.8219  0.5611 -0.3276
 7441TIP3    H222263   3.445   3.677   4.133  0.8606 -1.3562  1.2222
 7442TIP3   OH222264   1.745   3.442   2.019 -0.5861 -0.4026  0.2345
 7442TIP3    H122265   1.733   3.422   2.112 -1.5723 -1.4115 -0.0807
 7442TIP3    H222266   1.707   3.529   2.008 -0.1302 -0.1257  0.8503
 7443TIP3   OH222267   2.287   3.903   5.814  0.1542  0.2329 -0.3126
 7443TIP3    H122268   2.344   3.939   5.882 -0.4309  0.7886 -0.1122
 7443TIP3    H222269   2.201   3.941   5.832 -0.2534 -0.4906 -0.6961
 7444TIP3   OH222270   4.257   2.393   4.900  0.1267  0.1066  0.5273
 7444TIP3    H122271   4.269   2.360   4.811 -0.3125  1.0476  0.1044
 7444TIP3    H222272   4.212   2.323   4.947 -0.9488  0.1793 -0.3916
 7445TIP3   OH222273   3.542   3.345   2.638  0.2104 -0.1971  0.4469
 7445TIP3    H122274   3.533   3.439   2.655 -1.0665 -0.3435  0.6401
 7445TIP3    H222275   3.588   3.340   2.555  0.4043  0.6071  0.4993
 7446TIP3   OH222276   2.982   1.795   6.000  0.5041 -0.8990  0.5365
 7446TIP3    H122277   2.947   1.853   5.932  0.4866 -0.5625  0.8295
 7446TIP3    H222278   3.077   1.805   5.992  0.4738  2.3250  3.2469
 7447TIP3   OH222279   1.828   1.937   4.727  0.1195 -0.6141  0.2059
 7447TIP3    H122280   1.798   1.996   4.658 -1.9381 -1.6191  0.1938
 7447TIP3    H222281   1.871   1.865   4.680  2.4239  0.7277  0.2106
 7448TIP3   OH222282   4.342   2.624   5.423 -0.2181 -0.4679 -0.1191
 7448TIP3    H122283   4.266   2.597   5.474 -0.3653 -0.9688 -0.5969
 7448TIP3    H222284   4.377   2.542   5.388  2.6692 -0.6999  3.0475
 7449TIP3   OH222285   1.526   3.306   1.921  0.0460 -0.3492  0.5671
 7449TIP3    H122286   1.517   3.401   1.913 -1.6029 -0.4244  1.2870
 7449TIP3    H222287   1.616   3.292   1.952  0.9769  0.8389 -1.5144
 7450TIP3   OH222288   0.799   3.060   6.382 -0.7361 -0.0467 -0.1985
 7450TIP3    H122289   0.878   3.017   6.415 -0.5001 -1.1000 -2.0692
 7450TIP3    H222290   0.803   3.148   6.418 -0.1300 -0.9376  1.9628
 7451TIP3   OH222291   2.462   5.097   4.266  0.3740 -0.0856  0.1702
 7451TIP3    H122292   2.484   5.011   4.231 -0.4440 -1.1050  2.0528
 7451TIP3    H222293   2.369   5.108   4.244  0.3879  0.1486  0.2329
 7452TIP3   OH222294   7.338   6.080   6.805  0.3312  0.0396  0.1933
 7452TIP3    H122295   7.309   6.027   6.879 -0.0420  0.5033  0.3821
 7452TIP3    H222296   7.348   6.168   6.840  1.6019 -0.0297  0.0333
 7453TIP3   OH222297   0.116   2.969   5.678  0.5121 -0.0629 -0.8723
 7453TIP3    H122298   0.092   3.061   5.684  0.9435  0.0043 -0.0969
 7453TIP3    H222299   0.161   2.961   5.594 -1.3090  0.0123 -1.8743
 7454TIP3   OH222300   6.288   1.861   0.460  0.1332 -0.1703 -0.0675
 7454TIP3    H122301   6.342   1.808   0.403 -0.1020  0.0179 -0.4681
 7454TIP3    H222302   6.254   1.931   0.403  1.0529  0.8487  0.6196
 7455TIP3   OH222303   2.402   4.861   2.746  0.7985 -0.1224 -0.4874
 7455TIP3    H122304   2.371   4.882   2.834  0.2557  1.2081 -0.9694
 7455TIP3    H222305   2.331   4.892   2.688  1.6981  0.1916 -1.4427
 7456TIP3   OH222306   8.464   2.235   0.057 -0.1765 -0.0603 -0.0265
 7456TIP3    H122307   8.459   2.206  -0.034 -1.9134 -1.0330  0.3518
 7456TIP3    H222308   8.558   2.244   0.074  0.1178  1.8729 -2.4146
 7457TIP3   OH222309   2.142   1.626   4.163  0.0407  0.4142  0.2357
 7457TIP3    H122310   2.135   1.637   4.068  1.5882 -0.0745  0.0492
 7457TIP3    H222311   2.197   1.698   4.191  0.8787 -0.3303  0.5383
 7458TIP3   OH222312   0.829   4.943   4.181  0.4253  0.2886 -0.4907
 7458TIP3    H122313   0.846   4.927   4.274  0.9598  1.3112 -0.4036
 7458TIP3    H222314   0.743   4.985   4.179  1.0723  1.6451 -0.3213
 7459TIP3   OH222315   1.341   3.742   5.361  0.1267 -0.0255  0.9598
 7459TIP3    H122316   1.305   3.708   5.279 -0.9654  1.7395  0.6731
 7459TIP3    H222317   1.281   3.812   5.387  0.6783 -0.2968  3.0729
 7460TIP3   OH222318   4.056   3.515   5.510  0.0102 -0.1629  0.3522
 7460TIP3    H122319   4.092   3.497   5.597 -0.3299 -0.3138  0.4645
 7460TIP3    H222320   4.079   3.607   5.493  2.6288 -0.9787 -0.6560
 7461TIP3   OH222321   4.190   5.405   4.226 -0.6035 -0.3434 -0.0454
 7461TIP3    H122322   4.194   5.319   4.183  0.4642 -0.4051  0.1852
 7461TIP3    H222323   4.172   5.385   4.317 -0.6304 -0.3085 -0.0429
 7462TIP3   OH222324   0.970   5.405   3.342  0.5442 -0.2422  0.1231
 7462TIP3    H122325   1.050   5.458   3.338  0.4302  0.0909  1.6972
 7462TIP3    H222326   0.899   5.468   3.331  0.4822 -0.4438 -0.6227
 7463TIP3   OH222327   0.424   4.659   4.536 -0.4016 -0.1083  0.0868
 7463TIP3    H122328   0.421   4.708   4.454 -0.3211  1.6320  1.1145
 7463TIP3    H222329   0.413   4.567   4.509 -0.1435  0.4121 -1.8804
 7464TIP3   OH222330   2.453   4.450   4.106 -0.5093  0.0914 -0.0163
 7464TIP3    H122331   2.523   4.502   4.067 -1.2308  2.0153  1.1368
 7464TIP3    H222332   2.447   4.482   4.196 -2.6322 -0.2697 -0.0014
 7465TIP3   OH222333   1.590   5.866   5.595  0.0203  0.3342 -0.1990
 7465TIP3    H122334   1.509   5.877   5.646  0.7242 -0.1581  1.0573
 7465TIP3    H222335   1.563   5.818   5.517 -0.8035 -0.3770  0.5127
 7466TIP3   OH222336   5.546   0.889   3.877  0.6098 -0.1248  0.1373
 7466TIP3    H122337   5.542   0.872   3.971  1.3274  1.4657  0.4704
 7466TIP3    H222338   5.640   0.891   3.857  0.4522 -0.8017 -0.6801
 7467TIP3   OH222339   2.513   2.490   4.390 -0.4323 -0.3468  0.3264
 7467TIP3    H122340   2.444   2.531   4.337 -0.0366  1.1937  0.9602
 7467TIP3    H222341   2.475   2.407   4.419 -1.7144  0.0945 -0.0430
 7468TIP3   OH222342   4.716   3.340   5.379  0.6238  0.6358  0.0036
 7468TIP3    H122343   4.701   3.390   5.459  0.0095  0.3827  0.0464
 7468TIP3    H222344   4.720   3.249   5.407 -0.8325  0.4406 -0.4140
 7469TIP3   OH222345   1.021   2.525   4.537 -0.2206 -0.2734 -0.0044
 7469TIP3    H122346   1.023   2.473   4.617  1.1559 -0.8568 -0.4061
 7469TIP3    H222347   0.942   2.497   4.492  0.5458 -2.0728 -0.2535
 7470TIP3   OH222348   2.287   3.590   4.597 -0.7141 -0.3834  0.0701
 7470TIP3    H122349   2.342   3.522   4.558 -1.6746 -1.0957 -0.0781
 7470TIP3    H222350   2.322   3.672   4.564  0.8740 -0.7667  0.7669
 7471TIP3   OH222351   4.259   3.545   5.194  0.2954 -0.4818  0.0994
 7471TIP3    H122352   4.298   3.457   5.200 -2.7679 -2.0103 -1.1461
 7471TIP3    H222353   4.184   3.541   5.253 -0.7968  0.7826 -1.1783
 7472TIP3   OH222354   3.765   4.007   5.846 -0.3644 -0.4144  0.0437
 7472TIP3    H122355   3.790   4.100   5.854  3.6653 -1.4977  1.2808
 7472TIP3    H222356   3.718   3.988   5.927 -1.1234  0.5071 -0.1689
 7473TIP3   OH222357   2.466   2.663   0.789 -0.3506 -0.4182 -0.1526
 7473TIP3    H122358   2.475   2.594   0.855 -1.6806  0.3912  0.9124
 7473TIP3    H222359   2.382   2.647   0.748 -0.2713  0.0449 -0.5050
 7474TIP3   OH222360   1.467   3.738   3.219 -0.0897 -0.6844  0.2244
 7474TIP3    H122361   1.427   3.763   3.302 -0.8706 -0.2033 -0.2855
 7474TIP3    H222362   1.392   3.722   3.161  0.4556 -0.2060 -0.6190
 7475TIP3   OH222363   3.928   1.441   2.297  0.5810  0.5817  0.3402
 7475TIP3    H122364   3.911   1.391   2.217  1.7223 -0.1561  0.5354
 7475TIP3    H222365   3.877   1.521   2.287  0.0826  0.1415 -0.7641
 7476TIP3   OH222366   3.939   2.802   4.946  0.3686 -0.2208 -0.3211
 7476TIP3    H122367   3.960   2.712   4.971  1.0383  0.4497  1.6532
 7476TIP3    H222368   3.848   2.813   4.974  0.3411 -0.2332 -0.4064
 7477TIP3   OH222369   3.726   4.943   4.226  0.0997 -0.1479 -0.3557
 7477TIP3    H122370   3.752   4.954   4.318  0.3785 -1.2704 -0.2840
 7477TIP3    H222371   3.700   5.030   4.198 -0.6348  0.0876  0.9942
 7478TIP3   OH222372   2.269   5.091   6.590  0.1604 -0.4232 -0.1485
 7478TIP3    H122373   2.353   5.130   6.611 -0.4262  1.2947 -0.8909
 7478TIP3    H222374   2.205   5.144   6.637 -0.6624 -0.3295 -1.3438
 7479TIP3   OH222375   0.713   2.732   5.117 -0.5615  0.1809  0.3949
 7479TIP3    H122376   0.621   2.707   5.113  0.0739 -2.1485 -0.6183
 7479TIP3    H222377   0.746   2.689   5.195  0.1074 -0.6156 -0.3149
 7480TIP3   OH222378   0.917   2.340   4.719 -0.4531  0.0969 -0.3917
 7480TIP3    H122379   0.887   2.356   4.809 -0.2291 -0.6747 -0.1689
 7480TIP3    H222380   0.843   2.297   4.677 -0.3034 -0.1857 -0.3671
 7481TIP3   OH222381   0.957   3.270   4.848  0.0463  0.2400  0.0706
 7481TIP3    H122382   0.981   3.211   4.919 -0.9457  0.6500  0.7456
 7481TIP3    H222383   0.977   3.220   4.768  1.8442  0.0516  0.6072
 7482TIP3   OH222384   2.673   0.330   6.177 -0.1964  0.3723 -0.2291
 7482TIP3    H122385   2.608   0.377   6.229  0.1166  1.8186 -1.1147
 7482TIP3    H222386   2.634   0.244   6.161 -2.4910  1.6774 -1.8879
 7483TIP3   OH222387   2.283   5.629   4.949  0.4626 -0.3589 -0.1709
 7483TIP3    H122388   2.260   5.545   4.910  0.0884 -0.6877  0.7450
 7483TIP3    H222389   2.210   5.687   4.927  1.2570  0.0525 -1.7862
 7484TIP3   OH222390   5.393   3.655   4.937 -0.0811  0.4701  0.1133
 7484TIP3    H122391   5.375   3.594   5.008  1.4952  0.9937  1.0157
 7484TIP3    H222392   5.479   3.692   4.960 -0.2004  1.6808 -1.3367
 7485TIP3   OH222393   2.688   2.843   4.783 -0.1738 -0.2036  0.3531
 7485TIP3    H122394   2.601   2.830   4.745  0.1313  1.2312 -0.9045
 7485TIP3    H222395   2.747   2.843   4.708  0.9013 -1.0604  1.1954
 7486TIP3   OH222396   2.465   3.117   3.644 -0.3540 -0.5501  0.1275
 7486TIP3    H122397   2.421   3.181   3.700 -0.2769  0.1173 -0.5726
 7486TIP3    H222398   2.395   3.060   3.613 -0.6399  0.1213 -0.4680
 7487TIP3   OH222399   4.690   4.725   5.079 -0.0046  0.4438 -0.6837
 7487TIP3    H122400   4.696   4.677   5.162  1.5277 -0.3379 -1.2428
 7487TIP3    H222401   4.664   4.660   5.015  0.2066  0.7690 -1.0993
 7488TIP3   OH222402   5.243   3.555   2.415 -0.5297 -0.2741  0.0906
 7488TIP3    H122403   5.253   3.499   2.492  1.1179 -0.0847  0.0296
 7488TIP3    H222404   5.174   3.617   2.440 -2.5226 -2.4079  0.0886
 7489TIP3   OH222405   5.148   4.025   4.284 -0.4449 -0.0469 -1.0611
 7489TIP3    H122406   5.070   3.977   4.311  0.1309  0.4335  1.5057
 7489TIP3    H222407   5.182   4.063   4.364 -0.3692  3.9486 -2.8930
 7490TIP3   OH222408   4.336   1.757   5.389  0.1414  0.4206 -0.1077
 7490TIP3    H122409   4.361   1.734   5.300  2.2742  1.4515  0.1714
 7490TIP3    H222410   4.419   1.758   5.437 -0.7835  1.4265  1.5120
 7491TIP3   OH222411   5.243   2.755   4.655 -0.8149 -0.2881  0.3677
 7491TIP3    H122412   5.241   2.771   4.561  1.4893  0.1330  0.3686
 7491TIP3    H222413   5.182   2.820   4.692  0.9707  1.9528 -0.5261
 7492TIP3   OH222414   6.241   4.164   5.616  0.0117  0.0047 -0.2389
 7492TIP3    H122415   6.155   4.186   5.580  0.4860 -1.2064 -2.2294
 7492TIP3    H222416   6.223   4.127   5.702 -1.6977 -2.2954 -1.5209
 7493TIP3   OH222417   6.577   3.622   4.072  0.4445  0.2594 -0.0838
 7493TIP3    H122418   6.522   3.659   4.141  2.0726  1.2023  0.7299
 7493TIP3    H222419   6.630   3.555   4.116  0.8844  0.2753 -0.5840
 7494TIP3   OH222420   0.609   5.905   5.488  0.1788 -0.2662  0.1657
 7494TIP3    H122421   0.688   5.956   5.471 -0.4105  0.0103 -1.8348
 7494TIP3    H222422   0.639   5.814   5.485  0.8324 -0.1329  1.7104
 7495TIP3   OH222423   2.111   3.542   4.365  0.0590  0.3758  0.6972
 7495TIP3    H122424   2.057   3.463   4.359  0.5079  0.0435  1.0036
 7495TIP3    H222425   2.162   3.530   4.445  2.0953 -0.2701 -0.6377
 7496TIP3   OH222426   6.897   3.881   4.380 -0.1418  0.4934 -0.5157
 7496TIP3    H122427   6.812   3.920   4.361 -2.1055 -1.4573  3.7608
 7496TIP3    H222428   6.959   3.954   4.370 -2.6545  2.6981 -0.6642
 7497TIP3   OH222429   6.902   2.932   4.277  0.0518 -0.2875 -0.0199
 7497TIP3    H122430   6.914   2.863   4.343  0.2190 -1.3069 -1.0989
 7497TIP3    H222431   6.814   2.918   4.243  0.4825 -0.6439 -1.0042
 7498TIP3   OH222432   4.969   2.937   4.278 -0.7631 -0.5805  0.1169
 7498TIP3    H122433   4.989   2.890   4.360  1.0715  0.8587  0.5150
 7498TIP3    H222434   4.946   3.025   4.307 -0.9051 -0.2963 -0.8742
 7499TIP3   OH222435   3.966   3.945   3.640 -0.3582  0.2581  0.2668
 7499TIP3    H122436   3.980   4.040   3.643  0.4462  0.1517  0.0911
 7499TIP3    H222437   4.050   3.908   3.667 -0.9378 -0.3992  1.1898
 7500TIP3   OH222438   2.685   5.084   3.941  0.2835  0.5094  0.1939
 7500TIP3    H122439   2.712   5.039   4.022 -0.2762 -0.3521 -0.0928
 7500TIP3    H222440   2.629   5.021   3.897  1.0304  0.7671 -1.1333
 7501TIP3   OH222441   4.310   4.498   5.588  0.4573  0.2724 -0.1493
 7501TIP3    H122442   4.246   4.520   5.520 -0.3922  0.7706  0.8066
 7501TIP3    H222443   4.366   4.576   5.594  0.6998  0.1238 -0.4599
 7502TIP3   OH222444   5.334   4.381   1.631 -0.6732 -0.0511  0.1344
 7502TIP3    H122445   5.297   4.357   1.716  1.6474 -0.9680  0.9156
 7502TIP3    H222446   5.282   4.331   1.567  0.4535 -2.8616  1.3501
 7503TIP3   OH222447   4.065   3.559   3.353 -0.0885  0.0357 -0.1827
 7503TIP3    H122448   4.103   3.474   3.331 -1.1466 -0.5310  0.1859
 7503TIP3    H222449   4.116   3.589   3.428  1.5217  0.5899 -1.4551
 7504TIP3   OH222450   3.365   3.032   5.342  0.0704 -0.6287 -0.1616
 7504TIP3    H122451   3.455   3.060   5.324  0.8761 -3.0450 -0.1567
 7504TIP3    H222452   3.374   2.972   5.416 -1.8760  0.9419  1.3910
 7505TIP3   OH222453   5.178   3.009   4.936  0.0289 -0.6917 -0.1111
 7505TIP3    H122454   5.094   2.985   4.898  0.1221 -1.0755 -0.0725
 7505TIP3    H222455   5.184   2.959   5.017  0.4311 -0.8994 -0.2672
 7506TIP3   OH222456   1.719   5.733   5.801  0.0964 -0.5241  0.4351
 7506TIP3    H122457   1.698   5.791   5.727  0.6161 -2.1761 -1.0443
 7506TIP3    H222458   1.811   5.750   5.818 -0.5216  1.3822  2.1245
 7507TIP3   OH222459   5.790   2.724   4.507  0.2127 -0.8851 -0.0905
 7507TIP3    H122460   5.768   2.812   4.538  3.9682  0.3920 -0.7251
 7507TIP3    H222461   5.772   2.667   4.582 -1.7870  0.4634  0.4924
 7508TIP3   OH222462   5.488   3.342   3.818 -0.0771 -0.1159 -0.0083
 7508TIP3    H122463   5.572   3.378   3.792 -0.0486  0.3357  0.6909
 7508TIP3    H222464   5.479   3.366   3.910 -0.2666 -1.4900  0.3469
 7509TIP3   OH222465   5.521   3.899   4.038 -0.2199  0.3776 -0.0937
 7509TIP3    H122466   5.588   3.966   4.023 -1.0083  0.9675 -1.0656
 7509TIP3    H222467   5.438   3.945   4.025 -0.7689 -0.9030 -1.2869
 7510TIP3   OH222468   4.802   4.772   4.660  0.3529 -0.3801  0.2201
 7510TIP3    H122469   4.794   4.861   4.695  0.8513 -0.0361 -0.5134
 7510TIP3    H222470   4.718   4.731   4.679 -0.6624  0.9383 -1.2994
 7511TIP3   OH222471   4.419   7.207   4.435 -0.7192  0.7301 -0.0782
 7511TIP3    H122472   4.451   7.148   4.366  0.0523  1.1375 -0.0731
 7511TIP3    H222473   4.411   7.151   4.512  0.0499  0.6397 -0.0617
 7512TIP3   OH222474   3.369   3.768   4.379  0.1826  0.0578 -0.0538
 7512TIP3    H122475   3.355   3.834   4.446 -0.4736 -0.7996  0.6555
 7512TIP3    H222476   3.287   3.717   4.377 -0.7124  1.4926 -3.0814
 7513TIP3   OH222477   3.045   2.368   5.659 -0.2576 -0.3565  0.2085
 7513TIP3    H122478   3.016   2.329   5.576  0.2670  0.0185 -0.1594
 7513TIP3    H222479   3.082   2.452   5.633  1.1845 -0.8322  0.6422
 7514TIP3   OH222480   3.820   3.498   4.857 -0.0998 -0.1524  0.3542
 7514TIP3    H122481   3.878   3.537   4.792  3.5025  1.0745  4.0959
 7514TIP3    H222482   3.749   3.561   4.867  0.5623  0.7651 -0.6658
 7515TIP3   OH222483   4.278   6.898   2.878  0.9887  0.3627  0.6031
 7515TIP3    H122484   4.232   6.982   2.870 -0.0781 -0.3841 -1.5249
 7515TIP3    H222485   4.336   6.896   2.803  2.3404 -0.0322  1.6530
 7516TIP3   OH222486   5.235   4.513   6.467 -0.2776 -0.3373 -0.5258
 7516TIP3    H122487   5.152   4.483   6.432 -0.4722  0.5609 -0.8671
 7516TIP3    H222488   5.279   4.554   6.392 -0.6675  1.5311  0.2387
 7517TIP3   OH222489   2.469   5.802   5.398 -0.0010  0.2062  0.4730
 7517TIP3    H122490   2.535   5.757   5.451  0.0173  0.4451  0.6493
 7517TIP3    H222491   2.439   5.735   5.336  0.6222  0.1812  0.1938
 7518TIP3   OH222492   2.659   6.316   3.734 -0.1796  0.0562 -0.2515
 7518TIP3    H122493   2.689   6.225   3.739  0.9194  0.3623 -1.0472
 7518TIP3    H222494   2.567   6.310   3.710 -0.4860 -0.8779  1.1321
 7519TIP3   OH222495   3.895   4.244   3.552  0.4039  0.3608  0.1135
 7519TIP3    H122496   3.923   4.254   3.643  0.3212  1.5319  0.0171
 7519TIP3    H222497   3.813   4.293   3.547 -0.0060 -0.3662 -0.3989
 7520TIP3   OH222498   3.731   4.742   0.299  0.0099  0.1388  0.4310
 7520TIP3    H122499   3.682   4.758   0.379 -0.8301 -1.0849  0.1926
 7520TIP3    H222500   3.688   4.797   0.233  0.1686  0.5090  0.6355
 7521TIP3   OH222501   2.706   4.566   0.219  0.5494  0.3651  0.3946
 7521TIP3    H122502   2.751   4.618   0.285  1.2629 -1.5171  1.4442
 7521TIP3    H222503   2.648   4.508   0.268  1.7376 -1.6816 -0.5143
 7522TIP3   OH222504   4.647   4.731   2.323  0.1153  0.2480  0.0758
 7522TIP3    H122505   4.571   4.774   2.285 -1.4467 -1.5523  1.1156
 7522TIP3    H222506   4.636   4.638   2.303  1.5997 -0.1492  0.9774
 7523TIP3   OH222507   2.776   3.123   1.644  0.0459 -0.2208 -0.0321
 7523TIP3    H122508   2.746   3.116   1.553 -1.6548 -1.5249  0.6056
 7523TIP3    H222509   2.858   3.171   1.638 -0.0213 -0.3169 -2.2711
 7524TIP3   OH222510   5.887   3.944   3.878  0.6369  0.2477 -0.6707
 7524TIP3    H122511   5.944   4.016   3.905  0.3178  0.6868 -1.1657
 7524TIP3    H222512   5.945   3.868   3.875  0.9643  0.4680 -0.0861
 7525TIP3   OH222513   3.829   3.540   4.205 -0.3932 -0.4081  0.4130
 7525TIP3    H122514   3.778   3.500   4.275 -1.1137  1.3446  0.9035
 7525TIP3    H222515   3.919   3.536   4.236 -0.2955 -2.7762 -0.0981
 7526TIP3   OH222516   2.859   3.833   5.019 -0.5049  0.1591 -0.4065
 7526TIP3    H122517   2.940   3.881   5.036 -0.6383 -0.3535  1.8602
 7526TIP3    H222518   2.858   3.765   5.087 -0.7612 -2.4870 -2.9627
 7527TIP3   OH222519   2.341   4.904   4.798 -0.3891  0.1882  0.1836
 7527TIP3    H122520   2.305   4.915   4.711 -0.0592  0.1233  0.0367
 7527TIP3    H222521   2.347   4.993   4.834  0.2298  0.2932 -0.1689
 7528TIP3   OH222522   4.203   2.246   4.674 -0.2926 -0.3387 -0.6226
 7528TIP3    H122523   4.140   2.184   4.711 -1.0700 -0.0929 -1.5252
 7528TIP3    H222524   4.270   2.190   4.635 -1.2223 -0.6286 -1.8261
 7529TIP3   OH222525   4.065   1.920   4.349 -0.9280  0.5101  0.0884
 7529TIP3    H122526   4.022   1.900   4.266  0.4589  1.0006 -0.7635
 7529TIP3    H222527   4.077   2.015   4.347  0.2953  0.3645  0.2545
 7530TIP3   OH222528   4.727   5.445   4.036  0.1324  0.2634  0.1167
 7530TIP3    H122529   4.721   5.533   4.074 -1.5451  0.0541  0.3791
 7530TIP3    H222530   4.660   5.395   4.081 -0.8814 -0.3937 -2.0611
 7531TIP3   OH222531   4.499   1.974   5.790 -0.5721  0.3591 -0.0319
 7531TIP3    H122532   4.442   1.949   5.716 -1.1856  1.8203 -0.0685
 7531TIP3    H222533   4.554   2.045   5.755 -0.3134  0.5143  0.6841
 7532TIP3   OH222534   4.282   3.467   4.055 -0.3087  0.2151  0.6369
 7532TIP3    H122535   4.315   3.547   4.014  0.5406 -1.2373 -1.6069
 7532TIP3    H222536   4.350   3.441   4.117 -0.0320  0.5913  0.4899
 7533TIP3   OH222537   3.794   6.180   5.396 -0.2049 -0.4148  0.2795
 7533TIP3    H122538   3.699   6.186   5.387 -0.2862 -0.5905  0.9990
 7533TIP3    H222539   3.809   6.102   5.449  0.3505 -0.4606  0.0685
 7534TIP3   OH222540   4.350   3.427   2.220  0.4240 -0.0592 -0.2864
 7534TIP3    H122541   4.442   3.410   2.199  0.5295  0.3050 -0.1191
 7534TIP3    H222542   4.326   3.502   2.166  0.3622  0.1502  0.0352
 7535TIP3   OH222543   5.763   4.953   5.723 -0.2144  0.4787 -0.0189
 7535TIP3    H122544   5.674   4.920   5.708 -0.2204 -0.0181  1.1077
 7535TIP3    H222545   5.751   5.047   5.737 -0.7695  0.1328  1.9421
 7536TIP3   OH222546   4.142   1.802   5.985  0.1105 -0.8531 -0.1849
 7536TIP3    H122547   4.153   1.879   6.041  0.6917 -0.7525 -0.4310
 7536TIP3    H222548   4.053   1.810   5.950  0.2485 -0.1575 -0.4012
 7537TIP3   OH222549   4.161   2.178   5.396  0.2344 -0.4373 -0.0678
 7537TIP3    H122550   4.164   2.085   5.419 -1.6342 -1.0724 -2.2039
 7537TIP3    H222551   4.069   2.193   5.372 -0.2402  2.7616  3.3414
 7538TIP3   OH222552   3.885   4.194   4.801 -0.1570  0.2950  0.5163
 7538TIP3    H122553   3.916   4.238   4.880  1.4274 -0.6719  0.4562
 7538TIP3    H222554   3.906   4.254   4.730 -1.3501  1.0524  0.7905
 7539TIP3   OH222555   4.728   4.045   2.088  0.0373 -0.1727 -0.5109
 7539TIP3    H122556   4.813   4.002   2.093  0.3012  0.4597  0.9180
 7539TIP3    H222557   4.702   4.039   1.997  1.3777 -0.8429 -0.8506
 7540TIP3   OH222558   2.719   5.176   5.506 -0.1270 -0.0901 -0.1590
 7540TIP3    H122559   2.662   5.122   5.452 -1.2403 -0.8591  1.7016
 7540TIP3    H222560   2.717   5.133   5.592  0.4689  1.8610  0.8611
 7541TIP3   OH222561   2.827   4.635   5.982  0.2566  0.2113 -0.7818
 7541TIP3    H122562   2.907   4.586   5.962  0.6786  0.3825  0.4384
 7541TIP3    H222563   2.757   4.572   5.973  0.8887 -0.9156  1.8090
 7542TIP3   OH222564   2.152   1.855   5.557  0.8017 -0.6406 -0.3135
 7542TIP3    H122565   2.140   1.816   5.470 -0.0558 -0.0374 -0.4768
 7542TIP3    H222566   2.097   1.801   5.615 -0.6052  0.4590 -0.5871
 7543TIP3   OH222567   5.732   3.326   5.967 -0.1932  0.4008  0.4119
 7543TIP3    H122568   5.705   3.417   5.972  2.6160  1.3182 -0.3365
 7543TIP3    H222569   5.790   3.314   6.042 -0.9338 -0.9411  0.7953
 7544TIP3   OH222570   4.391   3.774   3.118  0.1190 -0.3217  0.1038
 7544TIP3    H122571   4.462   3.836   3.131 -1.3234  1.8789 -1.9749
 7544TIP3    H222572   4.327   3.797   3.186 -0.5139  0.6445 -0.8079
 7545TIP3   OH222573   1.220   1.771   0.952 -0.3378  0.2497 -0.3725
 7545TIP3    H122574   1.266   1.830   0.892 -0.9571  0.8499 -0.2576
 7545TIP3    H222575   1.287   1.745   1.016  0.0749  0.3752 -0.7499
 7546TIP3   OH222576   4.755   3.370   4.706  0.1926  0.2146 -0.0091
 7546TIP3    H122577   4.815   3.350   4.778  0.8525 -2.4786 -1.2205
 7546TIP3    H222578   4.669   3.343   4.739  0.4737 -0.8920 -0.1454
 7547TIP3   OH222579   6.625   3.821   1.425 -0.0140  0.7744  0.0472
 7547TIP3    H122580   6.636   3.914   1.442  0.6061  0.8185 -0.5628
 7547TIP3    H222581   6.647   3.810   1.332 -0.9733  0.1661 -0.1183
 7548TIP3   OH222582   1.935   3.712   2.807 -0.1407 -0.4507  0.5951
 7548TIP3    H122583   2.006   3.743   2.751 -0.5432  0.2828  0.4811
 7548TIP3    H222584   1.861   3.769   2.786 -0.3730 -0.3406  1.6813
 7549TIP3   OH222585   8.118   4.126   3.890 -0.1887 -0.2557 -0.1829
 7549TIP3    H122586   8.189   4.071   3.925 -0.3693  0.0385  0.6523
 7549TIP3    H222587   8.115   4.104   3.797 -0.0528 -1.4289  0.0863
 7550TIP3   OH222588   1.616   0.951   0.341  0.2781  0.4508 -0.0573
 7550TIP3    H122589   1.534   0.937   0.389 -0.4561  0.1874 -1.3657
 7550TIP3    H222590   1.636   0.865   0.303  0.7018  0.7324 -0.4708
 7551TIP3   OH222591   6.400   3.176   5.530 -0.4215  0.2193 -0.3427
 7551TIP3    H122592   6.465   3.235   5.568 -1.0706  1.4242 -1.0610
 7551TIP3    H222593   6.448   3.125   5.465  0.6477 -1.6903  1.8744
 7552TIP3   OH222594   4.424   1.916   4.288 -0.4369  0.1071 -0.5892
 7552TIP3    H122595   4.450   2.007   4.269 -1.1101  0.3863 -0.1967
 7552TIP3    H222596   4.362   1.895   4.218 -1.3850  0.4515  0.1269
 7553TIP3   OH222597   4.422   5.643   4.998 -0.0686  0.6302 -0.2912
 7553TIP3    H122598   4.506   5.624   5.040 -0.3623 -2.3143 -0.9342
 7553TIP3    H222599   4.439   5.721   4.945  1.8191  1.0286  0.8641
 7554TIP3   OH222600   5.375   3.114   3.998  0.1281  0.0573 -0.1174
 7554TIP3    H122601   5.335   3.147   4.079  0.5431 -0.5396  0.3402
 7554TIP3    H222602   5.443   3.053   4.029 -0.2744 -0.8150 -0.9321
 7555TIP3   OH222603   5.762   5.228   3.963  0.1027 -0.7343  0.4235
 7555TIP3    H122604   5.782   5.136   3.978 -0.8052 -1.0773 -0.4027
 7555TIP3    H222605   5.798   5.247   3.877  1.4054  0.0397  1.1213
 7556TIP3   OH222606   1.533   2.945   0.527  0.4876  0.3411  0.3989
 7556TIP3    H122607   1.442   2.918   0.542  0.4945  0.3631  0.4803
 7556TIP3    H222608   1.529   2.999   0.448  0.6279 -0.7410 -0.3597
 7557TIP3   OH222609   1.862   2.722   3.391 -0.2255  0.0190  0.1793
 7557TIP3    H122610   1.785   2.667   3.406  0.5852 -1.1935  0.0090
 7557TIP3    H222611   1.826   2.805   3.358 -1.4470 -0.6156 -0.1374
 7558TIP3   OH222612   5.508   5.877   5.272  0.5481 -0.5301 -0.1869
 7558TIP3    H122613   5.430   5.876   5.217  0.5219  1.8727 -0.2682
 7558TIP3    H222614   5.476   5.905   5.358  1.3940  1.1544 -0.3978
 7559TIP3   OH222615   5.443   2.140   5.190  0.2160  0.2271 -0.4764
 7559TIP3    H122616   5.398   2.213   5.233  0.5557 -0.1294  0.5079
 7559TIP3    H222617   5.468   2.174   5.104 -1.2867  0.6607 -0.7630
 7560TIP3   OH222618   6.533   4.308   5.292 -0.6132  0.1866  0.3194
 7560TIP3    H122619   6.568   4.393   5.319 -1.1264  0.5789 -0.2321
 7560TIP3    H222620   6.523   4.259   5.374 -1.5633  1.1385  0.7934
 7561TIP3   OH222621   6.470   3.519   0.339  0.1609  0.5757  0.2529
 7561TIP3    H122622   6.504   3.515   0.429  0.6871  1.7406  0.1028
 7561TIP3    H222623   6.375   3.520   0.350  0.2050 -0.1329  0.7619
 7562TIP3   OH222624   3.556   4.082   5.420 -0.4024 -0.0252  0.3838
 7562TIP3    H122625   3.479   4.025   5.423 -1.3770  1.2480  0.0020
 7562TIP3    H222626   3.555   4.128   5.504 -0.2648  0.2736  0.2207
 7563TIP3   OH222627   3.283   3.057   3.878  0.0840 -0.1590 -0.6215
 7563TIP3    H122628   3.267   3.085   3.788  0.1034  0.6090 -0.3885
 7563TIP3    H222629   3.323   2.971   3.870  0.7201  0.2032 -1.3776
 7564TIP3   OH222630   3.884   1.802   5.875 -0.3451 -0.5419  0.2657
 7564TIP3    H122631   3.878   1.731   5.812  0.1148 -1.6809  1.4803
 7564TIP3    H222632   3.868   1.881   5.824  1.0238 -1.3578 -1.4723
 7565TIP3   OH222633   4.839   2.933   3.469 -0.1909 -0.0105  0.2817
 7565TIP3    H122634   4.887   2.938   3.552 -1.2025 -0.7603  0.9172
 7565TIP3    H222635   4.815   2.841   3.460 -0.7811  0.2114 -0.4586
 7566TIP3   OH222636   5.693   3.225   5.319 -0.5876 -0.5248 -0.4598
 7566TIP3    H122637   5.665   3.151   5.372 -0.1692  0.2364  0.8308
 7566TIP3    H222638   5.618   3.284   5.318 -0.7212 -0.6991 -1.0215
 7567TIP3   OH222639   4.054   4.533   2.608 -1.1706  0.0746 -0.1600
 7567TIP3    H122640   4.008   4.616   2.617  0.6984  1.1440 -0.1320
 7567TIP3    H222641   4.143   4.558   2.583 -0.4273 -1.8905  0.4200
 7568TIP3   OH222642   3.020   5.184   2.763 -0.2429  0.0905  0.2346
 7568TIP3    H122643   3.024   5.277   2.741  0.0378  0.2603  0.9926
 7568TIP3    H222644   2.957   5.148   2.700  1.2796  0.3695 -1.4680
 7569TIP3   OH222645   2.632   4.091   3.337  0.2777  0.0415 -0.3609
 7569TIP3    H122646   2.625   4.138   3.254 -0.2334  0.9785  0.2112
 7569TIP3    H222647   2.551   4.112   3.384  0.6616 -0.3061  0.4675
 7570TIP3   OH222648   4.229   4.279   3.776 -0.0371  0.1836  0.5906
 7570TIP3    H122649   4.236   4.367   3.737  0.8583 -0.1887 -0.1153
 7570TIP3    H222650   4.135   4.263   3.782 -0.2591  1.8808  2.2976
 7571TIP3   OH222651   3.497   3.769   5.490  0.2121  0.6253 -0.0776
 7571TIP3    H122652   3.525   3.705   5.425 -1.2345  0.1292 -0.2236
 7571TIP3    H222653   3.578   3.810   5.520  0.9089  0.6945 -2.0263
 7572TIP3   OH222654   3.606   4.356   1.223  0.4658  0.0573 -0.5354
 7572TIP3    H122655   3.566   4.319   1.302 -0.7329 -1.1276 -1.6681
 7572TIP3    H222656   3.572   4.445   1.219  2.7895  1.0956  1.8117
 7573TIP3   OH222657   3.469   2.950   5.881  0.2872  0.3035 -0.3440
 7573TIP3    H122658   3.553   2.904   5.891  0.5154  0.5080 -1.2178
 7573TIP3    H222659   3.490   3.042   5.893  0.1242  0.3227 -0.2095
 7574TIP3   OH222660   3.276   3.975   3.202  0.2112 -0.4240 -0.3350
 7574TIP3    H122661   3.249   3.941   3.288  0.7114 -1.7012 -0.6686
 7574TIP3    H222662   3.253   3.906   3.141 -0.5742  0.6814 -1.3098
 7575TIP3   OH222663   4.195   4.197   4.637  0.0375 -0.0050  0.0833
 7575TIP3    H122664   4.262   4.152   4.688  2.5292  1.5329 -1.7285
 7575TIP3    H222665   4.210   4.290   4.655 -0.3430  0.4514 -1.8500
 7576TIP3   OH222666   2.840   3.210   3.488 -0.1975 -0.3582  0.2893
 7576TIP3    H122667   2.911   3.251   3.538  0.2687  1.1431 -1.5521
 7576TIP3    H222668   2.883   3.140   3.439  0.1187  0.7729 -1.0935
 7577TIP3   OH222669   4.143   3.324   3.702 -0.5689  0.1974  0.0437
 7577TIP3    H122670   4.219   3.288   3.748 -1.0022  0.8469  1.2914
 7577TIP3    H222671   4.176   3.348   3.615  0.5993  0.2910  0.5071
 7578TIP3   OH222672   4.500   3.163   3.125 -0.1802 -0.1733 -0.1414
 7578TIP3    H122673   4.432   3.221   3.091  0.0793 -0.2109 -0.7171
 7578TIP3    H222674   4.477   3.076   3.090 -0.7838 -0.5016  1.0159
 7579TIP3   OH222675   5.235   3.875   3.166 -0.2454  0.2207  0.4467
 7579TIP3    H122676   5.304   3.844   3.225 -0.2504  1.6272  1.2239
 7579TIP3    H222677   5.199   3.796   3.127  0.1940 -0.6943  1.8562
 7580TIP3   OH222678   3.300   3.169   3.625  0.1115  0.0173 -0.0277
 7580TIP3    H122679   3.248   3.249   3.633  1.1857  0.5815  1.6312
 7580TIP3    H222680   3.239   3.103   3.593 -1.5205  0.7714  1.4283
 7581TIP3   OH222681   4.191   3.957   3.273  0.0978  0.5621 -0.0479
 7581TIP3    H122682   4.170   4.051   3.268  0.6272  0.5995 -1.7977
 7581TIP3    H222683   4.108   3.913   3.255 -0.6063  0.6398  2.6687
 7582TIP3   OH222684   2.433   2.104   5.068  0.2987 -0.0013  0.2754
 7582TIP3    H122685   2.483   2.025   5.088  0.1320 -0.0340  0.5653
 7582TIP3    H222686   2.346   2.072   5.042  1.0529 -0.0521 -2.2448
 7583TIP3   OH222687   4.085   3.492   4.275 -0.0800  0.5208  0.7032
 7583TIP3    H122688   4.150   3.452   4.333 -1.0175  0.7215  1.9029
 7583TIP3    H222689   4.120   3.477   4.187  0.0625 -2.1176  1.1579
 7584TIP3   OH222690   2.362   3.992   5.058 -0.4474 -0.9142  0.0075
 7584TIP3    H122691   2.451   3.971   5.030 -0.2767  0.2884 -0.3660
 7584TIP3    H222692   2.353   3.948   5.143  0.5279 -0.9716  0.0877
 7585TIP3   OH222693   3.801   4.294   5.824  0.1463 -0.3057 -0.1101
 7585TIP3    H122694   3.894   4.295   5.804  0.1669 -0.2827 -0.0127
 7585TIP3    H222695   3.779   4.386   5.842 -0.2653 -0.0397 -1.8681
 7586TIP3   OH222696   1.954   5.722   3.016 -0.1925  0.4883 -0.7795
 7586TIP3    H122697   1.936   5.636   2.977 -1.2443  1.1143 -1.7006
 7586TIP3    H222698   2.004   5.702   3.095  0.7332 -0.8923 -1.6809
 7587TIP3   OH222699   5.408   4.275   4.724 -0.1219 -0.3292 -0.0550
 7587TIP3    H122700   5.492   4.244   4.757 -0.2769  0.2944  0.9415
 7587TIP3    H222701   5.429   4.353   4.673 -0.0722 -0.2880  0.0277
 7588TIP3   OH222702   3.094   3.754   3.287  0.2891  0.3912  0.4264
 7588TIP3    H122703   3.009   3.743   3.330  0.2554 -1.2911 -0.0154
 7588TIP3    H222704   3.153   3.696   3.335  0.4962 -0.6964 -1.1081
 7589TIP3   OH222705   3.687   4.032   4.835 -0.1303 -0.1618  0.2984
 7589TIP3    H122706   3.746   4.105   4.816  1.1025 -1.3094 -0.3320
 7589TIP3    H222707   3.616   4.041   4.771  1.0752 -0.6999 -1.1404
 7590TIP3   OH222708   4.341   2.999   3.669  0.4667  0.0151  0.2981
 7590TIP3    H122709   4.430   2.964   3.683 -0.6298 -3.5451 -1.0631
 7590TIP3    H222710   4.332   3.067   3.736  3.7524 -0.4147  1.3054
 7591TIP3   OH222711   5.787   4.615   4.469 -0.1998 -0.0626 -0.3635
 7591TIP3    H122712   5.804   4.706   4.493 -0.6028 -0.8930  3.4798
 7591TIP3    H222713   5.825   4.564   4.541 -1.0596 -2.8571 -1.8260
 7592TIP3   OH222714   3.274   5.953   2.632  0.1004  0.5911  0.3583
 7592TIP3    H122715   3.249   6.044   2.649  0.4203  0.9199 -0.8599
 7592TIP3    H222716   3.345   5.960   2.568 -0.2208 -0.5322 -0.1260
 7593TIP3   OH222717   6.334   4.563   3.882 -0.4447 -0.1866 -0.2980
 7593TIP3    H122718   6.291   4.571   3.796  1.8830  1.8421 -1.3219
 7593TIP3    H222719   6.428   4.564   3.862  0.1497  1.6984  2.3759
 7594TIP3   OH222720   4.473   2.428   5.260 -0.1756  0.3374  0.6774
 7594TIP3    H122721   4.492   2.364   5.191 -1.3753 -1.0380  1.5853
 7594TIP3    H222722   4.554   2.433   5.311  0.2637  0.3215 -0.0106
 7595TIP3   OH222723   3.000   2.888   3.918 -0.3567 -1.1609  0.4834
 7595TIP3    H122724   3.006   2.972   3.873  1.1381 -0.3477  2.1396
 7595TIP3    H222725   2.936   2.838   3.867  1.8917 -0.6287 -3.0050
 7596TIP3   OH222726   2.919   4.357   6.031 -0.3248 -0.1674  0.4409
 7596TIP3    H122727   2.982   4.372   5.960 -1.7630  0.9040 -0.6472
 7596TIP3    H222728   2.915   4.262   6.039  2.3456 -0.2419  1.3815
 7597TIP3   OH222729   3.343   4.173   4.180 -0.8231 -0.2455  0.4517
 7597TIP3    H122730   3.307   4.254   4.145  0.2996 -0.1818 -0.5652
 7597TIP3    H222731   3.405   4.143   4.113 -0.5858 -1.4817  1.2112
 7598TIP3   OH222732   4.486   3.566   4.690  0.3003 -0.9567 -0.1165
 7598TIP3    H122733   4.473   3.496   4.755  1.4591 -0.9095  0.1700
 7598TIP3    H222734   4.401   3.611   4.687 -0.3739 -2.2229 -0.1250
 7599TIP3   OH222735   4.473   3.704   3.668  0.5019  0.8133  0.6970
 7599TIP3    H122736   4.480   3.610   3.653 -1.0646  1.0726 -2.0406
 7599TIP3    H222737   4.500   3.743   3.584  0.2224  2.7582  1.5029
 7600TIP3   OH222738   5.249   3.996   4.029 -0.4471  0.0661  0.8076
 7600TIP3    H122739   5.210   3.994   4.116 -0.6747  0.9816  0.7252
 7600TIP3    H222740   5.230   4.083   3.995  0.8407  0.1931  0.3862
 7601TIP3   OH222741   3.139   4.010   6.625 -0.1097  0.3879  0.0726
 7601TIP3    H122742   3.051   4.043   6.609  0.9772  2.0702 -2.8568
 7601TIP3    H222743   3.196   4.067   6.574  2.5731 -1.4340  0.9089
 7602TIP3   OH222744   5.090   3.451   5.329  0.0463 -0.4601 -0.0127
 7602TIP3    H122745   5.159   3.420   5.386 -0.7919 -1.5811  0.4118
 7602TIP3    H222746   5.051   3.371   5.292  0.7061  0.2286 -2.3178
 7603TIP3   OH222747   4.326   4.912   5.030  0.6175 -0.3424 -0.3029
 7603TIP3    H122748   4.408   4.911   4.981  1.4314 -0.2737  1.0473
 7603TIP3    H222749   4.277   4.987   4.994  0.7939 -0.8530 -1.6454
 7604TIP3   OH222750   3.494   2.145   5.210  0.2332  0.2163 -0.6267
 7604TIP3    H122751   3.439   2.069   5.227 -0.2718  0.5926 -0.5497
 7604TIP3    H222752   3.479   2.166   5.118 -1.9918  2.0532  0.0960
 7605TIP3   OH222753   1.941   3.941   6.520  0.3589 -0.7857 -0.5178
 7605TIP3    H122754   1.871   3.909   6.463  0.5655 -0.0772 -1.1851
 7605TIP3    H222755   1.964   3.866   6.575  1.1659 -1.9479 -2.3694
 7606TIP3   OH222756   5.339   4.875   5.038 -1.0304 -0.1375 -0.4122
 7606TIP3    H122757   5.318   4.967   5.025  0.1713  0.1329 -0.5456
 7606TIP3    H222758   5.373   4.846   4.953 -0.9310 -0.5631 -0.2270
 7607TIP3   OH222759   6.500   3.990   4.470  0.1457 -0.1873 -0.7323
 7607TIP3    H122760   6.408   3.995   4.443  0.6483 -0.8714 -2.6289
 7607TIP3    H222761   6.549   4.017   4.393  1.5684 -0.6943 -0.0109
 7608TIP3   OH222762   4.167   3.856   3.784 -0.3396  0.2926 -0.1232
 7608TIP3    H122763   4.139   3.796   3.853  0.1476 -0.1141 -0.2747
 7608TIP3    H222764   4.204   3.931   3.830  0.4398 -0.1982  0.0569
 7609TIP3   OH222765   3.368   3.811   5.219  0.0810 -0.5287 -0.4977
 7609TIP3    H122766   3.310   3.801   5.144 -1.6478  3.3014  0.1962
 7609TIP3    H222767   3.310   3.824   5.294  1.7235  2.1590  0.4105
 7610TIP3   OH222768   4.919   3.235   6.737  0.2308 -0.0383 -0.3402
 7610TIP3    H122769   4.832   3.210   6.705 -0.3564 -1.1136  2.0345
 7610TIP3    H222770   4.949   3.160   6.788  3.5955 -0.6409 -3.0465
 7611TIP3   OH222771   3.798   5.046   6.258  0.1257 -0.3230  0.2939
 7611TIP3    H122772   3.791   5.044   6.163 -1.5506  2.8018  0.2812
 7611TIP3    H222773   3.890   5.067   6.275  0.2438 -0.0519 -0.6705
 7612TIP3   OH222774   3.766   4.866   4.497  0.1779 -0.1017  0.6496
 7612TIP3    H122775   3.793   4.797   4.436 -0.3837 -0.5223  0.8841
 7612TIP3    H222776   3.744   4.820   4.578  0.2665  0.3974  0.9565
 7613TIP3   OH222777   3.941   4.432   4.120 -0.2942  0.3035 -0.4622
 7613TIP3    H122778   3.993   4.445   4.199  0.3574  0.4131 -0.9032
 7613TIP3    H222779   3.888   4.355   4.139  1.3854 -0.9449 -0.6955
 7614TIP3   OH222780   4.136   4.767   3.932 -0.0050  0.6830  0.3906
 7614TIP3    H122781   4.177   4.813   4.005  0.3368  1.2747 -0.1666
 7614TIP3    H222782   4.209   4.739   3.877 -0.2224 -0.3474  0.6183
 7615TIP3   OH222783   3.389   6.522   4.167 -0.0203  0.3168 -0.9750
 7615TIP3    H122784   3.471   6.483   4.197 -0.0294 -0.9678 -2.5794
 7615TIP3    H222785   3.415   6.607   4.131  0.1417  1.3835  1.5021
 7616TIP3   OH222786   5.786   3.768   4.796  0.4160  0.1262 -0.4191
 7616TIP3    H122787   5.708   3.819   4.775 -0.7786 -1.8608 -0.9258
 7616TIP3    H222788   5.801   3.783   4.889  0.4706  1.8826 -0.6946
 7617TIP3   OH222789   6.886   5.576   2.105  0.0296 -0.7100  0.3749
 7617TIP3    H122790   6.802   5.619   2.096  0.3490  0.5039  2.7477
 7617TIP3    H222791   6.878   5.523   2.185  2.2038  1.2626  2.0046
 7618TIP3   OH222792   5.438   5.285   5.825  0.1401 -0.1447 -0.2253
 7618TIP3    H122793   5.448   5.197   5.861  0.2431 -0.0922 -0.1280
 7618TIP3    H222794   5.500   5.339   5.874 -2.5369  0.7513  2.3543
 7619TIP3   OH222795   7.007   5.011   3.173 -0.3656  0.1558  0.1923
 7619TIP3    H122796   6.990   4.954   3.098  0.9233 -0.8535  0.6476
 7619TIP3    H222797   7.067   5.077   3.139 -0.1583 -0.0219  0.2117
 7620TIP3   OH222798   5.209   3.513   4.784 -0.4517  0.4876  0.3138
 7620TIP3    H122799   5.146   3.520   4.856 -0.8932  0.8981 -0.1030
 7620TIP3    H222800   5.281   3.570   4.810  0.3117 -0.9474  1.3637
 7621TIP3   OH222801   3.189   2.507   3.618  0.5501  0.1241  0.2647
 7621TIP3    H122802   3.109   2.557   3.603  2.2948  2.1048 -2.8078
 7621TIP3    H222803   3.159   2.422   3.651 -2.6686  1.6187  1.3095
 7622TIP3   OH222804   5.261   2.336   4.017  0.4469  0.0507  0.1399
 7622TIP3    H122805   5.239   2.301   4.103  0.0601 -1.6214 -0.6050
 7622TIP3    H222806   5.257   2.431   4.027 -1.4109 -0.1499  1.5015
 7623TIP3   OH222807   6.900   3.499   6.588 -0.3618 -0.5502  0.3382
 7623TIP3    H122808   6.993   3.509   6.608  0.0334 -0.4013 -1.4714
 7623TIP3    H222809   6.884   3.562   6.517 -1.6584 -1.1168  0.1151
 7624TIP3   OH222810   6.332   4.895   5.588 -0.2860  0.2068 -0.4930
 7624TIP3    H122811   6.280   4.869   5.664  0.5434  0.9499  0.3459
 7624TIP3    H222812   6.407   4.941   5.626  1.3799 -1.5030 -1.6096
 7625TIP3   OH222813   7.020   4.003   3.157  0.0993 -0.4201 -0.1546
 7625TIP3    H122814   7.096   3.976   3.106  1.1374 -1.8173  2.0578
 7625TIP3    H222815   7.002   3.929   3.214 -1.1781  0.9993  1.3287
 7626TIP3   OH222816   2.752   3.705   6.340 -0.0051  0.1087 -0.1732
 7626TIP3    H122817   2.698   3.645   6.288 -0.3536 -0.0590  0.3826
 7626TIP3    H222818   2.831   3.718   6.287  0.0101 -0.7213 -0.3583
 7627TIP3   OH222819   5.610   3.503   4.219 -0.2094 -0.3918 -0.2161
 7627TIP3    H122820   5.690   3.503   4.166  0.1182 -0.2445  0.2671
 7627TIP3    H222821   5.605   3.414   4.254  0.5022 -0.0197  0.8639
 7628TIP3   OH222822   4.388   3.697   3.945  0.4687  0.6045  0.3239
 7628TIP3    H122823   4.366   3.780   3.988 -2.1291 -0.6803  1.5904
 7628TIP3    H222824   4.401   3.721   3.853  0.2077  2.4835  0.7425
 7629TIP3   OH222825   3.031   1.439   6.443 -0.0581  0.2392  0.2912
 7629TIP3    H122826   3.061   1.437   6.534 -0.4433  1.0984  0.4461
 7629TIP3    H222827   3.067   1.359   6.404 -0.6120 -0.5886  1.4294
 7630TIP3   OH222828   3.569   3.608   4.866  0.0359  0.4966 -0.6500
 7630TIP3    H122829   3.500   3.578   4.925  1.6379 -0.6227  0.7298
 7630TIP3    H222830   3.529   3.608   4.780 -1.7144 -0.0430  0.1361
 7631TIP3   OH222831   6.444   4.858   3.703  0.2829  0.9554  0.6246
 7631TIP3    H122832   6.515   4.811   3.745 -0.2326  0.0056  0.4393
 7631TIP3    H222833   6.393   4.790   3.659 -0.3656  1.7035  0.2133
 7632TIP3   OH222834   3.764   2.351   4.675 -0.2083 -0.8989  0.8610
 7632TIP3    H122835   3.708   2.417   4.716 -2.5149 -0.4105 -2.8231
 7632TIP3    H222836   3.722   2.267   4.698 -0.2152 -0.7650  1.3412
 7633TIP3   OH222837   1.208   6.887   3.044  0.6835  0.1557  0.5745
 7633TIP3    H122838   1.172   6.925   3.125  2.2107  0.1427  1.2904
 7633TIP3    H222839   1.249   6.962   3.000  0.3613  0.0512  0.1082
 7634TIP3   OH222840   1.913   3.522   5.213 -0.0736 -0.0215  0.6237
 7634TIP3    H122841   1.848   3.515   5.283 -1.0249  1.8632 -0.0337
 7634TIP3    H222842   1.976   3.452   5.232 -2.2996 -1.9415  1.2403
 7635TIP3   OH222843   2.351   4.577   6.388 -0.3282  0.1933  0.2002
 7635TIP3    H122844   2.275   4.587   6.332  0.5918  1.9808 -0.7784
 7635TIP3    H222845   2.372   4.484   6.384 -1.3333  0.0082 -1.0261
 7636TIP3   OH222846   1.753   3.519   1.367  0.0611 -0.3349 -0.0664
 7636TIP3    H122847   1.819   3.575   1.409 -1.1587 -0.7851  2.5743
 7636TIP3    H222848   1.771   3.432   1.402 -0.5506 -0.8575 -1.0448
 7637TIP3   OH222849   4.126   5.519   5.710 -0.4074 -0.4599 -0.6061
 7637TIP3    H122850   4.107   5.498   5.802 -0.0382 -0.7831 -0.6018
 7637TIP3    H222851   4.096   5.609   5.699  2.8494  0.8463  0.8054
 7638TIP3   OH222852   4.665   3.759   4.825 -0.7053 -0.1041  0.3412
 7638TIP3    H122853   4.611   3.690   4.785 -1.0163  0.9657 -1.1074
 7638TIP3    H222854   4.682   3.820   4.754  1.3666  0.2357  1.1033
 7639TIP3   OH222855   3.255   4.165   5.156 -0.2773 -0.2744  0.2727
 7639TIP3    H122856   3.241   4.107   5.231 -0.1694  0.3849  0.8057
 7639TIP3    H222857   3.254   4.106   5.080 -0.7210 -0.8997  0.7574
 7640TIP3   OH222858   1.393   3.061   6.764 -0.0754  0.2372  0.0688
 7640TIP3    H122859   1.428   3.002   6.831  0.1333  1.4043  1.0194
 7640TIP3    H222860   1.391   3.009   6.684  0.1283 -1.0381  0.8800
 7641TIP3   OH222861   2.824   4.422   4.029  0.8452 -0.1248  0.4900
 7641TIP3    H122862   2.766   4.444   3.956  1.8660 -2.8550 -1.2152
 7641TIP3    H222863   2.810   4.492   4.092 -0.1760  2.2511 -2.2520
 7642TIP3   OH222864   3.792   5.307   3.839  0.8212  0.1102 -0.6238
 7642TIP3    H122865   3.804   5.381   3.779  1.3283  0.1123 -0.5216
 7642TIP3    H222866   3.792   5.347   3.926 -0.4365  0.1684 -0.6508
 7643TIP3   OH222867   4.980   5.371   3.900  0.0949  0.2582 -0.2209
 7643TIP3    H122868   5.033   5.450   3.894  1.8659 -0.9226 -0.5616
 7643TIP3    H222869   4.933   5.379   3.983  1.7781  0.7544  0.6991
 7644TIP3   OH222870   5.187   4.599   3.366 -0.2263 -0.2641  0.6041
 7644TIP3    H122871   5.133   4.661   3.415  0.0735  0.5706 -0.1161
 7644TIP3    H222872   5.246   4.654   3.314 -0.4635 -1.1497 -0.6175
 7645TIP3   OH222873   4.662   2.638   3.263  0.2904  0.7249  0.0214
 7645TIP3    H122874   4.753   2.610   3.255  0.4102  0.4741  2.0662
 7645TIP3    H222875   4.665   2.715   3.320 -0.8156  0.4998  0.3974
 7646TIP3   OH222876   3.155   3.599   4.344 -0.4068  0.2651 -0.7227
 7646TIP3    H122877   3.149   3.532   4.412  2.1930  1.6359  0.9514
 7646TIP3    H222878   3.219   3.564   4.282 -0.0174  0.5958 -0.5150
 7647TIP3   OH222879   4.066   4.551   3.658 -0.0238 -0.3414 -0.0814
 7647TIP3    H122880   4.068   4.642   3.627  1.5315 -0.3661 -0.1305
 7647TIP3    H222881   3.987   4.545   3.712 -1.3684  0.4163 -1.9179
 7648TIP3   OH222882   5.928   5.848   3.269  0.1286 -0.0486 -0.1905
 7648TIP3    H122883   5.960   5.811   3.187  0.4734  0.2828 -0.2079
 7648TIP3    H222884   6.006   5.886   3.310 -0.2072  0.6164 -0.1563
 7649TIP3   OH222885   5.727   5.393   2.203  0.4072 -0.0986 -0.0242
 7649TIP3    H122886   5.641   5.425   2.231 -0.6412 -0.4495 -2.7011
 7649TIP3    H222887   5.782   5.472   2.202 -0.3307  0.4224  0.0475
 7650TIP3   OH222888   5.104   5.740   2.797  0.0465  0.0902  0.1238
 7650TIP3    H122889   5.122   5.819   2.847 -0.3235  0.9462 -1.0737
 7650TIP3    H222890   5.052   5.770   2.722  0.8973 -1.0942 -0.9661
 7651TIP3   OH222891   4.736   2.249   5.722 -0.1276 -0.5051 -0.0447
 7651TIP3    H122892   4.693   2.332   5.703 -1.3019 -0.9281  0.7192
 7651TIP3    H222893   4.743   2.248   5.817 -0.5447 -1.4906 -0.0230
 7652TIP3   OH222894   3.773   2.402   2.503 -0.1937  0.4477 -0.1521
 7652TIP3    H122895   3.687   2.432   2.474 -0.0403  1.1989  0.1516
 7652TIP3    H222896   3.784   2.317   2.461 -1.2890  0.1253  0.1940
 7653TIP3   OH222897   4.093   1.890   5.418  0.4830 -0.0207  0.2844
 7653TIP3    H122898   4.046   1.807   5.428  0.2197 -0.0707 -1.2631
 7653TIP3    H222899   4.185   1.864   5.409  0.4954 -0.0817  0.5552
 7654TIP3   OH222900   3.999   2.253   6.119 -0.1977 -0.1493  0.3454
 7654TIP3    H122901   3.968   2.294   6.200  2.3017 -2.4857  2.6056
 7654TIP3    H222902   3.938   2.181   6.104 -0.4273  0.0358  0.3910
 7655TIP3   OH222903   4.986   3.512   4.604  0.4523 -0.3278  0.0258
 7655TIP3    H122904   4.976   3.607   4.594  0.7631 -0.1170  1.6176
 7655TIP3    H222905   5.070   3.501   4.648 -0.1469 -1.2844  0.9495
 7656TIP3   OH222906   2.544   3.298   4.039 -0.3436  0.2970  0.6202
 7656TIP3    H122907   2.575   3.228   4.097  1.2930 -0.3952 -1.0468
 7656TIP3    H222908   2.451   3.308   4.062 -0.5443 -2.2599  1.0638
 7657TIP3   OH222909   3.579   4.779   1.414  0.2656 -0.3680 -0.5559
 7657TIP3    H122910   3.557   4.686   1.423  0.5571 -0.2793  1.2909
 7657TIP3    H222911   3.499   4.825   1.441  1.1135 -0.0828  1.5636
 7658TIP3   OH222912   4.890   4.832   1.665 -0.1604  0.4707  0.2482
 7658TIP3    H122913   4.931   4.773   1.601 -0.3081  0.4830  0.1417
 7658TIP3    H222914   4.839   4.893   1.612 -0.8249  0.0629  0.4075
 7659TIP3   OH222915   5.395   5.002   3.371  0.5305 -0.5917 -0.0981
 7659TIP3    H122916   5.458   4.966   3.434 -1.1494 -2.2681  0.6732
 7659TIP3    H222917   5.400   4.943   3.296 -0.6126 -1.1521  0.2550
 7660TIP3   OH222918   3.712   1.831   5.285  0.5523 -0.0892 -0.6254
 7660TIP3    H122919   3.662   1.814   5.205  0.9263 -2.6001 -0.3658
 7660TIP3    H222920   3.779   1.894   5.259  1.1598 -1.4828 -2.4735
 7661TIP3   OH222921   2.918   3.846   5.913  0.2934 -0.1519 -0.1117
 7661TIP3    H122922   3.005   3.807   5.903 -0.2770 -1.4853 -0.0058
 7661TIP3    H222923   2.882   3.806   5.993 -0.7757 -0.2963 -0.6538
 7662TIP3   OH222924   4.180   4.421   3.448  0.2782 -0.2338  0.1310
 7662TIP3    H122925   4.122   4.463   3.384 -0.8843 -1.4505  0.3432
 7662TIP3    H222926   4.148   4.451   3.533  0.3459 -0.4350  0.2279
 7663TIP3   OH222927   4.148   3.321   4.647  0.5660 -0.6602 -0.0418
 7663TIP3    H122928   4.083   3.392   4.651  1.3305  0.0541 -0.1519
 7663TIP3    H222929   4.096   3.241   4.651 -0.3240 -0.0946 -0.1006
 7664TIP3   OH222930   2.975   0.881   2.360  0.0731 -0.2695 -0.6457
 7664TIP3    H122931   2.889   0.864   2.320  0.7067 -0.3313 -2.0368
 7664TIP3    H222932   3.031   0.904   2.285  0.6156  2.4303  0.5282
 7665TIP3   OH222933   6.946   5.678   4.194 -0.0531  0.2576  0.2925
 7665TIP3    H122934   6.987   5.761   4.218 -0.0429  0.5101 -0.5565
 7665TIP3    H222935   6.883   5.702   4.126  1.6475 -0.7361 -1.6929
 7666TIP3   OH222936   6.430   4.822   6.475  0.1029  0.1904  0.5351
 7666TIP3    H122937   6.515   4.846   6.437  0.3105  1.5702  1.8107
 7666TIP3    H222938   6.448   4.744   6.526  0.1631 -0.7094 -0.8277
 7667TIP3   OH222939   4.427   5.618   3.725  0.7107  0.4633 -0.5515
 7667TIP3    H122940   4.408   5.711   3.734 -0.3217  0.2918 -0.9096
 7667TIP3    H222941   4.344   5.579   3.698  0.6259 -0.8721  1.5580
 7668TIP3   OH222942   7.237   6.782   3.891 -0.0773 -0.4986  0.6662
 7668TIP3    H122943   7.177   6.819   3.827 -0.7960 -1.7299  0.6234
 7668TIP3    H222944   7.182   6.731   3.950  0.6995 -0.1698  1.6879
 7669TIP3   OH222945   6.671   3.777   2.034 -0.0518  0.0412 -0.2600
 7669TIP3    H122946   6.707   3.858   2.071 -0.4876  0.0844  0.0797
 7669TIP3    H222947   6.578   3.781   2.055 -0.1447 -0.3609 -0.5949
 7670TIP3   OH222948   6.518   3.727   3.779 -0.1103 -0.0285  0.0983
 7670TIP3    H122949   6.512   3.813   3.821  1.6711 -0.2597  0.8717
 7670TIP3    H222950   6.465   3.670   3.833 -0.4965  0.3693  0.1431
 7671TIP3   OH222951   5.652   6.229   1.920 -0.2040 -0.5341 -0.2259
 7671TIP3    H122952   5.636   6.232   2.014 -1.1103 -0.3953 -0.3773
 7671TIP3    H222953   5.622   6.142   1.892 -1.5837  0.0566 -0.6578
 7672TIP3   OH222954   7.099   5.170   2.819  0.4503  0.1498  0.2888
 7672TIP3    H122955   7.137   5.188   2.905 -0.9057 -0.1798  0.9669
 7672TIP3    H222956   7.005   5.164   2.835  0.3352 -1.6153 -0.9184
 7673TIP3   OH222957   6.816   4.024   2.085 -0.0917  0.0039 -0.1517
 7673TIP3    H122958   6.865   4.051   2.007 -0.3576 -0.2924 -0.4251
 7673TIP3    H222959   6.847   4.082   2.154  0.1214  0.2928 -0.4873
 7674TIP3   OH222960   0.257   3.646   3.845 -0.8730 -0.0702 -0.0285
 7674TIP3    H122961   0.351   3.642   3.826 -0.5494 -1.4376  1.6219
 7674TIP3    H222962   0.250   3.709   3.917 -1.2333  0.1051 -0.2169
 7675TIP3   OH222963   6.515   2.467   5.671 -0.8720  0.0633  0.2554
 7675TIP3    H122964   6.514   2.486   5.765 -0.2667  0.0350  0.2699
 7675TIP3    H222965   6.434   2.418   5.655 -0.0614 -1.5846  1.1093
 7676TIP3   OH222966   4.692   4.328   2.542  0.1563  0.4581  0.0135
 7676TIP3    H122967   4.748   4.271   2.594  1.0683 -0.8592 -2.3201
 7676TIP3    H222968   4.622   4.270   2.511  0.4935  0.8227 -1.4871
 7677TIP3   OH222969   4.942   1.857   3.649  0.5658 -0.2345 -0.3663
 7677TIP3    H122970   4.995   1.783   3.620 -1.8882 -2.3307  0.3352
 7677TIP3    H222971   4.949   1.922   3.579  0.4066 -2.3247 -2.3333
 7678TIP3   OH222972   7.622   3.758   4.657 -0.5285  0.2385  0.2436
 7678TIP3    H122973   7.652   3.813   4.585 -3.2991  0.7318 -0.6320
 7678TIP3    H222974   7.631   3.813   4.735  0.5804  0.4464 -0.0323
 7679TIP3   OH222975   3.532   5.927   2.965  0.2247 -0.1646  0.4268
 7679TIP3    H122976   3.480   5.983   3.022  0.9255 -0.4170  1.3246
 7679TIP3    H222977   3.574   5.865   3.024 -0.1655 -1.3487 -0.5014
 7680TIP3   OH222978   4.893   5.036   3.237  0.0722 -0.0736 -0.3125
 7680TIP3    H122979   4.919   4.991   3.157  0.0600 -2.0317  0.7631
 7680TIP3    H222980   4.959   5.013   3.301 -1.1310 -0.3369  0.8572
 7681TIP3   OH222981   1.056   4.635   4.244 -0.1354  0.0617 -0.8739
 7681TIP3    H122982   1.097   4.559   4.285 -0.7524 -1.3162 -2.7746
 7681TIP3    H222983   1.045   4.697   4.316  1.5230 -1.1416  0.4546
 7682TIP3   OH222984   6.337   3.016   2.077  0.0588 -0.5027 -0.3950
 7682TIP3    H122985   6.392   2.987   2.149 -1.9122 -0.0584  1.3247
 7682TIP3    H222986   6.373   2.971   2.000  1.0350 -2.4324  1.1479
 7683TIP3   OH222987   5.256   5.292   4.274 -0.0468  0.1935  0.2840
 7683TIP3    H122988   5.263   5.196   4.280  2.2990  0.4095  1.6968
 7683TIP3    H222989   5.287   5.312   4.185  0.4290 -0.3004  0.3310
 7684TIP3   OH222990   6.638   7.388   3.131 -0.2885 -0.1061  0.3130
 7684TIP3    H122991   6.587   7.349   3.202 -1.3991 -0.3856 -0.6128
 7684TIP3    H222992   6.653   7.317   3.069 -0.7729  0.4964 -0.5205
 7685TIP3   OH222993   4.180   5.160   4.081  0.1735 -0.0337  0.5549
 7685TIP3    H122994   4.129   5.146   4.161  1.0469 -1.1710  0.9186
 7685TIP3    H222995   4.131   5.115   4.013  0.4362 -0.7285  0.8184
 7686TIP3   OH222996   6.385   5.734   2.841 -0.0035  0.1027  0.5109
 7686TIP3    H122997   6.456   5.762   2.899 -0.6537 -1.2312  1.9856
 7686TIP3    H222998   6.317   5.801   2.852  0.5810  0.7984 -0.0758
 7687TIP3   OH222999   6.622   5.787   3.912 -0.3323 -0.0899 -0.0436
 7687TIP3    H123000   6.596   5.824   3.997  0.5610 -1.5529  0.8978
 7687TIP3    H223001   6.554   5.723   3.892 -0.9651  0.8134 -0.8409
 7688TIP3   OH223002   6.764   6.490   1.356 -0.8489  0.3585 -0.0757
 7688TIP3    H123003   6.845   6.510   1.310 -0.9770 -1.1098 -0.9339
 7688TIP3    H223004   6.783   6.411   1.406 -0.9954  1.4001  1.7113
 7689TIP3   OH223005   7.655   6.348   4.459  0.3212  0.3054  0.1716
 7689TIP3    H123006   7.680   6.403   4.384  1.2774 -1.4477 -0.8280
 7689TIP3    H223007   7.615   6.270   4.420  0.2070 -0.3262  1.5155
 7690TIP3   OH223008   7.172   4.671   1.625 -0.1740  0.1340  0.5076
 7690TIP3    H123009   7.091   4.684   1.576 -0.3210 -0.0414  0.7010
 7690TIP3    H223010   7.193   4.758   1.661  0.7573  0.5949 -1.1176
 7691TIP3   OH223011   6.302   4.492   4.911  0.2202  0.2422 -0.5471
 7691TIP3    H123012   6.276   4.470   4.821 -1.7608 -0.7828  0.2336
 7691TIP3    H223013   6.347   4.414   4.943 -1.8807 -0.6533  0.3635
 7692TIP3   OH223014   7.355   3.668   4.637  0.3255 -0.0520  0.2954
 7692TIP3    H123015   7.322   3.697   4.552  0.8433 -0.0771  0.0808
 7692TIP3    H223016   7.446   3.699   4.639  1.0714 -2.0753 -0.1627
 7693TIP3   OH223017   4.413   5.577   3.997 -0.3281 -0.1831 -0.0342
 7693TIP3    H123018   4.422   5.541   3.908 -1.6184  0.1138 -0.3018
 7693TIP3    H223019   4.373   5.663   3.984  0.8860  0.5096  0.7427
 7694TIP3   OH223020   4.980   4.646   2.181  0.1752 -0.4599 -0.2362
 7694TIP3    H123021   4.945   4.561   2.205  0.4515 -0.4318  0.2760
 7694TIP3    H223022   4.985   4.694   2.264  3.0167 -1.0441 -0.0522
 7695TIP3   OH223023   5.367   4.286   4.336  0.2544  0.4441  0.1128
 7695TIP3    H123024   5.438   4.344   4.362  1.5950 -1.8603  1.7325
 7695TIP3    H223025   5.398   4.246   4.254  2.0918 -2.5519  2.1685
 7696TIP3   OH223026   3.170   5.825   5.871 -0.0947  0.3693  0.2194
 7696TIP3    H123027   3.257   5.806   5.836  0.5276  0.4900  1.6537
 7696TIP3    H223028   3.122   5.743   5.863  0.1040  0.3482 -0.7248
 7697TIP3   OH223029   4.218   3.886   4.078  0.1671  0.2778  0.2248
 7697TIP3    H123030   4.144   3.826   4.072  0.0554  0.2821  1.5652
 7697TIP3    H223031   4.182   3.965   4.119  0.4203  1.0961 -1.1001
 7698TIP3   OH223032   8.330   4.452   3.431  0.8133  0.3430  0.0186
 7698TIP3    H123033   8.253   4.507   3.447 -0.0922 -0.5217 -1.2434
 7698TIP3    H223034   8.397   4.486   3.490 -0.3558  1.5005  0.6971
 7699TIP3   OH223035   6.209   6.117   4.106  0.2197 -0.3709  0.3503
 7699TIP3    H123036   6.114   6.104   4.110  0.2612 -0.9989 -0.6120
 7699TIP3    H223037   6.235   6.078   4.022  1.2997 -0.0346  0.5255
 7700TIP3   OH223038   6.094   4.897   4.433 -0.2063  0.1128 -0.1699
 7700TIP3    H123039   6.140   4.841   4.495 -0.4774  0.7150  0.5740
 7700TIP3    H223040   6.054   4.836   4.371  1.3436 -0.4252 -0.6523
 7701TIP3   OH223041   6.021   2.480   4.096 -0.5664  0.0271  0.6288
 7701TIP3    H123042   6.035   2.393   4.134  0.7206  0.9042  2.2274
 7701TIP3    H223043   5.973   2.528   4.163  0.9288  1.3034  0.8229
 7702TIP3   OH223044   6.550   5.240   5.589 -0.4409 -0.4080  0.0811
 7702TIP3    H123045   6.596   5.324   5.581 -0.4988 -0.4416 -0.6271
 7702TIP3    H223046   6.559   5.200   5.503 -0.4151 -1.1332  0.4227
 7703TIP3   OH223047   0.418   4.951   4.627  0.1459 -0.1392 -0.1312
 7703TIP3    H123048   0.461   4.866   4.633 -0.8988 -0.6487  0.2235
 7703TIP3    H223049   0.461   5.005   4.693  0.6300 -0.4726 -0.1779
 7704TIP3   OH223050   5.995   5.799   2.817  0.1796 -0.2234 -0.0744
 7704TIP3    H123051   5.912   5.801   2.866  1.8642 -2.0935  2.9979
 7704TIP3    H223052   6.053   5.858   2.864  1.9350 -2.2682  0.4171
 7705TIP3   OH223053   6.382   2.351   4.867  0.8429 -0.1506 -0.1194
 7705TIP3    H123054   6.382   2.377   4.959  0.4610 -0.5924  0.0071
 7705TIP3    H223055   6.460   2.394   4.830  2.3762 -1.9113  0.9613
 7706TIP3   OH223056   6.730   6.301   3.428 -0.0148 -0.1494  0.5518
 7706TIP3    H123057   6.772   6.228   3.382  1.0094  1.2292 -0.7500
 7706TIP3    H223058   6.735   6.277   3.520 -1.2473 -2.5276  0.0579
 7707TIP3   OH223059   4.326   5.067   3.676  0.0894 -0.0494  0.2855
 7707TIP3    H123060   4.358   5.029   3.758  2.8743  2.1979  0.3031
 7707TIP3    H223061   4.397   5.054   3.614 -1.0419  0.4282 -1.1319
 7708TIP3   OH223062   6.798   5.635   3.368 -0.6887 -0.0010 -0.1820
 7708TIP3    H123063   6.871   5.623   3.429 -1.5631  0.1466  0.9302
 7708TIP3    H223064   6.810   5.567   3.302  0.8937  0.5301 -0.4727
 7709TIP3   OH223065   3.930   6.765   5.026  0.3927  0.3087 -0.5324
 7709TIP3    H123066   3.961   6.707   4.956  0.0454  0.0985 -0.5156
 7709TIP3    H223067   3.864   6.713   5.073 -0.4776  0.9807 -0.9931
 7710TIP3   OH223068   5.884   4.592   4.735 -0.3223 -0.7428  0.2219
 7710TIP3    H123069   5.970   4.633   4.742 -1.0073  0.8916 -0.6058
 7710TIP3    H223070   5.829   4.639   4.797 -0.8831 -1.0704 -0.0181
 7711TIP3   OH223071   5.413   4.454   5.149  0.4543 -0.6641 -0.4395
 7711TIP3    H123072   5.501   4.477   5.121  0.3759  0.1331 -0.0554
 7711TIP3    H223073   5.372   4.538   5.171 -0.7054 -0.9330 -1.4922
 7712TIP3   OH223074   6.301   4.453   2.926 -0.3851  0.1944  0.2323
 7712TIP3    H123075   6.278   4.544   2.911 -0.8171  0.1737  0.7676
 7712TIP3    H223076   6.298   4.442   3.021 -0.1031 -0.3161  0.1882
 7713TIP3   OH223077   7.311   5.799   1.237  0.3423  0.1201 -0.5448
 7713TIP3    H123078   7.351   5.805   1.150  0.8187  1.3832 -0.2595
 7713TIP3    H223079   7.256   5.721   1.234  2.2688 -1.2377 -1.1863
 7714TIP3   OH223080   6.641   4.370   0.625 -0.4566 -0.3251  0.1333
 7714TIP3    H123081   6.724   4.392   0.666  0.0419 -1.3667 -0.3064
 7714TIP3    H223082   6.595   4.454   0.616  0.0420  0.0951  1.4607
 7715TIP3   OH223083   7.225   5.641   2.913  0.0535  0.5235 -0.2754
 7715TIP3    H123084   7.186   5.593   2.840 -0.0423  0.9566 -0.5099
 7715TIP3    H223085   7.155   5.647   2.978  0.4018 -0.6333  0.2284
 7716TIP3   OH223086   7.066   4.040   4.665 -0.4753 -0.7744  0.1867
 7716TIP3    H123087   7.113   4.043   4.582 -0.3657 -1.7375  0.1989
 7716TIP3    H223088   7.090   3.955   4.703  0.5553  0.2173  1.8411
 7717TIP3   OH223089   4.056   2.472   4.251  0.2999  0.1343  0.4465
 7717TIP3    H123090   4.043   2.454   4.158  0.4533 -0.9160  0.6243
 7717TIP3    H223091   4.078   2.565   4.255 -0.0115  0.2495 -0.5360
 7718TIP3   OH223092   6.261   2.809   2.499 -0.0656  0.3154 -0.9989
 7718TIP3    H123093   6.229   2.832   2.411  1.1435  0.4546 -1.4230
 7718TIP3    H223094   6.211   2.865   2.558 -0.9598  0.1584 -1.5927
 7719TIP3   OH223095   5.547   4.333   2.851  0.0993 -0.4013  0.5115
 7719TIP3    H123096   5.584   4.362   2.934  2.1149 -2.5080  0.3865
 7719TIP3    H223097   5.616   4.348   2.787 -0.6627 -0.7901 -0.4201
 7720TIP3   OH223098   6.747   4.602   3.217  0.1360 -0.2898  0.2664
 7720TIP3    H123099   6.778   4.659   3.288 -2.0991  0.5630  0.5924
 7720TIP3    H223100   6.657   4.580   3.242  0.6018 -3.1053 -0.3963
 7721TIP3   OH223101   5.931   1.638   5.064  0.1344 -0.5149  0.1089
 7721TIP3    H123102   5.959   1.614   4.976  0.1193  1.0688 -0.3475
 7721TIP3    H223103   5.909   1.731   5.057  1.9044  0.0967  2.1894
 7722TIP3   OH223104   5.096   4.672   2.976 -0.2667  0.3901 -0.2899
 7722TIP3    H123105   5.190   4.685   2.966 -0.4658  0.9587 -1.5793
 7722TIP3    H223106   5.087   4.621   3.056  1.4069 -3.4580 -2.4339
 7723TIP3   OH223107   4.592   2.827   2.781  0.4576 -0.3576 -0.6666
 7723TIP3    H123108   4.604   2.874   2.698 -1.2909  2.1564  0.4311
 7723TIP3    H223109   4.505   2.788   2.774 -1.0735  2.5432  1.1558
 7724TIP3   OH223110   5.643   4.837   3.563  0.0776 -0.1940 -0.0068
 7724TIP3    H123111   5.685   4.768   3.615  1.4521  1.7725  1.5629
 7724TIP3    H223112   5.690   4.834   3.479  1.7624  0.3386  0.8748
 7725TIP3   OH223113   7.353   4.061   2.292  0.0145 -0.1349  0.0428
 7725TIP3    H123114   7.272   4.100   2.325 -0.2971 -0.9342  0.2263
 7725TIP3    H223115   7.345   4.068   2.197 -0.0808  0.1548  0.0699
 7726TIP3   OH223116   6.354   4.174   3.213  0.0335 -0.0396 -0.1886
 7726TIP3    H123117   6.420   4.147   3.277  1.6948  2.5378 -0.7635
 7726TIP3    H223118   6.379   4.127   3.133 -0.4774 -1.2021  0.3221
 7727TIP3   OH223119   5.624   5.482   5.159  0.3234  0.4173 -0.3430
 7727TIP3    H123120   5.656   5.428   5.086 -0.1465 -0.6945  0.2547
 7727TIP3    H223121   5.592   5.418   5.223  1.2170  1.3713  1.0666
 7728TIP3   OH223122   7.484   6.294   3.636 -0.1444 -0.0775  0.4479
 7728TIP3    H123123   7.423   6.366   3.651  2.4372  2.2018  0.3921
 7728TIP3    H223124   7.528   6.282   3.721 -0.3812 -1.4137  0.3864
 7729TIP3   OH223125   3.154   3.167   2.384  0.6116  0.2510  0.0289
 7729TIP3    H123126   3.224   3.219   2.424 -0.5693  0.9691  1.1799
 7729TIP3    H223127   3.073   3.201   2.422 -0.3371 -0.9828 -0.8311
 7730TIP3   OH223128   4.669   5.196   3.184  0.4875 -0.6085 -0.1082
 7730TIP3    H123129   4.659   5.268   3.246  0.3613 -0.0170 -0.8099
 7730TIP3    H223130   4.743   5.145   3.218  0.8114  0.0562  0.1776
 7731TIP3   OH223131   0.239   5.643   5.042 -0.6808 -0.2946 -0.4781
 7731TIP3    H123132   0.154   5.599   5.037 -0.4785 -0.6543 -0.7682
 7731TIP3    H223133   0.258   5.647   5.136 -1.4671  0.6627 -0.3496
 7732TIP3   OH223134   8.183   4.114   2.975  0.0072 -0.7741 -0.1555
 7732TIP3    H123135   8.266   4.153   2.948  0.7971 -1.4441  1.3239
 7732TIP3    H223136   8.156   4.061   2.900 -0.6397  1.8338 -1.8672
 7733TIP3   OH223137   7.004   5.785   4.704 -0.4100 -0.0190  0.2589
 7733TIP3    H123138   6.955   5.760   4.625 -0.8557 -0.2125  0.5919
 7733TIP3    H223139   6.964   5.732   4.774  0.2423 -0.1378  0.5395
 7734TIP3   OH223140   6.076   4.749   3.208  0.7431  0.1780  0.1849
 7734TIP3    H123141   6.151   4.741   3.268 -0.0822  0.9100  1.3280
 7734TIP3    H223142   6.013   4.685   3.241  0.3250  0.5061  0.0198
 7735TIP3   OH223143   5.967   4.920   4.809 -0.4241  0.1039 -0.3351
 7735TIP3    H123144   6.032   4.857   4.777  0.0862  0.3496  0.2004
 7735TIP3    H223145   5.919   4.947   4.731 -0.9130 -1.2519 -0.5175
 7736TIP3   OH223146   6.896   4.365   5.026  0.0244 -0.4361  0.4672
 7736TIP3    H123147   6.841   4.297   5.067  1.4276 -1.2884  0.9823
 7736TIP3    H223148   6.919   4.329   4.941  1.2474 -0.8651  0.9754
 7737TIP3   OH223149   5.653   4.956   4.416 -0.3712  0.3284  0.0175
 7737TIP3    H123150   5.589   4.998   4.473 -0.1220 -0.0017  0.5380
 7737TIP3    H223151   5.607   4.941   4.334 -0.6138  1.1681 -0.0042
 7738TIP3   OH223152   7.255   6.250   3.889  0.1132  0.1817  0.2474
 7738TIP3    H123153   7.260   6.331   3.940  0.3847  1.0280 -1.0976
 7738TIP3    H223154   7.172   6.257   3.842  0.1728 -0.2886  0.0765
 7739TIP3   OH223155   6.712   4.457   2.281  0.1950 -0.1091  0.3955
 7739TIP3    H123156   6.723   4.363   2.295  2.0839  0.2780  1.6720
 7739TIP3    H223157   6.637   4.481   2.335  1.6463 -0.3376  2.5546
 7740TIP3   OH223158   0.247   4.821   5.241 -0.0128  0.4062  0.3424
 7740TIP3    H123159   0.199   4.796   5.162  0.9686 -1.2911  0.2648
 7740TIP3    H223160   0.282   4.738   5.275  2.3813  1.5325  0.6978
 7741TIP3   OH223161   6.468   6.861   1.483  0.6670  0.4103 -0.2069
 7741TIP3    H123162   6.464   6.781   1.535  0.1767 -0.1552 -1.1091
 7741TIP3    H223163   6.434   6.929   1.541  0.1776 -0.2103  0.2374
 7742TIP3   OH223164   6.285   4.404   4.648 -0.3199  0.2326  0.0210
 7742TIP3    H123165   6.367   4.354   4.643 -1.3067 -1.5799  1.1633
 7742TIP3    H223166   6.236   4.378   4.570 -1.8525 -2.5400  1.8259
 7743TIP3   OH223167   6.330   6.897   2.764  1.0732  0.0349  0.0869
 7743TIP3    H123168   6.404   6.925   2.818  0.1301  0.7905  1.0135
 7743TIP3    H223169   6.273   6.851   2.824  1.2593 -1.4496 -0.8460
 7744TIP3   OH223170   4.292   5.957   2.314  0.3679 -0.5974  0.6885
 7744TIP3    H123171   4.271   5.909   2.395 -0.3238 -0.7231  0.4440
 7744TIP3    H223172   4.212   6.006   2.295  0.7993  0.0267  0.4987
 7745TIP3   OH223173   8.099   4.231   2.688 -0.4615  0.1267 -0.1995
 7745TIP3    H123174   8.161   4.256   2.619  0.2219 -2.3204 -0.4853
 7745TIP3    H223175   8.109   4.137   2.698 -0.6661  0.3741  3.1553
 7746TIP3   OH223176   5.919   5.610   3.876 -0.3408  0.0444 -0.3300
 7746TIP3    H123177   5.973   5.592   3.799 -0.6721 -0.1693 -0.5117
 7746TIP3    H223178   5.829   5.598   3.846 -0.4431 -0.8213  0.2932
 7747TIP3   OH223179   2.743   5.745   3.960 -0.1874 -0.2181 -0.2169
 7747TIP3    H123180   2.812   5.727   3.896  1.1193  1.7666  0.5768
 7747TIP3    H223181   2.759   5.835   3.987 -2.4838 -0.0700  0.7691
 7748TIP3   OH223182   5.110   5.726   3.835  0.0531 -0.0888  0.4952
 7748TIP3    H123183   5.141   5.682   3.914  1.6045  1.7775  0.9560
 7748TIP3    H223184   5.173   5.702   3.768 -1.3728 -1.8313 -0.2571
 7749TIP3   OH223185   6.315   5.818   3.708  0.8491 -0.3940 -0.1526
 7749TIP3    H123186   6.338   5.741   3.761  3.2303 -0.5859 -1.4062
 7749TIP3    H223187   6.298   5.782   3.621 -0.4256  0.2293 -0.1606
 7750TIP3   OH223188   8.445   5.648   3.707  0.1000 -0.2902  0.2241
 7750TIP3    H123189   8.360   5.685   3.681  0.4529  1.3900  1.3496
 7750TIP3    H223190   8.430   5.554   3.709 -1.4997 -0.0785 -0.4330
 7751TIP3   OH223191   0.369   3.191   5.293 -0.0559 -0.4539 -0.2379
 7751TIP3    H123192   0.413   3.177   5.209 -0.1129 -0.7457 -0.2215
 7751TIP3    H223193   0.424   3.254   5.339  0.2209 -0.6385 -0.3145
 7752TIP3   OH223194   5.252   2.468   5.549 -0.0968 -0.0393  0.5842
 7752TIP3    H123195   5.221   2.449   5.638 -0.9246  2.0606  0.7550
 7752TIP3    H223196   5.309   2.544   5.560 -0.7679  0.6590 -0.7945
 7753TIP3   OH223197   6.607   4.778   2.703 -0.3191  0.1660 -0.4900
 7753TIP3    H123198   6.565   4.723   2.636  0.1403  1.2041 -1.6391
 7753TIP3    H223199   6.603   4.725   2.783  1.2338 -2.0756 -1.8445
 7754TIP3   OH223200   4.048   3.707   4.004  0.1403  0.1502 -0.2054
 7754TIP3    H123201   3.961   3.722   4.042  0.4664 -0.0740  0.6394
 7754TIP3    H223202   4.033   3.641   3.937 -0.9366  2.5788 -2.4476
 7755TIP3   OH223203   5.026   4.595   1.140 -0.2463  0.3847 -0.6317
 7755TIP3    H123204   5.096   4.607   1.204 -1.3597  1.0166  0.5013
 7755TIP3    H223205   5.070   4.571   1.059  1.1013 -2.1261  0.8014
 7756TIP3   OH223206   6.040   5.188   4.921  0.3695  0.1647  0.0633
 7756TIP3    H123207   6.007   5.249   4.855  0.2461  0.3911  0.3329
 7756TIP3    H223208   6.025   5.102   4.883  0.1099  0.2886 -0.1180
 7757TIP3   OH223209   4.239   3.900   2.218  0.1741 -0.6921  0.0090
 7757TIP3    H123210   4.238   3.991   2.247  1.1954  0.7202 -4.0258
 7757TIP3    H223211   4.330   3.872   2.228 -0.1032 -1.2111  1.0812
 7758TIP3   OH223212   6.339   2.741   5.153 -0.0001 -0.4311  0.0785
 7758TIP3    H123213   6.264   2.768   5.207  0.9754 -0.5712  1.5316
 7758TIP3    H223214   6.310   2.661   5.109  0.0272 -1.6872  2.2930
 7759TIP3   OH223215   6.971   3.144   2.795 -0.1605 -0.2965  0.3182
 7759TIP3    H123216   7.001   3.185   2.876  0.0598  0.3767 -0.0979
 7759TIP3    H223217   7.047   3.096   2.763  1.1666  3.0012 -1.7606
 7760TIP3   OH223218   5.101   5.123   3.955  0.1955 -0.6207 -0.1665
 7760TIP3    H123219   5.070   5.213   3.962  1.4986 -0.1115 -0.8463
 7760TIP3    H223220   5.109   5.093   4.046  1.1544  0.4365  0.1065
 7761TIP3   OH223221   5.733   2.288   4.345  0.4682 -0.2866 -0.1449
 7761TIP3    H123222   5.738   2.252   4.257 -0.3703  0.2319 -0.4061
 7761TIP3    H223223   5.691   2.219   4.397 -1.5308  0.4616 -0.7369
 7762TIP3   OH223224   7.804   5.027   4.677  0.1633 -0.2088 -0.2012
 7762TIP3    H123225   7.772   4.972   4.748  2.4091 -1.2561  0.0603
 7762TIP3    H223226   7.850   4.967   4.618  1.3395  1.1512 -0.7112
 7763TIP3   OH223227   5.500   3.535   3.397  0.0929  0.1880  0.0539
 7763TIP3    H123228   5.542   3.453   3.423 -1.1995 -1.2405 -2.1903
 7763TIP3    H223229   5.421   3.540   3.451 -0.4561 -0.6779 -0.6612
 7764TIP3   OH223230   3.959   4.722   2.805 -0.1100  0.2706 -0.3082
 7764TIP3    H123231   3.953   4.678   2.889 -1.7378 -0.5446 -0.8394
 7764TIP3    H223232   4.047   4.761   2.804 -0.0350  0.1648  1.6860
 7765TIP3   OH223233   4.632   4.221   3.535  0.1140  0.0200  0.4699
 7765TIP3    H123234   4.582   4.233   3.454  0.0766  1.0237  0.6244
 7765TIP3    H223235   4.566   4.198   3.601  0.0956 -0.4438  0.2887
 7766TIP3   OH223236   6.559   5.358   3.824 -0.1632 -0.0952 -0.3452
 7766TIP3    H123237   6.510   5.279   3.800  0.2794 -0.1681 -1.0242
 7766TIP3    H223238   6.647   5.326   3.844  0.3540  0.3641 -1.8132
 7767TIP3   OH223239   8.418   4.175   5.098  0.3973 -0.2328  0.4607
 7767TIP3    H123240   8.324   4.170   5.115  0.5523 -2.5230  0.7833
 7767TIP3    H223241   8.443   4.264   5.125 -1.1363 -0.5815  3.1159
 7768TIP3   OH223242   4.622   4.307   4.634 -0.2771 -0.4197 -0.2291
 7768TIP3    H123243   4.702   4.353   4.660 -1.5054  1.1983  0.7947
 7768TIP3    H223244   4.587   4.359   4.562 -0.7422 -0.7785 -0.2645
 7769TIP3   OH223245   6.665   4.802   0.992  0.8821 -0.1025  0.2754
 7769TIP3    H123246   6.571   4.809   0.982  0.8922  0.8618  0.8743
 7769TIP3    H223247   6.701   4.840   0.912  0.7659 -0.6791 -0.0558
 7770TIP3   OH223248   7.210   6.717   3.513  0.3021 -0.3645 -0.1866
 7770TIP3    H123249   7.146   6.692   3.446  0.3848 -1.6207  0.1858
 7770TIP3    H223250   7.274   6.770   3.467  0.7800 -1.8614 -1.2902
 7771TIP3   OH223251   5.808   3.544   2.718  0.2253  0.5727  0.0050
 7771TIP3    H123252   5.745   3.523   2.787  1.5212 -0.1725  0.9777
 7771TIP3    H223253   5.868   3.607   2.759  0.0845  1.3358 -0.9402
 7772TIP3   OH223254   2.887   3.553   4.236 -0.1272  0.6279 -0.2413
 7772TIP3    H123255   2.963   3.590   4.281  0.1934 -0.5761  0.2090
 7772TIP3    H223256   2.922   3.513   4.156 -0.2660 -0.0256  0.0214
 7773TIP3   OH223257   6.846   6.002   5.942  0.0442 -0.1497 -0.5555
 7773TIP3    H123258   6.856   5.975   6.033 -0.9216 -0.3181 -0.4912
 7773TIP3    H223259   6.915   5.956   5.895  1.1267  0.6501  0.2344
 7774TIP3   OH223260   4.358   4.853   4.127 -0.3536 -0.1377 -0.7877
 7774TIP3    H123261   4.304   4.834   4.203 -0.4448  0.5644 -0.6698
 7774TIP3    H223262   4.434   4.796   4.136 -0.4714 -0.2180 -0.2835
 7775TIP3   OH223263   7.673   7.200   6.834  0.7843  0.1443  0.5866
 7775TIP3    H123264   7.768   7.189   6.834  1.0740  2.4015  0.4290
 7775TIP3    H223265   7.650   7.215   6.926  0.5012 -0.8391  0.6883
 7776TIP3   OH223266   7.290   5.142   6.166  0.3229  0.5554  1.2695
 7776TIP3    H123267   7.345   5.209   6.125 -0.4562 -1.0539 -2.6419
 7776TIP3    H223268   7.203   5.155   6.127  0.0964 -2.5368  0.6764
 7777TIP3   OH223269   0.296   0.817   2.352 -0.5324 -0.6659  0.3832
 7777TIP3    H123270   0.242   0.766   2.292  0.1921 -1.1142  0.0998
 7777TIP3    H223271   0.234   0.868   2.403 -1.0791  1.6007 -2.4382
 7778TIP3   OH223272   8.225   4.025   2.385  0.2739 -0.0338  0.4210
 7778TIP3    H123273   8.269   3.991   2.307  1.8785  2.4636  0.1754
 7778TIP3    H223274   8.146   4.068   2.352  0.7540  0.6843  0.1873
 7779TIP3   OH223275   3.696   4.454   2.326 -0.1755 -0.2134  0.1480
 7779TIP3    H123276   3.740   4.381   2.282  1.1179  0.8559 -0.3583
 7779TIP3    H223277   3.605   4.426   2.333 -0.3082 -0.6444 -2.7377
 7780TIP3   OH223278   6.553   5.937   4.151  0.1880  0.1667 -0.2590
 7780TIP3    H123279   6.615   5.933   4.223  1.9717 -0.2353 -1.7785
 7780TIP3    H223280   6.468   5.953   4.193  0.8262 -2.2750  2.0933
 7781TIP3   OH223281   3.674   4.050   0.663  0.1520 -0.5929  0.3646
 7781TIP3    H123282   3.666   4.142   0.686 -2.1931 -0.9015  0.8766
 7781TIP3    H223283   3.749   4.046   0.603 -0.1554  1.7142 -0.1832
 7782TIP3   OH223284   5.720   5.768   5.825 -0.2314 -0.0877 -0.2357
 7782TIP3    H123285   5.735   5.845   5.771  2.5389 -0.2674  0.1875
 7782TIP3    H223286   5.762   5.789   5.909  0.6729 -2.0879 -0.1638
 7783TIP3   OH223287   6.205   3.629   3.573  0.2622  0.2301 -0.5265
 7783TIP3    H123288   6.204   3.574   3.495  1.3423 -2.0365  1.0061
 7783TIP3    H223289   6.232   3.571   3.644  0.3318  2.4713  1.3735
 7784TIP3   OH223290   5.338   4.224   2.700  0.6979 -0.3190 -0.3610
 7784TIP3    H123291   5.378   4.141   2.674 -0.0917 -1.2717  1.3996
 7784TIP3    H223292   5.406   4.269   2.751  1.5467  0.6841 -2.2927
 7785TIP3   OH223293   4.782   3.596   5.024  0.0551 -0.0486 -0.8322
 7785TIP3    H123294   4.873   3.566   5.024  0.3208  0.7417 -1.2106
 7785TIP3    H223295   4.776   3.652   4.947 -0.9884 -0.7774 -1.2936
 7786TIP3   OH223296   5.794   4.698   2.662  0.0504  0.1583  0.1106
 7786TIP3    H123297   5.778   4.628   2.599  0.2612 -0.8137  1.1313
 7786TIP3    H223298   5.889   4.699   2.675  0.0674  0.7609 -0.0548
 7787TIP3   OH223299   7.788   4.100   4.913  0.1876  0.2480 -0.3796
 7787TIP3    H123300   7.838   4.179   4.936  1.6245 -0.9908  0.9814
 7787TIP3    H223301   7.813   4.080   4.823 -0.8827  1.8409 -1.0357
 7788TIP3   OH223302   6.090   5.417   4.349 -0.0560 -0.1375  0.4440
 7788TIP3    H123303   6.016   5.356   4.357  0.5383 -0.8973  0.1873
 7788TIP3    H223304   6.053   5.492   4.303 -0.3410 -1.1209 -1.0022
 7789TIP3   OH223305   5.916   3.872   3.391 -0.1972 -0.2320  0.1894
 7789TIP3    H123306   5.900   3.961   3.361 -0.3411 -0.3674 -0.1427
 7789TIP3    H223307   6.012   3.864   3.395 -0.1456 -0.5866 -1.3889
 7790TIP3   OH223308   4.615   2.847   3.726  0.0231 -0.0740 -0.2094
 7790TIP3    H123309   4.682   2.783   3.749  1.0973  1.3794  0.8607
 7790TIP3    H223310   4.657   2.902   3.660  0.0266  1.0245  0.6785
 7791TIP3   OH223311   7.746   4.320   3.691  0.0876  0.0646 -0.5064
 7791TIP3    H123312   7.661   4.338   3.652 -1.3126 -2.2752  1.3841
 7791TIP3    H223313   7.808   4.333   3.619 -2.0276 -0.1141 -2.4117
 7792TIP3   OH223314   0.001   2.862   6.182  0.1005 -0.0922 -0.5321
 7792TIP3    H123315   0.094   2.853   6.201  0.4832  2.2132 -1.1546
 7792TIP3    H223316  -0.010   2.955   6.162 -2.4089 -0.2640 -0.0560
 7793TIP3   OH223317   7.619   6.334   1.601  0.7720  0.4763 -0.1992
 7793TIP3    H123318   7.551   6.292   1.549  0.0091  0.8950  0.4414
 7793TIP3    H223319   7.659   6.262   1.650  0.0340  0.3735  0.2631
 7794TIP3   OH223320   5.792   4.793   6.095 -0.1466 -0.9590 -0.1836
 7794TIP3    H123321   5.845   4.795   6.016  0.2058 -0.4943  0.0643
 7794TIP3    H223322   5.702   4.803   6.063  0.0313 -0.2769 -0.4945
 7795TIP3   OH223323   6.398   4.707   5.040 -0.0342  0.2673  0.7986
 7795TIP3    H123324   6.354   4.781   5.000  0.9612 -0.1766 -1.1522
 7795TIP3    H223325   6.379   4.633   4.983  0.3117 -0.6638  1.8575
 7796TIP3   OH223326   5.789   2.832   3.469  0.3126 -0.7837  0.0739
 7796TIP3    H123327   5.835   2.900   3.420  0.4355 -1.1340 -0.2985
 7796TIP3    H223328   5.768   2.873   3.553  2.6286 -1.0733  0.8487
 7797TIP3   OH223329   4.861   4.191   5.358  0.1207  0.1778 -0.1551
 7797TIP3    H123330   4.801   4.124   5.326 -1.4357  1.0174  0.9364
 7797TIP3    H223331   4.856   4.261   5.294 -0.5772  0.5247  0.2749
 7798TIP3   OH223332   6.733   4.948   5.095  0.0230 -0.3109  0.0791
 7798TIP3    H123333   6.815   4.931   5.142  1.1549 -1.6050 -2.3059
 7798TIP3    H223334   6.691   4.863   5.088  0.8297 -0.4919 -2.9697
 7799TIP3   OH223335   7.856   4.354   1.855  0.4049 -0.1101 -0.4484
 7799TIP3    H123336   7.842   4.400   1.773  1.5334 -0.1193 -0.6581
 7799TIP3    H223337   7.831   4.263   1.837  1.6512 -0.3300 -1.0864
 7800TIP3   OH223338   5.369   2.870   3.304 -0.2129 -0.3574 -0.3007
 7800TIP3    H123339   5.344   2.817   3.380  0.8578  1.1686  1.1459
 7800TIP3    H223340   5.462   2.853   3.292 -0.8102 -2.3403 -2.7379
 7801TIP3   OH223341   0.148   2.853   3.222 -0.3669  0.2954  0.3551
 7801TIP3    H123342   0.123   2.916   3.154 -0.1473  0.9698  0.8859
 7801TIP3    H223343   0.188   2.907   3.290 -0.6522 -0.3650  1.0533
 7802TIP3   OH223344   6.286   5.082   4.371 -0.2817  0.0425 -0.0030
 7802TIP3    H123345   6.220   5.021   4.405  0.7200 -1.0133  0.0725
 7802TIP3    H223346   6.254   5.106   4.284 -1.3802  0.4893  0.5112
 7803TIP3   OH223347   4.723   5.402   1.055 -0.3622  0.2208  0.2329
 7803TIP3    H123348   4.702   5.326   1.109  1.8809  0.4732  1.5224
 7803TIP3    H223349   4.815   5.392   1.034 -0.5895  1.4481 -1.4865
 7804TIP3   OH223350   5.830   6.160   2.520 -0.1381 -0.1875  0.4396
 7804TIP3    H123351   5.908   6.208   2.549  1.4304 -3.3390  1.7097
 7804TIP3    H223352   5.847   6.140   2.428 -0.2166  0.5621  0.2593
 7805TIP3   OH223353   5.430   5.383   2.442  0.5776  0.1087 -0.0319
 7805TIP3    H123354   5.433   5.297   2.400  1.9756 -0.1512  0.5968
 7805TIP3    H223355   5.404   5.364   2.533 -0.6328  0.5051 -0.2818
 7806TIP3   OH223356   5.976   7.662   5.439 -1.1653  0.0239  0.0740
 7806TIP3    H123357   6.063   7.678   5.477 -1.1777 -1.1626  0.6482
 7806TIP3    H223358   5.991   7.663   5.344 -0.9662  2.1343  0.1164
 7807TIP3   OH223359   5.473   5.325   5.332  0.0255  0.5702 -0.3619
 7807TIP3    H123360   5.382   5.342   5.306 -0.5351 -1.0387  0.4854
 7807TIP3    H223361   5.472   5.329   5.427  0.5405 -0.9110 -0.2917
 7808TIP3   OH223362   7.189   5.339   4.023  0.5536 -0.1909  0.1299
 7808TIP3    H123363   7.115   5.279   4.027  0.1287  0.2078 -1.4289
 7808TIP3    H223364   7.264   5.283   4.001  0.5344 -0.4378  0.6840
 7809TIP3   OH223365   6.807   5.484   2.992 -0.1038  0.2630 -0.2080
 7809TIP3    H123366   6.804   5.490   2.897 -4.5915 -1.4319 -0.2637
 7809TIP3    H223367   6.880   5.541   3.017  0.7487  1.2588 -4.5553
 7810TIP3   OH223368   6.465   5.092   3.818  0.1373  0.2917  0.1377
 7810TIP3    H123369   6.461   5.017   3.759 -1.4473  0.2572  0.2468
 7810TIP3    H223370   6.430   5.059   3.901 -2.4529  1.6162 -0.3754
 7811TIP3   OH223371   7.621   5.648   3.301  0.2477  0.5057 -0.4119
 7811TIP3    H123372   7.617   5.704   3.223  1.4657  0.1327 -0.7599
 7811TIP3    H223373   7.531   5.616   3.312  0.1348  0.2297 -1.9330
 7812TIP3   OH223374   6.513   6.363   1.369  0.1270  0.3700  0.8044
 7812TIP3    H123375   6.549   6.280   1.400  0.4778  0.7735  1.5109
 7812TIP3    H223376   6.587   6.424   1.371 -0.1550  0.7296  0.4270
 7813TIP3   OH223377   5.762   3.103   2.756  0.0914  0.0185 -0.1192
 7813TIP3    H123378   5.689   3.077   2.813  0.3100  0.7116  0.4908
 7813TIP3    H223379   5.731   3.182   2.712 -0.3652 -0.9365 -1.5575
 7814TIP3   OH223380   6.618   4.071   1.532 -0.5641  0.3993 -0.6174
 7814TIP3    H123381   6.552   4.141   1.523 -1.3757 -0.3327 -0.3839
 7814TIP3    H223382   6.632   4.063   1.626  0.2534  0.9077 -0.6879
 7815TIP3   OH223383   6.647   3.400   3.803 -0.5238  0.8983 -0.4902
 7815TIP3    H123384   6.714   3.427   3.866  1.5376  2.0075 -3.0552
 7815TIP3    H223385   6.669   3.310   3.781 -0.3599  0.9805 -0.6723
 7816TIP3   OH223386   7.492   3.541   3.840  0.0141 -0.5464  0.0858
 7816TIP3    H123387   7.428   3.582   3.781  1.2589  1.0779 -0.1756
 7816TIP3    H223388   7.574   3.546   3.792  0.5995 -1.4004  0.9892
 7817TIP3   OH223389   7.717   4.243   3.964  0.4540 -0.3515  0.6436
 7817TIP3    H123390   7.767   4.169   3.998 -0.5304 -1.3921 -0.1363
 7817TIP3    H223391   7.734   4.242   3.869 -0.0906  0.0270  0.5415
 7818TIP3   OH223392   8.420   4.662   1.726 -0.3980  0.4823 -0.0567
 7818TIP3    H123393   8.494   4.708   1.764 -0.2923  0.7056 -0.5309
 7818TIP3    H223394   8.459   4.594   1.671 -0.5456  0.5394 -0.2312
 7819TIP3   OH223395   7.488   3.990   4.280 -0.2768  0.1518  0.6329
 7819TIP3    H123396   7.465   3.929   4.209  0.3058  0.1649  0.4250
 7819TIP3    H223397   7.513   4.071   4.235  1.8369 -0.3968  0.7379
 7820TIP3   OH223398   7.211   5.141   3.418 -0.0805  0.1026  0.4404
 7820TIP3    H123399   7.274   5.176   3.355  0.0457 -2.0531 -0.6605
 7820TIP3    H223400   7.225   5.047   3.416 -1.4889 -0.1661  2.2089
 7821TIP3   OH223401   6.025   3.134   2.633 -0.2431 -0.5576  0.1340
 7821TIP3    H123402   5.960   3.130   2.702  0.6421 -0.7823  0.9673
 7821TIP3    H223403   6.099   3.182   2.672  1.3329 -2.9870  0.2579
 7822TIP3   OH223404   6.421   2.444   5.132 -0.1702  0.6697 -0.5504
 7822TIP3    H123405   6.363   2.445   5.208 -0.6200 -1.7259 -0.8167
 7822TIP3    H223406   6.507   2.466   5.167 -0.0598 -1.9532  0.9977
 7823TIP3   OH223407   6.016   4.414   4.930  0.2986 -0.3956 -0.0903
 7823TIP3    H123408   6.104   4.452   4.926 -0.0640  0.7288  1.6359
 7823TIP3    H223409   5.960   4.477   4.885  0.2943 -0.8704 -0.7579
 7824TIP3   OH223410   7.896   3.074   2.501  0.0919 -0.0142 -0.1870
 7824TIP3    H123411   7.822   3.015   2.515  0.8065 -0.4577  1.8637
 7824TIP3    H223412   7.932   3.048   2.416 -3.0288  1.2650 -1.9675
 7825TIP3   OH223413   7.292   3.126   3.197  0.0978  0.0399 -0.1919
 7825TIP3    H123414   7.369   3.112   3.252 -0.8082  0.5405  1.2469
 7825TIP3    H223415   7.254   3.208   3.230 -1.4676 -0.5905 -0.3828
 7826TIP3   OH223416   6.073   4.762   4.189  0.0344  0.9734 -0.4133
 7826TIP3    H123417   6.056   4.669   4.177 -1.4942  1.3640 -1.5180
 7826TIP3    H223418   6.161   4.775   4.153 -0.7219  0.3731 -2.5687
 7827TIP3   OH223419   6.245   3.524   2.597  0.1625  0.1211  0.0349
 7827TIP3    H123420   6.264   3.446   2.648  1.3589  0.4853  0.1597
 7827TIP3    H223421   6.167   3.501   2.545  0.8062 -1.3132 -0.3128
 7828TIP3   OH223422   6.073   2.080   2.337  0.2790  0.4905 -0.0872
 7828TIP3    H123423   6.130   2.087   2.414 -1.0776  1.7766  0.8268
 7828TIP3    H223424   6.071   1.986   2.318  0.3980  0.1132  1.6315
 7829TIP3   OH223425   3.679   4.426   3.495 -0.0086 -0.1845  0.3886
 7829TIP3    H123426   3.599   4.400   3.540  0.7760 -1.6833  0.9441
 7829TIP3    H223427   3.649   4.486   3.427 -1.3796  0.7727  1.8154
 7830TIP3   OH223428   7.065   7.482   3.283 -0.3096 -0.6906  0.0224
 7830TIP3    H123429   7.063   7.440   3.197 -1.5291 -1.9266  0.6132
 7830TIP3    H223430   6.979   7.524   3.291 -0.3736 -0.9509  0.7889
 7831TIP3   OH223431   6.521   3.038   4.478  0.6092 -0.2843  0.3879
 7831TIP3    H123432   6.611   3.005   4.481  1.1762  1.1511 -0.3470
 7831TIP3    H223433   6.530   3.133   4.484 -0.7540 -0.0227 -1.2644
 7832TIP3   OH223434   6.146   4.438   5.769 -0.6292 -0.1099  0.5251
 7832TIP3    H123435   6.074   4.401   5.718  0.2300 -0.3320 -0.5207
 7832TIP3    H223436   6.177   4.512   5.716 -0.1559  0.0526  1.0276
 7833TIP3   OH223437   6.775   6.170   3.681  0.1446 -0.2556 -0.5594
 7833TIP3    H123438   6.742   6.082   3.697 -0.5380  0.0147 -0.4579
 7833TIP3    H223439   6.725   6.226   3.740 -0.6422  0.4214 -1.8422
 7834TIP3   OH223440   5.982   3.864   4.271 -0.1384  0.2259  0.0175
 7834TIP3    H123441   5.943   3.841   4.187  0.4771 -0.2288 -0.1480
 7834TIP3    H223442   5.978   3.959   4.275 -3.0392  0.1142  0.8419
 7835TIP3   OH223443   5.910   5.553   4.974  0.2433 -0.1114 -0.0071
 7835TIP3    H123444   5.970   5.561   4.900  0.0991  0.5140 -0.0542
 7835TIP3    H223445   5.912   5.638   5.017 -2.5213  0.7506 -1.4707
 7836TIP3   OH223446   7.355   3.994   0.456 -0.4867  0.1449  0.0339
 7836TIP3    H123447   7.282   4.004   0.395  0.0904 -0.4751 -0.7787
 7836TIP3    H223448   7.420   3.943   0.407  1.0012  1.7503  0.2858
 7837TIP3   OH223449   4.854   4.428   4.765  0.0263  0.2534 -0.2247
 7837TIP3    H123450   4.913   4.434   4.840  0.7881 -0.2668 -0.7704
 7837TIP3    H223451   4.910   4.398   4.693 -0.6219  1.0711 -1.0820
 7838TIP3   OH223452   4.816   5.019   2.167  0.5972  0.4638  0.5497
 7838TIP3    H123453   4.775   4.937   2.139 -1.2631  1.7526 -0.6477
 7838TIP3    H223454   4.889   5.031   2.105 -1.0016  1.2210 -1.2570
 7839TIP3   OH223455   5.459   5.132   4.545 -0.6098  0.4868  0.2973
 7839TIP3    H123456   5.429   5.208   4.595 -0.0459  0.4035  0.7780
 7839TIP3    H223457   5.380   5.084   4.522 -0.9078  0.7779  0.7169
 7840TIP3   OH223458   8.332   7.383   4.085 -0.2092 -0.5682  0.1040
 7840TIP3    H123459   8.422   7.404   4.059  0.0269 -0.2936  1.1269
 7840TIP3    H223460   8.303   7.318   4.021  0.4999 -0.1938 -0.6002
 7841TIP3   OH223461   4.634   4.911   3.798  0.0867 -0.1009  0.0515
 7841TIP3    H123462   4.616   4.894   3.705  1.5724  2.5833 -0.7657
 7841TIP3    H223463   4.548   4.913   3.839 -0.5631 -1.9183 -1.1170
 7842TIP3   OH223464   4.516   7.607   2.369 -0.2941 -0.2483 -0.8833
 7842TIP3    H123465   4.467   7.526   2.381 -0.0099 -0.3215 -0.1824
 7842TIP3    H223466   4.482   7.666   2.437 -1.3217  0.6111 -2.1295
 7843TIP3   OH223467   5.183   4.636   4.957 -0.4260  0.1718  0.0538
 7843TIP3    H123468   5.159   4.644   4.865  1.3649 -2.6084 -0.7290
 7843TIP3    H223469   5.246   4.706   4.972 -0.6567  0.5872 -0.8955
 7844TIP3   OH223470   5.494   5.644   3.935  0.1239 -0.0153 -0.6292
 7844TIP3    H123471   5.566   5.596   3.976 -0.5766 -0.8399 -0.3608
 7844TIP3    H223472   5.458   5.582   3.872  0.7008  0.9724 -1.9573
 7845TIP3   OH223473   5.853   4.157   3.396  0.3879 -0.5734 -0.3419
 7845TIP3    H123474   5.803   4.161   3.478 -1.8674  1.0958 -1.7554
 7845TIP3    H223475   5.934   4.204   3.416 -1.2125  2.0545  0.2569
 7846TIP3   OH223476   1.064   2.393   3.560  0.9433  0.1925  0.3413
 7846TIP3    H123477   1.050   2.300   3.541  3.2309 -0.3557  1.2476
 7846TIP3    H223478   1.076   2.434   3.475 -0.1936 -0.3078 -0.0712
 7847TIP3   OH223479   7.434   4.755   4.022  0.2361 -0.4383 -0.1872
 7847TIP3    H123480   7.498   4.743   4.092  0.9626 -1.5916 -1.0341
 7847TIP3    H223481   7.349   4.750   4.065  0.6773 -1.3692  0.5740
 7848TIP3   OH223482   5.112   2.645   2.777  0.4091  0.6336 -0.1012
 7848TIP3    H123483   5.160   2.564   2.760 -1.9073 -0.5668 -1.1425
 7848TIP3    H223484   5.059   2.626   2.853 -0.1867  1.1609 -0.3785
 7849TIP3   OH223485   6.259   3.462   3.092  0.0529 -1.1286  0.2155
 7849TIP3    H123486   6.322   3.413   3.039  0.6508 -0.1104 -0.0212
 7849TIP3    H223487   6.176   3.415   3.079  0.4629 -1.6414 -0.5969
 7850TIP3   OH223488   7.961   0.907   3.830  0.1363 -0.3338  0.0553
 7850TIP3    H123489   8.011   0.835   3.792  1.7829  0.3575  0.8278
 7850TIP3    H223490   7.912   0.943   3.757  3.2450  0.9734 -1.4996
 7851TIP3   OH223491   6.243   3.883   2.832  0.0986  0.1294  0.1995
 7851TIP3    H123492   6.315   3.866   2.771 -1.5132 -1.4050 -1.3146
 7851TIP3    H223493   6.275   3.956   2.886  2.6696 -0.3316 -0.6049
 7852TIP3   OH223494   5.514   1.876   3.429  0.9771  0.2862 -0.3038
 7852TIP3    H123495   5.455   1.947   3.406  0.1628 -0.3622 -0.2176
 7852TIP3    H223496   5.491   1.854   3.520  0.0485 -1.2422 -0.8987
 7853TIP3   OH223497   2.629   5.974   4.706  0.0686 -0.2650 -0.0535
 7853TIP3    H123498   2.662   6.060   4.681  1.1257 -0.5806  0.1996
 7853TIP3    H223499   2.696   5.940   4.767 -1.1122 -0.6105  1.0707
 7854TIP3   OH223500   5.955   3.102   2.366 -0.3037 -0.5618 -0.4148
 7854TIP3    H123501   5.983   3.110   2.457  0.7829 -0.4795 -0.7543
 7854TIP3    H223502   5.968   3.189   2.329 -0.3352 -0.7082 -0.7665
 7855TIP3   OH223503   6.898   4.492   4.111 -0.1922 -0.2749  0.7157
 7855TIP3    H123504   6.971   4.533   4.065 -0.8194 -0.9100 -0.8774
 7855TIP3    H223505   6.825   4.553   4.100 -0.1688 -0.1151  1.4455
 7856TIP3   OH223506   6.063   5.581   1.786  0.1032  0.0073  0.0056
 7856TIP3    H123507   6.034   5.498   1.825 -2.2189  1.2959  1.1069
 7856TIP3    H223508   6.022   5.583   1.700  0.4398 -0.1253 -0.1609
 7857TIP3   OH223509   5.911   2.690   2.381  0.2767  0.5828 -0.5720
 7857TIP3    H123510   6.004   2.700   2.366  0.1759 -0.3993 -1.9738
 7857TIP3    H223511   5.870   2.720   2.300 -0.5679  0.2027 -0.2937
 7858TIP3   OH223512   6.291   5.206   3.610  0.0649  0.2430 -0.1749
 7858TIP3    H123513   6.215   5.253   3.645  0.3369  0.9027 -0.4665
 7858TIP3    H223514   6.341   5.182   3.688 -0.6288 -0.5204  0.0437
 7859TIP3   OH223515   4.984   2.976   3.679 -0.5226 -0.6483  0.3113
 7859TIP3    H123516   4.997   2.921   3.756  1.3365  0.2060  0.6404
 7859TIP3    H223517   4.974   3.064   3.715 -0.1486 -0.3157 -0.4000
 7860TIP3   OH223518   4.012   4.361   2.098  0.1423 -0.2405 -0.3171
 7860TIP3    H123519   3.928   4.328   2.132  0.6142 -0.4955  0.6423
 7860TIP3    H223520   3.995   4.379   2.006 -0.3146 -2.5957 -0.7221
 7861TIP3   OH223521   6.819   3.841   4.712  0.0969  0.0760 -0.0368
 7861TIP3    H123522   6.891   3.836   4.649 -0.9636  0.2929 -1.2832
 7861TIP3    H223523   6.857   3.885   4.789  1.7976 -1.4929  0.0578
 7862TIP3   OH223524   0.891   5.990   5.169  0.0219 -0.5078  0.3989
 7862TIP3    H123525   0.946   5.915   5.190 -0.8645 -1.6228 -1.1919
 7862TIP3    H223526   0.949   6.066   5.178  1.2542 -1.4805  0.7865
 7863TIP3   OH223527   7.659   3.687   2.640 -0.0302  0.4726 -0.1058
 7863TIP3    H123528   7.578   3.732   2.663 -1.6031 -0.7574 -2.9235
 7863TIP3    H223529   7.721   3.757   2.621 -1.2313  1.4579 -0.4928
 7864TIP3   OH223530   0.147   5.543   1.954 -0.0019 -0.0081 -0.2899
 7864TIP3    H123531   0.133   5.620   1.900 -0.6372  0.1164  0.0518
 7864TIP3    H223532   0.118   5.570   2.042 -0.4311 -0.7036 -0.2167
 7865TIP3   OH223533   1.391   1.655   2.498  0.2551 -0.0904 -0.0836
 7865TIP3    H123534   1.311   1.658   2.550 -0.4020 -2.8401 -0.8493
 7865TIP3    H223535   1.415   1.562   2.496  1.6036  0.2652 -2.6492
 7866TIP3   OH223536   0.459   4.108   3.462  0.3894  0.5339  0.3671
 7866TIP3    H123537   0.367   4.086   3.447  0.9302 -2.6278  1.3484
 7866TIP3    H223538   0.501   4.096   3.377  0.1796  0.4815  0.2714
 7867TIP3   OH223539   5.333   7.003   1.528 -0.1882  0.3370  0.5780
 7867TIP3    H123540   5.327   7.030   1.436  1.6113  0.0137  0.3511
 7867TIP3    H223541   5.289   7.073   1.576  0.3441  1.3576 -0.3859
 7868TIP3   OH223542   5.912   4.636   2.338 -0.1672  0.3634 -0.3394
 7868TIP3    H123543   5.863   4.568   2.384 -1.8385 -0.1705 -2.8153
 7868TIP3    H223544   5.969   4.673   2.404 -2.6838 -0.1804  2.2269
 7869TIP3   OH223545   6.703   7.447   4.978  0.7101 -0.0947  0.4177
 7869TIP3    H123546   6.783   7.493   5.003  0.9943 -1.1475  1.4687
 7869TIP3    H223547   6.718   7.356   5.003 -1.0864 -0.1813  1.3061
 7870TIP3   OH223548   7.846   6.339   3.823 -0.3894  0.2859 -0.5646
 7870TIP3    H123549   7.763   6.378   3.793 -0.4066  1.3154  0.7602
 7870TIP3    H223550   7.837   6.337   3.918  1.4390  1.1700 -0.3608
 7871TIP3   OH223551   0.212   5.598   3.691  0.4951  0.2472  0.2062
 7871TIP3    H123552   0.120   5.625   3.681  0.4095  0.3099  1.1418
 7871TIP3    H223553   0.237   5.566   3.604  0.1192  1.8725 -0.5165
 7872TIP3   OH223554   1.898   3.993   4.396  0.0436  0.1966 -1.2033
 7872TIP3    H123555   1.961   3.921   4.400  0.7142  0.8062 -0.6190
 7872TIP3    H223556   1.817   3.956   4.432  0.6984  0.0493  0.1760
 7873TIP3   OH223557   8.425   4.358   3.811  0.2173 -0.4490  0.4625
 7873TIP3    H123558   8.331   4.350   3.797  0.6820 -1.7090 -2.3981
 7873TIP3    H223559   8.440   4.453   3.813 -1.0951 -0.2365  0.8972
 7874TIP3   OH223560   7.177   2.313   3.827  0.4240  0.8625 -0.0892
 7874TIP3    H123561   7.220   2.228   3.819 -0.2378  0.3781  1.3167
 7874TIP3    H223562   7.196   2.357   3.745  1.5429 -0.2933 -0.4678
 7875TIP3   OH223563   5.176   2.157   3.289 -0.0806  0.0504 -0.1039
 7875TIP3    H123564   5.266   2.145   3.257  0.0027  0.4747 -0.0378
 7875TIP3    H223565   5.187   2.183   3.381 -0.2830 -0.2088 -0.0080
 7876TIP3   OH223566   0.111   2.896   4.062 -0.3345 -0.2066  0.2070
 7876TIP3    H123567   0.079   2.985   4.050  0.5697  0.0459 -0.3917
 7876TIP3    H223568   0.049   2.842   4.012 -1.1069  0.0351  0.8909
 7877TIP3   OH223569   0.261   7.343   2.612 -0.2255 -0.3647 -0.3111
 7877TIP3    H123570   0.176   7.354   2.655 -0.4617 -0.3577 -0.7753
 7877TIP3    H223571   0.250   7.385   2.527  0.8533  1.3605  0.3763
 7878TIP3   OH223572   6.892   6.564   2.659  0.1548 -1.0298  0.1016
 7878TIP3    H123573   6.965   6.625   2.645 -1.5569  1.1294  0.4340
 7878TIP3    H223574   6.850   6.557   2.574  0.5335 -2.0336 -0.0121
 7879TIP3   OH223575   8.219   4.083   0.474  0.7188 -0.0069  0.2714
 7879TIP3    H123576   8.296   4.031   0.451  0.7751  0.3150 -0.2800
 7879TIP3    H223577   8.242   4.172   0.448 -0.8674 -0.3330 -2.4657
 7880TIP3   OH223578   6.131   6.013   4.352 -0.1261  0.1397 -0.1938
 7880TIP3    H123579   6.166   6.065   4.280  1.1925 -0.5283 -0.0358
 7880TIP3    H223580   6.154   5.923   4.331  0.7243 -0.0170  1.2942
 7881TIP3   OH223581   3.720   5.090   1.927  0.4056 -0.5172  0.0968
 7881TIP3    H123582   3.703   5.147   2.002  1.4839  1.5332 -1.1720
 7881TIP3    H223583   3.663   5.014   1.941 -0.4092  0.4592  2.2784
 7882TIP3   OH223584   7.946   3.595   3.670 -0.3366  0.1171  0.1317
 7882TIP3    H123585   8.041   3.585   3.665 -0.3131  1.0392 -1.6596
 7882TIP3    H223586   7.913   3.506   3.668  0.4198 -0.1466 -1.2950
 7883TIP3   OH223587   6.903   4.053   2.783  0.0672  0.4348 -0.0649
 7883TIP3    H123588   6.871   4.080   2.869 -0.6468  0.2149 -0.2600
 7883TIP3    H223589   6.993   4.085   2.780  0.1110  0.3939  0.7854
 7884TIP3   OH223590   8.501   4.900   2.947 -0.1832  0.1955  0.3685
 7884TIP3    H123591   8.419   4.854   2.962 -0.2871  0.7908  1.6895
 7884TIP3    H223592   8.554   4.840   2.894 -0.6387 -1.0788  1.3646
 7885TIP3   OH223593   0.209   7.620   2.146 -0.0778 -0.2257  0.1511
 7885TIP3    H123594   0.265   7.642   2.071 -1.2912  0.0093 -0.7065
 7885TIP3    H223595   0.159   7.700   2.162  0.7771 -0.0014  1.7651
 7886TIP3   OH223596   7.983   5.894   2.005 -0.2027 -0.0420 -0.6929
 7886TIP3    H123597   8.049   5.958   2.031  0.8145 -0.5903 -1.8761
 7886TIP3    H223598   8.006   5.815   2.054 -0.3978 -0.0293 -0.5792
 7887TIP3   OH223599   7.919   5.863   3.079 -0.0687 -0.8210  0.5468
 7887TIP3    H123600   7.868   5.943   3.063  1.8044  0.4831  0.8932
 7887TIP3    H223601   7.940   5.830   2.992 -0.4142 -0.6597  0.3994
 7888TIP3   OH223602   8.219   3.826   3.262  0.6635  0.0704 -0.0783
 7888TIP3    H123603   8.196   3.918   3.243  0.9807  0.4829  1.4873
 7888TIP3    H223604   8.205   3.817   3.356  0.4805 -1.5544 -0.2529
 7889TIP3   OH223605   0.516   5.137   1.401 -0.3168 -0.3754  0.0610
 7889TIP3    H123606   0.565   5.145   1.319  0.2773  0.4654  0.4882
 7889TIP3    H223607   0.559   5.064   1.447 -1.2746 -1.4915 -0.7922
 7890TIP3   OH223608   0.541   4.901   6.799  0.0193 -0.5140 -0.2321
 7890TIP3    H123609   0.604   4.971   6.813 -0.5296 -0.1141  0.2590
 7890TIP3    H223610   0.559   4.838   6.869 -1.6544  0.7102  1.3243
 7891TIP3   OH223611   7.596   4.623   3.086  0.2908 -0.2348  0.0926
 7891TIP3    H123612   7.676   4.651   3.130  0.2913 -0.4422  0.2207
 7891TIP3    H223613   7.550   4.570   3.150  0.5462 -0.9753 -0.3344
 7892TIP3   OH223614   0.073   5.635   3.105 -0.0351  0.3475  0.3303
 7892TIP3    H123615   0.037   5.723   3.103 -0.3481  0.2037 -0.9133
 7892TIP3    H223616   0.016   5.587   3.165  0.0835  0.9687  0.9410
 7893TIP3   OH223617   6.961   5.213   3.490 -0.1672 -0.2476 -0.0421
 7893TIP3    H123618   6.980   5.220   3.583  0.3859 -0.1936 -0.1565
 7893TIP3    H223619   7.036   5.166   3.453 -0.3020 -0.1198 -0.4900
 7894TIP3   OH223620   7.740   6.910   3.829  0.8855 -0.3586  0.2690
 7894TIP3    H123621   7.679   6.957   3.886  0.9645  0.0402  0.0299
 7894TIP3    H223622   7.787   6.979   3.782 -0.4721 -0.7001 -1.6587
 7895TIP3   OH223623   0.665   4.123   5.853 -0.3959  0.3454 -0.4866
 7895TIP3    H123624   0.743   4.162   5.813 -0.2169  0.6121  0.1251
 7895TIP3    H223625   0.593   4.179   5.824 -0.2537  0.5996 -0.3485
 7896TIP3   OH223626   7.237   6.473   2.981  0.3391 -0.0994  0.2670
 7896TIP3    H123627   7.272   6.415   2.913  0.6992 -1.4711  1.5936
 7896TIP3    H223628   7.230   6.417   3.058  2.5215  2.1367  2.1355
 7897TIP3   OH223629   6.810   4.980   3.368  0.5902 -0.6074  0.2547
 7897TIP3    H123630   6.838   5.001   3.458  0.8564 -0.6142  0.1741
 7897TIP3    H223631   6.892   4.974   3.319  0.3066  2.0079 -0.5772
 7898TIP3   OH223632   8.178   6.073   2.079 -0.1722 -0.1460 -0.1813
 7898TIP3    H123633   8.215   6.149   2.123 -0.4817 -1.6429  2.7919
 7898TIP3    H223634   8.255   6.022   2.052  0.0129 -0.4089  0.8146
 7899TIP3   OH223635   7.668   5.383   3.235 -0.1868 -0.2025  0.3984
 7899TIP3    H123636   7.671   5.471   3.272 -0.8219  0.1217 -0.3148
 7899TIP3    H223637   7.585   5.379   3.187  1.1421 -0.2118 -1.9781
 7900TIP3   OH223638   8.139   4.463   2.868 -0.6404 -1.1473 -0.2454
 7900TIP3    H123639   8.136   4.464   2.964  1.5833 -0.5741 -0.1562
 7900TIP3    H223640   8.125   4.372   2.844 -1.9967 -1.1758  0.5705
 7901TIP3   OH223641   8.241   6.304   2.248  0.6792 -0.3302  0.2823
 7901TIP3    H123642   8.263   6.235   2.310 -0.1410  0.6672  1.7104
 7901TIP3    H223643   8.162   6.344   2.284  1.0530  1.2365 -0.6138
 7902TIP3   OH223644   7.856   5.672   4.128 -0.3045  0.0965  0.8816
 7902TIP3    H123645   7.872   5.741   4.063 -1.1934  0.1398  0.7002
 7902TIP3    H223646   7.761   5.664   4.132 -0.2197 -1.2174  0.7951
 7903TIP3   OH223647   0.153   4.711   1.870  0.7226 -0.0186  0.3150
 7903TIP3    H123648   0.223   4.760   1.913 -1.0849  1.9565  1.0887
 7903TIP3    H223649   0.089   4.695   1.939 -0.6313  0.1490 -0.8796
 7904TIP3   OH223650   7.935   5.359   3.160  0.3111  0.0575  0.1864
 7904TIP3    H123651   7.843   5.336   3.175  0.1527 -0.3536 -1.3001
 7904TIP3    H223652   7.936   5.455   3.161  0.0723  0.0538  1.3136
 7905TIP3   OH223653   1.745   0.217   1.734  0.2919 -0.5518  0.0185
 7905TIP3    H123654   1.749   0.313   1.742  2.6356 -0.7721  1.8160
 7905TIP3    H223655   1.709   0.187   1.817  2.1971 -1.4004  0.5507
 7906TIP3   OH223656   3.860   1.250   6.485 -0.2483  0.1430  0.0774
 7906TIP3    H123657   3.890   1.163   6.513  0.4606  0.4424  0.2514
 7906TIP3    H223658   3.907   1.267   6.404 -1.5881 -0.3121 -0.8025
 7907TIP3   OH223659   8.463   6.334   3.179  0.4172 -0.1382  0.1935
 7907TIP3    H123660   8.468   6.269   3.250 -1.4242 -0.5567 -0.0207
 7907TIP3    H223661   8.418   6.289   3.108 -1.4203  1.5287  0.2496
 7908TIP3   OH223662   6.967   5.844   1.676  0.1124 -0.0030  0.4894
 7908TIP3    H123663   7.050   5.860   1.720 -0.2231  1.1021  0.7358
 7908TIP3    H223664   6.991   5.821   1.587  0.7471 -1.1565  0.9560
 7909TIP3   OH223665   6.576   3.940   2.359 -0.8281 -0.4560 -0.7092
 7909TIP3    H123666   6.640   3.872   2.339 -0.4768 -0.1032 -0.7967
 7909TIP3    H223667   6.592   3.962   2.451 -1.5333 -1.1157 -0.4263
 7910TIP3   OH223668   8.434   5.520   2.356  0.0077  0.3015 -0.2128
 7910TIP3    H123669   8.471   5.434   2.337 -0.7429  0.0643 -0.6066
 7910TIP3    H223670   8.501   5.563   2.410  1.5595  0.4906 -2.2385
 7911TIP3   OH223671   0.163   4.191   4.729  0.4803  0.0511 -0.1076
 7911TIP3    H123672   0.090   4.249   4.750  0.6946  1.5000 -3.0693
 7911TIP3    H223673   0.192   4.157   4.813 -2.5089  0.7760  1.2821
 7912TIP3   OH223674   8.160   5.744   3.594  0.2411  0.0614 -0.4390
 7912TIP3    H123675   8.101   5.669   3.597 -0.3760  0.5589 -0.1010
 7912TIP3    H223676   8.102   5.820   3.590  0.8695  0.5055 -1.0396
 7913TIP3   OH223677   7.868   5.147   2.495  0.1814  0.2354  0.1807
 7913TIP3    H123678   7.811   5.071   2.485  1.1918 -0.6084  0.7577
 7913TIP3    H223679   7.864   5.192   2.411  1.7545 -2.0010 -1.1427
 7914TIP3   OH223680   7.815   2.678   3.110  0.3438  0.0217  0.6075
 7914TIP3    H123681   7.891   2.643   3.157  2.0503  0.1909 -1.9157
 7914TIP3    H223682   7.846   2.761   3.073 -1.1986  0.2887 -0.1349
 7915TIP3   OH223683   0.506   5.192   2.536  0.3437 -0.2352 -0.4592
 7915TIP3    H123684   0.517   5.187   2.631 -1.0139  0.7955 -0.2375
 7915TIP3    H223685   0.416   5.163   2.519 -0.6966  3.1256 -1.0403
 7916TIP3   OH223686   7.031   4.055   4.185  0.0031  0.1994 -0.1673
 7916TIP3    H123687   7.044   4.009   4.102  1.2127  1.2834 -0.6022
 7916TIP3    H223688   6.946   4.097   4.177  0.2116  0.4706 -0.9472
 7917TIP3   OH223689   0.249   5.038   2.490  0.4237  0.1417 -0.1754
 7917TIP3    H123690   0.180   4.972   2.502 -1.2569  1.9897  0.6153
 7917TIP3    H223691   0.230   5.076   2.404 -0.2940  1.4741  0.5570
 7918TIP3   OH223692   8.026   4.752   3.880 -0.2908 -0.1168 -0.0027
 7918TIP3    H123693   7.937   4.763   3.912  0.1072 -0.6837  1.3264
 7918TIP3    H223694   8.075   4.716   3.954  0.7319 -1.1460 -1.1308
 7919TIP3   OH223695   7.887   3.412   3.319  0.7713  0.0904  0.4860
 7919TIP3    H123696   7.945   3.426   3.393  1.7099 -0.4332 -0.1430
 7919TIP3    H223697   7.934   3.450   3.244  0.5260 -0.7613 -0.1090
 7920TIP3   OH223698   8.057   3.834   1.841 -0.2952 -0.4009 -0.1910
 7920TIP3    H123699   8.066   3.806   1.932  1.8950  1.0068  0.0694
 7920TIP3    H223700   8.127   3.788   1.794 -1.2108 -0.8718 -1.0924
 7921TIP3   OH223701   7.701   4.954   3.199  0.0820 -0.8400  0.2416
 7921TIP3    H123702   7.736   4.865   3.204 -0.2823 -1.2957 -3.6577
 7921TIP3    H223703   7.755   4.997   3.132 -2.4785  0.5064 -1.0103
 7922TIP3   OH223704   7.782   4.641   4.176  0.2354  0.2000  0.5736
 7922TIP3    H123705   7.720   4.571   4.156  1.1522 -0.3747 -0.2980
 7922TIP3    H223706   7.818   4.616   4.261 -0.4076  0.3130  0.8854
 7923TIP3   OH223707   7.526   5.383   1.921 -0.6311 -0.7766 -0.0195
 7923TIP3    H123708   7.559   5.459   1.969  0.6859  0.1246 -2.2799
 7923TIP3    H223709   7.436   5.373   1.952 -1.1840  2.3522 -0.3566
 7924TIP3   OH223710   0.626   3.993   2.557  0.3300  0.0162  0.1960
 7924TIP3    H123711   0.695   3.980   2.493  1.0535  2.7912  0.3283
 7924TIP3    H223712   0.557   4.039   2.510  0.2521  0.7717  1.0217
 7925TIP3   OH223713   6.534   6.598   1.647 -0.6090 -0.1885  0.0221
 7925TIP3    H123714   6.548   6.504   1.641  2.6170  0.1586  1.1204
 7925TIP3    H223715   6.523   6.615   1.740  0.9793  0.7342  0.0723
 7926TIP3   OH223716   7.595   5.411   2.830 -0.0362 -0.1787 -0.2827
 7926TIP3    H123717   7.575   5.503   2.849 -1.8598 -0.8432  1.1664
 7926TIP3    H223718   7.509   5.370   2.821  0.7529 -2.0070  0.4265
 7927TIP3   OH223719   1.048   3.679   4.727  0.3586 -0.5538  0.0852
 7927TIP3    H123720   1.085   3.641   4.647  2.1256 -0.0635  0.6429
 7927TIP3    H223721   1.107   3.752   4.748 -1.2314  0.5508  0.7448
 7928TIP3   OH223722   6.896   4.398   3.101 -0.0792 -0.1595  0.0368
 7928TIP3    H123723   6.898   4.348   3.182 -1.1480 -1.4664 -0.7330
 7928TIP3    H223724   6.857   4.482   3.125 -0.7192 -0.6785  0.7954
 7929TIP3   OH223725   7.211   7.502   4.483  0.3785 -1.0437 -0.0296
 7929TIP3    H123726   7.241   7.423   4.438  0.0715 -1.1102 -0.1158
 7929TIP3    H223727   7.260   7.573   4.442 -0.5363 -1.0058 -1.0641
 7930TIP3   OH223728   7.478   6.318   3.375  0.1379  0.4735  0.1726
 7930TIP3    H123729   7.484   6.313   3.470 -0.8566  1.2122  0.2873
 7930TIP3    H223730   7.531   6.245   3.343  0.7771  0.4516  1.2825
 7931TIP3   OH223731   6.459   5.320   4.126 -0.2504 -0.3036 -0.1571
 7931TIP3    H123732   6.545   5.279   4.138 -0.2907 -0.3461 -0.0083
 7931TIP3    H223733   6.416   5.267   4.059  0.1892  0.2562 -0.8912
 7932TIP3   OH223734   7.382   2.925   1.120 -0.3337  0.0974  0.2224
 7932TIP3    H123735   7.413   2.958   1.204  0.3183  0.7770 -0.2789
 7932TIP3    H223736   7.292   2.955   1.114 -0.3118  0.2327  0.5802
 7933TIP3   OH223737   1.292   5.860   2.133  0.3188 -0.4721 -0.2832
 7933TIP3    H123738   1.312   5.943   2.176  1.3018  0.3049 -2.1821
 7933TIP3    H223739   1.197   5.864   2.118  0.0413 -0.5571  1.3511
 7934TIP3   OH223740   7.738   5.428   4.523 -0.2405 -0.5825 -0.3675
 7934TIP3    H123741   7.731   5.406   4.430 -0.0949 -0.1302 -0.4837
 7934TIP3    H223742   7.650   5.413   4.558 -0.7964  1.2198 -0.9983
 7935TIP3   OH223743   6.899   6.097   3.328 -0.0980  0.2315 -0.3498
 7935TIP3    H123744   6.837   6.023   3.325 -0.2271  0.2875  0.5940
 7935TIP3    H223745   6.980   6.063   3.291 -0.6362  0.0925 -1.4072
 7936TIP3   OH223746   8.291   4.690   2.981  0.4889  0.2318 -0.2034
 7936TIP3    H123747   8.264   4.620   2.921  1.1653 -1.4246  1.3783
 7936TIP3    H223748   8.222   4.756   2.972 -1.5187 -1.7299  0.0766
 7937TIP3   OH223749   8.265   5.366   4.439  0.0781 -0.4441  0.6428
 7937TIP3    H123750   8.256   5.455   4.403 -0.2879 -0.6295  0.2758
 7937TIP3    H223751   8.303   5.380   4.526 -0.1237  0.0875  0.6506
 7938TIP3   OH223752   7.985   6.875   3.513 -0.4003  0.4788  0.2759
 7938TIP3    H123753   7.983   6.785   3.544 -0.1164  0.7967  1.2108
 7938TIP3    H223754   7.973   6.867   3.418 -1.4126 -0.4764  0.4694
 7939TIP3   OH223755   5.242   5.839   4.184  0.6480  0.5907 -0.4693
 7939TIP3    H123756   5.174   5.849   4.251  0.6595 -0.9240 -0.2231
 7939TIP3    H223757   5.284   5.756   4.204  1.3558  0.6303 -1.7268
 7940TIP3   OH223758   7.062   6.584   3.236 -0.1315  0.3794 -0.2027
 7940TIP3    H123759   7.068   6.563   3.143  1.6458  1.3629 -0.3263
 7940TIP3    H223760   7.083   6.502   3.280  0.0218  0.1658 -0.6670
 7941TIP3   OH223761   0.151   3.507   4.125 -0.0485  0.5390  0.6636
 7941TIP3    H123762   0.119   3.433   4.175 -0.6444  1.9203  2.3595
 7941TIP3    H223763   0.242   3.518   4.152  1.2217 -1.8015 -2.2941
 7942TIP3   OH223764   1.651   3.566   4.453 -0.1925  0.3822  0.0383
 7942TIP3    H123765   1.573   3.571   4.398  0.5591 -0.9162 -1.1707
 7942TIP3    H223766   1.677   3.657   4.465 -1.0470  0.7444 -0.7744
 7943TIP3   OH223767   7.742   5.351   4.245 -0.1871  0.2599 -0.1965
 7943TIP3    H123768   7.816   5.297   4.216  0.1242  1.0889 -0.9451
 7943TIP3    H223769   7.689   5.364   4.166 -0.3696  0.8826  0.0246
 7944TIP3   OH223770   0.999   6.764   2.163  0.3084  0.0689 -0.0212
 7944TIP3    H123771   1.052   6.691   2.194  0.1136 -0.2544 -0.4460
 7944TIP3    H223772   0.967   6.806   2.243  1.0156  0.1376  0.2387
 7945TIP3   OH223773   8.246   5.597   1.672 -0.3565 -0.2191  0.2945
 7945TIP3    H123774   8.322   5.546   1.641 -0.3647  0.5332 -0.9843
 7945TIP3    H223775   8.171   5.544   1.648 -0.3747  0.4889 -1.2415
 7946TIP3   OH223776   7.538   6.230   3.898  1.0679  0.0362 -0.1616
 7946TIP3    H123777   7.446   6.222   3.925  1.1376  0.3561  0.1696
 7946TIP3    H223778   7.561   6.143   3.865  0.5564  0.0363 -0.5264
 7947TIP3   OH223779   8.285   4.161   3.488 -0.1808  0.2598  0.0989
 7947TIP3    H123780   8.194   4.132   3.492 -0.4977  0.8598 -2.0350
 7947TIP3    H223781   8.292   4.205   3.403  2.0810  0.2967  0.2829
 7948TIP3   OH223782   5.550   6.108   4.062  0.5107  0.2600 -0.2080
 7948TIP3    H123783   5.624   6.059   4.026  0.4283  0.0838 -0.1346
 7948TIP3    H223784   5.473   6.059   4.034  0.4240  0.4092 -0.2279
 7949TIP3   OH223785   6.578   6.364   5.005  0.5966 -0.3506  0.5811
 7949TIP3    H123786   6.637   6.317   4.946  0.4815  1.2829 -0.8854
 7949TIP3    H223787   6.635   6.427   5.050  0.3584 -0.2648  0.7620
 7950TIP3   OH223788   8.194   4.620   1.881 -0.4364 -0.0931  0.0650
 7950TIP3    H123789   8.183   4.525   1.888  0.8041 -0.2752 -0.4610
 7950TIP3    H223790   8.277   4.632   1.835 -0.5667  1.2508  0.1564
 7951TIP3   OH223791   7.578   6.073   4.452 -0.5257  0.0855 -0.0445
 7951TIP3    H123792   7.531   6.103   4.530  1.5390 -0.5805  1.4934
 7951TIP3    H223793   7.533   5.993   4.426 -0.6474 -0.1945  1.0141
 7952TIP3   OH223794   6.867   3.818   2.921 -0.0901 -0.3148 -0.2521
 7952TIP3    H123795   6.904   3.877   2.856 -0.6149 -0.1507 -0.4046
 7952TIP3    H223796   6.943   3.783   2.968  0.2612 -0.0760 -0.6404
 7953TIP3   OH223797   8.110   5.531   1.206  0.2658 -0.3537  0.5681
 7953TIP3    H123798   8.146   5.442   1.208  1.0481 -0.0373  1.0100
 7953TIP3    H223799   8.173   5.581   1.154  0.2766  0.1246  1.0329
 7954TIP3   OH223800   1.379   5.347   2.969 -0.1444 -0.8667  0.0237
 7954TIP3    H123801   1.364   5.269   3.023 -4.7012  0.2165  0.5513
 7954TIP3    H223802   1.389   5.313   2.880 -2.9563 -2.0842  0.1124
 7955TIP3   OH223803   6.255   5.373   2.497 -0.3161  0.4245  0.4332
 7955TIP3    H123804   6.163   5.358   2.517  0.1410 -0.8158  1.7267
 7955TIP3    H223805   6.261   5.467   2.480 -1.6965  0.6323  1.0391
 7956TIP3   OH223806   7.696   7.172   2.366 -0.1197  0.1903 -0.0230
 7956TIP3    H123807   7.759   7.206   2.302 -0.2423  0.6274  0.0852
 7956TIP3    H223808   7.638   7.246   2.383  0.2352  0.2491  1.0023
 7957TIP3   OH223809   6.093   2.537   2.972  0.0686  0.3174  0.5696
 7957TIP3    H123810   6.034   2.473   2.932 -0.7508  0.4987  1.4828
 7957TIP3    H223811   6.159   2.554   2.905 -0.4676 -0.4837 -0.1636
 7958TIP3   OH223812   1.712   5.794   2.752  0.6971  0.0886 -0.3192
 7958TIP3    H123813   1.743   5.761   2.836  3.1082  1.6135 -0.5728
 7958TIP3    H223814   1.688   5.716   2.703  1.0679 -0.9321  1.0834
 7959TIP3   OH223815   1.560   1.793   0.904  0.1969  0.3254 -0.2243
 7959TIP3    H123816   1.626   1.861   0.915  0.0949  0.5987 -1.2012
 7959TIP3    H223817   1.508   1.822   0.828 -0.1819 -0.5649 -0.3172
 7960TIP3   OH223818   0.224   6.144   2.806  0.0520 -0.6750  0.1461
 7960TIP3    H123819   0.299   6.202   2.791  0.2287 -0.6814  0.9840
 7960TIP3    H223820   0.152   6.204   2.825  0.2418 -0.7335  1.0433
 7961TIP3   OH223821   1.332   4.076   4.534  0.3110 -0.1174 -0.1977
 7961TIP3    H123822   1.419   4.116   4.525  0.2926 -0.3889 -1.7346
 7961TIP3    H223823   1.310   4.047   4.445 -1.2086 -0.3427  0.2418
 7962TIP3   OH223824   1.179   2.820   3.428 -0.0564  0.0625 -0.1896
 7962TIP3    H123825   1.131   2.745   3.393 -1.1588  0.5527  0.2659
 7962TIP3    H223826   1.113   2.888   3.441  1.0342  1.3613 -1.2328
 7963TIP3   OH223827   6.756   3.148   3.696  0.0640 -0.0894 -0.6958
 7963TIP3    H123828   6.702   3.095   3.639 -0.4605 -0.0594 -0.2365
 7963TIP3    H223829   6.836   3.164   3.646 -0.2594 -0.3209 -1.2918
 7964TIP3   OH223830   7.503   4.768   3.762 -0.4829  0.4423 -0.2745
 7964TIP3    H123831   7.458   4.696   3.717 -0.2638 -0.4050  0.8486
 7964TIP3    H223832   7.478   4.758   3.854  1.3130  0.4814  0.2309
 7965TIP3   OH223833   1.410   3.045   1.561 -0.6060  0.2538  0.0608
 7965TIP3    H123834   1.384   3.011   1.476 -1.4214 -1.0348  0.8139
 7965TIP3    H223835   1.499   3.013   1.574  0.0589  1.6421 -0.9170
 7966TIP3   OH223836   0.419   6.157   1.809 -0.1951 -0.1541 -0.1165
 7966TIP3    H123837   0.426   6.155   1.714  0.8103  0.2060 -0.0480
 7966TIP3    H223838   0.499   6.116   1.841 -0.4061 -0.0431  0.5794
 7967TIP3   OH223839   0.009   4.376   2.375 -0.5138  0.3919 -0.3723
 7967TIP3    H123840   0.022   4.368   2.280 -0.6231  0.0110 -0.3553
 7967TIP3    H223841   0.035   4.466   2.395  0.0095  0.3109 -0.6828
 7968TIP3   OH223842   7.999   1.674   3.130 -0.7787  0.3407 -0.4651
 7968TIP3    H123843   8.084   1.719   3.127 -1.0223  0.6879 -2.3017
 7968TIP3    H223844   7.984   1.645   3.040 -1.6342 -1.5531  0.2687
 7969TIP3   OH223845   0.032   7.833   2.157  0.0606 -0.0524 -0.2812
 7969TIP3    H123846  -0.014   7.908   2.119  0.3733  1.1260  1.6042
 7969TIP3    H223847   0.044   7.856   2.249  2.6709 -1.2042 -0.2991
 7970TIP3   OH223848   6.095   3.626   4.015 -0.1618 -0.1597  0.1873
 7970TIP3    H123849   6.059   3.623   3.926  1.2414 -0.8340 -0.3650
 7970TIP3    H223850   6.189   3.640   4.003  0.1746 -1.1916  1.5406
 7971TIP3   OH223851   5.382   6.641   2.978 -0.3692  0.0309  0.0766
 7971TIP3    H123852   5.465   6.629   3.025 -1.1998  0.9287  1.8166
 7971TIP3    H223853   5.406   6.693   2.901  0.5279  1.1364  1.0860
 7972TIP3   OH223854   6.411   5.085   2.484 -0.1710 -0.0367 -1.1413
 7972TIP3    H123855   6.412   5.173   2.521 -1.2343  0.0975 -1.4274
 7972TIP3    H223856   6.489   5.043   2.521 -1.5653 -0.1292  1.8412
 7973TIP3   OH223857   7.389   6.704   4.128 -0.8401 -0.1848  0.3873
 7973TIP3    H123858   7.472   6.741   4.158 -0.1476 -1.2561 -0.1679
 7973TIP3    H223859   7.376   6.742   4.041 -1.3533  0.6268  0.8167
 7974TIP3   OH223860   6.610   6.107   1.330  0.1353  0.3631 -0.6058
 7974TIP3    H123861   6.538   6.067   1.282 -0.9398 -0.8307  1.9205
 7974TIP3    H223862   6.611   6.062   1.415  1.4031  2.9804  0.8363
 7975TIP3   OH223863   1.207   6.611   3.415 -0.4390 -0.6207 -0.8389
 7975TIP3    H123864   1.295   6.646   3.425 -0.6729 -0.5695  1.2249
 7975TIP3    H223865   1.199   6.592   3.322  0.4890  2.6888 -1.6509
 7976TIP3   OH223866   7.406   6.821   3.312  0.2434 -0.0985 -0.2373
 7976TIP3    H123867   7.431   6.754   3.249  0.5464  0.2082 -0.4470
 7976TIP3    H223868   7.489   6.848   3.353  0.1165  0.0885 -0.1011
 7977TIP3   OH223869   0.481   6.188   3.836  0.1144 -0.7473 -0.0048
 7977TIP3    H123870   0.438   6.110   3.872  2.5617 -1.5006  1.3847
 7977TIP3    H223871   0.501   6.242   3.912  0.3017  0.2912 -0.7830
 7978TIP3   OH223872   5.692   4.093   4.004  1.0641 -0.0420 -0.6850
 7978TIP3    H123873   5.766   4.150   4.024  0.8140  0.3754 -0.9210
 7978TIP3    H223874   5.716   4.051   3.921  1.0136  0.1392 -0.7925
 7979TIP3   OH223875   8.162   4.514   5.804  0.4260 -0.5436 -0.1008
 7979TIP3    H123876   8.181   4.420   5.804  0.3854 -0.5898  2.0008
 7979TIP3    H223877   8.247   4.556   5.796  0.5989 -0.7660  0.5470
 7980TIP3   OH223878   6.147   5.641   1.308  0.7401  0.5300  0.2242
 7980TIP3    H123879   6.226   5.661   1.359 -0.4567 -1.0453  2.7953
 7980TIP3    H223880   6.090   5.716   1.322  2.1349  2.1847 -2.5285
 7981TIP3   OH223881   0.538   2.136   4.367 -0.1178  0.5959  0.0122
 7981TIP3    H123882   0.569   2.187   4.443 -0.4308  0.7107  0.0649
 7981TIP3    H223883   0.463   2.185   4.335 -0.6679 -0.0489  0.3079
 7982TIP3   OH223884   7.285   4.867   3.343  0.9803 -0.1879 -0.2600
 7982TIP3    H123885   7.303   4.800   3.408  0.0467  1.1178  1.3868
 7982TIP3    H223886   7.226   4.825   3.281  1.5710 -1.3288 -0.0658
 7983TIP3   OH223887   7.298   3.902   3.378  0.4323  0.2308 -0.0272
 7983TIP3    H123888   7.350   3.913   3.458  1.1630  0.3117 -0.5029
 7983TIP3    H223889   7.219   3.954   3.394  0.1180 -0.5431  1.0270
 7984TIP3   OH223890   6.542   5.286   4.504  0.0761  0.1427  0.0584
 7984TIP3    H123891   6.537   5.290   4.600 -0.2394  2.8059 -0.0487
 7984TIP3    H223892   6.453   5.305   4.475 -0.7309 -4.3304 -0.7451
 7985TIP3   OH223893   7.252   4.230   4.015  0.0628 -0.0447  0.4589
 7985TIP3    H123894   7.334   4.188   3.989  0.8303  1.7620 -0.1229
 7985TIP3    H223895   7.185   4.165   3.997  1.2394 -1.1016 -0.1967
 7986TIP3   OH223896   0.648   3.480   3.701 -0.6529  0.1973  0.6274
 7986TIP3    H123897   0.580   3.536   3.663 -1.0044 -0.9812 -0.5383
 7986TIP3    H223898   0.601   3.429   3.768 -0.5988  0.3992  0.8210
 7987TIP3   OH223899   0.117   3.783   3.188 -0.0671  0.2070 -0.5101
 7987TIP3    H123900   0.180   3.808   3.120 -2.1705  1.0317 -2.2058
 7987TIP3    H223901   0.069   3.709   3.151 -0.1593 -0.3589  0.7289
 7988TIP3   OH223902   7.836   7.083   3.607  0.2037  0.2414 -0.2302
 7988TIP3    H123903   7.760   7.054   3.558  0.2711  1.5688 -1.1505
 7988TIP3    H223904   7.904   7.020   3.586 -0.3208 -0.3146 -0.2780
 7989TIP3   OH223905   6.215   4.126   3.889 -0.0012 -0.0799 -0.2526
 7989TIP3    H123906   6.257   4.079   3.962  2.0755  0.7959 -0.8428
 7989TIP3    H223907   6.126   4.144   3.920  0.3652 -1.0955  1.4530
 7990TIP3   OH223908   1.780   6.313   2.477 -0.4324  0.5167  0.3961
 7990TIP3    H123909   1.736   6.288   2.559 -0.2064 -1.2530  0.0037
 7990TIP3    H223910   1.722   6.280   2.408  1.7070 -2.3511 -0.1318
 7991TIP3   OH223911   7.474   3.685   3.556 -0.1096 -0.3346  0.4903
 7991TIP3    H123912   7.519   3.602   3.537  1.7164  0.6373  0.3772
 7991TIP3    H223913   7.401   3.687   3.494  0.4231 -1.4006 -0.1953
 7992TIP3   OH223914   1.239   3.962   2.099  0.0105 -0.0933  0.0186
 7992TIP3    H123915   1.150   3.998   2.099  0.0927  0.1081 -0.1088
 7992TIP3    H223916   1.268   3.971   2.008 -1.2835 -3.6998 -0.8560
 7993TIP3   OH223917   6.816   6.620   0.781 -0.0083  0.0877  0.0781
 7993TIP3    H123918   6.721   6.627   0.775  0.1015  0.3172 -1.4155
 7993TIP3    H223919   6.830   6.547   0.842 -1.1226  0.8418  1.2838
 7994TIP3   OH223920   6.249   4.414   3.214 -0.3172  0.3478  0.2154
 7994TIP3    H123921   6.155   4.399   3.206 -0.1018 -1.0355  0.1187
 7994TIP3    H223922   6.288   4.326   3.209  1.1619  1.1044 -2.3698
 7995TIP3   OH223923   7.158   4.843   3.784 -0.0860  0.5282  0.0545
 7995TIP3    H123924   7.180   4.806   3.698 -1.3172  1.6466 -0.7529
 7995TIP3    H223925   7.193   4.932   3.782  0.7139  0.2502  1.0798
 7996TIP3   OH223926   8.070   3.107   2.720 -0.1579 -0.3910  0.2668
 7996TIP3    H123927   8.042   3.179   2.776  1.4921  1.5448 -1.3102
 7996TIP3    H223928   7.990   3.080   2.674 -0.2083  2.7808 -1.6712
 7997TIP3   OH223929   8.293   2.898   3.356 -0.2800  1.0702  0.6940
 7997TIP3    H123930   8.359   2.905   3.425  0.3771 -0.5006  0.2487
 7997TIP3    H223931   8.272   2.804   3.352  0.0376  1.0630 -1.5303
 7998TIP3   OH223932   1.924   3.261   1.891  1.2107  0.2651 -0.0686
 7998TIP3    H123933   1.995   3.248   1.954 -1.0771 -2.7103  2.0812
 7998TIP3    H223934   1.870   3.331   1.929  0.4209 -0.7895  0.7991
 7999TIP3   OH223935   7.044   5.208   2.364  0.3775  0.1963  0.2545
 7999TIP3    H123936   7.119   5.182   2.417 -0.0674  0.8708  1.2299
 7999TIP3    H223937   6.970   5.161   2.402 -0.0416  1.1386  0.6226
 8000TIP3   OH223938   7.391   5.869   1.491 -0.2014  0.5563 -0.0069
 8000TIP3    H123939   7.466   5.924   1.473  1.0305 -1.5553 -1.6367
 8000TIP3    H223940   7.360   5.842   1.404 -0.5278 -1.5555  0.7230
 8001TIP3   OH223941   7.887   7.198   2.116  0.2353  0.1332  0.0365
 8001TIP3    H123942   7.973   7.231   2.140  0.5419 -0.8589  0.3027
 8001TIP3    H223943   7.890   7.191   2.020 -0.1064  1.6266 -0.0906
 8002TIP3   OH223944   4.867   4.216   3.082 -0.1479  0.3720 -0.5046
 8002TIP3    H123945   4.801   4.151   3.108 -1.5669  1.9029 -0.2125
 8002TIP3    H223946   4.942   4.163   3.055 -0.9632 -1.3906  0.5286
 8003TIP3   OH223947   8.328   7.790   2.957  0.2560 -0.4557  0.3532
 8003TIP3    H123948   8.338   7.791   3.052  2.6389  1.0850  0.1274
 8003TIP3    H223949   8.397   7.847   2.925 -2.2370  1.2888 -2.1696
 8004TIP3   OH223950   1.126   5.427   3.001  0.1903 -0.8804  0.3614
 8004TIP3    H123951   1.131   5.447   3.094  1.2134 -0.4081  0.2070
 8004TIP3    H223952   1.215   5.438   2.968 -0.2784 -0.3910 -0.8051
 8005TIP3   OH223953   0.545   3.901   1.685  0.4852  0.1104 -0.0244
 8005TIP3    H123954   0.575   3.820   1.643 -1.9641  0.5643 -2.7239
 8005TIP3    H223955   0.579   3.971   1.630 -0.9193  0.8056 -0.0086
 8006TIP3   OH223956   1.646   5.263   2.697 -0.3303 -0.7991  0.0244
 8006TIP3    H123957   1.563   5.237   2.658 -0.9154  2.1842 -0.8809
 8006TIP3    H223958   1.712   5.239   2.632 -1.0397  1.5804 -1.6605
 8007TIP3   OH223959   7.360   5.963   3.366  0.1875  0.1540  0.7722
 8007TIP3    H123960   7.439   6.004   3.329 -0.8586 -0.0823 -1.8379
 8007TIP3    H223961   7.394   5.902   3.431  2.1062  0.8823  0.5138
 8008TIP3   OH223962   8.452   6.130   3.370  0.3604  0.6213 -0.2936
 8008TIP3    H123963   8.443   6.059   3.307  2.0285  0.0623  0.0508
 8008TIP3    H223964   8.486   6.088   3.449  0.7817  1.7019  0.1159
 8009TIP3   OH223965   5.834   2.149   6.316  0.6122  0.0753  0.2478
 8009TIP3    H123966   5.888   2.225   6.291 -0.4231  0.2422 -1.5716
 8009TIP3    H223967   5.802   2.171   6.403  2.1696  0.6957  0.6989
 8010TIP3   OH223968   6.945   3.854   3.382 -0.5961  0.2080 -0.2099
 8010TIP3    H123969   7.008   3.806   3.436  0.4062  0.4626 -1.1501
 8010TIP3    H223970   6.882   3.889   3.445  0.0670 -0.2332  0.7142
 8011TIP3   OH223971   8.340   5.033   2.160  0.2927  0.0522 -0.5234
 8011TIP3    H123972   8.349   5.026   2.255  1.3153 -0.2436 -0.6370
 8011TIP3    H223973   8.270   5.097   2.148 -0.3030 -0.3931  0.4312
 8012TIP3   OH223974   6.328   6.857   2.495  0.1995 -0.0582  0.0203
 8012TIP3    H123975   6.352   6.932   2.440 -0.4946  0.7853  0.8562
 8012TIP3    H223976   6.339   6.888   2.585 -2.6277 -0.0532  0.4227
 8013TIP3   OH223977   7.803   0.659   2.025 -0.7253 -0.0621  0.5714
 8013TIP3    H123978   7.826   0.729   2.087  0.8262  2.2828 -2.4901
 8013TIP3    H223979   7.866   0.590   2.042  0.2819  0.9410  0.9739
 8014TIP3   OH223980   0.393   4.736   3.329  0.5539  0.2261  0.0068
 8014TIP3    H123981   0.458   4.671   3.355  0.0098 -0.2829  0.1075
 8014TIP3    H223982   0.403   4.743   3.234 -1.1943 -1.9918 -0.3779
 8015TIP3   OH223983   6.507   6.770   2.979  0.7041  0.0527  0.1943
 8015TIP3    H123984   6.423   6.749   3.020  0.1832 -0.5284 -1.1259
 8015TIP3    H223985   6.571   6.723   3.031 -0.0309 -1.3687 -0.1678
 8016TIP3   OH223986   7.950   5.539   2.378  0.4076 -0.2966  0.5310
 8016TIP3    H123987   8.043   5.536   2.357  0.1029 -0.5131 -0.8982
 8016TIP3    H223988   7.908   5.494   2.304 -0.8989  0.5880  0.7212
 8017TIP3   OH223989   8.136   6.735   4.288  0.3049 -0.3996 -0.0517
 8017TIP3    H123990   8.186   6.796   4.235 -1.2235  1.7850  0.9776
 8017TIP3    H223991   8.108   6.667   4.227  0.7139  0.7489 -1.5339
 8018TIP3   OH223992   8.131   7.235   3.933 -0.1315  0.4538  0.0227
 8018TIP3    H123993   8.155   7.171   4.000  2.2760  2.3017  0.9806
 8018TIP3    H223994   8.094   7.308   3.982  0.0407  1.1097 -0.8166
 8019TIP3   OH223995   8.163   4.631   3.534  0.5587  0.0508 -0.4186
 8019TIP3    H123996   8.238   4.613   3.591 -0.5828 -1.2858  0.6749
 8019TIP3    H223997   8.168   4.725   3.517  1.9019  0.1459  0.4662
 8020TIP3   OH223998   0.079   3.919   4.722 -0.2587 -0.0680  0.5911
 8020TIP3    H123999   0.116   4.007   4.708  0.1186 -0.3167  0.0057
 8020TIP3    H224000   0.109   3.894   4.809 -0.7274  0.5631  0.9352
 8021TIP3   OH224001   8.045   6.118   4.213 -0.2804  0.3574 -0.3792
 8021TIP3    H124002   8.071   6.026   4.214 -1.7379 -0.0638  0.9641
 8021TIP3    H224003   7.955   6.118   4.248 -0.1276  2.3232  0.0682
 8022TIP3   OH224004   6.641   6.688   4.070 -0.4121 -0.3941 -1.0010
 8022TIP3    H124005   6.684   6.759   4.118 -0.6602 -0.7981 -0.1641
 8022TIP3    H224006   6.680   6.691   3.983 -1.3768  1.6480 -1.4109
 8023TIP3   OH224007   5.724   5.681   2.624  0.3230 -0.0786 -0.5894
 8023TIP3    H124008   5.817   5.702   2.619 -0.0401  2.2038  1.2714
 8023TIP3    H224009   5.682   5.744   2.564 -0.2175  0.5747  0.4511
 8024TIP3   OH224010   0.689   4.584   4.311  0.2248  0.2067  0.5232
 8024TIP3    H124011   0.630   4.625   4.248 -0.6231 -0.1125  1.0893
 8024TIP3    H224012   0.681   4.490   4.293  1.9364  0.2559 -0.5811
 8025TIP3   OH224013   7.429   4.155   4.503  0.2084  0.6452 -0.1955
 8025TIP3    H124014   7.443   4.091   4.434 -1.8632  1.2520 -1.2278
 8025TIP3    H224015   7.349   4.201   4.477  0.6272  2.3857  1.4697
 8026TIP3   OH224016   7.183   3.516   2.474 -0.1825 -0.2835  0.0577
 8026TIP3    H124017   7.276   3.513   2.451 -1.0397 -1.2175 -3.5481
 8026TIP3    H224018   7.178   3.473   2.559  2.6043 -0.6520  0.0844
 8027TIP3   OH224019   0.855   2.045   2.557  0.6858 -0.0510  0.0593
 8027TIP3    H124020   0.771   2.091   2.558  0.7920  0.1415  0.1394
 8027TIP3    H224021   0.864   2.011   2.646  1.9013  2.1257  0.7994
 8028TIP3   OH224022   8.143   4.092   3.245  0.5408 -0.5057  0.5929
 8028TIP3    H124023   8.052   4.120   3.254 -0.0313 -2.3451  0.7417
 8028TIP3    H224024   8.156   4.083   3.150  0.5443 -0.3208  0.5758
 8029TIP3   OH224025   2.091   4.090   2.777  0.3354  0.0833 -0.2579
 8029TIP3    H124026   2.152   4.147   2.729 -0.4110  1.2271  0.1334
 8029TIP3    H224027   2.128   4.084   2.865 -0.2906  1.0846  0.0878
 8030TIP3   OH224028   5.731   4.436   1.375  0.6444 -0.3406 -0.0078
 8030TIP3    H124029   5.695   4.427   1.287  0.3486 -0.9864  0.1777
 8030TIP3    H224030   5.796   4.367   1.382  1.2385  0.2105  0.0046
 8031TIP3   OH224031   7.345   3.935   3.713  0.1719  0.0794 -0.3852
 8031TIP3    H124032   7.360   3.951   3.807  0.2036  2.4120 -0.7511
 8031TIP3    H224033   7.432   3.938   3.674 -0.0734  1.6886 -0.8361
 8032TIP3   OH224034   6.640   5.038   2.623  0.3992 -0.7217  0.1097
 8032TIP3    H124035   6.636   4.959   2.677 -1.9835 -0.3902  0.4609
 8032TIP3    H224036   6.619   5.109   2.684  0.0602 -0.0780 -0.7546
 8033TIP3   OH224037   7.021   7.759   2.479 -0.1208  0.5987  0.2186
 8033TIP3    H124038   7.106   7.729   2.448 -0.5122  0.4839 -0.7877
 8033TIP3    H224039   7.013   7.724   2.567  0.0448 -1.0313 -0.4030
 8034TIP3   OH224040   4.752   5.548   4.792 -0.5989  0.0879 -0.0411
 8034TIP3    H124041   4.715   5.465   4.824  0.5927 -0.7179 -0.7088
 8034TIP3    H224042   4.794   5.586   4.868  0.0848 -0.6300 -0.0472
 8035TIP3   OH224043   7.463   3.512   6.277 -0.7381 -0.2655  0.3862
 8035TIP3    H124044   7.431   3.601   6.294  0.6047  0.3665 -0.3025
 8035TIP3    H224045   7.392   3.455   6.307 -1.2036  1.0040  1.8107
 8036TIP3   OH224046   7.336   2.864   3.838 -0.3624  0.1550 -0.1988
 8036TIP3    H124047   7.288   2.944   3.818 -1.1221 -0.2501 -0.0234
 8036TIP3    H224048   7.299   2.799   3.779 -1.3693 -0.6245  1.2681
 8037TIP3   OH224049   6.949   5.872   1.279  0.5234  0.1314 -0.1748
 8037TIP3    H124050   6.985   5.787   1.255 -0.6483  0.0654 -1.8081
 8037TIP3    H224051   6.864   5.852   1.319  0.4804  0.5034 -0.0735
 8038TIP3   OH224052   0.451   4.800   4.291 -0.6288 -0.2228  0.4679
 8038TIP3    H124053   0.526   4.847   4.256  0.8319 -0.6812  2.8427
 8038TIP3    H224054   0.436   4.729   4.229 -0.3189  0.9967 -1.0272
 8039TIP3   OH224055   7.606   7.102   4.378 -0.2805  0.1822  0.3488
 8039TIP3    H124056   7.545   7.075   4.309 -1.6007  0.2645  1.4663
 8039TIP3    H224057   7.690   7.065   4.351 -1.1779 -1.4021 -0.3420
 8040TIP3   OH224058   0.943   4.739   4.758 -0.2274  0.4787  0.2436
 8040TIP3    H124059   0.852   4.759   4.739 -0.5795  0.4071  1.8031
 8040TIP3    H224060   0.941   4.689   4.839  1.1823  0.2166  0.1433
 8041TIP3   OH224061   1.057   5.721   1.807 -0.7380 -0.3014 -0.0733
 8041TIP3    H124062   1.063   5.693   1.898  0.2169  0.8689  0.2324
 8041TIP3    H224063   1.118   5.665   1.760  0.2135  0.3874  0.3270
 8042TIP3   OH224064   0.611   6.235   4.354 -0.4366  0.0104 -0.3790
 8042TIP3    H124065   0.594   6.140   4.353 -0.5669  0.0350 -0.4799
 8042TIP3    H224066   0.702   6.242   4.385 -0.4980 -0.1370 -0.1564
 8043TIP3   OH224067   7.381   1.803   0.108 -0.6685  0.0776 -0.1234
 8043TIP3    H124068   7.332   1.768   0.183 -0.4712  0.5484  0.2270
 8043TIP3    H224069   7.343   1.890   0.094  0.1799  0.5056  0.2455
 8044TIP3   OH224070   1.715   4.617   4.052 -0.5031  0.1546  0.0965
 8044TIP3    H124071   1.750   4.528   4.048 -1.5540 -0.2229 -1.0601
 8044TIP3    H224072   1.679   4.624   4.141 -1.1104 -0.8552 -0.0623
 8045TIP3   OH224073   0.112   4.562   5.463  0.5774  0.4270 -0.3214
 8045TIP3    H124074   0.033   4.533   5.508  0.3354  1.0154 -0.3693
 8045TIP3    H224075   0.184   4.524   5.513  0.2427 -1.1370 -0.9762
 8046TIP3   OH224076   0.653   6.692   3.789  0.1380 -0.0385 -0.2837
 8046TIP3    H124077   0.746   6.714   3.800  0.9676 -2.7982 -1.3686
 8046TIP3    H224078   0.636   6.626   3.856 -1.2285  0.8598  0.2800
 8047TIP3   OH224079   2.228   5.730   5.839 -0.2371 -0.5637  0.4911
 8047TIP3    H124080   2.216   5.793   5.768 -1.6054  0.6395  1.7497
 8047TIP3    H224081   2.280   5.660   5.800 -1.6214 -0.3138 -1.9175
 8048TIP3   OH224082   0.510   5.716   4.857  0.3314  0.1295 -0.1156
 8048TIP3    H124083   0.594   5.708   4.902 -0.4041  1.0929  1.4880
 8048TIP3    H224084   0.528   5.775   4.783  1.1462  0.0342  0.0071
 8049TIP3   OH224085   0.218   6.201   6.485  0.2315 -0.1104 -0.0187
 8049TIP3    H124086   0.302   6.213   6.441  0.2192 -0.7899 -0.2288
 8049TIP3    H224087   0.223   6.114   6.525  0.3881  0.6350  1.6498
 8050TIP3   OH224088   0.533   6.396   5.103 -0.1692 -0.0506  0.3393
 8050TIP3    H124089   0.517   6.320   5.159 -1.7112  0.3644  0.5074
 8050TIP3    H224090   0.608   6.372   5.050 -0.7824 -1.7891  0.2251
 8051TIP3   OH224091   1.076   5.423   5.489  0.1757  0.2033 -0.1728
 8051TIP3    H124092   1.058   5.427   5.583  0.3717 -0.6331 -0.0942
 8051TIP3    H224093   0.990   5.428   5.448  0.0431  0.0077  0.0763
 8052TIP3   OH224094   0.466   3.729   3.630  0.3059 -0.1619 -0.7117
 8052TIP3    H124095   0.390   3.736   3.572 -1.5192 -0.0081  1.6134
 8052TIP3    H224096   0.486   3.820   3.653 -1.4049 -0.3711  1.8550
 8053TIP3   OH224097   7.390   7.018   3.630  0.0285 -0.1667 -0.6880
 8053TIP3    H124098   7.444   6.954   3.677 -0.7737  1.4871  2.6715
 8053TIP3    H224099   7.311   6.970   3.606  0.1491 -0.8987  0.3253
 8054TIP3   OH224100   1.233   5.330   5.784 -0.5856  0.1415  0.2684
 8054TIP3    H124101   1.317   5.355   5.746 -0.1180  3.3988  3.1917
 8054TIP3    H224102   1.256   5.291   5.869 -1.9605 -0.2185  0.4895
 8055TIP3   OH224103   8.490   6.555   3.321 -0.6877  0.0902  0.2043
 8055TIP3    H124104   8.439   6.483   3.283  0.5675  0.0852 -1.4975
 8055TIP3    H224105   8.560   6.511   3.370 -0.6888  0.1446  0.2544
 8056TIP3   OH224106   8.289   5.576   4.203 -0.0998  0.3978 -0.1130
 8056TIP3    H124107   8.343   5.592   4.126 -0.3411 -0.8385 -0.5582
 8056TIP3    H224108   8.340   5.610   4.276  1.0784 -0.3220 -0.5893
 8057TIP3   OH224109   6.444   6.015   5.170 -0.0404 -0.2997  0.1950
 8057TIP3    H124110   6.396   5.957   5.112  1.1765  0.6705 -1.8501
 8057TIP3    H224111   6.404   6.101   5.157 -0.3336 -0.2370  1.4644
 8058TIP3   OH224112   0.683   5.517   4.298 -0.2524 -0.5083  0.0076
 8058TIP3    H124113   0.669   5.430   4.336 -0.0171 -0.4241  0.2871
 8058TIP3    H224114   0.601   5.564   4.316  0.1314 -0.2322  1.0529
 8059TIP3   OH224115   1.483   6.544   3.820 -0.3248 -0.8670 -0.2385
 8059TIP3    H124116   1.445   6.623   3.857 -1.1780 -0.8166 -1.1868
 8059TIP3    H224117   1.536   6.507   3.890  0.1269  0.5701  0.2004
 8060TIP3   OH224118   1.150   4.257   4.657  0.2373  0.0882  0.2925
 8060TIP3    H124119   1.226   4.236   4.604  0.3271 -0.3457  0.5971
 8060TIP3    H224120   1.165   4.214   4.741 -1.7582 -2.5668 -0.6508
 8061TIP3   OH224121   7.867   5.908   5.572  0.3584 -0.1725  0.4973
 8061TIP3    H124122   7.826   5.873   5.651  0.1522 -0.5159  0.2422
 8061TIP3    H224123   7.814   5.873   5.500  1.1115 -0.6590  0.1646
 8062TIP3   OH224124   1.798   6.497   4.708 -0.0809  0.0644  0.4369
 8062TIP3    H124125   1.712   6.489   4.748  0.1097  1.7115  1.2285
 8062TIP3    H224126   1.860   6.472   4.777  0.1383  0.3740  0.3548
 8063TIP3   OH224127   8.454   3.292   3.075 -0.4211 -0.2062 -0.3886
 8063TIP3    H124128   8.455   3.289   2.979 -1.5363 -0.9871 -0.3841
 8063TIP3    H224129   8.365   3.265   3.099 -0.3085  0.4922  0.8512
 8064TIP3   OH224130   0.609   3.864   3.282 -0.3560 -0.0096  0.3258
 8064TIP3    H124131   0.638   3.834   3.368 -1.5280  0.3097  0.8530
 8064TIP3    H224132   0.608   3.960   3.289 -0.7361  0.0105  0.0596
 8065TIP3   OH224133   2.041   5.739   5.515  0.0441 -0.1865  0.6849
 8065TIP3    H124134   2.071   5.722   5.426 -1.4567  0.1229  0.1234
 8065TIP3    H224135   2.115   5.784   5.557  0.7014 -0.2267 -0.4251
 8066TIP3   OH224136   7.133   7.721   2.148 -0.4081 -0.0317 -0.5540
 8066TIP3    H124137   7.204   7.744   2.208 -0.8751 -2.0759  0.8054
 8066TIP3    H224138   7.166   7.748   2.062  2.4206 -1.7557 -0.0818
 8067TIP3   OH224139   0.200   5.802   4.251 -0.0275  0.3962 -0.1317
 8067TIP3    H124140   0.153   5.873   4.209  1.0684 -0.0061 -2.1163
 8067TIP3    H224141   0.249   5.760   4.179  2.0000 -0.2323  1.5655
 8068TIP3   OH224142   0.578   4.118   4.314  0.1289 -1.1927 -0.8488
 8068TIP3    H124143   0.530   4.036   4.304 -1.7213  0.1286 -3.0326
 8068TIP3    H224144   0.669   4.095   4.297 -0.1759 -3.0336 -0.0857
 8069TIP3   OH224145   6.842   3.200   4.317  0.1580 -0.1217 -0.1181
 8069TIP3    H124146   6.931   3.232   4.331 -0.4561  0.9311  1.6758
 8069TIP3    H224147   6.851   3.105   4.308  1.6786  0.1967 -2.2614
 8070TIP3   OH224148   7.711   5.430   6.040  0.6234 -0.2450 -0.0991
 8070TIP3    H124149   7.679   5.341   6.022  1.6364 -0.2293 -2.1304
 8070TIP3    H224150   7.782   5.418   6.103 -0.5627 -0.6642  1.1906
 8071TIP3   OH224151   8.402   4.669   5.278 -0.4471  0.1103 -0.0631
 8071TIP3    H124152   8.481   4.623   5.249 -1.0211 -1.2780  0.5133
 8071TIP3    H224153   8.428   4.713   5.358  0.1027  0.7767 -0.6016
 8072TIP3   OH224154   1.405   3.346   3.420  0.1960  0.3640  0.0279
 8072TIP3    H124155   1.456   3.426   3.411 -1.6371  1.3481 -2.4927
 8072TIP3    H224156   1.432   3.308   3.503  0.8544  3.7953  1.4504
 8073TIP3   OH224157   1.840   3.842   3.355 -0.2921 -0.4388 -0.2423
 8073TIP3    H124158   1.830   3.797   3.439  1.5817 -1.4886 -0.5497
 8073TIP3    H224159   1.807   3.780   3.291  2.4361 -1.4923 -0.6838
 8074TIP3   OH224160   7.839   4.445   6.443  0.2506  0.3163  0.5375
 8074TIP3    H124161   7.819   4.535   6.467 -0.9819  0.4340 -0.8245
 8074TIP3    H224162   7.771   4.421   6.379  1.0403 -1.2923  0.2531
 8075TIP3   OH224163   0.024   4.215   3.596  0.2671 -0.2269  0.0605
 8075TIP3    H124164  -0.067   4.233   3.573  0.4848  1.2986  0.3755
 8075TIP3    H224165   0.045   4.277   3.665  2.0553  0.5880 -1.1460
 8076TIP3   OH224166   0.399   4.894   6.268  0.1808  0.2818  0.1386
 8076TIP3    H124167   0.329   4.922   6.210 -2.4525 -0.4734  2.8396
 8076TIP3    H224168   0.406   4.964   6.333  2.9976  1.0622 -0.9022
 8077TIP3   OH224169   7.345   7.278   5.133 -0.1804  0.4730  0.1256
 8077TIP3    H124170   7.428   7.265   5.178  0.1039  1.1483 -0.2139
 8077TIP3    H224171   7.280   7.281   5.203 -0.3778 -3.4836  0.2481
 8078TIP3   OH224172   0.866   5.674   2.856  0.1191 -0.1289 -0.0758
 8078TIP3    H124173   0.810   5.751   2.864 -0.6235 -0.8992  2.3808
 8078TIP3    H224174   0.815   5.602   2.894  1.2317 -1.6291 -1.3370
 8079TIP3   OH224175   2.909   7.477   2.619 -0.4862  0.2330  0.0862
 8079TIP3    H124176   2.937   7.516   2.702  1.0167  1.8308 -1.1424
 8079TIP3    H224177   2.814   7.465   2.630 -0.8711  3.3506  0.8902
 8080TIP3   OH224178   6.729   7.113   4.709  0.4573 -0.1421  0.4640
 8080TIP3    H124179   6.700   7.057   4.637 -1.8864  1.2181  0.3179
 8080TIP3    H224180   6.708   7.064   4.788 -0.1421 -0.1374  0.3067
 8081TIP3   OH224181   0.443   4.074   6.625 -0.1925  0.1803 -0.0556
 8081TIP3    H124182   0.508   4.004   6.620 -0.4961 -0.1571  0.6150
 8081TIP3    H224183   0.495   4.154   6.624  0.1793 -0.0619 -0.4491
 8082TIP3   OH224184   2.285   4.616   4.400  0.5252  0.3609  0.3918
 8082TIP3    H124185   2.223   4.659   4.342  0.7851 -0.3450 -0.4102
 8082TIP3    H224186   2.231   4.564   4.459  0.2530  1.2036  0.9013
 8083TIP3   OH224187   0.050   3.074   6.819  0.3499  0.6340 -0.6502
 8083TIP3    H124188   0.101   3.010   6.770 -0.4245 -0.2677 -0.3127
 8083TIP3    H224189   0.112   3.144   6.839  1.7095 -0.8615  0.5655
 8084TIP3   OH224190   2.698   7.085   4.603  0.1294 -0.3182  0.0363
 8084TIP3    H124191   2.690   7.069   4.697  1.2872 -1.9421 -0.0998
 8084TIP3    H224192   2.754   7.013   4.573 -0.7511 -0.1677 -1.9921
 8085TIP3   OH224193   1.058   4.659   2.646  0.0261  0.5461  0.3265
 8085TIP3    H124194   1.109   4.658   2.727 -0.0048  0.1611  0.3449
 8085TIP3    H224195   1.123   4.642   2.577  0.0134  0.6190  0.2974
 8086TIP3   OH224196   1.080   5.604   3.873  0.1568  0.2111 -0.1407
 8086TIP3    H124197   1.131   5.548   3.932  1.3824  0.0114 -1.3557
 8086TIP3    H224198   1.075   5.688   3.919  0.0136 -0.3058  0.8035
 8087TIP3   OH224199   8.302   2.791   0.730 -0.6784 -0.2076 -0.3192
 8087TIP3    H124200   8.350   2.758   0.806 -0.4120 -0.9150 -0.7919
 8087TIP3    H224201   8.213   2.804   0.762 -0.7435 -1.2145 -0.0756
 8088TIP3   OH224202   0.849   6.506   4.495 -0.1767 -0.3231  0.4719
 8088TIP3    H124203   0.760   6.530   4.520 -0.2999 -1.3870  1.0681
 8088TIP3    H224204   0.858   6.537   4.405 -0.6616  1.0547  0.8830
 8089TIP3   OH224205   1.033   5.829   2.982  0.5706  0.1196  0.3994
 8089TIP3    H124206   1.030   5.916   2.941 -0.9533  0.9019  2.0927
 8089TIP3    H224207   0.970   5.777   2.933  1.9879 -0.2497 -1.0644
 8090TIP3   OH224208   7.326   3.694   1.706 -0.5732  0.0283  0.4565
 8090TIP3    H124209   7.355   3.622   1.650  1.7123  0.9440  0.4068
 8090TIP3    H224210   7.347   3.665   1.795 -0.8467  0.0773  0.5352
 8091TIP3   OH224211   7.973   4.883   4.450  0.2955 -0.1672 -0.3730
 8091TIP3    H124212   7.906   4.907   4.386  0.8253  0.6347 -0.6394
 8091TIP3    H224213   8.036   4.955   4.447  1.3102 -1.0301 -0.3139
 8092TIP3   OH224214   1.499   5.153   5.600 -0.0273 -0.8444  0.0865
 8092TIP3    H124215   1.585   5.187   5.575  0.0771 -1.6458 -0.6823
 8092TIP3    H224216   1.512   5.058   5.606 -1.2037 -1.1381 -1.5351
 8093TIP3   OH224217   2.029   6.142   4.913  0.7012 -0.3487  0.1410
 8093TIP3    H124218   2.046   6.124   5.005 -1.3427  1.9055  0.9982
 8093TIP3    H224219   2.001   6.233   4.910 -0.3094 -0.6811 -2.5850
 8094TIP3   OH224220   0.910   6.499   1.496 -0.3835  0.0435 -0.0104
 8094TIP3    H124221   0.839   6.563   1.488 -1.5143 -1.3215 -1.0835
 8094TIP3    H224222   0.886   6.429   1.436 -0.2525 -2.3963  2.6861
 8095TIP3   OH224223   1.891   6.645   5.417 -0.4889 -0.0220  0.2054
 8095TIP3    H124224   1.903   6.579   5.349 -0.0486 -0.6018  0.8360
 8095TIP3    H224225   1.953   6.621   5.486 -1.5618  0.0124  1.2146
 8096TIP3   OH224226   0.659   6.693   3.515  0.2756 -0.2097  0.8005
 8096TIP3    H124227   0.744   6.735   3.504  0.7976 -1.7732 -1.1989
 8096TIP3    H224228   0.650   6.682   3.610  2.6875 -0.8404  0.9810
 8097TIP3   OH224229   0.268   5.911   4.494  1.1132 -0.2658 -0.6497
 8097TIP3    H124230   0.242   5.876   4.408  1.7250  1.4968 -1.5875
 8097TIP3    H224231   0.359   5.940   4.481  0.5098  1.9941 -0.0382
 8098TIP3   OH224232   0.636   3.224   4.614  0.0962  0.2883  0.2430
 8098TIP3    H124233   0.579   3.211   4.538  0.1789  0.2109  0.1940
 8098TIP3    H224234   0.586   3.282   4.671  0.2187  0.7131 -0.0738
 8099TIP3   OH224235   2.203   0.458   4.401 -0.1067  0.2730  0.5985
 8099TIP3    H124236   2.222   0.533   4.458 -0.6206  0.4078  0.5949
 8099TIP3    H224237   2.109   0.464   4.384  0.1631  0.6502 -0.8636
 8100TIP3   OH224238   0.103   6.062   5.120  0.3259  0.1643  0.4054
 8100TIP3    H124239   0.136   6.151   5.133  0.0445  0.1429  1.2867
 8100TIP3    H224240   0.013   6.074   5.091  0.5172  0.1756 -0.2064
 8101TIP3   OH224241   4.773   0.510   6.056 -0.0501 -0.4984  0.2944
 8101TIP3    H124242   4.706   0.477   5.996 -1.0561  0.7599  0.6919
 8101TIP3    H224243   4.823   0.573   6.004  1.4468 -2.1165 -0.2746
 8102TIP3   OH224244   0.584   5.645   3.980  0.0971  0.0103  0.0748
 8102TIP3    H124245   0.570   5.621   3.888 -1.9689  0.6697  0.2004
 8102TIP3    H224246   0.553   5.569   4.029 -0.8449  0.5234  0.2828
 8103TIP3   OH224247   1.047   5.895   3.982  0.0680 -0.2578 -0.1882
 8103TIP3    H124248   1.054   5.948   3.903 -0.3186 -1.3660 -0.9669
 8103TIP3    H224249   0.953   5.884   3.995  0.1523 -0.9679 -0.1743
 8104TIP3   OH224250   1.781   7.433   3.771 -0.2951  0.2188  0.1309
 8104TIP3    H124251   1.848   7.457   3.835  0.2529  0.0575 -0.3693
 8104TIP3    H224252   1.760   7.515   3.727 -2.6459  0.8417  2.3306
 8105TIP3   OH224253   0.716   5.502   2.605 -0.0809 -0.0261 -0.0050
 8105TIP3    H124254   0.801   5.498   2.561 -0.7822  0.1769 -1.4113
 8105TIP3    H224255   0.672   5.577   2.564 -0.4391  0.6722  1.6219
 8106TIP3   OH224256   5.081  -0.003   3.904  0.0479  0.2297  0.0323
 8106TIP3    H124257   5.103  -0.062   3.976  1.2314  1.0202  0.3398
 8106TIP3    H224258   5.056   0.079   3.947 -1.4682 -0.0045 -0.3953
 8107TIP3   OH224259   0.717   6.291   2.416  0.0250 -0.6639  0.0596
 8107TIP3    H124260   0.731   6.367   2.473 -0.4616  0.0476 -0.7482
 8107TIP3    H224261   0.716   6.328   2.328  2.0532 -1.9204 -0.5269
 8108TIP3   OH224262   0.239   5.374   4.819 -0.0747  0.0290 -0.0636
 8108TIP3    H124263   0.221   5.303   4.757 -0.1466 -1.1808  1.3316
 8108TIP3    H224264   0.260   5.449   4.763 -1.8835 -0.5697 -1.5840
 8109TIP3   OH224265   4.834   0.103   6.103  0.4225 -0.0329  0.2516
 8109TIP3    H124266   4.764   0.111   6.039  0.4486  1.3557  0.3845
 8109TIP3    H224267   4.791   0.073   6.183  0.0843  0.1343  0.1316
 8110TIP3   OH224268   8.152   5.997   4.757  0.4159  0.2108 -0.5603
 8110TIP3    H124269   8.117   5.966   4.840  0.5588 -1.1035 -0.9752
 8110TIP3    H224270   8.103   5.948   4.691 -0.7873  2.3503 -1.3144
 8111TIP3   OH224271   8.374   5.950   4.551  0.1158  0.4647 -0.5765
 8111TIP3    H124272   8.312   5.981   4.617  1.8336  0.1354  1.2239
 8111TIP3    H224273   8.410   5.869   4.587  2.3011  1.1472 -1.1523
 8112TIP3   OH224274   0.934   6.713   3.471 -0.0872 -0.3473 -0.7479
 8112TIP3    H124275   1.021   6.678   3.453 -0.0151  0.1789 -1.4693
 8112TIP3    H224276   0.929   6.791   3.416 -0.3381  0.6229  0.6176
 8113TIP3   OH224277   8.280   5.280   5.208  0.5859 -0.5059 -0.0872
 8113TIP3    H124278   8.278   5.196   5.253  1.0991 -0.8174 -0.6394
 8113TIP3    H224279   8.290   5.258   5.115 -0.7502  0.1147 -0.3916
 8114TIP3   OH224280   0.533   7.345   5.198 -0.1192 -0.6534  0.4366
 8114TIP3    H124281   0.545   7.368   5.290  0.1375 -2.1472  0.7983
 8114TIP3    H224282   0.527   7.428   5.152  1.5236  0.1158  1.5800
 8115TIP3   OH224283   2.539   6.159   6.925 -0.1227 -0.0274  0.8376
 8115TIP3    H124284   2.586   6.078   6.904  0.1476  0.6058 -1.1360
 8115TIP3    H224285   2.607   6.219   6.956  0.6696  1.2149 -2.9477
 8116TIP3   OH224286   7.982   4.811   4.915  0.3257  0.9088  0.7178
 8116TIP3    H124287   8.026   4.874   4.972  0.9717 -1.1359  2.5746
 8116TIP3    H224288   8.038   4.733   4.919 -2.0705 -0.8506  1.0368
 8117TIP3   OH224289   7.971   3.018   5.227 -0.1335 -0.3990  0.8834
 8117TIP3    H124290   8.035   3.006   5.298 -0.7967 -1.7133  1.2942
 8117TIP3    H224291   7.886   3.008   5.271 -0.5845  0.3196  0.1682
 8118TIP3   OH224292   0.518   5.694   5.163  0.1741 -0.6401 -0.1780
 8118TIP3    H124293   0.591   5.691   5.101 -0.3421  0.7506 -0.8867
 8118TIP3    H224294   0.533   5.620   5.222  2.3563 -0.1487 -0.0721
 8119TIP3   OH224295   2.500   5.769   4.132 -0.0336 -0.4043 -0.1801
 8119TIP3    H124296   2.575   5.765   4.072 -0.5964  0.0826 -0.9240
 8119TIP3    H224297   2.427   5.736   4.080 -0.4714 -0.2504  0.3412
 8120TIP3   OH224298   8.398   5.223   5.906  0.3696 -0.5919 -0.1365
 8120TIP3    H124299   8.313   5.256   5.878  0.7181  0.2964 -0.1745
 8120TIP3    H224300   8.380   5.138   5.945 -0.7083  0.1760  1.0589
 8121TIP3   OH224301   0.352   6.834   4.326 -0.0166 -0.4703  0.0330
 8121TIP3    H124302   0.272   6.881   4.349 -0.7491 -1.0374 -1.2832
 8121TIP3    H224303   0.344   6.818   4.232  1.1137 -1.5213  0.0998
 8122TIP3   OH224304   1.853   5.381   4.711  0.6482 -0.2978 -0.0465
 8122TIP3    H124305   1.864   5.376   4.616  1.2653  0.1677 -0.0020
 8122TIP3    H224306   1.826   5.292   4.736 -1.9261  0.2055 -0.9478
 8123TIP3   OH224307   0.129   4.169   0.265 -0.6434 -0.0110  0.5358
 8123TIP3    H124308   0.058   4.219   0.305 -0.8971  0.3673 -0.3750
 8123TIP3    H224309   0.084   4.099   0.217 -0.6273  2.0822 -2.6926
 8124TIP3   OH224310   1.545   7.763   3.344 -0.9546  0.8820  0.6355
 8124TIP3    H124311   1.552   7.772   3.249 -1.7140  1.5126  0.6366
 8124TIP3    H224312   1.569   7.672   3.360  0.2767  1.0697 -0.0405
 8125TIP3   OH224313   1.140   4.945   4.802 -0.3508 -0.2686  0.0480
 8125TIP3    H124314   1.175   4.915   4.886 -1.5235  0.5936  0.8548
 8125TIP3    H224315   1.073   4.880   4.781  0.6697 -1.0717 -0.7463
 8126TIP3   OH224316   1.486   6.040   5.041  0.1631  0.4885 -0.1389
 8126TIP3    H124317   1.431   6.101   5.091 -0.9171 -1.2896  0.8881
 8126TIP3    H224318   1.509   6.088   4.961 -1.2914  1.9568  0.3038
 8127TIP3   OH224319   1.723   4.070   3.173 -0.1305  0.1910  0.1550
 8127TIP3    H124320   1.645   4.079   3.120 -0.8384 -1.2520  0.9175
 8127TIP3    H224321   1.731   3.975   3.189  1.0246  0.4387  1.1700
 8128TIP3   OH224322   3.800   0.035   4.087  0.1886  0.3280 -0.4314
 8128TIP3    H124323   3.711   0.005   4.107 -0.7403  1.9094 -2.0297
 8128TIP3    H224324   3.801   0.127   4.114  1.0960  0.5214 -1.0995
 8129TIP3   OH224325   1.807   4.640   3.162 -0.4533 -0.8060 -0.0925
 8129TIP3    H124326   1.887   4.647   3.110 -2.1485 -1.3020 -2.8765
 8129TIP3    H224327   1.758   4.720   3.142 -0.3320 -0.1189  2.2274
 8130TIP3   OH224328   7.641   7.460   4.775 -1.0846 -0.1151 -0.6885
 8130TIP3    H124329   7.612   7.374   4.746 -0.2220 -0.5413 -0.3201
 8130TIP3    H224330   7.574   7.489   4.837 -0.0101 -1.7499  1.3345
 8131TIP3   OH224331   2.593   2.326   5.090 -0.4298 -0.0646 -0.0767
 8131TIP3    H124332   2.546   2.244   5.078 -2.0997  1.0000 -1.1119
 8131TIP3    H224333   2.669   2.320   5.032 -0.6099 -0.8157 -0.2308
 8132TIP3   OH224334   0.761   5.308   3.867 -0.3806  0.0952 -0.4754
 8132TIP3    H124335   0.766   5.388   3.816 -0.2406  0.4105  0.0254
 8132TIP3    H224336   0.846   5.266   3.856  1.0809  2.0475  2.5250
 8133TIP3   OH224337   2.085   6.608   4.307  0.4122  0.0446  0.4095
 8133TIP3    H124338   2.032   6.552   4.364 -0.0980 -2.0407 -2.0357
 8133TIP3    H224339   2.154   6.642   4.364 -0.7797 -0.9959  2.5378
 8134TIP3   OH224340   2.503   5.262   2.354 -0.2598 -0.4588 -0.3490
 8134TIP3    H124341   2.571   5.293   2.413 -1.5895  1.8313  0.0257
 8134TIP3    H224342   2.421   5.279   2.400 -1.1740 -2.1073 -1.2850
 8135TIP3   OH224343   0.323   2.865   4.605 -0.4243  0.0737  0.2376
 8135TIP3    H124344   0.309   2.958   4.587 -0.0387  0.3558  1.3284
 8135TIP3    H224345   0.242   2.837   4.648 -0.1983  0.1186  0.6920
 8136TIP3   OH224346   1.259   5.141   5.122  0.1873  0.0612  0.0593
 8136TIP3    H124347   1.321   5.125   5.194 -1.3419  1.1648  1.6884
 8136TIP3    H224348   1.234   5.054   5.091  1.0920 -0.4221  0.6900
 8137TIP3   OH224349   1.440   3.852   4.628 -0.7097  0.0345  0.2867
 8137TIP3    H124350   1.391   3.803   4.562 -1.5131  0.7622  0.3256
 8137TIP3    H224351   1.404   3.941   4.623  0.3433  0.4859  0.5898
 8138TIP3   OH224352   1.995   6.531   5.660  0.1843  0.0330 -0.8527
 8138TIP3    H124353   2.084   6.501   5.637 -0.0197 -0.2443 -1.2924
 8138TIP3    H224354   1.954   6.454   5.700  0.0021  0.0333 -1.0406
 8139TIP3   OH224355   1.432   5.744   6.896 -0.0371 -0.2698  0.9851
 8139TIP3    H124356   1.493   5.815   6.880 -0.4248 -0.3007 -0.7462
 8139TIP3    H224357   1.354   5.786   6.932  0.5899 -0.1065  2.1624
 8140TIP3   OH224358   1.141   5.600   2.773 -0.1668 -0.3175 -0.5591
 8140TIP3    H124359   1.080   5.673   2.775  0.2936  0.0322  1.4913
 8140TIP3    H224360   1.105   5.536   2.835  0.2959 -1.1179 -1.1075
 8141TIP3   OH224361   2.207   6.501   3.808  0.4849 -0.2641 -0.3186
 8141TIP3    H124362   2.199   6.442   3.882  1.1962  0.0965  0.0628
 8141TIP3    H224363   2.205   6.445   3.731  1.6310 -0.8473  0.0560
 8142TIP3   OH224364   0.109   6.028   4.125 -0.3155 -0.2602 -0.2035
 8142TIP3    H124365   0.034   6.086   4.111 -1.0858 -0.4309  2.7354
 8142TIP3    H224366   0.180   6.086   4.152  0.8475 -0.0356 -3.5444
 8143TIP3   OH224367   1.462   5.402   4.279 -0.1103  0.0399 -0.3652
 8143TIP3    H124368   1.376   5.375   4.246  1.8298 -1.9409 -4.0912
 8143TIP3    H224369   1.495   5.462   4.213  1.5951  0.3775  0.7819
 8144TIP3   OH224370   1.715   5.044   4.523 -0.1402  0.0434  0.0548
 8144TIP3    H124371   1.789   5.014   4.469 -1.5430 -3.2182 -0.1902
 8144TIP3    H224372   1.752   5.048   4.612  0.9934  1.0442 -0.4371
 8145TIP3   OH224373   8.035   6.130   5.694  0.3311 -0.0857  0.4367
 8145TIP3    H124374   8.057   6.044   5.730 -1.4429 -0.4733  0.6715
 8145TIP3    H224375   7.972   6.111   5.624  1.1637  0.9155 -0.5928
 8146TIP3   OH224376   8.200   5.364   5.789  0.6865  0.4727  0.4131
 8146TIP3    H124377   8.226   5.379   5.699 -0.4454 -2.1534 -0.4149
 8146TIP3    H224378   8.131   5.428   5.805  1.7476  1.7734 -0.1713
 8147TIP3   OH224379   0.794   3.454   2.522  0.5337  0.3599  0.1691
 8147TIP3    H124380   0.843   3.374   2.537 -0.0564  0.0053  0.2260
 8147TIP3    H224381   0.772   3.452   2.429  1.3309  0.9200 -0.0306
 8148TIP3   OH224382   1.770   5.898   3.054  0.2521 -0.9416 -0.2880
 8148TIP3    H124383   1.837   5.830   3.051  0.4023 -0.8099  0.1893
 8148TIP3    H224384   1.687   5.849   3.050  0.3718 -0.9894 -3.3567
 8149TIP3   OH224385   1.035   4.492   5.176 -0.4629  0.2442  0.2799
 8149TIP3    H124386   1.013   4.473   5.267  0.0252  1.9296  0.7674
 8149TIP3    H224387   0.983   4.570   5.155  1.0294  1.1258 -0.2122
 8150TIP3   OH224388   8.512   4.922   5.081  0.4637 -0.4392 -0.4741
 8150TIP3    H124389   8.453   4.910   5.006 -0.7413  4.9071 -0.6017
 8150TIP3    H224390   8.461   4.894   5.157 -0.1171 -1.2615 -1.1623
 8151TIP3   OH224391   0.602   4.086   5.458 -0.1722 -0.1267 -0.0102
 8151TIP3    H124392   0.574   4.151   5.523  1.0666 -0.3906  0.7981
 8151TIP3    H224393   0.667   4.132   5.405 -0.9252 -0.0227 -0.8727
 8152TIP3   OH224394   0.597   7.220   1.289  0.1947  0.1532 -0.6635
 8152TIP3    H124395   0.572   7.183   1.204  0.0544 -1.2269 -0.0233
 8152TIP3    H224396   0.533   7.291   1.303 -0.1716 -0.0159 -1.4114
 8153TIP3   OH224397   0.867   4.874   5.361 -0.6565  0.5890 -0.1003
 8153TIP3    H124398   0.778   4.887   5.394 -0.0652 -1.9911  2.7937
 8153TIP3    H224399   0.923   4.912   5.429  0.5472 -2.6676  0.8057
 8154TIP3   OH224400   8.306   7.014   5.028  0.2748  0.0282  0.0311
 8154TIP3    H124401   8.307   6.918   5.031  0.0791  0.0532  1.0575
 8154TIP3    H224402   8.393   7.039   5.058 -0.2257  0.2073  1.3337
 8155TIP3   OH224403   1.601   3.545   3.738  0.3640  0.2709  0.0680
 8155TIP3    H124404   1.581   3.566   3.829  1.2063 -2.5400  0.9403
 8155TIP3    H224405   1.520   3.562   3.690 -0.9025 -0.8674  1.7896
 8156TIP3   OH224406   3.688   5.443   4.497  0.3197  0.8010 -0.4256
 8156TIP3    H124407   3.678   5.438   4.402 -0.2671  0.3164 -0.3344
 8156TIP3    H224408   3.763   5.387   4.516  0.4548  0.9200 -0.6036
 8157TIP3   OH224409   1.347   6.717   5.115  0.5189  0.4439 -0.3470
 8157TIP3    H124410   1.375   6.708   5.206 -1.3070  0.2198  0.2079
 8157TIP3    H224411   1.271   6.776   5.118 -0.3116 -0.5240 -1.5734
 8158TIP3   OH224412   3.674   6.267   4.767 -0.3497  0.2664  0.6170
 8158TIP3    H124413   3.663   6.294   4.858 -0.5273 -2.6361  1.5367
 8158TIP3    H224414   3.738   6.195   4.772 -0.4671 -0.0127 -1.5418
 8159TIP3   OH224415   2.277   4.584   5.886 -0.2137 -0.0638  0.0179
 8159TIP3    H124416   2.290   4.491   5.870  0.1502 -0.0445  0.1829
 8159TIP3    H224417   2.235   4.617   5.807 -3.0646 -0.9295  1.1242
 8160TIP3   OH224418   1.773   3.808   6.362  0.1026  0.2273  0.4071
 8160TIP3    H124419   1.841   3.818   6.296 -0.7714  1.2483 -0.3537
 8160TIP3    H224420   1.762   3.713   6.371 -0.0129  0.0778 -1.1679
 8161TIP3   OH224421   0.744   5.706   4.978  0.5358  0.2415  0.5478
 8161TIP3    H124422   0.779   5.780   5.028  0.7456 -0.6840  1.8025
 8161TIP3    H224423   0.810   5.636   4.990 -0.6903 -0.8315  1.1817
 8162TIP3   OH224424   1.273   6.186   4.857  0.4092  0.3031 -0.2916
 8162TIP3    H124425   1.362   6.177   4.823  0.3084 -0.1214 -0.4363
 8162TIP3    H224426   1.216   6.155   4.786  0.1551  0.3559 -0.1123
 8163TIP3   OH224427   4.133   0.197   3.963  0.6326  0.1090  0.5221
 8163TIP3    H124428   4.175   0.150   4.034  0.0746 -2.1996 -0.6347
 8163TIP3    H224429   4.096   0.129   3.907  0.8216  1.8732 -1.8339
 8164TIP3   OH224430   1.519   2.924   3.567  0.5293 -0.3565  0.4649
 8164TIP3    H124431   1.578   2.981   3.616  1.2672 -1.1257  0.4737
 8164TIP3    H224432   1.492   2.977   3.492  1.4736 -0.1098  0.2951
 8165TIP3   OH224433   2.999   6.045   4.967 -0.1004  0.4518 -0.4555
 8165TIP3    H124434   3.086   6.057   4.928  0.5319  1.0312  1.0899
 8165TIP3    H224435   3.016   6.028   5.059 -1.6690  1.7895  0.1132
 8166TIP3   OH224436   2.198   3.158   5.511  0.1887  0.0894 -0.0676
 8166TIP3    H124437   2.270   3.204   5.467 -0.0518 -0.5530 -1.1421
 8166TIP3    H224438   2.172   3.089   5.450 -0.9688 -0.0428  0.5563
 8167TIP3   OH224439   2.185   4.625   3.516  0.7449 -0.1597  0.4711
 8167TIP3    H124440   2.100   4.595   3.482  0.9715 -0.0229 -0.2193
 8167TIP3    H224441   2.247   4.559   3.488  1.2782  1.0182 -1.2168
 8168TIP3   OH224442   1.006   6.652   6.745 -0.1974 -0.2582  0.7006
 8168TIP3    H124443   0.941   6.664   6.676 -0.8677 -0.2062  1.3412
 8168TIP3    H224444   1.042   6.565   6.729  0.3720  0.1554 -0.3228
 8169TIP3   OH224445   2.589   5.212   3.201  0.1567 -0.3045  0.6965
 8169TIP3    H124446   2.633   5.151   3.141  2.0953  2.0498 -0.3564
 8169TIP3    H224447   2.660   5.256   3.246 -1.1697  2.0237  0.5826
 8170TIP3   OH224448   2.302   4.482   4.883  0.1883 -0.3332 -0.1348
 8170TIP3    H124449   2.356   4.523   4.951 -0.8314 -0.4574  0.7808
 8170TIP3    H224450   2.351   4.404   4.857  1.7284  0.9841 -1.2698
 8171TIP3   OH224451   1.372   6.962   5.337  0.4655  0.1937  0.3556
 8171TIP3    H124452   1.464   6.981   5.316  0.3568 -1.3850 -1.7280
 8171TIP3    H224453   1.374   6.876   5.378 -0.1395 -0.0356 -0.1010
 8172TIP3   OH224454   2.024   3.352   2.345 -0.1034  0.1241 -0.2072
 8172TIP3    H124455   2.084   3.305   2.403 -1.9020 -1.7509  0.2119
 8172TIP3    H224456   2.026   3.304   2.263  1.7786  2.2731 -1.4844
 8173TIP3   OH224457   2.700   4.056   6.010  0.0431  0.1248 -0.0623
 8173TIP3    H124458   2.773   3.995   6.000 -0.6344 -0.6380 -0.4277
 8173TIP3    H224459   2.699   4.106   5.928 -0.6828 -0.8030 -0.6343
 8174TIP3   OH224460   3.425   6.782   3.989  0.7284 -0.1497 -0.2467
 8174TIP3    H124461   3.331   6.779   4.007  0.8338 -1.9610  0.1209
 8174TIP3    H224462   3.461   6.838   4.057 -0.3081  2.0619 -1.4627
 8175TIP3   OH224463   0.934   6.258   4.425 -0.3025  0.1100  0.1888
 8175TIP3    H124464   0.906   6.340   4.465  2.6195  0.3677  1.9012
 8175TIP3    H224465   1.025   6.274   4.399  0.2646 -2.5048  0.3553
 8176TIP3   OH224466   4.064   7.854   3.408 -0.4648  0.1602 -0.4424
 8176TIP3    H124467   4.055   7.766   3.444  1.0736  0.0388 -0.3065
 8176TIP3    H224468   4.148   7.852   3.362 -0.4602  1.5346 -0.5087
 8177TIP3   OH224469   2.466   6.282   5.430 -0.1313 -0.0193  0.4169
 8177TIP3    H124470   2.537   6.257   5.489  1.0289  0.4561 -0.7607
 8177TIP3    H224471   2.507   6.340   5.366 -1.6880  0.6596  0.0111
 8178TIP3   OH224472   1.377   4.114   4.005  0.5489 -0.2300 -0.2080
 8178TIP3    H124473   1.447   4.057   3.973  0.2379 -0.6017 -0.2262
 8178TIP3    H224474   1.395   4.199   3.964  2.1040  0.1960  1.3069
 8179TIP3   OH224475   2.091   4.491   4.519  0.9384  0.9521 -0.4644
 8179TIP3    H124476   2.064   4.417   4.464  0.9307 -1.1420  2.2247
 8179TIP3    H224477   2.011   4.538   4.538  0.4056 -0.3172  0.5247
 8180TIP3   OH224478   3.106   4.681   5.121  0.0195  0.0204 -0.0491
 8180TIP3    H124479   3.074   4.596   5.091  2.8218 -2.2513  2.9975
 8180TIP3    H224480   3.082   4.684   5.214 -0.4500  2.8235 -0.1961
 8181TIP3   OH224481   3.225   6.351   3.194 -0.7756 -0.1894 -0.0365
 8181TIP3    H124482   3.135   6.366   3.224 -0.4022 -0.6087  1.3386
 8181TIP3    H224483   3.215   6.287   3.123 -1.5714 -0.1183 -0.0007
 8182TIP3   OH224484   2.745   6.420   5.132 -0.4422 -0.0580 -0.3782
 8182TIP3    H124485   2.804   6.366   5.184 -0.5890 -0.0645 -0.2184
 8182TIP3    H224486   2.699   6.358   5.076 -0.3176 -0.0557 -0.4827
 8183TIP3   OH224487   2.917   7.298   4.027 -0.2498  0.1566  0.4022
 8183TIP3    H124488   2.868   7.364   3.978  0.6921 -0.2346 -1.1173
 8183TIP3    H224489   3.007   7.308   3.997  0.2589 -0.4528  1.6958
 8184TIP3   OH224490   7.145   4.461   5.175  0.6037 -0.3401 -0.0204
 8184TIP3    H124491   7.062   4.419   5.152  0.6084  0.3600 -1.3549
 8184TIP3    H224492   7.207   4.389   5.185 -0.4623 -0.9734  2.3332
 8185TIP3   OH224493   2.664   5.851   3.566 -0.4304  0.0062 -0.6301
 8185TIP3    H124494   2.722   5.835   3.492 -1.5708 -0.2955 -1.4672
 8185TIP3    H224495   2.599   5.781   3.562 -0.2494 -0.2696  0.9238
 8186TIP3   OH224496   2.385   4.864   3.307  0.0209 -0.3399  0.7468
 8186TIP3    H124497   2.438   4.804   3.256 -0.6006 -0.9452  0.8059
 8186TIP3    H224498   2.443   4.895   3.377  0.9684  0.7514 -0.5152
 8187TIP3   OH224499   3.118   6.124   3.422  0.0339 -0.0848  0.0140
 8187TIP3    H124500   3.065   6.153   3.497  0.0889  0.2872 -0.0902
 8187TIP3    H224501   3.198   6.175   3.428 -0.0667  0.1292 -0.4438
 8188TIP3   OH224502   2.019   7.487   5.881  0.4005  0.4780 -0.4136
 8188TIP3    H124503   2.084   7.506   5.812 -1.5416  3.2870 -1.5415
 8188TIP3    H224504   1.947   7.444   5.835 -0.4424  1.3905  0.0316
 8189TIP3   OH224505   1.146   5.926   3.396  0.6729 -0.0343  0.0243
 8189TIP3    H124506   1.159   6.019   3.412 -1.8683  0.8613 -2.8170
 8189TIP3    H224507   1.080   5.899   3.461  0.9606  0.2544  0.4396
 8190TIP3   OH224508   1.891   7.894   5.928 -0.6071  0.4423 -0.4521
 8190TIP3    H124509   1.902   7.815   5.980 -0.5681 -0.9958 -2.5719
 8190TIP3    H224510   1.979   7.914   5.895 -0.4621  1.8871  0.7962
 8191TIP3   OH224511   2.693   5.368   4.683  0.0245 -0.1412 -0.0807
 8191TIP3    H124512   2.648   5.321   4.612 -0.5113  1.3624 -0.7458
 8191TIP3    H224513   2.738   5.299   4.732 -0.8663 -1.3731 -0.9627
 8192TIP3   OH224514   2.956   6.946   4.770 -0.1625  0.0143  0.0537
 8192TIP3    H124515   3.047   6.918   4.771 -0.5084 -1.1366  0.9126
 8192TIP3    H224516   2.906   6.864   4.761 -1.1371  0.5328  0.6655
 8193TIP3   OH224517   8.315   4.333   0.444  0.1960  0.2072 -0.3596
 8193TIP3    H124518   8.385   4.353   0.506 -1.1912  1.8164  0.7525
 8193TIP3    H224519   8.357   4.330   0.359  1.8896 -0.5338  0.4800
 8194TIP3   OH224520   3.559   5.718   4.254  0.3814 -0.3028  0.4336
 8194TIP3    H124521   3.646   5.760   4.255  0.5265 -0.5741  2.3802
 8194TIP3    H224522   3.578   5.625   4.244  0.1162 -0.0534 -2.7021
 8195TIP3   OH224523   1.806   6.278   4.323 -0.2180 -0.2569 -0.8415
 8195TIP3    H124524   1.830   6.188   4.299 -0.0067  0.0287 -1.7094
 8195TIP3    H224525   1.812   6.327   4.241  0.6183  0.7579 -0.1797
 8196TIP3   OH224526   1.400   5.501   3.702 -0.6181 -0.1347  0.4870
 8196TIP3    H124527   1.351   5.469   3.778 -0.7239  2.0958  1.4142
 8196TIP3    H224528   1.333   5.527   3.639 -0.5360 -1.6446 -0.2254
 8197TIP3   OH224529   0.904   5.241   4.249 -0.0934 -0.3201 -0.0204
 8197TIP3    H124530   0.912   5.146   4.240  0.0548 -0.3760  0.6992
 8197TIP3    H224531   0.812   5.259   4.231 -0.1440 -0.6113 -0.0542
 8198TIP3   OH224532   2.441   5.000   2.319 -0.4086  0.1801  0.1440
 8198TIP3    H124533   2.452   5.091   2.347  2.0070 -0.0295  0.0541
 8198TIP3    H224534   2.517   4.955   2.356 -0.9684 -1.5477 -0.7838
 8199TIP3   OH224535   8.117   4.982   5.120 -0.4967  0.2849  0.8594
 8199TIP3    H124536   8.196   4.985   5.175 -0.2653 -2.1308  0.7221
 8199TIP3    H224537   8.128   5.054   5.058  2.4964 -1.0755 -0.3045
 8200TIP3   OH224538   1.156   6.098   1.073 -0.1443  0.7081 -0.4785
 8200TIP3    H124539   1.198   6.125   0.991  0.0059  1.5851 -0.1201
 8200TIP3    H224540   1.126   6.180   1.113  0.9690  0.4131  0.9942
 8201TIP3   OH224541   2.277   5.883   5.587  0.3101  0.0793  0.5608
 8201TIP3    H124542   2.367   5.853   5.596  1.2482  2.7458  0.6297
 8201TIP3    H224543   2.285   5.967   5.542 -2.2916 -0.4908 -1.0711
 8202TIP3   OH224544   1.188   6.169   4.092  0.3085 -0.4173 -0.0305
 8202TIP3    H124545   1.176   6.108   4.019 -1.0527  0.0648 -0.2190
 8202TIP3    H224546   1.100   6.183   4.127  0.7612  0.5009  0.7796
 8203TIP3   OH224547   3.250   5.389   3.910  0.2924  0.1672 -0.4139
 8203TIP3    H124548   3.215   5.314   3.957  0.5508  0.4011  0.1513
 8203TIP3    H224549   3.207   5.386   3.824  2.8195 -2.5896 -1.6620
 8204TIP3   OH224550   2.381   5.422   6.280  0.0315  0.9897 -0.1024
 8204TIP3    H124551   2.448   5.451   6.341  2.2990  0.1839 -2.1004
 8204TIP3    H224552   2.379   5.491   6.213 -2.8874  2.1920  1.1681
 8205TIP3   OH224553   4.919   2.585   3.215 -0.2513 -0.2304 -0.6566
 8205TIP3    H124554   4.993   2.632   3.253 -0.8910  1.1337 -1.0752
 8205TIP3    H224555   4.925   2.602   3.121  0.0236 -1.7363 -0.9293
 8206TIP3   OH224556   6.407   0.443   4.401  0.3177 -0.4201 -0.2760
 8206TIP3    H124557   6.412   0.415   4.492 -0.3396  0.2849 -0.0193
 8206TIP3    H224558   6.361   0.527   4.404  1.9675  0.5363 -1.0630
 8207TIP3   OH224559   4.786   0.886   3.745 -1.1610  0.0638 -0.2782
 8207TIP3    H124560   4.827   0.800   3.748  0.7574  1.0117  1.5472
 8207TIP3    H224561   4.849   0.941   3.699 -0.5179  1.4226  2.1355
 8208TIP3   OH224562   1.663   7.998   1.976 -0.0272 -0.1788 -0.1976
 8208TIP3    H124563   1.590   7.950   1.937 -0.4006  0.0454  0.2282
 8208TIP3    H224564   1.632   8.088   1.984 -0.2096 -0.3549  1.2449
 8209TIP3   OH224565   2.615   3.839   4.300  0.1778 -0.2530  0.1380
 8209TIP3    H124566   2.608   3.842   4.205 -0.1142  1.2760  0.1871
 8209TIP3    H224567   2.692   3.893   4.320 -0.1889  0.0225  0.8090
 8210TIP3   OH224568   2.852   5.816   5.202  0.6266  0.2872  0.6306
 8210TIP3    H124569   2.915   5.799   5.272 -0.8832  0.6739  2.1141
 8210TIP3    H224570   2.785   5.871   5.243 -0.6010  0.0125 -0.9648
 8211TIP3   OH224571   2.010   4.314   5.434 -0.0456  0.1574  0.0056
 8211TIP3    H124572   1.929   4.364   5.419 -0.9745 -1.0572  0.9311
 8211TIP3    H224573   2.077   4.381   5.447 -0.9907  1.1765 -0.2792
 8212TIP3   OH224574   8.108   2.217   1.237  0.4198  0.1009  1.4667
 8212TIP3    H124575   8.176   2.274   1.201  1.0008 -0.5040  1.5853
 8212TIP3    H224576   8.154   2.161   1.299 -0.1765 -0.3725  1.4869
 8213TIP3   OH224577   2.676   4.848   4.391  0.2117  0.0800  0.6377
 8213TIP3    H124578   2.620   4.883   4.460 -0.3195  0.4722  0.0107
 8213TIP3    H224579   2.615   4.815   4.325  0.7132 -0.7189  0.5600
 8214TIP3   OH224580   1.585   4.643   4.289  0.0492  0.0468  0.2306
 8214TIP3    H124581   1.531   4.566   4.302 -1.1517  0.7770 -0.3138
 8214TIP3    H224582   1.563   4.701   4.362  2.1409 -0.7716  1.5453
 8215TIP3   OH224583   0.835   2.123   3.325 -0.1032 -0.1729  0.5642
 8215TIP3    H124584   0.864   2.197   3.272 -3.2867  1.0063  0.3178
 8215TIP3    H224585   0.871   2.140   3.412  2.0015 -0.1453 -0.2903
 8216TIP3   OH224586   0.555   5.405   6.420 -0.3074  0.0958 -0.0014
 8216TIP3    H124587   0.641   5.442   6.439 -0.3456 -0.6600  1.7294
 8216TIP3    H224588   0.537   5.346   6.493 -1.3054 -1.4906 -1.4668
 8217TIP3   OH224589   1.315   4.837   4.292  0.8223  0.2259  0.4885
 8217TIP3    H124590   1.286   4.897   4.361  0.7173 -0.2559  0.8656
 8217TIP3    H224591   1.383   4.784   4.334  1.6952  0.8163 -0.1564
 8218TIP3   OH224592   1.791   4.344   4.015 -0.3600  0.0332 -0.1180
 8218TIP3    H124593   1.873   4.373   4.055 -0.3769  0.2326 -0.2266
 8218TIP3    H224594   1.791   4.249   4.025  0.2913 -0.0519 -0.9003
 8219TIP3   OH224595   2.756   6.934   5.430  0.3986  0.3206 -0.3302
 8219TIP3    H124596   2.671   6.893   5.445 -0.7232  2.9719  0.7848
 8219TIP3    H224597   2.747   6.978   5.346  0.9050  0.0849 -0.5136
 8220TIP3   OH224598   3.106   3.085   5.270 -0.2681 -0.0670  0.2508
 8220TIP3    H124599   3.080   3.171   5.304 -0.1375  0.8335 -1.8353
 8220TIP3    H224600   3.201   3.086   5.271 -0.2187  0.9572 -2.4492
 8221TIP3   OH224601   0.920   4.244   4.082  0.6979  0.0975 -0.1120
 8221TIP3    H124602   0.914   4.338   4.062  0.9606  0.4161  1.2826
 8221TIP3    H224603   1.004   4.217   4.045  0.2657  0.2302 -1.2118
 8222TIP3   OH224604   1.902   7.646   3.490  0.4703 -0.0341  0.4855
 8222TIP3    H124605   1.911   7.554   3.466 -2.5287 -0.4318  0.7578
 8222TIP3    H224606   1.822   7.651   3.542  1.5341  2.4513  2.0360
 8223TIP3   OH224607   1.156   5.346   4.225 -0.0693 -0.2875 -0.2955
 8223TIP3    H124608   1.061   5.334   4.220 -0.3505  2.0720 -1.4632
 8223TIP3    H224609   1.174   5.364   4.317 -1.2263  2.5891 -0.5903
 8224TIP3   OH224610   0.098   6.876   3.449  0.3451 -0.3793  0.5588
 8224TIP3    H124611   0.140   6.931   3.515  2.3206 -1.9507  0.6723
 8224TIP3    H224612   0.061   6.803   3.499 -1.2569  0.2428  0.2924
 8225TIP3   OH224613   2.515   5.350   5.582  0.3308  0.3555 -0.3589
 8225TIP3    H124614   2.573   5.307   5.519 -0.7293  0.2029 -1.2403
 8225TIP3    H224615   2.529   5.303   5.664  0.5298 -0.4861 -0.8745
 8226TIP3   OH224616   4.070   5.294   5.062  0.7445  0.3256  0.1342
 8226TIP3    H124617   3.988   5.254   5.032 -0.1600  2.1910  0.0850
 8226TIP3    H224618   4.047   5.336   5.145  1.8891  0.0507  0.5966
 8227TIP3   OH224619   1.907   3.598   3.135 -0.3760  0.2351  0.5659
 8227TIP3    H124620   1.837   3.654   3.099 -1.0025  1.3778  3.4772
 8227TIP3    H224621   1.986   3.628   3.090 -1.5328 -0.3063 -1.9444
 8228TIP3   OH224622   0.575   6.320   4.049  0.5216  0.2736  0.1580
 8228TIP3    H124623   0.582   6.303   4.143 -3.7776  1.1734  0.7259
 8228TIP3    H224624   0.629   6.397   4.035 -0.8381  1.6982  2.4205
 8229TIP3   OH224625   8.135   3.715   6.594  0.2398  0.2881  0.4611
 8229TIP3    H124626   8.074   3.658   6.641  0.4210  0.0675  0.4288
 8229TIP3    H224627   8.089   3.740   6.515  0.3188 -0.1476  0.2756
 8230TIP3   OH224628   0.722   6.402   5.318  0.5852  0.5556 -0.5454
 8230TIP3    H124629   0.711   6.326   5.375  1.0751  1.3144  0.5681
 8230TIP3    H224630   0.640   6.406   5.268 -0.1601  0.3248  0.6363
 8231TIP3   OH224631   1.148   3.387   2.504  0.3115 -0.3114  0.4394
 8231TIP3    H124632   1.106   3.421   2.583  0.4903 -1.0202  0.8385
 8231TIP3    H224633   1.122   3.295   2.500  1.5036 -0.6560  0.4692
 8232TIP3   OH224634   0.993   4.815   6.174  0.3252  0.3206  0.1680
 8232TIP3    H124635   0.947   4.734   6.199 -0.1139  0.1468 -1.1762
 8232TIP3    H224636   1.029   4.797   6.088  1.5199  1.0495  0.5068
 8233TIP3   OH224637   2.817   6.336   1.733 -0.2998 -0.5025  0.3956
 8233TIP3    H124638   2.799   6.287   1.654  0.9799 -0.3047 -0.0348
 8233TIP3    H224639   2.764   6.294   1.801 -0.4148 -1.4774 -0.2938
 8234TIP3   OH224640   0.722   4.995   3.406 -0.1302 -0.1674 -0.4483
 8234TIP3    H124641   0.806   5.039   3.392 -0.8853  1.0264 -1.3254
 8234TIP3    H224642   0.699   5.016   3.496  0.4966 -0.4779 -0.2118
 8235TIP3   OH224643   1.108   2.019   2.840 -0.1560  0.2016  0.1477
 8235TIP3    H124644   1.155   2.000   2.921  0.0726 -0.3182 -0.1032
 8235TIP3    H224645   1.109   2.115   2.834  1.3071  0.1914 -0.1081
 8236TIP3   OH224646   0.202   5.194   4.006  0.1318 -0.2170 -0.5172
 8236TIP3    H124647   0.139   5.123   4.019 -0.1832 -0.0775 -1.2254
 8236TIP3    H224648   0.280   5.151   3.972 -0.1904 -0.1816 -1.3086
 8237TIP3   OH224649   2.236   4.707   5.653 -0.1529  0.3434 -0.6951
 8237TIP3    H124650   2.202   4.783   5.605  0.9431  0.0973 -1.9035
 8237TIP3    H224651   2.330   4.724   5.660 -0.0087 -0.5749 -0.3542
 8238TIP3   OH224652   1.943   6.435   4.142 -0.2324 -0.7577 -0.3222
 8238TIP3    H124653   1.969   6.491   4.216 -2.9249 -1.4348  1.2385
 8238TIP3    H224654   2.022   6.425   4.090  1.2700  1.3247  1.4588
 8239TIP3   OH224655   3.105   5.138   3.509  0.3698 -0.1126 -0.0504
 8239TIP3    H124656   3.166   5.201   3.471  0.4239  0.0992  0.3908
 8239TIP3    H224657   3.065   5.095   3.433  0.5033  0.2865 -0.3475
 8240TIP3   OH224658   0.361   5.014   3.865  0.0197  0.5075  0.3556
 8240TIP3    H124659   0.323   4.930   3.839 -1.3023  1.4788 -0.9277
 8240TIP3    H224660   0.430   5.030   3.800 -1.5784  1.7066 -1.1082
 8241TIP3   OH224661   5.593   1.186   5.465  0.2629 -0.0787  0.8423
 8241TIP3    H124662   5.581   1.214   5.374 -1.8398 -1.6917  0.5811
 8241TIP3    H224663   5.647   1.108   5.459 -0.9972 -0.9580  0.8592
 8242TIP3   OH224664   3.562   7.415   4.932 -0.3620  0.8839  0.3857
 8242TIP3    H124665   3.490   7.417   4.869 -0.3440 -0.2893  0.3119
 8242TIP3    H224666   3.622   7.483   4.902 -0.2818  0.2383 -0.9600
 8243TIP3   OH224667   0.699   6.821   4.761  0.4800 -0.1149  0.1510
 8243TIP3    H124668   0.754   6.837   4.685 -0.3977 -1.1737 -0.7189
 8243TIP3    H224669   0.610   6.836   4.730 -0.0274 -2.3059  0.4709
 8244TIP3   OH224670   1.443   5.812   4.657  0.1926  0.0843 -0.0887
 8244TIP3    H124671   1.512   5.877   4.645  1.3571 -0.7199  2.0608
 8244TIP3    H224672   1.481   5.729   4.629  0.1165 -0.3592  1.0781
 8245TIP3   OH224673   1.021   6.685   4.919  0.1766  0.2239 -0.2008
 8245TIP3    H124674   1.097   6.721   4.875  0.5005 -0.1660  0.0339
 8245TIP3    H224675   0.982   6.759   4.965  2.6885 -0.2856  2.9675
 8246TIP3   OH224676   2.552   6.061   2.499  0.5456 -0.3877  0.2765
 8246TIP3    H124677   2.459   6.051   2.480  0.1813 -0.0159  1.7847
 8246TIP3    H224678   2.587   5.972   2.493  0.2213 -0.4466 -0.8952
 8247TIP3   OH224679   2.205   7.104   3.475  0.1590 -0.4186  0.2917
 8247TIP3    H124680   2.218   7.199   3.486 -0.3087 -0.1891 -1.0459
 8247TIP3    H224681   2.118   7.088   3.512  0.9190 -0.6220  2.0408
 8248TIP3   OH224682   2.055   4.233   4.054 -0.6652 -0.1946 -0.1074
 8248TIP3    H124683   2.134   4.276   4.085 -1.1811 -1.4720  3.1385
 8248TIP3    H224684   2.085   4.148   4.023 -0.7033 -0.4561  0.5811
 8249TIP3   OH224685   3.532   5.436   5.739  0.2118 -0.0995 -0.7488
 8249TIP3    H124686   3.566   5.405   5.823 -0.5737  0.2748 -0.2879
 8249TIP3    H224687   3.609   5.440   5.682  0.6081 -1.1989 -0.3077
 8250TIP3   OH224688   0.998   4.895   3.671  0.2484 -0.6131  0.0591
 8250TIP3    H124689   1.071   4.883   3.611  1.7685  0.3814  1.6674
 8250TIP3    H224690   0.965   4.982   3.652 -0.4013 -0.9875 -0.5377
 8251TIP3   OH224691   0.605   6.030   1.053  0.5135 -0.0672  0.5795
 8251TIP3    H124692   0.522   6.075   1.067  1.8408  2.6077  0.2580
 8251TIP3    H224693   0.601   5.954   1.111 -1.2545  1.2190  2.2116
 8252TIP3   OH224694   1.717   4.057   2.434  0.1582 -0.3280 -0.1913
 8252TIP3    H124695   1.805   4.093   2.420 -0.2927  0.4807 -1.0386
 8252TIP3    H224696   1.663   4.101   2.369 -0.8235 -1.0390  0.1312
 8253TIP3   OH224697   1.989   4.268   4.366 -0.3583 -0.3463  0.3153
 8253TIP3    H124698   2.026   4.267   4.278  0.5299 -0.6303  0.6871
 8253TIP3    H224699   1.956   4.179   4.379 -2.1670  0.1859 -0.4167
 8254TIP3   OH224700   1.152   6.364   5.006  0.0177 -0.3977  0.2621
 8254TIP3    H124701   1.109   6.423   4.945  1.2460 -0.5578 -0.7837
 8254TIP3    H224702   1.194   6.298   4.951 -0.2045 -1.4776  1.3500
 8255TIP3   OH224703   1.845   5.217   4.131  0.1085  0.3456 -0.0195
 8255TIP3    H124704   1.762   5.210   4.084  0.0279 -0.5640  0.2485
 8255TIP3    H224705   1.909   5.240   4.064 -0.3165  0.7909 -0.2718
 8256TIP3   OH224706   1.559   5.487   3.268  0.2237 -0.2844  0.1293
 8256TIP3    H124707   1.500   5.544   3.317 -0.6695 -1.7526  0.7909
 8256TIP3    H224708   1.632   5.471   3.328  1.0438  1.0888 -0.4871
 8257TIP3   OH224709   8.435   3.422   0.199 -0.3215  0.3534  0.0300
 8257TIP3    H124710   8.373   3.445   0.267 -0.3387 -1.4181  0.6337
 8257TIP3    H224711   8.402   3.464   0.120 -2.1351 -0.3531  0.4047
 8258TIP3   OH224712   1.982   7.545   3.927  0.1643  0.4232  0.0650
 8258TIP3    H124713   2.014   7.571   4.014 -1.2597  0.2757  0.6442
 8258TIP3    H224714   1.978   7.628   3.878 -0.1021  0.6723  0.5009
 8259TIP3   OH224715   1.345   4.504   4.940  0.5305 -0.2241 -0.3655
 8259TIP3    H124716   1.337   4.471   5.029 -0.8931  1.2692  0.0914
 8259TIP3    H224717   1.363   4.427   4.887  1.4164 -1.1245  1.2133
 8260TIP3   OH224718   8.076   5.860   0.216 -0.0336 -0.2970 -0.0388
 8260TIP3    H124719   8.088   5.765   0.216  2.8699  0.0424 -0.6500
 8260TIP3    H224720   8.063   5.882   0.308  0.1121 -1.1855  0.2037
 8261TIP3   OH224721   0.287   4.421   3.718 -0.0377  0.3818  0.0838
 8261TIP3    H124722   0.246   4.487   3.662 -1.3549 -1.1647 -0.8209
 8261TIP3    H224723   0.373   4.407   3.678 -0.0730  0.9604 -0.2006
 8262TIP3   OH224724   0.772   5.847   3.952  0.1936 -0.1484 -0.9574
 8262TIP3    H124725   0.711   5.780   3.982 -0.7012  0.8581 -0.4757
 8262TIP3    H224726   0.756   5.854   3.858 -0.7872  0.4555 -0.7507
 8263TIP3   OH224727   2.021   5.224   3.940  0.4220  0.3484 -0.8162
 8263TIP3    H124728   2.009   5.136   3.905  0.5838 -0.0591  0.1370
 8263TIP3    H224729   2.071   5.270   3.872 -0.5970  0.0366 -1.7959
 8264TIP3   OH224730   2.896   6.913   4.486 -0.2934 -0.2180  0.2000
 8264TIP3    H124731   2.964   6.942   4.547 -0.2057 -1.9702  0.9576
 8264TIP3    H224732   2.872   6.826   4.517 -0.3579 -1.0684 -2.1886
 8265TIP3   OH224733   0.347   4.362   6.294 -0.3855  0.2970  0.0628
 8265TIP3    H124734   0.322   4.274   6.322  1.3026 -0.7634 -1.6056
 8265TIP3    H224735   0.439   4.353   6.270 -0.4733  2.3001 -1.0629
 8266TIP3   OH224736   1.616   2.767   4.733 -0.7862  0.1095  0.1014
 8266TIP3    H124737   1.603   2.681   4.694  1.9989 -1.0920  1.6385
 8266TIP3    H224738   1.614   2.751   4.828  1.3491  1.4173  0.4222
 8267TIP3   OH224739   2.984   2.740   4.668  0.1664 -0.2241  0.0635
 8267TIP3    H124740   2.942   2.654   4.669  1.3587 -0.8162  1.5040
 8267TIP3    H224741   3.043   2.739   4.744  0.8087  1.5566 -0.3806
 8268TIP3   OH224742   0.581   4.235   1.626 -0.3937  0.0220  0.0750
 8268TIP3    H124743   0.572   4.313   1.572  0.2831 -0.7019 -1.0956
 8268TIP3    H224744   0.659   4.191   1.593 -1.0763 -1.4373  0.3388
 8269TIP3   OH224745   2.129   6.113   5.500 -0.5944  0.4767  0.1171
 8269TIP3    H124746   2.035   6.130   5.503 -0.4829  1.3095 -1.0482
 8269TIP3    H224747   2.140   6.047   5.431 -0.6921 -2.2352  2.5915
 8270TIP3   OH224748   1.141   2.377   5.531  1.2753 -0.2161 -0.1142
 8270TIP3    H124749   1.158   2.470   5.518  2.9051 -0.6805 -1.4849
 8270TIP3    H224750   1.224   2.334   5.510  1.7017 -1.7182  4.1038
 8271TIP3   OH224751   0.435   6.793   5.026  0.1262  0.2519 -0.2110
 8271TIP3    H124752   0.435   6.874   5.077 -0.3084 -1.1713  2.1297
 8271TIP3    H224753   0.361   6.743   5.060  1.1531 -1.6875 -0.7322
 8272TIP3   OH224754   0.291   4.093   5.886 -0.9571  0.3780 -0.1153
 8272TIP3    H124755   0.222   4.157   5.872 -1.3139  0.1099  0.4167
 8272TIP3    H224756   0.372   4.142   5.874 -1.2093  1.2431  1.5631
 8273TIP3   OH224757   8.262   2.168   0.634  0.0031 -0.7115 -0.0373
 8273TIP3    H124758   8.248   2.144   0.725  0.8384 -0.1430  0.2511
 8273TIP3    H224759   8.355   2.149   0.618 -0.1968 -1.0310 -0.8305
 8274TIP3   OH224760   1.260   4.331   5.144  0.6148 -0.3914 -0.1636
 8274TIP3    H124761   1.225   4.246   5.118 -0.4978  0.5634 -1.9113
 8274TIP3    H224762   1.183   4.385   5.159  1.3160  0.5485  0.1119
 8275TIP3   OH224763   1.909   6.036   6.562  0.8487 -0.1359 -0.1330
 8275TIP3    H124764   1.876   5.989   6.638  1.1686  0.5461  0.4396
 8275TIP3    H224765   1.832   6.057   6.510  0.7442 -1.6581 -0.6157
 8276TIP3   OH224766   1.569   4.214   4.487 -0.1106 -0.3439  0.4617
 8276TIP3    H124767   1.520   4.284   4.443  0.6202 -0.5787 -0.7431
 8276TIP3    H224768   1.643   4.259   4.529  0.5620 -0.4331 -0.6165
 8277TIP3   OH224769   1.720   6.089   5.705 -0.5000 -0.2039 -0.3185
 8277TIP3    H124770   1.685   6.129   5.785  1.2165 -0.6866  0.6831
 8277TIP3    H224771   1.661   6.017   5.686 -0.7038 -0.3029  0.7080
 8278TIP3   OH224772   0.770   5.087   6.764 -0.5097  0.5034  0.0635
 8278TIP3    H124773   0.819   5.133   6.831  0.9312 -1.1216  0.1690
 8278TIP3    H224774   0.832   5.077   6.692  0.1521 -3.5919  1.0661
 8279TIP3   OH224775   1.725   0.253   4.679  0.2797  0.0230 -0.4563
 8279TIP3    H124776   1.735   0.347   4.691 -0.8414  0.1274 -0.3231
 8279TIP3    H224777   1.766   0.236   4.594  1.0347  0.5253 -0.2001
 8280TIP3   OH224778   1.925   7.123   5.255 -0.2700 -0.3033 -0.1008
 8280TIP3    H124779   1.950   7.163   5.338 -1.7850 -0.6157  0.5167
 8280TIP3    H224780   1.986   7.050   5.244  1.6973  1.3765 -0.6141
 8281TIP3   OH224781   2.548   6.436   4.583 -0.7174 -0.1902  0.0814
 8281TIP3    H124782   2.607   6.365   4.559 -1.4874 -1.6930  2.4656
 8281TIP3    H224783   2.467   6.417   4.535 -1.4467 -1.8512  1.8812
 8282TIP3   OH224784   1.109   6.401   1.832  0.0823 -0.0451  0.9929
 8282TIP3    H124785   1.082   6.369   1.746 -1.5026  0.1745  1.3911
 8282TIP3    H224786   1.104   6.324   1.889  3.3496 -0.7112  0.4261
 8283TIP3   OH224787   2.775   4.603   4.228  0.2201 -0.9353  0.0454
 8283TIP3    H124788   2.833   4.576   4.300  0.3589 -0.3915  0.1370
 8283TIP3    H224789   2.688   4.605   4.267  0.2933 -0.6547  0.1897
 8284TIP3   OH224790   1.197   7.678   4.048  0.4932  0.1979 -1.0185
 8284TIP3    H124791   1.203   7.681   4.143  0.3881  1.3520 -1.0509
 8284TIP3    H224792   1.266   7.618   4.021 -0.4263 -1.3029 -0.1177
 8285TIP3   OH224793   1.834   5.960   5.438  0.3700 -0.0171 -0.3357
 8285TIP3    H124794   1.755   5.941   5.489  0.1303  1.6826 -0.0319
 8285TIP3    H224795   1.879   5.876   5.431 -0.6925 -0.7015  0.8199
 8286TIP3   OH224796   1.139   6.855   0.759  0.0797 -0.0698  0.2541
 8286TIP3    H124797   1.084   6.777   0.770  0.6497 -0.3984  0.7822
 8286TIP3    H224798   1.138   6.896   0.846  2.1869 -1.0743  0.7708
 8287TIP3   OH224799   2.361   6.118   4.451 -0.1541 -0.6692  0.4269
 8287TIP3    H124800   2.359   6.206   4.413  1.9190 -0.2172  1.2828
 8287TIP3    H224801   2.271   6.100   4.476 -0.7318  0.8937 -0.4768
 8288TIP3   OH224802   1.500   4.740   4.975  0.5189  0.2612 -0.0550
 8288TIP3    H124803   1.536   4.737   4.886 -2.8061  2.9482 -1.6289
 8288TIP3    H224804   1.442   4.665   4.980  0.9260 -0.0536 -0.0514
 8289TIP3   OH224805   8.253   3.857   0.832 -0.3061  0.0041 -1.0092
 8289TIP3    H124806   8.331   3.836   0.781  1.0640 -0.7807  1.3337
 8289TIP3    H224807   8.285   3.870   0.921 -2.7061  0.8321 -0.2269
 8290TIP3   OH224808   1.294   7.110   4.260 -0.2413 -0.3646  0.6319
 8290TIP3    H124809   1.224   7.141   4.318 -2.0427 -0.0272 -1.6482
 8290TIP3    H224810   1.326   7.189   4.217 -1.7398 -1.0556 -1.8412
 8291TIP3   OH224811   2.419   4.166   3.502 -0.8351 -0.3523 -0.2866
 8291TIP3    H124812   2.437   4.164   3.596 -2.3723  0.2356  0.0418
 8291TIP3    H224813   2.341   4.111   3.492 -1.8758  1.2054 -0.9237
 8292TIP3   OH224814   3.340   5.489   5.277 -0.0957  0.1840 -0.2746
 8292TIP3    H124815   3.398   5.559   5.245 -0.2338  1.0108  1.2356
 8292TIP3    H224816   3.329   5.508   5.370  0.5380 -2.3439  0.3456
 8293TIP3   OH224817   2.918   4.146   3.798 -0.0575 -0.1192  0.2278
 8293TIP3    H124818   2.849   4.190   3.848 -1.0229 -1.8957  0.5251
 8293TIP3    H224819   2.972   4.102   3.863 -0.4149 -1.1765 -0.1630
 8294TIP3   OH224820   2.612   5.781   6.638  0.8708 -0.3165 -0.6800
 8294TIP3    H124821   2.688   5.818   6.592  0.9915 -0.3197 -0.4807
 8294TIP3    H224822   2.604   5.833   6.718 -1.0986  1.6399 -2.0664
 8295TIP3   OH224823   1.815   2.970   3.796 -0.0315 -0.3481 -0.0287
 8295TIP3    H124824   1.810   2.993   3.704 -0.8923 -1.9650 -0.4020
 8295TIP3    H224825   1.841   3.051   3.840 -1.4389  0.8953 -1.4590
 8296TIP3   OH224826   1.872   5.314   3.161  0.5426 -0.2955 -0.1662
 8296TIP3    H124827   1.867   5.218   3.160  0.2537 -0.3047  1.8940
 8296TIP3    H224828   1.786   5.342   3.130 -0.5244 -0.7009  2.3179
 8297TIP3   OH224829   0.197   2.510   3.594 -0.5496  0.1524 -0.1418
 8297TIP3    H124830   0.236   2.572   3.533  0.7723 -2.0697 -1.6398
 8297TIP3    H224831   0.109   2.494   3.559 -1.9324  3.1832  1.7798
 8298TIP3   OH224832   5.293   0.904   3.756 -0.2879 -0.0679  0.1206
 8298TIP3    H124833   5.259   0.983   3.799  1.0033 -1.1922  3.3529
 8298TIP3    H224834   5.386   0.902   3.780  0.1493 -1.5509 -1.5778
 8299TIP3   OH224835   2.270   3.799   6.176  0.4603  0.0535 -0.6286
 8299TIP3    H124836   2.305   3.747   6.248 -0.0828  1.1889  0.4667
 8299TIP3    H224837   2.344   3.853   6.147  0.4597  0.1938 -0.3705
 8300TIP3   OH224838   2.001   4.885   5.094  0.0311  0.2161  0.1457
 8300TIP3    H124839   2.008   4.874   5.189  0.0666 -1.5618 -0.0392
 8300TIP3    H224840   2.059   4.818   5.058 -0.9567  0.0286 -1.1362
 8301TIP3   OH224841   1.892   4.568   5.476 -0.4088 -0.0007 -0.0571
 8301TIP3    H124842   1.833   4.582   5.402 -0.6992  2.8392  0.6410
 8301TIP3    H224843   1.839   4.585   5.553  0.9676  1.3521  0.6220
 8302TIP3   OH224844   6.705   5.025   4.834 -0.1728  0.3524  0.0782
 8302TIP3    H124845   6.737   4.991   4.918 -0.1417 -0.5059 -0.2746
 8302TIP3    H224846   6.681   4.947   4.785  2.7046  0.6565 -1.8944
 8303TIP3   OH224847   0.097   0.996   0.428  0.2656 -0.1774 -0.4320
 8303TIP3    H124848   0.037   0.929   0.396 -1.0551  1.2520 -0.9789
 8303TIP3    H224849   0.138   0.957   0.505 -0.7370 -1.4801 -0.5481
 8304TIP3   OH224850   1.934   5.605   3.938  0.4263 -0.0526 -0.3716
 8304TIP3    H124851   2.021   5.589   3.900  0.4268  1.0154 -0.8568
 8304TIP3    H224852   1.874   5.560   3.880  0.7387 -1.8825  0.6810
 8305TIP3   OH224853   3.183   4.405   3.319  0.4716  0.5534 -0.6443
 8305TIP3    H124854   3.236   4.415   3.399  0.3897 -0.6051 -0.4353
 8305TIP3    H224855   3.243   4.367   3.255  0.5111  1.3990 -1.1077
 8306TIP3   OH224856   4.898   1.162   1.003 -0.3988 -0.5186  0.3410
 8306TIP3    H124857   4.965   1.106   1.043  0.3324 -0.7583 -1.2079
 8306TIP3    H224858   4.941   1.246   0.989 -0.8944 -0.1845  0.7858
 8307TIP3   OH224859   8.153   4.521   6.428  0.2878  0.3794 -0.5935
 8307TIP3    H124860   8.086   4.548   6.365 -1.7900 -0.6197  1.1384
 8307TIP3    H224861   8.228   4.497   6.375 -2.2526 -2.8449 -2.8546
 8308TIP3   OH224862   2.155   4.718   4.864 -0.5658  0.0589 -0.3349
 8308TIP3    H124863   2.227   4.772   4.833 -1.8706  1.7195 -0.5597
 8308TIP3    H224864   2.187   4.628   4.856  0.9161  0.6915 -1.8659
 8309TIP3   OH224865   1.677   4.832   3.054 -0.2065 -0.0084  0.2631
 8309TIP3    H124866   1.662   4.765   2.987  2.4029 -0.1477 -0.2393
 8309TIP3    H224867   1.654   4.915   3.010  2.3510  0.0008 -1.1894
 8310TIP3   OH224868   0.224   6.015   3.166  0.5162 -0.3742 -0.0730
 8310TIP3    H124869   0.134   5.984   3.161  0.3222  0.1705  0.0436
 8310TIP3    H224870   0.219   6.109   3.148  0.9379 -0.1538  0.9282
 8311TIP3   OH224871   1.539   6.138   4.767  0.0343 -0.5520 -0.5037
 8311TIP3    H124872   1.570   6.226   4.789 -0.2122 -0.0086 -2.2341
 8311TIP3    H224873   1.604   6.104   4.705  0.1352 -1.6051  0.1619
 8312TIP3   OH224874   7.542   5.006   3.640 -0.6998 -0.0753 -0.0534
 8312TIP3    H124875   7.531   4.930   3.696 -0.2328  1.0948  1.6846
 8312TIP3    H224876   7.456   5.049   3.640 -0.8541 -0.3809 -0.6988
 8313TIP3   OH224877   2.347   7.108   3.086  0.0047  0.0202  0.1208
 8313TIP3    H124878   2.332   7.192   3.042 -0.7906  0.0810  0.4960
 8313TIP3    H224879   2.389   7.053   3.020  0.0874  0.5584 -0.2773
 8314TIP3   OH224880   2.640   6.981   4.260 -0.3062 -0.1345  0.1449
 8314TIP3    H124881   2.598   6.896   4.274  1.1344 -0.9264 -0.1890
 8314TIP3    H224882   2.679   7.002   4.345 -4.1217  2.2054  1.4405
 8315TIP3   OH224883   2.922   7.773   5.881  0.1177  0.5703 -1.0178
 8315TIP3    H124884   2.911   7.862   5.912  1.1278  0.0634  0.8821
 8315TIP3    H224885   2.834   7.736   5.881 -0.3150  1.5896 -1.9118
 8316TIP3   OH224886   2.235   4.274   2.337 -0.3558 -0.2591 -0.0522
 8316TIP3    H124887   2.228   4.259   2.243 -1.7017 -1.8516  0.2709
 8316TIP3    H224888   2.271   4.362   2.345  1.1002 -0.6395 -2.0504
 8317TIP3   OH224889   2.854   3.807   3.806  0.1567 -0.0165 -0.0089
 8317TIP3    H124890   2.834   3.882   3.750 -0.8344  0.7135  1.3001
 8317TIP3    H224891   2.946   3.817   3.827  0.1805  0.4890 -0.3401
 8318TIP3   OH224892   3.047   5.365   3.729 -0.5435  0.5421 -0.6526
 8318TIP3    H124893   3.080   5.334   3.644 -2.2080  1.8434 -1.7878
 8318TIP3    H224894   2.972   5.309   3.747  1.7249 -1.9278  1.5842
 8319TIP3   OH224895   2.573   7.283   5.476  0.4205  0.1432  0.6009
 8319TIP3    H124896   2.636   7.332   5.528  0.5200  1.0499 -0.3478
 8319TIP3    H224897   2.499   7.343   5.465  0.6651  0.2008 -0.8235
 8320TIP3   OH224898   3.190   3.942   2.269 -0.0755  0.2092 -0.4465
 8320TIP3    H124899   3.203   3.873   2.333 -0.1690  0.4670 -0.1450
 8320TIP3    H224900   3.183   3.897   2.185  0.2802 -0.1116 -0.3016
 8321TIP3   OH224901   4.517   7.359   1.715 -0.5044  0.9370  0.1250
 8321TIP3    H124902   4.511   7.304   1.792  1.0962 -0.3361 -0.6316
 8321TIP3    H224903   4.470   7.311   1.647 -1.3741  1.7678  0.1089
 8322TIP3   OH224904   2.940   5.805   4.661 -0.4243  0.4719 -0.2936
 8322TIP3    H124905   2.882   5.746   4.709  0.3340  0.1311  0.2357
 8322TIP3    H224906   2.889   5.884   4.645 -1.4311 -0.3018 -0.9384
 8323TIP3   OH224907   1.165   6.123   5.838  0.1187 -0.0966  0.3382
 8323TIP3    H124908   1.159   6.046   5.894 -1.3817 -0.1310  0.1365
 8323TIP3    H224909   1.239   6.173   5.873  1.0223 -1.5688  0.5313
 8324TIP3   OH224910   3.906   4.490   5.574  0.2443  0.2977  0.4215
 8324TIP3    H124911   3.959   4.474   5.496 -1.0525 -0.7250 -0.2652
 8324TIP3    H224912   3.835   4.426   5.568 -1.0351  1.6106  1.3574
 8325TIP3   OH224913   0.025   2.589   0.971 -0.3144 -0.2163 -0.1160
 8325TIP3    H124914   0.035   2.494   0.958  1.2151  0.0849 -1.3808
 8325TIP3    H224915   0.114   2.623   0.964 -0.9163  1.3793 -0.1777
 8326TIP3   OH224916   1.894   4.581   2.693 -0.0770  0.2469 -0.6495
 8326TIP3    H124917   1.928   4.572   2.782  0.0104 -2.2402 -0.9114
 8326TIP3    H224918   1.970   4.610   2.641 -0.0937  1.5522  0.0214
 8327TIP3   OH224919   0.831   6.819   5.667 -0.1940  0.1338  0.3311
 8327TIP3    H124920   0.801   6.755   5.603 -2.6828  1.0755  0.5012
 8327TIP3    H224921   0.898   6.773   5.718 -0.5816 -1.6878 -0.7766
 8328TIP3   OH224922   1.821   7.330   3.492  0.2640  0.5479  0.5343
 8328TIP3    H124923   1.747   7.269   3.490  0.1794  0.6484  0.6503
 8328TIP3    H224924   1.886   7.287   3.548  1.0658 -0.4460 -1.0790
 8329TIP3   OH224925   2.257   6.502   5.933 -0.2679  0.5604  0.4908
 8329TIP3    H124926   2.294   6.576   5.982  0.8297 -0.1739  0.7943
 8329TIP3    H224927   2.164   6.502   5.956 -0.1971  1.6094  0.7981
 8330TIP3   OH224928   7.969   1.523  -0.031  0.0760  0.5589  0.3025
 8330TIP3    H124929   7.965   1.478   0.053 -0.4608 -0.5979 -0.3407
 8330TIP3    H224930   7.964   1.616  -0.009  0.6943  0.2915  1.5962
 8331TIP3   OH224931   0.288   2.666   0.990  0.0989  0.4386 -0.4230
 8331TIP3    H124932   0.315   2.757   1.000  0.9690  0.5325 -3.2736
 8331TIP3    H224933   0.367   2.615   1.009 -0.1494  0.2955  0.2610
 8332TIP3   OH224934   2.457   4.194   4.053 -0.2605  0.0660 -0.1813
 8332TIP3    H124935   2.543   4.185   4.093 -0.5590 -1.6050  0.1429
 8332TIP3    H224936   2.434   4.286   4.065  1.1848  0.3746  0.3266
 8333TIP3   OH224937   2.726   4.418   6.196  0.3114  0.3429  0.1562
 8333TIP3    H124938   2.805   4.403   6.144  1.3771  1.3246  1.4429
 8333TIP3    H224939   2.717   4.339   6.249 -0.2461 -0.2633 -0.8268
 8334TIP3   OH224940   7.880   6.297   4.084  0.1858  0.5100  0.0435
 8334TIP3    H124941   7.823   6.263   4.153 -0.0257 -0.2341 -0.4925
 8334TIP3    H224942   7.954   6.236   4.082  0.7512  1.1879  0.3968
 8335TIP3   OH224943   2.017   4.939   6.584  0.6264 -0.2538 -0.5488
 8335TIP3    H124944   1.951   4.893   6.532  0.9292 -1.1064 -0.1882
 8335TIP3    H224945   1.968   4.987   6.650  0.4305 -2.2282  0.7938
 8336TIP3   OH224946   1.253   5.544   4.426  0.0475 -0.3551 -0.2442
 8336TIP3    H124947   1.228   5.538   4.519 -0.2209  1.6986 -0.1673
 8336TIP3    H224948   1.347   5.529   4.426  0.4291  1.8044  0.6537
 8337TIP3   OH224949   7.878   3.995   5.557  0.3829 -0.2011  0.3248
 8337TIP3    H124950   7.879   3.910   5.513 -1.0369 -1.5992  2.8889
 8337TIP3    H224951   7.969   4.023   5.556  0.4818 -0.4090 -2.9844
 8338TIP3   OH224952   1.787   6.122   3.272  0.6596  0.4387 -0.4558
 8338TIP3    H124953   1.731   6.065   3.324  1.4793  0.5412  0.5434
 8338TIP3    H224954   1.799   6.074   3.190 -0.5008  0.2068 -0.4992
 8339TIP3   OH224955   2.522   3.385   2.751 -0.6395  0.4123 -0.9515
 8339TIP3    H124956   2.562   3.401   2.836  0.2768 -1.2030 -1.0548
 8339TIP3    H224957   2.428   3.379   2.769 -0.5852  1.5744 -0.2896
 8340TIP3   OH224958   0.140   5.261   5.083  0.2456  0.1580 -0.1362
 8340TIP3    H124959   0.093   5.180   5.067  0.3532  0.0688  0.0014
 8340TIP3    H224960   0.167   5.291   4.996  1.3047 -0.6104 -0.0665
 8341TIP3   OH224961   2.324   7.299   4.214 -0.2006 -0.3961  0.9165
 8341TIP3    H124962   2.235   7.315   4.246 -0.0156  0.0801  1.2059
 8341TIP3    H224963   2.365   7.248   4.283  0.0700  0.2752  1.2599
 8342TIP3   OH224964   3.407   0.277   4.180 -0.0467  0.2027 -0.1130
 8342TIP3    H124965   3.490   0.325   4.181 -0.5928  1.1620  0.3614
 8342TIP3    H224966   3.373   0.286   4.269 -0.1436 -1.1215 -0.0007
 8343TIP3   OH224967   3.525   7.289   3.109  0.4422 -0.1313 -0.3538
 8343TIP3    H124968   3.478   7.372   3.099 -0.3039 -0.6104 -0.9039
 8343TIP3    H224969   3.521   7.271   3.203  0.9168  0.6229 -0.1784
 8344TIP3   OH224970   3.537   4.818   5.008 -0.2488  0.5187  0.6029
 8344TIP3    H124971   3.614   4.773   5.041 -0.0491  0.5397  0.1716
 8344TIP3    H224972   3.483   4.834   5.085 -0.1180 -0.0676  0.8214
 8345TIP3   OH224973   1.596   7.590   4.020  0.2844 -0.0158 -0.2829
 8345TIP3    H124974   1.553   7.651   3.961 -2.0314 -0.3046  1.0461
 8345TIP3    H224975   1.623   7.643   4.095 -0.2496 -0.3233  0.1320
 8346TIP3   OH224976   2.122   6.126   5.955  0.1408 -0.0247 -0.5736
 8346TIP3    H124977   2.174   6.084   6.024 -0.1832 -0.3803 -0.5461
 8346TIP3    H224978   2.031   6.111   5.981  0.0212  0.9822 -0.3894
 8347TIP3   OH224979   0.821   6.088   4.780  0.4427 -0.5565 -0.3826
 8347TIP3    H124980   0.777   6.009   4.813  0.1608 -0.2178  0.0551
 8347TIP3    H224981   0.910   6.059   4.758  0.6211 -0.7985  0.6309
 8348TIP3   OH224982   2.957   5.585   5.098 -0.6841 -0.0401  0.1071
 8348TIP3    H124983   2.874   5.553   5.062 -0.3688  0.5536 -1.2130
 8348TIP3    H224984   2.941   5.678   5.113 -1.0005 -0.3989  2.1337
 8349TIP3   OH224985   2.883   7.851   5.122  0.7909  0.3116 -0.1427
 8349TIP3    H124986   2.837   7.827   5.041  0.2748 -1.4849  0.6690
 8349TIP3    H224987   2.976   7.834   5.103  0.9221  1.8215 -1.0124
 8350TIP3   OH224988   1.321   7.132   3.871 -0.1846  0.1117  0.0627
 8350TIP3    H124989   1.372   7.209   3.846 -0.2264 -0.5099 -1.9860
 8350TIP3    H224990   1.381   7.058   3.858 -1.3590 -0.5499 -1.6206
 8351TIP3   OH224991   1.078   5.702   4.273 -0.1457 -0.5702  0.1188
 8351TIP3    H124992   1.014   5.652   4.223  0.5624  0.0203 -1.4039
 8351TIP3    H224993   1.132   5.636   4.316  0.2986 -1.1146 -1.2539
 8352TIP3   OH224994   1.811   5.779   4.709  0.0373 -0.2524 -0.3475
 8352TIP3    H124995   1.778   5.802   4.623  1.2687  2.7853 -0.0625
 8352TIP3    H224996   1.899   5.817   4.712  0.2117 -0.7602  2.0586
 8353TIP3   OH224997   2.231   4.882   3.596  0.1748 -0.0993 -0.1866
 8353TIP3    H124998   2.208   4.818   3.529  1.1387 -1.3786  0.6852
 8353TIP3    H224999   2.271   4.954   3.548 -2.7364  0.7638 -1.3938
 8354TIP3   OH225000   0.993   4.792   4.028  0.2138  0.1616  0.7351
 8354TIP3    H125001   1.017   4.732   4.099 -1.0993  0.2812  1.2905
 8354TIP3    H225002   0.924   4.846   4.064 -0.6620  0.0500 -0.7152
 8355TIP3   OH225003   6.115   4.424   1.851  0.3616  0.0955 -0.0823
 8355TIP3    H125004   6.068   4.344   1.873  0.6041 -0.2479 -0.8085
 8355TIP3    H225005   6.135   4.416   1.757  1.6118  0.3628  0.1479
 8356TIP3   OH225006   8.450   6.484   4.436 -0.3075 -0.2220 -0.2917
 8356TIP3    H125007   8.401   6.413   4.394  0.2410 -1.0179  0.3812
 8356TIP3    H225008   8.540   6.451   4.440 -0.1738  0.2411  0.6341
 8357TIP3   OH225009   2.271   4.210   2.617 -0.0966  0.6436  0.0226
 8357TIP3    H125010   2.286   4.263   2.539  1.0013  1.4605  0.7628
 8357TIP3    H225011   2.339   4.239   2.679 -2.1050  1.3539  1.9532
 8358TIP3   OH225012   1.912   5.643   4.425 -0.6959  0.1103 -0.0607
 8358TIP3    H125013   1.866   5.561   4.441 -0.9821  0.0389 -1.1930
 8358TIP3    H225014   1.962   5.628   4.345 -0.4549  0.9087 -0.0671
 8359TIP3   OH225015   2.301   3.254   5.071  0.3212  0.6884  0.1786
 8359TIP3    H125016   2.239   3.196   5.026  2.9079 -1.5824 -0.6102
 8359TIP3    H225017   2.299   3.335   5.020  0.6758 -0.6557 -2.0815
 8360TIP3   OH225018   1.505   5.006   3.798 -0.4739  0.0140  0.3149
 8360TIP3    H125019   1.496   5.001   3.703  2.8372  0.0073 -0.0577
 8360TIP3    H225020   1.524   4.916   3.825  0.6910  0.3884  0.7387
 8361TIP3   OH225021   1.949   5.764   5.949 -0.3126  0.3617  0.0493
 8361TIP3    H125022   1.923   5.726   6.033 -0.9827 -0.7597 -0.6439
 8361TIP3    H225023   2.041   5.739   5.938 -0.0600  0.9978  0.7100
 8362TIP3   OH225024   1.135   3.175   2.713 -0.0552  0.0343  0.3282
 8362TIP3    H125025   1.065   3.238   2.693 -1.1396 -1.5003 -0.8777
 8362TIP3    H225026   1.151   3.186   2.807 -1.0623  1.2543  0.3770
 8363TIP3   OH225027   0.203   2.519   2.745 -0.2163 -0.2083 -0.2914
 8363TIP3    H125028   0.231   2.609   2.728  0.5124 -0.5809 -1.0780
 8363TIP3    H225029   0.237   2.468   2.671 -0.0990 -1.2366  0.4568
 8364TIP3   OH225030   1.793   7.200   2.669  0.2950  0.2612 -0.2688
 8364TIP3    H125031   1.840   7.120   2.644 -0.1039 -0.0460 -0.0298
 8364TIP3    H225032   1.827   7.267   2.609  1.9697  0.3303  0.7195
 8365TIP3   OH225033   5.248   7.693   3.948 -0.3486 -0.3337 -0.2261
 8365TIP3    H125034   5.174   7.632   3.951 -1.9361  1.4695 -1.5103
 8365TIP3    H225035   5.208   7.780   3.954  1.6154  0.7005 -1.3992
 8366TIP3   OH225036   7.007   5.812   2.687 -0.6297 -0.5844 -0.2423
 8366TIP3    H125037   6.958   5.794   2.768 -1.5328 -2.4153 -1.1692
 8366TIP3    H225038   7.037   5.902   2.697 -2.0801 -0.2634  1.4558
 8367TIP3   OH225039   4.947   7.876   6.482 -0.2052  0.1104 -0.3256
 8367TIP3    H125040   4.962   7.842   6.571 -2.4950  0.5676  0.2740
 8367TIP3    H225041   4.981   7.807   6.425  1.6386 -0.0258  0.8950
 8368TIP3   OH225042   1.947   6.767   1.702 -0.5501 -0.2935  0.0018
 8368TIP3    H125043   1.874   6.725   1.657  0.8155 -1.2714 -1.3228
 8368TIP3    H225044   2.001   6.695   1.733  0.7422  0.4625 -0.4854
 8369TIP3   OH225045   4.437   0.579   6.584  0.5314 -0.6165  0.2598
 8369TIP3    H125046   4.407   0.514   6.520 -0.3279  1.3888 -1.4116
 8369TIP3    H225047   4.361   0.593   6.641  0.5940 -0.7988  0.3876
 8370TIP3   OH225048   4.038   4.997   2.673  0.2063  0.3213  0.0252
 8370TIP3    H125049   3.955   5.045   2.682  0.5600  0.6692  1.4547
 8370TIP3    H225050   4.099   5.043   2.730  0.8486 -1.1708  0.5581
 8371TIP3   OH225051   2.407   4.422   3.400 -0.1893  0.3549 -0.8531
 8371TIP3    H125052   2.402   4.337   3.442  0.9168  0.7274  0.0554
 8371TIP3    H225053   2.489   4.420   3.349 -0.3298  0.7505 -1.1033
 8372TIP3   OH225054   3.385   5.224   2.906  0.2047 -0.0200  0.1931
 8372TIP3    H125055   3.429   5.233   2.822  1.2232 -1.1064  0.6041
 8372TIP3    H225056   3.292   5.223   2.883  0.4579  0.0019 -0.8927
 8373TIP3   OH225057   3.547   4.641   2.515  0.0912 -0.0888  0.0311
 8373TIP3    H125058   3.591   4.666   2.597 -0.4329 -0.7390  0.5119
 8373TIP3    H225059   3.565   4.548   2.505 -0.3032 -0.1283 -0.3200
 8374TIP3   OH225060   2.694   6.290   3.457 -0.3359 -0.0905 -0.5421
 8374TIP3    H125061   2.604   6.262   3.440 -0.8312  1.4688 -0.5905
 8374TIP3    H225062   2.691   6.324   3.546  0.0079  0.7463 -0.8488
 8375TIP3   OH225063   4.690   4.300   1.261  0.2301  0.2225 -0.0319
 8375TIP3    H125064   4.695   4.212   1.297 -1.5090 -0.4690 -1.4061
 8375TIP3    H225065   4.778   4.318   1.228  1.6117  0.4928  3.5847
 8376TIP3   OH225066   2.767   4.683   2.228 -0.0193 -0.0560  0.1500
 8376TIP3    H125067   2.851   4.640   2.213 -0.2005 -0.4736  0.3196
 8376TIP3    H225068   2.727   4.690   2.141  0.7659  1.3445 -0.1061
 8377TIP3   OH225069   2.211   7.360   2.978 -0.1264  0.1310 -0.1822
 8377TIP3    H125070   2.145   7.334   2.914 -0.4112  1.0725 -0.2805
 8377TIP3    H225071   2.161   7.393   3.053  0.2188 -0.0245  0.1186
 8378TIP3   OH225072   2.644   4.697   2.612 -0.0855  0.5787  0.1170
 8378TIP3    H125073   2.557   4.737   2.623 -1.6444 -2.5561 -0.2444
 8378TIP3    H225074   2.681   4.698   2.700 -2.6285 -2.5836  1.3493
 8379TIP3   OH225075   3.801   4.820   3.771  0.1953  0.1321 -0.3364
 8379TIP3    H125076   3.736   4.803   3.703  0.3591  0.1809 -0.5060
 8379TIP3    H225077   3.841   4.735   3.789 -0.7598 -0.1154  0.6337
 8380TIP3   OH225078   5.666   4.544   4.068  0.2918  0.1689 -0.1288
 8380TIP3    H125079   5.603   4.518   4.000  0.8017 -1.6608  0.0745
 8380TIP3    H225080   5.739   4.483   4.057  0.6414  0.2358  1.6690
 8381TIP3   OH225081   1.695   5.741   3.642 -0.5011 -0.2106 -0.2257
 8381TIP3    H125082   1.667   5.761   3.731 -0.3524 -0.8768 -0.0254
 8381TIP3    H225083   1.718   5.826   3.604 -0.3023  0.0429  0.4571
 8382TIP3   OH225084   2.315   4.927   4.509 -0.2022  0.2098  0.2970
 8382TIP3    H125085   2.272   4.855   4.463 -2.0785 -0.0701  2.4032
 8382TIP3    H225086   2.270   5.006   4.477 -0.0544  0.2038  0.0725
 8383TIP3   OH225087   4.205   5.461   3.004 -0.1482 -0.0795  0.0215
 8383TIP3    H125088   4.281   5.469   3.061  0.6931  0.9955 -1.2441
 8383TIP3    H225089   4.231   5.397   2.937  0.0607  1.1336 -1.0696
 8384TIP3   OH225090   3.393   4.194   1.061 -0.3485 -0.1435 -0.8993
 8384TIP3    H125091   3.363   4.240   1.139 -0.8960 -3.1649  0.7502
 8384TIP3    H225092   3.488   4.202   1.062 -0.2312 -1.5480  1.0046
 8385TIP3   OH225093   5.046   7.235   4.325  0.3676  0.3573 -0.0432
 8385TIP3    H125094   5.077   7.146   4.309  0.1849  0.0446  1.2990
 8385TIP3    H225095   5.065   7.251   4.417 -0.8944  1.1741  0.0922
 8386TIP3   OH225096   3.845   4.570   5.821  0.1172 -0.2111 -0.2587
 8386TIP3    H125097   3.901   4.554   5.745 -0.8958 -0.7619 -0.9055
 8386TIP3    H225098   3.773   4.622   5.786 -0.6581 -0.9706  0.2022
 8387TIP3   OH225099   2.206   4.007   3.021 -0.4463 -0.1837 -0.3630
 8387TIP3    H125100   2.166   3.920   3.019  0.4858 -0.7600  2.7080
 8387TIP3    H225101   2.300   3.990   3.021 -0.2576  0.8448 -0.2060
 8388TIP3   OH225102   1.694   6.449   3.965  0.0940  0.2854  0.4624
 8388TIP3    H125103   1.770   6.437   4.022  0.1970  0.6566  0.4021
 8388TIP3    H225104   1.710   6.388   3.892  1.5306  2.0896 -0.7659
 8389TIP3   OH225105   3.590   3.881   3.829  0.2115 -0.0700  0.0182
 8389TIP3    H125106   3.561   3.801   3.874 -0.6902 -0.9695 -2.1014
 8389TIP3    H225107   3.576   3.863   3.736 -1.7329  3.2335 -0.4097
 8390TIP3   OH225108   3.900   5.842   3.605  0.2785  0.1897  0.1189
 8390TIP3    H125109   3.970   5.808   3.549 -0.1024  1.0954 -0.9228
 8390TIP3    H225110   3.943   5.862   3.688  0.9875 -0.5135 -0.0804
 8391TIP3   OH225111   4.359   5.670   4.306  0.0403 -0.2544  0.6855
 8391TIP3    H125112   4.310   5.595   4.272 -1.1785  0.2251  1.3852
 8391TIP3    H225113   4.444   5.634   4.331  0.0234 -1.1028 -0.4580
 8392TIP3   OH225114   3.201   4.403   3.011  0.5756 -0.6544 -0.0378
 8392TIP3    H125115   3.240   4.413   2.924 -0.6501 -1.5296 -0.7085
 8392TIP3    H225116   3.254   4.336   3.054  0.6604 -0.8490 -0.4404
 8393TIP3   OH225117   1.931   4.857   3.483  0.3806 -0.2492 -0.3194
 8393TIP3    H125118   1.903   4.777   3.439 -0.0418  0.5757 -1.5603
 8393TIP3    H225119   2.007   4.886   3.434  0.0275  0.5728 -0.3799
 8394TIP3   OH225120   3.647   4.660   3.321  0.0770 -0.2279  0.3184
 8394TIP3    H125121   3.644   4.751   3.292 -0.0005 -0.5605 -0.7333
 8394TIP3    H225122   3.680   4.611   3.246 -3.0846 -1.5203 -0.3181
 8395TIP3   OH225123   2.278   3.575   3.179 -0.1174 -0.0269 -0.1561
 8395TIP3    H125124   2.362   3.619   3.170 -0.9771  1.8247  0.6398
 8395TIP3    H225125   2.300   3.490   3.219  1.5547 -0.3910 -1.7828
 8396TIP3   OH225126   5.011   6.916   2.871  0.5732  0.4253 -0.7071
 8396TIP3    H125127   5.048   7.001   2.895 -2.3548  1.9679 -1.4394
 8396TIP3    H225128   4.937   6.904   2.930  0.4782 -1.2688 -1.1324
 8397TIP3   OH225129   3.483   7.236   2.440 -0.1436 -0.1535  0.5740
 8397TIP3    H125130   3.408   7.197   2.396 -0.2111  1.4090 -0.7692
 8397TIP3    H225131   3.559   7.193   2.401 -0.3401 -1.9530  2.1545
 8398TIP3   OH225132   2.433   5.166   6.314 -0.5332  0.3564 -0.1965
 8398TIP3    H125133   2.441   5.178   6.409  0.7674  3.3137 -0.6170
 8398TIP3    H225134   2.400   5.251   6.283 -3.5908 -1.4434 -2.1045
 8399TIP3   OH225135   3.721   3.505   4.485  0.2238 -0.4663  0.1358
 8399TIP3    H125136   3.713   3.415   4.454  0.3636 -0.6429  0.6078
 8399TIP3    H225137   3.632   3.533   4.503  0.1892 -0.5510  0.0962
 8400TIP3   OH225138   5.645   4.988   2.222  0.4180 -0.7021  0.7645
 8400TIP3    H125139   5.726   4.939   2.208 -0.1850 -2.0536  1.8833
 8400TIP3    H225140   5.576   4.925   2.204 -0.3904  0.2435  0.5197
 8401TIP3   OH225141   4.128   6.534   5.688 -0.0057  0.0429 -0.1514
 8401TIP3    H125142   4.165   6.569   5.770  1.1727 -1.0162 -0.2041
 8401TIP3    H225143   4.167   6.446   5.681  2.4759  1.3088 -3.5078
 8402TIP3   OH225144   3.814   5.557   3.712 -0.0177  0.2835 -0.4791
 8402TIP3    H125145   3.786   5.644   3.684  0.7101  0.4342 -0.7625
 8402TIP3    H225146   3.796   5.500   3.637  0.7102  0.4398 -0.7788
 8403TIP3   OH225147   6.679  -0.024   3.493 -0.2313  0.2477  0.5900
 8403TIP3    H125148   6.745  -0.030   3.424 -1.3912 -0.4705 -0.4917
 8403TIP3    H225149   6.651   0.068   3.491  0.4883  0.4738  0.8223
 8404TIP3   OH225150   2.778   5.899   4.923  0.2729  0.1253  0.4880
 8404TIP3    H125151   2.756   5.883   5.014 -0.1226  1.6736  0.6656
 8404TIP3    H225152   2.854   5.957   4.926  0.8190 -0.5431 -0.1649
 8405TIP3   OH225153   1.470   3.599   2.870 -0.2877  0.6655  0.3635
 8405TIP3    H125154   1.421   3.523   2.839  0.6261 -0.5303  1.8186
 8405TIP3    H225155   1.416   3.636   2.941 -0.3284  0.9036  0.2116
 8406TIP3   OH225156   3.140   5.715   2.565  0.0377  0.2254 -0.2939
 8406TIP3    H125157   3.197   5.792   2.575 -1.0601  0.7683  2.1723
 8406TIP3    H225158   3.182   5.663   2.496  2.9268  1.1309  0.6895
 8407TIP3   OH225159   4.690   5.957   4.006  0.1664  0.0755 -0.4727
 8407TIP3    H125160   4.763   5.912   3.962 -0.3570 -0.2339 -1.0457
 8407TIP3    H225161   4.671   6.032   3.950 -0.6941 -0.4816 -0.9510
 8408TIP3   OH225162   3.133   5.698   4.496  0.3417  0.8483 -0.1872
 8408TIP3    H125163   3.146   5.763   4.426  0.0594  1.9177  0.7450
 8408TIP3    H225164   3.066   5.736   4.552  0.0248 -0.3553  0.2569
 8409TIP3   OH225165   4.081   6.057   3.258 -0.1268 -0.2297  0.3553
 8409TIP3    H125166   4.175   6.049   3.269 -0.2154 -0.2776  1.1550
 8409TIP3    H225167   4.068   6.140   3.214  0.1794  0.7504  2.0795
 8410TIP3   OH225168   2.854   4.781   4.578  0.3661  0.0695  0.0489
 8410TIP3    H125169   2.858   4.686   4.579 -0.7135  0.0023 -0.7597
 8410TIP3    H225170   2.790   4.802   4.510  2.8195  1.4465 -1.9524
 8411TIP3   OH225171   2.089   6.091   4.526 -0.0293  0.1344  0.5340
 8411TIP3    H125172   2.034   6.036   4.470  1.4851 -0.5094 -0.3262
 8411TIP3    H225173   2.104   6.038   4.604  3.1387 -1.5861 -1.1492
 8412TIP3   OH225174   4.142   5.733   2.976  0.1594 -0.5433  0.4345
 8412TIP3    H125175   4.161   5.646   2.942  1.5017  0.0044 -0.2912
 8412TIP3    H225176   4.122   5.719   3.069  0.7834 -1.5786  0.4237
 8413TIP3   OH225177   3.815   5.891   4.213 -0.1226 -1.1048 -0.3987
 8413TIP3    H125178   3.862   5.972   4.235 -1.1476 -0.5091 -0.3746
 8413TIP3    H225179   3.860   5.823   4.263 -0.1754 -0.3209  0.7328
 8414TIP3   OH225180   4.862   7.238   3.075 -0.2753  0.4195 -0.3278
 8414TIP3    H125181   4.941   7.186   3.060  0.1729  0.9515  0.1602
 8414TIP3    H225182   4.829   7.209   3.160 -2.1577 -1.7499 -1.7024
 8415TIP3   OH225183   3.544   5.394   3.032  0.1074 -0.3487  0.4663
 8415TIP3    H125184   3.531   5.483   3.000  1.4827  0.3296  1.7023
 8415TIP3    H225185   3.486   5.340   2.979  1.9424  0.7853 -2.8066
 8416TIP3   OH225186   2.511   4.805   1.460  0.5571 -0.3564  0.2766
 8416TIP3    H125187   2.519   4.871   1.392  0.5096 -1.1740 -0.5230
 8416TIP3    H225188   2.471   4.852   1.534 -0.0690  0.3480 -0.5038
 8417TIP3   OH225189   2.179   6.178   3.703 -0.0874  0.0515  0.3558
 8417TIP3    H125190   2.243   6.125   3.655  0.1643  0.5513  0.1330
 8417TIP3    H225191   2.106   6.189   3.642 -1.0446 -1.7576  1.1306
 8418TIP3   OH225192   5.220   0.358   2.681 -0.0876  0.2210 -0.0751
 8418TIP3    H125193   5.224   0.440   2.631 -1.2803 -1.3467 -2.8574
 8418TIP3    H225194   5.211   0.386   2.772  1.9882  3.1850 -0.6963
 8419TIP3   OH225195   3.552   6.200   5.590 -0.0242 -0.1909 -0.5809
 8419TIP3    H125196   3.506   6.187   5.673 -1.3009 -0.5800 -1.3252
 8419TIP3    H225197   3.639   6.231   5.615 -0.7324  0.6831  0.8713
 8420TIP3   OH225198   1.811   3.757   4.031  0.0948 -0.1098  0.5528
 8420TIP3    H125199   1.723   3.722   4.015 -0.1333  0.2818  0.9637
 8420TIP3    H225200   1.867   3.711   3.967 -0.2868 -0.8736  0.7604
 8421TIP3   OH225201   3.193   7.275   2.945  0.3539 -0.0855  0.1065
 8421TIP3    H125202   3.278   7.270   2.901  0.7736  0.7832  0.8119
 8421TIP3    H225203   3.213   7.306   3.033 -0.8806  2.1205 -0.3506
 8422TIP3   OH225204   7.431   0.113   2.383  0.3632 -0.3041 -0.3109
 8422TIP3    H125205   7.461   0.192   2.338  0.1278  0.9558  1.6866
 8422TIP3    H225206   7.403   0.143   2.470 -0.8046 -2.4054  0.0865
 8423TIP3   OH225207   7.352   0.348   3.527 -0.0178 -0.2934 -0.3899
 8423TIP3    H125208   7.260   0.376   3.521 -0.2712 -0.9134  0.5769
 8423TIP3    H225209   7.358   0.276   3.464 -0.0260  0.1496 -0.9112
 8424TIP3   OH225210   2.099   4.112   3.539  0.3893 -0.0370  0.4060
 8424TIP3    H125211   2.046   4.067   3.605  0.0378  0.5143  0.5051
 8424TIP3    H225212   2.040   4.121   3.464 -0.4027  2.5840  1.3109
 8425TIP3   OH225213   2.988   6.227   3.649  0.2949 -0.1884 -0.2944
 8425TIP3    H125214   2.905   6.187   3.673  1.1499 -2.2392 -0.6945
 8425TIP3    H225215   3.043   6.219   3.727  2.1063 -4.2920 -1.8360
 8426TIP3   OH225216   2.617   3.383   2.489  0.3791  0.2641  0.1095
 8426TIP3    H125217   2.708   3.408   2.508  0.5048  0.0827 -0.2688
 8426TIP3    H225218   2.573   3.389   2.574  0.8485 -0.1014  0.3801
 8427TIP3   OH225219   3.466   3.432   5.275  0.0869  0.5983  0.5898
 8427TIP3    H125220   3.401   3.459   5.209  0.7439 -0.0788 -0.3433
 8427TIP3    H225221   3.549   3.466   5.242  0.4813 -0.0958  0.8658
 8428TIP3   OH225222   2.892   4.797   4.881 -0.2410  0.2188 -0.0754
 8428TIP3    H125223   2.982   4.827   4.893  0.4747 -1.5066 -1.0287
 8428TIP3    H225224   2.882   4.786   4.787 -1.0722 -0.7449  0.1160
 8429TIP3   OH225225   3.243   3.696   0.599 -0.7806 -0.6895  0.2090
 8429TIP3    H125226   3.240   3.659   0.687 -0.1018 -0.2969  0.4004
 8429TIP3    H225227   3.199   3.781   0.607  1.8774  0.6886  0.8509
 8430TIP3   OH225228   3.131   4.691   2.732 -0.1735  0.3218  0.1849
 8430TIP3    H125229   3.129   4.632   2.656  0.0784 -2.1283  2.0196
 8430TIP3    H225230   3.052   4.669   2.782  0.2738  1.0755  1.2473
 8431TIP3   OH225231   2.684   3.240   3.792 -0.2360  0.0273  0.4664
 8431TIP3    H125232   2.612   3.270   3.848 -1.8067 -1.6389 -0.5849
 8431TIP3    H225233   2.671   3.286   3.709 -0.5120 -0.7565  0.0616
 8432TIP3   OH225234   5.188   4.827   2.141  0.3658  0.5532  0.0706
 8432TIP3    H125235   5.123   4.759   2.120 -0.2139 -0.0948  3.5496
 8432TIP3    H225236   5.269   4.778   2.155  1.1037  1.1268 -2.0374
 8433TIP3   OH225237   2.963   5.313   3.187  0.1212  0.2609  0.5003
 8433TIP3    H125238   2.978   5.231   3.139  0.3857 -0.3020  1.5403
 8433TIP3    H225239   3.038   5.368   3.164  0.8992 -0.4719  1.2403
 8434TIP3   OH225240   5.008   6.859   5.128 -0.8950 -0.1118 -0.1997
 8434TIP3    H125241   5.053   6.854   5.212  0.0395  0.8728 -0.6311
 8434TIP3    H225242   5.066   6.815   5.066 -1.5621 -0.8018 -0.3403
 8435TIP3   OH225243   3.296   4.682   3.205  0.2562 -0.0905  0.6588
 8435TIP3    H125244   3.323   4.693   3.296 -1.4010  0.1342  1.1458
 8435TIP3    H225245   3.204   4.657   3.210  0.1897 -0.2335 -0.9512
 8436TIP3   OH225246   2.041   4.560   5.241  0.1096 -0.5252  0.0549
 8436TIP3    H125247   2.118   4.617   5.245 -1.3432  1.6854 -1.8025
 8436TIP3    H225248   2.009   4.557   5.332  0.8267  0.7759  0.3714
 8437TIP3   OH225249   1.485   5.248   3.596 -0.0990 -0.4671 -0.0288
 8437TIP3    H125250   1.495   5.335   3.635 -1.8476 -0.5346  0.6172
 8437TIP3    H225251   1.574   5.217   3.585  0.5940  1.7884 -1.1464
 8438TIP3   OH225252   1.353   4.110   2.807 -0.6650  0.1328  0.7478
 8438TIP3    H125253   1.315   4.024   2.829 -0.0254  0.3016  2.5563
 8438TIP3    H225254   1.411   4.092   2.734 -0.4924 -0.9947  1.1508
 8439TIP3   OH225255   2.194   3.213   1.280 -0.1999  0.0176 -0.5308
 8439TIP3    H125256   2.202   3.227   1.185  0.2820  0.0094 -0.4934
 8439TIP3    H225257   2.227   3.124   1.294  0.4749  0.3078 -0.2545
 8440TIP3   OH225258   3.035   4.917   3.671 -0.0799  0.4211  0.0840
 8440TIP3    H125259   3.066   4.984   3.609 -0.6172  1.6100  1.0790
 8440TIP3    H225260   3.011   4.967   3.750 -2.9443 -0.6477 -0.0672
 8441TIP3   OH225261   3.820   4.705   2.393  0.1020  1.0981  0.7385
 8441TIP3    H125262   3.780   4.618   2.385  2.6785 -0.1633  1.1614
 8441TIP3    H225263   3.779   4.743   2.472  0.5799 -0.6218  1.8305
 8442TIP3   OH225264   1.483   6.462   2.919  0.4698  0.9365  0.4316
 8442TIP3    H125265   1.443   6.383   2.955  1.3112  0.9301  1.3946
 8442TIP3    H225266   1.410   6.523   2.906 -0.4689 -0.6635 -2.1946
 8443TIP3   OH225267   3.557   3.951   1.337  0.4790  0.4183 -0.2698
 8443TIP3    H125268   3.588   3.991   1.255  0.6613  0.6641 -0.0815
 8443TIP3    H225269   3.530   4.025   1.391  0.6152  0.2733 -0.0010
 8444TIP3   OH225270   3.183   5.104   4.102  0.7432 -0.2847  0.4303
 8444TIP3    H125271   3.249   5.067   4.044  1.2361 -2.0979  2.1171
 8444TIP3    H225272   3.100   5.075   4.064  1.0172 -0.6675  0.1162
 8445TIP3   OH225273   5.580   6.216   1.013 -0.4436 -0.2615 -0.3156
 8445TIP3    H125274   5.547   6.221   1.103  1.6959 -1.3613  0.5416
 8445TIP3    H225275   5.619   6.302   0.997  2.3823 -1.2360  1.1000
 8446TIP3   OH225276   2.300   5.049   4.051  0.4143  0.8982 -0.2639
 8446TIP3    H125277   2.370   5.043   3.987  0.8551  1.9020  0.1175
 8446TIP3    H225278   2.220   5.030   4.001  0.9253 -0.0854 -0.7302
 8447TIP3   OH225279   3.452   6.962   4.588  0.3278 -0.0810  0.2560
 8447TIP3    H125280   3.493   7.040   4.551  0.9690  0.4531  2.0139
 8447TIP3    H225281   3.520   6.895   4.584  0.7550  0.2704  1.4017
 8448TIP3   OH225282   5.284   5.009   2.616 -0.4555 -0.0851  0.0965
 8448TIP3    H125283   5.231   4.958   2.555 -0.9400  0.3509  0.1513
 8448TIP3    H225284   5.348   5.053   2.561 -1.6236  1.2332 -0.2543
 8449TIP3   OH225285   3.070   5.399   5.283  0.0422  0.3235 -0.9727
 8449TIP3    H125286   3.033   5.452   5.212 -0.0965  1.0035 -0.3960
 8449TIP3    H225287   3.165   5.408   5.271  0.0681 -1.9591 -2.8536
 8450TIP3   OH225288   3.936   5.679   4.384 -0.5043  0.2837  0.2108
 8450TIP3    H125289   3.984   5.671   4.466  1.0706 -1.0863 -0.8336
 8450TIP3    H225290   3.983   5.624   4.322 -0.1203  3.3460 -2.3521
 8451TIP3   OH225291   4.172   5.163   3.423  0.1951 -0.6811 -0.1814
 8451TIP3    H125292   4.187   5.128   3.510  1.5828 -1.1030 -0.5742
 8451TIP3    H225293   4.087   5.128   3.397  0.2869 -1.4658  0.5584
 8452TIP3   OH225294   3.490   6.692   5.519  0.2089 -0.2118  0.4754
 8452TIP3    H125295   3.397   6.701   5.498 -0.2091 -2.3035  1.2789
 8452TIP3    H225296   3.506   6.756   5.588 -0.3925  0.8630 -0.3776
 8453TIP3   OH225297   3.174   4.294   1.228  0.0809 -0.1695 -0.2153
 8453TIP3    H125298   3.107   4.334   1.172  0.7402 -1.2677 -1.8161
 8453TIP3    H225299   3.134   4.293   1.315 -1.7876 -0.3011 -1.0379
 8454TIP3   OH225300   4.030   4.947   4.853 -0.3681  0.0420 -0.1233
 8454TIP3    H125301   4.111   4.989   4.823 -0.8932  1.8028  0.8562
 8454TIP3    H225302   3.989   4.915   4.773  0.9832 -0.2871 -0.6938
 8455TIP3   OH225303   4.098   6.341   2.394 -0.0291  0.1406  0.3414
 8455TIP3    H125304   4.029   6.291   2.437 -1.1833  0.5552 -1.0079
 8455TIP3    H225305   4.104   6.302   2.306  1.7212 -0.1532  0.5725
 8456TIP3   OH225306   2.350   5.307   3.845  0.4650 -0.3767  0.1705
 8456TIP3    H125307   2.388   5.328   3.930  3.3975  0.0610 -1.2035
 8456TIP3    H225308   2.387   5.222   3.822  0.5050 -0.0162 -1.1330
 8457TIP3   OH225309   2.889   5.854   3.343 -0.1026 -0.6170 -0.1567
 8457TIP3    H125310   2.954   5.877   3.277 -1.4116  0.3626 -1.1474
 8457TIP3    H225311   2.806   5.887   3.307 -1.2324 -2.3114  0.8138
 8458TIP3   OH225312   4.615   5.053   4.656 -0.4061  0.5649  0.2421
 8458TIP3    H125313   4.584   5.142   4.671  0.9663  0.8670  1.4343
 8458TIP3    H225314   4.609   5.011   4.741 -0.0354 -0.1465 -0.0829
 8459TIP3   OH225315   2.663   4.848   5.444  0.8204 -0.1474 -0.4199
 8459TIP3    H125316   2.609   4.896   5.381  1.7938  0.3047 -0.9257
 8459TIP3    H225317   2.718   4.791   5.389  0.2094 -1.2896  0.1383
 8460TIP3   OH225318   3.531   5.205   5.561  0.2663  0.0112  0.0891
 8460TIP3    H125319   3.542   5.299   5.579 -0.0062 -0.2175  1.4818
 8460TIP3    H225320   3.524   5.200   5.466  1.2048  1.3115 -0.0703
 8461TIP3   OH225321   5.236   6.403   3.001 -0.4549 -0.2766  0.4285
 8461TIP3    H125322   5.280   6.342   2.943 -0.9771 -0.9149  0.6934
 8461TIP3    H225323   5.303   6.467   3.025  1.1124 -2.7207  2.9484
 8462TIP3   OH225324   2.964   6.344   3.316  0.1143  0.4570 -0.1620
 8462TIP3    H125325   3.016   6.274   3.357  1.9919  1.7935 -0.2074
 8462TIP3    H225326   2.876   6.334   3.354  0.0681 -2.5202 -0.8958
 8463TIP3   OH225327   4.375   5.128   2.220  0.1824  0.1882 -0.8434
 8463TIP3    H125328   4.418   5.150   2.138 -0.1721 -0.0102 -1.0868
 8463TIP3    H225329   4.321   5.205   2.241  1.1312  0.6867 -0.2130
 8464TIP3   OH225330   3.360   5.198   4.313 -0.6629 -0.1859  0.0143
 8464TIP3    H125331   3.344   5.289   4.339  1.4663  0.6345 -1.4218
 8464TIP3    H225332   3.300   5.183   4.241 -1.1378  0.0295  0.3617
 8465TIP3   OH225333   2.617   5.452   6.852 -0.4782  0.1534 -0.0555
 8465TIP3    H125334   2.607   5.537   6.809  0.4003  0.8472  1.0935
 8465TIP3    H225335   2.528   5.415   6.853 -1.0873  1.6121  0.5697
 8466TIP3   OH225336   4.286   7.842   2.854 -0.1126 -0.0220  0.0444
 8466TIP3    H125337   4.297   7.923   2.905  0.3352  0.8746 -1.4344
 8466TIP3    H225338   4.375   7.806   2.848  0.4883  1.8074 -3.1649
 8467TIP3   OH225339   3.683   4.512   3.100 -0.3603  0.6147  0.4046
 8467TIP3    H125340   3.609   4.537   3.045  0.7457 -1.4200 -2.1489
 8467TIP3    H225341   3.750   4.578   3.082  0.5772 -0.9082 -2.0754
 8468TIP3   OH225342   3.830   6.466   5.650  0.0814  0.0054 -0.0746
 8468TIP3    H125343   3.918   6.502   5.649  0.1242 -0.1017 -1.8693
 8468TIP3    H225344   3.839   6.380   5.691  0.7502  0.1628  0.0997
 8469TIP3   OH225345   4.032   4.648   1.770  0.0894 -0.5626 -0.0881
 8469TIP3    H125346   3.986   4.701   1.705 -0.0306 -1.0590 -0.4069
 8469TIP3    H225347   3.966   4.589   1.805  0.0119  0.1015  0.9209
 8470TIP3   OH225348   3.853   7.090   4.594 -0.2350 -0.1358  0.2814
 8470TIP3    H125349   3.926   7.136   4.636  0.4551 -0.2251 -0.7801
 8470TIP3    H225350   3.883   7.000   4.585 -0.8398 -0.3766  0.6648
 8471TIP3   OH225351   4.486   7.163   2.382  0.0281  0.3275  0.4686
 8471TIP3    H125352   4.460   7.125   2.298 -2.4819  3.6864 -0.3794
 8471TIP3    H225353   4.580   7.178   2.374  0.4724 -2.5851 -0.3544
 8472TIP3   OH225354   4.164   7.027   5.267 -0.3885 -0.3430 -0.2406
 8472TIP3    H125355   4.098   7.040   5.198 -0.3962  0.2364 -0.1255
 8472TIP3    H225356   4.117   7.044   5.348  0.1190  0.9082 -0.2055
 8473TIP3   OH225357   2.774   5.487   3.577  0.4974 -0.0401  0.0672
 8473TIP3    H125358   2.793   5.426   3.649  0.0962 -0.0472  0.1656
 8473TIP3    H225359   2.679   5.487   3.570  0.5155  0.3226 -0.1539
 8474TIP3   OH225360   1.237   4.797   5.555  0.1978 -0.4117  0.3460
 8474TIP3    H125361   1.152   4.801   5.598  0.3553  0.5718  0.5782
 8474TIP3    H225362   1.217   4.809   5.462  0.0380 -0.6691  0.3458
 8475TIP3   OH225363   2.708   5.089   2.985  0.1188 -0.3380  0.2803
 8475TIP3    H125364   2.725   5.065   2.894  1.4323  2.9246 -0.4159
 8475TIP3    H225365   2.791   5.072   3.030  0.3390  0.6619  0.2639
 8476TIP3   OH225366   1.277   4.804   0.617 -0.3631 -0.4903 -0.3017
 8476TIP3    H125367   1.281   4.839   0.528  0.5386  0.6889  0.1885
 8476TIP3    H225368   1.261   4.710   0.606 -1.3608 -0.1686 -1.6708
 8477TIP3   OH225369   3.384   5.430   2.618 -0.1955 -0.1662 -0.3410
 8477TIP3    H125370   3.419   5.354   2.572 -1.3668  0.0619 -1.6409
 8477TIP3    H225371   3.460   5.487   2.631  0.2959 -0.5961 -1.2600
 8478TIP3   OH225372   1.174   5.013   4.530  0.2689  0.9252  0.1438
 8478TIP3    H125373   1.263   5.050   4.528 -0.0262  1.5851 -0.6877
 8478TIP3    H225374   1.138   5.043   4.614  0.5479  1.3123  0.1253
 8479TIP3   OH225375   4.436   6.126   1.527 -0.1902 -0.0941 -0.0743
 8479TIP3    H125376   4.363   6.074   1.492 -0.9501 -0.6999  2.2836
 8479TIP3    H225377   4.456   6.189   1.459 -0.7373 -2.0610 -2.1189
 8480TIP3   OH225378   2.230   4.765   5.279 -0.2127 -0.1204 -0.2019
 8480TIP3    H125379   2.278   4.814   5.213 -0.9775 -0.9182 -1.3878
 8480TIP3    H225380   2.297   4.724   5.333  0.4225  1.4720  0.2324
 8481TIP3   OH225381   1.926   4.234   2.452  0.4225 -0.1839  0.4580
 8481TIP3    H125382   1.897   4.300   2.388  1.2895  0.1375  0.3762
 8481TIP3    H225383   2.021   4.231   2.440  0.7473  0.7594  2.5807
 8482TIP3   OH225384   2.992   5.637   3.800  0.1384  0.0308 -0.0674
 8482TIP3    H125385   2.986   5.664   3.709  1.1093  0.2381 -0.0741
 8482TIP3    H225386   2.991   5.541   3.796 -2.3569  0.0213 -0.1053
 8483TIP3   OH225387   3.725   5.711   4.564 -0.4583  0.8270  0.2781
 8483TIP3    H125388   3.729   5.620   4.535 -0.0405  0.3407  1.8421
 8483TIP3    H225389   3.775   5.759   4.498 -2.4199  0.2337 -1.7004
 8484TIP3   OH225390   2.327   3.862   3.462 -0.1787 -0.1313 -0.2482
 8484TIP3    H125391   2.375   3.816   3.393  1.0743 -0.2934  0.7037
 8484TIP3    H225392   2.243   3.884   3.423  0.0258 -1.3635 -1.3958
 8485TIP3   OH225393   2.663   4.650   1.684 -0.2874  0.4231 -0.6128
 8485TIP3    H125394   2.714   4.595   1.624 -0.2619  0.2843 -0.4623
 8485TIP3    H225395   2.594   4.687   1.629 -0.9300 -0.5812 -0.4927
 8486TIP3   OH225396   3.673   6.252   3.302  0.4459 -0.2417  0.0441
 8486TIP3    H125397   3.701   6.226   3.214 -2.7254 -0.8008 -0.8657
 8486TIP3    H225398   3.688   6.174   3.355  0.7793 -0.4710 -0.3812
 8487TIP3   OH225399   3.869   4.821   2.102 -0.2353  0.3379  0.5941
 8487TIP3    H125400   3.800   4.825   2.035  0.3688  0.8031 -0.0032
 8487TIP3    H225401   3.822   4.818   2.185 -0.9733  0.9006  0.1974
 8488TIP3   OH225402   5.607   5.358   3.467  0.1233  0.2986  0.4038
 8488TIP3    H125403   5.546   5.288   3.491 -3.6453  2.4473 -2.2025
 8488TIP3    H225404   5.646   5.329   3.385 -0.8593  0.8596 -0.2758
 8489TIP3   OH225405   2.494   5.018   5.989 -0.3035  0.5753 -0.0747
 8489TIP3    H125406   2.586   5.010   5.965 -0.2355  0.4549  0.2188
 8489TIP3    H225407   2.476   4.939   6.040 -1.0631 -0.3267 -1.6981
 8490TIP3   OH225408   3.082   6.540   2.716  0.0839  0.2884  0.3343
 8490TIP3    H125409   3.028   6.605   2.670 -0.5750  1.1778  2.2840
 8490TIP3    H225410   3.018   6.489   2.766  0.8229 -0.2880  0.6843
 8491TIP3   OH225411   4.361   3.374   3.462 -0.1830  0.1315 -0.2350
 8491TIP3    H125412   4.359   3.433   3.387 -1.6119 -1.6042 -1.6169
 8491TIP3    H225413   4.347   3.287   3.424 -1.2803 -0.7533  2.0843
 8492TIP3   OH225414   2.652   4.566   1.396  0.3717  0.5165  0.0027
 8492TIP3    H125415   2.616   4.527   1.316 -0.6967  0.8659  0.2976
 8492TIP3    H225416   2.640   4.660   1.383 -0.8877  0.5173  1.0642
 8493TIP3   OH225417   2.999   5.082   1.993 -0.2663 -0.1778 -0.0744
 8493TIP3    H125418   3.005   5.058   2.085  1.1185 -0.2781 -0.1821
 8493TIP3    H225419   2.921   5.037   1.961 -0.2440 -0.8663  0.8346
 8494TIP3   OH225420   2.553   6.607   2.096 -0.0757  0.1485 -0.6380
 8494TIP3    H125421   2.622   6.649   2.045 -1.4197  2.2190 -0.7708
 8494TIP3    H225422   2.521   6.536   2.040  1.0616 -0.0184 -1.0885
 8495TIP3   OH225423   6.569   0.023   4.006 -0.3027 -0.0943  0.4360
 8495TIP3    H125424   6.481   0.005   4.040 -0.0836 -0.1857  0.9616
 8495TIP3    H225425   6.627  -0.000   4.078  0.0327  2.0125  0.8927
 8496TIP3   OH225426   3.853   7.845   6.547  0.0149  0.2212  0.2175
 8496TIP3    H125427   3.889   7.930   6.574 -0.2496  0.6851 -0.8971
 8496TIP3    H225428   3.893   7.782   6.609  0.5848  1.0831  0.7397
 8497TIP3   OH225429   5.619   7.143   1.878 -0.1295 -0.2414 -0.5175
 8497TIP3    H125430   5.559   7.152   1.952  2.0815 -0.0853  1.3117
 8497TIP3    H225431   5.638   7.233   1.851  2.2098 -0.0956  1.4029
 8498TIP3   OH225432   2.688   5.525   2.630  0.9223  0.4538 -0.2198
 8498TIP3    H125433   2.702   5.455   2.565 -1.7596 -0.5424  0.1839
 8498TIP3    H225434   2.754   5.590   2.610  0.7815 -0.2821 -3.3688
 8499TIP3   OH225435   2.416   3.441   1.525  0.2418 -0.6021 -0.3710
 8499TIP3    H125436   2.438   3.446   1.432 -0.1212 -1.1502 -0.4924
 8499TIP3    H225437   2.384   3.528   1.547 -0.8508 -0.8139 -1.0705
 8500TIP3   OH225438   3.502   6.782   4.790 -0.4109 -0.5249  0.6164
 8500TIP3    H125439   3.466   6.868   4.771 -1.2789 -0.7116  1.3663
 8500TIP3    H225440   3.537   6.751   4.707 -1.1964  0.0363  0.0692
 8501TIP3   OH225441   2.096   5.679   3.240 -0.1806 -0.6680  0.0187
 8501TIP3    H125442   2.035   5.625   3.289  0.0017 -2.1577 -1.3590
 8501TIP3    H225443   2.064   5.769   3.253 -2.1394 -1.3399  0.0300
 8502TIP3   OH225444   5.161   7.774   4.535 -0.0391 -0.1117  0.5789
 8502TIP3    H125445   5.235   7.773   4.474 -0.5694  1.5408 -0.1244
 8502TIP3    H225446   5.104   7.844   4.502 -1.5844 -0.9178  1.4988
 8503TIP3   OH225447   4.214   6.544   3.388  0.2636  0.3212  0.5890
 8503TIP3    H125448   4.219   6.593   3.470  1.1450 -0.8819  1.2868
 8503TIP3    H225449   4.306   6.528   3.364  0.0029 -0.3083 -0.0177
 8504TIP3   OH225450   2.996   6.062   5.794 -0.1683  0.3252  0.5509
 8504TIP3    H125451   3.048   6.007   5.852 -2.2259 -0.9083  1.2690
 8504TIP3    H225452   3.058   6.094   5.729  1.7787  0.0907  2.2304
 8505TIP3   OH225453   0.954   3.239   3.377  0.2559 -0.5361  0.0578
 8505TIP3    H125454   0.954   3.327   3.339  1.1837 -1.0648 -1.2128
 8505TIP3    H225455   0.869   3.231   3.420  0.4173  1.2051  0.7106
 8506TIP3   OH225456   3.095   6.869   5.743  0.8183  0.3418 -0.0688
 8506TIP3    H125457   3.018   6.917   5.716  0.5015  0.7015  1.4301
 8506TIP3    H225458   3.120   6.908   5.827  2.2256 -0.2151 -0.2052
 8507TIP3   OH225459   2.998   6.523   1.877  0.1641 -0.1460  0.5469
 8507TIP3    H125460   2.949   6.462   1.822 -0.4925  0.6724  0.2008
 8507TIP3    H225461   3.045   6.468   1.939  0.6144 -1.0619 -0.6062
 8508TIP3   OH225462   5.226   5.239   3.222 -0.2997  0.1921  0.2885
 8508TIP3    H125463   5.294   5.186   3.264  0.1918  0.3578 -0.2995
 8508TIP3    H225464   5.144   5.191   3.239  0.0686 -0.4576  0.2439
 8509TIP3   OH225465   3.669   5.749   3.474  0.1746  0.2600 -0.9841
 8509TIP3    H125466   3.633   5.689   3.539  0.5198  0.2585 -0.7923
 8509TIP3    H225467   3.748   5.785   3.516 -0.0529  0.8737 -1.0829
 8510TIP3   OH225468   5.135   5.309   2.008 -0.2529  0.0731 -0.0616
 8510TIP3    H125469   5.069   5.303   2.077  0.8904  2.5150  1.2855
 8510TIP3    H225470   5.170   5.220   2.001 -1.1625 -0.4536  1.6997
 8511TIP3   OH225471   2.749   4.805   3.814  0.2631 -0.5267  0.6275
 8511TIP3    H125472   2.790   4.722   3.789 -1.1972 -0.8617 -0.7249
 8511TIP3    H225473   2.819   4.870   3.806  1.1114 -1.4321  0.5455
 8512TIP3   OH225474   3.256   5.474   4.379 -0.1798  0.2608 -0.5489
 8512TIP3    H125475   3.284   5.551   4.330 -0.8036  0.5090 -0.5209
 8512TIP3    H225476   3.185   5.506   4.435 -2.5366 -0.9584 -2.7350
 8513TIP3   OH225477   3.625   2.928   5.556  0.0712 -0.3519 -0.0232
 8513TIP3    H125478   3.531   2.910   5.558 -0.3043  1.4286  3.7931
 8513TIP3    H225479   3.633   3.003   5.497 -0.7887 -1.0691 -1.0630
 8514TIP3   OH225480   2.123   5.670   6.629  0.0740 -0.2448 -0.6452
 8514TIP3    H125481   2.073   5.707   6.556  0.5887 -1.3702 -1.5982
 8514TIP3    H225482   2.196   5.730   6.641 -0.9982  0.9173  0.1483
 8515TIP3   OH225483   1.944   5.782   3.473  0.0476 -0.2139 -0.5736
 8515TIP3    H125484   1.876   5.716   3.458  0.3900 -0.4916 -0.9170
 8515TIP3    H225485   1.897   5.859   3.503 -0.6359  0.3656 -3.0868
 8516TIP3   OH225486   4.570   4.914   4.949 -0.7523 -1.0383 -0.1172
 8516TIP3    H125487   4.606   4.838   4.994 -0.5309 -1.2940 -0.7181
 8516TIP3    H225488   4.644   4.975   4.942 -0.4219 -1.5585 -1.3398
 8517TIP3   OH225489   2.174   5.139   6.067  0.2849  0.1023 -0.2263
 8517TIP3    H125490   2.270   5.141   6.070  0.3767 -1.1999 -2.0258
 8517TIP3    H225491   2.151   5.046   6.069 -0.9395  0.3905 -0.0914
 8518TIP3   OH225492   3.118   6.789   2.963  0.2641 -0.2619 -0.0997
 8518TIP3    H125493   3.189   6.765   3.023  1.7200  1.9919 -0.8522
 8518TIP3    H225494   3.040   6.749   3.002  1.3844  0.0571  2.6344
 8519TIP3   OH225495   1.473   2.152   0.188  0.2782  0.6781  0.7107
 8519TIP3    H125496   1.511   2.077   0.143 -0.9427 -0.3658  1.3900
 8519TIP3    H225497   1.508   2.148   0.276  0.9610  1.4702  0.4813
 8520TIP3   OH225498   3.341   5.277   5.841  0.2593  0.5862  0.3497
 8520TIP3    H125499   3.387   5.314   5.766 -1.0100 -0.1117 -0.8024
 8520TIP3    H225500   3.363   5.183   5.837 -1.5662  0.1753 -0.4655
 8521TIP3   OH225501   2.497   5.079   5.346 -0.6608 -0.3778 -0.4842
 8521TIP3    H125502   2.415   5.035   5.327 -1.3694  1.0826 -0.8300
 8521TIP3    H225503   2.541   5.087   5.262 -0.3577 -0.7560 -0.3651
 8522TIP3   OH225504   4.765   4.150   4.371 -0.0055 -0.4280  0.7607
 8522TIP3    H125505   4.734   4.204   4.298  0.5984  0.8713  1.4470
 8522TIP3    H225506   4.701   4.080   4.378 -1.2222  0.6071  0.3198
 8523TIP3   OH225507   7.939   0.641   1.579 -0.4254  0.1056  0.6829
 8523TIP3    H125508   7.918   0.720   1.529 -3.1069 -0.9573  0.0591
 8523TIP3    H225509   8.025   0.614   1.547 -0.6785  1.2515 -1.0079
 8524TIP3   OH225510   3.978   3.801   3.281 -0.2243  0.0622  0.2662
 8524TIP3    H125511   4.019   3.722   3.318  2.0430  1.3031  0.4753
 8524TIP3    H225512   3.911   3.825   3.346 -0.2354 -1.0776  0.7023
 8525TIP3   OH225513   2.980   5.660   3.531  0.1732 -0.1483 -0.2500
 8525TIP3    H125514   2.959   5.727   3.466 -0.7545  1.0037  1.2196
 8525TIP3    H225515   2.914   5.592   3.518 -0.5596  0.4931  0.0731
 8526TIP3   OH225516   4.910   4.451   2.882  0.1712 -0.5891  0.0705
 8526TIP3    H125517   4.893   4.367   2.925 -0.5804 -1.2980 -1.5752
 8526TIP3    H225518   4.962   4.500   2.946  3.5089 -3.5304 -0.2255
 8527TIP3   OH225519   4.977   7.718   3.009  0.0531 -0.3342  0.7166
 8527TIP3    H125520   5.006   7.789   3.067 -0.4550 -1.4880  2.4270
 8527TIP3    H225521   5.057   7.675   2.981  0.3703  0.9269 -0.3795
 8528TIP3   OH225522   4.630   7.011   2.696  0.4133 -0.0115  0.1055
 8528TIP3    H125523   4.539   7.027   2.670  0.1679  1.2563  1.6488
 8528TIP3    H225524   4.655   7.090   2.744  2.4966 -0.1603 -0.7040
 8529TIP3   OH225525   4.039   7.422   4.970 -0.3674 -0.2545 -0.8120
 8529TIP3    H125526   4.029   7.337   4.927  1.9411 -0.5347 -0.8538
 8529TIP3    H225527   4.063   7.401   5.060 -0.9720  0.3410 -0.5132
 8530TIP3   OH225528   0.772   1.625   3.994 -0.4391 -0.6472 -0.2110
 8530TIP3    H125529   0.770   1.533   4.021  0.2356 -0.5812  0.0715
 8530TIP3    H225530   0.690   1.661   4.027 -0.8542 -1.2253 -0.6037
 8531TIP3   OH225531   6.672   7.509   3.654  0.9152 -0.2024 -0.3140
 8531TIP3    H125532   6.592   7.464   3.626  0.8027  0.0963 -0.4693
 8531TIP3    H225533   6.676   7.492   3.748  1.0771 -0.8616 -0.4360
 8532TIP3   OH225534   0.712   4.392   3.195  0.3667 -0.3675 -0.3736
 8532TIP3    H125535   0.722   4.479   3.157  0.6176  0.2462  1.0801
 8532TIP3    H225536   0.698   4.334   3.119  1.3427  0.7586 -1.4344
 8533TIP3   OH225537   3.881   7.748   4.690  0.2249 -0.1943  0.0292
 8533TIP3    H125538   3.897   7.839   4.716 -2.7834  0.2694  0.4044
 8533TIP3    H225539   3.965   7.719   4.655  1.6294  2.2936  1.1573
 8534TIP3   OH225540   4.538   4.724   1.443 -0.0457  0.2885 -0.1361
 8534TIP3    H125541   4.509   4.715   1.534 -0.5813 -0.6389 -0.3853
 8534TIP3    H225542   4.529   4.635   1.407  1.7788  0.2826 -0.6200
 8535TIP3   OH225543   3.131   5.768   0.043 -0.3126 -0.3356  0.0109
 8535TIP3    H125544   3.209   5.765   0.099 -0.4381  0.0095  0.2045
 8535TIP3    H225545   3.125   5.859   0.015 -0.6302 -0.3709 -0.0319
 8536TIP3   OH225546   3.691   5.767   3.133  0.4331  0.3699 -0.1176
 8536TIP3    H125547   3.679   5.719   3.215  1.2745  5.0569  2.9137
 8536TIP3    H225548   3.783   5.790   3.132  0.4185  0.4345 -2.4111
 8537TIP3   OH225549   2.042   4.364   4.806 -0.0565  0.2074  0.8134
 8537TIP3    H125550   2.025   4.411   4.724 -1.1477  0.1484  1.0037
 8537TIP3    H225551   2.128   4.396   4.834 -0.3981  1.4273  0.4909
 8538TIP3   OH225552   3.140   4.515   6.274 -0.2106  0.3692 -0.6685
 8538TIP3    H125553   3.119   4.421   6.276 -0.5843  0.4830  1.1474
 8538TIP3    H225554   3.215   4.521   6.215 -0.0074 -1.1066 -0.5836
 8539TIP3   OH225555   3.956   5.046   3.298  0.0112  0.0409  0.8418
 8539TIP3    H125556   3.938   4.983   3.228  1.6221 -0.2102  0.6482
 8539TIP3    H225557   3.905   5.123   3.274  0.4928 -0.0761 -0.5648
 8540TIP3   OH225558   4.211   3.902   1.611 -0.0808 -0.1656  0.4245
 8540TIP3    H125559   4.117   3.893   1.599 -0.2239  0.2239  1.2168
 8540TIP3    H225560   4.247   3.902   1.522 -0.9123  0.5616  0.0865
 8541TIP3   OH225561   6.198   6.385   1.550 -0.2541 -0.5852  0.1183
 8541TIP3    H125562   6.204   6.421   1.638  1.3872 -0.8896  0.1448
 8541TIP3    H225563   6.133   6.440   1.506  0.8386  1.2258  0.7261
 8542TIP3   OH225564   3.156   5.090   1.165 -0.5649  0.0160 -0.1206
 8542TIP3    H125565   3.062   5.092   1.147 -0.5095 -0.9120 -0.4989
 8542TIP3    H225566   3.192   5.158   1.108 -1.2801  1.9336  1.6528
 8543TIP3   OH225567   2.987   5.005   2.252  0.2269  0.7668 -0.0710
 8543TIP3    H125568   3.002   4.922   2.297  3.5179  1.7421  0.7662
 8543TIP3    H225569   2.951   5.063   2.319  2.0796  1.2766  0.4981
 8544TIP3   OH225570   2.458   3.232   5.486 -0.2427  0.6510 -0.3115
 8544TIP3    H125571   2.480   3.177   5.412  0.6689  0.1675  0.3186
 8544TIP3    H225572   2.535   3.287   5.500  0.2587 -0.4634  1.3645
 8545TIP3   OH225573   6.593   7.051   5.508  0.4357 -0.6341  0.4509
 8545TIP3    H125574   6.518   7.053   5.450  0.5000  1.6305  0.3936
 8545TIP3    H225575   6.591   7.136   5.553  0.8671 -2.0091  3.1301
 8546TIP3   OH225576   3.914   6.224   2.584  0.7918 -0.1453  0.2319
 8546TIP3    H125577   3.822   6.213   2.610  1.2780 -0.8331  1.6878
 8546TIP3    H225578   3.948   6.288   2.646  1.2055  0.4173 -0.5672
 8547TIP3   OH225579   2.068   4.378   3.410  0.8049 -0.0063 -0.5346
 8547TIP3    H125580   2.137   4.331   3.457  0.4600 -0.5581 -0.5695
 8547TIP3    H225581   2.030   4.312   3.352  0.5618  0.4171 -0.8566
 8548TIP3   OH225582   4.288   4.548   0.698  0.5129  0.2330 -0.4588
 8548TIP3    H125583   4.291   4.534   0.792  2.1808  1.8543 -0.2381
 8548TIP3    H225584   4.378   4.534   0.668 -0.0063 -0.3369 -1.8322
 8549TIP3   OH225585   4.657   3.666   3.149  0.5531  0.2125 -0.2469
 8549TIP3    H125586   4.729   3.725   3.172  0.4579 -0.0231  0.6870
 8549TIP3    H225587   4.630   3.694   3.062 -0.0037  2.0818  0.5077
 8550TIP3   OH225588   4.439   5.565   3.160 -0.2354 -0.0627 -0.3344
 8550TIP3    H125589   4.490   5.581   3.080 -0.1635 -1.9249 -0.6948
 8550TIP3    H225590   4.498   5.514   3.216 -1.4243 -1.6234 -0.4652
 8551TIP3   OH225591   5.060   4.691   1.895 -0.4823  0.1390  0.2178
 8551TIP3    H125592   5.024   4.780   1.904 -0.0485  0.4015 -0.5866
 8551TIP3    H225593   4.993   4.634   1.933  0.1921  0.9737  2.7837
 8552TIP3   OH225594   5.168   5.559   4.058  0.5698 -0.1854  1.0793
 8552TIP3    H125595   5.178   5.555   4.154  1.1612 -0.2960  1.0136
 8552TIP3    H225596   5.245   5.513   4.024  1.5567  1.8312  0.5017
 8553TIP3   OH225597   2.770   6.246   6.725  1.0491 -0.2954  0.2994
 8553TIP3    H125598   2.715   6.201   6.661  1.6325 -0.8094  0.1593
 8553TIP3    H225599   2.794   6.328   6.682  4.6148 -2.2885 -1.7448
 8554TIP3   OH225600   2.336   6.392   4.401 -0.6479  0.0218  0.4430
 8554TIP3    H125601   2.349   6.480   4.366  0.6159  0.3061  1.6022
 8554TIP3    H225602   2.262   6.400   4.460 -2.9143 -0.4969 -2.2300
 8555TIP3   OH225603   3.637   5.202   4.175 -0.0766  0.7576 -0.5100
 8555TIP3    H125604   3.554   5.186   4.220 -0.1252 -2.6711 -1.6586
 8555TIP3    H225605   3.696   5.229   4.245 -1.6299  1.2204  0.6660
 8556TIP3   OH225606   7.603   0.731   5.154 -0.2403  0.1927  0.9903
 8556TIP3    H125607   7.690   0.699   5.128 -0.1277  0.7224  0.7195
 8556TIP3    H225608   7.556   0.741   5.072 -0.6971 -0.4792  1.1631
 8557TIP3   OH225609   2.433   6.789   5.221 -0.3081  0.4619 -0.1517
 8557TIP3    H125610   2.375   6.829   5.286  1.1499  1.8417  0.3216
 8557TIP3    H225611   2.518   6.829   5.236  0.6847 -1.2158 -1.1410
 8558TIP3   OH225612   4.930   4.922   6.396 -0.1643  0.4127  0.2442
 8558TIP3    H125613   4.847   4.911   6.349 -1.1257  0.6793  1.8463
 8558TIP3    H225614   4.905   4.928   6.488  1.6432  0.4942  0.7498
 8559TIP3   OH225615   3.126   5.948   2.254  0.0812 -0.3122  0.6861
 8559TIP3    H125616   3.084   5.863   2.268  0.7434 -0.7173  0.2632
 8559TIP3    H225617   3.054   6.010   2.242 -0.3874 -0.9856  0.0253
 8560TIP3   OH225618   3.754   4.832   3.498  0.3286  0.2388 -0.1212
 8560TIP3    H125619   3.850   4.837   3.499  0.4364 -1.1313 -1.2530
 8560TIP3    H225620   3.735   4.742   3.473 -1.2659  0.5252 -0.0169
 8561TIP3   OH225621   5.767   1.329   4.233  0.0045  0.0802 -0.1981
 8561TIP3    H125622   5.838   1.348   4.172  1.9424 -1.8118  1.3711
 8561TIP3    H225623   5.733   1.244   4.204 -1.8365  1.1334 -1.1323
 8562TIP3   OH225624   3.091   6.882   3.491 -0.0565  0.0648 -0.2527
 8562TIP3    H125625   3.113   6.957   3.437 -1.9668  0.7424 -0.1124
 8562TIP3    H225626   3.161   6.879   3.557  1.6772 -0.1128 -2.0500
 8563TIP3   OH225627   4.327   7.291   0.961  0.1363  0.3122 -0.4404
 8563TIP3    H125628   4.319   7.359   0.894  1.7738 -0.1143 -1.0770
 8563TIP3    H225629   4.246   7.299   1.012  0.3068  2.7693 -0.4780
 8564TIP3   OH225630   3.601   6.412   5.003  0.3452  0.2700  0.2463
 8564TIP3    H125631   3.588   6.498   5.042 -0.5987 -0.0132  0.5596
 8564TIP3    H225632   3.689   6.386   5.032  0.2608  0.7276  0.9202
 8565TIP3   OH225633   8.278   2.391   1.097  0.0555  0.0796 -0.5478
 8565TIP3    H125634   8.280   2.465   1.157 -0.1914  1.5050 -2.2617
 8565TIP3    H225635   8.367   2.355   1.100  0.1658  0.4226  0.3119
 8566TIP3   OH225636   4.354   4.746   3.583  0.2941  0.0453  0.2554
 8566TIP3    H125637   4.368   4.738   3.488 -1.4079 -1.0242  0.0732
 8566TIP3    H225638   4.269   4.788   3.591 -1.0082 -2.6523  1.2647
 8567TIP3   OH225639   3.801   6.663   3.255 -0.3170 -0.2225 -0.0919
 8567TIP3    H125640   3.801   6.758   3.249 -1.0547 -0.3293 -2.4760
 8567TIP3    H225641   3.887   6.636   3.223 -0.4740 -0.3764 -0.3968
 8568TIP3   OH225642   3.595   3.521   3.156  0.0703 -0.2110 -0.2362
 8568TIP3    H125643   3.672   3.495   3.206  0.6974 -0.0253 -1.1024
 8568TIP3    H225644   3.585   3.452   3.090 -0.5587 -0.2780 -0.0791
 8569TIP3   OH225645   1.294   6.523   2.019 -0.2938 -0.3262 -0.3478
 8569TIP3    H125646   1.360   6.460   2.048 -1.4006 -0.9508  0.8743
 8569TIP3    H225647   1.248   6.478   1.948  0.7822  0.2309 -1.4115
 8570TIP3   OH225648   2.375   4.975   3.047 -0.2279 -0.2986 -0.0671
 8570TIP3    H125649   2.422   5.057   3.028 -0.7984  0.0226 -0.0904
 8570TIP3    H225650   2.416   4.943   3.128  0.1725 -0.1263 -0.1982
 8571TIP3   OH225651   3.150   3.524   3.071  0.0268 -0.4378 -0.7223
 8571TIP3    H125652   3.133   3.502   3.162  1.5840 -1.8564 -0.7465
 8571TIP3    H225653   3.226   3.583   3.075 -0.6234  0.4278 -1.0289
 8572TIP3   OH225654   3.412   4.748   4.025 -0.0670 -0.0634 -0.2416
 8572TIP3    H125655   3.391   4.761   4.118  0.9763 -0.2619  0.0248
 8572TIP3    H225656   3.492   4.696   4.026 -0.8542 -1.3156 -1.2596
 8573TIP3   OH225657   4.129   2.218   3.346 -0.2138 -0.6117 -0.1269
 8573TIP3    H125658   4.084   2.173   3.418  0.5058 -2.2021 -0.6632
 8573TIP3    H225659   4.058   2.260   3.297 -0.9098 -1.2621  0.3026
 8574TIP3   OH225660   3.118   4.091   4.327  0.4260 -0.0101  0.2658
 8574TIP3    H125661   3.201   4.131   4.303  0.5178 -0.3245  0.0429
 8574TIP3    H225662   3.139   4.033   4.401  0.8669 -1.8656 -1.2687
 8575TIP3   OH225663   2.254   5.135   2.717 -0.0174  0.1899 -0.1452
 8575TIP3    H125664   2.303   5.183   2.785  0.0076  0.5406 -0.4091
 8575TIP3    H225665   2.198   5.202   2.677 -1.7371 -0.4735  1.0893
 8576TIP3   OH225666   3.111   4.469   5.864 -0.1909  0.7454  0.1364
 8576TIP3    H125667   3.185   4.409   5.867 -0.0845  0.8394 -0.4440
 8576TIP3    H225668   3.122   4.516   5.781  0.4632  2.5041  1.1839
 8577TIP3   OH225669   4.507   4.627   2.944 -0.6273  0.5255  0.1000
 8577TIP3    H125670   4.520   4.611   2.851 -0.0110 -0.5129  0.3580
 8577TIP3    H225671   4.576   4.690   2.967 -1.0679  1.1351 -0.2379
 8578TIP3   OH225672   2.665   5.751   2.360 -0.3102 -0.5286  0.0460
 8578TIP3    H125673   2.621   5.666   2.371 -1.5743  0.0479 -0.3971
 8578TIP3    H225674   2.731   5.753   2.429  1.3755 -2.8808 -1.4145
 8579TIP3   OH225675   2.958   4.997   3.933  0.2382 -0.0688 -0.0787
 8579TIP3    H125676   2.907   5.075   3.908 -0.0516  0.5454  2.3287
 8579TIP3    H225677   2.904   4.954   4.000  1.1394 -1.4822 -0.2564
 8580TIP3   OH225678   1.235   3.615   3.863 -0.1639 -0.6513  0.0153
 8580TIP3    H125679   1.249   3.543   3.801 -0.1692  0.1738 -0.9665
 8580TIP3    H225680   1.208   3.572   3.944  0.4001 -1.7908 -0.3829
 8581TIP3   OH225681   5.151   3.843   5.453  0.8376 -0.2113 -0.6193
 8581TIP3    H125682   5.215   3.778   5.424 -0.9089 -0.6000 -3.8322
 8581TIP3    H225683   5.187   3.927   5.426  1.6513 -0.0919  0.7975
 8582TIP3   OH225684   2.752   5.280   1.316 -0.6478 -0.0979  0.6035
 8582TIP3    H125685   2.798   5.233   1.386 -0.9814  0.3609  1.1297
 8582TIP3    H225686   2.700   5.346   1.361 -0.0727  0.8802 -0.1344
 8583TIP3   OH225687   3.830   6.352   3.073  0.0395  0.1514  0.4782
 8583TIP3    H125688   3.791   6.412   3.009  1.4350  0.3661 -0.1975
 8583TIP3    H225689   3.922   6.378   3.078  0.0824 -0.2240  2.1716
 8584TIP3   OH225690   7.636   0.767   3.593 -0.4156 -0.3190 -0.3152
 8584TIP3    H125691   7.695   0.697   3.622 -2.5695 -1.1055  2.3097
 8584TIP3    H225692   7.575   0.724   3.533 -0.7013 -0.3260 -0.0184
 8585TIP3   OH225693   5.585   5.668   1.994  0.0089 -0.0860 -0.1126
 8585TIP3    H125694   5.509   5.638   2.045 -0.3754 -0.3987 -0.8607
 8585TIP3    H225695   5.643   5.707   2.059 -1.3676  1.3069  0.3127
 8586TIP3   OH225696   6.264   5.263   5.617 -0.0158 -0.0922 -0.4131
 8586TIP3    H125697   6.359   5.273   5.613 -0.0099 -0.3857 -1.0778
 8586TIP3    H225698   6.230   5.351   5.601  0.1513  0.1518  0.5374
 8587TIP3   OH225699   4.911   4.350   1.563  0.3037  0.2818 -0.9656
 8587TIP3    H125700   4.880   4.414   1.627  1.0249 -0.0959 -0.2160
 8587TIP3    H225701   4.841   4.343   1.498 -0.5597  0.4682 -0.0579
 8588TIP3   OH225702   3.318   5.830   0.546  0.2098  0.1504 -0.3868
 8588TIP3    H125703   3.345   5.743   0.577 -0.2737  0.7734  1.8772
 8588TIP3    H225704   3.255   5.860   0.611 -0.3977  1.7847 -1.7009
 8589TIP3   OH225705   6.005   4.474   1.009  0.0546  0.1732  0.3663
 8589TIP3    H125706   6.054   4.433   0.938  0.0261  0.1132  0.3819
 8589TIP3    H225707   5.987   4.403   1.070 -0.7436  0.0366 -0.0210
 8590TIP3   OH225708   3.336   4.987   3.915  0.4499  0.3687  0.2744
 8590TIP3    H125709   3.420   5.029   3.900  0.8938 -0.7685 -0.4698
 8590TIP3    H225710   3.357   4.894   3.925 -0.9281 -0.2164 -1.9241
 8591TIP3   OH225711   3.503   3.686   1.244 -0.2646 -0.2041  0.3061
 8591TIP3    H125712   3.410   3.690   1.266 -0.6926 -0.4375 -1.3739
 8591TIP3    H225713   3.539   3.769   1.274 -1.2074  0.2696  0.1395
 8592TIP3   OH225714   6.966   7.571   1.813 -0.3691 -0.1905  0.3977
 8592TIP3    H125715   6.945   7.653   1.768  2.0310  0.0296 -0.4385
 8592TIP3    H225716   6.936   7.584   1.903 -4.6699 -0.3921 -0.9397
 8593TIP3   OH225717   6.307   4.829   0.610 -0.4320  0.2172  0.3194
 8593TIP3    H125718   6.230   4.780   0.639 -0.0460  0.8512  2.4987
 8593TIP3    H225719   6.278   4.920   0.610 -0.0742  0.3337 -0.2162
 8594TIP3   OH225720   0.551   5.169   4.800  0.1151  0.0143  0.3279
 8594TIP3    H125721   0.609   5.201   4.869  0.4173 -0.8505  0.4810
 8594TIP3    H225722   0.463   5.174   4.838  0.5040 -2.8387  1.7248
 8595TIP3   OH225723   5.763   4.743   4.937  0.4373 -0.5631  0.0836
 8595TIP3    H125724   5.854   4.772   4.937  0.8315 -1.7754  1.3572
 8595TIP3    H225725   5.712   4.824   4.941  1.4235  0.1608 -1.6115
 8596TIP3   OH225726   6.738   4.901   1.981  0.0454  0.0402 -0.0763
 8596TIP3    H125727   6.741   4.872   2.072 -0.4441  0.7207  0.1565
 8596TIP3    H225728   6.778   4.988   1.982 -1.0012  0.5309 -0.3170
 8597TIP3   OH225729   6.150   6.917   2.224 -0.2368  0.4657 -0.5383
 8597TIP3    H125730   6.127   6.960   2.141  2.5500  0.1831 -1.5228
 8597TIP3    H225731   6.168   6.989   2.284  0.3396  0.7023 -0.9826
 8598TIP3   OH225732   4.447   6.279   3.737  0.2232 -0.2575 -0.3425
 8598TIP3    H125733   4.378   6.290   3.671  0.7886 -0.3271 -0.9567
 8598TIP3    H225734   4.466   6.368   3.767 -0.0572 -0.2277 -0.2589
 8599TIP3   OH225735   5.709   6.109   3.743 -0.2331 -0.0586 -0.2411
 8599TIP3    H125736   5.653   6.181   3.773  0.9647 -0.1246  2.3714
 8599TIP3    H225737   5.675   6.032   3.789 -0.4480 -0.8490 -1.7040
 8600TIP3   OH225738   4.723   6.242   2.779 -0.2548 -0.1061  0.3031
 8600TIP3    H125739   4.698   6.270   2.867 -0.0467  0.6845  0.1115
 8600TIP3    H225740   4.819   6.232   2.784 -0.1627  0.6242 -0.0302
 8601TIP3   OH225741   3.473   7.120   4.850 -0.6023  0.1802  0.0007
 8601TIP3    H125742   3.504   7.119   4.759  1.2912 -0.5731  0.6267
 8601TIP3    H225743   3.525   7.187   4.893  1.1574 -1.9927  1.3810
 8602TIP3   OH225744   4.059   6.606   3.175 -0.1348  0.1975 -0.7448
 8602TIP3    H125745   4.109   6.683   3.145 -2.2372  1.6007 -0.7047
 8602TIP3    H225746   4.097   6.585   3.261 -0.4284  2.0240 -0.1488
 8603TIP3   OH225747   6.012   6.110   4.985 -0.2424 -0.1923 -0.1455
 8603TIP3    H125748   6.078   6.179   4.975 -1.6670  1.2662  0.4329
 8603TIP3    H225749   6.023   6.079   5.075 -0.5985  0.3057  0.0677
 8604TIP3   OH225750   6.478   2.981   5.137 -0.2877 -0.0635 -0.0357
 8604TIP3    H125751   6.434   2.897   5.122 -0.0166 -0.7580  2.7151
 8604TIP3    H225752   6.407   3.042   5.156 -0.4649  0.2970 -1.7736
 8605TIP3   OH225753   3.502   6.527   3.888  0.2204 -1.1203  0.3186
 8605TIP3    H125754   3.540   6.545   3.801 -2.8745 -1.7484 -1.2272
 8605TIP3    H225755   3.482   6.614   3.923 -0.0653 -0.9193 -0.3276
 8606TIP3   OH225756   4.753   6.659   4.073 -0.4695 -0.1301  0.4086
 8606TIP3    H125757   4.787   6.575   4.102 -0.0519  0.1317  0.6835
 8606TIP3    H225758   4.829   6.718   4.077 -0.9222  0.4214  0.8865
 8607TIP3   OH225759   4.976   6.798   2.607 -0.5938  0.1856 -0.1533
 8607TIP3    H125760   4.982   6.841   2.693  0.6408 -0.6079  0.1761
 8607TIP3    H225761   4.954   6.869   2.546 -2.9282  0.4958  1.0236
 8608TIP3   OH225762   4.812   6.277   4.374 -0.2988  0.0956 -0.2461
 8608TIP3    H125763   4.735   6.225   4.396 -0.4796  0.3542 -0.2580
 8608TIP3    H225764   4.877   6.254   4.440 -0.9307  1.0818  0.7388
 8609TIP3   OH225765   7.377   4.104   3.184 -0.4609 -0.3635 -0.5321
 8609TIP3    H125766   7.360   4.035   3.249  1.2937 -0.8059 -0.5182
 8609TIP3    H225767   7.318   4.175   3.209 -2.0201 -1.6977 -0.3108
 8610TIP3   OH225768   5.702   6.198   2.758 -0.8670 -0.6274 -0.8466
 8610TIP3    H125769   5.762   6.164   2.691 -1.3202  1.6496 -2.4628
 8610TIP3    H225770   5.726   6.150   2.838  1.7992 -1.1739 -1.9082
 8611TIP3   OH225771   1.144   1.281   1.600 -0.1163 -0.1467  0.5608
 8611TIP3    H125772   1.141   1.186   1.589  0.7541 -0.0559 -0.5374
 8611TIP3    H225773   1.129   1.315   1.512 -2.9819  0.7816  1.3430
 8612TIP3   OH225774   2.446   5.217   2.894  0.0334 -0.1958  0.0845
 8612TIP3    H125775   2.509   5.229   2.965  0.1192  0.3999 -0.0833
 8612TIP3    H225776   2.432   5.306   2.860  0.4733 -0.5626 -1.0552
 8613TIP3   OH225777   4.468   6.126   4.108  0.8185  0.1380 -0.5664
 8613TIP3    H125778   4.558   6.095   4.116  0.9419  0.7822  0.7461
 8613TIP3    H225779   4.476   6.220   4.097  0.3426  0.0762 -1.4288
 8614TIP3   OH225780   5.349   5.273   3.578 -0.5025  0.1079  0.3191
 8614TIP3    H125781   5.303   5.205   3.529  2.1347 -0.0150 -2.0867
 8614TIP3    H225782   5.311   5.355   3.547  0.2306 -0.0292 -0.9554
 8615TIP3   OH225783   4.944   5.307   4.296 -0.3612 -0.2659 -0.4846
 8615TIP3    H125784   4.932   5.377   4.359 -0.0943 -0.6889  0.0408
 8615TIP3    H225785   5.038   5.305   4.279 -0.2473 -1.0804  0.1904
 8616TIP3   OH225786   7.988   4.619   4.377  0.1882  0.0208 -0.2703
 8616TIP3    H125787   7.937   4.578   4.447  0.0926  0.9041  0.1809
 8616TIP3    H225788   7.980   4.713   4.393  1.4451  0.1906 -0.5591
 8617TIP3   OH225789   6.097   6.609   3.608 -0.0748  0.0843  0.3831
 8617TIP3    H125790   6.082   6.597   3.514  0.2001  0.6749  0.2611
 8617TIP3    H225791   6.075   6.524   3.646 -0.7693  0.0233 -0.1416
 8618TIP3   OH225792   4.396   5.368   5.036  0.1878 -0.2447 -0.7625
 8618TIP3    H125793   4.363   5.455   5.013  0.8850  0.2700  0.1408
 8618TIP3    H225794   4.438   5.380   5.121  0.1259 -1.5078 -0.5410
 8619TIP3   OH225795   6.504   7.315   5.523 -0.0531  0.1563  0.4808
 8619TIP3    H125796   6.585   7.338   5.477 -0.6594  0.3765 -0.4734
 8619TIP3    H225797   6.516   7.352   5.611  1.2334 -0.5282  0.6140
 8620TIP3   OH225798   4.568   6.739   2.819  0.1348 -0.4303 -0.1932
 8620TIP3    H125799   4.616   6.818   2.795 -0.9587 -0.2739 -1.9537
 8620TIP3    H225800   4.614   6.668   2.775 -0.7598 -0.3741 -1.2422
 8621TIP3   OH225801   4.068   5.935   4.936  0.3416 -0.2904  0.8614
 8621TIP3    H125802   4.154   5.944   4.896  0.8101 -0.1638  1.8846
 8621TIP3    H225803   4.073   5.854   4.986 -0.6573 -1.1135 -0.3629
 8622TIP3   OH225804   6.165   3.945   4.939 -0.4182  0.1125 -0.2992
 8622TIP3    H125805   6.224   3.941   4.863 -0.1517  0.9978 -0.1470
 8622TIP3    H225806   6.222   3.964   5.013 -0.9795  1.7271 -0.2694
 8623TIP3   OH225807   4.691   6.791   5.583  0.2486  0.4455 -0.1906
 8623TIP3    H125808   4.618   6.799   5.644 -0.5090  0.0454 -1.0273
 8623TIP3    H225809   4.653   6.746   5.507  1.8376 -1.5481  0.1711
 8624TIP3   OH225810   6.500   5.683   3.253 -0.4778 -0.0606 -0.0708
 8624TIP3    H125811   6.571   5.722   3.305  0.9178  0.6282 -2.4078
 8624TIP3    H225812   6.526   5.592   3.243 -0.0355  0.1379 -0.7340
 8625TIP3   OH225813   4.282   5.495   4.677  0.0138  0.1575  0.0688
 8625TIP3    H125814   4.369   5.534   4.668 -0.1698  0.7793  0.9104
 8625TIP3    H225815   4.261   5.503   4.770 -1.4804  1.2163 -0.3270
 8626TIP3   OH225816   4.178   4.707   4.903  0.2892 -0.3597 -0.3629
 8626TIP3    H125817   4.236   4.751   4.965 -0.8764  0.8370 -0.0904
 8626TIP3    H225818   4.104   4.767   4.893 -0.1751 -1.1567 -1.8745
 8627TIP3   OH225819   5.032   6.516   3.829 -0.2040 -0.3155  0.3584
 8627TIP3    H125820   5.018   6.425   3.802  0.8511 -0.7928  1.3586
 8627TIP3    H225821   5.086   6.509   3.907 -1.8868  1.0823  1.6985
 8628TIP3   OH225822   5.750   5.769   3.005 -0.2911 -0.4733  0.3278
 8628TIP3    H125823   5.675   5.729   2.962  1.1096 -2.4837 -0.2739
 8628TIP3    H225824   5.804   5.696   3.034  2.6568  0.9463 -1.3904
 8629TIP3   OH225825   3.399   6.312   4.838 -0.0298 -0.2206 -0.0724
 8629TIP3    H125826   3.459   6.372   4.883 -0.4976 -1.6099  2.4586
 8629TIP3    H225827   3.433   6.225   4.857 -0.3891 -0.8730 -2.2641
 8630TIP3   OH225828   3.523   5.743   4.759  0.2079  0.3387 -0.4184
 8630TIP3    H125829   3.599   5.709   4.712  1.0988 -0.5224  1.6008
 8630TIP3    H225830   3.467   5.667   4.772 -0.7454  0.8584 -1.3560
 8631TIP3   OH225831   6.680   7.680   5.129  0.3088 -0.4848 -0.6687
 8631TIP3    H125832   6.721   7.739   5.066  1.2051 -0.2641  0.0907
 8631TIP3    H225833   6.671   7.597   5.082  0.1502 -0.0774 -1.3610
 8632TIP3   OH225834   0.362   3.166   6.036  0.0513  0.2306  1.0829
 8632TIP3    H125835   0.286   3.159   6.093 -0.1027 -1.4290  0.6887
 8632TIP3    H225836   0.437   3.151   6.094  0.0933  1.6287  1.4239
 8633TIP3   OH225837   6.475   7.546   1.649  0.3980  0.0575  0.0109
 8633TIP3    H125838   6.403   7.494   1.612  0.6151 -0.8000  0.7836
 8633TIP3    H225839   6.553   7.493   1.633  0.9179  1.1623 -1.1595
 8634TIP3   OH225840   4.265   5.817   3.848  0.1694 -0.1864  0.1204
 8634TIP3    H125841   4.290   5.833   3.939  0.2536 -0.5806  0.1657
 8634TIP3    H225842   4.171   5.835   3.846  0.3614  0.8423  0.0496
 8635TIP3   OH225843   6.204   5.943   2.883  0.2218 -0.5038 -0.1913
 8635TIP3    H125844   6.244   6.024   2.851 -0.3320 -0.0116  0.3552
 8635TIP3    H225845   6.201   5.953   2.978  1.7159 -1.8993  0.0356
 8636TIP3   OH225846   5.324   7.295   2.006  0.1757  0.2306  0.5864
 8636TIP3    H125847   5.249   7.311   2.062  1.0850  2.1134  1.3023
 8636TIP3    H225848   5.337   7.377   1.958  1.6213 -0.1452  0.2999
 8637TIP3   OH225849   5.342   6.606   3.617 -0.3858 -0.1749 -0.6543
 8637TIP3    H125850   5.288   6.609   3.696 -0.3952 -1.2271 -0.6062
 8637TIP3    H225851   5.416   6.664   3.636 -1.1708  0.7898 -0.4857
 8638TIP3   OH225852   6.652   4.528   1.052 -0.1453 -0.2218  0.1206
 8638TIP3    H125853   6.641   4.622   1.033 -0.7393  0.1280  2.1025
 8638TIP3    H225854   6.717   4.525   1.122  0.6255 -1.3751 -0.6281
 8639TIP3   OH225855   6.145   5.119   4.137  0.0795  0.7900 -0.4027
 8639TIP3    H125856   6.124   5.210   4.119  0.0706  0.5822 -1.4894
 8639TIP3    H225857   6.062   5.072   4.131  0.2604  0.5370 -1.0238
 8640TIP3   OH225858   5.667   4.120   6.658 -0.2624  0.0578  0.3912
 8640TIP3    H125859   5.587   4.100   6.609 -1.7150 -1.0515  3.1301
 8640TIP3    H225860   5.713   4.184   6.603 -1.4619 -1.6500 -2.7325
 8641TIP3   OH225861   6.041   5.672   5.589 -0.2621 -0.2191  0.3909
 8641TIP3    H125862   6.036   5.618   5.510  1.3850 -1.7594  1.2936
 8641TIP3    H225863   5.988   5.624   5.653 -0.1246  0.0846  0.7307
 8642TIP3   OH225864   2.592   2.277   6.893 -0.0685 -0.4086  0.0238
 8642TIP3    H125865   2.613   2.192   6.853  0.4327 -0.0463 -0.4748
 8642TIP3    H225866   2.646   2.340   6.847  0.2378  0.0670  1.0154
 8643TIP3   OH225867   6.627   5.674   5.411 -0.1198 -0.1052 -0.3971
 8643TIP3    H125868   6.695   5.740   5.415 -1.1630  1.0337 -0.9869
 8643TIP3    H225869   6.546   5.722   5.428 -0.7944 -1.4146  0.2178
 8644TIP3   OH225870   4.044   7.617   3.974  0.4132 -0.2242  0.2623
 8644TIP3    H125871   4.076   7.527   3.979  1.4524  0.1903  1.1093
 8644TIP3    H225872   3.969   7.612   3.914  0.7488 -1.5661 -0.0644
 8645TIP3   OH225873   6.847   5.840   2.934  0.0690  0.2639  0.1070
 8645TIP3    H125874   6.752   5.829   2.940  0.0987 -0.0834 -0.0050
 8645TIP3    H225875   6.882   5.791   3.008  0.0165  2.9907  1.9902
 8646TIP3   OH225876   7.860   6.874   1.808 -0.5427 -0.1982 -0.0140
 8646TIP3    H125877   7.905   6.790   1.807 -0.9333 -0.4140  0.5461
 8646TIP3    H225878   7.782   6.859   1.861 -0.0635  0.8017  1.0050
 8647TIP3   OH225879   6.466   6.471   4.483 -0.6725  0.7789 -0.7628
 8647TIP3    H125880   6.394   6.506   4.537  0.0211  1.0053  0.0205
 8647TIP3    H225881   6.533   6.444   4.546 -0.9806 -1.5394 -1.3642
 8648TIP3   OH225882   6.596   5.838   2.657 -0.0827  0.7158 -0.0061
 8648TIP3    H125883   6.534   5.796   2.717  0.2759 -1.4082 -1.0541
 8648TIP3    H225884   6.572   5.930   2.658 -1.4660  0.3651  1.7347
 8649TIP3   OH225885   2.909   6.776   4.194  0.5053  0.6345  0.5978
 8649TIP3    H125886   2.865   6.856   4.221 -1.2728  0.1519 -0.7577
 8649TIP3    H225887   2.889   6.712   4.262 -2.6731 -0.1510 -0.9746
 8650TIP3   OH225888   4.097   3.661   3.052 -0.5169 -0.1603 -0.1726
 8650TIP3    H125889   4.041   3.707   3.114 -0.9060 -0.0817 -0.5820
 8650TIP3    H225890   4.174   3.636   3.103 -0.5917  0.3829  0.2048
 8651TIP3   OH225891   4.419   4.295   3.327  0.3048  0.5382 -0.0820
 8651TIP3    H125892   4.356   4.339   3.383  2.8234  2.5289  1.2860
 8651TIP3    H225893   4.419   4.347   3.246 -0.7605 -0.2563 -0.6024
 8652TIP3   OH225894   5.281   7.305   2.347 -0.4086  0.2064  0.1925
 8652TIP3    H125895   5.240   7.326   2.431 -2.3814 -1.2139 -0.3533
 8652TIP3    H225896   5.207   7.297   2.287  0.4974 -3.8280 -0.5371
 8653TIP3   OH225897   5.024   5.015   3.695 -0.0108 -0.1044  0.1618
 8653TIP3    H125898   5.014   4.933   3.744 -0.7937 -1.1365 -1.6318
 8653TIP3    H225899   4.991   5.083   3.754 -2.1662 -1.4644  0.5958
 8654TIP3   OH225900   4.243   5.148   4.920  0.4076  0.9438  0.4697
 8654TIP3    H125901   4.170   5.202   4.946 -0.3598 -0.0567  0.4345
 8654TIP3    H225902   4.321   5.193   4.953 -0.1025  2.7515 -0.7318
 8655TIP3   OH225903   5.358   6.312   2.000  0.2253  0.2057 -0.2005
 8655TIP3    H125904   5.419   6.281   1.934 -1.4542 -0.9269 -1.2670
 8655TIP3    H225905   5.361   6.408   1.993  0.0847  0.0992 -1.9279
 8656TIP3   OH225906   3.473   6.061   1.988 -0.0295 -0.6512  0.1119
 8656TIP3    H125907   3.435   6.053   1.900 -1.1707  0.1045  0.5386
 8656TIP3    H225908   3.398   6.073   2.046  0.7321 -1.0296  1.1909
 8657TIP3   OH225909   3.456   4.382   3.705  0.1462  0.7118  0.1486
 8657TIP3    H125910   3.430   4.470   3.732  0.1958  0.4607  1.0602
 8657TIP3    H225911   3.507   4.349   3.779 -0.8127 -0.4963  0.2902
 8658TIP3   OH225912   4.628   5.119   3.611  0.3528  0.5006 -0.0584
 8658TIP3    H125913   4.710   5.127   3.661 -0.0221  0.3193  0.5822
 8658TIP3    H225914   4.575   5.193   3.641 -0.3197 -0.2614  0.6470
 8659TIP3   OH225915   4.749   6.880   5.136  0.1422 -1.0234 -0.1611
 8659TIP3    H125916   4.839   6.881   5.103  0.0110 -0.6577 -0.5102
 8659TIP3    H225917   4.758   6.872   5.231  0.5725  0.1891 -0.0847
 8660TIP3   OH225918   6.549   5.276   4.777 -0.2663  0.2809 -0.1788
 8660TIP3    H125919   6.605   5.204   4.807  0.7816  1.1923  0.0910
 8660TIP3    H225920   6.469   5.267   4.828 -0.5507 -1.2902 -0.8593
 8661TIP3   OH225921   4.694   6.170   3.807  0.0165 -0.6092  0.1499
 8661TIP3    H125922   4.744   6.242   3.846  0.9421 -0.0751 -1.9431
 8661TIP3    H225923   4.605   6.203   3.801  0.3872  0.2803 -0.5667
 8662TIP3   OH225924   4.657   5.168   1.290  0.0263  0.2180 -0.6311
 8662TIP3    H125925   4.605   5.092   1.316  1.3225 -1.1056 -1.8644
 8662TIP3    H225926   4.675   5.214   1.372 -2.4947  0.3280 -0.1063
 8663TIP3   OH225927   5.003   5.959   2.360 -0.0321 -0.0309 -0.5592
 8663TIP3    H125928   5.013   6.052   2.340 -1.2750  0.3488  0.4644
 8663TIP3    H225929   4.948   5.925   2.289 -1.7459  0.6024  0.4353
 8664TIP3   OH225930   3.086   6.216   3.912 -0.6206  0.1249  0.4651
 8664TIP3    H125931   3.158   6.154   3.922  0.3202  1.3409  1.3547
 8664TIP3    H225932   3.108   6.288   3.970 -1.3444  1.6239 -1.0627
 8665TIP3   OH225933   5.375   5.825   4.548  0.5196  0.4975  0.1196
 8665TIP3    H125934   5.453   5.856   4.502  2.5138 -0.9474  2.3759
 8665TIP3    H225935   5.350   5.745   4.502  1.2438  0.1915  0.2547
 8666TIP3   OH225936   5.042   5.995   2.920 -0.0854  0.1613  0.7042
 8666TIP3    H125937   5.069   6.087   2.929  0.9557 -0.0611  0.0398
 8666TIP3    H225938   4.961   5.988   2.969 -0.6364  1.6530  0.0255
 8667TIP3   OH225939   5.383   5.446   4.526 -0.0791  0.3807 -0.6612
 8667TIP3    H125940   5.438   5.415   4.454  2.3869  1.5571  0.6572
 8667TIP3    H225941   5.423   5.409   4.604 -1.2902  1.0836  0.3057
 8668TIP3   OH225942   4.331   5.766   2.554  0.3046  0.0126  0.1239
 8668TIP3    H125943   4.329   5.837   2.618  1.2747  0.1800 -0.0237
 8668TIP3    H225944   4.418   5.772   2.514  0.0641 -0.6988 -0.5183
 8669TIP3   OH225945   4.886   6.343   3.200  0.0185  0.3565  0.3543
 8669TIP3    H125946   4.832   6.421   3.187  1.3366  0.9697 -1.7614
 8669TIP3    H225947   4.958   6.373   3.256  0.4355  0.6210 -0.3216
 8670TIP3   OH225948   4.663   6.861   1.747  0.7161  0.2346 -0.2196
 8670TIP3    H125949   4.605   6.791   1.717  1.6515 -0.5683 -0.1725
 8670TIP3    H225950   4.750   6.821   1.749  1.3639  1.5696 -0.8003
 8671TIP3   OH225951   5.322   5.135   5.019 -0.5822 -0.3829  0.1794
 8671TIP3    H125952   5.250   5.196   5.006 -1.6964 -2.0600 -1.9047
 8671TIP3    H225953   5.393   5.170   4.965 -0.6200  0.0276  0.3963
 8672TIP3   OH225954   5.220   4.283   3.490 -0.4684  0.0101  0.3235
 8672TIP3    H125955   5.154   4.352   3.480 -0.4093  0.1724  1.0652
 8672TIP3    H225956   5.183   4.222   3.553  0.5266  0.6295  1.5210
 8673TIP3   OH225957   1.471   0.124   1.428  0.9251  0.3770 -0.2513
 8673TIP3    H125958   1.422   0.191   1.476  1.0449  0.7042 -0.5866
 8673TIP3    H225959   1.410   0.051   1.421  0.9520  0.2791  0.5113
 8674TIP3   OH225960   6.421   4.810   2.246 -0.4048  0.3690 -0.1024
 8674TIP3    H125961   6.352   4.876   2.256  1.0239  2.0681 -1.1105
 8674TIP3    H225962   6.374   4.727   2.238 -2.4011  1.6580 -2.3683
 8675TIP3   OH225963   5.719   5.234   3.257  0.4773 -0.1669 -0.0411
 8675TIP3    H125964   5.698   5.140   3.248  0.9989 -0.3089  0.2217
 8675TIP3    H225965   5.744   5.261   3.169  0.4887 -0.3130 -0.0848
 8676TIP3   OH225966   4.576   6.795   3.190  0.4486 -0.2275 -0.3893
 8676TIP3    H125967   4.498   6.760   3.149 -0.0964 -1.0588  1.3261
 8676TIP3    H225968   4.544   6.844   3.266  1.4573  0.9673 -0.7170
 8677TIP3   OH225969   4.541   6.131   0.582  0.6516  0.3048 -0.0182
 8677TIP3    H125970   4.584   6.206   0.540  2.2984 -0.6153 -0.0549
 8677TIP3    H225971   4.614   6.082   0.620 -0.5720 -0.3613  1.4959
 8678TIP3   OH225972   7.621   4.722   2.831 -0.4714 -0.1836 -0.6751
 8678TIP3    H125973   7.593   4.702   2.920 -0.4310  0.7062 -0.4590
 8678TIP3    H225974   7.667   4.643   2.802 -1.1082 -0.7436 -0.1691
 8679TIP3   OH225975   3.304   6.728   2.770 -0.3050  0.1072 -0.2967
 8679TIP3    H125976   3.245   6.658   2.742 -0.3437 -0.4989  1.2137
 8679TIP3    H225977   3.251   6.783   2.827  0.0791  0.6356 -0.4432
 8680TIP3   OH225978   5.484   5.324   4.763 -0.1185  0.5341 -0.4843
 8680TIP3    H125979   5.485   5.418   4.783  1.2797  0.7923 -1.6735
 8680TIP3    H225980   5.560   5.288   4.810 -0.6952 -0.0151  0.0318
 8681TIP3   OH225981   6.297   5.703   3.463  0.0870 -0.1672 -0.4693
 8681TIP3    H125982   6.351   5.722   3.387  0.0930 -0.0339 -0.4317
 8681TIP3    H225983   6.293   5.607   3.466  2.8541 -0.2631  1.3116
 8682TIP3   OH225984   6.767   0.368   2.512  0.3994  0.5429 -0.5948
 8682TIP3    H125985   6.827   0.353   2.585  0.8837 -1.3531 -1.3468
 8682TIP3    H225986   6.824   0.382   2.437 -0.0871  0.1389 -1.0467
 8683TIP3   OH225987   5.914   4.992   4.142  0.1499 -0.1312  0.6821
 8683TIP3    H125988   5.835   4.948   4.111  0.4464 -0.4276  0.3411
 8683TIP3    H225989   5.968   4.922   4.179 -0.1416  0.2027  1.7535
 8684TIP3   OH225990   5.275   5.919   0.961  0.3554  0.1555 -0.8062
 8684TIP3    H125991   5.247   5.913   1.053 -0.3670 -0.0624 -1.0334
 8684TIP3    H225992   5.193   5.933   0.913  0.6223 -0.6979 -1.5093
 8685TIP3   OH225993   0.325   0.430   3.835  0.2835 -0.2721 -0.7319
 8685TIP3    H125994   0.421   0.435   3.826  0.7115 -2.2066  1.9508
 8685TIP3    H225995   0.302   0.508   3.886  0.7381 -0.8416  0.3745
 8686TIP3   OH225996   6.343   5.144   0.848  0.4871  0.0747 -0.1172
 8686TIP3    H125997   6.374   5.229   0.878 -0.3241  0.6721 -0.9091
 8686TIP3    H225998   6.419   5.103   0.808  0.6656  0.8207 -0.5482
 8687TIP3   OH225999   5.735   6.196   4.989  0.6943  0.0956  0.3754
 8687TIP3    H126000   5.700   6.277   4.952  2.4851  0.6898 -0.0476
 8687TIP3    H226001   5.809   6.174   4.933  0.9551 -1.1938  1.2095
 8688TIP3   OH226002   3.713   5.179   3.211 -0.0715 -0.0537 -0.4774
 8688TIP3    H126003   3.629   5.137   3.191  0.6181 -0.7952 -1.9094
 8688TIP3    H226004   3.691   5.271   3.227 -1.3841 -0.6169  1.0279
 8689TIP3   OH226005   3.453   7.395   5.171  0.3284 -0.2605  0.5371
 8689TIP3    H126006   3.529   7.410   5.115  2.0576 -0.9082  2.6323
 8689TIP3    H226007   3.390   7.348   5.116  1.7397 -0.3780 -0.9880
 8690TIP3   OH226008   4.638   4.815   2.747  0.0340  0.5359  0.1578
 8690TIP3    H126009   4.616   4.741   2.691 -0.2865  0.1504  0.7777
 8690TIP3    H226010   4.729   4.800   2.773  0.2552  0.8392 -0.4434
 8691TIP3   OH226011   2.692   3.515   3.990 -0.2804 -0.3335  0.0112
 8691TIP3    H126012   2.783   3.486   4.000 -0.7947 -2.0711 -0.2017
 8691TIP3    H226013   2.640   3.437   4.008 -1.6256 -0.3219 -3.4261
 8692TIP3   OH226014   4.578   7.351   3.070  0.0228  0.1546  0.2287
 8692TIP3    H126015   4.608   7.277   3.123  0.9682 -1.2041 -2.0832
 8692TIP3    H226016   4.658   7.402   3.053 -0.0120 -0.1758 -0.9837
 8693TIP3   OH226017   6.433   4.605   3.197 -0.2401 -0.2125  0.2567
 8693TIP3    H126018   6.395   4.670   3.257  0.8286  0.5216  0.1535
 8693TIP3    H226019   6.372   4.532   3.200 -0.0634 -0.3076  2.4883
 8694TIP3   OH226020   5.073   4.661   4.297 -0.1890  0.1445  0.3331
 8694TIP3    H126021   5.020   4.734   4.265  0.3052 -0.5509 -2.2457
 8694TIP3    H226022   5.011   4.588   4.305 -0.2431  0.2111  0.5046
 8695TIP3   OH226023   4.740   6.961   0.359 -0.3316 -0.0457 -0.3999
 8695TIP3    H126024   4.667   7.013   0.391  0.5109  0.7055  0.3512
 8695TIP3    H226025   4.700   6.881   0.326 -1.3026 -0.6030  2.0278
 8696TIP3   OH226026   3.794   5.389   2.201  0.1184  0.2799  0.3016
 8696TIP3    H126027   3.822   5.349   2.284 -1.9004 -0.2491  0.7312
 8696TIP3    H226028   3.851   5.350   2.135 -0.2895 -1.5623  1.0258
 8697TIP3   OH226029   4.209   6.370   4.615 -0.0522  0.7175 -0.7368
 8697TIP3    H126030   4.285   6.421   4.586  0.8808  0.1095  0.5958
 8697TIP3    H226031   4.244   6.310   4.681 -1.9460  1.4497  0.9968
 8698TIP3   OH226032   5.475   3.463   2.262 -0.0982 -0.2989  0.3808
 8698TIP3    H126033   5.419   3.526   2.307 -1.0565 -0.7700 -0.1361
 8698TIP3    H226034   5.480   3.388   2.322 -0.8316 -0.6565 -0.0009
 8699TIP3   OH226035   6.856   7.007   2.108  0.2168  0.3292  0.1451
 8699TIP3    H126036   6.933   7.012   2.164 -0.7312 -0.3811  1.5602
 8699TIP3    H226037   6.795   6.950   2.156 -1.6177  1.7900 -0.3948
 8700TIP3   OH226038   4.363   5.057   2.476  0.1400 -0.3036 -0.1327
 8700TIP3    H126039   4.383   5.055   2.382  3.5352  0.5374  0.5101
 8700TIP3    H226040   4.339   5.148   2.493  0.2768 -0.2830 -0.0503
 8701TIP3   OH226041   6.315   7.364   1.563  0.1056 -0.2932  0.3895
 8701TIP3    H126042   6.278   7.399   1.482  1.2522 -2.0810 -0.9408
 8701TIP3    H226043   6.265   7.284   1.580 -1.0462  0.7959  2.2092
 8702TIP3   OH226044   5.946   6.584   5.457  0.1523  0.4796  0.4271
 8702TIP3    H126045   5.929   6.490   5.467 -1.7552  0.7547 -0.1213
 8702TIP3    H226046   6.035   6.589   5.422 -1.0504 -1.2856 -3.1026
 8703TIP3   OH226047   5.830   6.995   1.969 -0.0958  0.1106 -1.0036
 8703TIP3    H126048   5.820   6.900   1.955  0.6822  0.1352 -1.7155
 8703TIP3    H226049   5.740   7.029   1.965 -0.4940 -0.7311  0.3086
 8704TIP3   OH226050   5.967   7.401   3.053 -0.0765  0.0984  0.3716
 8704TIP3    H126051   5.885   7.382   3.097 -0.9244 -0.2905 -1.3334
 8704TIP3    H226052   5.984   7.324   2.999  1.2859  0.2859  0.5048
 8705TIP3   OH226053   2.795   1.902   6.546  0.4391 -0.4484  0.0727
 8705TIP3    H126054   2.867   1.948   6.502 -0.3238 -0.7300 -1.4978
 8705TIP3    H226055   2.808   1.810   6.523  0.3558 -0.6841  0.9326
 8706TIP3   OH226056   0.722   0.112   0.425  0.4197  0.1589  0.8690
 8706TIP3    H126057   0.727   0.067   0.509 -0.0684 -0.6815  0.4531
 8706TIP3    H226058   0.677   0.194   0.445 -2.0632 -1.1830  0.9876
 8707TIP3   OH226059   4.564   4.030   6.004 -0.1089 -0.2838  0.3061
 8707TIP3    H126060   4.547   4.111   6.053 -1.6093  0.7599 -1.8357
 8707TIP3    H226061   4.604   4.060   5.922  0.2392 -1.7943 -0.0761
 8708TIP3   OH226062   5.237   3.902   6.333  0.3904  0.0414  0.6297
 8708TIP3    H126063   5.145   3.878   6.349  0.4173  1.6191  3.3756
 8708TIP3    H226064   5.233   3.994   6.304  1.0901 -0.0005  0.3855
 8709TIP3   OH226065   5.180   4.563   0.375  0.8264  0.4034 -0.0287
 8709TIP3    H126066   5.128   4.580   0.297  1.0475  0.3753 -0.1848
 8709TIP3    H226067   5.122   4.584   0.448  0.5890  0.3446 -0.1989
 8710TIP3   OH226068   6.515   7.747   3.905  0.0491 -0.4516  0.3769
 8710TIP3    H126069   6.574   7.671   3.908  1.6892  0.7626 -0.3361
 8710TIP3    H226070   6.573   7.822   3.889 -1.0173  1.5004  4.7996
 8711TIP3   OH226071   4.358   5.392   0.663 -0.3370  0.3415 -0.3231
 8711TIP3    H126072   4.359   5.430   0.575 -1.2854  0.7051 -0.1864
 8711TIP3    H226073   4.325   5.462   0.719  0.0722  0.0478  0.2989
 8712TIP3   OH226074   4.896   2.673   2.942  0.0344 -0.3596 -0.5635
 8712TIP3    H126075   4.897   2.768   2.950 -0.6979 -0.4641  1.1046
 8712TIP3    H226076   4.804   2.651   2.926  0.6003 -0.6199 -3.7737
 8713TIP3   OH226077   1.178   1.872   6.923 -0.3051  0.8890 -0.1679
 8713TIP3    H126078   1.160   1.798   6.982 -0.4225 -0.1332 -1.4532
 8713TIP3    H226079   1.094   1.890   6.882  0.2907 -0.0516 -1.8504
 8714TIP3   OH226080   3.637   7.044   4.388  0.4074  0.0093  0.1016
 8714TIP3    H126081   3.725   7.048   4.426  1.0759 -0.9924 -1.2910
 8714TIP3    H226082   3.619   7.133   4.358  0.0901  0.6848  2.2447
 8715TIP3   OH226083   5.901   5.309   4.687  0.2699 -0.4200  0.1725
 8715TIP3    H126084   5.870   5.386   4.639  1.3180  0.2413  0.5396
 8715TIP3    H226085   5.886   5.235   4.627 -0.4709  0.1068 -0.2934
 8716TIP3   OH226086   4.708   5.720   4.408  0.1368 -0.2746 -0.1464
 8716TIP3    H126087   4.685   5.696   4.318  0.6771 -2.5839  0.3159
 8716TIP3    H226088   4.770   5.653   4.436 -1.9692 -1.0609  2.8254
 8717TIP3   OH226089   2.388   7.606   5.712 -0.3716 -0.2000  0.0256
 8717TIP3    H126090   2.482   7.593   5.702 -0.4972 -0.7559 -0.5212
 8717TIP3    H226091   2.362   7.652   5.632 -0.5045  0.2742  0.3421
 8718TIP3   OH226092   6.013   0.729   4.140 -0.2300 -0.2065 -0.0850
 8718TIP3    H126093   5.967   0.799   4.093 -1.8026 -0.8548  0.4346
 8718TIP3    H226094   6.104   0.756   4.139 -0.7123  1.5293 -0.4564
 8719TIP3   OH226095   4.776   5.090   4.927  0.1426 -0.0689  0.0083
 8719TIP3    H126096   4.749   5.181   4.912  0.6617 -0.2004 -1.8569
 8719TIP3    H226097   4.857   5.081   4.878 -1.2782 -2.2697 -2.0675
 8720TIP3   OH226098   8.261   1.206   2.186  0.1691 -0.4272 -0.7626
 8720TIP3    H126099   8.328   1.238   2.125 -0.0548 -0.9198 -1.2693
 8720TIP3    H226100   8.261   1.271   2.257 -1.5662  1.7078 -2.6397
 8721TIP3   OH226101   7.266   3.969   1.719 -0.2067 -0.5103 -0.2897
 8721TIP3    H126102   7.285   3.876   1.718  2.1442 -0.0602 -2.6375
 8721TIP3    H226103   7.214   3.985   1.640  1.0045  0.4520 -0.9113
 8722TIP3   OH226104   7.174   5.276   1.124  0.3274  0.0291 -0.3370
 8722TIP3    H126105   7.262   5.240   1.134 -0.0125 -1.3280 -1.9155
 8722TIP3    H226106   7.117   5.199   1.129 -0.5516  0.5486 -2.0998
 8723TIP3   OH226107   4.362   7.132   4.703 -0.2161  0.7802 -0.1284
 8723TIP3    H126108   4.397   7.200   4.761 -0.2645  2.7287 -2.3400
 8723TIP3    H226109   4.363   7.052   4.757  1.3115  2.1819  2.0038
 8724TIP3   OH226110   2.628   3.697   3.294  0.3640 -0.6259  0.1302
 8724TIP3    H126111   2.700   3.736   3.342  1.1437 -1.5038 -0.2958
 8724TIP3    H226112   2.629   3.604   3.320 -0.4851 -0.6879 -0.0272
 8725TIP3   OH226113   7.355   7.288   4.690  0.1782 -0.6279  0.4754
 8725TIP3    H126114   7.347   7.371   4.643 -0.2428 -0.2392  1.2305
 8725TIP3    H226115   7.312   7.304   4.774  1.3353 -1.1786  1.1785
 8726TIP3   OH226116   5.663   5.943   4.744 -0.3199 -0.2776 -0.1873
 8726TIP3    H126117   5.648   5.860   4.790  1.3371  0.3068  1.4691
 8726TIP3    H226118   5.758   5.954   4.745 -0.6410  2.7360  1.6520
 8727TIP3   OH226119   4.652   5.993   4.403  0.4443  0.0391 -0.5875
 8727TIP3    H126120   4.653   5.903   4.436 -0.1676 -0.5888 -2.2326
 8727TIP3    H226121   4.722   5.995   4.337  0.9148  0.9665 -0.0647
 8728TIP3   OH226122   4.409   6.836   4.494 -0.3927  0.2044 -0.3906
 8728TIP3    H126123   4.473   6.820   4.424  0.6824  0.8492  0.4386
 8728TIP3    H226124   4.458   6.882   4.562 -1.0652 -1.6969  1.4364
 8729TIP3   OH226125   3.186   6.507   3.945  0.5520 -0.5706  0.0465
 8729TIP3    H126126   3.198   6.458   3.864  0.8120 -0.8340  0.2445
 8729TIP3    H226127   3.274   6.524   3.977  0.4441 -2.7583  1.6482
 8730TIP3   OH226128   4.226   6.690   3.641  0.1686 -0.2768 -0.3052
 8730TIP3    H126129   4.260   6.776   3.616 -0.0488 -0.5422 -1.5679
 8730TIP3    H226130   4.164   6.708   3.711  0.8128  0.4990  0.0760
 8731TIP3   OH226131   5.164   7.247   5.268  0.0142  0.2641 -0.1662
 8731TIP3    H126132   5.098   7.205   5.323  0.4592  0.5010  0.5544
 8731TIP3    H226133   5.245   7.198   5.286  0.3568  0.9062  0.0571
 8732TIP3   OH226134   5.689   7.335   6.561 -0.1739 -0.0497  0.3771
 8732TIP3    H126135   5.699   7.307   6.652 -1.9830 -0.8273  0.3484
 8732TIP3    H226136   5.679   7.430   6.567 -2.2007 -0.2950  1.1687
 8733TIP3   OH226137   4.971   5.500   3.214  0.1142 -0.4480  0.0216
 8733TIP3    H126138   4.996   5.592   3.226 -3.6209  0.6681 -0.0692
 8733TIP3    H226139   4.970   5.488   3.119  0.9735 -0.7177  0.0413
 8734TIP3   OH226140   4.853   4.905   5.470  0.0393 -0.0981 -0.4123
 8734TIP3    H126141   4.766   4.923   5.434 -0.8028 -1.7943  0.7242
 8734TIP3    H226142   4.855   4.953   5.553 -0.9526 -2.3966  0.9918
 8735TIP3   OH226143   5.671   5.006   0.563  0.2189  0.7182  0.1025
 8735TIP3    H126144   5.663   5.005   0.658  2.9745  0.3795  0.3770
 8735TIP3    H226145   5.585   5.033   0.532 -1.0543 -0.2304  2.6330
 8736TIP3   OH226146   5.252   7.038   1.966 -0.2589 -0.0676  0.3648
 8736TIP3    H126147   5.282   7.120   1.928  0.1311  0.5422  1.9599
 8736TIP3    H226148   5.314   7.020   2.037  0.9351 -2.8394 -1.2910
 8737TIP3   OH226149   5.039   7.903   3.532 -0.1188  0.3688  0.0306
 8737TIP3    H126150   5.082   7.920   3.448 -0.5366 -1.9766 -0.6816
 8737TIP3    H226151   5.085   7.828   3.568 -0.7436  0.5988  1.3567
 8738TIP3   OH226152   4.675   5.454   3.034  0.2030 -0.2358  0.0264
 8738TIP3    H126153   4.698   5.443   2.942  0.9379 -0.3495  0.2169
 8738TIP3    H226154   4.683   5.366   3.072  3.2570  0.3660  0.9256
 8739TIP3   OH226155   2.928   6.094   4.566  0.4885 -0.5231  0.3106
 8739TIP3    H126156   3.015   6.075   4.601  0.3848 -2.5155 -0.4376
 8739TIP3    H226157   2.938   6.085   4.471 -0.5534 -0.8597  0.2286
 8740TIP3   OH226158   0.715   0.651   2.258  0.0555  0.2695  0.3056
 8740TIP3    H126159   0.637   0.697   2.288 -0.1073  0.9052 -1.0752
 8740TIP3    H226160   0.727   0.581   2.322 -0.7829  1.0696  1.3584
 8741TIP3   OH226161   6.131   5.755   4.553 -0.4902 -0.1479 -0.0491
 8741TIP3    H126162   6.163   5.841   4.583 -1.4202  0.0224  0.4808
 8741TIP3    H226163   6.135   5.760   4.458 -2.0602  1.1103 -0.0903
 8742TIP3   OH226164   6.440   6.295   6.726 -0.8130 -0.4893 -0.8186
 8742TIP3    H126165   6.369   6.246   6.766  0.9929 -2.8282 -0.3796
 8742TIP3    H226166   6.453   6.253   6.641  1.5638 -1.6709  0.0663
 8743TIP3   OH226167   4.951   7.215   3.389 -0.1763  0.2004  0.8434
 8743TIP3    H126168   4.960   7.143   3.327  1.0889  1.7185 -0.8133
 8743TIP3    H226169   4.863   7.205   3.425 -0.4256 -1.5087 -0.1953
 8744TIP3   OH226170   7.158   5.789   5.028 -0.1473  0.3272  0.2059
 8744TIP3    H126171   7.144   5.858   4.964  0.8677  0.3932  0.0493
 8744TIP3    H226172   7.207   5.831   5.098 -0.6513  0.0826  0.7118
 8745TIP3   OH226173   4.590   6.387   2.987  0.8854 -0.5369  0.2316
 8745TIP3    H126174   4.517   6.411   2.929  0.8594 -0.2965  0.3644
 8745TIP3    H226175   4.551   6.326   3.049  0.3320  1.0372  1.4801
 8746TIP3   OH226176   3.589   5.111   3.901  0.1591  0.0902 -0.6256
 8746TIP3    H126177   3.661   5.115   3.839  1.4632  0.5850  0.8871
 8746TIP3    H226178   3.627   5.142   3.984 -1.5139 -0.6283  0.4301
 8747TIP3   OH226179   4.583   7.076   3.770 -0.3336  0.4596 -0.1450
 8747TIP3    H126180   4.613   6.989   3.795 -0.8100  0.7085  1.3181
 8747TIP3    H226181   4.599   7.130   3.847 -2.6940  1.0313 -0.0027
 8748TIP3   OH226182   4.980   6.014   1.831  0.3905  0.1169 -0.4890
 8748TIP3    H126183   5.036   5.946   1.792  0.4413  0.5796 -1.2296
 8748TIP3    H226184   5.030   6.095   1.821 -0.6266  0.6213 -1.6372
 8749TIP3   OH226185   7.639   4.295   2.113 -0.1556  0.0792 -0.0028
 8749TIP3    H126186   7.629   4.355   2.187 -0.2674  0.5363 -0.3871
 8749TIP3    H226187   7.699   4.339   2.053  2.2118 -1.5314  1.1119
 8750TIP3   OH226188   6.323   6.334   5.384 -0.5766 -0.1695 -0.3910
 8750TIP3    H126189   6.328   6.321   5.289 -3.3790 -0.2193 -0.5886
 8750TIP3    H226190   6.289   6.423   5.394 -1.2128 -0.5088  0.5274
 8751TIP3   OH226191   6.993   6.003   2.273  0.7603  0.0810  0.3654
 8751TIP3    H126192   7.083   5.983   2.298  0.5686 -0.3640  0.7140
 8751TIP3    H226193   6.969   5.933   2.213  0.2608 -0.4530  1.1795
 8752TIP3   OH226194   7.578   2.866   4.960  0.5560 -0.3301 -0.4409
 8752TIP3    H126195   7.644   2.804   4.928  1.8803  0.6725  0.2637
 8752TIP3    H226196   7.628   2.925   5.017 -0.9825  0.4089  0.1535
 8753TIP3   OH226197   5.259   7.407   4.223  0.3372  0.2037 -0.0266
 8753TIP3    H126198   5.253   7.503   4.226 -1.2496  0.1190  0.4647
 8753TIP3    H226199   5.170   7.378   4.245  1.0315 -1.3921  0.7323
 8754TIP3   OH226200   6.635   7.200   2.703  0.5898 -0.0527 -0.5972
 8754TIP3    H126201   6.602   7.128   2.757 -0.9805  0.2553 -1.1157
 8754TIP3    H226202   6.647   7.162   2.616 -1.6754  0.6298 -1.2498
 8755TIP3   OH226203   2.619   6.288   2.616 -0.5992  0.2349 -0.0378
 8755TIP3    H126204   2.612   6.355   2.547  0.1646  1.2219  0.8265
 8755TIP3    H226205   2.604   6.205   2.571 -2.4882  1.0466 -0.9789
 8756TIP3   OH226206   8.226   7.181   4.837  0.1984 -0.4898  0.2272
 8756TIP3    H126207   8.290   7.251   4.851  0.2858 -0.7186  0.9719
 8756TIP3    H226208   8.252   7.111   4.896 -0.3267 -0.8676  0.0227
 8757TIP3   OH226209   5.567   4.922   3.855 -0.3636 -0.0128  0.2781
 8757TIP3    H126210   5.602   4.910   3.767 -0.0249  2.1893  0.0893
 8757TIP3    H226211   5.484   4.967   3.843 -1.0869 -1.0958  1.0232
 8758TIP3   OH226212   3.916   4.581   3.890  0.1196 -0.0391 -0.0367
 8758TIP3    H126213   3.917   4.531   3.972  0.0497  0.0168  0.0001
 8758TIP3    H226214   3.997   4.633   3.892 -0.4547  0.8654  0.5715
 8759TIP3   OH226215   4.438   3.825   4.262  0.1623 -0.2490  0.1380
 8759TIP3    H126216   4.370   3.809   4.197  0.9548 -2.4727 -0.1864
 8759TIP3    H226217   4.443   3.920   4.268 -1.3068 -0.0313 -1.5837
 8760TIP3   OH226218   0.096   2.176   4.819  0.5277 -0.1338  0.3870
 8760TIP3    H126219   0.040   2.161   4.895 -0.3564  0.1181 -0.2172
 8760TIP3    H226220   0.106   2.271   4.815 -1.4698  0.0362 -1.2744
 8761TIP3   OH226221   6.749   5.864   1.483 -0.0383  0.4476 -0.1405
 8761TIP3    H126222   6.805   5.883   1.558  1.7144  1.5775 -1.6752
 8761TIP3    H226223   6.681   5.807   1.517 -0.0535  2.0125  2.5924
 8762TIP3   OH226224   2.075   4.521   3.860  0.3324  0.3835  0.1365
 8762TIP3    H126225   2.012   4.560   3.798  0.7053  1.9699  0.7176
 8762TIP3    H226226   2.095   4.435   3.823 -1.9038 -0.0124 -0.2435
 8763TIP3   OH226227   6.812   5.859   0.080  0.2015  0.5911 -0.1202
 8763TIP3    H126228   6.777   5.906   0.005 -2.0343  0.3426  0.7245
 8763TIP3    H226229   6.779   5.908   0.156 -1.2801 -1.6857  0.7430
 8764TIP3   OH226230   5.761   4.802   4.010 -0.0534  0.1755 -0.7842
 8764TIP3    H126231   5.686   4.825   3.956  0.4813  0.6904 -1.3043
 8764TIP3    H226232   5.742   4.713   4.041 -1.0137  0.4193 -0.6681
 8765TIP3   OH226233   4.834   5.801   3.848 -0.2991  0.1540 -0.1035
 8765TIP3    H126234   4.803   5.782   3.759 -0.1399  1.6918 -0.4977
 8765TIP3    H226235   4.930   5.799   3.840 -0.2800  0.9022 -0.1119
 8766TIP3   OH226236   4.188   5.183   2.851 -0.5219 -0.2861  0.1616
 8766TIP3    H126237   4.267   5.140   2.818  0.6962  0.5745  1.8681
 8766TIP3    H226238   4.194   5.175   2.946 -3.1857 -1.3790  0.2771
 8767TIP3   OH226239   4.208   5.472   2.220  0.0248  0.5222  0.1898
 8767TIP3    H126240   4.240   5.562   2.230  0.0098  0.8042 -1.9334
 8767TIP3    H226241   4.127   5.481   2.169  1.1952 -0.8318 -1.9739
 8768TIP3   OH226242   3.450   5.112   3.153 -0.6820 -0.0076 -0.2851
 8768TIP3    H126243   3.427   5.153   3.069  0.2467 -0.6305 -0.8463
 8768TIP3    H226244   3.380   5.139   3.212 -2.7316 -1.6111 -1.8875
 8769TIP3   OH226245   6.673   4.739   4.789  0.3608 -0.0782 -0.4901
 8769TIP3    H126246   6.683   4.768   4.698  2.8374  2.0466  0.3835
 8769TIP3    H226247   6.758   4.702   4.812  1.2610  3.3301  2.1947
 8770TIP3   OH226248   2.488   6.830   4.690  0.0465  0.2212  0.3784
 8770TIP3    H126249   2.502   6.778   4.769 -0.9348  0.8871  1.0043
 8770TIP3    H226250   2.499   6.921   4.718 -0.6309  0.4827 -0.1666
 8771TIP3   OH226251   4.614   7.242   3.978 -0.0156 -0.5419  0.4758
 8771TIP3    H126252   4.561   7.311   4.018 -1.1895 -0.3049 -1.4357
 8771TIP3    H226253   4.677   7.218   4.046 -2.5301 -0.7890  2.8224
 8772TIP3   OH226254   4.466   6.059   4.633 -0.1384 -0.5657 -0.0310
 8772TIP3    H126255   4.434   6.040   4.545 -1.6400 -3.0964  0.9897
 8772TIP3    H226256   4.560   6.039   4.629 -0.1870 -0.6168 -1.0595
 8773TIP3   OH226257   5.036   4.465   3.175 -0.3831 -0.3826  0.1217
 8773TIP3    H126258   4.984   4.385   3.185  1.5894 -1.7292 -0.1489
 8773TIP3    H226259   5.092   4.466   3.252  1.0622 -0.3724 -0.9175
 8774TIP3   OH226260   2.715   6.259   4.475 -0.3757  0.5462  0.3028
 8774TIP3    H126261   2.716   6.287   4.384  0.0774  3.2263  1.0783
 8774TIP3    H226262   2.788   6.198   4.483 -0.8397 -0.2295 -1.2559
 8775TIP3   OH226263   7.065   5.523   2.733  0.3015  0.1589 -0.2975
 8775TIP3    H126264   7.043   5.610   2.699  0.8640 -0.3726 -2.0654
 8775TIP3    H226265   6.983   5.473   2.725 -0.4994  0.9594  2.2760
 8776TIP3   OH226266   4.562   6.436   3.467  0.1674 -0.1267 -0.1409
 8776TIP3    H126267   4.632   6.369   3.470 -0.1510 -0.5269 -1.2501
 8776TIP3    H226268   4.566   6.478   3.552  2.0121  0.0873 -0.3051
 8777TIP3   OH226269   6.169   7.605   2.572 -0.2326  0.0478  0.3269
 8777TIP3    H126270   6.146   7.601   2.665  0.6606 -1.4398  0.5082
 8777TIP3    H226271   6.242   7.667   2.568 -0.7630  0.6749  0.5263
 8778TIP3   OH226272   4.287   7.107   3.361 -0.3206  0.6445 -0.2986
 8778TIP3    H126273   4.231   7.051   3.416 -0.2253  1.3119  0.4993
 8778TIP3    H226274   4.328   7.167   3.424  0.3939  0.9112 -1.0220
 8779TIP3   OH226275   4.963   5.841   2.593 -0.2835  0.2467  0.3377
 8779TIP3    H126276   4.988   5.907   2.528  0.6204 -1.0087 -0.6210
 8779TIP3    H226277   4.948   5.762   2.542 -1.5902 -0.2349  1.4578
 8780TIP3   OH226278   6.964   5.416   3.283 -0.7163  0.0133 -0.4310
 8780TIP3    H126279   6.929   5.363   3.354 -0.3594 -1.8737 -1.6174
 8780TIP3    H226280   7.058   5.399   3.284 -0.6372  0.3937 -1.0025
 8781TIP3   OH226281   5.204   4.176   4.534  0.2015 -0.0621  0.1245
 8781TIP3    H126282   5.267   4.156   4.604 -0.2028 -4.2738 -0.5741
 8781TIP3    H226283   5.255   4.224   4.469  1.2872  1.3667  1.9671
 8782TIP3   OH226284   8.185   0.427   3.378 -0.4957 -0.5629 -0.3231
 8782TIP3    H126285   8.151   0.423   3.467 -0.0385 -0.2189 -0.1319
 8782TIP3    H226286   8.277   0.403   3.386 -0.5706 -1.0072 -0.7702
 8783TIP3   OH226287   2.626   5.048   2.724 -0.0686  0.0716  0.7010
 8783TIP3    H126288   2.599   4.964   2.761  0.4112 -0.1665  0.5111
 8783TIP3    H226289   2.573   5.113   2.771 -1.0523 -0.3990  0.2477
 8784TIP3   OH226290   5.723   7.408   4.538  0.1985  0.3245  0.1939
 8784TIP3    H126291   5.749   7.317   4.555  2.6216  1.0888  0.8385
 8784TIP3    H226292   5.737   7.452   4.621 -3.6916  0.7460  0.6870
 8785TIP3   OH226293   7.567   4.728   2.418 -0.1060  0.3897 -0.1394
 8785TIP3    H126294   7.487   4.691   2.455 -0.2184  0.5296 -0.2415
 8785TIP3    H226295   7.623   4.653   2.399 -0.1073  0.3079  0.1804
 8786TIP3   OH226296   5.989   0.372   3.351 -0.5368 -0.0789  0.1043
 8786TIP3    H126297   5.901   0.376   3.388 -0.6771 -1.6947  0.0120
 8786TIP3    H226298   5.993   0.446   3.290 -1.7691  0.1225  0.2453
 8787TIP3   OH226299   2.962   4.660   3.552  0.1586  1.1547 -0.8235
 8787TIP3    H126300   2.896   4.634   3.617 -0.3238  1.2094 -1.2946
 8787TIP3    H226301   2.956   4.756   3.549 -1.1532  1.0372 -2.3549
 8788TIP3   OH226302   3.696   5.907   3.922 -0.6071 -0.6478  0.4871
 8788TIP3    H126303   3.710   5.917   4.016 -1.2148  1.9154  0.3582
 8788TIP3    H226304   3.603   5.883   3.915 -0.6032 -0.6818  0.5471
 8789TIP3   OH226305   4.274   6.723   1.757 -0.0864 -0.1547 -0.0538
 8789TIP3    H126306   4.188   6.748   1.789 -0.7032 -0.7102 -1.2188
 8789TIP3    H226307   4.297   6.646   1.809  0.4526  0.9514  1.3918
 8790TIP3   OH226308   2.396   6.506   3.394 -0.4884 -0.1040  0.0498
 8790TIP3    H126309   2.435   6.581   3.348  0.0807 -0.4284  0.0009
 8790TIP3    H226310   2.361   6.451   3.325  0.4876 -0.6583 -0.0113
 8791TIP3   OH226311   4.377   4.886   4.593 -0.5786 -0.0940 -0.0512
 8791TIP3    H126312   4.464   4.924   4.577 -0.3193 -0.2032  1.0836
 8791TIP3    H226313   4.394   4.806   4.642 -1.3402 -0.0274  0.3219
 8792TIP3   OH226314   5.950   5.305   6.347 -0.2718 -0.1109 -0.2922
 8792TIP3    H126315   5.908   5.384   6.312  0.2431  0.0394 -0.5906
 8792TIP3    H226316   5.941   5.241   6.277 -0.2036 -0.1443 -0.2707
 8793TIP3   OH226317   7.646   0.490   2.855 -0.3505 -0.0179 -0.0530
 8793TIP3    H126318   7.647   0.470   2.761 -2.0452  0.8371 -0.2873
 8793TIP3    H226319   7.707   0.428   2.894  0.1390 -0.5917 -1.6891
 8794TIP3   OH226320   0.613   5.216   4.487 -0.0104 -0.9576 -0.0218
 8794TIP3    H126321   0.542   5.161   4.454  1.1872 -2.2388 -0.5151
 8794TIP3    H226322   0.599   5.221   4.581 -0.7868 -1.1510 -0.1291
 8795TIP3   OH226323   5.808   7.652   3.400  0.6930  0.4778  0.3427
 8795TIP3    H126324   5.738   7.603   3.444  0.9877 -0.7693 -0.5341
 8795TIP3    H226325   5.777   7.662   3.310  1.9917 -0.8363 -0.2748
 8796TIP3   OH226326   6.812   6.557   3.374 -0.5056 -0.8222  0.3855
 8796TIP3    H126327   6.785   6.467   3.390 -1.2815 -0.3000  2.1003
 8796TIP3    H226328   6.897   6.548   3.331 -1.1848 -2.3836 -0.6945
 8797TIP3   OH226329   6.773   6.411   2.833 -0.0227  0.1737  0.0904
 8797TIP3    H126330   6.691   6.433   2.789 -0.0641 -0.6993 -0.2934
 8797TIP3    H226331   6.840   6.459   2.783 -0.2670  0.6229  0.1986
 8798TIP3   OH226332   5.888   7.143   2.993  0.1382 -0.0424 -0.3826
 8798TIP3    H126333   5.869   7.111   2.905 -0.6192 -0.7019  0.0183
 8798TIP3    H226334   5.967   7.095   3.019  0.4867  0.3148 -0.7954
 8799TIP3   OH226335   6.310   7.907   1.807  0.4320 -0.4614  0.7906
 8799TIP3    H126336   6.361   7.966   1.752  0.6814  0.2007  1.7265
 8799TIP3    H226337   6.266   7.848   1.745  0.6595  0.3184 -0.1130
 8800TIP3   OH226338   6.275   5.650   2.607 -0.0774  0.1807 -0.4787
 8800TIP3    H126339   6.298   5.724   2.551 -0.7326  0.3114 -0.5759
 8800TIP3    H226340   6.311   5.673   2.693 -0.5637  0.7630 -0.4268
 8801TIP3   OH226341   5.997   6.769   3.397 -0.3040  0.1368 -0.5029
 8801TIP3    H126342   6.027   6.807   3.479 -0.9588  2.0803 -1.1334
 8801TIP3    H226343   5.983   6.844   3.339 -0.0591 -1.1857 -2.3239
 8802TIP3   OH226344   4.661   7.177   3.264 -0.1558  0.5921 -0.0531
 8802TIP3    H126345   4.623   7.099   3.306 -0.0272  0.6978  0.2558
 8802TIP3    H226346   4.631   7.250   3.317  1.0304  0.6246  0.5856
 8803TIP3   OH226347   5.883   4.288   4.537 -0.0361 -0.1362 -0.3772
 8803TIP3    H126348   5.872   4.246   4.622 -0.4137  0.5415 -0.0972
 8803TIP3    H226349   5.807   4.259   4.486 -0.4012  0.3710 -0.1192
 8804TIP3   OH226350   0.558   6.860   1.098  0.4396  0.8237  0.2747
 8804TIP3    H126351   0.538   6.953   1.093 -2.7638  0.1534 -0.9428
 8804TIP3    H226352   0.485   6.822   1.147  1.6735 -1.0482  0.7346
 8805TIP3   OH226353   6.626   7.215   3.998 -0.1778 -0.0655  0.3177
 8805TIP3    H126354   6.653   7.180   4.082 -1.7849  0.1849  0.9427
 8805TIP3    H226355   6.592   7.139   3.950 -0.1817 -0.0290  0.2624
 8806TIP3   OH226356   7.070   6.621   4.039 -0.1837  0.5105 -0.1239
 8806TIP3    H126357   7.038   6.559   3.973 -0.8377 -0.3356  0.9748
 8806TIP3    H226358   7.013   6.606   4.115  1.7971  0.1102  1.3135
 8807TIP3   OH226359   6.454   4.631   4.541 -0.1663 -0.9635 -0.1313
 8807TIP3    H126360   6.508   4.709   4.525 -3.2208  0.6700 -3.2519
 8807TIP3    H226361   6.477   4.603   4.629  3.2190  1.6847 -0.0673
 8808TIP3   OH226362   8.068   7.990   5.048  0.1806  0.6114  0.2845
 8808TIP3    H126363   7.996   7.927   5.049  0.3154  0.3976  3.7906
 8808TIP3    H226364   8.026   8.076   5.052  0.0464  0.6813 -2.2974
 8809TIP3   OH226365   5.496   6.555   3.382 -0.1183  0.0179 -0.0214
 8809TIP3    H126366   5.589   6.567   3.404  0.0757 -0.6603 -0.4515
 8809TIP3    H226367   5.453   6.542   3.466  0.2317  0.0201  0.1601
 8810TIP3   OH226368   5.916   4.182   4.802  0.4223 -0.2286  0.1429
 8810TIP3    H126369   5.988   4.121   4.816  1.5683  0.9859 -0.3175
 8810TIP3    H226370   5.946   4.263   4.843  0.1162  0.8262 -1.6808
 8811TIP3   OH226371   1.102   0.198   2.620 -0.0178  0.2748  0.0911
 8811TIP3    H126372   1.028   0.231   2.671  0.6185 -1.2368  2.0275
 8811TIP3    H226373   1.122   0.113   2.658  2.2570  0.3299 -0.8838
 8812TIP3   OH226374   0.550   0.278   2.880  0.4476  0.2268  0.2357
 8812TIP3    H126375   0.472   0.257   2.829  1.8067  1.9954 -2.6880
 8812TIP3    H226376   0.523   0.267   2.971 -2.6882 -0.8835 -0.7790
 8813TIP3   OH226377   7.372   6.327   6.924  0.1368 -0.0815  0.4333
 8813TIP3    H126378   7.370   6.391   6.853 -1.5572 -0.2555  0.3155
 8813TIP3    H226379   7.349   6.377   7.002  0.4660 -0.2056  0.6096
 8814TIP3   OH226380   5.308   7.168   3.831  0.1118 -0.4038  0.2593
 8814TIP3    H126381   5.241   7.235   3.845 -0.3777 -0.3037 -2.2005
 8814TIP3    H226382   5.264   7.085   3.851  0.2913 -0.0940  1.9399
 8815TIP3   OH226383   7.837   4.469   4.550 -0.0377 -0.1960 -0.4677
 8815TIP3    H126384   7.921   4.432   4.577 -0.1204  0.4139  0.6552
 8815TIP3    H226385   7.772   4.415   4.594 -0.1810  0.5932  0.3135
 8816TIP3   OH226386   5.659   6.963   4.347  0.7851 -0.1697  0.3736
 8816TIP3    H126387   5.704   6.983   4.429 -0.7157  0.0489  1.1555
 8816TIP3    H226388   5.655   7.047   4.301  0.2749  0.0187  0.7587
 8817TIP3   OH226389   8.218   5.265   3.025  0.2116  0.0363 -0.6287
 8817TIP3    H126390   8.312   5.279   3.013  0.3489  0.4592  0.8709
 8817TIP3    H226391   8.195   5.316   3.102 -1.7110  1.7356 -2.2546
 8818TIP3   OH226392   1.156   0.459   3.192  0.0931  0.0302 -0.0508
 8818TIP3    H126393   1.175   0.367   3.172  0.4283  0.1027 -0.0752
 8818TIP3    H226394   1.097   0.487   3.122 -0.1680 -0.2239  0.0690
 8819TIP3   OH226395   7.611   6.838   4.199  0.0862 -0.0652 -0.1837
 8819TIP3    H126396   7.587   6.925   4.169 -0.5736  0.3005  1.3664
 8819TIP3    H226397   7.690   6.852   4.252  0.7487 -0.5897 -1.0169
 8820TIP3   OH226398   1.031   0.400   4.296 -0.4936 -0.0368  0.3116
 8820TIP3    H126399   0.953   0.373   4.344 -0.4105  1.7613  1.5188
 8820TIP3    H226400   1.104   0.363   4.346 -0.3413  2.8519  2.3858
 8821TIP3   OH226401   5.665   6.935   2.851  0.3410 -0.2284  0.7562
 8821TIP3    H126402   5.608   6.868   2.812 -1.2010  1.6195 -0.2465
 8821TIP3    H226403   5.729   6.954   2.782  0.9616 -0.8625  1.1497
 8822TIP3   OH226404   6.311   5.727   1.810  0.2337 -0.3179  0.3149
 8822TIP3    H126405   6.280   5.793   1.748 -0.8611  1.2876  2.5012
 8822TIP3    H226406   6.244   5.659   1.809 -0.4106  0.3071  0.6537
 8823TIP3   OH226407   2.058   0.230   2.026  0.7574 -0.2977  0.7517
 8823TIP3    H126408   2.068   0.145   2.067  1.9414  0.4169  1.9718
 8823TIP3    H226409   1.974   0.263   2.059  0.2938 -0.9840  0.2684
 8824TIP3   OH226410   6.655   6.665   2.428  0.5022  0.3717 -0.6289
 8824TIP3    H126411   6.568   6.627   2.444  0.8153 -0.3351 -0.6071
 8824TIP3    H226412   6.710   6.591   2.403  0.6747  1.0642 -2.4310
 8825TIP3   OH226413   0.201   7.490   4.030 -0.2246  0.2917 -0.5286
 8825TIP3    H126414   0.228   7.566   3.979  0.4972  0.4319  0.0496
 8825TIP3    H226415   0.147   7.525   4.100  0.5470  0.3429  0.0525
 8826TIP3   OH226416   7.274   7.433   2.770 -0.1421 -0.8009  0.2481
 8826TIP3    H126417   7.320   7.394   2.844  0.3444  0.8101  0.8327
 8826TIP3    H226418   7.302   7.382   2.694  0.6750 -1.4047  0.9502
 8827TIP3   OH226419   6.718   6.119   2.885  0.5080 -0.6434 -0.1416
 8827TIP3    H126420   6.741   6.029   2.908  0.6417 -1.0400 -1.8078
 8827TIP3    H226421   6.627   6.115   2.857  0.0772 -0.0072  1.1092
 8828TIP3   OH226422   6.361   5.443   4.350  0.6327 -0.6896 -0.4291
 8828TIP3    H126423   6.386   5.406   4.265  0.2388 -0.7510 -0.5177
 8828TIP3    H226424   6.267   5.425   4.357  0.6155 -0.4620 -0.0923
 8829TIP3   OH226425   6.262   6.904   3.474 -0.3157 -0.4098  0.3462
 8829TIP3    H126426   6.266   6.814   3.507 -0.3648 -0.4108  0.3505
 8829TIP3    H226427   6.182   6.939   3.513 -1.2858 -0.9413 -1.1201
 8830TIP3   OH226428   0.873   0.981   5.392 -0.1427  0.3915 -0.2068
 8830TIP3    H126429   0.803   0.933   5.435 -1.3356  1.6040 -0.7541
 8830TIP3    H226430   0.866   0.957   5.299 -1.6564  2.6329 -0.7252
 8831TIP3   OH226431   4.770   7.865   3.535  0.2873 -0.0776  0.0410
 8831TIP3    H126432   4.744   7.952   3.567 -0.8036 -0.9683  1.6539
 8831TIP3    H226433   4.866   7.865   3.542  0.2726  0.9139  0.2772
 8832TIP3   OH226434   6.750   5.903   4.329  0.3072  0.8129 -0.4850
 8832TIP3    H126435   6.777   5.845   4.400 -0.5354  1.0850  0.0631
 8832TIP3    H226436   6.828   5.955   4.309  2.0975 -2.6907 -3.1868
 8833TIP3   OH226437   6.603   5.823   3.026  0.9301  0.0868 -0.1594
 8833TIP3    H126438   6.576   5.762   3.095  1.1013 -0.0412 -0.2053
 8833TIP3    H226439   6.610   5.907   3.070 -0.8150  0.3856 -0.4103
 8834TIP3   OH226440   1.053   0.978   4.745  0.1847 -0.3475  0.3353
 8834TIP3    H126441   0.958   0.965   4.755  0.0852 -0.5611 -0.9023
 8834TIP3    H226442   1.070   1.061   4.791 -0.8948  0.5806 -0.8855
 8835TIP3   OH226443   6.719   7.136   3.051 -0.1959  0.5678 -0.0323
 8835TIP3    H126444   6.716   7.085   3.132  0.1021  1.0059  0.2572
 8835TIP3    H226445   6.674   7.082   2.987  0.0312 -0.0153  0.2993
 8836TIP3   OH226446   7.244   5.388   3.283 -0.1226  0.2218 -0.1901
 8836TIP3    H126447   7.302   5.460   3.259  0.5533 -0.9056 -2.0275
 8836TIP3    H226448   7.258   5.377   3.377  2.5020  0.1021 -0.5501
 8837TIP3   OH226449   4.922   6.891   3.522 -0.4599  0.0333 -0.1983
 8837TIP3    H126450   4.835   6.863   3.550  0.1229 -0.9703  0.6591
 8837TIP3    H226451   4.932   6.855   3.434 -0.2258 -1.3609  0.3889
 8838TIP3   OH226452   6.428   3.579   5.636 -0.2278 -0.5730  0.1301
 8838TIP3    H126453   6.393   3.600   5.723  0.3449  0.4928  0.1105
 8838TIP3    H226454   6.507   3.529   5.654 -0.9351 -1.6990  0.1915
 8839TIP3   OH226455   0.890   6.919   0.899  0.0402  0.0115 -0.7908
 8839TIP3    H126456   0.878   6.962   0.984  1.2433 -1.1288 -0.0317
 8839TIP3    H226457   0.845   6.977   0.837 -1.4090  0.5335  0.6927
 8840TIP3   OH226458   6.708   7.546   2.431  0.7124 -0.1846  0.1411
 8840TIP3    H126459   6.653   7.512   2.360 -0.0069  0.6286  0.3112
 8840TIP3    H226460   6.751   7.623   2.393  3.2597 -1.9007 -0.6322
 8841TIP3   OH226461   5.817   7.518   4.782 -0.8250 -0.2574  0.8856
 8841TIP3    H126462   5.809   7.520   4.877 -0.5262 -0.1059  0.9074
 8841TIP3    H226463   5.909   7.496   4.765 -1.3158 -2.2158  0.6279
 8842TIP3   OH226464   0.515   6.135   4.785 -0.6931 -0.3879  0.1084
 8842TIP3    H126465   0.438   6.171   4.740 -1.0571 -0.4458  0.6860
 8842TIP3    H226466   0.570   6.212   4.803 -1.6769 -0.0360  1.7472
 8843TIP3   OH226467   6.332   6.332   6.338 -0.2533  0.2882  0.5293
 8843TIP3    H126468   6.273   6.365   6.406 -0.6389  1.1826 -0.2336
 8843TIP3    H226469   6.380   6.409   6.309 -0.2437 -0.0559 -0.3677
 8844TIP3   OH226470   8.113   3.694   5.901 -0.0448  0.4451  0.2619
 8844TIP3    H126471   8.020   3.674   5.893  0.3690 -1.4233 -0.0189
 8844TIP3    H226472   8.127   3.706   5.995 -0.8528  2.2285  0.1787
 8845TIP3   OH226473   0.382   5.974   3.387  0.0957 -0.3034  0.4597
 8845TIP3    H126474   0.352   5.980   3.296 -0.1571  1.5938  0.6386
 8845TIP3    H226475   0.301   5.970   3.438  0.2051  0.5250  0.7020
 8846TIP3   OH226476   0.492   5.759   2.820 -0.2347  0.3045  0.4776
 8846TIP3    H126477   0.577   5.788   2.854  0.6224 -0.8485 -0.6284
 8846TIP3    H226478   0.479   5.672   2.858 -0.4729  0.0857 -0.0914
 8847TIP3   OH226479   8.474   7.593   1.416 -0.7727  0.2615 -0.4559
 8847TIP3    H126480   8.488   7.629   1.328  1.4259  0.4734 -0.0539
 8847TIP3    H226481   8.527   7.648   1.473 -0.5743 -1.1323  0.7172
 8848TIP3   OH226482   0.199   7.194   3.125 -0.0363 -0.0824  0.3963
 8848TIP3    H126483   0.198   7.099   3.110  0.2621 -0.1350  0.7127
 8848TIP3    H226484   0.125   7.210   3.184 -2.1030  0.3126 -2.2113
 8849TIP3   OH226485   6.995   7.175   3.797 -0.3379 -0.6205 -0.2863
 8849TIP3    H126486   7.063   7.229   3.839  0.9631 -1.2220 -1.5703
 8849TIP3    H226487   6.997   7.203   3.706 -2.6169  0.1348 -0.1290
 8850TIP3   OH226488   5.067   7.302   2.143 -0.1971 -0.0867 -0.3296
 8850TIP3    H126489   4.990   7.285   2.197 -0.7202  0.1144 -1.0015
 8850TIP3    H226490   5.036   7.292   2.053  0.2730  1.1884 -0.6435
 8851TIP3   OH226491   6.117   6.065   3.415  0.4560 -0.1832  0.4615
 8851TIP3    H126492   6.070   6.138   3.375  1.8015  0.5673  0.2199
 8851TIP3    H226493   6.111   6.080   3.509  0.6976  0.2249  0.4133
 8852TIP3   OH226494   8.271   7.794   2.377 -0.0226  0.3420 -0.5201
 8852TIP3    H126495   8.319   7.811   2.296  0.9194  0.3321  0.0235
 8852TIP3    H226496   8.309   7.713   2.410 -1.2830 -0.3365 -0.7121
 8853TIP3   OH226497   5.470   5.752   3.424  0.3571  0.3030 -0.2570
 8853TIP3    H126498   5.429   5.725   3.507 -0.1096  0.0560 -0.5678
 8853TIP3    H226499   5.539   5.813   3.451  0.9528 -0.6297  0.4095
 8854TIP3   OH226500   0.603   6.832   4.395  0.0319 -0.4328 -0.1359
 8854TIP3    H126501   0.526   6.806   4.345  0.2058 -0.8639 -0.1856
 8854TIP3    H226502   0.612   6.764   4.462  0.0838 -0.1200  0.1747
 8855TIP3   OH226503   6.504   5.541   0.885 -0.4111 -0.2425 -0.1115
 8855TIP3    H126504   6.554   5.459   0.891  0.8520  0.4552 -1.0532
 8855TIP3    H226505   6.413   5.512   0.878  0.0798 -1.5966 -1.1997
 8856TIP3   OH226506   6.150   5.992   3.844 -0.2219 -0.4911  0.2114
 8856TIP3    H126507   6.079   6.010   3.782  0.3409 -0.5629 -0.4520
 8856TIP3    H226508   6.209   5.934   3.797  1.0739  0.8074  0.2143
 8857TIP3   OH226509   6.390   6.095   3.378  0.1243  0.7216 -0.2149
 8857TIP3    H126510   6.297   6.092   3.402  0.0794 -0.3719 -0.4994
 8857TIP3    H226511   6.435   6.111   3.461 -0.4670  3.9683 -0.4454
 8858TIP3   OH226512   6.480   5.609   4.523  0.4011  0.0562 -0.2881
 8858TIP3    H126513   6.470   5.548   4.450  0.1707 -0.1241 -0.1074
 8858TIP3    H226514   6.390   5.632   4.547  0.3111 -2.9514  2.5164
 8859TIP3   OH226515   7.428   6.570   2.378  0.2529 -0.2359 -0.5706
 8859TIP3    H126516   7.373   6.509   2.427 -0.4992  1.3546  0.5719
 8859TIP3    H226517   7.368   6.616   2.320  0.2642  1.8232  0.9974
 8860TIP3   OH226518   8.034   5.146   3.483  0.0404 -0.8051  0.1024
 8860TIP3    H126519   8.026   5.108   3.570 -0.4691 -0.8004  0.0571
 8860TIP3    H226520   7.946   5.175   3.461  0.1572 -0.8652 -0.4450
 8861TIP3   OH226521   2.455   2.115   4.268  0.2736  0.1070 -0.3478
 8861TIP3    H126522   2.529   2.054   4.277  0.3844  0.0362 -1.6766
 8861TIP3    H226523   2.467   2.155   4.182 -0.5883  0.9765 -0.0769
 8862TIP3   OH226524   8.048   6.504   4.134  0.0596 -0.4435 -0.1116
 8862TIP3    H126525   8.001   6.564   4.076 -0.0334 -0.4635 -0.0568
 8862TIP3    H226526   8.015   6.417   4.111  0.6238 -0.5335 -0.5940
 8863TIP3   OH226527   5.903   5.303   3.756  0.1968  0.2033  0.6597
 8863TIP3    H126528   5.919   5.393   3.727 -1.0908  0.6319  1.2321
 8863TIP3    H226529   5.900   5.252   3.675 -0.5442  0.9353  0.2157
 8864TIP3   OH226530   7.255   6.042   2.391 -0.5103  0.1869  0.7649
 8864TIP3    H126531   7.277   5.949   2.401  2.5593  0.8320  0.5622
 8864TIP3    H226532   7.320   6.087   2.444 -1.1456  2.2849 -0.2079
 8865TIP3   OH226533   6.990   6.232   2.563  0.2174 -0.0373  0.4094
 8865TIP3    H126534   7.000   6.190   2.649  0.5860  0.0826  0.4236
 8865TIP3    H226535   6.955   6.163   2.507  1.3685 -0.5342  0.2878
 8866TIP3   OH226536   7.475   7.213   0.209  0.4036 -0.1203 -0.1829
 8866TIP3    H126537   7.547   7.276   0.208  1.9712 -1.8255  0.6266
 8866TIP3    H226538   7.400   7.262   0.241  1.7768  1.1493  1.2028
 8867TIP3   OH226539   7.018   5.684   3.114 -0.4435  0.2929 -0.4240
 8867TIP3    H126540   7.006   5.608   3.171  0.6806 -0.2769 -0.9384
 8867TIP3    H226541   7.070   5.745   3.167 -1.1385  0.6091 -0.0997
 8868TIP3   OH226542   1.763   0.015   3.736  0.1878  0.1148 -0.2228
 8868TIP3    H126543   1.785   0.101   3.770 -1.6653  0.6440 -0.3080
 8868TIP3    H226544   1.668   0.009   3.746  0.2711 -1.8268 -0.4194
 8869TIP3   OH226545   2.285   0.480   2.787  0.0995 -0.3998 -0.0718
 8869TIP3    H126546   2.251   0.473   2.697  0.9386  1.5037 -0.5635
 8869TIP3    H226547   2.292   0.574   2.802  2.5055 -0.7267  1.0308
 8870TIP3   OH226548   7.064   7.830   4.441 -0.4957  0.6087  0.3446
 8870TIP3    H126549   7.080   7.804   4.351  1.9956  1.0381  0.6237
 8870TIP3    H226550   7.112   7.913   4.451  0.9631 -0.4473  2.6087
 8871TIP3   OH226551   8.266   6.194   3.003 -0.4261 -0.2527  0.2739
 8871TIP3    H126552   8.231   6.169   2.918 -0.0168 -0.6467  0.2224
 8871TIP3    H226553   8.321   6.121   3.030  0.4356  0.4009  0.3242
 8872TIP3   OH226554   0.440   1.267   2.208 -0.2594  0.1010  0.0881
 8872TIP3    H126555   0.382   1.340   2.188  0.2336  0.4295 -0.1544
 8872TIP3    H226556   0.512   1.306   2.257  1.9744  0.4703 -3.3699
 8873TIP3   OH226557   7.651   4.639   3.564  0.3100 -0.0920 -0.0258
 8873TIP3    H126558   7.739   4.633   3.602 -0.7094 -0.4704  2.3829
 8873TIP3    H226559   7.613   4.717   3.605 -0.6001 -0.1297 -0.7851
 8874TIP3   OH226560   6.750   6.042   5.239  0.4587  0.2593  0.1149
 8874TIP3    H126561   6.745   6.018   5.332  0.6389  0.0072  0.0601
 8874TIP3    H226562   6.662   6.027   5.206  0.8287 -1.4348 -0.1816
 8875TIP3   OH226563   7.621   6.648   2.601 -0.5766 -0.2083  0.1327
 8875TIP3    H126564   7.571   6.636   2.521 -0.7876  2.2862 -0.1333
 8875TIP3    H226565   7.570   6.711   2.652 -0.3047 -1.5505  2.1099
 8876TIP3   OH226566   7.677   6.962   2.518 -0.4226  0.6485 -0.4125
 8876TIP3    H126567   7.583   6.951   2.500 -0.4785  1.2871 -0.5029
 8876TIP3    H226568   7.700   7.046   2.477 -0.4900  2.0122  2.2806
 8877TIP3   OH226569   7.429   5.077   3.174 -0.2544 -0.1750 -0.3183
 8877TIP3    H126570   7.384   5.008   3.223 -0.3928  0.9971  1.2438
 8877TIP3    H226571   7.520   5.048   3.168 -0.0369  0.0536  1.4302
 8878TIP3   OH226572   5.167   6.457   4.050 -0.0110 -0.1055 -0.1667
 8878TIP3    H126573   5.205   6.527   4.104 -1.0315 -0.0410  0.4746
 8878TIP3    H226574   5.211   6.377   4.080  0.8805  0.1957 -0.6396
 8879TIP3   OH226575   7.558   5.973   3.804  0.4727  0.3356 -0.5773
 8879TIP3    H126576   7.629   5.954   3.743 -0.4920 -3.3705 -0.6531
 8879TIP3    H226577   7.487   5.915   3.776 -2.0529  2.8078  0.4713
 8880TIP3   OH226578   5.655   8.010   4.151 -0.2520  0.5537 -1.4142
 8880TIP3    H126579   5.624   7.965   4.073 -0.5390  0.9101 -1.5036
 8880TIP3    H226580   5.740   8.047   4.126 -0.1915  0.3865 -1.4557
 8881TIP3   OH226581   8.072   7.746   2.576 -0.7045  0.6327  0.0388
 8881TIP3    H126582   8.124   7.792   2.510  1.7036 -0.9375  0.7612
 8881TIP3    H226583   8.014   7.689   2.525 -0.4643  1.1089 -0.7683
 8882TIP3   OH226584   7.350   7.960   1.590  0.2595  1.0401  0.0470
 8882TIP3    H126585   7.324   7.948   1.498  1.9032  0.6085 -0.3890
 8882TIP3    H226586   7.353   8.055   1.602  0.7602  1.1090 -0.5801
 8883TIP3   OH226587   5.671   5.483   4.081  0.4234  0.1173 -0.0961
 8883TIP3    H126588   5.652   5.437   4.163  1.2648  0.7896  0.4829
 8883TIP3    H226589   5.714   5.417   4.026  0.4943 -0.1380  0.2622
 8884TIP3   OH226590   3.901   3.731   6.240  0.2012 -0.0762  0.4552
 8884TIP3    H126591   3.982   3.724   6.189  0.8780  1.8055  1.2480
 8884TIP3    H226592   3.926   3.776   6.320 -1.2079 -1.4641  1.7121
 8885TIP3   OH226593   6.184   7.137   2.827 -0.0480 -0.3478 -0.0838
 8885TIP3    H126594   6.249   7.089   2.777  0.2232  0.8388 -0.8991
 8885TIP3    H226595   6.200   7.113   2.918  1.2856 -0.3534 -0.3181
 8886TIP3   OH226596   4.594   5.807   2.505 -0.1044  0.1168 -0.7770
 8886TIP3    H126597   4.671   5.764   2.545 -1.8243 -0.9551  1.5269
 8886TIP3    H226598   4.605   5.899   2.526  1.1843  0.1534 -1.5617
 8887TIP3   OH226599   7.224   7.858   2.944  0.1523  0.2014 -0.1352
 8887TIP3    H126600   7.290   7.920   2.914  0.8631  0.0783  1.1187
 8887TIP3    H226601   7.252   7.835   3.033  0.1395 -2.2225 -0.7255
 8888TIP3   OH226602   4.952   5.276   1.015 -0.7137 -0.2210 -1.0516
 8888TIP3    H126603   4.924   5.210   0.952  0.0877 -0.6222 -0.9950
 8888TIP3    H226604   5.030   5.238   1.056 -1.8280 -0.4178  0.9202
 8889TIP3   OH226605   6.309   6.991   1.694  0.8473  0.0709 -0.0564
 8889TIP3    H126606   6.278   6.922   1.753  1.3956  0.1207  0.2879
 8889TIP3    H226607   6.230   7.019   1.647  0.5397 -0.4660  0.1381
 8890TIP3   OH226608   3.036   0.386   2.384  0.1634 -0.3773 -0.0926
 8890TIP3    H126609   3.064   0.403   2.474  0.0702 -0.3343 -0.0712
 8890TIP3    H226610   3.103   0.327   2.349 -1.6216 -3.2420  1.1220
 8891TIP3   OH226611   5.755   6.906   3.492  0.2837  0.1221  0.1635
 8891TIP3    H126612   5.778   6.934   3.404  0.0606 -0.9527 -0.2350
 8891TIP3    H226613   5.838   6.879   3.531  0.1613 -0.8464 -0.2366
 8892TIP3   OH226614   7.768   4.763   3.917  0.2265 -0.2815  0.2758
 8892TIP3    H126615   7.674   4.776   3.904  0.3476  0.0212 -0.3335
 8892TIP3    H226616   7.774   4.703   3.991 -0.4666 -0.7600 -0.0469
 8893TIP3   OH226617   5.924   6.446   4.245 -0.1245  0.1666 -1.0695
 8893TIP3    H126618   5.861   6.467   4.314  0.6512 -0.2046 -0.2343
 8893TIP3    H226619   6.007   6.482   4.277  0.9028 -2.6945 -0.3484
 8894TIP3   OH226620   6.421   6.123   1.009  0.6084 -0.0095 -0.0488
 8894TIP3    H126621   6.335   6.159   0.987  0.5614  0.1547  0.4019
 8894TIP3    H226622   6.424   6.039   0.962  0.1288 -0.1000  0.0697
 8895TIP3   OH226623   7.217   6.553   0.868 -0.4399  0.4557  0.0953
 8895TIP3    H126624   7.131   6.565   0.907  0.3977  2.4233  1.4130
 8895TIP3    H226625   7.236   6.460   0.881 -1.4112  0.4807  1.8098
 8896TIP3   OH226626   7.820   4.933   4.237 -0.2032 -0.3188  0.3578
 8896TIP3    H126627   7.763   4.867   4.198  1.2374 -0.7404 -1.0858
 8896TIP3    H226628   7.831   4.999   4.168  0.6271  0.0118  0.7983
 8897TIP3   OH226629   6.791   6.713   3.843  0.5047  0.8805  0.3823
 8897TIP3    H126630   6.776   6.752   3.757 -0.5637 -1.8029 -0.7138
 8897TIP3    H226631   6.864   6.653   3.829  0.3735  0.4891  1.3685
 8898TIP3   OH226632   7.216   5.090   2.557 -0.7311 -0.3796  0.1548
 8898TIP3    H126633   7.308   5.080   2.582 -0.0432  2.2138 -1.1107
 8898TIP3    H226634   7.172   5.117   2.637 -0.2027 -0.6908  0.5542
 8899TIP3   OH226635   6.285   6.245   5.794  0.3937  0.5362  0.2987
 8899TIP3    H126636   6.208   6.296   5.818 -0.6033  0.0253 -1.6996
 8899TIP3    H226637   6.296   6.183   5.866 -0.4573  1.2549  1.0688
 8900TIP3   OH226638   3.870   4.429   1.186 -0.0475  0.2747 -0.5919
 8900TIP3    H126639   3.838   4.514   1.155 -0.3321  0.3818 -0.0050
 8900TIP3    H226640   3.793   4.385   1.219  0.4755  0.7283  1.2866
 8901TIP3   OH226641   6.910   6.607   4.286 -0.5608 -0.3535 -0.2017
 8901TIP3    H126642   6.860   6.684   4.262  1.0839  0.5961 -0.6633
 8901TIP3    H226643   6.990   6.641   4.327  0.7252 -1.7472 -1.4670
 8902TIP3   OH226644   5.592   5.567   3.269 -0.1506 -0.7717 -0.2060
 8902TIP3    H126645   5.537   5.637   3.306 -1.6771 -1.3931 -1.2644
 8902TIP3    H226646   5.546   5.486   3.291 -0.0960 -1.2522 -1.8188
 8903TIP3   OH226647   4.509   7.515   4.374 -0.2456  0.1229  0.2820
 8903TIP3    H126648   4.538   7.529   4.464 -1.0325  0.9089  0.4262
 8903TIP3    H226649   4.487   7.422   4.369 -0.6819  0.1862  1.0473
 8904TIP3   OH226650   0.508   0.168   3.568  0.0766  0.0141  0.6283
 8904TIP3    H126651   0.578   0.140   3.628  1.2542 -0.9587 -1.1722
 8904TIP3    H226652   0.547   0.239   3.518 -0.5888  0.1789  0.3436
 8905TIP3   OH226653   6.859   6.915   0.912 -0.3096 -0.7226  0.4864
 8905TIP3    H126654   6.827   6.905   0.822 -1.1230 -0.4167  0.7387
 8905TIP3    H226655   6.789   6.961   0.957 -0.1877 -1.4760  1.4512
 8906TIP3   OH226656   1.949   0.185   3.075  0.3247 -0.0984 -0.1718
 8906TIP3    H126657   1.884   0.235   3.124  0.5361  0.6608 -0.6641
 8906TIP3    H226658   2.018   0.167   3.139 -0.3666 -0.9188  0.3528
 8907TIP3   OH226659   6.604   3.400   5.415  0.0297 -0.6151 -0.4650
 8907TIP3    H126660   6.556   3.358   5.486 -1.4086  0.1642 -0.9637
 8907TIP3    H226661   6.636   3.482   5.452  0.2741 -0.7516 -0.3737
 8908TIP3   OH226662   7.668   7.298   2.933  0.0329 -0.4961  0.3212
 8908TIP3    H126663   7.654   7.339   2.848  0.1172 -0.3029  0.4007
 8908TIP3    H226664   7.738   7.235   2.918 -0.8281 -1.3778 -0.0500
 8909TIP3   OH226665   5.907   5.859   3.994 -0.6175 -0.1472  0.4573
 8909TIP3    H126666   5.958   5.927   3.949 -1.8413  1.2484  1.1334
 8909TIP3    H226667   5.922   5.780   3.943 -1.0479  1.1511 -1.7477
 8910TIP3   OH226668   7.228   6.823   5.208  0.3130  0.1886 -0.5015
 8910TIP3    H126669   7.163   6.811   5.138  0.4464  3.5303 -1.2580
 8910TIP3    H226670   7.311   6.797   5.167  0.1663  0.6501 -1.0979
 8911TIP3   OH226671   1.791   2.545   2.268 -0.0125  0.0464  0.2499
 8911TIP3    H126672   1.813   2.637   2.258 -1.0163  0.5844  2.6339
 8911TIP3    H226673   1.695   2.543   2.264 -0.0210 -0.8102  0.7495
 8912TIP3   OH226674   7.976   5.950   3.524  0.8790 -0.3547  0.4625
 8912TIP3    H126675   7.882   5.935   3.511  0.9884 -0.9456  0.3689
 8912TIP3    H226676   8.010   5.962   3.435  1.0996 -1.3537  0.4062
 8913TIP3   OH226677   8.472   0.140   2.158  0.3270 -0.4411 -0.6609
 8913TIP3    H126678   8.515   0.082   2.220 -0.1156  0.0844  0.1560
 8913TIP3    H226679   8.381   0.144   2.188  0.4541  1.0084 -0.4459
 8914TIP3   OH226680   0.764   0.772   2.010 -0.6559  0.2443  0.2410
 8914TIP3    H126681   0.758   0.712   2.084  1.4160  0.0522  0.2703
 8914TIP3    H226682   0.761   0.860   2.049  0.3083  0.1429  0.5615
 8915TIP3   OH226683   0.318   6.827   2.179 -0.0747 -0.0983 -0.8226
 8915TIP3    H126684   0.268   6.748   2.159  0.0293 -0.2333 -0.5586
 8915TIP3    H226685   0.379   6.800   2.248  0.6114 -0.0259 -1.4036
 8916TIP3   OH226686   7.586   7.349   3.949 -0.3166  0.2855  0.2312
 8916TIP3    H126687   7.554   7.371   4.037 -2.0674 -0.6091 -0.1612
 8916TIP3    H226688   7.601   7.433   3.907  1.0113  0.7218  1.5563
 8917TIP3   OH226689   6.624   6.666   5.549  0.2496  0.5570  0.1406
 8917TIP3    H126690   6.659   6.731   5.610  0.6809 -0.2767  0.8003
 8917TIP3    H226691   6.690   6.597   5.547 -0.2261  0.1140 -0.5156
 8918TIP3   OH226692   6.543   6.518   2.762 -0.2912  0.6318 -0.2935
 8918TIP3    H126693   6.516   6.527   2.671  1.1255  2.1501 -0.5773
 8918TIP3    H226694   6.485   6.575   2.811 -0.1594  0.8695 -0.4143
 8919TIP3   OH226695   4.276   0.773   3.562  0.3945 -0.6693  0.1044
 8919TIP3    H126696   4.296   0.847   3.619 -0.4922 -1.2205  1.1476
 8919TIP3    H226697   4.299   0.695   3.614  1.0677 -1.1495 -0.8809
 8920TIP3   OH226698   0.371   6.924   5.334 -0.0061 -0.0235 -0.0530
 8920TIP3    H126699   0.462   6.900   5.318 -0.1003  1.5816 -3.3885
 8920TIP3    H226700   0.320   6.851   5.298 -0.0961 -1.1129  2.1713
 8921TIP3   OH226701   8.338   6.542   4.943 -0.7964  0.1701 -0.1714
 8921TIP3    H126702   8.342   6.491   4.862 -0.2559  0.6604 -0.4551
 8921TIP3    H226703   8.245   6.561   4.955 -0.7077  1.5673 -1.5949
 8922TIP3   OH226704   0.074   7.714   6.219  0.1792 -0.1640 -0.0070
 8922TIP3    H126705   0.140   7.644   6.213  2.0136  1.6546 -2.7028
 8922TIP3    H226706   0.054   7.735   6.127 -1.1266  2.0939  0.7643
 8923TIP3   OH226707   1.064   4.309   3.578  0.6718  0.1022 -0.0568
 8923TIP3    H126708   1.008   4.345   3.509  0.1245  0.9741  0.8284
 8923TIP3    H226709   1.153   4.330   3.551  0.7128 -2.8550 -2.3760
 8924TIP3   OH226710   6.265   7.750   3.006  0.3529  0.5559  0.2061
 8924TIP3    H126711   6.250   7.699   3.086 -0.5789  0.2076 -0.1775
 8924TIP3    H226712   6.323   7.694   2.953  0.1949  0.3621  0.2361
 8925TIP3   OH226713   6.286   6.591   3.181  0.2133  0.3369  0.0479
 8925TIP3    H126714   6.360   6.540   3.213  0.4453  0.2607 -0.5987
 8925TIP3    H226715   6.214   6.527   3.176  0.0827  0.4254  0.7362
 8926TIP3   OH226716   0.447   7.122   4.093  0.1121  0.3030 -0.5178
 8926TIP3    H126717   0.432   7.199   4.148 -0.6031  0.3126 -0.7205
 8926TIP3    H226718   0.509   7.068   4.144 -0.3411  0.4292  0.1771
 8927TIP3   OH226719   6.935   6.210   4.118 -0.0620 -0.4450 -0.3323
 8927TIP3    H126720   7.006   6.233   4.058  0.3620  0.3269  0.4563
 8927TIP3    H226721   6.926   6.115   4.109  0.7399 -0.4845 -0.7897
 8928TIP3   OH226722   6.260   7.827   3.405 -0.4026  0.3774  0.0954
 8928TIP3    H126723   6.212   7.754   3.444  2.3646 -2.0230 -0.8648
 8928TIP3    H226724   6.321   7.856   3.473  0.0906  0.2942 -0.3048
 8929TIP3   OH226725   2.061   0.435   3.854  0.2736  0.0766 -0.4258
 8929TIP3    H126726   2.095   0.371   3.792 -0.0461 -0.8191  0.3219
 8929TIP3    H226727   1.977   0.399   3.883 -0.0193  0.9426 -0.1844
 8930TIP3   OH226728   5.761   5.250   1.522  0.4230  0.0342 -0.3152
 8930TIP3    H126729   5.675   5.248   1.480  0.4073  2.6868 -0.5236
 8930TIP3    H226730   5.745   5.216   1.610 -1.1676  1.7231  0.1022
 8931TIP3   OH226731   0.402   2.166   2.232  0.1408 -0.7313  0.3895
 8931TIP3    H126732   0.463   2.240   2.231  0.2390 -0.8089  0.6636
 8931TIP3    H226733   0.315   2.207   2.228  0.2120 -0.6268 -0.1690
 8932TIP3   OH226734   5.637   5.499   2.790  0.5025  0.2906  0.0080
 8932TIP3    H126735   5.685   5.545   2.720  1.4450 -2.0984 -1.0082
 8932TIP3    H226736   5.545   5.509   2.766  0.8597 -1.8465 -2.5576
 8933TIP3   OH226737   4.668   5.609   5.099 -0.1842  0.0789  0.7874
 8933TIP3    H126738   4.720   5.687   5.079 -0.9310  0.6973  1.2179
 8933TIP3    H226739   4.682   5.595   5.193 -1.7095  0.9378  1.1508
 8934TIP3   OH226740   0.518   6.244   2.765  0.0214 -0.1408  0.0411
 8934TIP3    H126741   0.602   6.254   2.811  1.3024 -0.7728 -2.0863
 8934TIP3    H226742   0.507   6.327   2.718  0.3773 -0.7299 -1.1109
 8935TIP3   OH226743   2.032   0.168   2.519  0.3363  1.0643  1.0229
 8935TIP3    H126744   2.014   0.087   2.472  0.5799  0.6643  1.6299
 8935TIP3    H226745   1.969   0.170   2.590 -0.3432  1.9035  0.4152
 8936TIP3   OH226746   2.419   1.679   4.389 -0.5816 -0.5899  0.2585
 8936TIP3    H126747   2.471   1.742   4.439  0.3099 -1.4056  0.3662
 8936TIP3    H226748   2.483   1.630   4.338 -1.3090 -1.1356 -0.1294
 8937TIP3   OH226749   6.494   7.855   5.251  0.9029 -0.0868 -0.5039
 8937TIP3    H126750   6.549   7.802   5.192  1.5276  0.0079 -0.0158
 8937TIP3    H226751   6.405   7.823   5.236  1.0420  0.0040 -1.5742
 8938TIP3   OH226752   0.764   3.130   4.365  0.0544  0.3141 -0.3710
 8938TIP3    H126753   0.723   3.153   4.448  1.4183 -0.8344  0.6318
 8938TIP3    H226754   0.846   3.088   4.389 -1.2356 -3.4199 -2.1826
 8939TIP3   OH226755   4.236   6.501   4.230  0.1773 -0.0335  0.6867
 8939TIP3    H126756   4.327   6.511   4.258  0.4254 -2.6122  0.9199
 8939TIP3    H226757   4.185   6.518   4.309  0.6306 -1.9220  1.4079
 8940TIP3   OH226758   6.841   7.297   2.865  0.6706 -0.4549  0.6523
 8940TIP3    H126759   6.817   7.274   2.955  1.2275 -1.1176  0.6354
 8940TIP3    H226760   6.769   7.263   2.812  0.2034  0.1850  0.8702
 8941TIP3   OH226761   7.678   6.895   3.427  0.1442  0.0079 -0.1671
 8941TIP3    H126762   7.699   6.827   3.491 -0.1702 -0.0385 -0.1134
 8941TIP3    H226763   7.702   6.856   3.343  2.6501  0.8914  0.0987
 8942TIP3   OH226764   5.168   5.303   2.930 -0.4020  0.4670 -0.1462
 8942TIP3    H126765   5.109   5.378   2.933 -0.8607  0.0583  2.1449
 8942TIP3    H226766   5.198   5.293   3.020  1.1775 -0.9081 -0.8036
 8943TIP3   OH226767   8.213   4.905   3.480  0.4778 -0.2358  0.5911
 8943TIP3    H126768   8.160   4.977   3.512  0.2437  0.6090 -1.5835
 8943TIP3    H226769   8.238   4.931   3.391  0.2424 -2.8929 -0.3105
 8944TIP3   OH226770   5.016   4.966   4.888  0.0426 -0.4306  0.5411
 8944TIP3    H126771   5.029   4.872   4.877 -0.6499 -0.3780 -0.8920
 8944TIP3    H226772   4.994   4.977   4.980 -0.7588 -1.7758  0.5168
 8945TIP3   OH226773   0.235   0.444   3.096 -0.3784 -0.1361  0.3920
 8945TIP3    H126774   0.246   0.381   3.025 -1.7138  0.2908 -0.1992
 8945TIP3    H226775   0.149   0.424   3.134 -0.7487  1.2133  0.2994
 8946TIP3   OH226776   5.426   6.406   4.182  0.4394  0.1322  0.3307
 8946TIP3    H126777   5.418   6.452   4.265 -1.7936 -1.5052  1.0641
 8946TIP3    H226778   5.467   6.322   4.204  0.7062  0.0725 -0.3599
 8947TIP3   OH226779   1.058   1.023   1.599 -0.1110  0.0484  0.3101
 8947TIP3    H126780   1.126   0.966   1.564  0.3095  1.0522 -0.5196
 8947TIP3    H226781   1.001   0.964   1.648 -0.6547 -1.3617 -1.9454
 8948TIP3   OH226782   1.354   5.912   2.527  0.1042 -0.1723  0.1453
 8948TIP3    H126783   1.388   5.856   2.597  0.7716 -0.0706 -0.0926
 8948TIP3    H226784   1.264   5.932   2.553  0.0302 -0.9418  0.4850
 8949TIP3   OH226785   1.754   0.101   2.006 -0.2195  0.2291  0.1373
 8949TIP3    H126786   1.678   0.113   2.062  0.3110 -0.9076  1.1266
 8949TIP3    H226787   1.786   0.013   2.027  1.4379  0.7330 -0.1706
 8950TIP3   OH226788   3.234   1.791   2.962  0.4507 -0.3319  0.0548
 8950TIP3    H126789   3.244   1.861   3.027  4.0207  0.4023 -1.1649
 8950TIP3    H226790   3.164   1.736   2.996 -1.1557  2.7790  2.0060
 8951TIP3   OH226791   7.053   7.563   5.374  0.0835  0.6720 -0.6187
 8951TIP3    H126792   6.964   7.582   5.403 -1.1163 -1.4674 -2.7386
 8951TIP3    H226793   7.093   7.649   5.359 -1.3753  1.6580  0.9711
 8952TIP3   OH226794   2.396   0.643   2.016 -0.6187  0.3372  0.0337
 8952TIP3    H126795   2.305   0.629   1.991  0.2700 -0.6507 -2.8985
 8952TIP3    H226796   2.416   0.731   1.984 -0.0199 -0.1781 -1.0349
 8953TIP3   OH226797   6.430   6.801   2.155  0.3760 -0.2351  0.9989
 8953TIP3    H126798   6.477   6.883   2.167 -1.9006  1.2449  0.1047
 8953TIP3    H226799   6.342   6.818   2.187 -0.3674 -2.0664  0.0195
 8954TIP3   OH226800   6.592   5.704   6.263 -0.2360 -0.1772 -0.1141
 8954TIP3    H126801   6.679   5.722   6.298 -0.5266  0.4629  0.2901
 8954TIP3    H226802   6.576   5.774   6.200 -0.6990  0.0606  0.2614
 8955TIP3   OH226803   7.474   7.549   1.696 -0.2189  0.1731 -0.0687
 8955TIP3    H126804   7.382   7.559   1.673  0.0521 -1.1271 -1.8457
 8955TIP3    H226805   7.515   7.632   1.672 -0.6606  0.2020 -0.7200
 8956TIP3   OH226806   2.213   0.796   2.226  0.0989 -0.6381 -0.2431
 8956TIP3    H126807   2.237   0.807   2.318 -0.3738 -1.0933 -0.0629
 8956TIP3    H226808   2.282   0.841   2.178  0.0337  0.1195  0.3516
 8957TIP3   OH226809   5.920   6.281   1.941 -0.1050  0.5184 -0.0137
 8957TIP3    H126810   5.832   6.259   1.971  0.2225 -0.7746  0.0076
 8957TIP3    H226811   5.974   6.207   1.969  0.7960  0.8139 -0.9593
 8958TIP3   OH226812   3.881   4.195   2.663 -0.2297  0.2346 -1.0384
 8958TIP3    H126813   3.963   4.163   2.702 -1.6980 -1.1808  1.0069
 8958TIP3    H226814   3.848   4.260   2.725 -1.3898 -0.2790 -1.0975
 8959TIP3   OH226815   8.034   6.047   3.816  0.0343  0.0666 -0.4807
 8959TIP3    H126816   8.016   6.053   3.722  2.5424 -1.9138 -1.1459
 8959TIP3    H226817   8.047   6.137   3.844  0.2243  0.6027 -2.2351
 8960TIP3   OH226818   7.279   3.350   2.736 -0.3450  0.1847  0.0358
 8960TIP3    H126819   7.262   3.284   2.803  1.7857  0.6293  1.0689
 8960TIP3    H226820   7.357   3.319   2.690  0.2561  1.5990  0.0547
 8961TIP3   OH226821   8.139   4.389   4.347  0.4253  0.9110  0.2472
 8961TIP3    H126822   8.086   4.344   4.412 -0.5185  1.3964 -0.1783
 8961TIP3    H226823   8.091   4.470   4.329  1.0472  1.1164 -0.5173
 8962TIP3   OH226824   4.407   6.106   3.417 -0.2629  0.7192 -0.2342
 8962TIP3    H126825   4.403   6.058   3.500  0.7120  0.2989 -0.4197
 8962TIP3    H226826   4.366   6.190   3.436 -0.7086  0.3508  0.4749
 8963TIP3   OH226827   7.328   6.427   1.300  0.8493 -0.1748  0.3200
 8963TIP3    H126828   7.307   6.508   1.254  2.1352  0.1041  0.2082
 8963TIP3    H226829   7.314   6.448   1.393 -3.6965 -1.3202  0.0198
 8964TIP3   OH226830   7.530   5.712   4.715  0.2272 -0.2364 -0.0666
 8964TIP3    H126831   7.461   5.778   4.710  0.0242 -0.3728  0.7964
 8964TIP3    H226832   7.566   5.721   4.803  0.4976 -0.9668 -0.0967
 8965TIP3   OH226833   0.193   7.828   1.481 -0.0972  0.3798  0.5524
 8965TIP3    H126834   0.233   7.812   1.567 -2.0630 -0.8403  1.2846
 8965TIP3    H226835   0.242   7.771   1.421 -1.5397 -2.1191  1.6727
 8966TIP3   OH226836   6.117   3.697   4.510  0.2764 -0.1500  0.0543
 8966TIP3    H126837   6.083   3.764   4.451  0.4135  0.0338  0.1846
 8966TIP3    H226838   6.130   3.621   4.454 -1.2653 -0.5326  0.1806
 8967TIP3   OH226839   3.862   7.699   3.689 -0.1024 -0.0162  0.1271
 8967TIP3    H126840   3.953   7.679   3.671  0.1082 -1.0686  2.2019
 8967TIP3    H226841   3.825   7.617   3.720 -1.6677  0.5032 -0.3059
 8968TIP3   OH226842   6.714   7.845   3.044 -0.2760 -0.3327 -0.1573
 8968TIP3    H126843   6.784   7.856   3.109  0.7695 -0.1372 -1.2962
 8968TIP3    H226844   6.647   7.909   3.070  0.7404  0.7075 -0.0665
 8969TIP3   OH226845   8.178   7.542   4.974  0.2913  0.1565 -0.4985
 8969TIP3    H126846   8.116   7.544   4.901 -1.1274 -0.7334  0.6479
 8969TIP3    H226847   8.264   7.540   4.933 -0.5082 -0.9234 -2.1713
 8970TIP3   OH226848   5.491   0.472   5.520  0.1667  0.6096  0.5813
 8970TIP3    H126849   5.489   0.559   5.481  1.7617  1.1059  1.5637
 8970TIP3    H226850   5.528   0.416   5.452 -1.6048  0.5120 -0.3423
 8971TIP3   OH226851   0.205   5.272   4.412 -0.2106 -0.6974  0.1263
 8971TIP3    H126852   0.263   5.205   4.376 -0.4654 -0.9401  0.1686
 8971TIP3    H226853   0.123   5.261   4.364 -0.2308 -0.3674  0.0812
 8972TIP3   OH226854   4.238   6.208   4.198 -0.4102 -0.1528 -0.0105
 8972TIP3    H126855   4.253   6.301   4.185  0.4900 -0.1761  0.7804
 8972TIP3    H226856   4.317   6.166   4.163 -0.6434 -0.5959 -0.0093
 8973TIP3   OH226857   4.493   1.560   4.827 -0.0439 -0.0773 -0.0611
 8973TIP3    H126858   4.518   1.596   4.912  0.5065 -0.2996 -0.1241
 8973TIP3    H226859   4.566   1.582   4.769  1.0062 -2.5944  0.2482
 8974TIP3   OH226860   1.804   6.515   6.537 -0.3326 -0.2114 -0.6234
 8974TIP3    H126861   1.872   6.510   6.469  0.0715 -1.8474 -0.1200
 8974TIP3    H226862   1.809   6.605   6.569  0.4482  0.1687 -1.7727
 8975TIP3   OH226863   1.769   6.435   6.813 -0.7468  0.0499 -0.3025
 8975TIP3    H126864   1.808   6.456   6.728  1.0072 -0.6306  0.3271
 8975TIP3    H226865   1.738   6.520   6.846  1.0634  0.7737 -0.3904
 8976TIP3   OH226866   0.077   7.316   5.320  0.0156 -0.0106 -0.5835
 8976TIP3    H126867   0.152   7.257   5.307 -0.5764 -0.5972 -1.3332
 8976TIP3    H226868   0.019   7.267   5.378  1.3399  1.4482  2.0740
 8977TIP3   OH226869   6.600   3.737   0.172  0.3560  0.6642 -0.4179
 8977TIP3    H126870   6.531   3.683   0.211  1.7773 -0.3481  0.7100
 8977TIP3    H226871   6.663   3.752   0.242  2.2287  0.0327 -1.9135
 8978TIP3   OH226872   2.402   6.220   4.811  0.2854 -0.1390  0.0278
 8978TIP3    H126873   2.441   6.257   4.732  1.5013 -1.2776  0.0826
 8978TIP3    H226874   2.362   6.295   4.856 -1.0459  0.4124 -1.9959
 8979TIP3   OH226875   1.916   7.963   4.380  0.0051  0.1739 -0.1306
 8979TIP3    H126876   1.893   7.897   4.314 -2.1593  0.5100  0.2628
 8979TIP3    H226877   1.940   7.912   4.457 -1.4472 -0.1814  0.1005
 8980TIP3   OH226878   2.262   7.695   3.937 -0.0275 -0.5481  0.1647
 8980TIP3    H126879   2.292   7.636   3.868  2.9431  2.7315 -1.5424
 8980TIP3    H226880   2.188   7.742   3.898  0.0119 -0.5314  0.1080
 8981TIP3   OH226881   1.471   6.740   3.390 -0.0806  0.0362  0.1085
 8981TIP3    H126882   1.541   6.716   3.450 -0.5346 -1.8686 -0.0763
 8981TIP3    H226883   1.460   6.834   3.401 -0.9535 -0.4254  3.8785
 8982TIP3   OH226884   8.419   6.615   6.321 -0.5077  0.3393 -0.1648
 8982TIP3    H126885   8.356   6.586   6.254  0.1648  0.5875 -0.9091
 8982TIP3    H226886   8.379   6.589   6.404 -0.5579 -1.5142 -0.7408
 8983TIP3   OH226887   7.864   7.052   5.414  0.1143  0.4261  0.6842
 8983TIP3    H126888   7.906   7.077   5.331 -3.4984  1.9843 -0.7589
 8983TIP3    H226889   7.862   6.956   5.411 -0.9659  0.4761 -1.6210
 8984TIP3   OH226890   0.792   7.432   5.388 -0.1598 -0.1205  0.4467
 8984TIP3    H126891   0.737   7.359   5.415 -1.4081  0.8214  0.5304
 8984TIP3    H226892   0.779   7.438   5.293 -1.6202  1.1844  0.6903
 8985TIP3   OH226893   0.203   7.087   5.931 -0.2136  0.0711 -0.3575
 8985TIP3    H126894   0.170   7.171   5.897 -2.3730 -0.2787  0.8007
 8985TIP3    H226895   0.170   7.083   6.020  0.2799 -1.8154 -0.2521
 8986TIP3   OH226896   7.232   7.705   2.715 -0.5196 -0.2512  0.3265
 8986TIP3    H126897   7.253   7.612   2.717 -2.6791 -0.7657  0.7174
 8986TIP3    H226898   7.233   7.732   2.807  1.4247  0.4390  0.1122
 8987TIP3   OH226899   0.747   7.764   5.910 -0.0224 -0.3729 -0.1212
 8987TIP3    H126900   0.686   7.751   5.838  1.4138  0.0640 -1.4538
 8987TIP3    H226901   0.732   7.854   5.938 -1.0314 -0.7489  0.5613
 8988TIP3   OH226902   1.729   5.809   3.951  0.2477 -0.0175 -0.6829
 8988TIP3    H126903   1.646   5.770   3.976  0.5849 -0.0592  0.4127
 8988TIP3    H226904   1.791   5.736   3.947  0.3915  0.1075 -0.7740
 8989TIP3   OH226905   7.162   7.646   3.525  0.0207  0.3456  0.6552
 8989TIP3    H126906   7.109   7.631   3.603  0.8594  1.0194  1.3479
 8989TIP3    H226907   7.242   7.595   3.539 -0.1047 -0.0690 -0.0642
 8990TIP3   OH226908   8.308   7.743   3.736 -0.1212 -0.2858 -0.1527
 8990TIP3    H126909   8.348   7.657   3.719  1.0307  0.2441 -0.1618
 8990TIP3    H226910   8.285   7.740   3.829  0.2912 -0.4594 -0.0516
 8991TIP3   OH226911   2.745   7.680   6.729  0.2860 -0.4115 -0.4760
 8991TIP3    H126912   2.825   7.732   6.738  0.5794 -0.9907  0.3719
 8991TIP3    H226913   2.757   7.633   6.646  0.3202  0.3622 -0.9058
 8992TIP3   OH226914   1.868   7.827   4.853 -0.0870  0.5307 -0.2865
 8992TIP3    H126915   1.821   7.894   4.803 -1.0380 -0.7072 -1.1207
 8992TIP3    H226916   1.803   7.757   4.865  1.2601 -0.8050 -0.6155
 8993TIP3   OH226917   2.579   5.888   2.813 -0.3893  0.2326 -0.0565
 8993TIP3    H126918   2.522   5.962   2.834 -1.7707 -0.7209 -0.3784
 8993TIP3    H226919   2.601   5.901   2.721  0.1986  0.7912  0.1621
 8994TIP3   OH226920   2.424   6.666   2.481 -0.4699 -0.1163 -0.3842
 8994TIP3    H126921   2.479   6.594   2.451  0.3157  1.2108 -2.1793
 8994TIP3    H226922   2.393   6.708   2.401 -1.2042  1.3310  0.6387
 8995TIP3   OH226923   0.959   7.619   6.630 -0.0899  0.3577 -0.2846
 8995TIP3    H126924   0.926   7.677   6.562  2.3162  0.3612 -1.4956
 8995TIP3    H226925   0.967   7.674   6.708 -0.7672  0.8815 -0.5845
 8996TIP3   OH226926   1.506   7.221   6.023  0.1786 -0.5002 -0.1047
 8996TIP3    H126927   1.482   7.279   5.950  0.3055  0.2704  0.4600
 8996TIP3    H226928   1.599   7.238   6.037 -0.3085  0.9845  1.6483
 8997TIP3   OH226929   2.883   7.285   3.545  0.0030 -0.6300  0.3671
 8997TIP3    H126930   2.824   7.210   3.535 -0.8425 -0.0745  1.0561
 8997TIP3    H226931   2.947   7.258   3.610 -1.1984 -0.2379  1.7470
 8998TIP3   OH226932   1.419   6.455   5.060 -0.0882  0.1585 -0.0927
 8998TIP3    H126933   1.411   6.547   5.085 -1.6613  0.2674 -0.9109
 8998TIP3    H226934   1.329   6.427   5.045  0.5187 -1.0341 -1.5921
 8999TIP3   OH226935   2.519   6.734   4.249 -0.1644 -0.3052 -0.2183
 8999TIP3    H126936   2.443   6.715   4.303  0.3056  1.0283  0.9633
 8999TIP3    H226937   2.512   6.675   4.174 -1.8297 -0.8638  0.3698
 9000TIP3   OH226938  -0.003   7.268   4.761 -0.8541  0.5366  0.1106
 9000TIP3    H126939  -0.010   7.193   4.702 -1.1777  0.3536  0.3726
 9000TIP3    H226940   0.081   7.257   4.804 -0.7395  0.5211 -0.1173
 9001TIP3   OH226941   1.887   5.037   3.153  0.2659 -0.0229  0.1699
 9001TIP3    H126942   1.981   5.022   3.160  0.7277  2.8467  0.9268
 9001TIP3    H226943   1.857   4.975   3.087  2.4177 -2.0155  0.9957
 9002TIP3   OH226944   0.308   7.177   5.264  0.3993 -0.3012  0.1919
 9002TIP3    H126945   0.354   7.098   5.291  1.7385  0.3434 -0.1401
 9002TIP3    H226946   0.378   7.236   5.235 -0.5495  1.1231  0.7526
 9003TIP3   OH226947   2.221   3.994   4.025 -0.2720 -0.2282 -0.4061
 9003TIP3    H126948   2.294   4.051   4.050  0.2050 -0.7419 -0.6210
 9003TIP3    H226949   2.263   3.914   3.993 -0.8855 -0.0208 -1.7808
 9004TIP3   OH226950   0.211   6.458   4.460 -0.3474  0.4814 -0.2498
 9004TIP3    H126951   0.257   6.404   4.525  1.5844  2.2826 -0.0551
 9004TIP3    H226952   0.277   6.475   4.393 -1.4392  1.1906 -1.1451
 9005TIP3   OH226953   2.215   7.894   3.660  0.1946 -0.2634 -0.5784
 9005TIP3    H126954   2.290   7.869   3.606  0.2968 -1.3328  0.0422
 9005TIP3    H226955   2.254   7.922   3.743  0.0291  1.1903 -0.9809
 9006TIP3   OH226956   0.822   6.114   6.793  0.3974 -0.3406 -0.2378
 9006TIP3    H126957   0.740   6.066   6.778  0.7647 -1.0322 -0.0227
 9006TIP3    H226958   0.837   6.108   6.887  0.6380 -0.1060 -0.2596
 9007TIP3   OH226959   3.199   1.113   3.482 -0.6534 -0.0545  0.0628
 9007TIP3    H126960   3.181   1.111   3.388 -0.8426  0.0878  0.0946
 9007TIP3    H226961   3.135   1.053   3.520 -1.5895  1.0349  0.2585
 9008TIP3   OH226962   0.770   6.223   3.475  0.0678 -0.0886  0.1189
 9008TIP3    H126963   0.841   6.236   3.412 -0.5576 -0.2747 -0.6272
 9008TIP3    H226964   0.755   6.128   3.475 -0.3200 -0.0255  0.1285
 9009TIP3   OH226965   2.146   5.296   4.226 -0.4492  0.4698 -0.6384
 9009TIP3    H126966   2.159   5.279   4.133  3.2494  1.3404 -0.3352
 9009TIP3    H226967   2.106   5.383   4.229 -1.1085  0.2048 -1.3983
 9010TIP3   OH226968   4.350   0.583   3.726  0.3377 -0.0491  0.5152
 9010TIP3    H126969   4.347   0.487   3.730 -2.3778  0.0207  0.6004
 9010TIP3    H226970   4.346   0.611   3.818 -2.0587  0.1840  0.3707
 9011TIP3   OH226971   4.253   1.084   2.445  0.3844  0.1557 -0.1165
 9011TIP3    H126972   4.326   1.144   2.432  1.0483 -0.6284 -0.0362
 9011TIP3    H226973   4.175   1.140   2.438  1.0084  1.1513  0.6265
 9012TIP3   OH226974   2.986   5.074   3.015  0.2798 -0.0567  0.0001
 9012TIP3    H126975   2.996   5.105   2.926 -0.0953  0.9408  0.2961
 9012TIP3    H226976   3.039   4.994   3.020  1.4285  0.6616 -0.7086
 9013TIP3   OH226977   1.571   6.044   3.823  0.4316 -0.9537 -0.2616
 9013TIP3    H126978   1.638   6.011   3.883  0.0106 -0.2029  0.6331
 9013TIP3    H226979   1.506   6.084   3.880 -0.0558 -0.3787 -1.2157
 9014TIP3   OH226980   5.197   1.933   3.971 -0.0379  0.2097 -0.5377
 9014TIP3    H126981   5.128   1.993   3.999 -1.2921 -0.7238 -1.5562
 9014TIP3    H226982   5.192   1.935   3.875  0.4781 -0.8599 -0.5911
 9015TIP3   OH226983   0.513   3.982   3.715 -0.0148 -0.9012  0.4679
 9015TIP3    H126984   0.450   4.007   3.782 -0.5868 -0.9482 -0.0529
 9015TIP3    H226985   0.498   4.043   3.643  1.5530  0.0723  0.9313
 9016TIP3   OH226986   6.551   0.082   4.981  0.6374  0.0559 -0.3758
 9016TIP3    H126987   6.481   0.144   5.000  0.3910 -0.5862  0.9272
 9016TIP3    H226988   6.554   0.076   4.886 -2.6923 -1.7034 -0.4341
 9017TIP3   OH226989   0.848   4.553   4.552 -0.0872  0.0998  0.0139
 9017TIP3    H126990   0.886   4.640   4.567 -0.3188  0.2439 -0.2235
 9017TIP3    H226991   0.793   4.565   4.475  1.3782 -0.7246 -1.1911
 9018TIP3   OH226992   1.686   7.824   3.086 -0.1730 -0.2459  0.2851
 9018TIP3    H126993   1.759   7.775   3.126  0.7311  0.6907 -0.1989
 9018TIP3    H226994   1.640   7.759   3.033 -1.3549 -1.5015  2.7553
 9019TIP3   OH226995   2.070   0.132   3.319  0.0969  0.2021 -0.1585
 9019TIP3    H126996   2.132   0.112   3.389  0.1940 -1.8375 -0.8088
 9019TIP3    H226997   2.000   0.181   3.362 -0.2969 -1.8025  1.5698
 9020TIP3   OH226998   2.774   6.047   4.015  0.0158  0.0443  0.1610
 9020TIP3    H126999   2.848   6.103   4.037  0.8621 -1.1744  0.4434
 9020TIP3    H227000   2.732   6.027   4.099  1.4909 -2.1778  0.3989
 9021TIP3   OH227001   5.926   0.181   4.512  0.0752  0.1154  0.4527
 9021TIP3    H127002   5.987   0.196   4.440 -0.0867 -1.4368 -0.0120
 9021TIP3    H227003   5.884   0.098   4.492 -1.0373  0.3837  1.5935
 9022TIP3   OH227004   2.698   5.629   4.677  0.5025  0.4881  0.2081
 9022TIP3    H127005   2.643   5.672   4.741  0.1199  0.1925  0.0810
 9022TIP3    H227006   2.675   5.536   4.683 -0.2061  0.5650 -0.9869
 9023TIP3   OH227007   6.133   2.524   3.819 -0.3265 -0.0496 -0.7097
 9023TIP3    H127008   6.083   2.526   3.901  1.2439 -0.4582  0.2814
 9023TIP3    H227009   6.150   2.617   3.800  0.2421  0.0120  0.0368
 9024TIP3   OH227010   3.647   6.900   4.137 -0.2203  0.3430  0.2537
 9024TIP3    H127011   3.613   6.955   4.068 -0.9339 -1.0507 -0.5380
 9024TIP3    H227012   3.615   6.940   4.218  0.2551  1.7282 -0.2393
 9025TIP3   OH227013   1.500   5.729   5.382  0.1164 -0.9522  0.3343
 9025TIP3    H127014   1.429   5.665   5.388 -0.1656 -0.6521  0.2076
 9025TIP3    H227015   1.570   5.682   5.336 -1.1718 -0.2381 -2.4370
 9026TIP3   OH227016   5.574   1.420   3.810 -0.2257 -0.3744 -0.7192
 9026TIP3    H127017   5.483   1.448   3.825 -0.1487 -0.0946 -0.7605
 9026TIP3    H227018   5.581   1.335   3.853 -1.1335 -1.4456 -2.6247
 9027TIP3   OH227019   1.038   6.093   3.765 -0.3602  0.2148  0.2694
 9027TIP3    H127020   0.960   6.144   3.784 -1.3200 -0.0358 -2.7644
 9027TIP3    H227021   1.102   6.157   3.735  0.4108  0.3313  2.0985
 9028TIP3   OH227022   0.901   0.630   3.877 -0.3079 -0.6697  0.6631
 9028TIP3    H127023   0.809   0.651   3.859 -0.0107 -0.5917 -0.8122
 9028TIP3    H227024   0.905   0.622   3.973 -1.0237  3.2000  1.1074
 9029TIP3   OH227025   8.390   3.725   0.598 -0.6825 -0.0285  0.0813
 9029TIP3    H127026   8.424   3.636   0.588 -0.9035  0.0060 -1.1453
 9029TIP3    H227027   8.301   3.721   0.563 -1.5900  0.1231  2.3231
 9030TIP3   OH227028   1.267   5.441   3.978  0.5550 -0.5319  0.3886
 9030TIP3    H127029   1.239   5.432   4.069  1.4737  0.6489  0.7985
 9030TIP3    H227030   1.307   5.357   3.956 -1.8376 -1.6946  0.2890
 9031TIP3   OH227031   1.658   7.123   3.179 -0.0307  0.1811 -0.3482
 9031TIP3    H127032   1.625   7.166   3.258  0.2188 -1.0465  0.4292
 9031TIP3    H227033   1.692   7.039   3.209 -0.4103 -0.5280 -1.8316
 9032TIP3   OH227034   6.645   2.351   2.074 -0.3957 -0.2098  0.3387
 9032TIP3    H127035   6.567   2.399   2.047 -0.5257 -0.1168  0.8790
 9032TIP3    H227036   6.632   2.335   2.167  0.1671 -0.3183  0.3976
 9033TIP3   OH227037   0.831   7.906   3.558 -0.1213 -0.2673 -0.4953
 9033TIP3    H127038   0.897   7.951   3.611 -0.6221 -0.0323 -0.0590
 9033TIP3    H227039   0.858   7.815   3.557  0.9500  0.0471 -1.4492
 9034TIP3   OH227040   0.608   5.092   3.711 -0.0238 -0.3279 -0.4369
 9034TIP3    H127041   0.652   5.007   3.702 -2.0645 -1.5418  0.5882
 9034TIP3    H227042   0.665   5.143   3.768  1.6465 -0.6859 -1.7217
 9035TIP3   OH227043   3.682   6.555   1.899 -0.0647 -0.7936 -0.3017
 9035TIP3    H127044   3.714   6.503   1.824  0.7115  0.3126 -0.7526
 9035TIP3    H227045   3.590   6.530   1.908  0.3830 -2.4900 -0.3033
 9036TIP3   OH227046   2.709   0.294   3.266 -0.1521 -0.1027  0.1525
 9036TIP3    H127047   2.775   0.231   3.296  0.8912  1.2054  0.6327
 9036TIP3    H227048   2.629   0.267   3.311  0.6686 -0.0972  1.6521
 9037TIP3   OH227049   6.984   1.338   2.484  0.2519 -0.0669  0.1075
 9037TIP3    H127050   6.903   1.355   2.532  0.5649 -0.0745  0.6477
 9037TIP3    H227051   7.053   1.373   2.541  0.6500 -0.3174 -0.2158
 9038TIP3   OH227052   2.351   1.100   2.174  0.7466 -0.0369  0.0079
 9038TIP3    H127053   2.406   1.169   2.135  1.8526 -0.1376  1.3554
 9038TIP3    H227054   2.338   1.129   2.265  0.0269 -0.9105  0.1869
 9039TIP3   OH227055   8.378   7.035   3.641 -0.5746  0.3845  0.2107
 9039TIP3    H127056   8.447   7.080   3.691  0.1695 -0.8743  0.3381
 9039TIP3    H227057   8.355   6.960   3.695 -1.2121  0.1288 -0.4093
 9040TIP3   OH227058   1.128   7.866   3.872 -0.1874 -0.0121 -0.0348
 9040TIP3    H127059   1.161   7.796   3.928  1.1982  0.0444 -0.7614
 9040TIP3    H227060   1.080   7.924   3.931 -1.3210 -1.5405  0.5803
 9041TIP3   OH227061   6.164   3.165   4.361 -0.2279 -0.6734  0.2834
 9041TIP3    H127062   6.155   3.185   4.455  0.8642 -3.2714  0.9762
 9041TIP3    H227063   6.218   3.237   4.327 -1.7223  1.0040  1.3398
 9042TIP3   OH227064   2.633   7.489   3.122 -0.1021 -0.3410 -0.2092
 9042TIP3    H127065   2.568   7.455   3.060 -1.2454 -0.1852  0.8912
 9042TIP3    H227066   2.670   7.411   3.164 -2.7610 -0.3009  2.3522
 9043TIP3   OH227067   2.262   6.844   3.563 -0.3874 -0.9165 -0.4754
 9043TIP3    H127068   2.222   6.785   3.499 -0.7606 -0.8872 -0.2712
 9043TIP3    H227069   2.245   6.931   3.528 -0.3600 -0.9092 -0.4708
 9044TIP3   OH227070   3.099   5.404   5.727  0.2432  0.3828 -0.0190
 9044TIP3    H127071   3.084   5.331   5.666  1.3222  0.2203 -0.1089
 9044TIP3    H227072   3.173   5.375   5.781  1.5052  1.9031 -0.8696
 9045TIP3   OH227073   3.599   0.530   5.056 -0.1216 -0.0761 -0.1572
 9045TIP3    H127074   3.616   0.617   5.020  1.0152  0.6285  2.0049
 9045TIP3    H227075   3.505   0.530   5.074 -0.0380  0.9087  0.3350
 9046TIP3   OH227076   1.096   6.338   6.216 -0.0224 -0.2749  0.4074
 9046TIP3    H127077   1.189   6.361   6.224 -0.4967  2.1221 -0.4854
 9046TIP3    H227078   1.055   6.378   6.292 -0.4086 -0.9138  0.5369
 9047TIP3   OH227079   5.247   0.937   2.275 -0.4119  0.4574 -0.2257
 9047TIP3    H127080   5.202   0.928   2.191 -1.3756 -0.1642  0.3425
 9047TIP3    H227081   5.282   0.850   2.293  1.3028  1.0170 -0.8105
 9048TIP3   OH227082   3.809   0.018   4.672 -0.6255  0.7690 -0.0313
 9048TIP3    H127083   3.801   0.114   4.669  1.6719  1.0675  1.5864
 9048TIP3    H227084   3.878   0.003   4.738 -0.2905 -1.9558 -0.9813
 9049TIP3   OH227085   0.584   7.119   3.852 -0.0732  0.6521 -0.2018
 9049TIP3    H127086   0.529   7.129   3.929  1.1606 -0.6928  0.8984
 9049TIP3    H227087   0.548   7.043   3.806  0.8663 -0.2661  0.5510
 9050TIP3   OH227088   4.621   1.617   4.066  0.6515  0.8287 -0.0939
 9050TIP3    H127089   4.632   1.660   3.981  3.3459  1.6081  0.5963
 9050TIP3    H227090   4.649   1.684   4.129  2.3077 -1.0021  1.1550
 9051TIP3   OH227091   3.803   0.337   4.395 -0.4712 -0.3894  0.4698
 9051TIP3    H127092   3.733   0.397   4.369  0.5149  1.0174  1.0076
 9051TIP3    H227093   3.882   0.391   4.396  0.4152 -1.6730  1.0986
 9052TIP3   OH227094   1.108   7.271   3.466 -0.1783 -0.4763  0.2023
 9052TIP3    H127095   1.075   7.333   3.531 -0.9038 -0.2594 -0.3676
 9052TIP3    H227096   1.203   7.274   3.476 -0.2720 -0.1774  1.0114
 9053TIP3   OH227097   0.343   6.261   3.155  0.1798 -0.1341  0.0146
 9053TIP3    H127098   0.320   6.286   3.245 -0.2706 -0.6458  0.0478
 9053TIP3    H227099   0.436   6.280   3.148  0.4019 -0.8537  0.8684
 9054TIP3   OH227100   2.410   7.758   4.592  0.0409  0.3960 -0.1713
 9054TIP3    H127101   2.378   7.842   4.560  0.6794 -0.0346 -1.9729
 9054TIP3    H227102   2.347   7.694   4.560  0.6498 -0.0382 -0.5086
 9055TIP3   OH227103   1.217   7.202   5.406 -0.0995  0.0164 -0.6071
 9055TIP3    H127104   1.251   7.113   5.411 -0.7879 -0.1885  0.6362
 9055TIP3    H227105   1.175   7.207   5.320 -0.8284 -1.1485 -0.3283
 9056TIP3   OH227106   4.116   7.329   1.498 -0.7192 -0.0646 -0.3666
 9056TIP3    H127107   4.072   7.277   1.431 -1.6662  1.0019 -0.6016
 9056TIP3    H227108   4.098   7.420   1.473 -1.4059  0.3515  1.5236
 9057TIP3   OH227109   3.221   7.961   3.978  0.4993  0.3849  0.3085
 9057TIP3    H127110   3.149   8.020   4.000  0.1675  0.2260 -0.3188
 9057TIP3    H227111   3.231   7.971   3.883  0.3145 -0.6920  0.1621
 9058TIP3   OH227112   0.997   5.423   3.687  0.0307 -0.2466  0.1628
 9058TIP3    H127113   1.031   5.480   3.756  1.4664 -0.2200 -0.5684
 9058TIP3    H227114   1.055   5.438   3.613 -0.2886 -1.8015 -0.4058
 9059TIP3   OH227115   1.078   6.354   6.675  0.1585  0.0070  0.0489
 9059TIP3    H127116   1.134   6.319   6.605  0.7613  1.8646 -0.4355
 9059TIP3    H227117   0.990   6.352   6.638 -0.0974 -2.7376  0.7379
 9060TIP3   OH227118   0.826   6.037   5.446  0.0658 -0.6592 -0.2188
 9060TIP3    H127119   0.915   6.030   5.481  0.5970 -1.5492 -1.6773
 9060TIP3    H227120   0.834   6.007   5.355 -1.4977  0.4380 -0.7384
 9061TIP3   OH227121   1.054   6.552   4.090 -0.1393  0.3266  0.3361
 9061TIP3    H127122   1.071   6.546   3.996 -0.5661  0.6777  0.2332
 9061TIP3    H227123   1.140   6.549   4.131  0.3229  3.4643 -0.2592
 9062TIP3   OH227124   7.500   0.444   3.096  0.5705 -0.0114  0.0548
 9062TIP3    H127125   7.536   0.363   3.131  0.5481 -0.2956 -0.5650
 9062TIP3    H227126   7.501   0.431   3.001 -0.6136  0.2032  0.0027
 9063TIP3   OH227127   3.254   5.737   3.629  0.0398  0.2653  0.1350
 9063TIP3    H127128   3.183   5.684   3.592  0.2974 -0.2291  0.3422
 9063TIP3    H227129   3.321   5.673   3.654  0.3619  0.6921  0.3668
 9064TIP3   OH227130   2.013   7.217   6.354  0.4682  0.5316  0.0645
 9064TIP3    H127131   1.928   7.254   6.376 -0.8810 -1.4931 -1.6281
 9064TIP3    H227132   2.054   7.284   6.299 -0.3025  1.2125  0.3084
 9065TIP3   OH227133   0.056   6.124   5.547 -0.4822 -0.2496  0.1980
 9065TIP3    H127134   0.135   6.074   5.564 -0.0277 -0.1472 -1.5232
 9065TIP3    H227135   0.066   6.156   5.457 -1.6607  1.2543  0.5681
 9066TIP3   OH227136   1.789   6.896   1.880  0.4523 -0.8765 -0.9721
 9066TIP3    H127137   1.835   6.852   1.809 -0.2404 -2.4795 -0.4358
 9066TIP3    H227138   1.811   6.845   1.958  2.2750  1.6071  0.2386
 9067TIP3   OH227139   6.246   1.245   5.375  0.0637 -0.0244 -0.0382
 9067TIP3    H127140   6.304   1.314   5.342 -0.4150  0.8690  0.9714
 9067TIP3    H227141   6.289   1.164   5.347  1.3853  0.6400 -0.0191
 9068TIP3   OH227142   1.630   6.669   3.588  0.6787  0.2244 -0.5416
 9068TIP3    H127143   1.600   6.646   3.676 -0.3046 -1.6404 -1.3581
 9068TIP3    H227144   1.702   6.608   3.571  1.2894  1.0078 -0.7956
 9069TIP3   OH227145   3.158   1.424   4.582  0.0073  0.0472  0.5431
 9069TIP3    H127146   3.251   1.413   4.563 -0.6899 -1.8423 -2.0059
 9069TIP3    H227147   3.116   1.427   4.496 -2.5710 -1.7064  1.6909
 9070TIP3   OH227148   3.317   0.774   4.983 -0.0593  0.1308 -0.2571
 9070TIP3    H127149   3.322   0.756   4.890  0.1126 -2.3474  0.2078
 9070TIP3    H227150   3.299   0.689   5.024 -0.9975  1.3081  1.8946
 9071TIP3   OH227151   7.470   6.966   3.048 -0.3577  0.3750  0.1828
 9071TIP3    H127152   7.432   6.923   2.972 -0.7360  0.2071  0.4670
 9071TIP3    H227153   7.547   6.913   3.070 -0.1636  0.5103 -0.1721
 9072TIP3   OH227154   1.070   3.927   5.882 -0.4578  0.8176 -0.2261
 9072TIP3    H127155   0.979   3.900   5.866 -0.4868  1.1221 -0.6043
 9072TIP3    H227156   1.065   3.985   5.957 -0.2227 -1.2526  1.4331
 9073TIP3   OH227157   8.332   7.877   3.474 -0.4914 -0.2820 -0.4186
 9073TIP3    H127158   8.409   7.844   3.428 -0.6217  0.4341 -1.1582
 9073TIP3    H227159   8.366   7.904   3.560  0.2813  0.9474 -1.0934
 9074TIP3   OH227160   2.459   6.443   4.100  0.0071  0.3936 -0.5722
 9074TIP3    H127161   2.367   6.467   4.108  0.1491  0.0625  2.4648
 9074TIP3    H227162   2.461   6.379   4.028 -1.7688  2.0831 -2.1532
 9075TIP3   OH227163   5.667   2.115   3.844  0.2737  0.2715 -0.5590
 9075TIP3    H127164   5.732   2.058   3.802  0.2295 -0.0291 -0.2191
 9075TIP3    H227165   5.696   2.203   3.822 -0.9011  0.0818 -2.9624
 9076TIP3   OH227166   2.372   5.983   3.574  0.5335  0.2527 -0.1369
 9076TIP3    H127167   2.368   6.040   3.498  0.0684 -1.1551 -1.1911
 9076TIP3    H227168   2.464   5.954   3.577  0.2671 -0.6974 -0.9305
 9077TIP3   OH227169   3.047   6.942   5.181 -0.3279  0.4188 -0.4396
 9077TIP3    H127170   3.102   6.878   5.225 -0.3044  0.3781 -0.5282
 9077TIP3    H227171   3.097   6.969   5.104  0.2902  1.6081  0.3653
 9078TIP3   OH227172   0.871   6.727   2.811  0.2818  0.5358  0.2068
 9078TIP3    H127173   0.776   6.727   2.795  0.3120  0.7582  0.0318
 9078TIP3    H227174   0.894   6.634   2.816  0.1465  0.4712 -0.3114
 9079TIP3   OH227175   4.258   0.140   4.504  0.3401  0.0803 -0.3247
 9079TIP3    H127176   4.296   0.215   4.459  0.2581  0.4668  0.2489
 9079TIP3    H227177   4.179   0.119   4.455 -1.5529  2.5666  1.5455
 9080TIP3   OH227178   3.511   5.606   3.669  0.5523 -0.4447  0.0553
 9080TIP3    H127179   3.492   5.512   3.670  0.8195 -0.5090  2.2343
 9080TIP3    H227180   3.499   5.633   3.760  1.7635  1.3826 -0.3127
 9081TIP3   OH227181   7.330   7.781   3.191 -0.2528 -0.3807  0.3353
 9081TIP3    H127182   7.358   7.704   3.241 -0.1530 -0.0554  0.7912
 9081TIP3    H227183   7.293   7.840   3.257 -3.3665 -1.4040 -0.4302
 9082TIP3   OH227184   2.768   0.230   2.997 -0.1039 -0.5611 -0.1283
 9082TIP3    H127185   2.683   0.232   2.955 -0.1876  1.4400  0.0884
 9082TIP3    H227186   2.755   0.274   3.081  1.0798 -0.4926  0.0328
 9083TIP3   OH227187   3.148   7.678   3.891  0.2592 -0.0381 -0.4735
 9083TIP3    H127188   3.192   7.593   3.890 -0.6507 -0.5377  0.4511
 9083TIP3    H227189   3.217   7.741   3.912  0.4023 -0.9137  1.8333
 9084TIP3   OH227190   0.526   5.975   4.358  0.2410  0.1680  0.2614
 9084TIP3    H127191   0.610   5.934   4.380  0.9108  0.1187 -2.2398
 9084TIP3    H227192   0.506   5.941   4.271 -1.6018  1.4175  0.1919
 9085TIP3   OH227193   0.838   6.925   3.317  0.2424  0.1533 -0.0309
 9085TIP3    H127194   0.755   6.939   3.272 -0.8007 -1.4051  1.3618
 9085TIP3    H227195   0.834   6.982   3.394  0.6498  0.4086 -0.1962
 9086TIP3   OH227196   3.458   0.450   2.814  0.2400  0.1282 -0.3430
 9086TIP3    H127197   3.522   0.418   2.751 -0.3469  1.0402 -1.4318
 9086TIP3    H227198   3.433   0.373   2.865 -0.9675 -1.1437 -2.7452
 9087TIP3   OH227199   3.685   5.448   3.265  0.2851 -0.4376 -0.4871
 9087TIP3    H127200   3.775   5.478   3.251 -0.3570  2.0940  0.4912
 9087TIP3    H227201   3.646   5.447   3.177  0.6588  0.5182 -0.6673
 9088TIP3   OH227202   3.175   1.445   4.291  0.1986  0.2319 -0.5150
 9088TIP3    H127203   3.128   1.368   4.258 -0.3134 -0.0536  0.8350
 9088TIP3    H227204   3.265   1.413   4.306  0.1179  0.0306 -0.4473
 9089TIP3   OH227205   0.818   7.923   0.918 -0.0107 -0.2873  0.7310
 9089TIP3    H127206   0.805   8.012   0.884 -0.2844  0.2104  2.0867
 9089TIP3    H227207   0.899   7.893   0.878  0.4878  0.8760  0.8393
 9090TIP3   OH227208   1.519   6.783   2.355  0.4571  0.4814  0.4579
 9090TIP3    H127209   1.513   6.877   2.340  1.3915  0.5084  0.1690
 9090TIP3    H227210   1.456   6.765   2.425  0.2174  1.3043  0.4596
 9091TIP3   OH227211   4.442   0.838   1.991  0.1784  0.1028  0.2836
 9091TIP3    H127212   4.533   0.850   1.963 -0.3516 -0.5211 -1.7874
 9091TIP3    H227213   4.431   0.899   2.065  1.3405  2.5782 -1.5086
 9092TIP3   OH227214   5.506   1.544   3.326 -0.4325 -0.3397  0.3263
 9092TIP3    H127215   5.542   1.532   3.238 -1.1035 -0.5460  0.0742
 9092TIP3    H227216   5.447   1.619   3.318  0.2115  0.2307  0.8211
 9093TIP3   OH227217   0.724   7.734   2.766 -0.0401 -0.4663 -0.2630
 9093TIP3    H127218   0.752   7.707   2.678  0.0827 -0.3739 -0.2510
 9093TIP3    H227219   0.788   7.799   2.793 -0.1492 -0.4055 -0.1537
 9094TIP3   OH227220   7.158   3.266   6.880 -0.1707 -0.5832 -0.3049
 9094TIP3    H127221   7.091   3.206   6.846  0.5211 -1.0004 -0.9487
 9094TIP3    H227222   7.188   3.224   6.961 -1.4663  0.1632  0.5858
 9095TIP3   OH227223   3.955   7.290   5.610  1.0004  0.1929  0.2394
 9095TIP3    H127224   3.951   7.329   5.697  1.1892 -0.8539  0.7307
 9095TIP3    H227225   3.976   7.198   5.626 -1.2806 -0.5328 -0.7663
 9096TIP3   OH227226   7.866   7.648   1.006 -0.4414  0.4596 -0.6365
 9096TIP3    H127227   7.873   7.595   1.086 -1.2868  2.0339  0.5060
 9096TIP3    H227228   7.914   7.598   0.940  0.8851 -0.5119  1.0318
 9097TIP3   OH227229   0.395   7.803   4.863 -0.0059  0.0061  0.4053
 9097TIP3    H127230   0.330   7.798   4.792  1.9341 -1.3397 -1.3416
 9097TIP3    H227231   0.435   7.889   4.853  0.2049 -0.1468 -0.0926
 9098TIP3   OH227232   2.063   7.279   4.315 -0.4800 -0.7827  0.4029
 9098TIP3    H127233   2.035   7.326   4.394  1.0423  0.8891 -0.0153
 9098TIP3    H227234   1.984   7.273   4.261 -1.6091 -2.2019  2.1542
 9099TIP3   OH227235   5.098   5.195   4.759 -0.0281 -0.0313  0.2476
 9099TIP3    H127236   5.129   5.234   4.841  0.2068  1.4613 -0.5292
 9099TIP3    H227237   5.054   5.115   4.786  1.1103 -0.1888  1.7267
 9100TIP3   OH227238   3.016   1.073   2.576 -0.0860 -0.3051 -0.5517
 9100TIP3    H127239   3.018   1.012   2.502  0.3996 -0.5270 -0.3550
 9100TIP3    H227240   2.935   1.123   2.563 -0.7794 -1.3755 -0.4044
 9101TIP3   OH227241   8.144   7.525   4.411  0.0960  0.1663  0.0933
 9101TIP3    H127242   8.089   7.455   4.445 -2.0935  1.3860 -0.8934
 9101TIP3    H227243   8.234   7.493   4.425 -0.8324 -1.9995  1.3586
 9102TIP3   OH227244   0.304   7.128   2.403 -0.1729  0.8009  0.4205
 9102TIP3    H127245   0.398   7.135   2.391 -0.1360 -1.1448 -0.6712
 9102TIP3    H227246   0.285   7.179   2.482  1.6203  2.1496 -0.0118
 9103TIP3   OH227247   3.691   0.028   5.550 -0.3435  1.0632 -0.0370
 9103TIP3    H127248   3.661   0.014   5.460 -1.4326 -4.6100  1.0472
 9103TIP3    H227249   3.616   0.068   5.594 -1.2652  0.1059 -0.7147
 9104TIP3   OH227250   0.984   6.692   1.830  0.6327 -0.1113  0.1297
 9104TIP3    H127251   1.063   6.745   1.837  1.2201 -1.0215  0.4707
 9104TIP3    H227252   1.008   6.607   1.866 -0.4081 -0.5031 -0.0594
 9105TIP3   OH227253   7.012   0.527   3.775  0.0666 -0.7031 -0.1385
 9105TIP3    H127254   6.937   0.564   3.730  1.4633  1.3459 -0.8552
 9105TIP3    H227255   7.079   0.596   3.772  1.1729 -1.5729  2.5735
 9106TIP3   OH227256   1.334   7.189   4.958 -0.2784  0.5419  0.4271
 9106TIP3    H127257   1.375   7.117   4.910 -0.3092  0.4029  0.6087
 9106TIP3    H227258   1.399   7.259   4.955 -0.4722  0.6993 -0.2210
 9107TIP3   OH227259   2.319   6.714   2.230  0.3055  0.5607  0.1337
 9107TIP3    H127260   2.259   6.694   2.158 -0.1312  2.3379 -0.0324
 9107TIP3    H227261   2.406   6.703   2.192  0.0912  2.2114 -0.9379
 9108TIP3   OH227262   3.234   1.964   3.958  0.5002 -0.5401  0.1196
 9108TIP3    H127263   3.278   2.040   3.920 -1.9987  1.7986  1.7219
 9108TIP3    H227264   3.161   1.947   3.898 -0.7805  0.3175  1.4150
 9109TIP3   OH227265   3.847   7.491   0.816 -0.5784 -0.5382  0.0597
 9109TIP3    H127266   3.871   7.510   0.907  0.9362  2.5299 -0.9510
 9109TIP3    H227267   3.875   7.400   0.803  2.1736  0.0392  1.6748
 9110TIP3   OH227268   5.093   1.456   2.236 -0.0191  0.3456 -0.1972
 9110TIP3    H127269   5.162   1.402   2.198 -0.0750 -1.1859  1.8258
 9110TIP3    H227270   5.067   1.515   2.165  1.9463 -0.4190 -1.5959
 9111TIP3   OH227271   3.152   1.168   3.181 -0.0260  0.4446  0.0671
 9111TIP3    H127272   3.182   1.097   3.125 -0.0158  1.6456 -1.4765
 9111TIP3    H227273   3.063   1.144   3.206  0.3062 -0.5500  0.3009
 9112TIP3   OH227274   4.418   7.998   3.907 -0.3435 -0.0713 -0.0653
 9112TIP3    H127275   4.334   7.955   3.890 -0.7275  0.6975 -0.1639
 9112TIP3    H227276   4.405   8.087   3.874  1.2175 -0.5444 -2.0433
 9113TIP3   OH227277   5.217   0.538   1.843  0.0029  0.0701  0.4840
 9113TIP3    H127278   5.145   0.559   1.902 -0.5466  0.8102 -0.4398
 9113TIP3    H227279   5.175   0.497   1.768  0.7179 -1.0372  0.6760
 9114TIP3   OH227280   3.369   7.745   6.871  0.7149  0.1798  0.0273
 9114TIP3    H127281   3.447   7.698   6.842  1.9943  2.3231 -0.1513
 9114TIP3    H227282   3.403   7.817   6.924 -1.0835  1.7433 -0.8813
 9115TIP3   OH227283   3.443   6.952   3.338  0.6105 -0.0080 -0.1963
 9115TIP3    H127284   3.357   6.973   3.301 -0.5852 -1.2703  1.8222
 9115TIP3    H227285   3.491   7.035   3.336 -1.2241  1.0746  0.1791
 9116TIP3   OH227286   1.496   7.804   3.894  0.1336 -0.4160 -0.3783
 9116TIP3    H127287   1.527   7.870   3.833 -2.1541  0.6713 -0.4038
 9116TIP3    H227288   1.453   7.853   3.964 -1.1775 -1.8430 -0.1538
 9117TIP3   OH227289   4.118   1.406   4.317 -0.1441 -0.1102 -0.3038
 9117TIP3    H127290   4.089   1.397   4.226  1.3704 -0.6819 -0.7313
 9117TIP3    H227291   4.189   1.469   4.314 -0.5089  0.3546  0.5798
 9118TIP3   OH227292   2.701   6.389   4.231  0.7325  0.1143 -0.2137
 9118TIP3    H127293   2.615   6.416   4.198 -0.1352 -2.7428 -0.3921
 9118TIP3    H227294   2.757   6.386   4.153  0.4575 -0.0293 -0.4069
 9119TIP3   OH227295   4.996   0.163   2.735 -0.0343  0.0555 -0.9561
 9119TIP3    H127296   4.950   0.165   2.651 -0.5730  0.2158 -0.6585
 9119TIP3    H227297   5.039   0.249   2.740 -0.7103  0.3786 -0.6754
 9120TIP3   OH227298   1.299   5.245   6.041 -0.2487 -0.3133  0.8002
 9120TIP3    H127299   1.242   5.183   6.087  0.7287 -1.0036  1.1080
 9120TIP3    H227300   1.343   5.294   6.111 -2.6412  2.3062  0.5709
 9121TIP3   OH227301   2.494   7.217   6.045 -0.7459 -0.3690 -0.3765
 9121TIP3    H127302   2.469   7.215   5.953  0.8084  0.3901 -0.8320
 9121TIP3    H227303   2.448   7.293   6.081 -0.4752 -0.0088 -0.7874
 9122TIP3   OH227304   7.272   0.285   4.101 -0.0644  0.0895  0.4516
 9122TIP3    H127305   7.367   0.276   4.115  0.2280  0.5308 -1.1414
 9122TIP3    H227306   7.261   0.376   4.074 -0.7248 -0.4107 -0.9962
 9123TIP3   OH227307   3.470   7.763   4.342  0.1226  0.1696 -0.6232
 9123TIP3    H127308   3.386   7.804   4.319  0.0322 -0.7141 -1.8977
 9123TIP3    H227309   3.525   7.777   4.265  1.1709  0.7836  0.2233
 9124TIP3   OH227310   3.100   6.225   5.332 -0.0270  0.3698  0.4541
 9124TIP3    H127311   3.005   6.221   5.318  0.1012 -1.0328 -0.0957
 9124TIP3    H227312   3.120   6.318   5.334 -1.3572  0.6756  0.1506
 9125TIP3   OH227313   0.590   7.491   6.007  0.3302  0.1145 -0.3679
 9125TIP3    H127314   0.619   7.447   5.927  3.3250  0.3633  0.5156
 9125TIP3    H227315   0.660   7.554   6.026  0.3865 -0.9251  3.2031
 9126TIP3   OH227316   4.038   0.953   3.439  0.0587 -0.4642 -0.3816
 9126TIP3    H127317   4.004   1.026   3.491  1.3631  0.9800 -1.5185
 9126TIP3    H227318   4.083   0.994   3.366  1.0721 -2.4185 -0.8950
 9127TIP3   OH227319   8.187   7.069   2.886  0.4385 -0.0328  0.1425
 9127TIP3    H127320   8.239   6.991   2.873 -0.7143 -0.7375 -0.3506
 9127TIP3    H227321   8.102   7.037   2.915 -0.4263  0.9443 -1.1955
 9128TIP3   OH227322   6.846   1.272   3.086 -0.3091 -0.5513  0.1356
 9128TIP3    H127323   6.791   1.284   3.163 -1.4138 -0.1494 -0.7045
 9128TIP3    H227324   6.936   1.281   3.118 -0.7710 -0.2854  1.3463
 9129TIP3   OH227325   7.164   1.235   5.275 -0.7869  0.7107  0.3799
 9129TIP3    H127326   7.104   1.166   5.247 -0.2059  0.7432 -0.9934
 9129TIP3    H227327   7.221   1.193   5.340 -0.8085  0.0565 -0.0225
 9130TIP3   OH227328   0.765   7.844   2.025  0.1979 -0.2880  0.6683
 9130TIP3    H127329   0.804   7.759   2.040  1.8602  0.4579  0.6413
 9130TIP3    H227330   0.835   7.907   2.045 -0.6914  1.0349 -0.2827
 9131TIP3   OH227331   1.722   3.835   4.516 -0.0713 -0.6543  0.0156
 9131TIP3    H127332   1.636   3.863   4.546 -0.0269 -0.8435  0.3260
 9131TIP3    H227333   1.760   3.788   4.591 -1.3123 -4.1031 -1.4074
 9132TIP3   OH227334   1.516   7.352   3.867  0.7606  0.1057  0.0599
 9132TIP3    H127335   1.610   7.347   3.851  1.2727 -0.6023  3.0779
 9132TIP3    H227336   1.506   7.427   3.926 -0.7692  1.0945 -1.4047
 9133TIP3   OH227337   1.074   6.110   4.677  0.4680 -0.3346  0.7709
 9133TIP3    H127338   1.045   6.198   4.697 -0.4520 -0.5937  0.5918
 9133TIP3    H227339   1.065   6.102   4.582  1.9523 -0.1278  0.5977
 9134TIP3   OH227340   0.203   7.420   2.349  0.1674 -0.0378 -0.2441
 9134TIP3    H127341   0.117   7.388   2.321  2.4268 -3.1683 -4.0959
 9134TIP3    H227342   0.218   7.499   2.297 -0.1256  0.2732  0.1298
 9135TIP3   OH227343   1.660   7.948   3.491  0.6702  0.4886  0.6859
 9135TIP3    H127344   1.641   7.862   3.452  1.8695 -0.1593  1.5094
 9135TIP3    H227345   1.663   8.008   3.416 -0.3089 -0.1560  0.1187
 9136TIP3   OH227346   5.721   0.384   3.378  0.0557  0.8464  0.0317
 9136TIP3    H127347   5.697   0.467   3.337 -0.3404 -0.3796 -2.3646
 9136TIP3    H227348   5.645   0.328   3.364  1.3646 -0.7545 -0.8671
 9137TIP3   OH227349   5.020   7.658   2.484  0.7704  0.1413  0.6084
 9137TIP3    H127350   4.947   7.599   2.498  0.8547  0.0574  0.6888
 9137TIP3    H227351   4.990   7.719   2.416  1.2385 -0.9241 -0.5709
 9138TIP3   OH227352   0.543   6.317   3.597 -0.3921 -0.6577  0.2339
 9138TIP3    H127353   0.625   6.286   3.558  0.6052  1.1432  0.8339
 9138TIP3    H227354   0.536   6.267   3.679  1.7279  1.3112  1.6968
 9139TIP3   OH227355   4.498   7.846   2.184 -0.2104  0.1434  0.7823
 9139TIP3    H127356   4.487   7.888   2.269 -3.4899  0.7358  0.1245
 9139TIP3    H227357   4.496   7.752   2.203 -0.4071  0.2750  1.4294
 9140TIP3   OH227358   2.283   6.958   5.030 -0.4570  0.1906  0.5187
 9140TIP3    H127359   2.295   7.048   5.000  0.5643 -0.4383 -1.0115
 9140TIP3    H227360   2.372   6.922   5.036 -0.8797 -0.8775  0.6420
 9141TIP3   OH227361   1.877   7.195   4.131  0.5594  0.1181 -0.1812
 9141TIP3    H127362   1.860   7.111   4.174 -0.5334  0.1643 -0.5012
 9141TIP3    H227363   1.890   7.172   4.039 -0.1701  0.3400 -0.3415
 9142TIP3   OH227364   7.908   0.126   4.246 -0.2980 -0.7928  0.4206
 9142TIP3    H127365   7.843   0.079   4.298  1.2481 -0.0263  3.1571
 9142TIP3    H227366   7.873   0.124   4.157 -4.2035 -0.1167  1.8319
 9143TIP3   OH227367   2.070   5.917   4.733 -0.0523  1.0590 -0.3191
 9143TIP3    H127368   2.158   5.884   4.754 -1.3604 -1.3338  1.6485
 9143TIP3    H227369   2.052   5.981   4.802  0.8147  2.9131 -1.7580
 9144TIP3   OH227370   3.686   0.406   2.679 -0.0414  0.3529  0.0985
 9144TIP3    H127371   3.709   0.499   2.683  1.1037  0.1090 -0.6601
 9144TIP3    H227372   3.764   0.360   2.709 -0.6953 -0.3608  0.7234
 9145TIP3   OH227373   0.259   6.453   4.166 -0.0916  0.2160  0.3920
 9145TIP3    H127374   0.241   6.446   4.072  1.6191  1.8561 -0.0974
 9145TIP3    H227375   0.264   6.363   4.197 -0.3611 -0.3466 -1.1612
 9146TIP3   OH227376   2.090   7.228   5.503  0.6467  0.0164 -0.0414
 9146TIP3    H127377   2.037   7.207   5.579  1.6087  1.6054  1.1320
 9146TIP3    H227378   2.155   7.158   5.499 -0.1125 -0.6880 -0.0896
 9147TIP3   OH227379   2.659   7.124   3.464  0.1213  0.1977 -0.1728
 9147TIP3    H127380   2.580   7.091   3.421  0.5284 -1.6712  0.4779
 9147TIP3    H227381   2.704   7.046   3.497  0.9485  1.4035  1.7054
 9148TIP3   OH227382   0.284   6.232   4.646  0.1272 -0.2101 -0.5749
 9148TIP3    H127383   0.241   6.272   4.721 -0.5525 -1.8673 -0.0379
 9148TIP3    H227384   0.211   6.194   4.595  0.6647 -0.0039 -1.5079
 9149TIP3   OH227385   4.429   1.287   4.842 -0.0773 -0.3111  0.3959
 9149TIP3    H127386   4.475   1.266   4.760 -1.0715 -0.4967 -0.1169
 9149TIP3    H227387   4.427   1.382   4.844 -0.1937 -0.3067  0.1206
 9150TIP3   OH227388   2.131   5.839   3.681  0.2470  0.3157  0.0122
 9150TIP3    H127389   2.096   5.765   3.632  1.1667  0.3913 -0.7757
 9150TIP3    H227390   2.215   5.858   3.639  0.5659  1.0490  0.9588
 9151TIP3   OH227391   1.226   6.243   4.355  0.6550  0.3535  0.0669
 9151TIP3    H127392   1.227   6.232   4.260  0.1103 -0.5727  0.1633
 9151TIP3    H227393   1.294   6.184   4.387  0.4024  0.1813  0.2967
 9152TIP3   OH227394   1.461   5.725   3.461 -0.0351 -0.0203  0.2048
 9152TIP3    H127395   1.501   5.721   3.548  0.5857  0.5908 -0.0407
 9152TIP3    H227396   1.382   5.777   3.473 -0.4326 -0.7054  0.5780
 9153TIP3   OH227397   4.358   6.970   3.650  0.2442  0.4300  0.7939
 9153TIP3    H127398   4.432   7.028   3.666 -0.1593  0.9177  0.9100
 9153TIP3    H227399   4.294   6.994   3.717 -0.8417  1.4349 -0.5572
 9154TIP3   OH227400   2.811   7.149   4.869 -0.3710 -0.0685 -0.1664
 9154TIP3    H127401   2.848   7.064   4.842  1.1159  0.6092 -0.3460
 9154TIP3    H227402   2.815   7.147   4.964 -0.4839 -0.2558 -0.1633
 9155TIP3   OH227403   3.928   0.963   1.286  0.0456  0.0330  0.7868
 9155TIP3    H127404   3.922   0.886   1.342 -2.2619 -0.0807  0.4596
 9155TIP3    H227405   3.924   1.037   1.347 -0.7752 -0.1083  0.9221
 9156TIP3   OH227406   2.466   6.177   3.974  0.1754  0.1616 -0.2283
 9156TIP3    H127407   2.428   6.112   4.033  0.7519 -0.0731 -0.1061
 9156TIP3    H227408   2.559   6.153   3.969  0.1452  0.2252 -1.1739
 9157TIP3   OH227409   0.482   5.319   3.615  0.3255  0.3133  0.1830
 9157TIP3    H127410   0.528   5.244   3.652  1.2993  1.1437  0.7065
 9157TIP3    H227411   0.547   5.362   3.559  0.1058  1.3403  0.7056
 9158TIP3   OH227412   6.562   1.406   4.611  0.3683 -0.3553 -0.2940
 9158TIP3    H127413   6.567   1.353   4.531 -0.0122  0.8132 -1.1175
 9158TIP3    H227414   6.567   1.497   4.579  0.9511  0.1029  1.0773
 9159TIP3   OH227415   0.693   5.828   3.682  0.1355 -0.0236  0.0414
 9159TIP3    H127416   0.615   5.778   3.704  0.2234  0.2262  0.9309
 9159TIP3    H227417   0.676   5.863   3.594 -0.7199 -0.0185  0.2101
 9160TIP3   OH227418   8.308   6.174   4.303 -0.1000 -0.2510  0.3146
 9160TIP3    H127419   8.340   6.096   4.348 -0.2084  0.6698  1.9925
 9160TIP3    H227420   8.227   6.145   4.260 -0.0225 -1.1215  0.7448
 9161TIP3   OH227421   3.974   7.595   5.993  0.0299  0.5730 -0.2030
 9161TIP3    H127422   3.962   7.689   5.999  0.8119  0.5536  2.1300
 9161TIP3    H227423   4.061   7.584   5.955  0.8190  0.8197  1.5002
 9162TIP3   OH227424   5.048   0.578   6.376 -0.1469 -0.1642 -0.8405
 9162TIP3    H127425   5.109   0.591   6.304  0.0782  0.3409 -0.5606
 9162TIP3    H227426   5.027   0.666   6.406 -0.4422 -0.3621 -0.4545
 9163TIP3   OH227427   3.741   7.404   5.502  0.3226 -0.3102  0.3701
 9163TIP3    H127428   3.813   7.349   5.534  1.7777 -0.3473 -2.7828
 9163TIP3    H227429   3.675   7.342   5.470 -0.0081 -0.2421  0.9086
 9164TIP3   OH227430   2.352   6.722   1.733 -0.4599  0.2620 -0.0006
 9164TIP3    H127431   2.341   6.790   1.668  0.0480 -0.4488 -0.8412
 9164TIP3    H227432   2.419   6.756   1.792 -1.3589  1.1645  0.5145
 9165TIP3   OH227433   2.730   5.467   4.040  0.1453  0.0365 -0.1462
 9165TIP3    H127434   2.789   5.453   4.113  0.5368  0.3122 -0.4073
 9165TIP3    H227435   2.759   5.549   4.000 -0.3248  0.1032 -0.3586
 9166TIP3   OH227436   1.076   6.972   1.142  0.3898 -0.2126  0.0182
 9166TIP3    H127437   0.994   7.019   1.156 -0.4946 -1.3664 -1.0696
 9166TIP3    H227438   1.128   7.030   1.088 -0.7389 -0.4875 -1.4166
 9167TIP3   OH227439   5.226   7.154   3.390  0.1136 -0.2855 -0.3265
 9167TIP3    H127440   5.135   7.176   3.411 -0.1055  0.6742 -2.2076
 9167TIP3    H227441   5.253   7.097   3.462 -1.4331  0.7593  1.1520
 9168TIP3   OH227442   1.551   5.949   1.460  0.5711  0.2733  0.5840
 9168TIP3    H127443   1.604   5.870   1.449  0.9760  0.4087  1.4784
 9168TIP3    H227444   1.507   5.960   1.376  1.9925  0.1807 -0.1868
 9169TIP3   OH227445   1.301   7.676   2.059  0.3762 -0.4604  0.1073
 9169TIP3    H127446   1.300   7.763   2.099  1.5769 -1.6644  2.8458
 9169TIP3    H227447   1.370   7.681   1.993 -0.0270  0.8579 -0.2361
 9170TIP3   OH227448   5.882   0.153   4.013  0.3899 -0.1548 -0.1242
 9170TIP3    H127449   5.867   0.223   4.077  0.2540 -0.4670  0.1875
 9170TIP3    H227450   5.795   0.136   3.976 -0.2324 -2.4902  2.2266
 9171TIP3   OH227451   3.344   7.498   3.072  0.4260  0.1022 -0.3662
 9171TIP3    H127452   3.269   7.545   3.108  0.1168 -0.9124  0.3233
 9171TIP3    H227453   3.381   7.558   3.007 -0.9505  0.6298 -0.6829
 9172TIP3   OH227454   6.589   0.165   4.515  0.1821  0.4027 -0.2072
 9172TIP3    H127455   6.670   0.168   4.567 -0.7779 -1.2410  1.4795
 9172TIP3    H227456   6.595   0.083   4.466 -0.4336  0.2858 -0.0965
 9173TIP3   OH227457   4.752   6.206   2.130  0.3451 -0.0847  0.0502
 9173TIP3    H127458   4.826   6.209   2.191  0.4458 -0.6578 -0.0421
 9173TIP3    H227459   4.675   6.197   2.185  0.6286 -3.3642  0.0124
 9174TIP3   OH227460   4.056   7.573   3.290 -0.2306  0.0395  0.2116
 9174TIP3    H127461   3.994   7.573   3.363 -1.1794 -0.3584 -0.5818
 9174TIP3    H227462   4.106   7.493   3.301 -1.0108 -0.4989 -0.0949
 9175TIP3   OH227463   2.432   5.598   4.380  0.3960 -0.7067 -0.3229
 9175TIP3    H127464   2.374   5.622   4.453  0.5525  1.2966 -0.8284
 9175TIP3    H227465   2.394   5.519   4.344 -1.1767 -0.2506  0.3060
 9176TIP3   OH227466   4.526   6.718   1.967  0.0880 -0.5539  0.0626
 9176TIP3    H127467   4.606   6.689   2.010  0.4993  1.1965  0.4993
 9176TIP3    H227468   4.553   6.791   1.911 -1.1934  0.0512  0.2194
 9177TIP3   OH227469   4.644   5.538   1.837 -0.2570  0.1997 -0.2633
 9177TIP3    H127470   4.684   5.451   1.842  0.2333  0.4864  1.0031
 9177TIP3    H227471   4.575   5.537   1.903  0.5291  1.1550  0.5971
 9178TIP3   OH227472   1.726   5.448   3.547  0.6266  0.3084 -0.3188
 9178TIP3    H127473   1.701   5.531   3.589 -0.5492  0.1545 -0.6972
 9178TIP3    H227474   1.736   5.387   3.620  0.3034  0.4793 -0.1293
 9179TIP3   OH227475   5.599   7.140   3.515  0.8801 -0.2960  0.3520
 9179TIP3    H127476   5.658   7.066   3.528  0.5583 -0.6951 -0.4376
 9179TIP3    H227477   5.512   7.104   3.531  0.7108 -0.1324 -0.1964
 9180TIP3   OH227478   6.009   6.508   3.127  0.0764 -0.2104 -0.3857
 9180TIP3    H127479   5.937   6.569   3.112  0.3783  0.3101  0.2620
 9180TIP3    H227480   6.051   6.498   3.042  0.0984  0.5872 -0.4724
 9181TIP3   OH227481   0.039   2.178   6.128 -0.3419  0.1135  0.6002
 9181TIP3    H127482   0.062   2.190   6.036 -0.1903 -0.2930  0.5865
 9181TIP3    H227483   0.118   2.205   6.176 -0.6311  0.9133  0.6361
 9182TIP3   OH227484   4.302   7.424   3.036 -0.1823  0.4363 -0.3800
 9182TIP3    H127485   4.274   7.514   3.053 -1.1842  0.4398 -1.9268
 9182TIP3    H227486   4.396   7.424   3.051 -0.5061  1.2041  1.8040
 9183TIP3   OH227487   2.287   6.774   3.873  0.1773 -0.6741  0.0805
 9183TIP3    H127488   2.244   6.689   3.881 -2.2387  0.6123  1.1456
 9183TIP3    H227489   2.305   6.801   3.963 -0.8700  0.8043 -0.1217
 9184TIP3   OH227490   1.918   6.943   3.526 -0.5684  0.4940  0.0060
 9184TIP3    H127491   1.906   7.018   3.584 -1.3089  1.2091 -1.0542
 9184TIP3    H227492   1.929   6.869   3.585 -1.8949  1.1186  1.0759
 9185TIP3   OH227493   3.209   6.149   2.988 -0.1559 -0.8740  0.2720
 9185TIP3    H127494   3.279   6.096   3.025 -1.0503 -1.7536  0.7217
 9185TIP3    H227495   3.220   6.141   2.893 -0.0094 -1.4894  0.3412
 9186TIP3   OH227496   4.311   5.046   1.942 -0.3169  0.2573 -0.6246
 9186TIP3    H127497   4.232   5.101   1.944  0.5228  1.5210  4.0883
 9186TIP3    H227498   4.277   4.956   1.942 -1.7267  0.7704 -1.8646
 9187TIP3   OH227499   8.052   1.502   3.337  0.4339 -0.1984  0.3106
 9187TIP3    H127500   8.044   1.422   3.285  2.5255 -0.5533  0.4778
 9187TIP3    H227501   8.068   1.571   3.273  4.4977 -0.8543  0.4346
 9188TIP3   OH227502   2.084   6.697   3.397  0.2881 -0.4775  0.6196
 9188TIP3    H127503   2.061   6.661   3.311 -2.3555 -2.5068  2.1012
 9188TIP3    H227504   2.020   6.766   3.412  2.1828  1.4893  0.0291
 9189TIP3   OH227505   3.178   5.525   2.274  0.2724 -0.2106  0.1523
 9189TIP3    H127506   3.221   5.551   2.193 -0.5095 -3.0461 -1.2445
 9189TIP3    H227507   3.228   5.449   2.304 -1.4746 -1.2817  0.4617
 9190TIP3   OH227508   5.530   5.174   4.115  0.0986  0.4646  0.3940
 9190TIP3    H127509   5.609   5.162   4.063  1.1553  1.5423  1.7144
 9190TIP3    H227510   5.516   5.089   4.157  0.8707  0.4197  0.5707
 9191TIP3   OH227511   5.492   6.512   1.782  0.2895  0.3937  0.2056
 9191TIP3    H127512   5.581   6.479   1.797  0.1724 -0.4463 -0.9203
 9191TIP3    H227513   5.499   6.606   1.796  1.1171  0.1949  1.2268
 9192TIP3   OH227514   7.301   0.888   3.529 -0.1550  0.1350 -0.1004
 9192TIP3    H127515   7.276   0.915   3.440  0.8435 -0.8242 -0.6730
 9192TIP3    H227516   7.262   0.955   3.586  0.0483  1.3087 -1.3239
 9193TIP3   OH227517   7.184   7.363   3.070 -0.1464 -0.2819  0.6674
 9193TIP3    H127518   7.129   7.408   3.007  0.0685  0.5427  1.0670
 9193TIP3    H227519   7.167   7.270   3.054 -1.1123 -0.0518  0.3088
 9194TIP3   OH227520   5.085   1.455   3.728 -0.8045 -0.4400 -0.5319
 9194TIP3    H127521   5.091   1.363   3.699 -3.9651  0.2935 -4.0125
 9194TIP3    H227522   4.999   1.461   3.768 -0.3586  0.8950  0.2279
 9195TIP3   OH227523   4.830   6.358   3.522  0.3068 -0.4556  0.3539
 9195TIP3    H127524   4.806   6.386   3.610 -0.3923  1.1254 -0.3281
 9195TIP3    H227525   4.859   6.438   3.479  1.0458 -1.2974 -0.7248
 9196TIP3   OH227526   6.098   0.444   4.921  0.2994 -0.1270  0.2839
 9196TIP3    H127527   6.146   0.488   4.992  2.0397 -3.0369  0.9881
 9196TIP3    H227528   6.013   0.423   4.960  0.5519 -0.0296  0.8998
 9197TIP3   OH227529   6.415   0.664   3.814  0.2116  0.0337 -0.2489
 9197TIP3    H127530   6.333   0.657   3.863 -0.2826  0.6066 -0.9759
 9197TIP3    H227531   6.387   0.673   3.723  1.0011  2.0339 -0.3336
 9198TIP3   OH227532   2.702   6.658   3.385 -0.0715 -0.1541  0.2587
 9198TIP3    H127533   2.708   6.574   3.340 -0.4215 -0.4004  0.6649
 9198TIP3    H227534   2.689   6.635   3.477 -1.5748  0.3413  0.1898
 9199TIP3   OH227535   2.419   7.025   3.333  0.4862 -0.0609  0.1351
 9199TIP3    H127536   2.396   7.065   3.249 -0.8071 -1.1613 -0.0440
 9199TIP3    H227537   2.361   7.067   3.397 -0.4796 -1.1942  0.0334
 9200TIP3   OH227538   3.172   7.205   4.660 -0.2493 -0.1882  0.6051
 9200TIP3    H127539   3.082   7.234   4.643 -1.1800 -2.6468  1.1896
 9200TIP3    H227540   3.166   7.110   4.666  2.4965 -0.4293  0.1243
 9201TIP3   OH227541   6.120   0.446   3.570  0.2781 -0.0794  0.6720
 9201TIP3    H127542   6.199   0.395   3.587  0.6064  0.4008  0.6000
 9201TIP3    H227543   6.084   0.408   3.490  0.5005 -0.2216  0.6380
 9202TIP3   OH227544   4.172   6.834   3.112 -0.3426 -0.1132 -0.5908
 9202TIP3    H127545   4.196   6.861   3.023  0.6322 -0.3309 -0.4021
 9202TIP3    H227546   4.212   6.900   3.168 -0.1350 -0.5155 -0.2630
 9203TIP3   OH227547   7.699   1.685   2.922 -0.1122  0.3947 -0.4283
 9203TIP3    H127548   7.651   1.623   2.976 -0.8274  0.2122 -1.2509
 9203TIP3    H227549   7.759   1.632   2.871  2.3255  0.7923  1.9298
 9204TIP3   OH227550   2.721   5.511   4.984 -0.3823 -0.5911  0.5028
 9204TIP3    H127551   2.651   5.571   4.960 -0.5842 -0.8485  0.4476
 9204TIP3    H227552   2.716   5.441   4.918  1.2098  0.4141 -0.7273
 9205TIP3   OH227553   3.758   6.797   2.016 -0.3614  0.4788 -0.4007
 9205TIP3    H127554   3.784   6.774   2.105 -2.2481  2.6546  0.7827
 9205TIP3    H227555   3.714   6.719   1.982 -0.1915 -0.1489  0.8013
 9206TIP3   OH227556   6.314   0.155   5.650  0.0710  0.0491  0.3052
 9206TIP3    H127557   6.305   0.066   5.685  0.0886 -0.1502 -0.1984
 9206TIP3    H227558   6.226   0.192   5.654  0.1900  0.2420  1.1464
 9207TIP3   OH227559   4.347   6.465   2.275 -0.1577  0.3568  0.1455
 9207TIP3    H127560   4.438   6.438   2.290 -0.6764 -1.8182 -0.4388
 9207TIP3    H227561   4.341   6.479   2.180 -0.7842 -0.9086 -0.0114
 9208TIP3   OH227562   3.473   5.540   3.969  0.3890 -0.0128 -0.0861
 9208TIP3    H127563   3.412   5.468   3.953  1.4016 -0.7358 -0.7645
 9208TIP3    H227564   3.525   5.511   4.044 -0.3221  0.7514  0.7102
 9209TIP3   OH227565   4.937   5.880   1.173  0.2805  0.1116  0.0907
 9209TIP3    H127566   4.873   5.857   1.240 -0.2067  0.3199 -0.3032
 9209TIP3    H227567   4.885   5.901   1.096  0.8638 -0.9673 -0.6154
 9210TIP3   OH227568   4.888   5.000   2.681 -0.4122 -0.3266  0.0349
 9210TIP3    H127569   4.838   4.955   2.749 -0.6532  2.3742  1.7176
 9210TIP3    H227570   4.967   5.032   2.725  0.0044  0.4620 -1.2264
 9211TIP3   OH227571   4.180   7.149   2.924  0.4748 -0.0955 -0.6547
 9211TIP3    H127572   4.089   7.163   2.950  0.2945 -1.2434 -0.6179
 9211TIP3    H227573   4.219   7.236   2.922  0.1220  0.1752  2.0975
 9212TIP3   OH227574   2.324   7.337   3.388  0.0585 -0.1458  0.4000
 9212TIP3    H127575   2.316   7.287   3.307  1.6788  1.8506 -1.0630
 9212TIP3    H227576   2.306   7.428   3.362  1.1960  0.6146  2.1454
 9213TIP3   OH227577   6.135   1.318   2.638  0.3888  0.0881 -0.1327
 9213TIP3    H127578   6.217   1.331   2.591  0.2734  0.7316 -0.1625
 9213TIP3    H227579   6.145   1.232   2.680  0.4934 -0.4954 -1.3146
 9214TIP3   OH227580   1.642   6.273   2.689 -0.3627 -0.4945 -0.1938
 9214TIP3    H127581   1.569   6.331   2.710  0.2526  0.2899 -0.2236
 9214TIP3    H227582   1.614   6.187   2.720 -1.4892 -0.2845 -0.6156
 9215TIP3   OH227583   3.212   6.940   1.301  0.0677 -0.1616  0.6383
 9215TIP3    H127584   3.277   6.885   1.345  0.8100 -1.0506 -1.4996
 9215TIP3    H227585   3.248   6.953   1.213 -1.5680  1.2366  0.1542
 9216TIP3   OH227586   2.559   6.037   5.864 -0.3564  0.4505  0.1734
 9216TIP3    H127587   2.592   5.949   5.845  0.9629  0.9603  0.0561
 9216TIP3    H227588   2.468   6.035   5.835 -1.0924 -1.6483  2.5094
 9217TIP3   OH227589   2.732   6.864   3.965  0.4625  0.5817  0.2326
 9217TIP3    H127590   2.708   6.891   4.054  1.2952  0.5599  0.4680
 9217TIP3    H227591   2.806   6.805   3.977  0.6002  0.6049 -0.4849
 9218TIP3   OH227592   4.427   7.299   1.984 -0.0362  0.0486 -0.0122
 9218TIP3    H127593   4.522   7.298   1.983 -0.0308 -0.7562  0.6139
 9218TIP3    H227594   4.404   7.386   2.016  0.4668  0.6270 -1.1816
 9219TIP3   OH227595   3.923   6.734   2.410  0.0432 -0.1445  0.8055
 9219TIP3    H127596   3.885   6.774   2.488 -2.0982 -2.8287  1.2316
 9219TIP3    H227597   3.852   6.732   2.346  0.8215 -0.9573 -0.0646
 9220TIP3   OH227598   1.925   6.913   4.163  0.1199 -0.2946  0.3612
 9220TIP3    H127599   1.876   6.859   4.225  1.6010 -0.0172  1.7994
 9220TIP3    H227600   2.014   6.913   4.196  0.2588  2.5904  0.0900
 9221TIP3   OH227601   4.940   1.561   2.014 -0.5575 -0.0127  0.9886
 9221TIP3    H127602   4.931   1.648   2.054 -3.3110  0.5937 -0.7834
 9221TIP3    H227603   4.998   1.575   1.939 -1.5089  0.4640  0.3277
 9222TIP3   OH227604   6.680   6.417   4.059 -0.3760  0.5001 -0.0978
 9222TIP3    H127605   6.666   6.511   4.070 -1.0423  0.3049  0.7686
 9222TIP3    H227606   6.699   6.385   4.147  0.4498 -0.0842 -0.4759
 9223TIP3   OH227607   7.238   0.391   1.389 -0.5419 -0.5375  0.0125
 9223TIP3    H127608   7.271   0.476   1.362  0.3320 -0.7112  0.5190
 9223TIP3    H227609   7.157   0.380   1.340  0.3007 -0.2408 -1.4658
 9224TIP3   OH227610   7.264   2.151   3.390 -0.4585  0.1322  0.0020
 9224TIP3    H127611   7.280   2.124   3.481  0.2512 -1.2993 -0.5377
 9224TIP3    H227612   7.229   2.073   3.347  1.2995  0.1415 -1.4921
 9225TIP3   OH227613   2.768   3.990   3.601  0.1021 -0.4752 -0.1712
 9225TIP3    H127614   2.721   3.992   3.518 -0.1760  0.5257  0.0099
 9225TIP3    H227615   2.736   4.066   3.649 -0.5315 -1.6537  1.3032
 9226TIP3   OH227616   2.007   6.735   3.693 -0.1032 -0.4504 -0.1163
 9226TIP3    H127617   2.096   6.718   3.724  0.2324  0.8394 -0.3411
 9226TIP3    H227618   1.975   6.649   3.665  1.9125 -0.5838 -2.1745
 9227TIP3   OH227619   4.076   5.741   3.422  0.4012 -0.7179  0.1727
 9227TIP3    H127620   4.149   5.763   3.364  1.3375  1.5500  2.1050
 9227TIP3    H227621   4.099   5.657   3.460  1.6369 -0.4102  0.1330
 9228TIP3   OH227622   3.750   7.633   2.287 -0.5586  0.4662 -0.6678
 9228TIP3    H127623   3.655   7.623   2.281 -0.6944  0.1937  1.4590
 9228TIP3    H227624   3.765   7.727   2.276 -1.1412  0.6074 -0.3010
 9229TIP3   OH227625   7.987   0.835   2.473  0.2861  0.0318 -0.1794
 9229TIP3    H127626   8.028   0.753   2.498 -0.3378 -0.0051  0.7720
 9229TIP3    H227627   7.968   0.879   2.556  0.3489  1.0061 -0.6674
 9230TIP3   OH227628   7.577   0.353   2.589  0.4228  0.1444 -0.4122
 9230TIP3    H127629   7.512   0.405   2.541  0.3924 -1.1370 -1.7771
 9230TIP3    H227630   7.530   0.275   2.616  1.1311 -0.3360 -0.5588
 9231TIP3   OH227631   6.769   0.875   4.042 -0.6149 -0.1144  0.1221
 9231TIP3    H127632   6.772   0.888   3.947 -0.9852 -1.6625 -0.1112
 9231TIP3    H227633   6.836   0.810   4.060  0.2742  1.0341  1.0960
 9232TIP3   OH227634   2.768   7.409   4.401 -0.6331  0.9512 -0.3437
 9232TIP3    H127635   2.798   7.325   4.365  1.0618  1.3153  0.1956
 9232TIP3    H227636   2.722   7.451   4.328 -1.1839 -0.2894 -0.7256
 9233TIP3   OH227637   3.162   7.940   2.435  0.2222  0.1700 -1.0006
 9233TIP3    H127638   3.207   8.022   2.456  3.0366 -1.6308  0.3144
 9233TIP3    H227639   3.114   7.959   2.354  0.4396  3.2222 -0.4706
 9234TIP3   OH227640   5.220   0.917   3.482  0.4340  0.2849 -0.2256
 9234TIP3    H127641   5.307   0.939   3.449  0.6646 -1.4541 -0.8427
 9234TIP3    H227642   5.230   0.917   3.578  0.6940  1.6679 -0.2443
 9235TIP3   OH227643   3.793   0.770   4.221 -0.4385 -0.0725 -0.2509
 9235TIP3    H127644   3.885   0.776   4.196 -0.5786 -0.5842 -0.9056
 9235TIP3    H227645   3.747   0.825   4.157 -0.3131  2.3570  1.6979
 9236TIP3   OH227646   5.588   0.666   3.300  0.6205 -0.4104  0.6405
 9236TIP3    H127647   5.511   0.625   3.337  0.5651 -1.3057 -0.4343
 9236TIP3    H227648   5.556   0.747   3.260  0.1327 -1.0528 -0.2879
 9237TIP3   OH227649   6.609   5.433   3.216 -0.0795  0.0731 -0.4172
 9237TIP3    H127650   6.641   5.377   3.286 -1.9072 -0.0343  0.3774
 9237TIP3    H227651   6.683   5.443   3.156  0.9400 -1.3229  0.5948
 9238TIP3   OH227652   5.153   7.509   3.247  0.2791  0.3908 -0.2715
 9238TIP3    H127653   5.172   7.445   3.178 -0.4826  0.1310 -0.2411
 9238TIP3    H227654   5.207   7.481   3.321  2.7664  1.9077 -1.4353
 9239TIP3   OH227655   1.919   6.307   2.165  0.2351 -0.9588  1.0109
 9239TIP3    H127656   1.844   6.281   2.217 -2.1253  2.0995 -0.6875
 9239TIP3    H227657   1.907   6.260   2.082  0.5638 -0.9500  0.9585
 9240TIP3   OH227658   6.048   0.747   3.826  0.1838  0.8849 -1.2784
 9240TIP3    H127659   6.076   0.657   3.840 -1.9063  0.3313 -0.4887
 9240TIP3    H227660   6.027   0.752   3.733 -0.6146  0.2831 -1.1344
 9241TIP3   OH227661   7.204   0.220   1.858 -0.5458 -0.1249  0.3140
 9241TIP3    H127662   7.261   0.255   1.790  0.0559 -0.1453  0.8034
 9241TIP3    H227663   7.245   0.137   1.883 -0.5755  0.0449  0.9371
 9242TIP3   OH227664   7.008   1.029   3.466 -0.0477  0.1772  0.5182
 9242TIP3    H127665   7.042   1.071   3.386  1.0195 -0.1704  0.7860
 9242TIP3    H227666   7.082   1.029   3.526 -0.5554 -0.5075  1.1448
 9243TIP3   OH227667   3.258   4.574   2.498 -0.6134  0.5053  0.1147
 9243TIP3    H127668   3.247   4.527   2.416  0.3368  1.3202 -0.4973
 9243TIP3    H227669   3.351   4.599   2.499 -1.4067  3.6983 -0.3209
 9244TIP3   OH227670   7.201   0.489   5.913 -0.4897  0.4512 -0.4519
 9244TIP3    H127671   7.122   0.469   5.861  0.1706 -1.2797 -0.8290
 9244TIP3    H227672   7.274   0.463   5.856  0.3211  0.9463  0.3535
 9245TIP3   OH227673   6.241   1.093   3.188 -0.1165 -0.7780 -0.4894
 9245TIP3    H127674   6.289   1.073   3.268 -2.3939  0.5692  1.2770
 9245TIP3    H227675   6.261   1.021   3.129  3.2304 -0.7585  0.5198
 9246TIP3   OH227676   7.329   0.136   2.949 -0.2818  0.2498 -0.3605
 9246TIP3    H127677   7.284   0.091   3.020  1.3406 -1.3102 -0.2847
 9246TIP3    H227678   7.394   0.073   2.918 -1.3011  0.7004 -3.5910
 9247TIP3   OH227679   5.742   0.596   2.781  0.1960  0.1062  0.0225
 9247TIP3    H127680   5.712   0.670   2.833  0.3276 -0.6453  1.1977
 9247TIP3    H227681   5.837   0.597   2.790  0.4148  1.2945 -2.0552
 9248TIP3   OH227682   2.130   6.992   1.722 -0.5308 -0.4387  0.1769
 9248TIP3    H127683   2.070   6.923   1.694 -1.2770 -0.9408  2.8916
 9248TIP3    H227684   2.179   6.953   1.794  2.0222  0.4815 -0.9967
 9249TIP3   OH227685   5.477   6.972   2.538 -0.3072  0.0202  0.3255
 9249TIP3    H127686   5.484   6.877   2.532  2.1097  0.1795  0.3598
 9249TIP3    H227687   5.488   7.003   2.448  1.7036  0.4174  0.6982
 9250TIP3   OH227688   2.431   6.325   3.584 -0.0854 -0.0693 -0.9238
 9250TIP3    H127689   2.355   6.319   3.642  1.6605 -1.8754  1.2788
 9250TIP3    H227690   2.401   6.380   3.511 -2.9245  0.7410  0.7538
 9251TIP3   OH227691   2.755   6.232   5.853  0.0088  0.7553 -0.3946
 9251TIP3    H127692   2.834   6.190   5.888 -0.6403  1.3332  1.8954
 9251TIP3    H227693   2.687   6.166   5.861 -0.3486  1.2005  0.3830
 9252TIP3   OH227694   2.766   6.729   4.670 -0.2690 -0.3798  0.0362
 9252TIP3    H127695   2.686   6.690   4.637 -0.1561 -0.6280  0.0579
 9252TIP3    H227696   2.805   6.662   4.726  0.9188 -0.9900 -1.4735
 9253TIP3   OH227697   3.532   6.637   2.898  0.0662 -0.2522  0.0220
 9253TIP3    H127698   3.506   6.562   2.951 -2.5226 -0.7390 -1.8427
 9253TIP3    H227699   3.451   6.668   2.859  1.4968  1.8666 -1.4003
 9254TIP3   OH227700   3.739   7.311   3.385 -0.3747  0.5293 -0.6210
 9254TIP3    H127701   3.723   7.376   3.317  1.2301  0.6356 -0.9296
 9254TIP3    H227702   3.831   7.285   3.372 -0.8352 -1.4116 -0.1729
 9255TIP3   OH227703   1.835   6.803   2.140  0.1875 -0.5985  0.7532
 9255TIP3    H127704   1.880   6.774   2.220  0.0090  0.6963  1.3438
 9255TIP3    H227705   1.780   6.876   2.169  0.1584 -0.0797 -0.5691
 9256TIP3   OH227706   4.757   1.553   4.752  0.0610  0.6298 -0.2548
 9256TIP3    H127707   4.845   1.589   4.739  0.9317 -1.1471  0.4908
 9256TIP3    H227708   4.754   1.532   4.846 -0.7768 -0.3130 -0.4894
 9257TIP3   OH227709   1.519   4.800   4.502  0.5280 -0.8080 -0.1888
 9257TIP3    H127710   1.515   4.799   4.597 -1.6797 -0.4607 -0.2673
 9257TIP3    H227711   1.499   4.890   4.477  1.5571 -0.7824 -0.9732
 9258TIP3   OH227712   2.219   7.082   2.662 -0.3322 -0.4957 -0.2122
 9258TIP3    H127713   2.167   7.038   2.729 -0.5843  0.3149  0.1276
 9258TIP3    H227714   2.196   7.174   2.670  1.8298  0.0216  0.5878
 9259TIP3   OH227715   6.651   1.871   3.696  0.0350 -0.1515 -0.6692
 9259TIP3    H127716   6.642   1.782   3.730 -0.6394  0.8991  2.0335
 9259TIP3    H227717   6.565   1.911   3.710  0.2241  0.8059 -2.1929
 9260TIP3   OH227718   2.797   6.656   2.823  0.0907  0.5021 -0.4197
 9260TIP3    H127719   2.703   6.643   2.807  0.2292 -0.2006 -0.7004
 9260TIP3    H227720   2.801   6.702   2.907 -0.5297  1.1779 -0.7607
 9261TIP3   OH227721   3.344   5.633   2.934 -0.0588  0.4776 -0.0134
 9261TIP3    H127722   3.296   5.667   3.010 -1.3609 -0.5628 -0.3499
 9261TIP3    H227723   3.353   5.708   2.876 -0.8270  0.8124  0.2908
 9262TIP3   OH227724   4.371   6.293   1.734  0.0040 -0.2170 -0.0503
 9262TIP3    H127725   4.361   6.361   1.668 -0.3116 -0.3670 -0.1572
 9262TIP3    H227726   4.397   6.215   1.685  2.4722  0.3465  0.2903
 9263TIP3   OH227727   7.250   1.300   3.095  0.5306  0.3211  0.8534
 9263TIP3    H127728   7.262   1.366   3.027  0.1078 -0.2739  0.1894
 9263TIP3    H227729   7.283   1.341   3.175  1.8411  0.6931  0.1216
 9264TIP3   OH227730   4.409   5.301   4.009 -0.3749  0.0398 -0.4329
 9264TIP3    H127731   4.317   5.283   4.029 -0.2265  0.1820  0.4009
 9264TIP3    H227732   4.418   5.396   4.020  0.0210 -0.0598  0.1373
 9265TIP3   OH227733   5.400   0.724   2.976  0.1076 -0.6413 -0.1539
 9265TIP3    H127734   5.471   0.752   2.917  1.8123 -2.0893  1.1523
 9265TIP3    H227735   5.405   0.785   3.049 -0.5638 -0.2366 -0.4344
 9266TIP3   OH227736   2.553   4.529   4.370 -0.1439  0.0254  0.4153
 9266TIP3    H127737   2.618   4.508   4.438 -0.1125  0.4876  0.5287
 9266TIP3    H227738   2.475   4.555   4.418  0.0077  0.7590  0.2823
 9267TIP3   OH227739   5.982   6.010   1.562  0.0429 -0.2872  0.0156
 9267TIP3    H127740   5.945   5.991   1.648  0.5302  0.6129  0.4280
 9267TIP3    H227741   5.948   6.096   1.538  0.1700 -0.3858 -0.5427
 9268TIP3   OH227742   3.984   6.413   2.779 -0.0840 -0.0320 -0.6687
 9268TIP3    H127743   4.047   6.483   2.794 -0.4961 -0.0710  1.4240
 9268TIP3    H227744   3.899   6.457   2.780 -0.3500 -0.5662  0.7533
 9269TIP3   OH227745   0.838   0.218   2.722  0.0809  0.0242  0.2548
 9269TIP3    H127746   0.799   0.260   2.799 -0.5114  1.1980 -0.6699
 9269TIP3    H227747   0.765   0.172   2.681  0.7260 -1.9745  1.2664
 9270TIP3   OH227748   1.404   6.207   3.285 -0.7473 -0.5241  0.4030
 9270TIP3    H127749   1.417   6.156   3.365  1.0255 -0.3430  0.2457
 9270TIP3    H227750   1.457   6.286   3.298  0.6149 -1.0889 -1.4664
 9271TIP3   OH227751   3.084   5.459   2.692 -0.1755 -0.4814 -0.2837
 9271TIP3    H127752   3.070   5.543   2.649 -1.8085 -0.3454  0.4687
 9271TIP3    H227753   3.178   5.456   2.710  0.0185  0.8181 -1.0556
 9272TIP3   OH227754   0.560   3.414   0.126  0.0069  0.2352  0.3457
 9272TIP3    H127755   0.620   3.388   0.196  0.1073 -0.1585  0.1160
 9272TIP3    H227756   0.487   3.352   0.133  1.6797 -2.1329 -2.1631
 9273TIP3   OH227757   4.333   6.927   4.060 -0.1219 -0.0291  0.3650
 9273TIP3    H127758   4.261   6.939   4.122  0.2909 -1.0617  1.0542
 9273TIP3    H227759   4.409   6.965   4.103 -0.0854  0.3288 -0.0158
 9274TIP3   OH227760   1.104   0.803   2.018 -0.1847  0.1744 -0.1093
 9274TIP3    H127761   1.049   0.858   2.074 -0.6197 -1.0435  0.6791
 9274TIP3    H227762   1.150   0.865   1.961 -1.2147  1.3032  0.2658
 9275TIP3   OH227763   2.840   6.215   4.804  0.1997 -0.2430 -0.1675
 9275TIP3    H127764   2.888   6.165   4.870 -1.2439 -3.0924 -1.2325
 9275TIP3    H227765   2.891   6.205   4.724 -1.1168 -1.6704 -0.8411
 9276TIP3   OH227766   4.678   4.721   4.406  0.0639 -0.2721 -0.0844
 9276TIP3    H127767   4.666   4.799   4.351  1.5159 -0.6885 -1.0393
 9276TIP3    H227768   4.740   4.748   4.473 -0.3161 -0.2860  0.2756
 9277TIP3   OH227769   7.094   0.149   2.611  0.0712 -0.1115  0.1693
 9277TIP3    H127770   7.043   0.070   2.626 -0.6428  0.1590 -0.7651
 9277TIP3    H227771   7.080   0.169   2.518 -0.3005  1.4674  0.5485
 9278TIP3   OH227772   5.675   0.308   3.623  0.2374  0.0432  0.4771
 9278TIP3    H127773   5.696   0.330   3.532 -0.4694  0.0987  0.3236
 9278TIP3    H227774   5.758   0.280   3.661 -0.0133 -2.8714 -1.0133
 9279TIP3   OH227775   7.255   0.084   6.876 -0.3245 -0.3305 -0.0306
 9279TIP3    H127776   7.324   0.149   6.866 -0.3777  0.1019  2.1348
 9279TIP3    H227777   7.174   0.133   6.861 -0.2620 -0.3329 -0.3697
 9280TIP3   OH227778   2.550   5.792   3.075 -0.6744 -0.1630  0.0256
 9280TIP3    H127779   2.615   5.848   3.118  0.2956 -1.8393  0.7877
 9280TIP3    H227780   2.590   5.769   2.991 -0.9152 -0.0363 -0.1252
 9281TIP3   OH227781   3.089   7.105   4.214  0.2250  0.0877  0.0173
 9281TIP3    H127782   3.011   7.159   4.206  1.2141  1.1987 -2.6023
 9281TIP3    H227783   3.057   7.022   4.249 -2.6967 -0.6647 -4.1172
 9282TIP3   OH227784   3.679   7.537   3.235 -0.1684 -0.3206  0.0545
 9282TIP3    H127785   3.596   7.585   3.226  0.3864  0.2926 -2.2358
 9282TIP3    H227786   3.717   7.539   3.147  2.3165 -0.5277  1.0846
 9283TIP3   OH227787   0.971   7.462   2.826 -0.2201  0.0456 -0.2315
 9283TIP3    H127788   0.994   7.528   2.760 -0.8093  0.9130  0.4237
 9283TIP3    H227789   0.888   7.425   2.795  0.9218 -1.5424 -1.4479
 9284TIP3   OH227790   8.343   1.870   5.643 -0.5221  0.0689  0.2109
 9284TIP3    H127791   8.313   1.806   5.708 -2.1963 -0.7249 -1.3083
 9284TIP3    H227792   8.391   1.818   5.578 -0.2834  0.6175 -0.0538
 9285TIP3   OH227793   1.406   2.502   1.172 -0.4915 -0.3131 -0.4324
 9285TIP3    H127794   1.314   2.528   1.173 -0.4927 -0.3123  1.8938
 9285TIP3    H227795   1.418   2.451   1.252  2.0453  1.5972  0.4832
 9286TIP3   OH227796   4.958   6.281   2.945 -0.2688  0.3279 -0.3601
 9286TIP3    H127797   4.941   6.286   3.039  0.3388 -0.3398 -0.2143
 9286TIP3    H227798   4.996   6.366   2.923  1.2449 -0.1539  0.3397
 9287TIP3   OH227799   6.156   0.167   3.278 -0.7112  0.5285  0.5152
 9287TIP3    H127800   6.095   0.095   3.260 -0.8609  1.2665 -2.1530
 9287TIP3    H227801   6.109   0.222   3.341 -0.9076 -1.2823  1.9865
 9288TIP3   OH227802   6.641   0.272   3.938  0.1162 -0.4237  0.1871
 9288TIP3    H127803   6.697   0.310   4.005 -0.1763  0.0486  0.1647
 9288TIP3    H227804   6.619   0.185   3.971  1.2406 -0.7929 -0.0205
 9289TIP3   OH227805   2.430   7.483   2.858 -0.1233  0.0492  0.1786
 9289TIP3    H127806   2.344   7.441   2.867  0.4672 -0.7420  2.2039
 9289TIP3    H227807   2.432   7.548   2.928 -0.2019  2.0830 -1.6561
 9290TIP3   OH227808   5.026   7.543   4.122 -0.4389  0.2355 -0.5719
 9290TIP3    H127809   5.035   7.637   4.139  0.7855  0.4335 -2.2418
 9290TIP3    H227810   4.940   7.535   4.080 -0.0577  0.7873 -1.4887
 9291TIP3   OH227811   2.484   5.158   4.873  0.0204  0.2748  0.9680
 9291TIP3    H127812   2.424   5.173   4.800 -1.2946 -3.1870  1.2633
 9291TIP3    H227813   2.570   5.154   4.833 -0.6106 -0.7741 -0.3101
 9292TIP3   OH227814   4.140   7.305   3.229 -0.4901  0.0458  0.1544
 9292TIP3    H127815   4.217   7.261   3.264  0.5846  2.2111  0.6018
 9292TIP3    H227816   4.169   7.339   3.144 -1.0830  0.4798  0.1245
 9293TIP3   OH227817   8.218   2.022   3.368  0.2721 -0.3910  0.2349
 9293TIP3    H127818   8.312   2.013   3.386  0.0672 -0.1590  1.5132
 9293TIP3    H227819   8.179   1.941   3.400 -0.2858  0.6309  2.2311
 9294TIP3   OH227820   3.293   5.618   1.527 -0.1424 -0.6977 -0.3843
 9294TIP3    H127821   3.331   5.666   1.601  0.4982 -0.4867 -0.8472
 9294TIP3    H227822   3.347   5.540   1.518 -0.0740 -0.6043 -0.7829
 9295TIP3   OH227823   5.475   6.702   2.478  0.2751 -0.1978 -0.0190
 9295TIP3    H127824   5.403   6.652   2.438 -0.7945  1.7580 -0.6085
 9295TIP3    H227825   5.554   6.656   2.449 -0.6835 -1.8646 -0.0976
 9296TIP3   OH227826   2.422   5.477   2.788  0.3396 -0.3261  0.8136
 9296TIP3    H127827   2.371   5.552   2.755  0.4813 -0.2636  0.7404
 9296TIP3    H227828   2.513   5.508   2.788  0.4107 -0.5429  0.6681
 9297TIP3   OH227829   8.184   0.153   2.281  0.6025 -0.1533  0.0432
 9297TIP3    H127830   8.110   0.154   2.220 -1.3521 -0.2778  2.3115
 9297TIP3    H227831   8.185   0.064   2.316  1.9080 -0.1836 -0.0469
 9298TIP3   OH227832   3.643   5.464   4.197 -0.0780 -0.0333  0.2614
 9298TIP3    H127833   3.639   5.373   4.168 -1.5714  0.0184  0.2976
 9298TIP3    H227834   3.713   5.502   4.144  2.1384 -1.7413  1.8118
 9299TIP3   OH227835   7.271   0.484   4.822 -0.4880 -0.4172  0.0124
 9299TIP3    H127836   7.237   0.403   4.861 -0.8879  0.5339  1.7287
 9299TIP3    H227837   7.198   0.545   4.827  0.7215  0.9477  1.5440
 9300TIP3   OH227838   4.153   7.281   1.784  0.3742 -0.1704 -0.1379
 9300TIP3    H127839   4.152   7.295   1.690 -1.0300 -2.2985 -0.4726
 9300TIP3    H227840   4.096   7.349   1.819 -0.2345 -0.2585 -0.9580
 9301TIP3   OH227841   4.083   7.059   3.540  0.1968 -0.2386  0.1596
 9301TIP3    H127842   4.099   6.984   3.598  0.9237  0.5811  1.0447
 9301TIP3    H227843   4.061   7.131   3.599  0.3668  0.4651 -0.6220
 9302TIP3   OH227844   1.847   6.855   5.669 -0.3080  0.1594  0.0951
 9302TIP3    H127845   1.843   6.819   5.580  0.3902 -0.5730  0.3560
 9302TIP3    H227846   1.755   6.864   5.694 -0.5110  0.0663 -0.5829
 9303TIP3   OH227847   4.581   6.823   3.892 -0.4713 -0.2144 -0.0016
 9303TIP3    H127848   4.494   6.824   3.933 -0.3394  0.0269  0.2722
 9303TIP3    H227849   4.635   6.773   3.952 -0.2792  0.1344  0.1161
 9304TIP3   OH227850   2.825   6.369   2.784 -0.3102  0.0734  0.5739
 9304TIP3    H127851   2.811   6.464   2.783  2.4188  0.5369 -1.7969
 9304TIP3    H227852   2.763   6.335   2.719 -1.3480  0.2035  1.4828
 9305TIP3   OH227853   2.892   6.955   3.221 -0.3178 -0.5716 -0.3196
 9305TIP3    H127854   2.874   6.877   3.170  0.7508 -1.5924  0.8460
 9305TIP3    H227855   2.850   6.939   3.306 -0.5369  0.3287 -0.2534
 9306TIP3   OH227856   2.779   5.243   3.398 -0.1338 -0.5206 -0.2069
 9306TIP3    H127857   2.858   5.219   3.351 -0.4231  1.2548 -1.6259
 9306TIP3    H227858   2.790   5.335   3.420 -1.9735 -0.1187 -0.8156
 9307TIP3   OH227859   4.260   5.932   2.772 -0.0490 -0.0655 -0.3163
 9307TIP3    H127860   4.350   5.957   2.796 -0.1657  0.1879 -0.1421
 9307TIP3    H227861   4.213   5.929   2.855 -0.0800 -0.6876 -0.3581
 9308TIP3   OH227862   2.225   6.275   2.788  0.0417 -0.6214  0.6207
 9308TIP3    H127863   2.215   6.184   2.759 -0.2944 -0.3474 -0.1366
 9308TIP3    H227864   2.206   6.327   2.710 -0.2463  0.1180  1.1833
 9309TIP3   OH227865   7.662   1.104   3.285  0.2670  0.3827 -0.5409
 9309TIP3    H127866   7.731   1.113   3.350 -0.4161  1.1065  0.0971
 9309TIP3    H227867   7.663   1.011   3.261 -0.9456 -0.3672  2.1373
 9310TIP3   OH227868   3.759   6.574   2.762  0.0365 -0.7953 -0.7574
 9310TIP3    H127869   3.687   6.584   2.824  0.7567  0.8338 -0.1544
 9310TIP3    H227870   3.740   6.635   2.692  0.9565 -0.1711 -0.4725
 9311TIP3   OH227871   1.709   7.718   3.719  0.4689  0.1622  0.3040
 9311TIP3    H127872   1.699   7.807   3.687  3.0918  0.2939 -0.2960
 9311TIP3    H227873   1.642   7.709   3.787 -0.2271  2.3827 -0.0445
 9312TIP3   OH227874   1.472   4.202   3.070 -0.1395  0.2192  0.5986
 9312TIP3    H127875   1.473   4.180   2.977 -0.9152  1.6028  0.2440
 9312TIP3    H227876   1.400   4.150   3.106 -0.0814 -0.0341  0.3534
 9313TIP3   OH227877   3.691   4.690   4.102 -0.6479  0.1639  0.1774
 9313TIP3    H127878   3.708   4.760   4.166 -1.7245 -0.6529  1.3857
 9313TIP3    H227879   3.727   4.724   4.020 -1.8975  2.5207  0.5424
 9314TIP3   OH227880   4.523   5.607   4.608 -0.2702  0.1644 -0.2410
 9314TIP3    H127881   4.585   5.623   4.680  0.3005 -1.4240 -0.3730
 9314TIP3    H227882   4.566   5.643   4.531 -0.0278  0.0946 -0.1381
 9315TIP3   OH227883   5.192   6.230   1.543  0.4015 -0.6486 -0.1243
 9315TIP3    H127884   5.222   6.321   1.532  1.3633 -0.8565  0.7852
 9315TIP3    H227885   5.159   6.226   1.633 -0.4047 -0.9988 -0.4223
 9316TIP3   OH227886   3.256   7.098   2.391  0.1862 -0.2746  0.8269
 9316TIP3    H127887   3.209   7.143   2.321  0.4013  1.5879  1.8381
 9316TIP3    H227888   3.194   7.097   2.465  0.5021 -0.8823  1.0885
 9317TIP3   OH227889   3.712   3.782   3.039  0.6985 -0.8764 -0.0492
 9317TIP3    H127890   3.644   3.721   3.011 -0.7530  0.1386  1.1994
 9317TIP3    H227891   3.665   3.863   3.061  1.9879 -0.9828  3.3446
 9318TIP3   OH227892   2.889   6.066   2.117  0.1596 -0.0635  0.0683
 9318TIP3    H127893   2.901   6.147   2.067  0.1547  0.0911  0.3140
 9318TIP3    H227894   2.805   6.078   2.161 -0.5998 -0.8776 -1.1525
 9319TIP3   OH227895   4.510   5.999   3.127 -0.0220 -0.1854  0.1679
 9319TIP3    H127896   4.587   6.053   3.143  0.1297 -0.4977  0.5086
 9319TIP3    H227897   4.468   5.990   3.213 -0.4905  0.0603 -0.0332
 9320TIP3   OH227898   3.272   6.928   4.906 -0.6742  0.1163  0.7806
 9320TIP3    H127899   3.356   6.972   4.913 -1.6006  2.0418  0.0509
 9320TIP3    H227900   3.294   6.835   4.911  1.3649  0.6174  1.7426
 9321TIP3   OH227901   7.567   1.829   4.890  0.7541  0.0161  0.4549
 9321TIP3    H127902   7.573   1.779   4.809 -0.4719  0.3605  0.1456
 9321TIP3    H227903   7.650   1.813   4.934  2.0566  1.0706 -1.5770
 9322TIP3   OH227904   4.627   4.489   4.937 -0.0839 -0.7580 -0.3217
 9322TIP3    H127905   4.550   4.431   4.930  0.6184 -1.9525  1.4350
 9322TIP3    H227906   4.669   4.482   4.851 -0.9118 -1.5749 -0.6808
 9323TIP3   OH227907   0.275   0.604   4.299  0.3013 -0.1265  0.7589
 9323TIP3    H127908   0.327   0.535   4.340  1.8470  1.6076  1.7702
 9323TIP3    H227909   0.249   0.661   4.371 -1.6169 -0.0296  0.0357
 9324TIP3   OH227910   4.515   6.345   4.744 -0.0153  0.4946 -0.1345
 9324TIP3    H127911   4.602   6.341   4.783  1.0043  0.0917 -2.3508
 9324TIP3    H227912   4.507   6.264   4.694 -0.9409  1.3373 -1.4022
 9325TIP3   OH227913   2.742   5.116   4.773 -0.1046 -0.3229 -0.7147
 9325TIP3    H127914   2.705   5.040   4.728  0.3706  0.0584 -1.7664
 9325TIP3    H227915   2.832   5.091   4.793  0.6117  0.6308 -2.6873
 9326TIP3   OH227916   4.082   7.665   3.031  0.9174  0.6755  0.3574
 9326TIP3    H127917   4.140   7.735   2.999  2.1803 -0.8513 -0.7804
 9326TIP3    H227918   4.111   7.648   3.120  1.0016  1.1894  0.4289
 9327TIP3   OH227919   2.620   6.063   4.242 -0.2441  0.0568 -0.2817
 9327TIP3    H127920   2.620   6.159   4.248  0.8548  0.0033  0.9478
 9327TIP3    H227921   2.589   6.034   4.328 -1.3910 -0.6928 -0.9407
 9328TIP3   OH227922   7.792   0.078   3.734  0.1428  0.1580  0.0117
 9328TIP3    H127923   7.840   0.026   3.670  0.5476  0.5835 -0.0372
 9328TIP3    H227924   7.702   0.080   3.702  0.5259  1.1418 -1.0438
 9329TIP3   OH227925   8.068   1.624   1.791  0.3544  0.1538 -0.0549
 9329TIP3    H127926   8.110   1.701   1.752 -1.8737  1.8408  0.7683
 9329TIP3    H227927   8.034   1.575   1.716  1.1675  0.3410 -0.5499
 9330TIP3   OH227928   8.164   1.143   2.678  0.0934 -0.2667  0.2222
 9330TIP3    H127929   8.172   1.202   2.603 -0.3534  0.7303  0.9454
 9330TIP3    H227930   8.243   1.160   2.730 -0.6550  0.6627  1.0925
 9331TIP3   OH227931   7.353   2.016   2.910  0.0722 -0.0532 -0.7311
 9331TIP3    H127932   7.435   1.972   2.888 -1.7074 -3.0020 -1.6771
 9331TIP3    H227933   7.359   2.031   3.005  1.0610 -1.6209 -0.5316
 9332TIP3   OH227934   0.565   0.856   4.186  0.1827 -0.0294  0.2602
 9332TIP3    H127935   0.488   0.894   4.143 -0.5292 -1.2531  0.4201
 9332TIP3    H227936   0.535   0.833   4.273  0.9175  0.0895  0.5486
 9333TIP3   OH227937   4.389   6.669   3.998  0.8640 -0.5370  0.7765
 9333TIP3    H127938   4.358   6.757   4.022  0.0799  0.1162 -2.3926
 9333TIP3    H227939   4.309   6.617   3.990  1.1594 -0.9080  0.2470
 9334TIP3   OH227940   5.468   7.736   4.134 -0.2098 -0.6403 -0.2153
 9334TIP3    H127941   5.476   7.831   4.130 -2.3583 -0.3920  0.6709
 9334TIP3    H227942   5.394   7.715   4.078  0.4873 -1.8527 -0.7160
 9335TIP3   OH227943   7.249   1.890   4.025 -0.2693  0.3476  0.2134
 9335TIP3    H127944   7.281   1.933   4.105 -0.2736  1.1107 -0.1921
 9335TIP3    H227945   7.190   1.954   3.986  0.1747  0.2060 -0.7014
 9336TIP3   OH227946   6.393   7.265   4.247 -0.2904 -0.1487 -0.4261
 9336TIP3    H127947   6.407   7.358   4.227  1.4532 -0.3569 -0.2774
 9336TIP3    H227948   6.412   7.220   4.165  1.1635 -0.5454  0.1112
 9337TIP3   OH227949   0.038   0.039   3.431  0.5758  0.7975 -0.0384
 9337TIP3    H127950   0.037   0.047   3.336  1.0792  2.2573  0.0607
 9337TIP3    H227951   0.124   0.003   3.451  0.1320 -0.3578 -0.1867
 9338TIP3   OH227952   1.163   0.615   3.835  0.1446 -0.5623  0.3366
 9338TIP3    H127953   1.207   0.618   3.919 -1.6891 -0.2308  1.3143
 9338TIP3    H227954   1.071   0.635   3.855 -0.3646 -0.7319 -1.6934
 9339TIP3   OH227955   3.903   7.594   5.393 -0.1161  0.3181 -0.4331
 9339TIP3    H127956   3.899   7.649   5.471  0.3936 -0.0625 -0.1313
 9339TIP3    H227957   3.844   7.521   5.412 -0.6703  0.6805 -0.7674
 9340TIP3   OH227958   3.358   4.826   2.812 -0.1427  0.4495 -0.2876
 9340TIP3    H127959   3.369   4.859   2.723  1.5426  1.7060  0.3531
 9340TIP3    H227960   3.279   4.773   2.809  1.5317 -2.0319 -3.2544
 9341TIP3   OH227961   5.673   7.399   0.939 -0.1569  0.6429 -0.3244
 9341TIP3    H127962   5.710   7.325   0.987  0.2924  0.1884 -1.3617
 9341TIP3    H227963   5.666   7.368   0.849 -1.1839  1.4196 -0.5247
 9342TIP3   OH227964   5.943   1.445   2.020  0.4941 -0.0383  0.7736
 9342TIP3    H127965   5.870   1.453   1.959  1.0550  1.5756  0.2968
 9342TIP3    H227966   5.902   1.437   2.106 -0.2661 -0.9683  0.3370
 9343TIP3   OH227967   1.617   0.631   5.148 -0.0176 -0.6269 -0.3039
 9343TIP3    H127968   1.528   0.655   5.173  0.4091  1.0339 -0.2952
 9343TIP3    H227969   1.659   0.605   5.230 -0.3295 -0.9002 -0.2276
 9344TIP3   OH227970   4.815   5.072   4.377  0.1546  0.1354 -0.8907
 9344TIP3    H127971   4.764   5.076   4.458  0.3469 -1.6116 -0.6612
 9344TIP3    H227972   4.869   5.151   4.379  0.5210 -0.1242  0.9385
 9345TIP3   OH227973   0.915   3.170   2.179  0.5690 -0.2117  0.7465
 9345TIP3    H127974   0.891   3.255   2.141  0.9320 -0.4874 -0.1058
 9345TIP3    H227975   0.957   3.123   2.107 -1.9231 -2.1000  0.4654
 9346TIP3   OH227976   1.757   1.136   4.010 -0.4896 -0.0417  0.1277
 9346TIP3    H127977   1.782   1.221   4.046 -0.7285 -0.7307  2.0089
 9346TIP3    H227978   1.824   1.117   3.945  0.7867  0.6357  1.2020
 9347TIP3   OH227979   6.530   7.145   1.718  0.2258 -0.0490 -0.4317
 9347TIP3    H127980   6.524   7.203   1.642  0.1071 -1.0963 -1.2344
 9347TIP3    H227981   6.455   7.086   1.709 -0.2190  0.3002  0.9096
 9348TIP3   OH227982   6.542   0.500   2.992 -0.3025 -0.0096 -0.2336
 9348TIP3    H127983   6.487   0.457   3.057 -0.4215 -0.9033 -0.9034
 9348TIP3    H227984   6.487   0.504   2.913  0.8908 -1.7580 -1.1838
 9349TIP3   OH227985   6.214   7.971   5.272 -0.5631 -0.2130  0.1493
 9349TIP3    H127986   6.151   7.958   5.202 -0.2181  0.0144 -0.2088
 9349TIP3    H227987   6.172   7.936   5.350 -1.0122 -0.3229 -0.1446
 9350TIP3   OH227988   5.666   6.277   2.185 -0.5087 -0.9238  0.1105
 9350TIP3    H127989   5.718   6.358   2.190 -0.3618 -1.0303  0.3169
 9350TIP3    H227990   5.599   6.287   2.253 -1.5263 -0.2472 -0.9733
 9351TIP3   OH227991   5.115   7.339   3.953  0.1129  0.2802 -0.3725
 9351TIP3    H127992   5.119   7.402   4.025  1.2951  1.3918 -1.3723
 9351TIP3    H227993   5.064   7.383   3.885 -1.5535 -1.0185  0.0148
 9352TIP3   OH227994   5.544   7.577   2.992  0.0814  0.5713  0.0848
 9352TIP3    H127995   5.519   7.545   2.906  1.0219 -2.0914  0.7694
 9352TIP3    H227996   5.464   7.617   3.027 -1.6867 -2.7514 -0.0252
 9353TIP3   OH227997   7.611   0.451   1.977 -0.0524 -0.1511  0.5557
 9353TIP3    H127998   7.608   0.473   1.884  1.8260 -1.2630  0.2085
 9353TIP3    H227999   7.646   0.362   1.980  0.3973  0.0602  2.3615
 9354TIP3   OH228000   8.448   0.739   2.562  0.0157 -0.0739 -0.0559
 9354TIP3    H128001   8.386   0.791   2.512  1.3270 -0.2949 -1.9937
 9354TIP3    H228002   8.516   0.801   2.588  0.8434 -0.5138 -1.1237
 9355TIP3   OH228003   7.399   1.408   3.311  0.2667  0.0595 -0.5693
 9355TIP3    H128004   7.397   1.320   3.350 -0.3106 -0.0830 -0.9190
 9355TIP3    H228005   7.389   1.467   3.385 -1.1256 -0.2193 -0.5109
 9356TIP3   OH228006   7.945   0.966   2.735 -0.0414 -0.1891  0.0361
 9356TIP3    H128007   8.025   1.018   2.726  0.8236 -1.5876 -0.5524
 9356TIP3    H228008   7.892   1.014   2.799  0.5583  1.6016 -0.7750
 9357TIP3   OH228009   0.399   0.592   5.135 -0.0437  0.1300  0.3692
 9357TIP3    H128010   0.335   0.662   5.123 -0.6903 -0.2106  1.7706
 9357TIP3    H228011   0.350   0.511   5.123  0.4585 -0.1133 -0.0893
 9358TIP3   OH228012   5.745   6.480   1.558  0.0312  0.4178 -0.0201
 9358TIP3    H128013   5.708   6.567   1.544 -1.0268  0.1144  0.8396
 9358TIP3    H228014   5.773   6.480   1.649 -0.4660 -0.3177  0.1382
 9359TIP3   OH228015   7.046   2.063   3.971 -0.0010  0.6540 -0.6755
 9359TIP3    H128016   7.023   2.032   3.884  0.0896 -0.9453 -0.1467
 9359TIP3    H228017   7.010   2.151   3.975 -0.4198  0.5685 -2.1534
 9360TIP3   OH228018   8.355   0.975   4.424  0.2616 -0.1475 -0.2258
 9360TIP3    H128019   8.369   0.887   4.459 -0.1866 -0.3172 -0.4725
 9360TIP3    H228020   8.271   1.003   4.462  1.3114  0.9380  1.4062
 9361TIP3   OH228021   1.964   1.372   4.127  0.1033  0.3462 -0.0058
 9361TIP3    H128022   1.983   1.386   4.034 -1.0426 -0.0962 -0.3185
 9361TIP3    H228023   2.049   1.364   4.168  0.6200  0.4220 -1.0486
 9362TIP3   OH228024   4.683   6.783   3.651 -0.1526  0.4788  0.2245
 9362TIP3    H128025   4.653   6.810   3.738 -2.7134  0.3693 -0.5747
 9362TIP3    H228026   4.685   6.688   3.655  0.7736  0.5074  0.4877
 9363TIP3   OH228027   4.803   7.013   5.707  0.5571  0.4966 -0.6792
 9363TIP3    H128028   4.713   7.035   5.734  0.5576 -0.1665 -0.1134
 9363TIP3    H228029   4.792   6.948   5.638  0.5869  1.2316 -1.3893
 9364TIP3   OH228030   6.765   7.764   3.577 -0.2743  0.1057 -0.9573
 9364TIP3    H128031   6.756   7.672   3.604  3.2915  0.6278  2.7182
 9364TIP3    H228032   6.696   7.810   3.624 -1.5878 -0.5878 -2.2010
 9365TIP3   OH228033   7.509   7.916   4.037  0.1603 -0.0783  0.1893
 9365TIP3    H128034   7.464   7.948   3.959 -1.1610  0.4863  1.1630
 9365TIP3    H228035   7.512   7.821   4.026  1.0949  0.0878 -1.1193
 9366TIP3   OH228036   7.174   0.110   2.244  0.2002  0.3281 -0.1944
 9366TIP3    H128037   7.263   0.077   2.258  0.2921  1.0220  0.9258
 9366TIP3    H228038   7.123   0.033   2.221  1.0693 -0.0939 -0.7297
 9367TIP3   OH228039   5.849   7.984   1.775 -0.5267  0.0505  0.2276
 9367TIP3    H128040   5.939   8.006   1.801  0.0939 -3.2434  1.1916
 9367TIP3    H228041   5.831   8.040   1.700  1.7649  1.8775  0.9788
 9368TIP3   OH228042   5.541   7.606   3.826 -0.5083  0.1328  0.5296
 9368TIP3    H128043   5.462   7.554   3.835 -0.8918  0.7396  0.6875
 9368TIP3    H228044   5.514   7.695   3.849 -0.6711  1.0520 -2.8665
 9369TIP3   OH228045   0.095   1.775   0.861 -0.1625  0.4767 -0.3821
 9369TIP3    H128046   0.129   1.732   0.939  2.1559 -0.6838 -1.9560
 9369TIP3    H228047   0.008   1.736   0.848 -0.1557 -0.0416  1.0588
 9370TIP3   OH228048   3.506   5.983   2.475  1.2066  0.2312 -0.3614
 9370TIP3    H128049   3.541   5.975   2.564  1.5080 -3.0806 -0.7275
 9370TIP3    H228050   3.583   5.989   2.419  1.0705 -0.3147 -0.6112
 9371TIP3   OH228051   1.271   0.899   2.764  0.0686 -0.0318 -0.1841
 9371TIP3    H128052   1.232   0.958   2.828 -1.3631 -1.8086  0.6214
 9371TIP3    H228053   1.342   0.856   2.811 -0.1552 -0.3879 -0.1681
 9372TIP3   OH228054   6.618   4.941   3.025  0.2419  0.4634  0.4950
 9372TIP3    H128055   6.540   4.895   3.057  1.2032 -1.5218  0.0224
 9372TIP3    H228056   6.653   4.985   3.102  1.3457 -2.5697  1.7973
 9373TIP3   OH228057   3.726   5.963   2.306 -0.1013  0.0672  0.2786
 9373TIP3    H128058   3.696   5.950   2.216  0.9341  0.9484 -0.2084
 9373TIP3    H228059   3.792   5.895   2.319  0.4556  0.5524  0.0280
 9374TIP3   OH228060   7.487   0.355   2.242  0.0568 -0.2444  0.0740
 9374TIP3    H128061   7.405   0.368   2.194  0.5345  0.4460 -0.5451
 9374TIP3    H228062   7.555   0.387   2.184  0.6539  0.4298  1.1248
 9375TIP3   OH228063   5.200   5.035   0.955 -0.4658 -0.1188  0.3978
 9375TIP3    H128064   5.241   4.962   1.001  0.1357  0.2172  0.3956
 9375TIP3    H228065   5.248   5.112   0.983 -0.8553  0.2339  0.1081
 9376TIP3   OH228066   5.157   0.829   2.897  0.2147 -0.4339  0.2477
 9376TIP3    H128067   5.224   0.773   2.938 -0.8001 -1.3420  0.6982
 9376TIP3    H228068   5.179   0.828   2.804  0.4550 -1.2418  0.3092
 9377TIP3   OH228069   5.832   5.876   2.300  0.2670  0.1395 -0.1688
 9377TIP3    H128070   5.916   5.909   2.268 -1.2059  1.4836 -2.7874
 9377TIP3    H228071   5.842   5.874   2.396  1.7864  4.5236 -0.1148
 9378TIP3   OH228072   5.926   0.308   2.749  0.0007 -0.1874 -0.3483
 9378TIP3    H128073   5.904   0.379   2.688 -2.2624 -0.4320  0.1435
 9378TIP3    H228074   5.966   0.241   2.694  0.2657  0.6093 -1.1463
 9379TIP3   OH228075   4.992   7.103   4.032 -0.9524 -0.4386  0.2655
 9379TIP3    H128076   4.963   7.076   3.945  2.6419  1.7441 -1.7570
 9379TIP3    H228077   5.039   7.185   4.017  0.5398 -0.4746  4.1382
 9380TIP3   OH228078   3.240   7.903   4.243  0.5848  0.2487 -0.1136
 9380TIP3    H128079   3.201   7.913   4.156  0.2223 -0.7461 -0.0782
 9380TIP3    H228080   3.171   7.931   4.303 -0.4598 -2.3869 -0.0113
 9381TIP3   OH228081   6.223   5.770   4.273 -0.1621  0.6610 -0.6117
 9381TIP3    H128082   6.178   5.733   4.197  1.2971 -1.3090 -0.5314
 9381TIP3    H228083   6.295   5.710   4.291 -0.1613  1.3649  2.0256
 9382TIP3   OH228084   5.438   7.083   2.149  0.0398  0.5771 -0.3367
 9382TIP3    H128085   5.506   7.105   2.213 -0.2263  2.0523 -0.5535
 9382TIP3    H228086   5.384   7.161   2.143 -2.2523 -0.9053  0.4993
 9383TIP3   OH228087   4.682   7.947   3.984 -0.4960  0.0841  0.3516
 9383TIP3    H128088   4.662   7.895   3.906  2.1300  1.7704 -1.5704
 9383TIP3    H228089   4.601   7.994   4.003 -0.9961  0.2082 -1.8773
 9384TIP3   OH228090   3.009   7.090   2.876 -0.2956  0.6779 -0.4152
 9384TIP3    H128091   3.034   7.003   2.908 -1.8020  0.0456 -0.8952
 9384TIP3    H228092   3.083   7.146   2.897 -0.4387 -0.1363  2.3875
 9385TIP3   OH228093   3.263   6.456   3.690 -0.6491 -1.0603  0.1843
 9385TIP3    H128094   3.301   6.544   3.684 -2.8923 -0.1225 -1.0889
 9385TIP3    H228095   3.297   6.410   3.614 -0.1922 -1.0046  0.3524
 9386TIP3   OH228096   6.306   0.695   5.343 -0.4363  0.6106 -0.6485
 9386TIP3    H128097   6.395   0.663   5.326 -0.6881 -0.5590  0.1949
 9386TIP3    H228098   6.293   0.681   5.436 -0.5966  3.1467 -0.2564
 9387TIP3   OH228099   3.081   7.703   2.256 -0.0110  0.6603 -0.4423
 9387TIP3    H128100   3.116   7.776   2.308 -0.4348  0.3238  0.3229
 9387TIP3    H228101   2.991   7.693   2.288  0.4175 -0.9659  0.2844
 9388TIP3   OH228102   4.348   7.496   2.756 -0.7201 -0.1461 -0.1796
 9388TIP3    H128103   4.316   7.475   2.844 -0.4443  0.6344  0.1145
 9388TIP3    H228104   4.269   7.520   2.707 -0.6206  1.8494  0.5664
 9389TIP3   OH228105   5.961   6.395   3.765 -0.3233  0.2734  0.2211
 9389TIP3    H128106   5.997   6.442   3.841 -0.5323  0.7766  0.0072
 9389TIP3    H228107   5.866   6.399   3.777 -0.4697  3.0356 -1.6692
 9390TIP3   OH228108   8.037   2.388   3.517 -0.0421 -0.0093  0.5129
 9390TIP3    H128109   8.010   2.330   3.446  0.2385  0.7558 -0.2181
 9390TIP3    H228110   8.014   2.340   3.597  0.5104 -1.2731 -0.0824
 9391TIP3   OH228111   5.349   7.159   0.669 -0.1983  0.1170  0.1695
 9391TIP3    H128112   5.351   7.137   0.576  0.5156  1.2729 -0.1093
 9391TIP3    H228113   5.347   7.075   0.714 -0.0101 -0.4594 -0.8865
 9392TIP3   OH228114   5.358   5.350   4.010  0.7119  0.1329 -0.0323
 9392TIP3    H128115   5.429   5.291   4.037  1.9266  1.7429  0.3331
 9392TIP3    H228116   5.379   5.373   3.919  0.9162  1.0068  0.2386
 9393TIP3   OH228117   6.670   7.491   3.925  0.3728 -0.1476 -0.3591
 9393TIP3    H128118   6.719   7.531   3.997 -1.4972  0.4934  0.6123
 9393TIP3    H228119   6.664   7.399   3.948  0.2152 -0.0343  0.0733
 9394TIP3   OH228120   3.560   6.220   2.909 -0.0200  0.6570  0.0442
 9394TIP3    H128121   3.505   6.240   2.985  0.9715  0.1887  0.9147
 9394TIP3    H228122   3.587   6.129   2.922 -0.2479  0.4141 -1.1423
 9395TIP3   OH228123   5.529   7.094   4.055 -0.2782  0.3245  0.2939
 9395TIP3    H128124   5.443   7.061   4.031 -0.8461  0.8716  1.5347
 9395TIP3    H228125   5.531   7.184   4.021  0.3651 -0.1809 -1.0193
 9396TIP3   OH228126   5.353   7.457   3.411 -0.0052  0.2352 -0.2936
 9396TIP3    H128127   5.359   7.361   3.416 -1.4194  0.1558  0.1624
 9396TIP3    H228128   5.439   7.488   3.438  0.0469 -0.8635  0.8377
 9397TIP3   OH228129   0.332   1.302   5.691  0.2241  0.3461 -0.4091
 9397TIP3    H128130   0.291   1.350   5.764 -0.5178  0.3482 -0.8217
 9397TIP3    H228131   0.399   1.248   5.733 -2.5827 -2.3918  0.7488
 9398TIP3   OH228132   4.443   7.842   2.516  0.3540  0.2749 -0.1240
 9398TIP3    H128133   4.524   7.846   2.566  0.3781  0.7900 -0.2003
 9398TIP3    H228134   4.374   7.859   2.580  0.2479 -0.8343  0.0741
 9399TIP3   OH228135   5.953   0.236   3.758  0.7249 -0.4384 -0.6533
 9399TIP3    H128136   5.955   0.212   3.851  1.1931  0.1763 -0.4961
 9399TIP3    H228137   6.014   0.174   3.717  0.3230 -0.8760 -0.5916
 9400TIP3   OH228138   2.722   7.115   2.886  0.2482  0.5855 -0.1331
 9400TIP3    H128139   2.815   7.108   2.903 -0.3303 -0.9622  2.6937
 9400TIP3    H228140   2.702   7.208   2.900  1.4238  0.9997 -1.1624
 9401TIP3   OH228141   8.469   0.380   3.449  0.6135 -0.3364 -0.2971
 9401TIP3    H128142   8.467   0.333   3.365  0.8177  1.3106 -1.2593
 9401TIP3    H228143   8.559   0.372   3.478  0.0292 -2.9041  0.9729
 9402TIP3   OH228144   7.424   6.962   2.485 -0.3744  0.3337 -0.0953
 9402TIP3    H128145   7.389   6.913   2.560  0.1379  1.4317  0.8830
 9402TIP3    H228146   7.348   6.978   2.429 -0.3199 -2.8775 -1.2241
 9403TIP3   OH228147   4.212   6.322   1.969  0.1026  0.0959  0.4160
 9403TIP3    H128148   4.244   6.409   1.994 -1.1953  0.8627 -0.5690
 9403TIP3    H228149   4.278   6.289   1.908 -0.4367  1.2571 -0.8189
 9404TIP3   OH228150   7.838   2.372   2.624 -0.3492  0.5117  0.3492
 9404TIP3    H128151   7.858   2.420   2.704  2.3374  0.0232  0.0186
 9404TIP3    H228152   7.882   2.421   2.555 -0.2072 -0.6896 -0.4227
 9405TIP3   OH228153   0.748   0.873   2.509  0.4656  0.0790  0.1202
 9405TIP3    H128154   0.678   0.815   2.478  0.8003  0.1751 -0.8115
 9405TIP3    H228155   0.829   0.826   2.489  0.6627 -0.3234  1.7839
 9406TIP3   OH228156   7.089   1.217   3.968 -0.8222 -0.4067 -0.3303
 9406TIP3    H128157   7.022   1.258   3.914 -0.7377  0.0111 -0.1188
 9406TIP3    H228158   7.171   1.256   3.939 -0.5068 -1.9202 -1.5400
 9407TIP3   OH228159   4.341   7.412   2.378 -0.1972  0.3822 -0.2377
 9407TIP3    H128160   4.350   7.324   2.415  0.0950  0.9143  0.9657
 9407TIP3    H228161   4.258   7.444   2.413 -0.0460  0.7948 -0.2647
 9408TIP3   OH228162   5.447   6.268   3.492 -0.4384 -0.4146 -0.3213
 9408TIP3    H128163   5.391   6.213   3.547  1.7674 -3.7493 -1.2570
 9408TIP3    H228164   5.387   6.308   3.430 -2.1941 -1.3563  0.7117
 9409TIP3   OH228165   6.715   7.524   0.819  0.1226  0.2631  0.2703
 9409TIP3    H128166   6.749   7.435   0.816 -0.3535  0.0644  0.6285
 9409TIP3    H228167   6.778   7.573   0.872  0.2117  0.0617  0.3489
 9410TIP3   OH228168   4.874   6.944   2.366  0.1753  0.4940  0.6148
 9410TIP3    H128169   4.810   7.008   2.334 -0.0856  0.1134  0.3729
 9410TIP3    H228170   4.951   6.958   2.311 -0.5915 -0.7900 -0.8197
 9411TIP3   OH228171   5.092   7.803   2.692  0.1549  0.4806 -0.0440
 9411TIP3    H128172   5.145   7.740   2.742 -1.3472 -0.0600  0.8925
 9411TIP3    H228173   5.076   7.760   2.608 -0.5729 -0.2412  0.4645
 9412TIP3   OH228174   4.635   6.489   2.338 -0.4225  0.1083  0.5206
 9412TIP3    H128175   4.605   6.580   2.344  0.3998  0.4130  0.0425
 9412TIP3    H228176   4.646   6.462   2.429 -1.0994  0.3355  0.6796
 9413TIP3   OH228177   8.287   0.061   0.681  0.0462  1.2303  0.4121
 9413TIP3    H128178   8.198   0.093   0.696 -1.0353 -0.4529 -1.9888
 9413TIP3    H228179   8.296  -0.013   0.741 -0.5029  0.8714  0.0590
 9414TIP3   OH228180   7.951   1.210   5.253  0.4847  0.0171  0.4674
 9414TIP3    H128181   7.986   1.286   5.207 -0.6969  0.0852 -0.3454
 9414TIP3    H228182   7.875   1.243   5.301  0.1171 -0.5965  0.3162
 9415TIP3   OH228183   1.040  -0.007   1.029 -0.2856 -0.0146  0.7065
 9415TIP3    H128184   1.074  -0.021   0.941 -1.5468  1.3650 -0.0116
 9415TIP3    H228185   1.097   0.060   1.067 -0.9991  0.8778  0.2036
 9416TIP3   OH228186   5.812   1.687   1.281 -0.4287 -0.0381  0.3466
 9416TIP3    H128187   5.746   1.751   1.254  1.6165  1.8148 -0.3822
 9416TIP3    H228188   5.823   1.703   1.375 -2.3244 -1.6219  0.8750
 9417TIP3   OH228189   6.122   7.002   3.050  0.4966 -0.4901 -0.5114
 9417TIP3    H128190   6.088   6.918   3.020  0.4532 -0.3992 -0.7223
 9417TIP3    H228191   6.183   6.980   3.120 -0.8665 -0.5817  0.6597
 9418TIP3   OH228192   7.696   2.715   3.893  0.1250  0.3069 -0.0528
 9418TIP3    H128193   7.635   2.748   3.828 -0.5240 -0.3214  0.2219
 9418TIP3    H228194   7.742   2.792   3.925 -1.3984  0.9673  0.6244
 9419TIP3   OH228195   0.949   2.469   1.738 -0.1468 -0.3047 -0.3481
 9419TIP3    H128196   0.886   2.523   1.786 -0.6627 -2.5793  1.6151
 9419TIP3    H228197   0.897   2.425   1.671  0.1071  0.8813 -1.3413
 9420TIP3   OH228198   7.664   0.882   1.680 -0.1824 -0.0972 -0.4834
 9420TIP3    H128199   7.642   0.806   1.734 -1.6525  0.4246 -0.3200
 9420TIP3    H228200   7.629   0.861   1.594 -0.7101  0.4423 -0.4040
 9421TIP3   OH228201   4.926   8.035   0.658  0.1117  0.1233  0.1479
 9421TIP3    H128202   4.915   7.950   0.700  0.0432 -0.5181 -1.1428
 9421TIP3    H228203   4.994   8.020   0.592  0.9055  1.3499  0.6658
 9422TIP3   OH228204   0.464   0.829   4.433 -0.1134  0.4299  0.3919
 9422TIP3    H128205   0.373   0.847   4.410 -0.4005 -0.7747  0.5694
 9422TIP3    H228206   0.464   0.820   4.528  0.5086  2.1657  0.5785
 9423TIP3   OH228207   1.415   0.625   3.148 -0.4181  0.0110 -0.4266
 9423TIP3    H128208   1.487   0.566   3.168 -0.4887  0.1914  0.3687
 9423TIP3    H228209   1.337   0.580   3.180 -0.5655  0.1867 -0.5332
 9424TIP3   OH228210   5.666   7.377   3.124  0.2047 -0.2415 -0.6858
 9424TIP3    H128211   5.625   7.448   3.074 -1.6667  0.1227  1.2980
 9424TIP3    H228212   5.638   7.297   3.080 -1.3820  0.0799 -0.2934
 9425TIP3   OH228213   4.496   7.765   4.919  0.2548 -0.1379 -0.4922
 9425TIP3    H128214   4.573   7.822   4.919  0.9938 -1.1143 -2.5431
 9425TIP3    H228215   4.507   7.708   4.843 -1.9564 -1.0337 -0.1938
 9426TIP3   OH228216   6.267   7.115   2.367 -0.4977 -0.3110  0.5036
 9426TIP3    H128217   6.287   7.200   2.407  0.3379 -0.9407  1.4472
 9426TIP3    H228218   6.342   7.095   2.312 -1.1394  0.0223 -0.4944
 9427TIP3   OH228219   7.815   1.443   3.080 -0.3170 -0.1513  0.2155
 9427TIP3    H128220   7.886   1.503   3.102  0.0252 -0.7885  0.8740
 9427TIP3    H228221   7.849   1.356   3.101 -0.9459 -0.5450 -0.3629
 9428TIP3   OH228222   8.106   2.009   1.706 -0.4344  0.3083  0.1100
 9428TIP3    H128223   8.044   2.082   1.708 -0.2420  0.5775 -1.9620
 9428TIP3    H228224   8.090   1.968   1.621  0.9361 -0.7564  0.3646
 9429TIP3   OH228225   4.546   6.932   3.454  0.0435 -0.7372 -0.0647
 9429TIP3    H128226   4.609   6.911   3.522 -0.6213  1.7900  1.4055
 9429TIP3    H228227   4.461   6.921   3.496 -0.4172 -0.7996 -0.9898
 9430TIP3   OH228228   6.372   5.477   5.338 -0.5599  0.4798  0.3456
 9430TIP3    H128229   6.415   5.535   5.275  1.1553  0.9895  1.9286
 9430TIP3    H228230   6.301   5.529   5.374  0.1291  1.1465  0.7626
 9431TIP3   OH228231   4.938   8.010   2.680 -0.3979  0.1527 -0.2479
 9431TIP3    H128232   4.974   8.089   2.719 -1.2973  0.1446  0.6363
 9431TIP3    H228233   4.994   7.939   2.711  0.2496  0.4070 -0.8266
 9432TIP3   OH228234   8.502   1.361   4.444  0.6421 -0.3389  0.1325
 9432TIP3    H128235   8.470   1.299   4.379 -0.3340 -0.5278  0.7733
 9432TIP3    H228236   8.512   1.443   4.395 -0.0147 -0.4938 -0.2750
 9433TIP3   OH228237   5.886   6.871   3.863 -0.6210  0.4152 -0.0123
 9433TIP3    H128238   5.801   6.904   3.892 -0.8707  0.2161 -0.5156
 9433TIP3    H228239   5.877   6.776   3.863 -0.1721  0.3701  0.6116
 9434TIP3   OH228240   5.747   7.726   3.122  0.4148  0.4598  0.2877
 9434TIP3    H128241   5.828   7.709   3.074  0.7667 -0.0139  1.0388
 9434TIP3    H228242   5.684   7.662   3.089  0.7698 -0.1248  0.7371
 9435TIP3   OH228243   7.103   1.626   3.992 -0.4568  0.0002  0.0188
 9435TIP3    H128244   7.166   1.696   4.008 -0.6361  0.1433  0.0961
 9435TIP3    H228245   7.142   1.575   3.921  0.3181 -0.6071  0.8582
 9436TIP3   OH228246   5.944   7.051   2.740  0.3721  0.2651 -0.3972
 9436TIP3    H128247   5.973   6.996   2.667  0.9347 -0.7171  0.5560
 9436TIP3    H228248   6.022   7.062   2.794 -0.3767 -0.1859  0.7966
 9437TIP3   OH228249   1.921   1.627   4.331  0.5529 -0.0620  0.1240
 9437TIP3    H128250   2.011   1.659   4.338  0.0305  1.8341 -1.2474
 9437TIP3    H228251   1.924   1.559   4.264  0.8511  0.4691 -0.4034
 9438TIP3   OH228252   5.785   5.441   4.491  0.7340 -0.0452  0.8354
 9438TIP3    H128253   5.723   5.416   4.422  1.1073  0.6511  0.2347
 9438TIP3    H228254   5.757   5.528   4.518  1.7939  0.5342  0.1330
 9439TIP3   OH228255   6.105   7.433   4.830 -0.2898  0.6291  0.1943
 9439TIP3    H128256   6.166   7.359   4.829 -1.8254 -0.7018  1.5685
 9439TIP3    H228257   6.155   7.506   4.792  1.4411 -0.9508 -0.6554
 9440TIP3   OH228258   6.377   0.639   3.298 -0.1450 -0.1238 -0.2209
 9440TIP3    H128259   6.379   0.549   3.266  0.6803 -0.9011  1.9587
 9440TIP3    H228260   6.469   0.665   3.303 -0.1535 -0.4789  2.6809
 9441TIP3   OH228261   8.211   0.184   3.207 -0.4171  0.2297  0.2617
 9441TIP3    H128262   8.169   0.221   3.129  0.3632  0.3024 -0.1338
 9441TIP3    H228263   8.237   0.260   3.258 -0.1134  0.2054  0.1474
 9442TIP3   OH228264   4.918   5.298   2.157  0.0126  0.1211  0.2933
 9442TIP3    H128265   4.880   5.231   2.214 -0.0835 -2.9754 -3.1886
 9442TIP3    H228266   4.846   5.321   2.097  1.1625  0.4583 -0.9725
 9443TIP3   OH228267   8.395   2.372   4.141 -0.3394 -0.1935 -0.2144
 9443TIP3    H128268   8.439   2.428   4.077 -1.2878 -0.7812 -1.4064
 9443TIP3    H228269   8.336   2.318   4.088 -0.6419 -1.1554  1.0974
 9444TIP3   OH228270   3.116   1.764   1.940  0.6733 -0.1751 -0.4032
 9444TIP3    H128271   3.150   1.747   2.028  0.9452 -0.5368 -0.5798
 9444TIP3    H228272   3.156   1.848   1.915 -1.3126  1.1432  0.7898
 9445TIP3   OH228273   5.987   6.680   1.632  1.1745 -0.4056 -0.0757
 9445TIP3    H128274   5.978   6.645   1.544  0.1876 -1.3483  0.3938
 9445TIP3    H228275   5.901   6.717   1.653  2.3215  2.8043 -0.7509
 9446TIP3   OH228276   8.086   0.801   1.782  0.3133 -0.9498  0.2615
 9446TIP3    H128277   8.018   0.864   1.805 -0.6139 -1.4654 -0.9736
 9446TIP3    H228278   8.045   0.745   1.716  2.6569  0.1260 -2.2014
 9447TIP3   OH228279   3.050   5.129   6.569  0.0148 -0.3934 -0.2063
 9447TIP3    H128280   3.090   5.047   6.540 -0.5200 -1.0309  0.8237
 9447TIP3    H228281   3.106   5.158   6.642 -1.5370 -1.4485  1.4486
 9448TIP3   OH228282   4.431   7.975   1.938  0.2499  0.1789 -0.6593
 9448TIP3    H128283   4.354   7.918   1.933  0.1395  0.3064 -0.4276
 9448TIP3    H228284   4.480   7.942   2.013 -1.0222  1.8847  0.9767
 9449TIP3   OH228285   8.149   0.422   0.646  0.2270 -0.7436 -0.1263
 9449TIP3    H128286   8.143   0.440   0.552 -0.1133 -1.0845 -0.1684
 9449TIP3    H228287   8.092   0.347   0.660 -1.5537  0.7124  0.7282
 9450TIP3   OH228288   3.366   6.272   3.505  0.1888  0.1299  0.1972
 9450TIP3    H128289   3.455   6.297   3.480 -0.1071  0.8157 -0.1932
 9450TIP3    H228290   3.376   6.225   3.588  0.9863 -0.4352 -0.2156
 9451TIP3   OH228291   5.361   7.563   2.275  0.4866 -0.2469  0.0474
 9451TIP3    H128292   5.272   7.577   2.243  1.3005  1.1929 -1.6336
 9451TIP3    H228293   5.370   7.468   2.279 -0.2257 -0.4413 -2.3546
 9452TIP3   OH228294   0.193   0.687   4.696  0.1280 -0.0092 -0.0236
 9452TIP3    H128295   0.217   0.758   4.637 -1.4867  0.0329 -0.6244
 9452TIP3    H228296   0.129   0.635   4.648  0.5828 -1.3478  0.7697
 9453TIP3   OH228297   5.285   7.363   3.059  0.2764 -0.2423  0.2856
 9453TIP3    H128298   5.229   7.296   3.019  0.7628  1.3215 -3.2337
 9453TIP3    H228299   5.374   7.339   3.033  0.7761  0.0207  1.7109
 9454TIP3   OH228300   4.348   7.399   1.270 -0.8881  0.6881  0.0696
 9454TIP3    H128301   4.407   7.325   1.254 -0.0273  1.5849 -0.9739
 9454TIP3    H228302   4.327   7.432   1.182 -1.7192  1.3173  0.5048
 9455TIP3   OH228303   6.443   6.093   3.649 -0.1347  0.1227  0.0652
 9455TIP3    H128304   6.489   6.113   3.731  0.0685 -0.0882  0.0047
 9455TIP3    H228305   6.447   5.997   3.643  3.4680  0.2979 -2.2293
 9456TIP3   OH228306   0.291   0.050   4.096 -0.0161 -0.2459 -0.2743
 9456TIP3    H128307   0.300  -0.045   4.100 -1.4549 -0.3344  1.7033
 9456TIP3    H228308   0.369   0.083   4.142  1.4302 -0.3723 -2.5354
 9457TIP3   OH228309   2.786   7.024   5.147  0.1859  0.5243  0.3465
 9457TIP3    H128310   2.879   7.008   5.162  0.3126  0.5797 -0.3536
 9457TIP3    H228311   2.753   6.941   5.111 -0.3822 -0.0237  2.0804
 9458TIP3   OH228312   6.357   7.351   3.680 -0.5454  0.3395 -0.5132
 9458TIP3    H128313   6.347   7.435   3.725  1.5832  0.6726 -0.6255
 9458TIP3    H228314   6.355   7.285   3.750  2.1249  0.8125  0.0660
 9459TIP3   OH228315   5.851   5.571   3.340 -0.2206 -0.2079  0.1149
 9459TIP3    H128316   5.852   5.654   3.290 -2.4967  0.0551  0.4189
 9459TIP3    H228317   5.762   5.539   3.328  0.1375 -1.7182  1.5048
 9460TIP3   OH228318   4.291   6.970   4.934  0.4687 -0.4444 -0.3711
 9460TIP3    H128319   4.200   6.951   4.959  1.1433 -1.3468  1.4763
 9460TIP3    H228320   4.342   6.898   4.970  2.0287  0.4328 -0.7583
 9461TIP3   OH228321   3.556   4.130   3.983 -0.0459 -0.5487  1.0569
 9461TIP3    H128322   3.563   4.044   3.942 -0.7472  0.7455 -1.9899
 9461TIP3    H228323   3.647   4.157   3.999  0.4222 -0.1285 -1.9535
 9462TIP3   OH228324   0.351   2.271   0.909 -0.9823  0.2381  0.2442
 9462TIP3    H128325   0.283   2.330   0.877 -0.2040  0.3284 -1.3134
 9462TIP3    H228326   0.327   2.185   0.874 -0.9508  0.0329  0.7174
 9463TIP3   OH228327   8.411   0.545   0.660 -0.1221 -0.1022 -0.4405
 9463TIP3    H128328   8.466   0.510   0.590 -0.7805 -0.3604 -0.8396
 9463TIP3    H228329   8.343   0.479   0.673  0.6681 -0.6014  1.2653
 9464TIP3   OH228330   8.193   0.131   3.682 -0.2162  0.7190 -0.3109
 9464TIP3    H128331   8.135   0.202   3.654  0.0760  1.1228  0.0942
 9464TIP3    H228332   8.281   0.163   3.664 -0.0705  0.5675  0.1188
 9465TIP3   OH228333   2.958   6.105   4.295  0.1563  0.2524 -0.3689
 9465TIP3    H128334   2.970   6.193   4.259  0.2910 -0.1147 -1.2516
 9465TIP3    H228335   3.011   6.049   4.238  0.6226 -0.3100  0.6050
 9466TIP3   OH228336   5.651   5.901   3.913 -0.6431 -0.3243  0.1656
 9466TIP3    H128337   5.741   5.894   3.943 -0.3144 -0.5738 -0.8715
 9466TIP3    H228338   5.614   5.814   3.926 -0.3844 -0.5369 -0.5270
 9467TIP3   OH228339   5.110   6.268   1.802 -0.1761 -0.1347  0.3894
 9467TIP3    H128340   5.064   6.352   1.795 -0.1283 -0.0811  0.7261
 9467TIP3    H228341   5.180   6.284   1.866 -1.4705 -1.0202  2.0454
 9468TIP3   OH228342   6.223   7.538   3.195 -0.2826 -0.5709 -0.0448
 9468TIP3    H128343   6.199   7.474   3.127 -1.1748 -0.4969  0.1922
 9468TIP3    H228344   6.232   7.486   3.275  0.1220 -0.5648 -0.0879
 9469TIP3   OH228345   6.757   5.901   3.700 -0.0477  0.4189  0.1744
 9469TIP3    H128346   6.707   5.850   3.764  0.7964 -0.3142  0.2518
 9469TIP3    H228347   6.837   5.850   3.685 -1.0689 -0.3774 -2.8941
 9470TIP3   OH228348   3.870   5.921   2.885  0.1154 -0.3258  0.4087
 9470TIP3    H128349   3.886   5.859   2.956 -0.1605  0.6153  1.2864
 9470TIP3    H228350   3.937   5.988   2.895 -1.0037  0.7509  0.8564
 9471TIP3   OH228351   4.716   6.059   2.552  0.5907  0.4038 -0.1000
 9471TIP3    H128352   4.703   6.120   2.625  0.6159 -0.7219  0.8609
 9471TIP3    H228353   4.809   6.037   2.555  0.3793 -0.4698  0.1987
 9472TIP3   OH228354   3.999   7.833   1.960 -0.4119  0.4603 -0.2545
 9472TIP3    H128355   3.905   7.820   1.945 -0.2052 -0.7060 -0.5586
 9472TIP3    H228356   4.037   7.837   1.872 -0.0731  0.1140 -0.1266
 9473TIP3   OH228357   5.357   6.214   4.575  0.4529  0.0591  0.7076
 9473TIP3    H128358   5.393   6.210   4.486  1.3522 -1.7480  1.1208
 9473TIP3    H228359   5.298   6.139   4.580  0.5221  0.0654  1.6814
 9474TIP3   OH228360   4.860   7.953   2.399 -0.2203  0.5060  0.1768
 9474TIP3    H128361   4.793   8.014   2.370 -0.0566  1.3949  1.6376
 9474TIP3    H228362   4.875   7.975   2.491  2.3436  0.6011 -0.2311
 9475TIP3   OH228363   3.703   6.676   2.258 -0.3815 -0.6950 -0.0662
 9475TIP3    H128364   3.676   6.584   2.268 -1.0593 -0.4638  0.2625
 9475TIP3    H228365   3.622   6.721   2.233 -0.1980 -0.0660  0.4707
 9476TIP3   OH228366   6.127   6.991   3.894 -0.1295 -0.7457  0.4556
 9476TIP3    H128367   6.173   6.914   3.862  1.8122  0.5407  0.1058
 9476TIP3    H228368   6.035   6.965   3.896  0.5077 -3.0745  0.3932
 9477TIP3   OH228369   3.249   7.021   3.891  0.2230  0.5048  0.0152
 9477TIP3    H128370   3.207   6.969   3.959 -0.2644  1.9200  0.8142
 9477TIP3    H228371   3.292   6.957   3.835 -1.5758 -0.8553  0.1559
 9478TIP3   OH228372   4.939   7.563   3.443  0.5408 -0.0828  0.1290
 9478TIP3    H128373   4.997   7.625   3.486 -0.9473  0.6911  1.0509
 9478TIP3    H228374   4.987   7.534   3.365  1.5813  1.5757  0.1503
 9479TIP3   OH228375   5.406   6.532   4.411 -0.1701  0.0426 -0.0842
 9479TIP3    H128376   5.334   6.526   4.475 -2.9999  1.5259 -2.9626
 9479TIP3    H228377   5.435   6.622   4.416  1.0161 -0.3699  0.5462
 9480TIP3   OH228378   8.374   1.248   4.828  0.2070 -0.2617  0.0108
 9480TIP3    H128379   8.278   1.254   4.820  0.1654 -2.4262 -1.3845
 9480TIP3    H228380   8.406   1.333   4.798 -1.2359  0.2008 -0.2592
 9481TIP3   OH228381   1.347   0.272   3.565  0.5428  0.0444 -0.1692
 9481TIP3    H128382   1.274   0.329   3.541 -1.5489 -1.2069  2.9008
 9481TIP3    H228383   1.338   0.196   3.508  0.2542  0.4741 -0.7059
 9482TIP3   OH228384   5.613   6.862   3.948 -0.1921  0.1532 -0.1989
 9482TIP3    H128385   5.593   6.930   4.013 -2.2769  0.2744 -0.9500
 9482TIP3    H228386   5.534   6.809   3.944 -0.1361  0.2382 -2.7898
 9483TIP3   OH228387   1.179   7.286   2.896  0.1657  0.0102  0.7062
 9483TIP3    H128388   1.253   7.332   2.856 -0.6339  0.5654 -0.1744
 9483TIP3    H228389   1.105   7.345   2.882  0.0449  0.6721  3.9028
 9484TIP3   OH228390   0.398   0.970   1.093  0.2206  0.3163 -0.5373
 9484TIP3    H128391   0.304   0.969   1.113  0.4578 -1.9405  0.5846
 9484TIP3    H228392   0.434   1.039   1.148 -0.5850  0.3392 -0.0323
 9485TIP3   OH228393   6.193   6.277   4.808 -0.1431  0.0805 -0.2603
 9485TIP3    H128394   6.184   6.256   4.715 -0.9362  2.2979 -0.7051
 9485TIP3    H228395   6.198   6.372   4.811 -0.6134  0.0555  2.0224
 9486TIP3   OH228396   5.481   7.203   2.655  0.2747 -0.3055 -0.1435
 9486TIP3    H128397   5.496   7.122   2.607 -2.4892  0.1312 -1.8188
 9486TIP3    H228398   5.535   7.268   2.609 -3.1110  0.3278 -3.4085
 9487TIP3   OH228399   6.698   2.631   2.755 -0.1674 -0.1150  0.0282
 9487TIP3    H128400   6.725   2.709   2.803 -0.0733  0.2886 -0.6732
 9487TIP3    H228401   6.629   2.661   2.696  1.8570  0.1041 -2.3484
 9488TIP3   OH228402   5.326   6.085   3.670  0.2517 -0.3584 -0.7076
 9488TIP3    H128403   5.289   6.003   3.637  1.0707 -0.6534 -0.9206
 9488TIP3    H228404   5.339   6.068   3.764 -1.0716  0.0985 -0.4389
 9489TIP3   OH228405   3.797   0.981   1.034  0.2109 -0.0144 -0.0142
 9489TIP3    H128406   3.741   1.051   1.067  1.6142  1.3636 -0.4882
 9489TIP3    H228407   3.862   0.968   1.102 -0.4885 -1.4198  0.4132
 9490TIP3   OH228408   6.597   0.458   3.733  0.0706  0.2865 -0.0032
 9490TIP3    H128409   6.554   0.526   3.785  0.8555  0.6025  0.2446
 9490TIP3    H228410   6.619   0.390   3.797 -1.3629 -0.5458 -0.3661
 9491TIP3   OH228411   5.827   6.687   3.012 -0.1505 -0.5116  0.5004
 9491TIP3    H128412   5.791   6.776   3.008 -0.3434 -0.6253 -0.6503
 9491TIP3    H228413   5.761   6.633   2.968 -0.7258 -1.4664  2.4801
 9492TIP3   OH228414   7.945   6.962   4.074  0.5185  0.0494 -0.1888
 9492TIP3    H128415   8.034   6.993   4.087  0.5501  0.9986 -2.4545
 9492TIP3    H228416   7.936   6.953   3.979 -0.9594 -2.5927  0.1530
 9493TIP3   OH228417   1.130   0.423   3.463  0.7834 -0.0908 -0.1099
 9493TIP3    H128418   1.094   0.413   3.375 -0.1945  0.5693  0.2026
 9493TIP3    H228419   1.087   0.502   3.498  1.6698  0.0434  0.7065
 9494TIP3   OH228420   5.303   7.948   4.841  0.2229  0.3322  0.5463
 9494TIP3    H128421   5.246   7.884   4.799  1.9852 -0.3127 -0.9384
 9494TIP3    H228422   5.253   8.030   4.839 -0.2531  0.0137 -1.6602
 9495TIP3   OH228423   0.036   0.101   2.886 -0.4379  0.2475  0.1257
 9495TIP3    H128424   0.001   0.064   2.967 -1.7184  0.0835 -0.4901
 9495TIP3    H228425   0.116   0.051   2.870  0.2368  0.7959  1.6873
 9496TIP3   OH228426   7.025   6.405   1.279 -0.2608 -0.2582  0.5877
 9496TIP3    H128427   7.020   6.310   1.266 -0.4633  0.1259 -2.4174
 9496TIP3    H228428   7.118   6.425   1.274 -0.4059  0.0145 -1.5126
 9497TIP3   OH228429   5.483   7.683   4.783 -0.1628 -0.3859 -0.3389
 9497TIP3    H128430   5.504   7.594   4.756 -0.0905  0.3289 -2.7003
 9497TIP3    H228431   5.392   7.696   4.757 -0.4459 -0.0282  0.7580
 9498TIP3   OH228432   5.576   5.890   2.436  0.0642 -0.3867 -0.0532
 9498TIP3    H128433   5.645   5.918   2.376 -0.6100  0.5495 -0.4148
 9498TIP3    H228434   5.551   5.803   2.405  0.2108 -0.2028 -0.6930
 9499TIP3   OH228435   4.859   7.737   2.222  0.3144  0.1590 -0.3896
 9499TIP3    H128436   4.839   7.808   2.283  0.5218 -0.6498  0.6418
 9499TIP3    H228437   4.865   7.779   2.137  0.3199  1.3547  0.1931
 9500TIP3   OH228438   6.038   5.047   3.351  0.0973 -0.5951 -0.3300
 9500TIP3    H128439   6.038   5.066   3.257  0.1426  2.1276  0.1728
 9500TIP3    H228440   6.130   5.050   3.375 -0.1158  1.4716  0.2918
 9501TIP3   OH228441   2.639   2.027   2.922  0.4821  0.1943 -0.4062
 9501TIP3    H128442   2.584   1.984   2.988  1.3434  0.1076  0.2527
 9501TIP3    H228443   2.711   1.966   2.907  0.5187  0.4108 -1.1127
 9502TIP3   OH228444   5.234   6.791   2.746  0.1282 -0.7799 -0.2705
 9502TIP3    H128445   5.168   6.802   2.814  0.4846 -1.7624  0.2420
 9502TIP3    H228446   5.189   6.743   2.676 -0.2669  0.3208 -0.7839
 9503TIP3   OH228447   7.625   1.939   3.320 -0.2445 -0.0153  0.5172
 9503TIP3    H128448   7.633   1.998   3.245 -0.7914 -0.5761  0.0190
 9503TIP3    H228449   7.712   1.901   3.330 -0.0857  0.3052  0.3700
 9504TIP3   OH228450   6.492   6.377   3.333 -0.6082  0.3039 -0.4316
 9504TIP3    H128451   6.569   6.366   3.388 -0.8519  0.9130  0.0430
 9504TIP3    H228452   6.433   6.306   3.358  0.6889 -1.5142 -2.3563
 9505TIP3   OH228453   6.149   6.900   4.820  0.0387  0.0401 -0.1937
 9505TIP3    H128454   6.173   6.813   4.790 -0.1707 -0.3051  0.6381
 9505TIP3    H228455   6.196   6.911   4.903 -1.5701 -0.1050  0.7602
 9506TIP3   OH228456   0.805   0.834   1.102 -0.3242 -0.2971  0.4829
 9506TIP3    H128457   0.741   0.904   1.116 -0.0664  0.2760 -1.1211
 9506TIP3    H228458   0.882   0.861   1.151 -0.0544  0.7988 -0.5298
 9507TIP3   OH228459  -0.003   0.886   1.604 -0.2832  0.2342  0.1167
 9507TIP3    H128460  -0.052   0.871   1.685 -0.2141  2.5589  0.6190
 9507TIP3    H228461   0.085   0.909   1.633  0.3098 -0.9283 -0.7006
 9508TIP3   OH228462   6.716   6.413   3.794  0.5973 -0.0003  0.1287
 9508TIP3    H128463   6.694   6.411   3.887  1.9019 -0.5429  0.4421
 9508TIP3    H228464   6.641   6.455   3.752 -0.1511 -0.0722  1.3810
 9509TIP3   OH228465   1.545   0.891   5.456  0.0994  0.5459  0.2981
 9509TIP3    H128466   1.489   0.906   5.533  0.4259  1.7077  0.3127
 9509TIP3    H228467   1.497   0.826   5.405 -0.7771  0.7600  0.8273
 9510TIP3   OH228468   7.555   1.381   1.904 -0.2730 -0.3041  0.1476
 9510TIP3    H128469   7.568   1.290   1.877 -1.3357 -0.2977 -0.3895
 9510TIP3    H228470   7.600   1.433   1.837 -1.1027 -0.3681 -0.4599
 9511TIP3   OH228471   0.571   0.882   3.060  0.2353  0.5973  0.2974
 9511TIP3    H128472   0.511   0.808   3.057  2.2880 -1.1227  0.4047
 9511TIP3    H228473   0.603   0.890   2.970 -1.3891  2.5901 -0.1357
 9512TIP3   OH228474   6.034   7.635   3.837 -0.1148  0.4758 -0.9333
 9512TIP3    H128475   5.955   7.628   3.784 -0.6212  0.2599 -0.1633
 9512TIP3    H228476   6.022   7.715   3.888 -0.0988  0.1365 -0.3940
 9513TIP3   OH228477   1.445   0.911   3.130 -0.5467  0.4182  0.2452
 9513TIP3    H128478   1.357   0.943   3.110 -0.6771 -2.2498 -4.2051
 9513TIP3    H228479   1.434   0.817   3.143  1.4417  0.2779  1.1414
 9514TIP3   OH228480   1.583   0.236   2.738  0.0445 -0.0642  0.0907
 9514TIP3    H128481   1.542   0.316   2.771  1.6848  0.6363  0.5116
 9514TIP3    H228482   1.513   0.171   2.740 -1.6851  1.6711 -1.5480
 9515TIP3   OH228483   1.152   1.049   2.340 -0.6772  0.2460  0.1447
 9515TIP3    H128484   1.188   1.135   2.317  1.6231 -0.9048 -0.6753
 9515TIP3    H228485   1.131   1.009   2.256 -0.5361 -0.5161  0.4711
 9516TIP3   OH228486   0.937   2.763   1.132  0.8133 -0.3289  0.9453
 9516TIP3    H128487   0.917   2.780   1.224 -2.8662  0.9671 -0.0209
 9516TIP3    H228488   0.880   2.691   1.108  0.5604  0.4183 -0.7380
 9517TIP3   OH228489   8.451   7.141   3.293 -0.0897 -0.1002  0.1097
 9517TIP3    H128490   8.413   7.164   3.208 -0.8909  0.8076  0.7067
 9517TIP3    H228491   8.398   7.067   3.324 -0.8746  0.6572  0.5826
 9518TIP3   OH228492   1.262   0.878   1.484 -0.2006  0.6155  0.5345
 9518TIP3    H128493   1.338   0.827   1.510 -0.3780  0.6500  1.1145
 9518TIP3    H228494   1.290   0.925   1.405  0.0796 -0.0875  0.2175
 9519TIP3   OH228495   4.397   7.801   4.600 -0.1280  0.0744 -0.0872
 9519TIP3    H128496   4.444   7.724   4.632 -0.9628 -0.2107  0.4611
 9519TIP3    H228497   4.466   7.857   4.563  0.4029 -1.2365 -1.1272
 9520TIP3   OH228498   6.251   6.222   2.744  0.4740 -0.4447 -0.2969
 9520TIP3    H128499   6.253   6.300   2.800  2.8091  0.5269 -1.7139
 9520TIP3    H228500   6.209   6.251   2.663 -0.5619 -1.2168 -0.0573
 9521TIP3   OH228501   6.313   5.412   3.419  0.0650 -0.0105  0.7537
 9521TIP3    H128502   6.313   5.324   3.457  0.4330 -0.5566 -0.4902
 9521TIP3    H228503   6.320   5.397   3.325 -0.1451  1.3475  0.5202
 9522TIP3   OH228504   6.140   6.489   2.212  0.3685 -0.4037  0.3413
 9522TIP3    H128505   6.095   6.440   2.280 -2.7552 -0.3683 -1.5779
 9522TIP3    H228506   6.102   6.577   2.217  1.3184  0.0564 -0.3452
 9523TIP3   OH228507   5.888   7.925   3.845  0.7288 -0.1395  0.6497
 9523TIP3    H128508   5.873   8.015   3.876  0.2338  0.3679 -1.0041
 9523TIP3    H228509   5.978   7.925   3.815  0.2950  0.2151 -0.6771
 9524TIP3   OH228510  -0.026   0.159   3.675  0.1802 -0.1355 -0.8812
 9524TIP3    H128511   0.052   0.149   3.729  0.0540 -0.3792 -0.7465
 9524TIP3    H228512  -0.003   0.119   3.591  1.0628  1.9754 -1.6767
 9525TIP3   OH228513   8.438   7.517   2.047  0.3046 -0.2023  0.2676
 9525TIP3    H128514   8.469   7.487   1.961 -1.8678 -1.4673 -0.1321
 9525TIP3    H228515   8.452   7.612   2.045  1.2200 -0.3476 -1.1060
 9526TIP3   OH228516   5.740   5.707   1.560 -0.0682 -0.1569  0.2004
 9526TIP3    H128517   5.801   5.635   1.545 -0.5301 -0.4551 -0.2620
 9526TIP3    H228518   5.790   5.771   1.612  1.4339  0.6990 -2.2030
 9527TIP3   OH228519   0.431   0.348   1.174  0.0356 -0.0418 -0.5216
 9527TIP3    H128520   0.451   0.399   1.095 -0.1973  0.4962 -0.2354
 9527TIP3    H228521   0.486   0.388   1.242  0.8490 -1.0238 -0.5871
 9528TIP3   OH228522   0.151   7.580   1.684 -0.6452  0.3488  0.6243
 9528TIP3    H128523   0.152   7.519   1.758  0.5576 -0.9411 -0.4350
 9528TIP3    H228524   0.082   7.643   1.707 -1.8245 -1.3039  1.8078
 9529TIP3   OH228525   8.056   7.098   5.132  0.6864  0.1840  0.5070
 9529TIP3    H128526   7.980   7.076   5.079  0.8445 -3.4797  1.7053
 9529TIP3    H228527   8.129   7.104   5.070  0.0806  0.2424 -0.1909
 9530TIP3   OH228528   6.587   7.936   3.316  0.1025  0.0369 -0.1671
 9530TIP3    H128529   6.581   7.877   3.391 -0.5884  0.6749  0.2782
 9530TIP3    H228530   6.496   7.955   3.293  0.3198  1.1927 -0.0993
 9531TIP3   OH228531   5.538   4.416   0.360 -0.3419 -0.3316 -0.3090
 9531TIP3    H128532   5.620   4.367   0.351 -0.7120 -0.9416 -0.4130
 9531TIP3    H228533   5.473   4.361   0.316 -0.4429  1.1253 -2.0234
 9532TIP3   OH228534   8.234   0.664   6.637 -0.1366 -0.0756  0.2321
 9532TIP3    H128535   8.164   0.645   6.575 -2.8591  0.3056  3.0710
 9532TIP3    H228536   8.271   0.579   6.658 -0.7964 -0.4505 -0.1173
 9533TIP3   OH228537   6.347   7.269   6.340  0.5597  0.3515  0.2726
 9533TIP3    H128538   6.354   7.230   6.427 -0.3858  1.2766  0.7739
 9533TIP3    H228539   6.263   7.238   6.306  1.0437 -0.2125 -0.4179
 9534TIP3   OH228540   7.881   8.028   6.083  0.4708  0.3221 -0.7779
 9534TIP3    H128541   7.966   7.984   6.090  0.1191 -0.6800 -2.4596
 9534TIP3    H228542   7.819   7.957   6.064 -0.9695  0.8715  1.6504
 9535TIP3   OH228543   0.027   0.696   3.019 -0.1432  0.1179  0.0127
 9535TIP3    H128544   0.050   0.603   3.009  0.5468  0.2746  0.1180
 9535TIP3    H228545  -0.013   0.701   3.106  3.6805  0.6382  1.8523
 9536TIP3   OH228546   0.474   7.184   6.699  0.1855 -0.1243 -0.5910
 9536TIP3    H128547   0.437   7.108   6.745 -2.8000  1.8514  0.4183
 9536TIP3    H228548   0.434   7.181   6.612  1.1901 -0.4631 -1.0590
 9537TIP3   OH228549   0.795   4.469   6.886  0.4779 -0.0506  0.4490
 9537TIP3    H128550   0.785   4.464   6.791 -0.0593  0.2114  0.4873
 9537TIP3    H228551   0.873   4.417   6.906  1.0937  0.6086 -0.2232
 9538TIP3   OH228552   0.804   7.285   3.837  0.2707  0.3401  0.4233
 9538TIP3    H128553   0.873   7.236   3.793  0.1938  0.3397  0.3034
 9538TIP3    H228554   0.729   7.225   3.837  0.8784 -0.4734  2.4097
 9539TIP3   OH228555   4.885   7.261   0.434  0.1439  0.0277  0.3276
 9539TIP3    H128556   4.900   7.185   0.377 -1.5188 -0.0029 -0.0858
 9539TIP3    H228557   4.968   7.308   0.433 -0.0537  0.4388 -2.7757
 9540TIP3   OH228558   0.660   3.115   6.926 -0.5835  0.2497  0.2891
 9540TIP3    H128559   0.576   3.149   6.956 -0.9589 -0.2805 -0.1444
 9540TIP3    H228560   0.707   3.191   6.892 -1.8844  0.1532 -1.7827
 9541TIP3   OH228561   3.180   0.487   6.627 -0.3674 -0.1274  0.3479
 9541TIP3    H128562   3.118   0.497   6.554  0.3496 -1.1723 -0.4253
 9541TIP3    H228563   3.160   0.400   6.663  0.1795 -0.1759  0.5368
 9542TIP3   OH228564   5.889   7.979   5.945 -0.0870  0.4247 -0.4101
 9542TIP3    H128565   5.867   8.026   5.864 -0.9143  1.3670  0.3530
 9542TIP3    H228566   5.968   7.929   5.922 -0.2283  0.7797 -1.7594
 9543TIP3   OH228567   2.035   4.295   0.193  0.2825  0.8064  0.4534
 9543TIP3    H128568   2.078   4.287   0.278 -0.6133 -0.8103  0.7815
 9543TIP3    H228569   1.956   4.346   0.210  0.7267  1.5304  0.3522
 9544TIP3   OH228570   2.013   8.005   5.487  0.6172 -0.0537  0.0497
 9544TIP3    H128571   1.946   8.072   5.503 -0.3148 -0.6280 -1.2949
 9544TIP3    H228572   1.985   7.929   5.537 -0.1688 -0.5437 -1.1045
 9545TIP3   OH228573   5.816   5.913   4.253 -0.1623 -0.7400 -0.0623
 9545TIP3    H128574   5.906   5.902   4.224 -0.6563 -1.7372 -1.2595
 9545TIP3    H228575   5.766   5.850   4.201 -1.3975 -0.9535  1.3564
 9546TIP3   OH228576   7.012   7.485   6.330 -0.3110 -0.0170  0.1420
 9546TIP3    H128577   6.996   7.569   6.374  2.4074 -0.0751  1.3494
 9546TIP3    H228578   7.032   7.425   6.401 -0.9881 -1.4174 -0.8316
 9547TIP3   OH228579   2.719   1.086   6.379 -0.1132  0.0879 -0.0029
 9547TIP3    H128580   2.769   1.063   6.457  0.2205 -0.7974 -0.4654
 9547TIP3    H228581   2.755   1.029   6.311 -2.0460 -0.8454 -0.2471
 9548TIP3   OH228582   8.139   7.957   6.795  0.0214 -0.4405 -0.4950
 9548TIP3    H128583   8.110   8.048   6.784 -1.2806 -0.7856  0.0613
 9548TIP3    H228584   8.151   7.925   6.706  0.1962  0.1885 -0.6998
 9549TIP3   OH228585   2.352   0.671   6.526 -0.0994  0.0657 -0.3054
 9549TIP3    H128586   2.319   0.660   6.615 -0.0556  0.2911 -0.2630
 9549TIP3    H228587   2.432   0.721   6.536 -0.4512  0.6792 -0.5329
 9550TIP3   OH228588   8.026   1.228   6.365  0.6740  0.2658 -0.0030
 9550TIP3    H128589   8.042   1.316   6.331 -0.6311  0.2872 -0.5927
 9550TIP3    H228590   8.101   1.210   6.422  0.8721  1.8082  0.2349
 9551TIP3   OH228591   5.880   7.773   6.572  0.5632 -0.2271 -0.1825
 9551TIP3    H128592   5.928   7.852   6.545  1.5106 -1.2021 -1.3828
 9551TIP3    H228593   5.826   7.752   6.496  0.5703 -0.9399  0.0126
 9552TIP3   OH228594   1.812   6.005   0.256  0.0910  0.1118  0.0720
 9552TIP3    H128595   1.772   5.988   0.341  0.7458  1.6247  0.7090
 9552TIP3    H228596   1.746   6.056   0.208  0.8489  1.8266  0.7917
 9553TIP3   OH228597   5.888   3.555   1.098 -0.0316  0.1042 -0.2712
 9553TIP3    H128598   5.797   3.549   1.126 -0.0258 -1.4758 -0.5378
 9553TIP3    H228599   5.932   3.603   1.168 -0.6392 -1.0822  0.9562
 9554TIP3   OH228600   4.354   5.377   0.077 -0.0167 -0.2553  0.6223
 9554TIP3    H128601   4.427   5.347   0.131  1.1387 -2.8154 -2.2285
 9554TIP3    H228602   4.384   5.460   0.039  0.6143 -0.3264  0.9703
 9555TIP3   OH228603   6.437   4.233   1.996 -0.1993  0.0832  0.4248
 9555TIP3    H128604   6.411   4.325   1.997  1.5145  0.5797  2.2135
 9555TIP3    H228605   6.426   4.204   2.087 -1.0896 -1.6056 -0.1963
 9556TIP3   OH228606   1.391   0.523   6.108  0.3490 -0.3009  0.0337
 9556TIP3    H128607   1.393   0.461   6.035 -0.8535  0.2999 -0.5202
 9556TIP3    H228608   1.414   0.470   6.185  0.0321 -1.2740 -0.5328
 9557TIP3   OH228609   2.924   0.579   5.970  0.1254  0.3080  0.3851
 9557TIP3    H128610   2.962   0.498   6.004  0.6764 -0.1549 -1.2848
 9557TIP3    H228611   2.997   0.626   5.931 -0.5909  0.5052 -0.7527
 9558TIP3   OH228612   0.819   7.614   4.716 -0.8112 -0.3209  0.4007
 9558TIP3    H128613   0.798   7.708   4.720  0.0524 -0.1009 -0.0390
 9558TIP3    H228614   0.849   7.600   4.626 -1.7987 -1.2142  0.2026
 9559TIP3   OH228615   0.615   5.954   6.664 -0.4977  0.0243 -0.2630
 9559TIP3    H128616   0.574   5.880   6.619 -0.2236 -0.1622 -0.2026
 9559TIP3    H228617   0.541   6.011   6.687 -0.7698 -0.5358  0.2607
 9560TIP3   OH228618   3.662   5.520   0.041  0.1772  0.2188 -0.0965
 9560TIP3    H128619   3.646   5.434   0.079  0.7917  0.8121  1.5647
 9560TIP3    H228620   3.582   5.541  -0.008 -0.1624 -1.0746 -0.0921
 9561TIP3   OH228621   7.566   6.884   5.397 -0.0107  0.2750 -0.6313
 9561TIP3    H128622   7.597   6.813   5.454 -0.3774  0.7136  0.1237
 9561TIP3    H228623   7.490   6.920   5.443  0.8415  1.8986 -0.4539
 9562TIP3   OH228624   4.650   2.576   0.584  0.1265  0.1922 -0.1740
 9562TIP3    H128625   4.597   2.499   0.562 -1.2103  0.6464  1.3414
 9562TIP3    H228626   4.737   2.541   0.599 -0.2396 -0.8912 -0.4823
 9563TIP3   OH228627   2.555   1.846   4.558 -0.3384 -0.0059  0.0539
 9563TIP3    H128628   2.528   1.936   4.575  2.9232  0.9665  0.2984
 9563TIP3    H228629   2.625   1.828   4.621  0.4477 -2.0166 -1.3209
 9564TIP3   OH228630   4.103   4.305   0.205  0.1808 -0.4413  0.5163
 9564TIP3    H128631   4.128   4.394   0.228 -0.6997 -0.0354 -0.0387
 9564TIP3    H228632   4.032   4.284   0.266 -0.4102 -0.3149 -0.1181
 9565TIP3   OH228633   0.782   7.704   6.193  0.8125 -0.2448  0.2121
 9565TIP3    H128634   0.749   7.720   6.105  1.0770  0.6412  0.2671
 9565TIP3    H228635   0.740   7.771   6.247  2.0490  0.3660  0.4289
 9566TIP3   OH228636   8.299   4.492   0.912 -0.0058 -0.0428 -0.7938
 9566TIP3    H128637   8.387   4.526   0.898  0.0793  0.0514 -0.0542
 9566TIP3    H228638   8.313   4.398   0.929  0.0480  0.1759  0.3883
 9567TIP3   OH228639   6.574   3.523   0.855 -0.4225  0.4055 -0.6173
 9567TIP3    H128640   6.638   3.460   0.891 -1.8287 -0.0168  1.1933
 9567TIP3    H228641   6.596   3.606   0.897 -1.0926  0.2453  0.0579
 9568TIP3   OH228642   2.213   1.131   5.701  0.2170 -0.2932 -0.1597
 9568TIP3    H128643   2.181   1.144   5.612  0.3158  1.1148 -0.0101
 9568TIP3    H228644   2.179   1.046   5.727 -2.7320  0.7667 -0.3113
 9569TIP3   OH228645   7.794   7.481   5.012 -0.3037 -0.5537  0.3514
 9569TIP3    H128646   7.741   7.496   4.934 -0.9246  1.3436  1.1113
 9569TIP3    H228647   7.772   7.391   5.038  0.2353 -1.3569 -1.8668
 9570TIP3   OH228648   3.886   4.199   0.525 -0.2963  0.2985 -0.5741
 9570TIP3    H128649   3.946   4.264   0.562 -0.7985  0.5340 -0.1660
 9570TIP3    H228650   3.804   4.247   0.512 -0.1751  0.1695 -1.8422
 9571TIP3   OH228651   3.742   3.462   0.696 -0.5061  0.6256 -0.1108
 9571TIP3    H128652   3.648   3.474   0.711 -0.9300 -2.0457 -0.4498
 9571TIP3    H228653   3.752   3.473   0.602 -0.5466  0.5846 -0.1203
 9572TIP3   OH228654   1.871   5.002   5.955 -0.1601 -0.4847  0.1579
 9572TIP3    H128655   1.940   4.946   5.921 -0.0038 -0.2652  0.1158
 9572TIP3    H228656   1.840   5.052   5.879  0.6772  0.5243  0.4729
 9573TIP3   OH228657   6.801   5.594   0.029 -0.5762 -0.2961 -0.0443
 9573TIP3    H128658   6.868   5.595  -0.040  1.1176 -1.1552  1.5420
 9573TIP3    H228659   6.792   5.686   0.054 -0.2359 -0.1286 -0.5170
 9574TIP3   OH228660   6.071   4.052   0.534 -0.0561 -0.2431  0.3722
 9574TIP3    H128661   6.134   4.018   0.470 -0.4851  1.2619 -0.8701
 9574TIP3    H228662   6.099   4.142   0.550 -1.0055 -0.0504  0.9720
 9575TIP3   OH228663   5.815   3.756   0.318 -0.1086 -0.0049  0.1394
 9575TIP3    H128664   5.894   3.710   0.346  0.0499 -0.2623 -0.7353
 9575TIP3    H228665   5.846   3.825   0.260 -0.4210  0.7095  0.8065
 9576TIP3   OH228666   0.279   7.381   0.093 -0.0925 -0.4475 -0.0501
 9576TIP3    H128667   0.240   7.348   0.012 -1.2332 -0.1351  0.3588
 9576TIP3    H228668   0.253   7.473   0.097  3.9948  0.8782 -1.7403
 9577TIP3   OH228669   7.183   7.933   5.663  0.1057  0.1466  0.6855
 9577TIP3    H128670   7.129   7.992   5.611 -0.1512  0.0068  0.7914
 9577TIP3    H228671   7.199   7.981   5.745  1.4876  0.8461  0.0224
 9578TIP3   OH228672   0.616   0.510   6.048  0.2742 -0.6361  0.0936
 9578TIP3    H128673   0.571   0.592   6.028  2.2827  0.1603 -1.2770
 9578TIP3    H228674   0.597   0.453   5.973  1.0872 -0.4868 -0.2290
 9579TIP3   OH228675   4.018   1.267   5.951  0.4891  0.0535 -0.3907
 9579TIP3    H128676   4.022   1.361   5.935  1.1168  0.0519 -0.2581
 9579TIP3    H228677   4.103   1.234   5.922 -0.5138 -0.7983 -2.5165
 9580TIP3   OH228678   8.341   7.409   6.286  0.0674 -0.1985 -0.1221
 9580TIP3    H128679   8.301   7.394   6.201 -2.3664  1.1313  0.7416
 9580TIP3    H228680   8.432   7.381   6.275 -0.5503 -1.3275 -2.7390
 9581TIP3   OH228681   5.904   5.901   1.814 -0.0069  0.2044 -0.7256
 9581TIP3    H128682   5.951   5.826   1.852 -0.8994 -0.3818 -0.7665
 9581TIP3    H228683   5.830   5.915   1.873 -0.5735  0.2313 -1.4385
 9582TIP3   OH228684   6.568   5.276   0.948 -0.2753  0.3856 -0.0661
 9582TIP3    H128685   6.601   5.305   1.033 -0.3905 -0.5259  0.2887
 9582TIP3    H228686   6.639   5.224   0.911  0.0154  1.2991 -0.8022
 9583TIP3   OH228687   5.023   2.730   0.459 -0.1047 -0.1201 -0.0785
 9583TIP3    H128688   5.079   2.734   0.381 -0.2833  0.5145 -0.1748
 9583TIP3    H228689   5.068   2.668   0.517  0.7921  0.5226 -0.0780
 9584TIP3   OH228690   5.865   6.701   0.566  0.4030  0.0585  0.3719
 9584TIP3    H128691   5.952   6.730   0.537  1.4700 -2.5883  0.8565
 9584TIP3    H228692   5.871   6.697   0.661  0.0459 -1.1111  0.3463
 9585TIP3   OH228693   6.323   6.913   0.372  0.0657  0.6085  0.2716
 9585TIP3    H128694   6.244   6.860   0.372  1.1868 -1.1232  1.9450
 9585TIP3    H228695   6.381   6.870   0.435  2.0787  2.2353 -0.4110
 9586TIP3   OH228696   6.734   4.928   0.772  0.0351 -0.0681 -0.1612
 9586TIP3    H128697   6.731   5.017   0.738  0.3225 -0.3408 -0.9130
 9586TIP3    H228698   6.807   4.887   0.726 -0.1988 -0.7433  0.0618
 9587TIP3   OH228699   5.871   6.545   0.800 -0.2068  0.7237 -0.4275
 9587TIP3    H128700   5.930   6.608   0.840  0.4263 -0.3294  0.3250
 9587TIP3    H228701   5.929   6.483   0.755 -0.6751 -0.7238  0.9081
 9588TIP3   OH228702   7.667   6.104   0.139  0.2375  0.6293 -0.5960
 9588TIP3    H128703   7.694   6.159   0.065  0.9676  0.0306 -0.7705
 9588TIP3    H228704   7.576   6.129   0.154 -0.0282  0.5178 -1.9147
 9589TIP3   OH228705   5.763   1.381   6.961  0.1199 -0.3848 -0.2500
 9589TIP3    H128706   5.795   1.293   6.945  1.9159  0.2409 -0.1767
 9589TIP3    H228707   5.796   1.433   6.888 -0.2435  0.3922  0.1308
 9590TIP3   OH228708   7.346   5.706   2.221 -0.3823 -0.2300  0.0865
 9590TIP3    H128709   7.414   5.773   2.210 -1.1682  0.6208  0.4409
 9590TIP3    H228710   7.281   5.727   2.155 -0.9595 -0.2417  0.6492
 9591TIP3   OH228711   7.375   4.082   2.878  0.3057  0.1069 -0.1977
 9591TIP3    H128712   7.339   4.115   2.960 -0.1293  0.0894 -0.3798
 9591TIP3    H228713   7.402   4.161   2.830 -0.3578  0.1777 -0.4600
 9592TIP3   OH228714   7.465   7.477   6.053 -0.3937 -0.8599 -0.0044
 9592TIP3    H128715   7.373   7.488   6.029 -0.2461  0.3271 -0.0762
 9592TIP3    H228716   7.509   7.553   6.014  0.5839 -1.3047  0.2036
 9593TIP3   OH228717   8.382   6.096   0.987  0.0332  0.8078 -0.2451
 9593TIP3    H128718   8.434   6.066   0.913 -0.7646  0.1654 -0.5532
 9593TIP3    H228719   8.313   6.149   0.948 -1.5266 -1.0899 -0.1744
 9594TIP3   OH228720   7.802   5.432   1.842 -0.1868  0.2593 -0.2977
 9594TIP3    H128721   7.710   5.456   1.855 -0.3653 -0.3934 -0.3642
 9594TIP3    H228722   7.810   5.412   1.749  0.1427  0.8082 -0.3933
 9595TIP3   OH228723   6.784   7.922   2.779 -0.2799  0.0827 -0.0792
 9595TIP3    H128724   6.801   7.874   2.860  2.3243 -2.3477 -1.9581
 9595TIP3    H228725   6.769   7.854   2.713 -1.1481  1.9707 -1.8823
 9596TIP3   OH228726   6.707   5.631   1.252  0.3143  0.5737  0.0304
 9596TIP3    H128727   6.639   5.697   1.264 -1.1167 -0.8828  0.0307
 9596TIP3    H228728   6.742   5.617   1.340 -1.3089 -0.6925  0.4947
 9597TIP3   OH228729   1.304   0.451   2.525 -0.2635 -0.1781 -0.1110
 9597TIP3    H128730   1.270   0.362   2.532  0.6379 -0.4441  1.0098
 9597TIP3    H228731   1.397   0.439   2.504  0.2623  0.4378  1.7156
 9598TIP3   OH228732   6.510   6.823   0.784 -0.0189  0.2235  0.1498
 9598TIP3    H128733   6.489   6.887   0.852 -0.2184  0.7834 -0.4330
 9598TIP3    H228734   6.467   6.743   0.812 -0.1641  0.4762  0.6480
 9599TIP3   OH228735   4.684   1.118   5.771 -0.3677 -0.6144  0.6692
 9599TIP3    H128736   4.677   1.186   5.838 -0.9181 -0.3248  0.3250
 9599TIP3    H228737   4.764   1.139   5.723 -0.9765  0.2836  0.0279
 9600TIP3   OH228738   2.700   1.301   6.781 -0.4310  0.4391  0.1872
 9600TIP3    H128739   2.727   1.299   6.873 -0.8523 -0.2927  0.2981
 9600TIP3    H228740   2.649   1.222   6.769  1.3843 -0.5689 -1.2298
 9601TIP3   OH228741   8.076   7.480   6.886 -0.0915 -0.4657 -0.0521
 9601TIP3    H128742   8.064   7.395   6.928 -1.7402 -1.0871 -1.6913
 9601TIP3    H228743   7.990   7.522   6.890  0.5088  0.7921  0.0124
 9602TIP3   OH228744   4.333   7.783   4.308 -0.0317  0.3091  0.1970
 9602TIP3    H128745   4.371   7.695   4.308  0.4076  0.5019  0.8624
 9602TIP3    H228746   4.391   7.835   4.362 -0.3248  1.0038 -0.1429
 9603TIP3   OH228747   4.002   0.549   5.977  0.1494 -1.1980 -0.0392
 9603TIP3    H128748   4.006   0.605   6.055  1.6748  1.8476 -2.2100
 9603TIP3    H228749   3.908   0.534   5.963 -0.3140  1.2763  0.2691
 9604TIP3   OH228750   4.916   4.284   3.588 -0.1678 -0.1618 -0.1830
 9604TIP3    H128751   4.965   4.206   3.614 -2.0729 -1.4104 -0.2083
 9604TIP3    H228752   4.829   4.251   3.566 -1.1679  2.0418  0.3109
 9605TIP3   OH228753   6.319   0.912   5.831  0.1714  0.5680  0.0453
 9605TIP3    H128754   6.287   0.944   5.747 -1.5947  2.0878  1.2569
 9605TIP3    H228755   6.369   0.985   5.868  1.2373 -0.2084  0.1879
 9606TIP3   OH228756   5.312   0.650   6.591  0.4508  0.8182  0.5521
 9606TIP3    H128757   5.267   0.726   6.553  0.5551  0.1712 -0.8887
 9606TIP3    H228758   5.240   0.594   6.623  0.1146 -0.6712 -2.6171
 9607TIP3   OH228759   3.334   2.261   5.488  0.2955 -0.6676 -0.8404
 9607TIP3    H128760   3.243   2.267   5.457  0.7133 -1.2943 -2.2280
 9607TIP3    H228761   3.382   2.323   5.433  0.6826 -0.2249 -0.0003
 9608TIP3   OH228762   0.695   1.560   6.153 -0.2919 -0.3275  0.0379
 9608TIP3    H128763   0.683   1.653   6.169  0.6877 -0.3257  0.8107
 9608TIP3    H228764   0.788   1.544   6.172 -0.4992 -1.4914  0.1181
 9609TIP3   OH228765   2.840   0.579   6.606  0.3914  0.3755  0.5272
 9609TIP3    H128766   2.899   0.646   6.641  1.2644 -0.2021  0.1811
 9609TIP3    H228767   2.809   0.532   6.683  1.6777 -0.3736  0.6081
 9610TIP3   OH228768   0.584   7.545   6.537 -0.7061  0.2651 -0.3579
 9610TIP3    H128769   0.590   7.510   6.449  0.1180 -1.2840  0.3010
 9610TIP3    H228770   0.592   7.640   6.526 -1.1792  0.1255 -1.9841
 9611TIP3   OH228771   4.639   0.185   5.671 -0.0415  0.3073 -0.3745
 9611TIP3    H128772   4.721   0.233   5.677 -0.5981  1.2138  0.1260
 9611TIP3    H228773   4.618   0.160   5.761 -0.2308 -0.0702 -0.5191
 9612TIP3   OH228774   6.691   3.450   0.185 -0.4128 -0.1379 -0.1261
 9612TIP3    H128775   6.613   3.482   0.229 -0.1469 -1.1119  1.1060
 9612TIP3    H228776   6.763   3.499   0.225 -0.3152  0.1507 -0.6528
 9613TIP3   OH228777   2.554   0.248   5.524 -0.3429  0.1613 -0.6736
 9613TIP3    H128778   2.557   0.343   5.513 -0.2305  0.3899  1.1838
 9613TIP3    H228779   2.646   0.220   5.516 -0.4505  0.0989 -1.8986
 9614TIP3   OH228780   7.871   6.002   1.097  0.1325 -0.2751 -0.1901
 9614TIP3    H128781   7.885   6.088   1.136  2.3127 -0.2660 -0.9313
 9614TIP3    H228782   7.953   5.955   1.113 -0.8846 -2.0860 -0.1473
 9615TIP3   OH228783   5.668   5.238   0.057  0.3177 -0.3371  0.0020
 9615TIP3    H128784   5.662   5.143   0.049 -0.0144 -0.2986 -0.2203
 9615TIP3    H228785   5.651   5.256   0.150  2.1179 -0.6239  0.4063
 9616TIP3   OH228786   3.093   0.785   5.254 -0.1990  0.5100 -0.2521
 9616TIP3    H128787   3.075   0.715   5.191  0.3555  1.0145 -0.9715
 9616TIP3    H228788   3.182   0.767   5.284 -0.3883  0.3887  0.2502
 9617TIP3   OH228789   7.100   3.269   0.040  0.3205  0.1451 -0.3972
 9617TIP3    H128790   7.111   3.332   0.111  2.1223 -0.9530  0.3623
 9617TIP3    H228791   7.187   3.265  -0.001  0.1380 -1.5134 -0.6701
 9618TIP3   OH228792   6.214   1.188   1.422  0.1284  0.1939 -0.4480
 9618TIP3    H128793   6.138   1.145   1.383 -0.1541 -0.6397  1.0197
 9618TIP3    H228794   6.239   1.255   1.358 -1.2040 -0.2175 -1.4032
 9619TIP3   OH228795   5.901   4.423   0.540 -0.0431  0.1113 -0.3485
 9619TIP3    H128796   5.960   4.497   0.528  1.2493 -0.8642 -0.2235
 9619TIP3    H228797   5.830   4.457   0.595  0.4559  1.2854 -0.4248
 9620TIP3   OH228798   4.462   2.563   1.654 -0.5505 -0.1717  0.0778
 9620TIP3    H128799   4.486   2.475   1.684  0.5328  0.5715  1.4698
 9620TIP3    H228800   4.491   2.567   1.563  3.1122  0.0624  1.1573
 9621TIP3   OH228801   5.418   6.027   0.326 -0.2464  0.5907 -0.3824
 9621TIP3    H128802   5.379   6.010   0.411 -0.8118  1.5941 -0.4236
 9621TIP3    H228803   5.450   5.942   0.296 -1.3983 -0.0377  0.1551
 9622TIP3   OH228804   1.635   0.264   5.677  0.6500 -0.5181  0.8776
 9622TIP3    H128805   1.649   0.205   5.603  0.1753  1.5648 -0.9401
 9622TIP3    H228806   1.721   0.301   5.696  0.3551  0.7763 -0.2520
 9623TIP3   OH228807   5.450   5.265   1.728 -0.7753  0.4259 -0.6008
 9623TIP3    H128808   5.521   5.202   1.741 -1.6230 -0.3953  0.1526
 9623TIP3    H228809   5.463   5.331   1.796 -0.3868  0.6052 -0.8462
 9624TIP3   OH228810   0.255   4.399   0.247  0.8676 -0.7686  0.0710
 9624TIP3    H128811   0.267   4.304   0.238 -0.7297 -0.8912 -0.8946
 9624TIP3    H228812   0.211   4.409   0.332 -1.1665 -1.0940 -0.9262
 9625TIP3   OH228813   5.880   7.564   0.960  0.3933  0.0217 -0.6625
 9625TIP3    H128814   5.887   7.583   1.054  0.2173  1.2217 -0.8810
 9625TIP3    H228815   5.823   7.487   0.956 -0.8398  0.8588  0.1546
 9626TIP3   OH228816   5.662   4.447   0.684  0.1124  0.2669 -0.5071
 9626TIP3    H128817   5.589   4.500   0.716 -0.3907 -0.7196  0.0179
 9626TIP3    H228818   5.677   4.383   0.754  0.8805 -0.1108 -1.0131
 9627TIP3   OH228819   8.482   6.827   2.132  0.0155 -0.2174 -0.3565
 9627TIP3    H128820   8.537   6.892   2.177  1.0827 -1.0710 -0.4119
 9627TIP3    H228821   8.473   6.756   2.196 -2.9014  0.8591  0.5178
 9628TIP3   OH228822   2.885   7.568   6.502  0.0186  0.0929  0.6627
 9628TIP3    H128823   2.898   7.596   6.411 -3.4823  0.5785  0.2658
 9628TIP3    H228824   2.873   7.474   6.497 -1.5123  0.2953  0.4596
 9629TIP3   OH228825   0.303   7.448   6.058 -0.2198  0.3279  0.3497
 9629TIP3    H128826   0.265   7.425   6.143 -0.7265 -2.3557 -0.5590
 9629TIP3    H228827   0.397   7.443   6.072 -0.1676  3.5023  1.6638
 9630TIP3   OH228828   1.762   6.785   6.329 -0.0643 -0.6877 -0.5114
 9630TIP3    H128829   1.799   6.845   6.264 -1.3528 -0.0808 -0.6908
 9630TIP3    H228830   1.824   6.712   6.331  1.7110  0.7939 -0.0395
 9631TIP3   OH228831   7.443   4.829   0.688  0.1519  0.8691  0.1366
 9631TIP3    H128832   7.495   4.907   0.667  1.2851  0.0158 -0.2455
 9631TIP3    H228833   7.506   4.765   0.719 -0.3778 -0.8716 -2.2418
 9632TIP3   OH228834   0.708   6.322   4.921 -0.6691  0.1446  0.1899
 9632TIP3    H128835   0.780   6.263   4.901  0.0070  1.2884 -0.8710
 9632TIP3    H228836   0.732   6.404   4.878 -2.7143  0.4756 -0.3801
 9633TIP3   OH228837   0.521   6.132   0.329  0.0055 -0.5896  0.1422
 9633TIP3    H128838   0.609   6.106   0.356  0.1393 -0.1280  0.1530
 9633TIP3    H228839   0.510   6.220   0.364 -0.4435 -0.6261  0.0962
 9634TIP3   OH228840   4.249   3.128   6.516 -0.2924  0.0132 -0.1069
 9634TIP3    H128841   4.222   3.036   6.514  0.3259 -0.2335  1.6857
 9634TIP3    H228842   4.196   3.167   6.585  2.0269  0.1223  1.6774
 9635TIP3   OH228843   6.046   6.685   0.978  0.3190  0.6019  0.4187
 9635TIP3    H128844   6.029   6.759   1.036  2.7502  0.3572  1.4958
 9635TIP3    H228845   6.051   6.610   1.037 -0.3419 -0.1535 -0.4762
 9636TIP3   OH228846   3.855   4.518   0.405  0.4412 -0.1025  0.0006
 9636TIP3    H128847   3.833   4.590   0.347  2.2158 -1.4057 -2.3679
 9636TIP3    H228848   3.935   4.546   0.449 -0.2108  0.3617  0.9062
 9637TIP3   OH228849   6.955   6.589   0.173 -0.1935 -0.1008  0.0388
 9637TIP3    H128850   6.999   6.673   0.187 -0.0277 -0.0080 -1.0001
 9637TIP3    H228851   6.866   6.612   0.149 -0.4198 -0.2530  0.7219
 9638TIP3   OH228852   8.322   6.758   5.688 -0.6776  0.5794 -0.0234
 9638TIP3    H128853   8.282   6.826   5.742 -1.5296 -0.8297  1.1456
 9638TIP3    H228854   8.362   6.697   5.750 -1.5418 -0.9787 -0.9652
 9639TIP3   OH228855   3.035   0.051   2.723 -0.4454  0.1748 -0.0976
 9639TIP3    H128856   3.016   0.144   2.716  0.3952  0.3508 -0.1475
 9639TIP3    H228857   3.009   0.028   2.812  2.3766  1.2156  1.0683
 9640TIP3   OH228858   8.405   7.175   5.481  0.2498 -0.1845 -0.3057
 9640TIP3    H128859   8.340   7.129   5.428  1.7942  0.2737 -2.6680
 9640TIP3    H228860   8.478   7.113   5.488  0.0787 -0.2169  1.2579
 9641TIP3   OH228861   1.959   1.806   5.916  0.2188  0.3504  0.6924
 9641TIP3    H128862   1.873   1.763   5.924  0.2671  0.2032  0.4444
 9641TIP3    H228863   1.988   1.818   6.006  0.0949  0.0822  0.7708
 9642TIP3   OH228864   7.242   6.685   5.441 -0.9065  0.1730 -0.4688
 9642TIP3    H128865   7.252   6.745   5.368  2.3797  1.4988  0.9837
 9642TIP3    H228866   7.262   6.738   5.519 -1.0559 -2.0006  1.1028
 9643TIP3   OH228867   5.984   6.286   0.390  0.0877 -0.2288 -0.1502
 9643TIP3    H128868   6.047   6.225   0.352  0.1189 -2.1820  2.8802
 9643TIP3    H228869   5.899   6.249   0.369 -0.0041  0.5668 -1.2533
 9644TIP3   OH228870   8.215   4.334   5.490 -0.1632 -0.3365  0.1899
 9644TIP3    H128871   8.187   4.406   5.546  1.8477  0.9791 -0.4616
 9644TIP3    H228872   8.310   4.341   5.487 -0.2102 -0.0228 -3.7731
 9645TIP3   OH228873   3.021   3.881   5.421 -0.4620  0.6399 -0.6320
 9645TIP3    H128874   2.966   3.885   5.499  1.6859 -0.2559  0.9918
 9645TIP3    H228875   3.090   3.946   5.436  0.1299  0.2611 -1.6307
 9646TIP3   OH228876   5.403   3.079   5.238 -0.0631  0.1774  0.3492
 9646TIP3    H128877   5.328   3.026   5.210  0.9734 -1.7980  1.1495
 9646TIP3    H228878   5.446   3.106   5.157 -0.3438 -0.6283 -0.0697
 9647TIP3   OH228879   1.873   4.026   0.086 -0.0877  0.1767 -0.1805
 9647TIP3    H128880   1.949   3.997   0.036 -1.1841 -0.8965 -1.2334
 9647TIP3    H228881   1.890   4.119   0.103  0.9946  0.1764 -1.2245
 9648TIP3   OH228882   5.824   6.998   6.092  0.3311  0.4293 -0.3434
 9648TIP3    H128883   5.851   6.940   6.163  1.3706  2.1331  0.6931
 9648TIP3    H228884   5.895   6.992   6.028  0.4740  0.6208 -0.2024
 9649TIP3   OH228885   0.651   7.211   6.143 -0.7242 -0.0740 -0.0782
 9649TIP3    H128886   0.690   7.278   6.199 -0.2095 -0.1837 -0.3028
 9649TIP3    H228887   0.651   7.249   6.056  2.3327 -1.4804 -0.7603
 9650TIP3   OH228888   0.112   6.865   6.926 -0.6329  0.3719  0.8460
 9650TIP3    H128889   0.197   6.907   6.912 -0.6713  0.8174  1.9189
 9650TIP3    H228890   0.122   6.777   6.887  0.3564  0.3709  1.0943
 9651TIP3   OH228891   6.810   4.248   0.153 -0.1535 -0.0147 -0.0797
 9651TIP3    H128892   6.738   4.259   0.214  1.0805 -2.5747  1.9341
 9651TIP3    H228893   6.784   4.174   0.098  0.1390  0.2496 -0.5813
 9652TIP3   OH228894   3.554   0.272   6.196  0.4088 -0.3020  0.2516
 9652TIP3    H128895   3.648   0.274   6.213  0.2388  0.5299  1.0830
 9652TIP3    H228896   3.514   0.266   6.282 -0.3715  1.6389  0.0393
 9653TIP3   OH228897   6.181   2.923   0.308 -0.2547 -0.0643  0.0779
 9653TIP3    H128898   6.096   2.925   0.351 -0.6443 -1.4726 -0.5977
 9653TIP3    H228899   6.176   2.993   0.242 -1.8813 -1.8212 -1.7397
 9654TIP3   OH228900   8.418   5.558   1.093  0.1877  0.5293 -0.4742
 9654TIP3    H128901   8.398   5.638   1.044 -1.1566 -0.3574 -1.4440
 9654TIP3    H228902   8.395   5.487   1.033  2.4859 -0.6051 -0.0725
 9655TIP3   OH228903   7.576   7.433   5.444  0.4939 -0.0524  0.2331
 9655TIP3    H128904   7.566   7.342   5.414  0.5576 -0.5310  1.6280
 9655TIP3    H228905   7.634   7.427   5.519  3.1063  1.5370 -1.5932
 9656TIP3   OH228906   5.774   4.278   0.275 -0.1526  0.0078 -0.1971
 9656TIP3    H128907   5.806   4.265   0.365  2.3419 -2.6099 -1.3953
 9656TIP3    H228908   5.798   4.368   0.254  1.8330 -0.2449  0.8161
 9657TIP3   OH228909   6.856   5.284   1.034  0.2046  0.0989 -0.2386
 9657TIP3    H128910   6.780   5.326   1.074 -0.7800 -1.2373 -0.6644
 9657TIP3    H228911   6.875   5.337   0.957  1.1040  1.7397  1.0849
 9658TIP3   OH228912   5.433   4.076   1.056 -0.3120  0.2777  0.4089
 9658TIP3    H128913   5.477   4.114   0.980  0.2046  0.3094  0.7188
 9658TIP3    H228914   5.340   4.090   1.040 -0.2391 -0.2148 -0.4845
 9659TIP3   OH228915   8.334   5.342   0.014 -0.2216  0.2844  0.5595
 9659TIP3    H128916   8.423   5.378   0.010  0.5076 -1.6095 -1.3055
 9659TIP3    H228917   8.344   5.258   0.057 -0.5423 -1.4418 -2.5981
 9660TIP3   OH228918   1.836   2.692   6.394 -0.2265 -0.2119  0.1220
 9660TIP3    H128919   1.822   2.597   6.400 -1.3188 -0.0690 -0.1970
 9660TIP3    H228920   1.913   2.701   6.338  0.5969 -0.9564  1.1107
 9661TIP3   OH228921   5.035   2.982   5.903 -0.0259  0.3169 -0.1435
 9661TIP3    H128922   5.010   2.959   5.992  1.4533 -0.6643  0.0279
 9661TIP3    H228923   4.978   2.929   5.847 -1.2955  1.3006  0.2022
 9662TIP3   OH228924   7.402   7.130   2.752  0.0766 -0.3011 -0.3331
 9662TIP3    H128925   7.424   7.113   2.660 -1.2122 -1.6771 -0.4010
 9662TIP3    H228926   7.442   7.058   2.800  0.9528  0.5474  0.2353
 9663TIP3   OH228927   3.439   0.369   5.851  0.4890 -0.1480 -0.2618
 9663TIP3    H128928   3.520   0.337   5.810 -0.1410 -2.0191 -0.0963
 9663TIP3    H228929   3.392   0.411   5.779  1.5094  0.7449 -0.4115
 9664TIP3   OH228930   3.321   1.154   6.077  0.2091 -0.0993 -0.2837
 9664TIP3    H128931   3.312   1.073   6.027 -0.1701 -0.1017 -0.2099
 9664TIP3    H228932   3.300   1.223   6.013 -0.8453 -0.1318  0.0249
 9665TIP3   OH228933   2.473   2.123   6.523 -0.3148  1.0627 -0.1387
 9665TIP3    H128934   2.547   2.154   6.472  0.0990  1.6983  0.8396
 9665TIP3    H228935   2.512   2.069   6.592 -0.8464  0.4231 -0.3377
 9666TIP3   OH228936   7.305   6.786   0.761 -0.3849  0.2546  0.0332
 9666TIP3    H128937   7.343   6.817   0.843  1.0143 -2.0098  0.2746
 9666TIP3    H228938   7.266   6.701   0.784 -1.4982  0.4057 -1.2687
 9667TIP3   OH228939   4.485   4.507   2.276 -0.2631 -0.1317  0.2466
 9667TIP3    H128940   4.541   4.452   2.221 -1.2058 -1.4450  0.5723
 9667TIP3    H228941   4.406   4.521   2.225 -0.2262  0.5247  0.3656
 9668TIP3   OH228942   8.258   4.860   1.599 -0.3938 -0.4214  0.0798
 9668TIP3    H128943   8.265   4.777   1.646  1.0815  0.3590  1.3004
 9668TIP3    H228944   8.341   4.866   1.550 -1.1969 -0.4297 -1.3080
 9669TIP3   OH228945   8.160   3.210   0.159  0.1899  0.1988  0.1692
 9669TIP3    H128946   8.109   3.199   0.239 -1.3875  1.0476 -0.7110
 9669TIP3    H228947   8.188   3.301   0.159 -0.8502  0.5290 -0.8470
 9670TIP3   OH228948   6.885   4.806   2.778 -0.3242 -0.4078  0.5569
 9670TIP3    H128949   6.808   4.800   2.721 -0.5383  0.0768  0.7947
 9670TIP3    H228950   6.879   4.893   2.817 -0.5347 -0.9850  1.8213
 9671TIP3   OH228951   7.388   6.582   3.727 -0.2322 -0.5310  0.2597
 9671TIP3    H128952   7.346   6.600   3.644  1.8470  1.7119 -0.3556
 9671TIP3    H228953   7.333   6.625   3.792  0.2379  1.0788 -0.3837
 9672TIP3   OH228954   5.969   5.893   0.164  0.0255  0.5308 -0.0710
 9672TIP3    H128955   6.037   5.906   0.098 -1.5439 -1.9967 -2.2836
 9672TIP3    H228956   5.897   5.949   0.136  0.5525  2.0153  1.4151
 9673TIP3   OH228957   8.395   7.200   5.827  1.0585 -0.4387 -0.2630
 9673TIP3    H128958   8.477   7.242   5.855  0.3302  1.1524 -0.4898
 9673TIP3    H228959   8.391   7.216   5.733  0.2484 -0.1130 -0.1750
 9674TIP3   OH228960   0.741   2.035   5.312  0.2743  0.6711  0.3937
 9674TIP3    H128961   0.794   2.086   5.374  0.6272  0.6387  0.1194
 9674TIP3    H228962   0.755   1.944   5.339  0.5537  0.6472  0.1656
 9675TIP3   OH228963   3.641   7.921   0.287  0.1548 -0.5093  0.0865
 9675TIP3    H128964   3.552   7.933   0.253  0.1259  0.9008  0.6357
 9675TIP3    H228965   3.651   7.826   0.294 -0.7120 -0.7525 -1.5361
 9676TIP3   OH228966   0.753   5.120   0.118 -0.6680  0.6149 -0.0231
 9676TIP3    H128967   0.702   5.108   0.199  1.0847  0.9087  1.1647
 9676TIP3    H228968   0.736   5.211   0.093 -0.5646  0.7864  0.5088
 9677TIP3   OH228969   6.134   7.484   0.865  0.5355 -0.0023  0.4292
 9677TIP3    H128970   6.055   7.477   0.919  0.0369 -1.3903 -0.4511
 9677TIP3    H228971   6.105   7.461   0.777  1.3079  2.3956 -0.4964
 9678TIP3   OH228972   0.530   4.785   1.331 -0.2289 -0.4878 -0.1560
 9678TIP3    H128973   0.437   4.805   1.322  0.0418  1.2854  0.8604
 9678TIP3    H228974   0.568   4.863   1.372  1.6685 -1.2747 -0.3640
 9679TIP3   OH228975   3.139   0.250   4.981  0.1516  0.3233  0.0558
 9679TIP3    H128976   3.109   0.200   5.057 -0.4626  1.1784  0.3865
 9679TIP3    H228977   3.113   0.340   5.000 -0.0496  0.5378 -1.1886
 9680TIP3   OH228978   6.665   2.647   6.817 -0.0890  0.6263  0.6157
 9680TIP3    H128979   6.630   2.581   6.758 -1.4629  0.6725  1.3512
 9680TIP3    H228980   6.658   2.729   6.768 -1.6049  0.7272  0.9631
 9681TIP3   OH228981   6.027   3.297   0.482 -0.3343  0.5794  0.1957
 9681TIP3    H128982   6.026   3.216   0.430 -1.1985  1.3997 -1.0708
 9681TIP3    H228983   5.940   3.334   0.470 -1.5601 -0.6294  4.4983
 9682TIP3   OH228984   0.664   4.659   0.811 -0.1538 -0.3603  0.1002
 9682TIP3    H128985   0.730   4.722   0.782 -0.4684 -0.7523 -1.4884
 9682TIP3    H228986   0.642   4.609   0.733 -2.0024 -0.5417  0.7098
 9683TIP3   OH228987   5.886   1.116   6.056  0.3464  0.3769 -0.3012
 9683TIP3    H128988   5.944   1.098   6.129  1.1790  2.1903 -0.4943
 9683TIP3    H228989   5.944   1.132   5.982 -0.3900  1.6539 -0.6232
 9684TIP3   OH228990   7.970   4.219   1.233  0.0931  0.3576 -0.3783
 9684TIP3    H128991   7.954   4.313   1.227  1.0168  0.4869 -1.0245
 9684TIP3    H228992   8.006   4.196   1.147  0.7317 -0.4082  0.0921
 9685TIP3   OH228993   7.466   5.319   1.616  0.1639  0.6560  0.1752
 9685TIP3    H128994   7.475   5.411   1.591  0.2805  0.4540 -0.5310
 9685TIP3    H228995   7.372   5.307   1.631 -0.0676  0.4582 -1.4070
 9686TIP3   OH228996   5.828   4.809   2.112  0.4959 -0.3724 -0.3349
 9686TIP3    H128997   5.803   4.772   2.196  0.5915 -0.3766 -0.3087
 9686TIP3    H228998   5.918   4.779   2.098  0.5052 -0.3123 -0.4044
 9687TIP3   OH228999   4.766   0.184   4.998  0.1733  0.2249 -0.1891
 9687TIP3    H129000   4.854   0.149   4.982 -0.6552 -1.6742 -0.7130
 9687TIP3    H229001   4.729   0.125   5.064 -0.4187  1.5031  0.6220
 9688TIP3   OH229002   7.261   5.577   1.678 -0.1383 -0.4141 -0.3082
 9688TIP3    H129003   7.257   5.483   1.657 -0.9386  0.0131 -2.1151
 9688TIP3    H229004   7.351   5.602   1.658 -0.0777 -0.6552 -0.3420
 9689TIP3   OH229005   7.861   3.542   0.450  0.4522  0.0833 -0.6031
 9689TIP3    H129006   7.805   3.595   0.508  1.3790 -0.0416  0.4269
 9689TIP3    H229007   7.802   3.474   0.417  0.2751 -0.8315  1.5160
 9690TIP3   OH229008   3.503   7.461   6.118 -0.1181 -0.0691 -0.2970
 9690TIP3    H129009   3.563   7.473   6.044 -0.0105  1.1852 -0.0260
 9690TIP3    H229010   3.561   7.446   6.193 -0.2274 -1.3483 -0.4606
 9691TIP3   OH229011   8.399   4.986   0.438  0.4316 -0.3387 -0.0133
 9691TIP3    H129012   8.405   4.978   0.533  1.7343 -0.1020 -0.0650
 9691TIP3    H229013   8.351   4.908   0.410 -2.2548  0.8841  1.0496
 9692TIP3   OH229014   4.281   3.064   5.783 -0.1594 -0.2407 -0.0656
 9692TIP3    H129015   4.242   3.098   5.702  2.0003  1.9048 -0.2537
 9692TIP3    H229016   4.207   3.058   5.844 -1.6324 -0.9036 -1.8417
 9693TIP3   OH229017   3.771   5.526   0.468 -0.1166  0.0201 -0.4988
 9693TIP3    H129018   3.697   5.579   0.440  1.2365  1.9167 -0.5732
 9693TIP3    H229019   3.848   5.580   0.448  1.1403 -0.8096  1.9793
 9694TIP3   OH229020   6.285   6.534   0.456 -0.0371 -0.0461 -0.0940
 9694TIP3    H129021   6.370   6.540   0.412 -1.3853 -1.5660 -3.0037
 9694TIP3    H229022   6.288   6.451   0.504  0.6675  0.6491  1.1039
 9695TIP3   OH229023   7.660   5.881   1.252 -0.2347  1.4591  0.0835
 9695TIP3    H129024   7.723   5.911   1.187  0.4192 -0.9489 -0.4649
 9695TIP3    H229025   7.694   5.912   1.335  2.3530 -0.7319 -0.0848
 9696TIP3   OH229026   4.918   3.813   0.935 -0.3259  0.1041  0.0666
 9696TIP3    H129027   4.884   3.725   0.919 -2.8695  1.1705 -0.7070
 9696TIP3    H229028   4.976   3.803   1.010 -2.8700 -1.7635  1.8751
 9697TIP3   OH229029   3.378   1.923   6.607 -0.3729 -0.2231 -0.0947
 9697TIP3    H129030   3.322   1.846   6.596  0.7483 -1.3807  2.0366
 9697TIP3    H229031   3.319   1.990   6.642 -0.3421 -1.6030  2.6695
 9698TIP3   OH229032   3.525   1.727   5.484 -0.2852 -0.7930 -0.3852
 9698TIP3    H129033   3.431   1.712   5.472 -0.9376  2.5470  0.2516
 9698TIP3    H229034   3.552   1.778   5.407  0.6589 -0.3272  0.2447
 9699TIP3   OH229035   4.420   3.883   6.678  0.8761  0.2216 -0.1980
 9699TIP3    H129036   4.380   3.905   6.593  0.7316  1.5458  0.2053
 9699TIP3    H229037   4.508   3.853   6.655  0.6423  0.0181 -0.8629
 9700TIP3   OH229038   5.764   6.479   1.827 -0.1996 -0.1479  0.2922
 9700TIP3    H129039   5.815   6.404   1.856  0.4278  0.3784  0.5520
 9700TIP3    H229040   5.800   6.553   1.875 -1.6081  0.1340  0.9336
 9701TIP3   OH229041   2.903   0.462   6.353 -0.4949 -0.1658  0.5594
 9701TIP3    H129042   2.826   0.469   6.297 -0.7081  1.6336  1.0417
 9701TIP3    H229043   2.871   0.480   6.441  0.4542  0.4729  0.7771
 9702TIP3   OH229044   1.970   2.825   4.900 -0.1781  0.1824  0.1034
 9702TIP3    H129045   1.917   2.901   4.878  0.7556  0.4942 -1.1499
 9702TIP3    H229046   1.989   2.784   4.816 -0.8190 -1.5440  0.7839
 9703TIP3   OH229047   7.503   5.673   2.852  0.3313  0.1153  0.1205
 9703TIP3    H129048   7.555   5.751   2.873  1.5893 -0.8572  0.7062
 9703TIP3    H229049   7.414   5.697   2.875  0.6884  1.4324  0.1762
 9704TIP3   OH229050   3.431   3.640   6.378 -0.7350 -0.2963  0.0350
 9704TIP3    H129051   3.503   3.674   6.430 -0.2039  1.1561 -1.5857
 9704TIP3    H229052   3.470   3.621   6.293 -2.0344 -0.4937 -0.5279
 9705TIP3   OH229053   3.580   0.817   6.223 -0.6384 -0.1705 -0.2881
 9705TIP3    H129054   3.537   0.762   6.289  0.5953 -1.4189 -0.4983
 9705TIP3    H229055   3.532   0.800   6.142 -4.0970  3.5997  0.7523
 9706TIP3   OH229056   3.478   2.224   6.809  0.0200 -0.3787 -0.5320
 9706TIP3    H129057   3.562   2.181   6.796  0.2417  0.3136 -1.4140
 9706TIP3    H229058   3.439   2.228   6.722  0.4269  2.0491 -0.6392
 9707TIP3   OH229059   1.605   7.544   5.345  0.1122  0.3303 -0.0250
 9707TIP3    H129060   1.577   7.635   5.336 -0.5434  0.1018 -0.3122
 9707TIP3    H229061   1.529   7.499   5.380  0.7816  0.0940  1.1458
 9708TIP3   OH229062   6.759   7.568   2.008 -0.1149 -0.5896  0.9884
 9708TIP3    H129063   6.766   7.477   2.036 -0.7588 -1.1244 -0.5580
 9708TIP3    H229064   6.666   7.581   1.992  0.2331 -0.2902 -0.8495
 9709TIP3   OH229065   3.593   6.580   3.624  0.5190 -0.1658  0.5796
 9709TIP3    H129066   3.545   6.594   3.542 -1.7239  0.0757  1.8955
 9709TIP3    H229067   3.660   6.648   3.624 -0.2635  0.6333 -0.4907
 9710TIP3   OH229068   8.435   3.916   1.665 -0.2083  0.0966  0.0534
 9710TIP3    H129069   8.484   3.866   1.600  0.8426  0.2991  0.6735
 9710TIP3    H229070   8.361   3.859   1.688  0.3791 -0.7159 -0.0464
 9711TIP3   OH229071   6.949   4.851   1.109  0.0209 -0.3607 -0.4897
 9711TIP3    H129072   6.856   4.850   1.090  0.5100 -0.0978 -3.0408
 9711TIP3    H229073   6.977   4.760   1.096  0.1468 -0.4221  0.1861
 9712TIP3   OH229074   8.468   3.979   1.359 -0.4580 -0.0313 -0.3215
 9712TIP3    H129075   8.378   3.999   1.335  0.0237  0.7354 -1.5737
 9712TIP3    H229076   8.511   4.064   1.365  0.2423 -0.4027  0.0029
 9713TIP3   OH229077   5.087   0.488   5.895 -0.1220 -0.5038  0.8505
 9713TIP3    H129078   5.168   0.536   5.911 -0.6543  0.6764  0.1222
 9713TIP3    H229079   5.115   0.398   5.878  1.1151  0.0798 -0.2803
 9714TIP3   OH229080   4.042   0.424   6.406 -0.4282 -0.2305 -0.5557
 9714TIP3    H129081   4.095   0.500   6.384 -1.4490  0.7548  0.3092
 9714TIP3    H229082   3.962   0.461   6.444 -1.3279 -1.7135 -0.9861
 9715TIP3   OH229083   7.769   7.235   0.471  0.6915 -0.1618 -0.0805
 9715TIP3    H129084   7.810   7.150   0.452 -0.6280 -0.6746 -0.6985
 9715TIP3    H229085   7.682   7.213   0.504  0.4422  0.9470  0.0218
 9716TIP3   OH229086   7.637   6.729   0.220 -0.3260  0.3996 -0.1023
 9716TIP3    H129087   7.660   6.766   0.135 -0.1284  1.4084  0.3814
 9716TIP3    H229088   7.583   6.796   0.262  0.3239  0.2947  0.9263
 9717TIP3   OH229089   0.614   2.184   6.712 -0.5114  0.0571 -0.0398
 9717TIP3    H129090   0.615   2.115   6.646 -0.6203 -0.1666  0.1876
 9717TIP3    H229091   0.616   2.266   6.663 -5.1107  0.0035 -0.5392
 9718TIP3   OH229092   5.662   4.803   0.826  0.6711 -0.2370 -0.4625
 9718TIP3    H129093   5.741   4.774   0.872  1.3252 -0.3863 -1.6474
 9718TIP3    H229094   5.603   4.727   0.829  2.3255 -1.7073 -3.4396
 9719TIP3   OH229095   8.336   6.921   0.474 -0.4056 -0.1680 -0.0012
 9719TIP3    H129096   8.286   6.865   0.534 -2.0654  0.9531 -0.2973
 9719TIP3    H229097   8.414   6.870   0.452 -2.9158 -3.3193 -2.0058
 9720TIP3   OH229098   5.847   1.591   5.812 -0.0816 -0.0015  0.1006
 9720TIP3    H129099   5.830   1.548   5.728 -1.2694  0.5982  0.0195
 9720TIP3    H229100   5.858   1.519   5.874 -0.4914 -0.4441 -0.3331
 9721TIP3   OH229101   7.792   5.207   0.154 -0.2469 -0.2079  0.0574
 9721TIP3    H129102   7.791   5.302   0.142 -1.2276 -0.1746  0.3023
 9721TIP3    H229103   7.758   5.194   0.242  0.4151 -0.7655  0.2317
 9722TIP3   OH229104   7.570   6.176   1.941  0.3702  0.0433  0.6498
 9722TIP3    H129105   7.566   6.193   2.035  0.8709 -1.7793  1.0149
 9722TIP3    H229106   7.609   6.255   1.904 -0.9884  1.2816  1.8156
 9723TIP3   OH229107   0.654   5.894   1.540 -0.0169  0.3292 -0.0114
 9723TIP3    H129108   0.575   5.845   1.564 -0.3936  0.7742 -0.3270
 9723TIP3    H229109   0.643   5.912   1.447  0.1579  0.9436  0.0852
 9724TIP3   OH229110   5.972   4.999   1.186 -0.3740 -0.3249  0.4441
 9724TIP3    H129111   6.040   4.940   1.155 -0.4508 -1.2961  2.0720
 9724TIP3    H229112   5.977   4.994   1.281 -1.7799  0.6834  0.5951
 9725TIP3   OH229113   0.004   4.398   1.576  0.6388 -0.0036  0.0262
 9725TIP3    H129114  -0.005   4.405   1.481  1.0503 -1.0829 -0.1002
 9725TIP3    H229115   0.043   4.312   1.590 -0.8203 -0.4665  1.2672
 9726TIP3   OH229116   4.588   0.278   6.600  0.4728 -0.2538  0.2873
 9726TIP3    H129117   4.496   0.290   6.575  0.1219 -0.7852  1.3126
 9726TIP3    H229118   4.586   0.268   6.695  1.4779 -1.4653  0.1887
 9727TIP3   OH229119   6.145   0.709   5.818 -0.5197  0.7928 -0.4137
 9727TIP3    H129120   6.208   0.780   5.829 -0.5831  0.7168  0.4688
 9727TIP3    H229121   6.068   0.737   5.868 -0.5913  0.1693 -0.1693
 9728TIP3   OH229122   4.388   1.566   6.417 -0.0032 -0.4342 -0.1394
 9728TIP3    H129123   4.479   1.573   6.389  0.3563 -2.2793  0.5297
 9728TIP3    H229124   4.378   1.632   6.485  1.2387 -1.1962  0.7943
 9729TIP3   OH229125   6.225   0.812   6.200 -0.0736 -0.4542  0.1094
 9729TIP3    H129126   6.209   0.907   6.205  0.5630 -0.3235 -0.3068
 9729TIP3    H229127   6.187   0.777   6.280 -0.1362  0.1819  0.3585
 9730TIP3   OH229128   4.731   0.022   6.576  0.4512 -0.4327  0.1617
 9730TIP3    H129129   4.719   0.027   6.481  2.5282  1.8149 -0.0262
 9730TIP3    H229130   4.694   0.104   6.609  2.3346  0.1312  0.9656
 9731TIP3   OH229131   5.695   2.146   6.830 -0.1476  0.0813  0.1215
 9731TIP3    H129132   5.701   2.222   6.888 -1.3533  1.3206 -1.3339
 9731TIP3    H229133   5.608   2.152   6.791  0.3884 -1.1064 -1.3136
 9732TIP3   OH229134   6.202   5.400   1.156 -0.3479  0.0481  0.2417
 9732TIP3    H129135   6.206   5.475   1.215  0.8017  0.3196 -0.1743
 9732TIP3    H229136   6.242   5.328   1.206  1.2951  0.4558 -0.4554
 9733TIP3   OH229137   1.136   4.447   0.142  0.4781 -0.4398 -0.3084
 9733TIP3    H129138   1.056   4.450   0.194 -0.1857 -1.7845 -1.2359
 9733TIP3    H229139   1.207   4.461   0.205 -0.4206 -0.2687  0.6669
 9734TIP3   OH229140   0.768   6.611   1.140  0.3798  0.3849 -0.4163
 9734TIP3    H129141   0.717   6.692   1.148 -0.2743  0.1682 -2.1613
 9734TIP3    H229142   0.857   6.636   1.164 -0.0351  1.3469  0.1733
 9735TIP3   OH229143   0.861   3.594   0.255  0.0963  0.1833 -0.2904
 9735TIP3    H129144   0.877   3.510   0.298  0.6054 -0.5725 -1.9067
 9735TIP3    H229145   0.893   3.659   0.318 -0.0634 -0.8306  0.8699
 9736TIP3   OH229146   6.403   1.364   6.972  0.7019 -0.5799 -0.1201
 9736TIP3    H129147   6.326   1.372   6.915 -0.2318 -1.1970  1.0291
 9736TIP3    H229148   6.477   1.386   6.915 -0.5301  2.4944 -0.6001
 9737TIP3   OH229149   5.611   1.020   6.831  0.7347 -0.1482  0.3946
 9737TIP3    H129150   5.582   1.043   6.920  0.3441 -0.2913  0.3030
 9737TIP3    H229151   5.609   0.924   6.829 -0.7048 -0.1078 -0.2507
 9738TIP3   OH229152   0.116   3.611   0.896 -0.2616 -0.0450 -0.1153
 9738TIP3    H129153   0.195   3.558   0.888  0.2953  0.7191  0.2165
 9738TIP3    H229154   0.077   3.611   0.809 -0.6971 -1.6443  0.0589
 9739TIP3   OH229155   0.320   6.392   1.002  0.2490 -0.1217 -0.3891
 9739TIP3    H129156   0.278   6.363   0.920 -0.6429  0.2897 -0.0884
 9739TIP3    H229157   0.264   6.463   1.033 -0.2049 -1.1900  1.2919
 9740TIP3   OH229158   6.968   5.273   1.403 -0.4578  0.5098  0.5357
 9740TIP3    H129159   6.983   5.241   1.314  0.0808  1.5621  0.2376
 9740TIP3    H229160   6.965   5.194   1.456 -0.6356 -0.1241 -0.3925
 9741TIP3   OH229161   4.367   3.304   5.261 -0.3274  0.0217 -0.1739
 9741TIP3    H129162   4.429   3.250   5.212 -0.8648  0.3203 -1.1966
 9741TIP3    H229163   4.413   3.326   5.342  0.6926 -0.2089 -0.6871
 9742TIP3   OH229164   0.697   5.074   2.275 -0.6404 -0.5227 -0.2543
 9742TIP3    H129165   0.648   5.113   2.347  0.6423  0.2763  0.2116
 9742TIP3    H229166   0.716   4.984   2.304 -1.5917 -0.7471 -0.3307
 9743TIP3   OH229167   8.188   2.866   0.051 -0.2194  0.2362 -0.3432
 9743TIP3    H129168   8.161   2.794  -0.006  1.1011  0.1458 -0.8615
 9743TIP3    H229169   8.203   2.824   0.136  0.9140 -0.1621 -0.7405
 9744TIP3   OH229170   1.096   7.889   6.486  0.4702  0.6736 -0.2673
 9744TIP3    H129171   1.180   7.862   6.523 -0.1315 -0.0875  0.5970
 9744TIP3    H229172   1.073   7.818   6.426 -1.8648 -1.7093  3.1779
 9745TIP3   OH229173   5.424   7.398   4.768  0.9816 -0.4184  0.4292
 9745TIP3    H129174   5.432   7.341   4.691  2.0673  1.1872 -0.6897
 9745TIP3    H229175   5.331   7.419   4.773  0.8877 -0.6176 -0.3745
 9746TIP3   OH229176   6.784   6.006   0.354 -0.1909 -0.0085 -0.7769
 9746TIP3    H129177   6.704   6.053   0.377  0.1376 -0.9229  2.4693
 9746TIP3    H229178   6.791   5.936   0.418  3.3058  0.1505 -0.8488
 9747TIP3   OH229179   3.245   1.689   6.505 -0.3825  0.2927 -0.4111
 9747TIP3    H129180   3.311   1.620   6.512 -0.5510  0.1407 -0.3249
 9747TIP3    H229181   3.163   1.645   6.526 -0.5272  0.4546 -0.6369
 9748TIP3   OH229182   4.636   0.752   0.399 -0.6086  0.7588  0.3014
 9748TIP3    H129183   4.597   0.667   0.377 -0.6158  0.4665  1.4052
 9748TIP3    H229184   4.588   0.815   0.345 -1.8346  0.2614  0.7964
 9749TIP3   OH229185   7.373   7.288   2.256  0.7585 -0.1574 -0.2422
 9749TIP3    H129186   7.306   7.238   2.209  0.6143  0.1237 -0.3370
 9749TIP3    H229187   7.445   7.295   2.194  1.5825 -1.9706  0.4750
 9750TIP3   OH229188   6.293   2.177   5.098 -0.1645 -0.2628  0.4845
 9750TIP3    H129189   6.282   2.231   5.019  0.7514 -0.4801  0.2017
 9750TIP3    H229190   6.305   2.241   5.168 -0.1055 -0.0868  0.3151
 9751TIP3   OH229191   6.041   1.498   6.449 -0.1327 -0.5715  0.5810
 9751TIP3    H129192   6.074   1.588   6.446 -2.9526  0.5221  0.4347
 9751TIP3    H229193   6.030   1.473   6.358  0.7940 -1.1262  0.6205
 9752TIP3   OH229194   7.939   5.969   2.617  0.4951 -0.1397  0.1488
 9752TIP3    H129195   7.904   5.899   2.562  0.1962  0.8555 -0.9537
 9752TIP3    H229196   7.893   6.048   2.587 -0.4749  0.2615  2.5650
 9753TIP3   OH229197   6.534   7.236   1.988  0.1556  0.0154 -0.2654
 9753TIP3    H129198   6.619   7.275   1.968  0.9586 -1.1586  0.7485
 9753TIP3    H229199   6.510   7.190   1.907 -0.7213  2.4103 -1.3988
 9754TIP3   OH229200   8.507   7.235   1.104 -0.0037 -0.5422  0.0120
 9754TIP3    H129201   8.449   7.250   1.179  0.0043 -0.2097 -0.0477
 9754TIP3    H229202   8.483   7.148   1.072  0.2005 -0.8160  0.5872
 9755TIP3   OH229203   4.872   0.345   6.254  1.0382  0.0041 -0.0743
 9755TIP3    H129204   4.851   0.413   6.190 -0.8085 -0.6216 -0.1618
 9755TIP3    H229205   4.867   0.263   6.205 -2.9977 -0.7292  1.3773
 9756TIP3   OH229206   8.419   4.683   2.688 -0.1945  0.2687  0.5316
 9756TIP3    H129207   8.415   4.592   2.718  1.6977  0.9392  2.9683
 9756TIP3    H229208   8.328   4.704   2.664 -0.8656 -1.8874  1.0374
 9757TIP3   OH229209   6.079   7.874   5.051  0.3668 -0.0089 -0.5513
 9757TIP3    H129210   5.984   7.884   5.045  0.0829 -2.1960 -0.3463
 9757TIP3    H229211   6.091   7.787   5.088  2.4704 -0.4975 -2.2600
 9758TIP3   OH229212   6.966   5.122   0.830 -0.1295  0.1815 -0.3094
 9758TIP3    H129213   6.934   5.162   0.911 -1.0933  1.2781 -1.1967
 9758TIP3    H229214   7.032   5.059   0.858 -0.8817  0.1069  1.3693
 9759TIP3   OH229215   7.061   1.717   6.628 -0.2172  0.0506  0.4718
 9759TIP3    H129216   7.092   1.677   6.547 -1.2633 -0.3646  0.2675
 9759TIP3    H229217   7.096   1.662   6.698  0.2260  0.0903  0.2826
 9760TIP3   OH229218   4.004   2.242   6.758 -0.5052 -0.2485  0.1827
 9760TIP3    H129219   4.066   2.303   6.721  0.0188 -0.8853  0.0046
 9760TIP3    H229220   4.012   2.254   6.853 -1.0990  0.6334  0.1317
 9761TIP3   OH229221   8.177   6.125   1.506  0.0362 -0.2475  0.2387
 9761TIP3    H129222   8.248   6.151   1.448 -2.4246  2.5648 -1.6154
 9761TIP3    H229223   8.123   6.066   1.454 -0.2750 -0.5258  0.8666
 9762TIP3   OH229224   0.641   6.441   0.206 -0.2316  0.2269 -0.3213
 9762TIP3    H129225   0.728   6.408   0.226 -0.1885  0.7515  0.3652
 9762TIP3    H229226   0.615   6.394   0.126  0.1881 -0.7878  0.1393
 9763TIP3   OH229227   1.215   3.939   0.981 -0.4067 -0.2454 -0.0453
 9763TIP3    H129228   1.273   3.884   0.928 -1.4344  0.9448 -2.4291
 9763TIP3    H229229   1.130   3.896   0.977 -0.5007 -0.1319  0.6348
 9764TIP3   OH229230   6.135   4.316   0.548 -0.1025 -0.2623 -0.0209
 9764TIP3    H129231   6.044   4.343   0.551  0.2274  0.9509 -0.5432
 9764TIP3    H229232   6.166   4.328   0.638  0.3359  2.2460 -0.4654
 9765TIP3   OH229233   6.809   7.589   1.106 -0.2860  0.0866 -0.2555
 9765TIP3    H129234   6.874   7.588   1.176 -0.7004  4.9227  0.3826
 9765TIP3    H229235   6.780   7.498   1.099  1.0247 -0.8813  4.6701
 9766TIP3   OH229236   0.053   3.752   1.132  0.1885 -0.4516  0.3794
 9766TIP3    H129237   0.090   3.704   1.205  1.7459 -0.7468 -0.5872
 9766TIP3    H229238   0.056   3.691   1.059 -0.0191  0.3178 -0.2850
 9767TIP3   OH229239   6.256   1.557   4.716 -0.0267 -0.0771 -0.1523
 9767TIP3    H129240   6.212   1.574   4.633  1.2496  2.4822 -0.3323
 9767TIP3    H229241   6.346   1.537   4.692 -0.1254 -1.4154  0.5017
 9768TIP3   OH229242   6.289   5.696   1.080  0.4780 -0.3663  0.1094
 9768TIP3    H129243   6.232   5.656   1.146 -0.1220  0.2245 -0.0559
 9768TIP3    H229244   6.269   5.649   0.999 -0.1871  0.2164 -0.0722
 9769TIP3   OH229245   2.687   6.355   0.389 -0.0767 -0.4558 -0.4806
 9769TIP3    H129246   2.734   6.281   0.426  1.3329 -0.3988 -2.1080
 9769TIP3    H229247   2.732   6.432   0.423 -1.3729 -0.3111  0.9901
 9770TIP3   OH229248   0.748   5.188   0.685 -0.6984 -0.2229 -0.0490
 9770TIP3    H129249   0.696   5.110   0.706 -1.0097  0.1744  0.6668
 9770TIP3    H229250   0.759   5.184   0.590 -0.0078 -1.5856  0.0657
 9771TIP3   OH229251   0.590   3.289   0.889  0.6005  0.2486 -0.0010
 9771TIP3    H129252   0.659   3.289   0.955  0.3716  0.3025  0.2364
 9771TIP3    H229253   0.511   3.313   0.936  0.1861 -1.0104 -0.0198
 9772TIP3   OH229254   3.167   7.873   6.107 -0.3474 -0.8665  0.3538
 9772TIP3    H129255   3.210   7.922   6.177 -0.1356 -0.9580  0.2871
 9772TIP3    H229256   3.226   7.800   6.089 -0.4255 -0.8697  0.1133
 9773TIP3   OH229257   4.866   0.773   6.732  0.5187  0.3888  0.2039
 9773TIP3    H129258   4.827   0.846   6.780 -0.4284 -0.9413  1.4891
 9773TIP3    H229259   4.800   0.704   6.735  0.9600 -0.1560 -1.9564
 9774TIP3   OH229260   5.736   7.818   1.540  0.1535  0.0559 -0.1565
 9774TIP3    H129261   5.698   7.903   1.518 -0.8333 -0.3451 -0.0229
 9774TIP3    H229262   5.787   7.835   1.619  2.0801  1.0690 -1.5862
 9775TIP3   OH229263   7.912   4.717   0.910  0.5893  0.2829  0.1775
 9775TIP3    H129264   7.970   4.762   0.972  1.2634 -0.3286 -0.0036
 9775TIP3    H229265   7.939   4.751   0.824  0.3780  0.3281  0.1290
 9776TIP3   OH229266   8.112   5.332   1.650  0.0014 -0.2906 -0.1208
 9776TIP3    H129267   8.180   5.265   1.656  0.3543  0.0166 -0.6238
 9776TIP3    H229268   8.055   5.301   1.579  1.3592  0.9946 -1.8123
 9777TIP3   OH229269   6.866   0.263   5.097 -0.0858  0.2832 -0.3706
 9777TIP3    H129270   6.776   0.296   5.101  0.2526  1.0896  0.6438
 9777TIP3    H229271   6.892   0.252   5.188  1.5630  2.0147 -0.5987
 9778TIP3   OH229272   6.535   0.651   6.818  0.2199  0.0632 -0.0933
 9778TIP3    H129273   6.627   0.630   6.834 -0.0834 -1.8397 -0.7190
 9778TIP3    H229274   6.524   0.642   6.723 -0.4491  0.9537 -0.1082
 9779TIP3   OH229275   4.647   1.544   6.392  0.4557  0.2979 -0.6426
 9779TIP3    H129276   4.712   1.523   6.459  0.3139  0.2840 -0.5081
 9779TIP3    H229277   4.696   1.590   6.324  0.8202 -0.7202 -1.0770
 9780TIP3   OH229278   8.417   3.926   2.722 -0.2327  0.2517 -0.2009
 9780TIP3    H129279   8.506   3.915   2.692  0.2491 -0.5409  1.4526
 9780TIP3    H229280   8.425   3.974   2.805 -1.3555  0.5144 -0.2274
 9781TIP3   OH229281   6.076   6.441   1.121  0.4385  0.4004 -0.2698
 9781TIP3    H129282   6.131   6.400   1.188 -1.2233 -1.0898  0.2156
 9781TIP3    H229283   6.080   6.381   1.047  0.6198  1.0093 -0.7526
 9782TIP3   OH229284   0.731   3.818   0.577 -0.1317  0.6838 -0.4042
 9782TIP3    H129285   0.733   3.885   0.645 -1.3080 -1.4536  1.7836
 9782TIP3    H229286   0.753   3.737   0.621  0.9675 -0.4819 -2.9627
 9783TIP3   OH229287   7.086   2.602   6.794 -0.4144  0.0803 -0.4382
 9783TIP3    H129288   7.038   2.615   6.712 -0.8518 -0.5898 -0.2863
 9783TIP3    H229289   7.053   2.519   6.828  2.4769 -1.5457 -1.4693
 9784TIP3   OH229290   1.494   7.843   0.240  0.1518 -0.4973  0.5598
 9784TIP3    H129291   1.439   7.891   0.179  0.2351 -1.4975 -0.3194
 9784TIP3    H229292   1.433   7.802   0.301  0.0447  0.1612  0.8927
 9785TIP3   OH229293   7.092   5.032   0.123  0.4697  0.0486 -0.1223
 9785TIP3    H129294   7.038   4.955   0.103 -0.3089  0.2662  1.0287
 9785TIP3    H229295   7.132   5.011   0.208  0.8958  0.5661 -0.1954
 9786TIP3   OH229296   4.433   0.170   5.148 -0.4685  0.0128  0.6065
 9786TIP3    H129297   4.501   0.108   5.176 -0.2788 -0.5967 -1.1715
 9786TIP3    H229298   4.436   0.240   5.214  1.7720 -0.0946  0.6531
 9787TIP3   OH229299   3.216   2.697   4.482 -0.0235 -0.1764  0.5457
 9787TIP3    H129300   3.128   2.730   4.468 -0.5197 -1.6287  0.2085
 9787TIP3    H229301   3.249   2.747   4.557 -0.8829  0.8156  0.2764
 9788TIP3   OH229302   8.175   7.851   0.028 -0.0250 -0.0908 -0.1101
 9788TIP3    H129303   8.105   7.912   0.005 -0.4781 -0.1687  1.0130
 9788TIP3    H229304   8.199   7.874   0.118  0.4957 -0.9114 -0.0285
 9789TIP3   OH229305   3.564   2.479   6.878  0.0542  0.0757  0.0210
 9789TIP3    H129306   3.532   2.389   6.871 -1.1150  0.5021 -0.2832
 9789TIP3    H229307   3.586   2.504   6.788 -0.2154  0.3024  0.0169
 9790TIP3   OH229308   5.138   2.079   5.506  0.0888  0.1873 -0.0543
 9790TIP3    H129309   5.044   2.061   5.513  0.1391  0.2059  0.7178
 9790TIP3    H229310   5.175   1.996   5.474  0.1033 -0.5695  1.8831
 9791TIP3   OH229311   5.647   1.695   5.972  0.2762 -0.1965  0.0105
 9791TIP3    H129312   5.584   1.762   5.944  1.3488  1.5078  1.6378
 9791TIP3    H229313   5.691   1.669   5.891 -1.7518 -0.6242 -0.9868
 9792TIP3   OH229314   4.530   2.427   6.466 -0.3344  0.5324 -0.0169
 9792TIP3    H129315   4.463   2.371   6.506  0.2790  1.6187  2.6078
 9792TIP3    H229316   4.611   2.376   6.475 -0.4373  0.1174 -1.3178
 9793TIP3   OH229317   1.235   5.061   3.521  0.2191  0.4507 -0.4165
 9793TIP3    H129318   1.287   5.005   3.463  0.1865 -0.6644  0.6325
 9793TIP3    H229319   1.299   5.104   3.577  0.0455 -0.5176  0.5213
 9794TIP3   OH229320   3.915   0.904   4.890  0.6192 -0.1215  0.1265
 9794TIP3    H129321   3.920   0.982   4.834 -1.8492 -0.7741 -1.0544
 9794TIP3    H229322   3.955   0.932   4.973  2.8841  1.3436 -1.3961
 9795TIP3   OH229323   6.167   2.584   3.254 -0.3181 -0.0598  0.1957
 9795TIP3    H129324   6.160   2.569   3.160  0.0651  0.9951 -0.0136
 9795TIP3    H229325   6.077   2.592   3.284 -0.3944  2.1415 -0.5297
 9796TIP3   OH229326   0.642   4.458   0.584 -0.3358 -0.1215 -0.1355
 9796TIP3    H129327   0.676   4.378   0.544 -0.1951  0.3254 -0.9066
 9796TIP3    H229328   0.613   4.512   0.511 -1.4873  0.0652  0.4510
 9797TIP3   OH229329   0.511   7.797   6.418  0.2957 -0.0615 -0.0067
 9797TIP3    H129330   0.452   7.853   6.469  0.6847  0.3366  0.0004
 9797TIP3    H229331   0.567   7.857   6.370  1.1686 -0.4368  0.5316
 9798TIP3   OH229332   5.374   3.720   5.749  0.4496 -0.2439  0.6113
 9798TIP3    H129333   5.415   3.761   5.673 -0.0006 -1.5523 -0.3503
 9798TIP3    H229334   5.343   3.636   5.717  1.5219 -1.4403  2.5924
 9799TIP3   OH229335   5.110   2.732   6.788 -0.6820  1.0718  0.3849
 9799TIP3    H129336   5.067   2.815   6.809 -0.5803  1.0793  0.5656
 9799TIP3    H229337   5.082   2.673   6.857 -0.5758  1.0166  0.3799
 9800TIP3   OH229338   6.752   1.707   5.512 -0.4175 -0.8410  0.4687
 9800TIP3    H129339   6.705   1.667   5.585 -0.3436 -2.2128 -0.2081
 9800TIP3    H229340   6.732   1.651   5.437  0.3419 -0.0492 -0.3457
 9801TIP3   OH229341   1.675   3.896   2.883 -0.1895  0.0792 -0.5209
 9801TIP3    H129342   1.590   3.869   2.850 -0.9205  1.1785  0.4345
 9801TIP3    H229343   1.692   3.980   2.840  0.1416  0.1368 -0.2821
 9802TIP3   OH229344   4.853   0.680   5.847  0.4886 -0.0209 -0.2078
 9802TIP3    H129345   4.804   0.651   5.771  0.2773  0.2683 -0.1819
 9802TIP3    H229346   4.937   0.633   5.841  0.8879  0.7949 -1.1911
 9803TIP3   OH229347   1.521   5.851   0.773 -0.5041  0.5502 -0.1806
 9803TIP3    H129348   1.433   5.855   0.808 -0.2610 -2.2141  0.8908
 9803TIP3    H229349   1.519   5.907   0.695 -3.5482 -0.4853 -0.9157
 9804TIP3   OH229350   5.425   2.089   6.436  0.3223 -0.1261  0.0154
 9804TIP3    H129351   5.444   2.121   6.524 -0.2262  1.3516 -0.3797
 9804TIP3    H229352   5.510   2.068   6.398  0.6773  0.6170  0.3932
 9805TIP3   OH229353   5.320   3.387   6.801 -0.0547 -0.2207  0.1179
 9805TIP3    H129354   5.274   3.442   6.864  0.3755 -1.3447  1.4646
 9805TIP3    H229355   5.333   3.304   6.848  0.4446 -1.0125 -1.3946
 9806TIP3   OH229356   2.680   0.846   5.774  0.1166  0.3114 -0.1697
 9806TIP3    H129357   2.585   0.848   5.791  0.2912  1.2174  0.7508
 9806TIP3    H229358   2.692   0.903   5.698 -0.0070  0.7087  0.1046
 9807TIP3   OH229359   7.208   6.580   0.444  0.5170 -0.1423 -0.1340
 9807TIP3    H129360   7.273   6.510   0.444 -1.5757 -2.1380  0.0350
 9807TIP3    H229361   7.145   6.554   0.377  0.3386  2.2094 -0.9240
 9808TIP3   OH229362   7.730   4.866   1.542  0.3158 -0.2991  0.3202
 9808TIP3    H129363   7.636   4.881   1.552  0.3605 -0.8499  1.5963
 9808TIP3    H229364   7.744   4.863   1.447 -0.8383  0.4677  0.1191
 9809TIP3   OH229365   7.103   7.002   0.815  0.5060  0.4571  0.6092
 9809TIP3    H129366   7.031   6.993   0.878 -1.3060  1.5841 -1.2360
 9809TIP3    H229367   7.127   6.913   0.793 -1.1349  0.0518  0.3689
 9810TIP3   OH229368   3.387   1.455   6.521  0.6515 -0.0802 -0.2070
 9810TIP3    H129369   3.465   1.402   6.503  0.7014 -0.0556 -0.0665
 9810TIP3    H229370   3.321   1.391   6.548  0.6781 -0.0842 -0.1492
 9811TIP3   OH229371   8.337   7.195   0.475 -0.1287 -0.2519 -0.4277
 9811TIP3    H129372   8.349   7.100   0.474 -1.2722 -0.4346  1.0017
 9811TIP3    H229373   8.242   7.207   0.468 -0.0657  0.7550  0.2907
 9812TIP3   OH229374   7.719   4.661   0.066  0.2214 -1.0434 -0.5059
 9812TIP3    H129375   7.801   4.675   0.114 -0.9894  1.5303  0.9126
 9812TIP3    H229376   7.733   4.706  -0.018  0.0576 -0.0356 -0.0061
 9813TIP3   OH229377   7.097   2.037   6.930 -0.2987  0.1780  0.1135
 9813TIP3    H129378   7.148   2.116   6.910  0.5993 -0.4138  0.0356
 9813TIP3    H229379   7.102   1.984   6.851 -0.9667  0.0692  0.1405
 9814TIP3   OH229380   6.955   5.504   1.840 -0.2861 -0.2187  0.5850
 9814TIP3    H129381   6.952   5.528   1.933  2.0676  0.1745  0.6013
 9814TIP3    H229382   6.976   5.586   1.795  1.6610 -0.9794  0.0407
 9815TIP3   OH229383   5.460   1.753   6.812  0.2088 -0.2100 -0.4674
 9815TIP3    H129384   5.500   1.708   6.886 -0.5838  1.1522  0.8008
 9815TIP3    H229385   5.425   1.834   6.848 -1.6536 -0.2889 -1.9959
 9816TIP3   OH229386   3.137   0.238   6.721  0.3484 -0.4000 -0.1756
 9816TIP3    H129387   3.055   0.193   6.740  1.2635 -1.4425  1.4582
 9816TIP3    H229388   3.190   0.227   6.800  1.1772  2.3012 -0.2859
 9817TIP3   OH229389   4.314   0.464   5.539 -0.0334 -0.1447  0.1522
 9817TIP3    H129390   4.245   0.466   5.604 -0.5122 -0.4394 -0.3488
 9817TIP3    H229391   4.276   0.418   5.464  0.1984  1.0062 -0.6864
 9818TIP3   OH229392   3.519   1.732   5.771  0.2768 -0.0762  0.2027
 9818TIP3    H129393   3.550   1.642   5.783 -0.2854 -0.4176 -0.8223
 9818TIP3    H229394   3.541   1.753   5.680  0.1994  0.7439  0.3680
 9819TIP3   OH229395   0.206   6.435   2.968 -0.4120  0.0608  0.4186
 9819TIP3    H129396   0.158   6.381   2.905  1.2164 -0.3131 -0.5323
 9819TIP3    H229397   0.249   6.372   3.026 -0.5377  0.3805  0.8622
 9820TIP3   OH229398   5.011   1.619   5.583 -0.1261 -0.2917 -0.1912
 9820TIP3    H129399   5.070   1.603   5.509 -1.2012  0.5774 -1.2520
 9820TIP3    H229400   5.070   1.629   5.658  0.9670 -1.4040 -0.8803
 9821TIP3   OH229401   0.253   4.713   2.919 -0.8023 -0.3473 -0.1889
 9821TIP3    H129402   0.275   4.782   2.857 -0.0306 -1.7458 -1.4784
 9821TIP3    H229403   0.332   4.702   2.973 -0.7409 -0.5947 -0.3292
 9822TIP3   OH229404   5.266   1.820   6.612 -0.2433  0.0549  0.2939
 9822TIP3    H129405   5.329   1.892   6.605 -1.7349  1.7374  3.3204
 9822TIP3    H229406   5.302   1.763   6.679 -1.5006  0.5696  1.4137
 9823TIP3   OH229407   7.944   6.032   0.072  0.7414  0.1526  0.0662
 9823TIP3    H129408   8.017   5.972   0.088  1.6009  0.9290 -0.9390
 9823TIP3    H229409   7.965   6.075  -0.011 -1.1019  0.0152 -0.4878
 9824TIP3   OH229410   3.355   0.292   3.905  0.2548 -0.7517 -0.2813
 9824TIP3    H129411   3.338   0.274   3.997  1.2144 -0.1497  0.0234
 9824TIP3    H229412   3.447   0.320   3.903  0.4082 -1.3195 -1.4979
 9825TIP3   OH229413   8.289   4.972   2.654  0.1353 -0.6596 -0.0004
 9825TIP3    H129414   8.230   5.039   2.688 -1.3351 -0.1796 -3.2622
 9825TIP3    H229415   8.236   4.893   2.649  0.1732 -0.6122 -1.5060
 9826TIP3   OH229416   4.932   3.799   0.315 -0.0134  0.1591 -0.2465
 9826TIP3    H129417   4.918   3.890   0.341 -1.2790 -0.5854  1.7338
 9826TIP3    H229418   4.859   3.779   0.257  0.2422  0.3758 -0.6488
 9827TIP3   OH229419   4.486   0.954   6.883  0.4139  0.5981  0.2799
 9827TIP3    H129420   4.434   1.011   6.940 -1.5936 -0.0276 -0.8883
 9827TIP3    H229421   4.425   0.887   6.853  1.7939  0.0568 -1.4219
 9828TIP3   OH229422   2.668   4.835   0.669 -0.5030  0.8633 -0.0011
 9828TIP3    H129423   2.620   4.908   0.629 -1.2876  1.2897  1.6832
 9828TIP3    H229424   2.600   4.782   0.710  0.1528 -0.3567 -0.4817
 9829TIP3   OH229425   8.288   5.701   1.932 -0.5835 -0.0507  0.1667
 9829TIP3    H129426   8.255   5.674   1.846 -1.1235 -1.2645  0.7413
 9829TIP3    H229427   8.209   5.709   1.986 -0.3259  1.6193  0.3066
 9830TIP3   OH229428   7.970   5.854   0.766  0.1381 -0.2478 -0.1479
 9830TIP3    H129429   7.996   5.796   0.695  1.0782 -0.5127  0.4020
 9830TIP3    H229430   8.048   5.907   0.784  1.0091 -2.3897  2.8551
 9831TIP3   OH229431   3.694   2.615   5.957  0.3253 -0.0708  0.6183
 9831TIP3    H129432   3.598   2.614   5.966  0.4332 -0.6304  1.8654
 9831TIP3    H229433   3.712   2.557   5.883 -0.2935 -0.2477  0.6044
 9832TIP3   OH229434   3.538   7.120   4.002  0.1292  0.3178 -0.3866
 9832TIP3    H129435   3.480   7.166   4.062  0.5242 -0.9340  0.9960
 9832TIP3    H229436   3.515   7.153   3.915  0.1074  2.7614  0.5270
 9833TIP3   OH229437   7.954   6.806   0.252  0.6229 -0.0823  0.0141
 9833TIP3    H129438   8.046   6.800   0.229  0.7541  0.7444  0.3108
 9833TIP3    H229439   7.952   6.860   0.331 -0.1189 -0.0399 -0.0267
 9834TIP3   OH229440   6.434   2.820   1.191 -0.6638  0.5453 -0.2083
 9834TIP3    H129441   6.368   2.818   1.122 -1.0013  0.1858  0.1198
 9834TIP3    H229442   6.399   2.762   1.259 -0.1363  0.5653  0.0817
 9835TIP3   OH229443   5.366   1.460   5.688 -0.2823  0.0475 -0.0673
 9835TIP3    H129444   5.326   1.531   5.738  1.7445  1.6824 -0.7280
 9835TIP3    H229445   5.407   1.502   5.613 -1.1282 -2.1051 -1.8083
 9836TIP3   OH229446   1.354   4.589   1.425  0.3382 -0.6638 -0.3343
 9836TIP3    H129447   1.280   4.602   1.484 -0.6010 -1.0966 -1.3976
 9836TIP3    H229448   1.349   4.496   1.400 -0.0446 -0.1844 -2.1008
 9837TIP3   OH229449   8.228   4.775   0.364 -0.1177 -0.5279 -0.3446
 9837TIP3    H129450   8.191   4.716   0.429 -0.3759 -0.8089 -0.7408
 9837TIP3    H229451   8.228   4.724   0.283 -0.9975  0.2614 -0.8444
 9838TIP3   OH229452   3.870   1.553   6.057 -0.3538 -0.0822  0.5926
 9838TIP3    H129453   3.965   1.545   6.063 -0.3026 -0.6795 -0.8857
 9838TIP3    H229454   3.855   1.594   5.972 -1.5003 -1.5323  0.0911
 9839TIP3   OH229455   8.324   5.337   1.926 -0.8532  0.1220  0.4926
 9839TIP3    H129456   8.341   5.426   1.894 -1.0124  0.6273  1.7676
 9839TIP3    H229457   8.315   5.284   1.847 -0.1065  1.1185 -0.2800
 9840TIP3   OH229458   0.212   7.063   0.485 -0.0857  0.1738  0.4913
 9840TIP3    H129459   0.211   7.143   0.434  0.7027 -0.8254 -1.1520
 9840TIP3    H229460   0.176   6.996   0.427 -2.0048 -0.4296  2.2993
 9841TIP3   OH229461   1.429   5.519   1.268 -0.0003  0.1935 -0.0302
 9841TIP3    H129462   1.500   5.473   1.312 -2.6580 -3.3536  0.7969
 9841TIP3    H229463   1.432   5.486   1.178 -2.5669 -2.6987  0.8160
 9842TIP3   OH229464   0.631   7.405   0.070 -0.2199 -0.2887  0.1560
 9842TIP3    H129465   0.644   7.311   0.059 -0.7879 -0.4067  0.5233
 9842TIP3    H229466   0.538   7.415   0.087 -0.7346  0.6225 -2.9273
 9843TIP3   OH229467   3.515   6.868   5.722 -0.4739 -0.8737  0.5535
 9843TIP3    H129468   3.470   6.951   5.738 -0.0637 -0.4191 -0.5718
 9843TIP3    H229469   3.550   6.842   5.807 -1.0878 -0.1767  1.0232
 9844TIP3   OH229470   5.318   0.790   5.175  0.6684  0.6212 -0.3090
 9844TIP3    H129471   5.378   0.765   5.105 -1.4453 -0.2877 -1.8390
 9844TIP3    H229472   5.265   0.860   5.138 -0.4574  0.1561  0.3720
 9845TIP3   OH229473   0.828   7.184   6.794 -0.4597  0.0236 -0.0841
 9845TIP3    H129474   0.773   7.256   6.824 -0.2914  0.6201 -1.1794
 9845TIP3    H229475   0.772   7.106   6.799 -0.9279  0.3786  0.2245
 9846TIP3   OH229476   0.847   4.502   2.053  0.2201  0.0474 -0.3644
 9846TIP3    H129477   0.878   4.507   2.143 -0.2740  1.0315 -0.2486
 9846TIP3    H229478   0.862   4.590   2.018 -0.0914 -0.1863 -1.0816
 9847TIP3   OH229479   8.085   4.883   3.109 -0.3162  0.2253 -0.0746
 9847TIP3    H129480   8.166   4.908   3.154 -1.4174  2.5332  0.6893
 9847TIP3    H229481   8.047   4.816   3.165  0.7998 -0.5126 -0.1733
 9848TIP3   OH229482   0.198   5.047   0.402  0.5876  0.3259  0.0371
 9848TIP3    H129483   0.211   5.138   0.373  0.0068  0.0383 -1.1565
 9848TIP3    H229484   0.107   5.027   0.378  0.7828 -0.6458  0.0884
 9849TIP3   OH229485   7.957   4.712   1.992  0.5745  0.3716 -0.1268
 9849TIP3    H129486   8.026   4.663   1.947 -0.6773 -0.5904 -0.9900
 9849TIP3    H229487   7.942   4.789   1.937 -1.7882 -1.3972 -2.0224
 9850TIP3   OH229488   7.602   4.977  -0.029 -0.1120 -0.3905 -0.0304
 9850TIP3    H129489   7.512   4.945  -0.029 -0.3098  0.1178  1.6132
 9850TIP3    H229490   7.615   5.012   0.059  1.1374  1.0922 -0.7773
 9851TIP3   OH229491   8.166   5.240   1.242  0.1475  0.6021 -0.1337
 9851TIP3    H129492   8.259   5.263   1.245  0.4057 -0.4502  0.2391
 9851TIP3    H229493   8.163   5.162   1.186 -0.6401  1.2602 -0.9924
 9852TIP3   OH229494   0.102   4.728   3.298  0.1156  0.0228 -0.1058
 9852TIP3    H129495   0.168   4.669   3.261 -0.9519 -1.6987  0.6866
 9852TIP3    H229496   0.023   4.712   3.245 -0.2653  0.5548  0.2892
 9853TIP3   OH229497   6.302   0.839   6.497  0.7526  0.9519 -0.5852
 9853TIP3    H129498   6.323   0.853   6.405 -0.9571 -0.4169 -1.1918
 9853TIP3    H229499   6.220   0.791   6.497  1.1419  0.2118  1.6494
 9854TIP3   OH229500   7.320   5.477   0.167 -0.2461 -0.3364 -0.3429
 9854TIP3    H129501   7.333   5.447   0.257  0.4357  0.2730 -0.2283
 9854TIP3    H229502   7.317   5.397   0.114 -0.3132 -0.6784  0.1834
 9855TIP3   OH229503   0.354   6.264   2.103 -0.5352  0.0233 -0.0568
 9855TIP3    H129504   0.377   6.325   2.032 -1.6468  2.5497  1.6632
 9855TIP3    H229505   0.267   6.231   2.078  0.4727 -1.6739 -1.4718
 9856TIP3   OH229506   5.651   3.604   5.965  0.4190 -0.3921  0.1559
 9856TIP3    H129507   5.563   3.641   5.966  0.3934 -0.4453  1.1285
 9856TIP3    H229508   5.687   3.628   5.880 -0.5533 -0.4125 -0.2660
 9857TIP3   OH229509   6.594   7.839   1.697 -0.2637 -0.1911 -0.5173
 9857TIP3    H129510   6.554   7.752   1.688 -1.7886  0.3698  0.7455
 9857TIP3    H229511   6.559   7.889   1.624  0.8832 -0.7233 -1.4482
 9858TIP3   OH229512   6.585   7.566   4.525 -0.4531  0.0377 -0.2459
 9858TIP3    H129513   6.675   7.592   4.507 -0.7054  0.4254 -0.9410
 9858TIP3    H229514   6.592   7.473   4.548  0.0792 -0.0286 -0.6515
 9859TIP3   OH229515   8.232   6.377   0.094  0.5494  0.7282 -0.2022
 9859TIP3    H129516   8.281   6.308   0.138  0.0437  0.5597  0.1044
 9859TIP3    H229517   8.154   6.389   0.148 -0.4126  0.0489 -1.3942
 9860TIP3   OH229518   0.924   4.548   0.291  0.6949 -0.0523  0.3627
 9860TIP3    H129519   0.924   4.605   0.368  1.8423 -0.1229  0.4361
 9860TIP3    H229520   0.904   4.607   0.218 -2.7848 -0.4127  0.9574
 9861TIP3   OH229521   8.464   7.719   0.301 -0.1101 -0.0325 -0.3008
 9861TIP3    H129522   8.422   7.804   0.315  0.7861  0.1001  1.9489
 9861TIP3    H229523   8.392   7.656   0.298 -0.6495  0.5420  0.4329
 9862TIP3   OH229524   7.221   4.910   0.866 -0.7437 -0.5040  0.2328
 9862TIP3    H129525   7.254   4.982   0.919  0.7549 -0.9701 -0.0592
 9862TIP3    H229526   7.288   4.895   0.800 -1.5034 -1.5000 -0.3311
 9863TIP3   OH229527   0.974   5.189   1.777 -0.3919 -0.0392  0.0267
 9863TIP3    H129528   1.064   5.217   1.792 -0.9321  1.2703  0.9853
 9863TIP3    H229529   0.950   5.140   1.856 -0.8492  0.5175  0.2407
 9864TIP3   OH229530   5.292   2.852   5.834 -0.2737 -0.1211  0.2496
 9864TIP3    H129531   5.341   2.897   5.903 -1.4529  0.3556  0.7794
 9864TIP3    H229532   5.207   2.896   5.831  0.2626  0.8340 -2.5279
 9865TIP3   OH229533   7.366   6.813   0.450 -0.4416 -0.4839 -0.1104
 9865TIP3    H129534   7.375   6.792   0.543  1.0068 -0.2867 -0.2018
 9865TIP3    H229535   7.298   6.753   0.419 -0.7386 -0.7436  1.0016
 9866TIP3   OH229536   6.627   7.074   0.698 -0.0514  0.1825 -0.4765
 9866TIP3    H129537   6.535   7.082   0.675 -0.7868 -1.0121  1.8558
 9866TIP3    H229538   6.637   6.983   0.725  1.3692  0.7631  1.0643
 9867TIP3   OH229539   7.522   5.577   1.525  0.3116  0.0427 -0.5720
 9867TIP3    H129540   7.468   5.651   1.496 -0.1098 -0.1391 -0.2428
 9867TIP3    H229541   7.611   5.602   1.500  0.9039  2.8419  3.6696
 9868TIP3   OH229542   7.609   5.461   1.127 -0.0581  0.3708  0.0114
 9868TIP3    H129543   7.700   5.468   1.098 -0.1920 -0.4956 -0.6365
 9868TIP3    H229544   7.572   5.548   1.111  0.1694  0.2168 -1.4411
 9869TIP3   OH229545   5.641   8.010   6.888  0.3503 -0.4581  0.3287
 9869TIP3    H129546   5.690   7.935   6.922  3.2810  1.7982  1.3076
 9869TIP3    H229547   5.708   8.067   6.850 -1.9519  1.0867 -1.5115
 9870TIP3   OH229548   1.888   4.943   0.131 -0.4041  0.0857 -0.1395
 9870TIP3    H129549   1.955   4.876   0.116  1.2421  1.6767 -0.0414
 9870TIP3    H229550   1.825   4.930   0.059  0.0784 -1.3135 -0.3332
 9871TIP3   OH229551   4.481   6.691   5.940 -0.3633 -0.2415  0.1544
 9871TIP3    H129552   4.542   6.729   6.004 -0.9802  0.8545  0.1149
 9871TIP3    H229553   4.490   6.747   5.863 -0.8195 -0.5798 -0.1427
 9872TIP3   OH229554   7.373   2.057   5.403 -0.0320  0.3433  0.2543
 9872TIP3    H129555   7.448   2.014   5.362  0.8295  1.5395  0.5680
 9872TIP3    H229556   7.341   1.994   5.467 -0.1024 -0.6985 -0.7956
 9873TIP3   OH229557   4.509   0.036   0.014  0.2006  0.1040 -0.2039
 9873TIP3    H129558   4.554  -0.048   0.017  0.5165  0.2620 -0.4306
 9873TIP3    H229559   4.421   0.018   0.045  0.1714 -0.3706 -0.5587
 9874TIP3   OH229560   7.223   6.485   1.808  0.0053 -0.5687  0.0906
 9874TIP3    H129561   7.244   6.436   1.888  0.2637 -0.2926  0.1937
 9874TIP3    H229562   7.142   6.532   1.830 -0.1851 -0.8632  0.0273
 9875TIP3   OH229563   1.585   5.160   0.023  0.1284  0.0808 -0.1631
 9875TIP3    H129564   1.628   5.245   0.030  1.1365 -0.5028  0.8982
 9875TIP3    H229565   1.512   5.165   0.085 -0.7010  0.7002 -1.1932
 9876TIP3   OH229566   5.894   1.697   6.140  0.4089 -0.1886 -0.3627
 9876TIP3    H129567   5.822   1.719   6.082  0.5204 -0.2889 -0.5428
 9876TIP3    H229568   5.864   1.722   6.227  0.3888  0.3094 -0.5134
 9877TIP3   OH229569   2.068   7.374   0.841 -0.3238  0.4595  0.2463
 9877TIP3    H129570   2.020   7.456   0.844  0.8331  1.1208  1.5589
 9877TIP3    H229571   2.101   7.362   0.930 -0.7188 -1.5804  0.1413
 9878TIP3   OH229572   6.666   5.605   6.905  0.1211 -0.1720  0.0527
 9878TIP3    H129573   6.691   5.521   6.943 -1.3883 -1.1350 -1.0265
 9878TIP3    H229574   6.572   5.596   6.886  0.1314  1.4470 -0.8395
 9879TIP3   OH229575   1.429   4.541   0.028 -0.0904 -0.0894  0.6776
 9879TIP3    H129576   1.489   4.603   0.068 -1.2761  0.0276  2.3140
 9879TIP3    H229577   1.392   4.492   0.101  2.2513 -4.1012 -0.6957
 9880TIP3   OH229578   2.748   3.800   0.231  0.4429  0.2193 -0.1524
 9880TIP3    H129579   2.735   3.848   0.149 -1.3537 -0.0579 -0.0596
 9880TIP3    H229580   2.720   3.711   0.212  0.9601 -0.0816  0.4871
 9881TIP3   OH229581   2.929   6.679   0.687  0.2010 -0.2259 -0.4853
 9881TIP3    H129582   2.903   6.676   0.779 -0.7860 -0.7541 -0.7697
 9881TIP3    H229583   2.995   6.748   0.683  0.2894 -0.2284  0.6221
 9882TIP3   OH229584   1.115   6.865   1.387 -0.0911  0.5603 -0.7302
 9882TIP3    H129585   1.133   6.914   1.307  1.9198 -0.2245 -0.7895
 9882TIP3    H229586   1.083   6.780   1.356 -0.9609  0.8594 -0.6652
 9883TIP3   OH229587   6.562   0.770   6.302  0.1210  0.1248  0.3334
 9883TIP3    H129588   6.542   0.863   6.308 -0.8359 -0.2148  2.6649
 9883TIP3    H229589   6.645   0.761   6.349  0.2989 -0.1685 -0.0382
 9884TIP3   OH229590   7.676   0.962   5.672  0.2065  0.7404  0.2025
 9884TIP3    H129591   7.624   0.997   5.600 -1.0935 -0.5149  0.5239
 9884TIP3    H229592   7.764   0.950   5.635 -0.3768  0.4084 -1.0667
 9885TIP3   OH229593   4.471   7.490   6.533  0.3448  0.2582  0.3592
 9885TIP3    H129594   4.387   7.452   6.507  0.1687  0.3984  0.7222
 9885TIP3    H229595   4.447   7.564   6.589  0.7296 -0.4646  1.4925
 9886TIP3   OH229596   7.283   1.308   6.395 -0.6998  0.3617  0.3413
 9886TIP3    H129597   7.377   1.286   6.400 -0.8003 -0.1815 -0.0562
 9886TIP3    H229598   7.251   1.298   6.485 -0.3482  0.6875  0.5057
 9887TIP3   OH229599   1.560   7.909   1.024  0.2704  0.6141 -0.7118
 9887TIP3    H129600   1.625   7.852   0.985  0.6009 -1.3523  2.5063
 9887TIP3    H229601   1.492   7.849   1.057 -1.4062  2.3611 -0.8919
 9888TIP3   OH229602   5.900   1.434   6.709  0.6925  0.3933 -0.5842
 9888TIP3    H129603   5.920   1.341   6.697 -0.0378 -0.1474  2.0104
 9888TIP3    H229604   5.871   1.464   6.623  1.3589 -1.6797 -1.5570
 9889TIP3   OH229605   3.308   7.046   0.253  0.1824  0.0027 -0.7194
 9889TIP3    H129606   3.383   7.085   0.299  0.4638  1.2494 -2.1764
 9889TIP3    H229607   3.260   6.999   0.321  1.8403 -0.1286  0.3981
 9890TIP3   OH229608   1.807   4.454   0.351  0.4373 -0.8005  0.0245
 9890TIP3    H129609   1.784   4.362   0.365  0.5479 -0.9352 -0.6506
 9890TIP3    H229610   1.857   4.479   0.429  1.0777 -1.5375 -0.1411
 9891TIP3   OH229611   2.454   5.679   0.319 -0.1946  0.2252  0.5354
 9891TIP3    H129612   2.523   5.638   0.267 -0.4027  0.7115 -0.1310
 9891TIP3    H229613   2.416   5.607   0.369  0.6880 -0.0738  0.7902
 9892TIP3   OH229614   4.153   5.576   0.567  0.1830  0.1434  0.1525
 9892TIP3    H129615   4.233   5.580   0.514 -0.8180  0.3988 -1.3496
 9892TIP3    H229616   4.093   5.636   0.524  0.2798  2.5262  3.1606
 9893TIP3   OH229617   1.131   4.651   0.964  0.4332 -0.0976 -0.1058
 9893TIP3    H129618   1.055   4.697   0.928 -0.0855 -0.4216  0.5440
 9893TIP3    H229619   1.101   4.560   0.973  0.1972  0.1767  2.0846
 9894TIP3   OH229620   6.699   0.485   4.468  0.7014 -0.4504 -0.0173
 9894TIP3    H129621   6.623   0.542   4.478  1.2670  0.3104 -0.0299
 9894TIP3    H229622   6.675   0.406   4.516 -1.2937 -1.4306 -2.5219
 9895TIP3   OH229623   0.489   4.534   0.305 -0.3041 -0.3659  0.3337
 9895TIP3    H129624   0.543   4.456   0.311 -0.7866 -0.6375  1.1802
 9895TIP3    H229625   0.399   4.501   0.305 -0.5097  0.1852  0.6823
 9896TIP3   OH229626   2.452   4.649   0.675 -0.1930 -0.3193 -0.1008
 9896TIP3    H129627   2.435   4.646   0.581  1.5053 -2.1134 -0.3795
 9896TIP3    H229628   2.371   4.684   0.713 -1.3238 -0.6837 -2.1121
 9897TIP3   OH229629   7.557   0.232   5.978 -0.1641  0.1920  0.3383
 9897TIP3    H129630   7.640   0.278   5.968  1.5650 -2.8848 -0.2530
 9897TIP3    H229631   7.549   0.217   6.073 -0.9889  2.0809  0.5858
 9898TIP3   OH229632   7.616   6.634   1.793  0.5680  0.5985  0.0999
 9898TIP3    H129633   7.619   6.707   1.731 -0.8634 -0.2688 -0.9861
 9898TIP3    H229634   7.579   6.561   1.744 -0.3355 -0.1804  1.8860
 9899TIP3   OH229635   3.490   0.971   6.537 -0.3595 -0.3470 -0.0504
 9899TIP3    H129636   3.545   0.904   6.496 -0.5159 -0.7699  0.4236
 9899TIP3    H229637   3.524   1.054   6.503  0.1036 -0.6438 -0.3217
 9900TIP3   OH229638   1.812   6.145   0.637 -0.7443  0.2968  0.1861
 9900TIP3    H129639   1.849   6.083   0.700  0.2933 -0.6325 -1.2905
 9900TIP3    H229640   1.748   6.094   0.587  2.9546 -0.8325 -3.7351
 9901TIP3   OH229641   5.332   6.524   5.936 -0.0624  0.1383  0.0251
 9901TIP3    H129642   5.413   6.573   5.952 -0.2410  0.0166  1.3643
 9901TIP3    H229643   5.312   6.540   5.844  1.0018  0.9016 -0.0829
 9902TIP3   OH229644   2.361   7.851   0.715 -0.1888  0.2885 -0.1787
 9902TIP3    H129645   2.295   7.915   0.686  0.2053  0.5500 -0.5191
 9902TIP3    H229646   2.331   7.823   0.801  0.4430  2.1045  0.6689
 9903TIP3   OH229647   7.776   7.207   0.175 -0.0539  0.3029 -0.9325
 9903TIP3    H129648   7.787   7.269   0.246 -0.8666  0.2485 -0.7531
 9903TIP3    H229649   7.759   7.123   0.218 -0.7530  0.3086 -1.1789
 9904TIP3   OH229650   0.195   6.625   2.045 -0.3614 -0.4555 -0.6130
 9904TIP3    H129651   0.154   6.621   1.959 -0.0759 -0.1670 -0.7614
 9904TIP3    H229652   0.271   6.568   2.038 -1.6554 -2.3204  0.1641
 9905TIP3   OH229653   5.612   7.883   5.988 -0.2741 -0.2499  0.4383
 9905TIP3    H129654   5.699   7.919   5.973 -0.5893  0.5297  0.4753
 9905TIP3    H229655   5.552   7.954   5.965 -0.8595 -0.1777  2.1376
 9906TIP3   OH229656   8.433   2.494   6.039  0.1753  0.3030  0.7954
 9906TIP3    H129657   8.386   2.411   6.042 -1.2556  0.9829 -1.2216
 9906TIP3    H229658   8.390   2.548   6.105 -1.1749  0.5371 -0.2431
 9907TIP3   OH229659   1.688   3.945   0.482  0.0260  0.0460  0.1092
 9907TIP3    H129660   1.667   3.863   0.437  0.1783 -0.1570  0.4054
 9907TIP3    H229661   1.764   3.979   0.436  0.0590 -0.0596  0.0857
 9908TIP3   OH229662   0.082   1.664   3.866  0.1711  0.3508 -0.2988
 9908TIP3    H129663   0.037   1.686   3.947  1.4969  0.2354  0.4879
 9908TIP3    H229664   0.068   1.569   3.855 -0.0908  0.3855 -0.2663
 9909TIP3   OH229665   1.167   6.252   0.800  0.3007  0.0044 -0.0844
 9909TIP3    H129666   1.083   6.297   0.805 -0.5826 -1.4112 -1.7716
 9909TIP3    H229667   1.232   6.322   0.807 -1.0096  1.2351  0.1179
 9910TIP3   OH229668   6.197   1.296   6.563 -0.0017  0.6719 -0.2937
 9910TIP3    H129669   6.131   1.236   6.599  1.3093  0.4421  1.7869
 9910TIP3    H229670   6.146   1.369   6.529 -1.4678 -0.4611 -0.6063
 9911TIP3   OH229671   5.165   7.680   6.579  0.5888 -0.1377 -0.2099
 9911TIP3    H129672   5.216   7.617   6.630  0.3339  0.6283  1.0122
 9911TIP3    H229673   5.196   7.766   6.609  1.6941  0.3366 -2.6340
 9912TIP3   OH229674   3.140   0.081   0.530 -0.1169 -0.1232  0.1886
 9912TIP3    H129675   3.169   0.173   0.532 -0.4037  0.0204 -1.4404
 9912TIP3    H229676   3.221   0.031   0.526  0.0587  0.0216  1.5535
 9913TIP3   OH229677   1.216   7.111   0.929 -0.9156  0.5034 -0.2698
 9913TIP3    H129678   1.265   7.193   0.926  1.1948 -0.7751 -3.0768
 9913TIP3    H229679   1.144   7.123   0.867  1.3572 -0.8592 -3.3118
 9914TIP3   OH229680   5.228   3.157   5.829  0.1857  0.3300  0.0251
 9914TIP3    H129681   5.171   3.082   5.847 -2.5485  1.8198 -2.0760
 9914TIP3    H229682   5.290   3.125   5.764  0.1043 -0.5579  0.3731
 9915TIP3   OH229683   3.595   6.995   1.601  0.1533  0.5099 -0.0224
 9915TIP3    H129684   3.515   7.036   1.570  1.1281  1.0486 -1.8721
 9915TIP3    H229685   3.652   7.068   1.627  0.2029  0.1466  0.9210
 9916TIP3   OH229686   7.641   1.407   5.586 -0.0250  0.0495 -0.7564
 9916TIP3    H129687   7.577   1.470   5.553 -1.1966 -0.7737 -0.0918
 9916TIP3    H229688   7.591   1.349   5.643  1.0622 -1.3720 -1.1993
 9917TIP3   OH229689   1.285   5.767   0.401 -0.6105 -0.5089 -1.1495
 9917TIP3    H129690   1.336   5.687   0.413 -1.5948 -0.9143  0.3600
 9917TIP3    H229691   1.198   5.746   0.435 -1.3289  0.7126 -2.1794
 9918TIP3   OH229692   1.933   2.868   1.539 -0.1376  0.1287 -0.0576
 9918TIP3    H129693   2.005   2.857   1.601 -0.0874 -0.3306 -0.1980
 9918TIP3    H229694   1.901   2.958   1.555 -0.6061 -0.2322  1.1509
 9919TIP3   OH229695   1.768   6.592   0.597 -0.0732  0.3067 -0.0543
 9919TIP3    H129696   1.737   6.526   0.536  0.7904  1.0248 -1.3069
 9919TIP3    H229697   1.862   6.574   0.606  0.0003  0.8310  0.2642
 9920TIP3   OH229698   6.620   1.405   6.810 -0.3119 -0.3384 -0.5518
 9920TIP3    H129699   6.667   1.487   6.800  0.3521 -0.4832  1.1712
 9920TIP3    H229700   6.648   1.352   6.735  1.1169  0.1413 -0.3856
 9921TIP3   OH229701   1.368   5.545   0.592 -0.0750  0.4721  0.5905
 9921TIP3    H129702   1.333   5.456   0.597 -0.8207  0.5735 -2.0124
 9921TIP3    H229703   1.320   5.594   0.658 -1.4149 -0.5008  0.3573
 9922TIP3   OH229704   3.604   7.627   5.623 -0.1605 -0.2224 -0.3565
 9922TIP3    H129705   3.620   7.542   5.583 -1.1424 -1.0244  0.9349
 9922TIP3    H229706   3.509   7.632   5.633 -0.1397  1.1581 -0.7142
 9923TIP3   OH229707   6.899   2.319   6.728 -0.2657 -0.0451 -0.7704
 9923TIP3    H129708   6.928   2.246   6.673  1.4247  1.2096 -1.5794
 9923TIP3    H229709   6.949   2.309   6.809 -0.9548 -0.4814 -0.3899
 9924TIP3   OH229710   6.228   2.306   6.915 -0.6070  0.1751 -0.6680
 9924TIP3    H129711   6.284   2.353   6.853 -0.3184  0.3335 -0.2869
 9924TIP3    H229712   6.157   2.271   6.861 -1.0059  1.3284 -0.9133
 9925TIP3   OH229713   6.747   1.444   6.393  0.5525 -0.4687  0.1786
 9925TIP3    H129714   6.808   1.494   6.338 -0.5780 -0.0055 -0.6737
 9925TIP3    H229715   6.781   1.455   6.482  1.6470 -0.1208 -0.2732
 9926TIP3   OH229716   5.172   1.576   4.889 -0.1658  0.0222 -0.2838
 9926TIP3    H129717   5.221   1.615   4.962 -0.6282 -1.4323  0.8293
 9926TIP3    H229718   5.218   1.607   4.811  1.2685  0.3953  0.6737
 9927TIP3   OH229719   7.253   0.860   6.294  0.3966 -0.2631 -0.0345
 9927TIP3    H129720   7.229   0.832   6.206 -1.9153 -0.0628  0.4891
 9927TIP3    H229721   7.205   0.800   6.352 -0.2391  1.3045  1.0804
 9928TIP3   OH229722   8.107   0.673   3.713 -0.3285 -0.4423  0.0271
 9928TIP3    H129723   8.139   0.613   3.780 -0.6178  0.1554  0.7080
 9928TIP3    H229724   8.012   0.668   3.720 -0.3508  0.8467  0.7774
 9929TIP3   OH229725   7.725   0.432   5.783  0.1596 -0.0404 -0.5426
 9929TIP3    H129726   7.806   0.384   5.765  0.4646 -0.0146  0.7657
 9929TIP3    H229727   7.717   0.493   5.709  1.5413  0.2367 -0.4736
 9930TIP3   OH229728   1.927   2.348   0.320  0.2263  0.2805  0.3099
 9930TIP3    H129729   1.922   2.444   0.312 -3.1479  0.0961 -0.8581
 9930TIP3    H229730   1.967   2.320   0.238  1.6245  0.6972  0.8362
 9931TIP3   OH229731   6.978   0.139   6.873 -0.1402 -0.1370  0.0159
 9931TIP3    H129732   6.943   0.067   6.820 -2.2275  0.5326  0.4306
 9931TIP3    H229733   6.925   0.215   6.848  0.6048  0.7743  1.1685
 9932TIP3   OH229734   6.291   3.539   6.777 -0.3223 -0.1827  0.1232
 9932TIP3    H129735   6.286   3.490   6.859 -2.4731 -0.3031 -0.0521
 9932TIP3    H229736   6.360   3.604   6.792 -1.1186  0.2191  2.2815
 9933TIP3   OH229737   6.485   0.321   5.522  0.2184 -0.2765  0.2980
 9933TIP3    H129738   6.456   0.244   5.571  1.6632 -0.0403  1.5684
 9933TIP3    H229739   6.407   0.350   5.475 -0.5174 -2.1023  0.3314
 9934TIP3   OH229740   4.123   7.482   5.242 -0.4923 -0.1914  0.2912
 9934TIP3    H129741   4.058   7.493   5.310 -1.7219 -2.4617 -0.4670
 9934TIP3    H229742   4.169   7.401   5.266  1.1033  0.6286  0.0586
 9935TIP3   OH229743   0.917   2.516   6.912 -0.3201 -0.5770 -0.0919
 9935TIP3    H129744   0.827   2.496   6.938  0.1697 -0.5339  1.7685
 9935TIP3    H229745   0.966   2.436   6.931  0.2041 -0.2877 -0.2011
 9936TIP3   OH229746   1.004   5.833   0.581  0.3870 -0.8001  0.5910
 9936TIP3    H129747   0.961   5.801   0.660 -0.7077  1.0816  0.7779
 9936TIP3    H229748   1.053   5.910   0.610 -0.8435  0.5024 -0.7555
 9937TIP3   OH229749   5.789   0.973   5.729  0.5950 -0.0175 -0.6242
 9937TIP3    H129750   5.779   0.994   5.636  1.0953  1.8926 -0.2530
 9937TIP3    H229751   5.861   1.028   5.759 -0.4763  0.3949  1.2343
 9938TIP3   OH229752   2.355   6.478   0.114  0.5230  0.3088  0.3228
 9938TIP3    H129753   2.265   6.482   0.145  0.2722  0.0667 -0.3747
 9938TIP3    H229754   2.400   6.424   0.178  0.1252  0.2557  0.5580
 9939TIP3   OH229755   3.071   4.821   1.093 -0.2582 -0.6027  0.2235
 9939TIP3    H129756   3.152   4.872   1.095 -1.5296  1.4655  0.3584
 9939TIP3    H229757   3.015   4.861   1.159 -1.3581 -2.0924  0.2334
 9940TIP3   OH229758   4.397   2.420   6.835  0.4065 -0.2262  0.1472
 9940TIP3    H129759   4.372   2.382   6.751  0.6959 -0.4108  0.1440
 9940TIP3    H229760   4.364   2.359   6.900  0.1770 -0.0801  0.1699
 9941TIP3   OH229761   2.770   5.150   0.888  0.0870  0.1158 -0.4356
 9941TIP3    H129762   2.677   5.131   0.896  0.4043 -1.6239 -0.6061
 9941TIP3    H229763   2.797   5.104   0.808  1.1906  0.1560 -0.0945
 9942TIP3   OH229764   8.015   1.738   6.670 -0.2498  0.0295 -0.2042
 9942TIP3    H129765   8.083   1.764   6.733  0.4645  0.6166 -1.1985
 9942TIP3    H229766   7.935   1.780   6.703  0.3924  1.4776 -0.4196
 9943TIP3   OH229767   1.074   5.568   0.463  0.2210  0.1596  0.2034
 9943TIP3    H129768   1.050   5.495   0.521 -2.3414 -0.8845 -2.0549
 9943TIP3    H229769   1.015   5.639   0.490  0.9998  0.5966  0.7565
 9944TIP3   OH229770   6.150   2.921   6.455 -0.1573 -0.2219 -0.3974
 9944TIP3    H129771   6.087   2.974   6.503 -0.6587 -1.9865  0.9500
 9944TIP3    H229772   6.097   2.861   6.403  0.4000 -0.1906 -1.0030
 9945TIP3   OH229773   1.345   5.243   2.700 -0.4529 -0.2363  0.5145
 9945TIP3    H129774   1.252   5.242   2.723 -0.5293 -0.0972  0.2036
 9945TIP3    H229775   1.347   5.223   2.607 -0.2270  0.7735  0.3069
 9946TIP3   OH229776   0.419   7.420   1.418 -0.1870 -0.2795  0.0656
 9946TIP3    H129777   0.357   7.486   1.390  1.0587  1.0420  0.3842
 9946TIP3    H229778   0.366   7.356   1.466 -1.2159  1.0927  0.7769
 9947TIP3   OH229779   5.054   6.224   3.722 -0.6680 -0.2119 -0.2373
 9947TIP3    H129780   5.149   6.217   3.724 -0.7192 -0.6901  0.7216
 9947TIP3    H229781   5.030   6.201   3.632  0.3136  2.6507 -1.3020
 9948TIP3   OH229782   7.532   1.254   6.517 -0.5404 -0.1941  0.1848
 9948TIP3    H129783   7.610   1.221   6.472  0.2322  0.5499  0.9713
 9948TIP3    H229784   7.566   1.297   6.595 -1.6600  1.1105 -0.0396
 9949TIP3   OH229785   4.958   1.051   6.474 -0.2387 -0.3334 -0.7112
 9949TIP3    H129786   5.012   1.123   6.508  0.8824 -1.5677  0.1748
 9949TIP3    H229787   4.991   1.034   6.386 -2.5454  2.2604 -2.1704
 9950TIP3   OH229788   5.221   3.716   6.052  0.0041  0.4061  0.1335
 9950TIP3    H129789   5.206   3.663   5.973 -1.4410  2.0287 -0.7156
 9950TIP3    H229790   5.188   3.662   6.124  1.9025 -1.3493 -0.2843
 9951TIP3   OH229791   7.051   3.823   6.736  0.4283  0.1166 -0.4911
 9951TIP3    H129792   7.054   3.732   6.763  1.4422  0.2933  0.0165
 9951TIP3    H229793   6.992   3.824   6.660 -0.0421 -0.8566 -0.1450
 9952TIP3   OH229794   0.408   0.702   6.012 -0.0559  0.4695  0.6969
 9952TIP3    H129795   0.326   0.751   6.004  1.0797  2.1955 -1.0827
 9952TIP3    H229796   0.466   0.762   6.060  1.0024  0.4159 -0.4987
 9953TIP3   OH229797   7.957   3.212   6.550 -0.4247  0.2952  0.2449
 9953TIP3    H129798   7.922   3.300   6.537 -0.7713  0.3907  1.7416
 9953TIP3    H229799   7.989   3.212   6.640 -0.6694 -1.1908  0.3434
 9954TIP3   OH229800   6.443   2.503   4.536  0.2002  0.4693 -0.4338
 9954TIP3    H129801   6.378   2.573   4.537  0.1675  0.4325  0.5284
 9954TIP3    H229802   6.397   2.428   4.500 -0.5085  0.2438  0.9242
 9955TIP3   OH229803   6.842   7.965   4.194 -0.1163 -0.2000 -0.5070
 9955TIP3    H129804   6.930   7.987   4.226 -0.0276  1.4979 -1.8248
 9955TIP3    H229805   6.813   8.044   4.149 -2.5094 -0.6074  0.2664
 9956TIP3   OH229806   7.447   4.983   0.237  0.1279  0.2987 -0.0060
 9956TIP3    H129807   7.490   5.046   0.294  0.1376  1.1296 -0.9284
 9956TIP3    H229808   7.359   4.973   0.273  0.7615 -0.6806  1.3151
 9957TIP3   OH229809  -0.008   6.862   0.107  0.1560 -0.4490  0.3433
 9957TIP3    H129810   0.056   6.792   0.122  1.8052  1.4135  2.1261
 9957TIP3    H229811   0.020   6.903   0.025 -1.0732 -2.0929 -0.9467
 9958TIP3   OH229812   2.155   5.557   0.262 -0.2952  0.4334 -0.0831
 9958TIP3    H129813   2.127   5.647   0.280 -0.0777  0.5430 -0.2820
 9958TIP3    H229814   2.166   5.555   0.167  1.8141  0.8102  0.1356
 9959TIP3   OH229815   4.484   0.906   6.065 -0.0251  0.0103  0.1256
 9959TIP3    H129816   4.475   0.990   6.020  1.9015 -0.1624 -0.6399
 9959TIP3    H229817   4.566   0.870   6.032 -0.7435 -2.1157  0.5584
 9960TIP3   OH229818   3.532   6.488   0.764  0.0910  0.9836  0.3492
 9960TIP3    H129819   3.473   6.530   0.702 -0.5713 -2.1721 -1.2281
 9960TIP3    H229820   3.601   6.450   0.710  0.5347 -0.1747  1.7044
 9961TIP3   OH229821   6.699   0.543   5.001  0.5026  0.1834  0.3255
 9961TIP3    H129822   6.611   0.515   4.976  1.0220 -1.1235 -0.0496
 9961TIP3    H229823   6.721   0.612   4.938 -0.2008  0.4354  0.3473
 9962TIP3   OH229824   1.689   2.795   0.720  0.4708  0.0700 -0.2226
 9962TIP3    H129825   1.675   2.833   0.807 -0.2797 -0.4275 -0.1199
 9962TIP3    H229826   1.650   2.858   0.660 -2.6436 -1.4715  0.0874
 9963TIP3   OH229827   7.421   1.982   6.438  1.0775  0.0895  0.0550
 9963TIP3    H129828   7.402   1.898   6.396  1.5987 -0.3058  0.6017
 9963TIP3    H229829   7.419   1.963   6.532  0.2317  0.9000  0.2191
 9964TIP3   OH229830   3.584   5.766   0.372  0.2675  0.5095 -0.6608
 9964TIP3    H129831   3.608   5.853   0.403 -1.5475  1.1327 -0.9819
 9964TIP3    H229832   3.604   5.767   0.278  0.3520  0.5278 -0.6430
 9965TIP3   OH229833   5.997   1.345   5.086  0.2678 -0.1832  0.2999
 9965TIP3    H129834   6.087   1.376   5.072 -0.1505  1.1040  0.3941
 9965TIP3    H229835   5.945   1.425   5.096 -0.5974 -0.9289  2.1049
 9966TIP3   OH229836   6.406   6.585   4.967  0.2377 -0.2095 -0.0312
 9966TIP3    H129837   6.371   6.562   4.881  0.2680 -1.5823  0.2989
 9966TIP3    H229838   6.457   6.507   4.993 -0.4072 -0.1167  1.5500
 9967TIP3   OH229839   1.211   4.023   6.488 -0.1534 -0.0258 -0.0741
 9967TIP3    H129840   1.262   4.029   6.408 -0.0224 -0.1532 -0.0008
 9967TIP3    H229841   1.230   3.935   6.522  0.3659  0.2934  0.4786
 9968TIP3   OH229842   6.292   1.997   6.421  0.4886  0.2343 -0.1567
 9968TIP3    H129843   6.349   1.981   6.347 -0.8018 -0.5678 -1.0090
 9968TIP3    H229844   6.279   2.092   6.422  3.5997  0.7066  1.4291
 9969TIP3   OH229845   0.985   3.773   0.422 -0.2744  0.2138  0.2696
 9969TIP3    H129846   1.077   3.797   0.430  0.0743 -0.9933 -0.1249
 9969TIP3    H229847   0.938   3.853   0.445  0.8705  0.9105  0.2267
 9970TIP3   OH229848   1.153   7.232   0.129 -0.1595  0.3672  0.2255
 9970TIP3    H129849   1.132   7.155   0.075  0.1690 -0.0069  0.6215
 9970TIP3    H229850   1.184   7.195   0.212 -1.8440  0.9355  1.1301
 9971TIP3   OH229851   4.327   6.744   1.252  0.0097  0.8163 -0.2463
 9971TIP3    H129852   4.373   6.682   1.195 -1.0575  0.1583 -0.3995
 9971TIP3    H229853   4.234   6.730   1.233 -0.2956  1.5275  0.6926
 9972TIP3   OH229854   0.590   4.966   0.937  0.3160 -0.1989  0.0450
 9972TIP3    H129855   0.525   4.896   0.943 -0.7809  0.8015 -0.0828
 9972TIP3    H229856   0.635   4.950   0.854 -0.0579 -0.6356 -0.0746
 9973TIP3   OH229857   6.860   1.968   5.625  0.0227 -0.2009  0.0823
 9973TIP3    H129858   6.944   1.969   5.670  0.6438  0.0841 -1.0568
 9973TIP3    H229859   6.826   1.879   5.639  0.9485 -0.6115 -0.2295
 9974TIP3   OH229860   0.717   5.061   1.199  0.1916  0.1630 -0.2841
 9974TIP3    H129861   0.700   4.996   1.131  3.2015 -0.2469 -0.7056
 9974TIP3    H229862   0.744   5.139   1.152  4.6877 -0.8549  0.3851
 9975TIP3   OH229863   0.294   5.403   1.058 -0.3529 -0.0201  0.1021
 9975TIP3    H129864   0.345   5.478   1.027 -0.7204  0.1569 -0.0879
 9975TIP3    H229865   0.320   5.331   1.000 -1.3123  0.4017 -0.8777
 9976TIP3   OH229866   5.748   4.125   6.941  0.2066 -0.0006  0.7922
 9976TIP3    H129867   5.740   4.121   6.846  1.0757 -1.8167  0.7665
 9976TIP3    H229868   5.790   4.209   6.959 -0.9799  0.8521 -0.3406
 9977TIP3   OH229869   6.472   0.367   6.091  0.5029  0.5026  0.3677
 9977TIP3    H129870   6.458   0.452   6.132  1.3549  0.3404  0.9965
 9977TIP3    H229871   6.419   0.306   6.142 -0.1099  0.6553 -0.0845
 9978TIP3   OH229872   1.198   5.649   0.932  0.1574 -0.3476  0.0350
 9978TIP3    H129873   1.269   5.603   0.977  0.2678 -0.1576  0.0570
 9978TIP3    H229874   1.124   5.589   0.935  0.8807 -1.3821 -1.6980
 9979TIP3   OH229875   1.877   5.006   0.615  0.1185 -0.3664 -0.2924
 9979TIP3    H129876   1.844   5.075   0.558  0.1558  0.8843  1.1594
 9979TIP3    H229877   1.798   4.960   0.645 -0.0798  0.3915  0.3849
 9980TIP3   OH229878   7.888   0.201   5.460  0.1914 -0.3313  0.0428
 9980TIP3    H129879   7.804   0.244   5.473  0.8251  1.0180 -0.2678
 9980TIP3    H229880   7.909   0.214   5.368  2.1652  2.0317  0.7644
 9981TIP3   OH229881   0.912   5.701   0.089  0.4871  0.6096  0.2408
 9981TIP3    H129882   0.913   5.756   0.168 -0.3413 -0.5880  1.1190
 9981TIP3    H229883   0.954   5.620   0.117  1.7675  0.8142 -1.0613
 9982TIP3   OH229884   0.219   0.334   3.548  0.0196 -0.3101  0.1489
 9982TIP3    H129885   0.293   0.277   3.525  0.3895 -0.0103  0.5850
 9982TIP3    H229886   0.223   0.342   3.643 -0.9378 -0.7695  0.2337
 9983TIP3   OH229887   0.966   0.709   3.546 -0.7257  0.6020  0.0261
 9983TIP3    H129888   0.983   0.784   3.603 -2.4227  1.7308 -0.8903
 9983TIP3    H229889   1.026   0.721   3.472  2.1947 -1.4090  1.9797
 9984TIP3   OH229890   3.217   3.588   0.897 -0.4569  0.1494  0.3604
 9984TIP3    H129891   3.302   3.625   0.923  0.0446 -0.9049  0.2581
 9984TIP3    H229892   3.169   3.580   0.979 -0.1187 -0.0852  0.5390
 9985TIP3   OH229893   1.235   4.242   0.662 -0.4798 -0.7715  0.2997
 9985TIP3    H129894   1.175   4.168   0.671 -0.0060 -1.2716 -0.5185
 9985TIP3    H229895   1.319   4.209   0.694 -0.2922 -0.5578  0.0332
 9986TIP3   OH229896   2.182   7.317   1.069 -0.7429  0.2446  0.0359
 9986TIP3    H129897   2.215   7.269   1.144 -0.2794  0.0916 -0.2628
 9986TIP3    H229898   2.191   7.409   1.093  1.3076  0.2513 -0.6168
 9987TIP3   OH229899   7.140   3.761   3.010  0.0589 -0.7366  0.3483
 9987TIP3    H129900   7.207   3.763   2.942 -0.2376 -1.0335  0.0451
 9987TIP3    H229901   7.178   3.706   3.079 -0.2533 -1.6675 -0.2241
 9988TIP3   OH229902   7.678   1.025   4.646  0.0844  0.5265 -0.4225
 9988TIP3    H129903   7.644   1.048   4.732 -0.1157  0.2017 -0.4113
 9988TIP3    H229904   7.601   0.995   4.597  0.3880 -0.4867 -0.3044
 9989TIP3   OH229905   0.109   6.223   0.261  0.2599 -0.2540  0.4713
 9989TIP3    H129906   0.067   6.284   0.201 -0.3410 -0.8787  0.2543
 9989TIP3    H229907   0.183   6.188   0.212 -0.1041 -0.6032  0.1731
 9990TIP3   OH229908   5.907   0.361   5.838 -0.0777  0.0133 -0.3453
 9990TIP3    H129909   5.841   0.393   5.776 -1.2217 -0.2927  0.6818
 9990TIP3    H229910   5.912   0.430   5.905 -0.4329 -0.6086  0.3394
 9991TIP3   OH229911   5.201   0.994   6.831  0.2145  0.0314  0.3494
 9991TIP3    H129912   5.263   0.998   6.758  0.2802  2.2137  0.4886
 9991TIP3    H229913   5.120   0.959   6.793  0.9016 -0.9295 -0.2626
 9992TIP3   OH229914   6.858   0.056   6.524 -0.5521  0.1288  0.3599
 9992TIP3    H129915   6.844   0.119   6.454  0.2151  1.4680  1.3850
 9992TIP3    H229916   6.923  -0.005   6.489  0.6253  1.4085  0.2498
 9993TIP3   OH229917   7.838   2.984   6.484 -0.0003 -0.4212  0.0987
 9993TIP3    H129918   7.780   3.012   6.412 -0.5566  0.0282  0.7154
 9993TIP3    H229919   7.889   3.062   6.505  0.3580 -0.6315  0.0032
 9994TIP3   OH229920   2.494   4.050   1.164 -0.0780  0.5150  0.2374
 9994TIP3    H129921   2.433   4.119   1.139 -1.6771 -0.9428 -0.0009
 9994TIP3    H229922   2.515   4.067   1.256 -1.6087  0.4910  0.5996
 9995TIP3   OH229923   2.049   5.643   0.717 -0.2805 -0.1520  0.5531
 9995TIP3    H129924   1.968   5.690   0.695  0.1182  1.1935  1.9370
 9995TIP3    H229925   2.119   5.696   0.680  0.0472 -0.7246  0.3457
 9996TIP3   OH229926   0.694   0.799   6.323  0.3027 -0.0662 -0.3024
 9996TIP3    H129927   0.736   0.718   6.295  0.6597  0.6271 -1.8416
 9996TIP3    H229928   0.611   0.771   6.360  0.9280 -1.2277  0.2556
 9997TIP3   OH229929   6.702   1.083   5.957 -0.1470 -0.6109 -0.1135
 9997TIP3    H129930   6.627   1.142   5.960  0.1993 -0.1910  0.5292
 9997TIP3    H229931   6.742   1.091   6.044  0.7517 -0.6820 -0.5146
 9998TIP3   OH229932   1.164   0.259   4.530  0.3007  0.3712 -0.1501
 9998TIP3    H129933   1.085   0.241   4.581  0.5917  0.2907  0.2720
 9998TIP3    H229934   1.226   0.293   4.593  0.7967 -0.1007 -0.3834
 9999TIP3   OH229935   7.880   0.748   6.208 -0.0336  0.1574 -0.9415
 9999TIP3    H129936   7.933   0.824   6.185  0.8224 -0.5018 -1.1967
 9999TIP3    H229937   7.811   0.782   6.264  0.1048  1.1817 -1.3881
10000TIP3   OH229938   7.244   1.580   5.849 -0.0026 -0.0899 -0.5585
10000TIP3    H129939   7.217   1.571   5.757 -2.6264  0.2471  0.1426
10000TIP3    H229940   7.256   1.490   5.879  0.3525 -0.2202 -1.0750
10001TIP3   OH229941   2.953   6.082   0.745 -0.3506 -0.4332  0.9104
10001TIP3    H129942   3.042   6.113   0.726 -0.9492  0.4927 -0.4416
10001TIP3    H229943   2.921   6.140   0.814  0.4084 -1.3259  2.0267
10002TIP3   OH229944   2.563   4.368   0.372 -0.2376  0.5820 -0.6478
10002TIP3    H129945   2.646   4.323   0.386 -0.7725 -0.2387 -0.0294
10002TIP3    H229946   2.496   4.302   0.392 -1.0650  2.0792  1.7685
10003TIP3   OH229947   0.332   4.345   3.256 -0.0792  0.6075  0.0848
10003TIP3    H129948   0.297   4.295   3.329  1.4752 -1.9979 -0.9082
10003TIP3    H229949   0.259   4.350   3.194 -0.9540  1.5953  1.1732
10004TIP3   OH229950   8.094   4.527   0.421  0.0807  0.3185 -0.7237
10004TIP3    H129951   8.076   4.486   0.336 -0.4867 -0.3764 -0.2802
10004TIP3    H229952   8.175   4.485   0.452 -0.5047 -0.5062 -0.2653
10005TIP3   OH229953   7.115   2.759   5.769  0.0840 -0.0414  0.2778
10005TIP3    H129954   7.025   2.728   5.768 -1.2025  3.3906 -1.8093
10005TIP3    H229955   7.161   2.703   5.707 -1.4030  0.1910 -1.0481
10006TIP3   OH229956   0.797   5.307   1.614  0.1899 -0.4566  0.5294
10006TIP3    H129957   0.859   5.279   1.682  0.5360 -0.3898  0.2410
10006TIP3    H229958   0.783   5.229   1.560 -0.5886 -0.6927  1.0541
10007TIP3   OH229959   1.288   4.995   0.965  0.0579  0.0901 -0.6689
10007TIP3    H129960   1.199   5.002   0.998  0.1462  1.1803 -0.6363
10007TIP3    H229961   1.343   5.027   1.036  0.3381  1.1678 -1.3528
10008TIP3   OH229962   8.226   5.003   6.602  0.7993  0.0196  0.0082
10008TIP3    H129963   8.253   4.939   6.667  0.8747  0.8470  0.8103
10008TIP3    H229964   8.133   4.985   6.588  0.7774 -0.1482  0.3611
10009TIP3   OH229965   3.059   6.103   0.415 -0.5164 -0.3788  0.4482
10009TIP3    H129966   3.148   6.097   0.449 -0.2540 -0.5713 -0.2529
10009TIP3    H229967   3.053   6.192   0.379 -0.5757 -0.3941  0.4209
10010TIP3   OH229968   7.728   1.984   6.436  0.0212 -0.0597  0.1987
10010TIP3    H129969   7.766   2.069   6.414 -0.8641 -0.2550 -2.2224
10010TIP3    H229970   7.634   2.000   6.443 -0.1696 -0.8421 -0.4355
10011TIP3   OH229971   0.113   7.703   0.841 -0.0438 -0.1457 -0.0676
10011TIP3    H129972   0.199   7.692   0.801 -0.8392  0.4080 -2.0155
10011TIP3    H229973   0.118   7.788   0.886  0.4809 -0.2070 -0.0053
10012TIP3   OH229974   0.379   7.123   0.717 -0.2592  0.2377  0.1643
10012TIP3    H129975   0.332   7.101   0.636 -1.3394  0.5607  0.7000
10012TIP3    H229976   0.378   7.218   0.721  0.9705  0.2764 -0.1158
10013TIP3   OH229977   6.984   2.165   6.471  0.7437 -0.1052  0.4277
10013TIP3    H129978   7.002   2.218   6.393  0.4189 -0.0173  0.4110
10013TIP3    H229979   6.897   2.127   6.455  0.4209  0.3844  1.0067
10014TIP3   OH229980   1.942   6.797   0.368  0.3305 -0.5568  0.3166
10014TIP3    H129981   1.882   6.740   0.418  0.9073 -0.7391  0.8008
10014TIP3    H229982   1.988   6.848   0.434  1.1277 -0.8219 -0.0260
10015TIP3   OH229983   6.872   3.787   6.521 -0.4148  0.4189  0.1619
10015TIP3    H129984   6.788   3.779   6.477  0.0599 -0.1715 -0.6563
10015TIP3    H229985   6.911   3.867   6.484  0.1218 -0.2500 -0.7487
10016TIP3   OH229986   6.009   2.607   6.020  0.3354 -0.1694 -0.0823
10016TIP3    H129987   5.988   2.673   6.086  1.1112 -0.3409  0.3380
10016TIP3    H229988   5.976   2.645   5.938 -1.9219 -0.5948  0.6057
10017TIP3   OH229989  -0.030   6.955   1.118 -0.1965  0.1677  0.4577
10017TIP3    H129990   0.051   6.947   1.068 -0.2763  1.8184  0.0327
10017TIP3    H229991  -0.014   6.906   1.198 -0.7648 -4.2530 -1.9880
10018TIP3   OH229992   5.933   2.373   6.767  0.1324 -0.5000 -0.2843
10018TIP3    H129993   5.993   2.445   6.787 -0.8945  0.2286  0.1648
10018TIP3    H229994   5.980   2.322   6.700  0.2352  1.4318 -1.7509
10019TIP3   OH229995   6.406   1.471   5.730  0.3085 -0.2754  0.3758
10019TIP3    H129996   6.371   1.544   5.782  1.2282 -0.4444  1.2403
10019TIP3    H229997   6.353   1.472   5.650 -0.6191  0.4610  0.9811
10020TIP3   OH229998   7.313   1.761   4.907  0.3454 -0.2642 -0.3620
10020TIP3    H129999   7.306   1.668   4.932  0.9046 -1.1006 -3.1660
10020TIP3    H230000   7.407   1.775   4.897  0.2367  0.5434 -0.2306
10021TIP3   OH230001   0.736   4.728   0.116  0.1940  0.0095  0.2772
10021TIP3    H130002   0.779   4.781   0.183 -0.7072  0.9109  0.1548
10021TIP3    H230003   0.793   4.735   0.040  0.9551 -0.5960  0.7884
10022TIP3   OH230004   1.832   2.161   6.255  0.4186 -0.4912 -0.2312
10022TIP3    H130005   1.837   2.256   6.265 -2.1877 -0.0974 -2.1663
10022TIP3    H230006   1.862   2.126   6.340  2.1136  1.9948  0.2389
10023TIP3   OH230007   0.012   1.668   6.429  0.1782 -0.2312  0.6427
10023TIP3    H130008   0.009   1.742   6.490  0.5523  0.4846 -0.1904
10023TIP3    H230009   0.089   1.686   6.374 -0.6472 -0.4083 -0.6039
10024TIP3   OH230010   3.301   6.022   0.105  0.2620  0.5848  0.1341
10024TIP3    H130011   3.213   6.047   0.133  0.1288  0.0824  0.1791
10024TIP3    H230012   3.352   6.017   0.186 -0.3280 -1.6660  0.4066
10025TIP3   OH230013   5.779   7.951   5.007  0.4043  0.0840 -0.4076
10025TIP3    H130014   5.752   7.889   5.075  2.1013  0.0354  0.2464
10025TIP3    H230015   5.780   7.900   4.926 -1.4558  0.0961 -0.4753
10026TIP3   OH230016   6.842   0.907   4.963  0.1281  0.3240  0.3402
10026TIP3    H130017   6.760   0.859   4.962 -0.0427  0.6064  0.8439
10026TIP3    H230018   6.833   0.972   4.893 -0.2317  0.6091  0.6492
10027TIP3   OH230019   6.854   1.099   6.191 -0.1143 -0.5885  0.8768
10027TIP3    H130020   6.850   1.132   6.281 -0.9576  0.9544  0.2876
10027TIP3    H230021   6.921   1.153   6.148 -0.5087 -0.5715  0.2752
10028TIP3   OH230022   8.019  -0.006   3.947  0.4456  0.0625 -0.3734
10028TIP3    H130023   8.054   0.025   3.864  1.4152  2.7640  0.9824
10028TIP3    H230024   8.087   0.016   4.011  0.6807 -3.9594  0.8573
10029TIP3   OH230025   7.144   7.303   5.325  0.5691  0.1590 -0.2284
10029TIP3    H130026   7.165   7.284   5.416 -2.0934  0.1349  0.4113
10029TIP3    H230027   7.114   7.394   5.326 -2.8009 -0.8842 -0.4523
10030TIP3   OH230028   1.024   1.584   6.758 -0.6898 -0.3383  0.1202
10030TIP3    H130029   0.971   1.536   6.821 -1.0974  0.8185  0.6646
10030TIP3    H230030   1.070   1.516   6.709 -1.1063 -1.2754  1.0137
10031TIP3   OH230031   4.099   6.122   0.350  0.2406 -0.3113 -0.7580
10031TIP3    H130032   4.163   6.051   0.350  0.6883  0.0985 -0.9854
10031TIP3    H230033   4.015   6.078   0.332  0.4455 -0.8479 -0.4102
10032TIP3   OH230034   7.523   2.243   6.586  0.6714  0.4586 -0.6153
10032TIP3    H130035   7.473   2.284   6.656  1.2589  2.0198 -1.0753
10032TIP3    H230036   7.458   2.225   6.518  0.3479  0.2954 -0.2626
10033TIP3   OH230037   8.223   0.517   6.189 -0.4677  0.3495 -0.1175
10033TIP3    H130038   8.160   0.546   6.255 -0.0804  1.8256 -0.3723
10033TIP3    H230039   8.307   0.548   6.221 -0.1096 -0.0511 -0.6628
10034TIP3   OH230040   8.145   1.531   5.181  0.0826  0.1052 -0.0796
10034TIP3    H130041   8.210   1.540   5.251 -0.0032  1.5059 -0.1738
10034TIP3    H230042   8.092   1.610   5.187 -1.9569 -1.2622  0.3211
10035TIP3   OH230043   0.056   1.059   5.218 -0.0174 -0.2374 -0.0014
10035TIP3    H130044   0.075   1.021   5.132 -0.3450  1.2412 -0.7278
10035TIP3    H230045   0.073   0.987   5.280  0.4559 -1.2310 -1.2702
10036TIP3   OH230046   1.395   7.407   0.239 -0.1924  0.2254  0.1002
10036TIP3    H130047   1.304   7.381   0.227  0.0551 -0.8753  0.5080
10036TIP3    H230048   1.445   7.347   0.183  0.3398  0.2981  0.4856
10037TIP3   OH230049   6.408   1.849   0.700 -0.0293  0.3347 -0.0103
10037TIP3    H130050   6.349   1.815   0.632 -2.8043  0.2253  2.3649
10037TIP3    H230051   6.391   1.943   0.700  1.1377  0.5494 -0.5302
10038TIP3   OH230052   6.752   7.418   5.448  0.0090  0.2229  0.1689
10038TIP3    H130053   6.780   7.371   5.369  1.9730 -0.5072  1.2678
10038TIP3    H230054   6.742   7.509   5.420  0.0710 -0.1457 -1.0691
10039TIP3   OH230055   0.126   0.800   6.180  0.3586 -0.5964  0.9784
10039TIP3    H130056   0.106   0.752   6.260  0.6309 -1.6832  0.3954
10039TIP3    H230057   0.060   0.772   6.117 -2.0139  2.8423  1.7979
10040TIP3   OH230058   0.065   1.827   6.654  0.4112 -0.1770  0.4472
10040TIP3    H130059   0.147   1.828   6.703  0.1597 -0.4343  0.8738
10040TIP3    H230060   0.063   1.912   6.610 -0.0666  0.6732  2.0673
10041TIP3   OH230061   7.241   2.931   5.175 -0.3752  0.0965 -0.0317
10041TIP3    H130062   7.303   2.878   5.225 -1.8441 -1.5387  0.0958
10041TIP3    H230063   7.194   2.982   5.241  0.8059  1.3728 -0.1315
10042TIP3   OH230064   7.758   4.292   5.246 -0.0355 -0.2316  0.4279
10042TIP3    H130065   7.786   4.243   5.323 -0.7732 -0.8184  0.3308
10042TIP3    H230066   7.663   4.287   5.248 -0.0389 -0.6303 -0.7708
10043TIP3   OH230067   0.320   5.937   1.580  0.0092  0.4848 -0.1241
10043TIP3    H130068   0.288   5.958   1.492 -1.3078 -0.1806  0.1835
10043TIP3    H230069   0.406   5.979   1.585 -0.7194  2.1548 -1.0546
10044TIP3   OH230070   1.535   4.746   0.148  0.0002  0.2534  0.3890
10044TIP3    H130071   1.630   4.733   0.156  0.0892  1.7868  2.0215
10044TIP3    H230072   1.525   4.811   0.079  0.1238  0.1331  0.2556
10045TIP3   OH230073   0.880   3.606   6.862  0.3522  0.1078 -0.3307
10045TIP3    H130074   0.939   3.674   6.830 -0.1222  0.9011  0.4232
10045TIP3    H230075   0.810   3.655   6.906  0.2448 -0.8895  0.6234
10046TIP3   OH230076   0.548   1.724   4.100  0.4043 -0.1214  0.1018
10046TIP3    H130077   0.480   1.786   4.072  0.9113  0.3283 -0.1345
10046TIP3    H230078   0.499   1.644   4.121 -0.1423  0.0175 -0.6025
10047TIP3   OH230079   1.934   0.376   5.634 -0.1109  0.0323  0.3031
10047TIP3    H130080   1.924   0.437   5.708 -0.1255 -0.4777  0.7233
10047TIP3    H230081   2.007   0.320   5.659 -0.5470 -0.5709  0.2302
10048TIP3   OH230082   0.242   0.282   1.443 -0.2444 -0.2053  0.4025
10048TIP3    H130083   0.184   0.355   1.421 -0.6287  0.4248  3.2710
10048TIP3    H230084   0.319   0.295   1.388 -1.9285  0.1053 -1.9653
10049TIP3   OH230085   0.512   2.265   5.794  0.0436  0.1030 -0.5332
10049TIP3    H130086   0.590   2.320   5.805 -0.5597  0.9135 -0.2798
10049TIP3    H230087   0.511   2.210   5.873 -0.0178  0.5745 -0.2008
10050TIP3   OH230088   3.856   6.856   1.497  0.3287  0.0356  0.5024
10050TIP3    H130089   3.881   6.905   1.575 -0.6665 -0.8889  1.4150
10050TIP3    H230090   3.919   6.784   1.493 -0.0148 -0.2857  0.8251
10051TIP3   OH230091   1.145   2.689   6.517 -0.2394 -0.0759 -0.0768
10051TIP3    H130092   1.138   2.689   6.421  0.0962 -0.5301 -0.1067
10051TIP3    H230093   1.219   2.747   6.535 -2.1828  2.4310  0.0805
10052TIP3   OH230094   2.654   5.174   1.612 -0.3043  0.2514  0.1907
10052TIP3    H130095   2.676   5.235   1.683 -3.5902 -0.2142  1.6748
10052TIP3    H230096   2.733   5.120   1.602  0.1657  0.1642  3.6954
10053TIP3   OH230097   2.514   3.230   5.851 -0.4151  0.1916  0.4590
10053TIP3    H130098   2.593   3.283   5.849 -0.9353  0.9548 -2.0165
10053TIP3    H230099   2.444   3.292   5.869 -0.5963 -0.2696  1.3397
10054TIP3   OH230100   3.888   6.578   1.577 -0.6799  0.2346  0.1248
10054TIP3    H130101   3.816   6.519   1.600 -0.0196 -0.5722  0.1082
10054TIP3    H230102   3.956   6.560   1.641  0.2671 -0.3761 -1.0343
10055TIP3   OH230103   2.636   0.891   6.800  0.0062 -0.1389 -0.1045
10055TIP3    H130104   2.680   0.901   6.884  1.6501 -0.4651 -0.8954
10055TIP3    H230105   2.574   0.964   6.795  0.3900  0.2714  1.0798
10056TIP3   OH230106   0.653   2.687   5.502  0.5084 -0.5353  0.0471
10056TIP3    H130107   0.558   2.687   5.487  0.6027 -0.1770 -0.5788
10056TIP3    H230108   0.685   2.759   5.447  1.1137 -0.5124  0.4332
10057TIP3   OH230109   3.599   4.218   2.879 -0.1655  0.2856 -0.8691
10057TIP3    H130110   3.630   4.299   2.840  1.1039 -0.6099 -1.7470
10057TIP3    H230111   3.646   4.211   2.962 -0.0642  0.3150 -0.9241
10058TIP3   OH230112   2.127   0.604   6.912 -0.5366 -0.0224 -0.5855
10058TIP3    H130113   2.038   0.592   6.880 -1.0672  1.3243  0.3541
10058TIP3    H230114   2.121   0.677   6.974  1.2273  0.1338 -0.5707
10059TIP3   OH230115   0.615   1.875   6.585  0.0448 -0.3115 -0.1129
10059TIP3    H130116   0.612   1.780   6.578  1.1139 -0.3398 -0.3948
10059TIP3    H230117   0.622   1.893   6.679  0.2703 -0.5378 -0.0859
10060TIP3   OH230118   4.547   6.189   1.215  0.1120  0.3483 -0.4187
10060TIP3    H130119   4.607   6.219   1.147  1.3591  2.3372  1.4832
10060TIP3    H230120   4.534   6.265   1.271 -2.2739 -0.7630  0.6029
10061TIP3   OH230121   8.236   3.838   5.128 -0.0324  0.0231 -0.4038
10061TIP3    H130122   8.202   3.927   5.139  0.3030  0.2592 -1.2332
10061TIP3    H230123   8.165   3.792   5.083  0.4633  0.3350 -1.5226
10062TIP3   OH230124   3.394   5.137   1.639  0.0564  0.6342  0.0280
10062TIP3    H130125   3.337   5.127   1.563  1.5096  0.7878 -1.1167
10062TIP3    H230126   3.440   5.220   1.624  2.2478 -0.5842 -0.2494
10063TIP3   OH230127   4.253   6.445   0.662  0.5065 -0.2369  0.0115
10063TIP3    H130128   4.292   6.522   0.621 -1.1906 -0.6227 -2.4408
10063TIP3    H230129   4.214   6.477   0.743  2.4512  0.8677  0.5360
10064TIP3   OH230130   7.952   2.935   5.988  0.2101  0.3537 -0.2293
10064TIP3    H130131   7.877   2.960   6.042  0.3599  1.6301 -0.5919
10064TIP3    H230132   8.028   2.976   6.031  0.3455  1.2768 -1.3189
10065TIP3   OH230133   1.949   6.535   0.273  0.1297 -0.1225  0.3316
10065TIP3    H130134   2.000   6.603   0.316  1.4234 -0.2664 -0.9288
10065TIP3    H230135   2.011   6.464   0.257 -1.0969 -1.4098  1.1939
10066TIP3   OH230136   6.064   6.577   1.360  0.1695  0.0538  0.0386
10066TIP3    H130137   6.134   6.641   1.343 -0.5176  0.2698 -2.1629
10066TIP3    H230138   6.027   6.560   1.274 -2.3251 -0.2691  1.1394
10067TIP3   OH230139   6.486   7.805   5.532  0.1937  0.2322 -0.0113
10067TIP3    H130140   6.519   7.829   5.445 -0.6634  2.4027  0.2220
10067TIP3    H230141   6.554   7.750   5.570  0.9066 -0.1268 -1.7659
10068TIP3   OH230142   3.771   0.591   6.393  0.4103 -0.1686  0.3277
10068TIP3    H130143   3.749   0.503   6.426 -3.0212  0.3015 -0.4586
10068TIP3    H230144   3.764   0.647   6.470 -0.4865 -0.1608  0.2568
10069TIP3   OH230145   3.701   2.908   6.530 -0.5781 -0.2306  0.4497
10069TIP3    H130146   3.700   2.845   6.602  1.8763 -1.0153 -0.1287
10069TIP3    H230147   3.617   2.953   6.536 -2.2536 -3.2952  1.1042
10070TIP3   OH230148   2.049   4.027   5.846 -0.8636 -0.0798 -0.0349
10070TIP3    H130149   2.042   4.053   5.754 -0.1182  1.0211  0.2110
10070TIP3    H230150   1.980   3.961   5.858 -0.3692 -0.9105 -1.6119
10071TIP3   OH230151   0.374   1.649   4.417  0.2440 -0.6476  0.0963
10071TIP3    H130152   0.406   1.603   4.494 -1.2400 -1.5363  0.1816
10071TIP3    H230153   0.412   1.737   4.425 -1.1110 -0.2458  2.6306
10072TIP3   OH230154   1.307   3.013   5.488  0.8387 -0.3901  0.1350
10072TIP3    H130155   1.316   3.108   5.492  1.3628 -0.4168 -0.3228
10072TIP3    H230156   1.213   2.997   5.495  0.8737  0.0654  1.9562
10073TIP3   OH230157   1.881   3.823   5.894  0.5098 -0.0404 -0.7320
10073TIP3    H130158   1.786   3.807   5.898  0.4146  0.4372 -1.0272
10073TIP3    H230159   1.918   3.740   5.865 -0.0186  0.3986 -2.6883
10074TIP3   OH230160   1.836   7.224   1.039 -0.3818  0.1237 -0.1955
10074TIP3    H130161   1.771   7.180   1.094 -1.1301 -0.1829 -1.3272
10074TIP3    H230162   1.910   7.162   1.037  0.0365  0.5515  1.2323
10075TIP3   OH230163   3.020   5.433   0.291 -0.1145 -0.0414  0.1541
10075TIP3    H130164   3.056   5.454   0.378  0.4167  1.2358 -0.3679
10075TIP3    H230165   2.942   5.381   0.310 -0.2465  0.5779  1.4155
10076TIP3   OH230166   0.744   1.149   5.710 -0.7338 -0.1501 -0.2298
10076TIP3    H130167   0.734   1.064   5.665 -1.5996 -0.5981  0.8037
10076TIP3    H230168   0.685   1.144   5.785  0.0758  0.9271  0.4976
10077TIP3   OH230169   5.534   7.640   1.515 -0.0619 -0.2483  0.4972
10077TIP3    H130170   5.613   7.687   1.539 -0.5043  0.6972  0.1497
10077TIP3    H230171   5.462   7.699   1.539 -0.8319 -2.2541  3.4739
10078TIP3   OH230172   2.043   5.284   2.575 -0.1911 -0.8977  0.4054
10078TIP3    H130173   1.980   5.213   2.587 -1.9763  0.7021  0.7310
10078TIP3    H230174   1.992   5.364   2.587  1.9388  0.4433  0.8498
10079TIP3   OH230175   3.671   7.525   1.278 -0.0702  0.0903  0.2969
10079TIP3    H130176   3.638   7.457   1.220 -0.5341 -1.1751  2.0094
10079TIP3    H230177   3.685   7.481   1.362 -0.6911  2.1536  1.5340
10080TIP3   OH230178   4.290   4.012   0.501 -0.0438 -0.3866 -0.0299
10080TIP3    H130179   4.221   3.977   0.557  1.0957 -0.8373  1.0929
10080TIP3    H230180   4.314   3.939   0.444  0.1011 -0.4856  0.1574
10081TIP3   OH230181   3.354   5.773   0.943 -0.5185 -0.1835  0.1707
10081TIP3    H130182   3.353   5.692   0.892 -1.2624  0.8527 -1.5039
10081TIP3    H230183   3.282   5.825   0.906  0.6575  1.6861  0.4773
10082TIP3   OH230184   4.978   5.920   0.348 -0.0872  0.7569  0.3674
10082TIP3    H130185   4.938   6.006   0.344  0.0140  0.7352 -1.5114
10082TIP3    H230186   5.049   5.929   0.412  0.5722  2.3508 -0.5592
10083TIP3   OH230187   1.034   3.826   6.789 -0.3257 -0.7520  0.3399
10083TIP3    H130188   0.960   3.874   6.826  0.4926 -1.0225  2.3719
10083TIP3    H230189   1.107   3.888   6.795 -0.4791 -0.2560 -2.2346
10084TIP3   OH230190   1.981   3.877   6.197 -0.1476  0.5317 -0.0273
10084TIP3    H130191   2.060   3.823   6.196 -1.0873 -0.8638  0.2982
10084TIP3    H230192   1.976   3.914   6.109  0.4263 -0.0261 -0.2955
10085TIP3   OH230193   4.369   4.422   0.929 -0.2990 -0.4635  0.6105
10085TIP3    H130194   4.318   4.416   1.010  2.4036  0.3866  2.4328
10085TIP3    H230195   4.433   4.351   0.936  0.8327  0.4825 -0.1642
10086TIP3   OH230196   4.056   7.004   0.639 -0.1879 -0.0630  0.7704
10086TIP3    H130197   4.120   6.940   0.607 -2.7014 -1.1370 -2.4536
10086TIP3    H230198   3.992   6.951   0.687 -1.5210  0.1573 -0.7128
10087TIP3   OH230199   3.748   4.918   0.810  0.4901  0.2576 -0.8900
10087TIP3    H130200   3.676   4.858   0.792  1.1075 -0.5834 -0.6217
10087TIP3    H230201   3.707   4.994   0.851 -0.2694 -0.1015 -0.9837
10088TIP3   OH230202   3.303   7.572   0.448  0.2291  0.2351 -0.1165
10088TIP3    H130203   3.304   7.537   0.359 -0.1021 -1.1884  0.4312
10088TIP3    H230204   3.374   7.636   0.449  1.2554 -0.8778 -0.9333
10089TIP3   OH230205   4.982   5.167   0.060 -0.0189  0.2274  0.3855
10089TIP3    H130206   5.019   5.245   0.021 -0.3534 -0.1984 -0.7908
10089TIP3    H230207   5.006   5.096   0.001 -1.2665 -0.2983  0.4908
10090TIP3   OH230208   0.551   2.069   6.364  0.4772 -0.4403 -0.0362
10090TIP3    H130209   0.471   2.066   6.312  1.2397 -0.1352 -1.2422
10090TIP3    H230210   0.530   2.018   6.442 -0.8949 -0.3525 -0.3235
10091TIP3   OH230211   1.718   3.494   6.680 -0.3463 -0.2773 -0.2886
10091TIP3    H130212   1.637   3.543   6.687 -0.3469 -0.2640 -0.3920
10091TIP3    H230213   1.698   3.423   6.619 -0.2272 -0.1635 -0.4625
10092TIP3   OH230214   1.661   7.598   2.009 -0.1104  0.0466 -0.0055
10092TIP3    H130215   1.746   7.636   1.989 -0.0090  1.2153  2.4564
10092TIP3    H230216   1.680   7.507   2.032  0.3844  0.1037 -0.1943
10093TIP3   OH230217   5.494   7.646   0.662  0.0191 -0.3390 -0.5918
10093TIP3    H130218   5.538   7.722   0.699  0.0371 -0.4911 -0.3078
10093TIP3    H230219   5.403   7.674   0.651  0.0217 -0.2847 -0.4720
10094TIP3   OH230220   1.265   1.355   4.403 -0.2133  0.1359 -0.0059
10094TIP3    H130221   1.179   1.320   4.382 -0.8266  0.2656  2.1590
10094TIP3    H230222   1.272   1.347   4.498  1.6941  1.2026 -0.0236
10095TIP3   OH230223   1.701   1.660   6.582 -0.0340 -0.0914  0.0711
10095TIP3    H130224   1.639   1.635   6.513  0.1868 -1.1190  0.2419
10095TIP3    H230225   1.748   1.579   6.602  2.0866  0.9103 -0.7871
10096TIP3   OH230226   2.543   5.270   1.096  0.1923  0.0040  0.4413
10096TIP3    H130227   2.542   5.348   1.151 -0.2381 -0.9020  1.7451
10096TIP3    H230228   2.569   5.302   1.009  3.2270  1.0953  1.6896
10097TIP3   OH230229   3.877   5.251   0.315 -0.0410  0.1801  0.0369
10097TIP3    H130230   3.910   5.182   0.373 -1.0356 -0.2018  0.1493
10097TIP3    H230231   3.851   5.322   0.374  1.0103  0.6685 -0.0806
10098TIP3   OH230232   5.666   6.045   0.586 -0.0088  0.5747 -0.0996
10098TIP3    H130233   5.677   6.051   0.681  0.4061  1.7230 -0.2027
10098TIP3    H230234   5.576   6.016   0.574  0.3790 -0.9864  0.6642
10099TIP3   OH230235   3.164   7.473   0.228  0.2259  0.9346  0.0959
10099TIP3    H130236   3.138   7.518   0.148  2.0749 -1.6128 -2.0186
10099TIP3    H230237   3.087   7.422   0.253 -0.0161  0.9246 -0.6538
10100TIP3   OH230238   6.404   7.524   6.325 -0.0661 -0.2039  0.4458
10100TIP3    H130239   6.450   7.564   6.398 -0.4891  0.5879  0.2862
10100TIP3    H230240   6.389   7.433   6.352  3.8758 -1.2158 -0.5644
10101TIP3   OH230241   8.401   0.070   0.115 -0.0391 -0.0437  0.3217
10101TIP3    H130242   8.441   0.145   0.159  0.4244  0.3624 -0.7809
10101TIP3    H230243   8.443   0.067   0.029  0.0472 -1.6680  0.4150
10102TIP3   OH230244   1.612   1.172   5.899  0.1884  0.3420 -0.2983
10102TIP3    H130245   1.611   1.235   5.971 -0.6766 -1.2673  1.1174
10102TIP3    H230246   1.679   1.108   5.924 -1.6729 -1.4651  0.1866
10103TIP3   OH230247   4.100   2.924   1.211 -0.1565 -1.0446 -0.0176
10103TIP3    H130248   4.082   2.952   1.301 -0.4529 -0.5162 -0.2391
10103TIP3    H230249   4.033   2.859   1.192 -1.6579  0.6898 -0.7316
10104TIP3   OH230250   0.351   1.829   3.521 -0.4459  0.1635  0.3615
10104TIP3    H130251   0.414   1.881   3.472  0.6111 -0.4188  1.0925
10104TIP3    H230252   0.272   1.829   3.466  0.8228 -0.7404 -1.4999
10105TIP3   OH230253   8.426   1.438   5.631  0.5052  0.2633 -0.0163
10105TIP3    H130254   8.478   1.358   5.617  2.7598  1.8275 -0.8217
10105TIP3    H230255   8.428   1.451   5.726  1.4208  0.2061 -0.0230
10106TIP3   OH230256   4.414   3.362   0.258  0.1844  0.0665 -0.1604
10106TIP3    H130257   4.432   3.268   0.258  0.6377  0.1453 -1.4159
10106TIP3    H230258   4.332   3.371   0.307  0.4883 -0.9089  0.5325
10107TIP3   OH230259   3.343   2.242   3.979 -0.8820 -0.4926 -0.5093
10107TIP3    H130260   3.434   2.268   3.990 -0.4222 -1.6645 -1.4308
10107TIP3    H230261   3.294   2.324   3.984  0.0007 -0.0459  2.0716
10108TIP3   OH230262   0.485   2.744   6.830 -0.4300 -0.7507  0.1786
10108TIP3    H130263   0.540   2.781   6.899 -1.8583  0.0635  0.9016
10108TIP3    H230264   0.532   2.762   6.749  0.8797 -1.0169  0.8767
10109TIP3   OH230265   1.906   3.717   6.668 -0.4676  0.1766  0.6555
10109TIP3    H130266   1.918   3.708   6.763 -3.1105  0.6909  1.0717
10109TIP3    H230267   1.854   3.640   6.643 -1.0484  0.8223 -0.1269
10110TIP3   OH230268   2.066   4.528   6.939 -0.4043  0.1925 -0.2574
10110TIP3    H130269   2.133   4.546   6.873  0.9035 -0.3641  0.9148
10110TIP3    H230270   2.035   4.440   6.919  0.9510 -0.5101  0.6749
10111TIP3   OH230271   1.644   3.213   6.638 -0.3663  0.2178  0.9080
10111TIP3    H130272   1.657   3.163   6.557 -0.3365  0.6074  0.6711
10111TIP3    H230273   1.556   3.189   6.667 -1.8525  2.8176 -1.1897
10112TIP3   OH230274   6.889   6.401   0.405 -0.0808  0.0163 -0.0458
10112TIP3    H130275   6.883   6.311   0.374  0.8999 -0.2261  0.4714
10112TIP3    H230276   6.879   6.454   0.326 -0.0189 -0.5543 -0.4420
10113TIP3   OH230277   6.485   0.151   0.605  0.5908  0.0186  0.3230
10113TIP3    H130278   6.507   0.098   0.682 -0.9232  0.1636  0.8810
10113TIP3    H230279   6.497   0.241   0.633  0.9220  0.0401  0.1070
10114TIP3   OH230280   2.253   1.507   6.390 -0.0985  0.2733 -0.1785
10114TIP3    H130281   2.347   1.492   6.375  0.1436  1.5815 -0.0828
10114TIP3    H230282   2.244   1.507   6.486 -0.3308 -0.5833 -0.1961
10115TIP3   OH230283   1.256   3.622   5.133  0.0036  0.8454  0.0615
10115TIP3    H130284   1.200   3.670   5.072  1.0028  1.0365 -0.7122
10115TIP3    H230285   1.266   3.536   5.094 -0.0477  0.6914  0.3846
10116TIP3   OH230286   1.611   6.252   0.016  0.1560 -0.0528 -0.6464
10116TIP3    H130287   1.661   6.258   0.097  0.7488 -0.7814 -0.9430
10116TIP3    H230288   1.677   6.235  -0.051  0.0558  3.6828 -1.7982
10117TIP3   OH230289   3.173   2.999   6.109 -0.1394  0.7126  0.3363
10117TIP3    H130290   3.167   2.912   6.069 -3.7362  0.0528  2.0519
10117TIP3    H230291   3.204   3.056   6.039  1.7007 -1.8232 -0.9983
10118TIP3   OH230292   0.765   3.272   5.893 -0.5606  0.6210  0.3117
10118TIP3    H130293   0.766   3.187   5.937  0.8203 -0.3390 -1.5039
10118TIP3    H230294   0.744   3.251   5.802  0.6504  2.1269 -0.3321
10119TIP3   OH230295   7.625   3.079   5.585  0.1689  0.2425  0.7600
10119TIP3    H130296   7.604   3.038   5.669 -0.4017  0.6536  0.8200
10119TIP3    H230297   7.569   3.156   5.581 -0.0529  0.0352 -0.1563
10120TIP3   OH230298   6.181   6.938   0.107  0.5970 -0.5592 -0.4475
10120TIP3    H130299   6.242   6.971   0.041 -0.6220  0.2345 -1.1930
10120TIP3    H230300   6.228   6.865   0.148  2.4545  0.6819 -0.2873
10121TIP3   OH230301   1.700   4.571   5.220  0.7314  0.1080  0.2574
10121TIP3    H130302   1.763   4.582   5.149  0.3994  0.6956  0.0507
10121TIP3    H230303   1.659   4.486   5.203  0.4956  0.3435 -0.3833
10122TIP3   OH230304   3.563   3.555   6.874  0.2090 -0.4712  0.0773
10122TIP3    H130305   3.481   3.597   6.848 -1.4388 -3.0158  0.9615
10122TIP3    H230306   3.604   3.528   6.791 -0.0883  0.3622 -0.3430
10123TIP3   OH230307   3.173   3.727   6.501 -0.5568  0.0173 -0.5822
10123TIP3    H130308   3.267   3.710   6.495 -0.4700  0.8854 -1.9572
10123TIP3    H230309   3.166   3.820   6.521 -1.1131 -0.1735  0.1212
10124TIP3   OH230310   2.144   2.773   6.462 -0.2261 -0.0833  0.1402
10124TIP3    H130311   2.112   2.711   6.398 -0.7576 -1.1397  1.4015
10124TIP3    H230312   2.240   2.762   6.461 -0.2952 -0.7154  0.1364
10125TIP3   OH230313   2.342   7.139   0.521 -0.2957 -0.4912  0.7418
10125TIP3    H130314   2.412   7.109   0.579 -1.3103 -0.9021  1.7882
10125TIP3    H230315   2.312   7.221   0.561  0.2461  0.2094 -0.2602
10126TIP3   OH230316   8.066   1.440   6.040 -0.2750  0.6373  0.5331
10126TIP3    H130317   8.130   1.384   5.996 -1.4962  0.0820 -0.5520
10126TIP3    H230318   7.992   1.383   6.060  0.8471  0.4893  4.7442
10127TIP3   OH230319   3.172   1.772   5.652  0.0768  0.4787  0.1710
10127TIP3    H130320   3.211   1.802   5.734  0.8942  0.3075 -0.1479
10127TIP3    H230321   3.085   1.741   5.676  0.1731  0.7832  0.9107
10128TIP3   OH230322   5.573   6.833   6.764  0.0649  0.5442  0.4159
10128TIP3    H130323   5.530   6.848   6.848 -0.3681 -2.7764  0.8427
10128TIP3    H230324   5.506   6.795   6.708  1.3953 -1.1800 -0.0845
10129TIP3   OH230325   1.435   4.571   6.344 -0.3405 -0.0465  0.1005
10129TIP3    H130326   1.466   4.531   6.425 -0.2886  0.2904  0.2499
10129TIP3    H230327   1.400   4.656   6.371 -1.8968 -0.6389  0.0005
10130TIP3   OH230328   2.986   7.637   0.807  0.1106  1.1313 -0.6109
10130TIP3    H130329   2.894   7.664   0.803  0.4462  2.1860 -1.5857
10130TIP3    H230330   3.014   7.629   0.716  1.0375  1.0062 -0.3296
10131TIP3   OH230331   3.933   6.812   2.720  0.1221  0.4719 -0.1166
10131TIP3    H130332   3.882   6.866   2.780  0.2239  0.9459 -0.4505
10131TIP3    H230333   3.911   6.722   2.743  0.1740  0.6527  0.6385
10132TIP3   OH230334   4.144   7.499   0.257  0.2319  0.2312 -0.8153
10132TIP3    H130335   4.072   7.504   0.195 -2.2304  0.9255  2.0062
10132TIP3    H230336   4.117   7.433   0.320  1.6619  1.1711  0.8169
10133TIP3   OH230337   5.202   4.047   0.662 -0.5277  0.2476 -0.5997
10133TIP3    H130338   5.250   3.998   0.595  1.9622  1.3727  0.2664
10133TIP3    H230339   5.160   4.119   0.615  0.7893  0.7359 -1.0574
10134TIP3   OH230340   2.830   1.022   5.955 -0.1966  0.2882  0.4247
10134TIP3    H130341   2.798   0.946   5.906 -1.5150  0.6376  0.7264
10134TIP3    H230342   2.820   0.998   6.047  1.0514  0.1452  0.5312
10135TIP3   OH230343   0.561   6.693   0.326  0.1421  0.2675  0.1258
10135TIP3    H130344   0.611   6.621   0.288  0.9127  0.7424  0.2250
10135TIP3    H230345   0.626   6.760   0.345 -0.4489  0.6539  0.8315
10136TIP3   OH230346   5.671   7.363   5.437 -0.2928 -0.5109  0.4675
10136TIP3    H130347   5.664   7.459   5.432 -1.0193 -0.3465  3.4931
10136TIP3    H230348   5.725   7.347   5.514 -1.5667 -2.5565  0.9800
10137TIP3   OH230349   0.910   2.793   5.977  0.1354 -0.1283  0.2758
10137TIP3    H130350   0.888   2.726   6.042  2.2475 -1.0329  0.0813
10137TIP3    H230351   0.967   2.748   5.915  1.7191  1.8982  0.2332
10138TIP3   OH230352   6.828   0.123   0.685  0.2354 -0.3443 -0.7132
10138TIP3    H130353   6.824   0.123   0.781 -1.2027 -0.5933 -0.7589
10138TIP3    H230354   6.804   0.034   0.660 -0.5970  0.0434 -1.3363
10139TIP3   OH230355   6.577   3.319   5.680  0.2485  0.0381  0.1306
10139TIP3    H130356   6.561   3.277   5.765 -0.6579 -0.1239 -0.1127
10139TIP3    H230357   6.672   3.330   5.676  0.6982 -3.3112 -0.3930
10140TIP3   OH230358   7.608   3.099   6.364 -0.1335  0.6692 -0.7129
10140TIP3    H130359   7.656   3.144   6.433  2.2562 -0.0163 -1.8577
10140TIP3    H230360   7.546   3.042   6.410 -0.2341  1.9774  0.7877
10141TIP3   OH230361   0.685   2.302   6.033 -0.6146 -0.0580  0.3521
10141TIP3    H130362   0.663   2.210   6.050  3.5024 -1.6636 -2.0703
10141TIP3    H230363   0.729   2.331   6.112 -0.6649 -0.6456  0.5999
10142TIP3   OH230364   0.615   3.624   5.192 -0.0820  0.0885  0.3074
10142TIP3    H130365   0.676   3.680   5.240 -0.0093 -0.7878  1.2587
10142TIP3    H230366   0.575   3.681   5.126  0.5057  1.0740  0.8112
10143TIP3   OH230367   6.532   7.331   1.111  0.2136 -0.1577 -0.0676
10143TIP3    H130368   6.495   7.419   1.119 -0.9624 -0.7626  1.5199
10143TIP3    H230369   6.600   7.328   1.178  0.6192 -0.2818 -0.4851
10144TIP3   OH230370   1.529   6.708   0.077  1.1348 -0.4013 -0.3008
10144TIP3    H130371   1.475   6.686   0.001  0.5704  0.1002 -0.0525
10144TIP3    H230372   1.616   6.676   0.055  0.9048 -0.5408 -1.0242
10145TIP3   OH230373   0.351   5.541   6.275 -0.4240 -0.4314  0.1795
10145TIP3    H130374   0.359   5.636   6.289  0.2633 -0.5012  0.2692
10145TIP3    H230375   0.427   5.504   6.319  1.1404 -0.7392 -2.6472
10146TIP3   OH230376   1.157   3.558   6.529  0.4435  0.0534  0.1839
10146TIP3    H130377   1.195   3.646   6.536 -0.1154  0.2606  0.7528
10146TIP3    H230378   1.144   3.531   6.620  0.6589 -0.6360  0.0074
10147TIP3   OH230379   7.027   4.402   6.789 -0.1379  0.0160  0.0010
10147TIP3    H130380   6.980   4.446   6.717 -2.5130 -1.4448  0.6096
10147TIP3    H230381   7.052   4.473   6.848 -1.5296  0.8397 -0.3791
10148TIP3   OH230382   1.795   7.559   0.518 -0.0723  0.6878  0.8041
10148TIP3    H130383   1.764   7.489   0.576  0.6256 -1.0319 -0.8407
10148TIP3    H230384   1.771   7.529   0.430  1.4020  1.9119 -0.0359
10149TIP3   OH230385   3.304   7.014   1.064 -0.2408 -0.2035  0.2577
10149TIP3    H130386   3.389   6.992   1.027  0.7096  0.9655  1.7127
10149TIP3    H230387   3.307   7.108   1.077 -0.7578 -0.4961  2.7461
10150TIP3   OH230388   0.531   3.281   6.512 -0.2528  0.2039  0.4890
10150TIP3    H130389   0.581   3.362   6.514 -0.1154  0.1837 -1.3755
10150TIP3    H230390   0.596   3.212   6.501 -0.6333  0.1584 -1.6997
10151TIP3   OH230391   5.040   0.172   0.478  0.1018 -0.1470  0.0207
10151TIP3    H130392   5.010   0.261   0.498 -0.3453 -0.2835 -0.0567
10151TIP3    H230393   5.022   0.160   0.385 -0.2883 -0.4962  0.1392
10152TIP3   OH230394   1.280   5.665   5.866 -0.6689  0.4627  0.3079
10152TIP3    H130395   1.232   5.625   5.793 -0.8453 -0.0121  0.6878
10152TIP3    H230396   1.357   5.705   5.824  0.4175 -1.7345  0.1351
10153TIP3   OH230397   2.790   2.733   5.244  0.4218 -0.1472 -0.3856
10153TIP3    H130398   2.726   2.662   5.249  1.5155 -1.1637 -0.5969
10153TIP3    H230399   2.773   2.774   5.159 -0.2219 -0.1414 -0.2563
10154TIP3   OH230400   2.489   4.820   5.692 -0.0456  0.1979 -0.0024
10154TIP3    H130401   2.529   4.840   5.608 -0.1812  0.2769 -0.0476
10154TIP3    H230402   2.560   4.834   5.756 -0.3784  1.7030  0.0638
10155TIP3   OH230403   4.252   7.424   0.699  0.0165 -0.1330  0.1614
10155TIP3    H130404   4.338   7.464   0.694 -0.3831  0.7682  0.3805
10155TIP3    H230405   4.262   7.339   0.655  0.6733  0.5356 -1.0124
10156TIP3   OH230406   1.079   3.787   4.990  0.2319  0.1792  0.1436
10156TIP3    H130407   1.018   3.815   5.058  0.1986 -1.7899  0.9767
10156TIP3    H230408   1.024   3.751   4.920  0.3593 -0.0318  0.1488
10157TIP3   OH230409   3.580   3.233   5.917  0.7000  0.5443 -0.1308
10157TIP3    H130410   3.545   3.303   5.972  0.1570  0.4951 -0.4059
10157TIP3    H230411   3.673   3.228   5.940  0.0696 -0.8737  2.3143
10158TIP3   OH230412   0.820   0.564   6.228 -0.1531 -0.1530 -0.1284
10158TIP3    H130413   0.761   0.518   6.168 -1.2156  0.5058  0.4167
10158TIP3    H230414   0.873   0.620   6.171  0.5035 -1.3108 -0.6968
10159TIP3   OH230415   1.052   1.168   5.488 -0.0340 -0.5694  0.1738
10159TIP3    H130416   0.975   1.125   5.449  1.3240 -2.1270 -0.8437
10159TIP3    H230417   1.126   1.131   5.440  1.3625  0.8164  1.2505
10160TIP3   OH230418   5.404   7.129   0.377 -0.4030  0.0589  0.5093
10160TIP3    H130419   5.403   7.140   0.282 -1.9039 -0.4707  0.4505
10160TIP3    H230420   5.497   7.122   0.399 -0.0360  0.2359 -0.9079
10161TIP3   OH230421   6.317   1.491   0.344  0.4274 -0.3117  0.4690
10161TIP3    H130422   6.412   1.487   0.343  0.4722  0.4876  1.0965
10161TIP3    H230423   6.289   1.400   0.356  1.1117 -0.5295  0.3880
10162TIP3   OH230424   1.473   1.428   4.712 -0.6646 -0.0442 -0.0199
10162TIP3    H130425   1.508   1.450   4.625  1.7142  3.0598  1.6273
10162TIP3    H230426   1.390   1.476   4.717  0.0898  1.2889  0.0714
10163TIP3   OH230427   1.811   3.304   6.265 -0.0979  0.1761 -0.5637
10163TIP3    H130428   1.827   3.226   6.319  1.1745  0.6525 -0.2287
10163TIP3    H230429   1.797   3.270   6.177 -1.1155 -0.5395 -0.1241
10164TIP3   OH230430   8.103   1.960   6.908 -0.1388  0.4133  0.1731
10164TIP3    H130431   8.059   1.913   6.978 -0.9522  0.1899 -0.4845
10164TIP3    H230432   8.176   1.904   6.883  0.9533  1.0966  1.7306
10165TIP3   OH230433   2.628   4.163   6.290 -0.1147 -0.2033 -0.0555
10165TIP3    H130434   2.687   4.112   6.346 -0.4754  0.1863  0.6820
10165TIP3    H230435   2.635   4.121   6.204  1.4523  0.0044 -0.0392
10166TIP3   OH230436   3.539   7.066   0.369 -0.4486 -0.0869  0.2921
10166TIP3    H130437   3.559   6.976   0.344 -2.7811 -0.4783 -0.3087
10166TIP3    H230438   3.583   7.078   0.453  1.9415 -0.9470 -0.7979
10167TIP3   OH230439   1.412   0.961   6.155 -0.1542  0.6878  0.3069
10167TIP3    H130440   1.420   0.881   6.104 -2.0865  1.1682 -0.8044
10167TIP3    H230441   1.387   0.932   6.243  0.6004  0.0080  0.3001
10168TIP3   OH230442   1.354   2.394   6.476 -0.1630  0.2093  0.0615
10168TIP3    H130443   1.273   2.378   6.427  0.3821 -1.3822 -0.3539
10168TIP3    H230444   1.424   2.385   6.410  0.3792  1.1661  0.4947
10169TIP3   OH230445   3.173   2.718   6.544  0.2195  0.0831  0.2578
10169TIP3    H130446   3.191   2.706   6.451 -0.5629  0.6543  0.0261
10169TIP3    H230447   3.255   2.694   6.588 -0.2062 -2.8340 -0.3882
10170TIP3   OH230448   5.577   4.940   1.455 -0.2015  0.0360  0.6443
10170TIP3    H130449   5.544   4.920   1.543  2.4356  2.2501  2.2467
10170TIP3    H230450   5.566   5.035   1.447  1.4859  0.1639 -0.5449
10171TIP3   OH230451   4.960   0.567   1.463 -0.4500 -0.1089 -0.4791
10171TIP3    H130452   4.993   0.582   1.374  0.3314  1.1938  0.0243
10171TIP3    H230453   4.869   0.594   1.459  0.1406  1.9899 -0.3578
10172TIP3   OH230454   2.026   2.695   6.215  0.1733  0.1181 -0.1789
10172TIP3    H130455   1.998   2.626   6.155 -2.0419  0.6297  0.2294
10172TIP3    H230456   2.080   2.753   6.161  0.5120 -0.9412 -0.9797
10173TIP3   OH230457   4.971   6.638   2.149 -0.0688 -0.8342 -0.1627
10173TIP3    H130458   4.902   6.586   2.108 -1.9560  0.6845  1.0234
10173TIP3    H230459   4.925   6.696   2.210  1.9203  2.3737 -1.5575
10174TIP3   OH230460   3.860   6.131   0.845  0.0242 -0.6708  0.3537
10174TIP3    H130461   3.864   6.057   0.906 -0.4134 -1.7225 -0.8793
10174TIP3    H230462   3.935   6.119   0.787  0.6182  0.5007  0.8578
10175TIP3   OH230463   1.129   2.327   6.230 -0.4449  0.0040  0.4881
10175TIP3    H130464   1.150   2.417   6.202  0.1513  0.1145  1.2815
10175TIP3    H230465   1.191   2.272   6.182 -2.3970 -0.2353 -1.8993
10176TIP3   OH230466   8.115   4.631   6.703  0.5718  0.0299 -0.4167
10176TIP3    H130467   8.149   4.551   6.743  1.0849 -0.0023 -0.9086
10176TIP3    H230468   8.139   4.623   6.610  1.8335  1.3970 -0.2219
10177TIP3   OH230469   1.997   6.112   1.320  0.7064 -0.0341  0.5695
10177TIP3    H130470   2.051   6.183   1.356  2.0959 -1.5997  1.6407
10177TIP3    H230471   1.914   6.119   1.366  0.4620  1.5167 -0.0635
10178TIP3   OH230472   0.472   1.855   6.091  0.4763  0.7955  0.1027
10178TIP3    H130473   0.485   1.783   6.152 -0.3640  0.8329  0.3346
10178TIP3    H230474   0.439   1.814   6.011  1.2774  0.7802 -0.2224
10179TIP3   OH230475   2.395   0.233   6.755 -0.8008  0.1636 -0.8146
10179TIP3    H130476   2.483   0.260   6.781  0.3432 -2.2734 -1.9414
10179TIP3    H230477   2.336   0.277   6.816  1.1586  2.2077 -0.3455
10180TIP3   OH230478   1.486   1.279   6.438 -0.1932  0.1518 -0.0877
10180TIP3    H130479   1.514   1.243   6.522  0.6760  0.0037 -0.4361
10180TIP3    H230480   1.453   1.366   6.458  0.0489  0.1314  0.3987
10181TIP3   OH230481   1.786   1.412   6.572  0.1221  0.1976 -0.1140
10181TIP3    H130482   1.734   1.333   6.579  0.2651  0.1331  0.2450
10181TIP3    H230483   1.791   1.430   6.478  1.0408 -0.8533 -0.2783
10182TIP3   OH230484   1.806   1.999   6.955  0.0589 -0.1452  0.0370
10182TIP3    H130485   1.883   1.943   6.957  2.0744  2.4542 -1.5278
10182TIP3    H230486   1.776   1.996   6.864 -1.6799 -1.0771  0.6115
10183TIP3   OH230487   3.272   5.674   0.299 -0.0605  0.5416 -0.1761
10183TIP3    H130488   3.323   5.712   0.371 -1.4598  0.2718  0.9877
10183TIP3    H230489   3.287   5.580   0.307 -0.4092  0.4944 -0.0836
10184TIP3   OH230490   3.405   6.267   0.044 -0.3071 -0.0486  0.0008
10184TIP3    H130491   3.443   6.244  -0.041  1.5328  1.0786  0.4988
10184TIP3    H230492   3.358   6.188   0.071  0.1510 -0.8504 -1.4750
10185TIP3   OH230493   2.011   2.049   5.432  0.1082  0.1662  0.5586
10185TIP3    H130494   1.993   2.127   5.484  3.0744  1.0786  0.3274
10185TIP3    H230495   2.043   1.985   5.495  0.2902  0.0742  0.3757
10186TIP3   OH230496   1.511   3.004   4.659 -0.0829  0.1552 -0.6729
10186TIP3    H130497   1.533   2.912   4.674 -2.4056 -0.4371 -0.7667
10186TIP3    H230498   1.420   3.003   4.630 -0.9805  2.6547  1.7780
10187TIP3   OH230499   6.229   6.615   0.089  0.5266  0.0888 -0.7795
10187TIP3    H130500   6.304   6.567   0.054  0.3689 -0.1871 -0.7434
10187TIP3    H230501   6.154   6.558   0.070  0.2533  0.6344 -1.3510
10188TIP3   OH230502   1.169   2.583   4.319 -0.1939 -0.0347 -0.1504
10188TIP3    H130503   1.186   2.491   4.296 -0.2764 -0.2335  0.5653
10188TIP3    H230504   1.121   2.578   4.402  0.9045  0.6828  0.5526
10189TIP3   OH230505   5.766   4.570   1.611 -0.4754  0.6497  0.2032
10189TIP3    H130506   5.717   4.528   1.682 -0.3264  0.4395  0.1819
10189TIP3    H230507   5.739   4.522   1.532 -1.1460  1.3085  0.0187
10190TIP3   OH230508   3.882   2.334   6.381 -0.3974  0.5097  0.5783
10190TIP3    H130509   3.958   2.371   6.427 -0.2030  0.9319 -0.0760
10190TIP3    H230510   3.868   2.393   6.307 -1.1301  0.2136  0.4840
10191TIP3   OH230511   7.566   6.980   0.355 -0.4290  0.1903  0.2309
10191TIP3    H130512   7.524   7.050   0.306  1.3333 -0.0002 -1.5909
10191TIP3    H230513   7.493   6.927   0.387 -1.6521  1.0371 -1.0919
10192TIP3   OH230514   0.597   0.519   1.351  0.1378  0.3077  0.4144
10192TIP3    H130515   0.565   0.609   1.357 -2.7672 -0.5376 -1.4112
10192TIP3    H230516   0.662   0.522   1.280  0.2093  0.9973  0.5025
10193TIP3   OH230517   8.008   5.624   0.581 -0.5535  0.2136 -0.1910
10193TIP3    H130518   8.087   5.576   0.557 -0.8208  0.4461 -1.5892
10193TIP3    H230519   7.936   5.571   0.548 -1.0521 -0.3844  1.7582
10194TIP3   OH230520   4.058   5.153   6.268  0.4008  0.2670  0.0256
10194TIP3    H130521   4.051   5.216   6.340  0.8141  0.3371  0.0044
10194TIP3    H230522   4.115   5.195   6.204 -2.5837  1.6477 -1.8633
10195TIP3   OH230523   2.402   4.294   6.378  0.1330  0.3576  0.5085
10195TIP3    H130524   2.476   4.236   6.357  0.6146  0.5547  1.6344
10195TIP3    H230525   2.333   4.234   6.406 -0.3446  0.1298 -1.1148
10196TIP3   OH230526   3.286   1.799   6.198  0.0550 -0.8013 -0.0721
10196TIP3    H130527   3.353   1.862   6.172 -0.7649 -0.2803 -0.9654
10196TIP3    H230528   3.300   1.786   6.292  2.0982 -1.5418 -0.4328
10197TIP3   OH230529   4.538   4.041   5.569  0.1886 -0.0229  0.2791
10197TIP3    H130530   4.445   4.028   5.589  0.1661  0.2827  0.3775
10197TIP3    H230531   4.554   3.988   5.491 -0.0509 -0.1396  0.3097
10198TIP3   OH230532   5.822   5.657   1.170 -0.8693  0.7693  0.1098
10198TIP3    H130533   5.746   5.658   1.229  0.4077  0.0799  1.8280
10198TIP3    H230534   5.872   5.735   1.196  0.7854 -0.6956  1.4515
10199TIP3   OH230535   4.423   3.498   6.244 -0.3458  0.8052 -0.0810
10199TIP3    H130536   4.447   3.518   6.335 -0.5027  0.0099  0.1372
10199TIP3    H230537   4.366   3.421   6.251 -0.7608  1.0444 -0.8141
10200TIP3   OH230538   6.063   3.395   4.911 -0.1896 -0.1601 -0.2246
10200TIP3    H130539   6.025   3.428   4.829  0.1436 -0.7239 -0.6112
10200TIP3    H230540   6.001   3.329   4.941 -0.2225 -0.0782 -0.1128
10201TIP3   OH230541   3.894   3.606   2.102 -0.3832 -0.5389 -0.0722
10201TIP3    H130542   3.819   3.624   2.158 -0.0609 -0.3093  0.2902
10201TIP3    H230543   3.970   3.617   2.160 -0.0686 -0.7127 -0.4482
10202TIP3   OH230544   4.226   0.623   6.316  0.3318 -0.5650 -0.6407
10202TIP3    H130545   4.291   0.691   6.334 -0.7028 -0.3674  2.7500
10202TIP3    H230546   4.158   0.667   6.266  2.0604 -0.4227 -2.9524
10203TIP3   OH230547   3.097   2.827   5.406  0.0909  0.2615  0.4502
10203TIP3    H130548   3.180   2.865   5.435  0.7818 -0.3454 -0.6735
10203TIP3    H230549   3.065   2.888   5.340  0.1921 -0.0687  0.0949
10204TIP3   OH230550   1.816   2.113   5.989  0.0466  0.5612  0.5394
10204TIP3    H130551   1.803   2.128   6.082 -0.2574  0.0423  0.5855
10204TIP3    H230552   1.755   2.042   5.967  0.2752  0.5232 -0.0022
10205TIP3   OH230553   7.623   7.462   1.902  0.4899  0.0296  0.1017
10205TIP3    H130554   7.565   7.465   1.826 -0.9434 -3.4124  0.9918
10205TIP3    H230555   7.710   7.449   1.865 -0.1726 -1.4423 -0.9743
10206TIP3   OH230556   4.510   4.260   6.135 -0.1960 -0.2044 -0.2692
10206TIP3    H130557   4.563   4.229   6.209 -2.2229  0.5948  1.5849
10206TIP3    H230558   4.538   4.350   6.121 -0.6396  0.0434  0.3669
10207TIP3   OH230559   3.118   0.314   6.291  0.1827 -0.7490 -0.3059
10207TIP3    H130560   3.059   0.382   6.324  0.3128 -0.6178 -0.3470
10207TIP3    H230561   3.066   0.268   6.225  0.0306 -0.8095 -0.1472
10208TIP3   OH230562   6.213   3.997   0.262 -0.3499 -0.5363 -0.3806
10208TIP3    H130563   6.264   4.004   0.181 -1.7418 -0.3885 -1.2502
10208TIP3    H230564   6.158   3.920   0.249 -1.1619 -0.0406  0.1093
10209TIP3   OH230565   2.690   2.053   5.663  0.0230  0.3677 -0.2215
10209TIP3    H130566   2.680   1.992   5.736 -0.2614  1.0681  0.3317
10209TIP3    H230567   2.625   2.024   5.599 -1.3933  1.1839  0.8026
10210TIP3   OH230568   5.345   7.961   0.245 -0.0230 -0.5826 -0.3570
10210TIP3    H130569   5.360   7.868   0.264  0.1944 -1.0181 -2.5350
10210TIP3    H230570   5.430   7.994   0.217 -0.0122  0.3851  0.7762
10211TIP3   OH230571   1.266   1.588   4.748  1.1432  0.0791  0.3683
10211TIP3    H130572   1.176   1.594   4.780  0.8113  0.3595 -0.6100
10211TIP3    H230573   1.287   1.677   4.720  1.0804 -0.3672 -1.1160
10212TIP3   OH230574   8.088   2.238   6.559 -0.0779  0.4901  0.0689
10212TIP3    H130575   7.996   2.212   6.563  0.1399 -0.2482  0.2910
10212TIP3    H230576   8.119   2.232   6.649  0.7362 -1.2856 -0.3157
10213TIP3   OH230577   4.291   3.982   5.063 -0.1062  0.2761  0.0241
10213TIP3    H130578   4.228   3.916   5.032  1.3087 -1.2641  0.3220
10213TIP3    H230579   4.355   3.931   5.113  2.2281  1.5588 -1.5606
10214TIP3   OH230580   0.537   0.118   2.174 -0.1713 -0.5467 -0.1983
10214TIP3    H130581   0.626   0.131   2.140  0.3769  0.3930  1.5080
10214TIP3    H230582   0.528   0.023   2.181  0.5590 -0.6647 -0.7828
10215TIP3   OH230583   3.262   1.740   5.911 -0.2067 -0.0424 -0.1356
10215TIP3    H130584   3.345   1.743   5.865  0.4832  0.4114  1.1057
10215TIP3    H230585   3.286   1.715   6.001 -1.3127  0.9505  0.4494
10216TIP3   OH230586   5.452   3.523   6.471 -0.0892 -0.0239  0.3005
10216TIP3    H130587   5.426   3.600   6.522  0.7366  0.7962 -0.5062
10216TIP3    H230588   5.394   3.453   6.502 -1.9762  1.3224 -0.1153
10217TIP3   OH230589   3.174   0.941   0.833 -0.3301  0.1228 -0.3823
10217TIP3    H130590   3.175   0.865   0.775  0.2116  1.9607 -2.8683
10217TIP3    H230591   3.176   0.904   0.921  0.5350 -2.7342 -1.5397
10218TIP3   OH230592   3.801   3.340   5.651 -0.4483  0.4516 -0.2784
10218TIP3    H130593   3.819   3.346   5.557  0.1355  0.6232 -0.1587
10218TIP3    H230594   3.821   3.249   5.673  0.3933  0.6686 -0.1249
10219TIP3   OH230595   4.044   2.686   5.845  0.8673  0.1079 -0.5930
10219TIP3    H130596   4.100   2.619   5.886 -0.5356  0.2846  1.6638
10219TIP3    H230597   4.058   2.764   5.897 -0.8790  0.3760 -0.5090
10220TIP3   OH230598   5.161   7.295   0.388  0.1848  0.5257  0.1367
10220TIP3    H130599   5.130   7.220   0.338  1.4574  2.6796 -4.1491
10220TIP3    H230600   5.242   7.265   0.430  0.3041 -0.6734 -0.9477
10221TIP3   OH230601   6.794   4.506   0.100  0.1078 -0.1489 -0.0063
10221TIP3    H130602   6.805   4.412   0.116  1.6752  0.0462  0.1268
10221TIP3    H230603   6.732   4.511   0.027  0.5417 -1.3017 -0.4613
10222TIP3   OH230604   5.884   7.625   1.222  0.2934 -0.6788 -0.5676
10222TIP3    H130605   5.937   7.647   1.299  0.4686 -0.8943 -0.6247
10222TIP3    H230606   5.806   7.583   1.258  1.4181 -2.8714 -0.6104
10223TIP3   OH230607   1.955   3.532   6.204  0.1228  0.2211 -0.0569
10223TIP3    H130608   1.897   3.472   6.251  0.8964 -0.7428 -0.3262
10223TIP3    H230609   1.905   3.558   6.127 -0.1700 -0.1742 -0.0032
10224TIP3   OH230610   0.363   0.517   0.773  0.7578 -0.2135 -0.0522
10224TIP3    H130611   0.395   0.522   0.863 -2.6205 -0.8304  1.2616
10224TIP3    H230612   0.343   0.424   0.760  1.2743 -0.1330 -1.4639
10225TIP3   OH230613   2.617   2.246   6.330 -0.1808  0.2708  0.1438
10225TIP3    H130614   2.629   2.260   6.236  0.1680  2.0646  0.4297
10225TIP3    H230615   2.674   2.312   6.371 -1.3648  0.4120  1.5928
10226TIP3   OH230616   5.926   7.472   2.119 -0.2667  0.4151  0.6573
10226TIP3    H130617   5.967   7.545   2.166 -3.5411  2.3320  0.7357
10226TIP3    H230618   5.950   7.394   2.169  0.7804  1.7846  2.3594
10227TIP3   OH230619   2.204   2.078   6.410 -0.3394 -0.2025  0.4602
10227TIP3    H130620   2.227   2.104   6.321 -1.2565  4.8204  1.5621
10227TIP3    H230621   2.288   2.071   6.455 -0.0555  1.0974  0.1567
10228TIP3   OH230622   1.123   3.052   6.332  0.6082  0.5972 -0.0029
10228TIP3    H130623   1.111   3.147   6.332  1.8471  0.7625 -1.0659
10228TIP3    H230624   1.072   3.022   6.407 -2.1591  1.7881 -1.3467
10229TIP3   OH230625   4.260   2.046   6.782  0.0207  0.1986  0.1102
10229TIP3    H130626   4.305   2.119   6.740  0.6567 -0.4870 -0.3866
10229TIP3    H230627   4.185   2.029   6.726 -0.2127  0.5628  0.3073
10230TIP3   OH230628   6.074   8.013   0.624  0.4816  0.5318  0.2171
10230TIP3    H130629   6.082   8.001   0.530 -1.9767 -1.4692  0.2206
10230TIP3    H230630   6.088   7.926   0.661  0.7685  1.1686  1.6751
10231TIP3   OH230631   2.682   4.728   6.583 -0.7697 -0.1463 -0.2839
10231TIP3    H130632   2.699   4.789   6.511  0.4202  0.2862  0.3439
10231TIP3    H230633   2.763   4.728   6.633 -1.2445 -1.2140  0.4939
10232TIP3   OH230634   4.134   7.872   1.687 -0.3374  0.3812 -0.2468
10232TIP3    H130635   4.072   7.864   1.614 -0.5939 -0.5217  0.0530
10232TIP3    H230636   4.185   7.791   1.683 -0.4269  0.2800  0.6438
10233TIP3   OH230637   1.120   7.897   5.532  0.0082 -0.6310 -0.2164
10233TIP3    H130638   1.029   7.913   5.555 -0.1849 -1.4462 -0.4008
10233TIP3    H230639   1.120   7.811   5.492  0.6973 -0.1746 -1.2076
10234TIP3   OH230640   2.977   3.752   6.179 -0.2553 -0.2470  0.5014
10234TIP3    H130641   3.001   3.660   6.194  0.2695  0.0962  1.8132
10234TIP3    H230642   3.061   3.798   6.179 -0.6865  0.6075  2.6379
10235TIP3   OH230643   6.564   3.142   5.927 -0.2938  0.5900 -0.1832
10235TIP3    H130644   6.625   3.188   5.984  0.2906  0.5158 -0.7507
10235TIP3    H230645   6.493   3.114   5.986  0.2438  0.6153  0.4806
10236TIP3   OH230646   1.314   0.953   6.447 -0.7799  0.3383 -0.1662
10236TIP3    H130647   1.250   0.983   6.512 -0.9345 -2.4958  1.0902
10236TIP3    H230648   1.310   0.858   6.453  2.1809  0.0901 -1.4638
10237TIP3   OH230649   5.464   7.758   0.382 -0.0272 -0.1241  0.2225
10237TIP3    H130650   5.438   7.731   0.471 -1.3242  2.7546  0.7741
10237TIP3    H230651   5.547   7.804   0.394 -0.0990  0.0852 -0.0826
10238TIP3   OH230652   5.708   5.554   0.922 -0.2912 -0.8993  0.3398
10238TIP3    H130653   5.757   5.609   0.984  1.7849 -3.1453  0.7639
10238TIP3    H230654   5.663   5.490   0.976  1.4696 -2.8240 -0.4118
10239TIP3   OH230655   4.958   7.483   0.723 -0.2708  0.4240 -0.0469
10239TIP3    H130656   4.903   7.418   0.767  0.2591 -0.7359 -1.0698
10239TIP3    H230657   5.048   7.452   0.737 -0.0012  1.0509 -0.3685
10240TIP3   OH230658   2.790   3.227   5.452 -0.1338 -0.4923 -0.1792
10240TIP3    H130659   2.799   3.133   5.434  0.4802 -0.6229  0.7766
10240TIP3    H230660   2.879   3.262   5.446 -0.1291 -0.2742  1.0879
10241TIP3   OH230661   2.945   5.492   6.706  0.6396  0.5260 -0.0783
10241TIP3    H130662   2.879   5.512   6.640  0.2836  0.5593  0.2854
10241TIP3    H230663   3.025   5.533   6.674  0.4484  0.6106 -0.4469
10242TIP3   OH230664   4.226   3.062   5.284 -0.0863 -0.4418 -0.3120
10242TIP3    H130665   4.246   3.156   5.278 -0.1580 -0.4683 -0.9677
10242TIP3    H230666   4.207   3.035   5.194  0.7144 -1.2647 -0.2408
10243TIP3   OH230667   3.296   4.184   6.434 -0.4615  0.3829 -0.8070
10243TIP3    H130668   3.342   4.259   6.471  2.1297 -2.0644  1.1396
10243TIP3    H230669   3.330   4.176   6.345  1.0461  0.1346 -0.2271
10244TIP3   OH230670   3.350   0.685   6.117 -0.2376 -0.8813  0.0853
10244TIP3    H130671   3.356   0.675   6.212  3.0440  0.4311  0.0531
10244TIP3    H230672   3.332   0.597   6.085 -1.7870 -1.2716  1.9037
10245TIP3   OH230673   1.715   4.670   6.673  0.0177  0.0968 -0.0983
10245TIP3    H130674   1.636   4.616   6.673 -0.5592  0.9277  0.3197
10245TIP3    H230675   1.786   4.610   6.692 -0.1783 -1.1382 -2.9648
10246TIP3   OH230676   3.230   2.568   6.303 -0.1780  0.0021 -0.5339
10246TIP3    H130677   3.277   2.505   6.357 -1.3188 -1.5693 -1.3354
10246TIP3    H230678   3.187   2.515   6.235 -0.0806  1.7639 -2.0221
10247TIP3   OH230679   4.439   5.532   0.432  0.5737  0.0706 -0.0030
10247TIP3    H130680   4.472   5.451   0.393 -1.2498 -0.9433  0.5214
10247TIP3    H230681   4.404   5.581   0.359  0.3163 -0.2865 -0.1212
10248TIP3   OH230682   6.787   7.434   1.638 -0.4701  0.2117 -0.1861
10248TIP3    H130683   6.791   7.358   1.695 -0.9458  1.1935  1.1910
10248TIP3    H230684   6.843   7.499   1.681  0.7546  0.2953 -1.8753
10249TIP3   OH230685   7.579   6.808   1.527 -0.2778  0.2881  0.1815
10249TIP3    H130686   7.644   6.878   1.542 -1.7480  1.7988 -0.3937
10249TIP3    H230687   7.593   6.781   1.437  0.9483 -0.8723  0.7001
10250TIP3   OH230688   1.725   0.235   0.015 -0.1499  0.6985 -0.0513
10250TIP3    H130689   1.759   0.319  -0.017  1.0088  1.1614  2.2197
10250TIP3    H230690   1.750   0.234   0.108 -2.0579 -1.2033  0.4754
10251TIP3   OH230691   2.281   2.933   6.868 -0.6265  0.3755  0.4143
10251TIP3    H130692   2.283   3.028   6.864 -0.6013  0.3332 -0.7295
10251TIP3    H230693   2.188   2.911   6.871 -0.6842  0.3993 -0.7449
10252TIP3   OH230694   1.978   7.138   5.750  0.5154  0.3537 -0.1559
10252TIP3    H130695   1.929   7.162   5.829  0.4876  1.2325 -0.4353
10252TIP3    H230696   1.932   7.061   5.717  0.7661 -0.2646  0.9021
10253TIP3   OH230697   3.979   3.059   6.304  0.3060  0.1004  0.3177
10253TIP3    H130698   3.980   3.151   6.330 -1.8996  0.0856  0.5866
10253TIP3    H230699   4.027   3.056   6.221 -2.6579  2.1366 -1.5694
10254TIP3   OH230700   1.998   2.373   6.211  0.3359 -0.2985 -0.1013
10254TIP3    H130701   1.927   2.409   6.263  0.6093  0.1139 -0.0157
10254TIP3    H230702   2.075   2.379   6.267  1.0558  2.0197 -1.2671
10255TIP3   OH230703   1.343   1.844   6.083  0.0028 -0.7100 -0.3140
10255TIP3    H130704   1.334   1.752   6.059  0.3786 -0.6715 -0.6066
10255TIP3    H230705   1.254   1.879   6.079 -0.3929 -1.4317  1.3379
10256TIP3   OH230706   3.063   3.550   6.795 -0.2299 -0.2609  0.2437
10256TIP3    H130707   3.025   3.595   6.720  1.5982  1.8724  0.5431
10256TIP3    H230708   3.042   3.458   6.781 -1.1297  0.2806 -2.1566
10257TIP3   OH230709   8.240   2.122   3.739  0.0934 -0.8415 -0.2140
10257TIP3    H130710   8.257   2.030   3.758 -0.8753 -0.8255  0.7557
10257TIP3    H230711   8.150   2.123   3.705 -1.1531  0.1298  2.9500
10258TIP3   OH230712   5.895   5.153   0.686 -0.0543 -0.3230  0.3171
10258TIP3    H130713   5.840   5.110   0.620 -0.0501  0.9484 -0.5192
10258TIP3    H230714   5.843   5.148   0.766 -1.2586  0.5856 -0.3948
10259TIP3   OH230715   2.411   0.796   5.797  0.2837  0.6208 -0.1442
10259TIP3    H130716   2.405   0.748   5.714 -1.1336  0.8355 -0.1900
10259TIP3    H230717   2.321   0.826   5.813  0.7218  1.3333  1.0226
10260TIP3   OH230718   4.275   1.869   6.425  0.5048  0.4009  0.8533
10260TIP3    H130719   4.246   1.951   6.466 -0.2708  0.4063  0.3121
10260TIP3    H230720   4.270   1.804   6.495 -0.9145  0.3897  0.7488
10261TIP3   OH230721   6.243   6.302   1.296  0.4106  0.4299 -0.9397
10261TIP3    H130722   6.337   6.316   1.291  0.3852  0.2521 -2.0449
10261TIP3    H230723   6.223   6.307   1.389  1.4201  1.0610 -0.7484
10262TIP3   OH230724   4.434   7.012   0.385 -0.3364  0.4178  0.2516
10262TIP3    H130725   4.484   7.090   0.362 -1.8617  1.6308  0.9543
10262TIP3    H230726   4.379   6.995   0.308  0.5052 -0.4189 -0.1869
10263TIP3   OH230727   1.440   3.374   6.449 -0.2739 -0.5520  0.4199
10263TIP3    H130728   1.385   3.337   6.380  1.6228  0.3047 -1.6109
10263TIP3    H230729   1.380   3.421   6.507 -1.9450 -1.7388 -0.3467
10264TIP3   OH230730   3.781   0.764   6.616  0.2568  0.5613 -0.2179
10264TIP3    H130731   3.822   0.847   6.642  2.0381 -0.4144  0.1423
10264TIP3    H230732   3.816   0.699   6.677 -1.6361 -0.3621 -0.0766
10265TIP3   OH230733   8.298   7.398   5.618  0.0334 -0.8914 -0.7383
10265TIP3    H130734   8.218   7.370   5.662  1.1214 -0.9923  1.2395
10265TIP3    H230735   8.322   7.323   5.562  0.9328 -2.5463  1.7667
10266TIP3   OH230736   6.187   7.600   0.446 -0.6707  0.4619  0.8987
10266TIP3    H130737   6.114   7.539   0.457 -0.9019  0.7041  0.7194
10266TIP3    H230738   6.177   7.634   0.357  0.7056 -0.8702  0.2073
10267TIP3   OH230739   2.599   4.293   5.449 -0.2794 -0.0543 -0.6632
10267TIP3    H130740   2.523   4.240   5.424 -1.1419  0.5798  0.5685
10267TIP3    H230741   2.675   4.238   5.429 -1.1871 -2.3649  1.9190
10268TIP3   OH230742   2.164   1.549   6.951 -0.2578  0.1216 -0.3838
10268TIP3    H130743   2.103   1.507   6.889  0.0211 -0.2359 -0.4223
10268TIP3    H230744   2.226   1.596   6.895 -1.2489  1.5381 -0.3011
10269TIP3   OH230745   2.476   1.204   6.446  0.2266  0.4654 -0.6103
10269TIP3    H130746   2.554   1.151   6.431 -0.0089  0.6300 -2.5046
10269TIP3    H230747   2.502   1.292   6.420 -0.1408  0.8160  0.1975
10270TIP3   OH230748   2.460   1.444   6.023  0.5780 -0.2433  0.1483
10270TIP3    H130749   2.449   1.366   5.969  0.4002  0.2283 -0.5101
10270TIP3    H230750   2.373   1.483   6.028  0.0812 -1.6395  2.9044
10271TIP3   OH230751   5.225   3.938   0.136 -0.3023 -0.3529 -0.0680
10271TIP3    H130752   5.148   3.917   0.190  1.6319 -1.2199  2.4521
10271TIP3    H230753   5.202   3.907   0.048 -2.7517 -0.7429  0.6742
10272TIP3   OH230754   3.740   0.609   5.310  0.3196 -0.0875  0.1752
10272TIP3    H130755   3.825   0.565   5.311  1.1783  1.5409 -0.1787
10272TIP3    H230756   3.706   0.595   5.222 -0.4146 -1.8779  0.7072
10273TIP3   OH230757   3.165   1.135   5.239 -0.1439 -0.0166  1.2258
10273TIP3    H130758   3.176   1.085   5.158  1.1286 -1.0677  2.0192
10273TIP3    H230759   3.103   1.204   5.217  1.8963  1.0936 -1.2799
10274TIP3   OH230760   0.757   1.051   0.818 -0.0040  0.0686 -0.3940
10274TIP3    H130761   0.701   1.044   0.895  0.1781 -1.6448 -0.3965
10274TIP3    H230762   0.766   1.145   0.803 -0.4655  0.4055  1.3534
10275TIP3   OH230763   3.051   3.493   6.225  0.7017  0.0087  0.4974
10275TIP3    H130764   3.039   3.479   6.131  1.5114  2.1969  0.0355
10275TIP3    H230765   3.133   3.449   6.247  1.3580  0.8796 -0.1766
10276TIP3   OH230766   6.357   4.353   0.370 -0.6228 -0.0583  0.0134
10276TIP3    H130767   6.353   4.448   0.371  0.3203  0.0075 -1.1266
10276TIP3    H230768   6.267   4.325   0.389 -0.7840  1.0379  0.9027
10277TIP3   OH230769   6.868   6.432   1.039  0.1141  0.0184  0.0869
10277TIP3    H130770   6.782   6.390   1.041  0.8525 -1.5706 -0.7870
10277TIP3    H230771   6.923   6.380   1.097  1.3966 -1.0896 -2.0416
10278TIP3   OH230772   5.578   7.374   0.666 -0.1987 -0.3292 -0.6128
10278TIP3    H130773   5.509   7.320   0.704 -0.9333 -0.2374 -1.8004
10278TIP3    H230774   5.539   7.462   0.660  0.2344 -0.1435 -0.7179
10279TIP3   OH230775   5.186   6.867   0.314  0.4860 -0.2453  0.4172
10279TIP3    H130776   5.164   6.834   0.227 -0.0953  0.3743  0.3320
10279TIP3    H230777   5.279   6.845   0.325  0.7511  0.3119 -0.6476
10280TIP3   OH230778   8.510   1.857   2.042 -0.3101 -0.5285 -0.0571
10280TIP3    H130779   8.496   1.939   2.090  0.3994 -0.4503  0.0256
10280TIP3    H230780   8.447   1.861   1.970  0.9339  0.9139 -1.0900
10281TIP3   OH230781   7.835   6.592   1.523 -0.0223 -0.2979 -0.2179
10281TIP3    H130782   7.796   6.629   1.443 -2.7917 -0.3876  1.0069
10281TIP3    H230783   7.804   6.502   1.525  2.7628 -1.3023 -0.7025
10282TIP3   OH230784   3.397   1.995   5.403  0.1509 -0.3395  0.1287
10282TIP3    H130785   3.431   1.950   5.480 -0.6777 -0.2593  0.5372
10282TIP3    H230786   3.387   2.086   5.431 -1.1670 -0.5216  0.2469
10283TIP3   OH230787   7.201   7.155   2.516  0.5608 -0.3741  0.6643
10283TIP3    H130788   7.282   7.197   2.545 -0.3072  0.3141  2.0829
10283TIP3    H230789   7.154   7.134   2.596  0.1418 -2.4203 -0.0854
10284TIP3   OH230790   3.372   4.970   4.843 -0.9543 -0.4693 -0.6379
10284TIP3    H130791   3.445   4.946   4.900 -1.9878 -0.3932  0.7521
10284TIP3    H230792   3.390   5.060   4.817  0.3345 -1.0374 -1.7201
10285TIP3   OH230793   2.318   3.068   4.131 -0.1112 -0.7698  0.0483
10285TIP3    H130794   2.300   3.156   4.165 -0.9817 -0.9569  0.0591
10285TIP3    H230795   2.414   3.061   4.135 -0.0997 -0.2232  1.0467
10286TIP3   OH230796   2.343   3.608   6.400  0.0210  0.6098  0.3960
10286TIP3    H130797   2.266   3.625   6.454  1.5755 -0.1832  2.9804
10286TIP3    H230798   2.368   3.519   6.422  0.9621  0.4243 -1.3524
10287TIP3   OH230799   6.412   7.719   0.504  0.7108 -0.7646  0.6924
10287TIP3    H130800   6.441   7.699   0.593 -1.4348  0.7786  1.7829
10287TIP3    H230801   6.340   7.658   0.488  0.5393 -0.4735  0.3414
10288TIP3   OH230802   3.807   2.054   6.314 -0.4421  0.5268 -0.6902
10288TIP3    H130803   3.771   2.013   6.393  0.0406 -1.7121 -1.5760
10288TIP3    H230804   3.830   2.143   6.341 -3.1272  0.8039  0.8696
10289TIP3   OH230805   5.075   4.371   6.281  0.3862 -0.0822 -0.1214
10289TIP3    H130806   5.018   4.381   6.204  1.1215 -2.4378 -1.0319
10289TIP3    H230807   5.058   4.282   6.311  0.8259  0.5018  1.9058
10290TIP3   OH230808   2.241   0.307   5.674 -0.2216  0.5645  0.1416
10290TIP3    H130809   2.273   0.376   5.615 -1.7569  0.9592 -0.2673
10290TIP3    H230810   2.299   0.233   5.658 -0.1013  0.9427 -1.2879
10291TIP3   OH230811   4.986   5.313   0.638  0.2449  0.1481 -0.4858
10291TIP3    H130812   4.917   5.328   0.573 -0.4458 -0.1050  0.1739
10291TIP3    H230813   4.968   5.225   0.671 -0.7759  1.1235  1.6569
10292TIP3   OH230814   6.110   2.889   5.238 -0.1995  0.0747  0.2368
10292TIP3    H130815   6.113   2.976   5.278 -0.4265  0.3677 -0.3713
10292TIP3    H230816   6.027   2.851   5.268  0.2968 -0.2661  1.1840
10293TIP3   OH230817   3.878   0.850   5.769 -0.0192 -0.6104  0.5003
10293TIP3    H130818   3.827   0.871   5.846  1.2895 -2.3827  1.8958
10293TIP3    H230819   3.969   0.860   5.797  0.4724 -1.4503 -0.7501
10294TIP3   OH230820   6.048   3.416   5.879 -0.2015 -0.7649  0.0238
10294TIP3    H130821   6.126   3.464   5.852 -0.4491  0.6400  1.7079
10294TIP3    H230822   6.009   3.383   5.798  1.1829  0.0147 -0.9516
10295TIP3   OH230823   3.403   2.305   6.544 -0.3691  0.7801 -0.5707
10295TIP3    H130824   3.440   2.278   6.460  0.2289 -0.3866  0.0477
10295TIP3    H230825   3.428   2.397   6.554  0.2872  0.6766 -1.2760
10296TIP3   OH230826   0.841   1.629   5.159 -0.6092 -0.2456  0.6307
10296TIP3    H130827   0.789   1.699   5.120  1.7509  1.1221 -0.1547
10296TIP3    H230828   0.902   1.674   5.218  0.6778 -1.6473  0.4071
10297TIP3   OH230829   2.699   2.486   5.988 -0.1126  0.1811 -0.0900
10297TIP3    H130830   2.697   2.456   5.898 -1.3342  2.5745 -0.9108
10297TIP3    H230831   2.642   2.426   6.036  0.6772 -1.1934 -0.8487
10298TIP3   OH230832   3.774   2.054   6.050 -0.2941  0.2444 -0.2039
10298TIP3    H130833   3.820   1.975   6.023  1.5585  1.5085 -0.7921
10298TIP3    H230834   3.768   2.046   6.146  1.8200  0.4052 -0.0303
10299TIP3   OH230835   3.708   4.365   6.608 -0.3519  0.3587 -0.2009
10299TIP3    H130836   3.704   4.293   6.670 -0.6151 -0.5202 -1.2235
10299TIP3    H230837   3.617   4.390   6.593 -0.1440  2.6689  2.1556
10300TIP3   OH230838   5.991   5.884   1.312  0.2420  0.4374  0.0744
10300TIP3    H130839   6.002   5.962   1.258  0.0080  0.9335  0.7364
10300TIP3    H230840   5.990   5.917   1.401 -2.1338 -0.0588  0.2644
10301TIP3   OH230841   0.677   0.534   5.423  0.2281 -0.5566  0.4793
10301TIP3    H130842   0.750   0.533   5.362  1.1183 -1.2921  1.5494
10301TIP3    H230843   0.710   0.583   5.498 -0.4291 -0.7815  0.9140
10302TIP3   OH230844   2.710   0.634   6.149 -0.0815 -0.5448  1.0200
10302TIP3    H130845   2.636   0.597   6.101 -0.2089  1.3855 -0.3553
10302TIP3    H230846   2.786   0.614   6.095 -0.2677  1.9481 -0.2888
10303TIP3   OH230847   1.142   0.752   4.634 -0.6398 -0.2648  0.0812
10303TIP3    H130848   1.122   0.775   4.543  2.0704 -0.1709 -0.5401
10303TIP3    H230849   1.112   0.827   4.685 -2.3974 -0.4138 -0.6703
10304TIP3   OH230850   5.254   7.749   0.594 -0.0620  0.6044 -0.2622
10304TIP3    H130851   5.212   7.696   0.525  0.5313 -0.6042  0.2947
10304TIP3    H230852   5.235   7.839   0.568 -1.5078  0.1329 -0.9712
10305TIP3   OH230853   7.446   7.491   4.986 -0.4673  0.2348  0.1360
10305TIP3    H130854   7.352   7.498   4.975 -0.5464 -0.1199  0.5406
10305TIP3    H230855   7.458   7.408   5.033  0.1332 -0.3594 -1.0489
10306TIP3   OH230856   8.031   5.238   0.738 -0.5059 -0.5840 -0.0536
10306TIP3    H130857   8.037   5.331   0.761 -0.4882 -0.1880 -1.6022
10306TIP3    H230858   8.119   5.204   0.755 -0.3893 -0.2146  0.1118
10307TIP3   OH230859   4.168   3.468   5.756 -0.1183  0.1842 -0.3209
10307TIP3    H130860   4.256   3.506   5.748 -0.2563  1.1231  2.3640
10307TIP3    H230861   4.165   3.431   5.844 -2.6451  0.7106 -0.1533
10308TIP3   OH230862   0.996   2.316   5.302  0.0730 -0.6043 -0.5573
10308TIP3    H130863   0.945   2.397   5.302  1.9015  0.5811 -0.7744
10308TIP3    H230864   1.013   2.300   5.395 -1.6284 -1.6425 -0.3960
10309TIP3   OH230865   1.969   2.983   6.371 -0.0918  0.1363  0.4049
10309TIP3    H130866   2.023   3.060   6.350 -0.6620  0.2590 -0.6175
10309TIP3    H230867   2.033   2.916   6.396  0.5622  0.1935 -1.0790
10310TIP3   OH230868   3.596   4.191   5.654 -0.2042  0.0485 -0.2414
10310TIP3    H130869   3.568   4.119   5.710  1.6054  0.8704  1.7821
10310TIP3    H230870   3.668   4.232   5.701  0.9724  1.1610 -2.8975
10311TIP3   OH230871   5.219   5.322   0.474  0.1166  0.3720 -0.4405
10311TIP3    H130872   5.232   5.416   0.462 -1.0147  0.5302 -0.4849
10311TIP3    H230873   5.154   5.316   0.544  1.8969 -0.4272  1.2085
10312TIP3   OH230874   1.726   3.497   5.409  0.2115 -0.6714 -0.9056
10312TIP3    H130875   1.642   3.491   5.364 -0.3808 -0.0313  0.0858
10312TIP3    H230876   1.718   3.437   5.483  0.7957 -0.9428 -1.0603
10313TIP3   OH230877   4.622   7.623   1.683 -0.2210  0.3153 -0.3266
10313TIP3    H130878   4.580   7.538   1.671 -1.4597  1.1915 -2.7320
10313TIP3    H230879   4.715   7.605   1.675 -0.2772 -1.2359  2.1362
10314TIP3   OH230880   4.593   7.961   0.934  0.4606 -0.0987 -0.4382
10314TIP3    H130881   4.678   7.922   0.913 -0.0667 -1.3337 -0.3445
10314TIP3    H230882   4.594   7.973   1.029 -0.5092 -2.7368 -0.0352
10315TIP3   OH230883   5.246   7.434   1.016  0.0033 -0.3929  0.2180
10315TIP3    H130884   5.214   7.397   0.934 -0.8118  0.0037  0.3558
10315TIP3    H230885   5.174   7.425   1.078 -0.1945  1.3225  0.2829
10316TIP3   OH230886   2.376   0.388   0.569  0.6939 -0.1038  0.0413
10316TIP3    H130887   2.369   0.472   0.614 -1.2127 -0.1767 -0.0923
10316TIP3    H230888   2.358   0.408   0.478 -0.3194 -0.7383  0.0956
10317TIP3   OH230889   8.080   7.892   1.259 -0.9419  0.3256  0.1404
10317TIP3    H130890   8.119   7.833   1.323 -1.1235  0.4364  0.3558
10317TIP3    H230891   7.992   7.909   1.293 -0.6729  1.2076  0.4070
10318TIP3   OH230892   5.059   6.161   0.142  0.1468 -0.1605 -0.0486
10318TIP3    H130893   4.984   6.181   0.198 -0.3167 -0.2816 -0.6351
10318TIP3    H230894   5.135   6.175   0.200 -0.3485 -0.8228  0.7718
10319TIP3   OH230895   1.937   2.233   5.603 -0.3608 -0.0205 -0.2667
10319TIP3    H130896   1.968   2.229   5.694 -0.0741 -0.7817 -0.3893
10319TIP3    H230897   1.843   2.245   5.610 -0.0635  2.3761  0.1173
10320TIP3   OH230898   6.748   0.568   2.018 -0.2261 -0.5345  0.5889
10320TIP3    H130899   6.832   0.583   1.974  0.0308 -1.9192  0.5938
10320TIP3    H230900   6.709   0.496   1.970 -2.0327  0.9677 -0.2560
10321TIP3   OH230901   3.854   3.315   5.084  0.0319  0.4916  0.3832
10321TIP3    H130902   3.848   3.359   5.000  4.1259  0.9791  0.2817
10321TIP3    H230903   3.814   3.229   5.069  0.0710  0.8521 -1.8177
10322TIP3   OH230904   4.237   3.721   5.506  0.1660  0.7224 -0.2758
10322TIP3    H130905   4.286   3.773   5.570  1.4056 -0.2073 -0.4547
10322TIP3    H230906   4.303   3.666   5.464 -1.3005 -2.0309  0.9051
10323TIP3   OH230907   2.216   2.999   5.274  0.0233  0.2883  0.5302
10323TIP3    H130908   2.311   3.001   5.282  0.0437 -0.0924  0.3775
10323TIP3    H230909   2.195   2.908   5.255 -0.3628  0.3968  0.4299
10324TIP3   OH230910   5.981   4.218   5.569 -0.5515 -0.3635  0.0354
10324TIP3    H130911   5.952   4.138   5.526 -1.3782 -1.1264  1.9580
10324TIP3    H230912   5.905   4.276   5.567 -0.1228  0.1693 -0.8740
10325TIP3   OH230913   5.316   6.489   1.521 -0.3968  0.4502 -0.1657
10325TIP3    H130914   5.336   6.547   1.595 -3.0674 -0.6847  1.5276
10325TIP3    H230915   5.355   6.532   1.445  2.2830  1.7393  1.8455
10326TIP3   OH230916   1.981   0.957   4.902  0.7415 -0.3321 -0.3348
10326TIP3    H130917   1.967   1.019   4.830 -2.0655  0.3456  0.7294
10326TIP3    H230918   1.930   0.992   4.974  1.4892 -2.3511  1.2173
10327TIP3   OH230919   2.317   0.989   5.375  0.3444 -0.0323 -0.7660
10327TIP3    H130920   2.241   0.932   5.391 -0.3717  0.8682 -0.8834
10327TIP3    H230921   2.281   1.078   5.382  2.0858  0.4947  2.7840
10328TIP3   OH230922   3.733   1.761   6.275 -0.3996 -0.2296  0.2350
10328TIP3    H130923   3.760   1.708   6.350 -0.9898 -2.1576 -0.8682
10328TIP3    H230924   3.789   1.730   6.203 -1.5405 -0.1700 -0.6881
10329TIP3   OH230925   0.702   0.181   0.836 -0.0313  0.2190 -0.4224
10329TIP3    H130926   0.796   0.174   0.849 -0.1537 -0.0850  0.2734
10329TIP3    H230927   0.682   0.117   0.767  0.7826  2.6300 -3.0100
10330TIP3   OH230928   6.845   7.042   5.832  0.0122  0.2101  0.0344
10330TIP3    H130929   6.877   7.050   5.742  3.3913 -1.7592  0.9571
10330TIP3    H230930   6.845   7.132   5.865 -0.4111  0.8448 -1.6609
10331TIP3   OH230931   4.090   4.837   6.049  0.1412  0.1657 -0.0718
10331TIP3    H130932   4.154   4.893   6.093  0.1150 -0.5275  0.8689
10331TIP3    H230933   4.138   4.800   5.975  0.5531  0.3736  0.0897
10332TIP3   OH230934   5.680   2.608   5.973 -0.4283 -0.4578  0.3053
10332TIP3    H130935   5.654   2.634   6.062 -0.8379 -2.3703  0.7659
10332TIP3    H230936   5.749   2.670   5.949 -0.3596  0.1183  1.9329
10333TIP3   OH230937   8.112   7.506   1.327  0.1382  0.5875  0.1927
10333TIP3    H130938   8.149   7.580   1.374 -1.3276  0.2303  1.9727
10333TIP3    H230939   8.052   7.465   1.390  0.8897 -2.0846 -0.7786
10334TIP3   OH230940   2.806   1.692   6.234 -0.2701  0.1780 -0.0929
10334TIP3    H130941   2.804   1.672   6.328 -0.9473  1.0703  0.0943
10334TIP3    H230942   2.716   1.716   6.213  0.1820  1.4324 -0.6520
10335TIP3   OH230943   6.673   6.520   0.516 -0.1456  0.3391  0.0713
10335TIP3    H130944   6.636   6.507   0.429  0.1396 -1.8241  0.2435
10335TIP3    H230945   6.763   6.490   0.509  0.2191  1.2375  0.8253
10336TIP3   OH230946   5.732   4.232   0.863 -0.0372  0.3923 -0.2211
10336TIP3    H130947   5.820   4.259   0.834  0.0040 -1.1641 -1.6087
10336TIP3    H230948   5.746   4.150   0.909 -0.5932  0.9281  0.9189
10337TIP3   OH230949   3.993   3.502   6.577 -0.0191  0.5450  0.7779
10337TIP3    H130950   4.018   3.594   6.574  0.6044  0.3490 -1.3160
10337TIP3    H230951   4.052   3.462   6.640  0.8434  1.2792  0.4384
10338TIP3   OH230952   0.407   6.531   2.786  0.1626  0.4758 -0.3249
10338TIP3    H130953   0.382   6.584   2.710  1.7876 -0.1082 -1.2986
10338TIP3    H230954   0.326   6.520   2.836 -0.9664  0.7288 -2.0600
10339TIP3   OH230955   5.861   5.350   1.891  0.1529 -0.1919 -0.1607
10339TIP3    H130956   5.781   5.367   1.842  1.1762  1.2357 -1.4045
10339TIP3    H230957   5.839   5.279   1.950 -2.0745  0.3092 -0.3608
10340TIP3   OH230958   3.960   1.450   6.655 -0.7649  0.2715  0.2454
10340TIP3    H130959   4.034   1.431   6.597 -2.0448 -1.2680 -0.9620
10340TIP3    H230960   3.901   1.375   6.642 -1.7924  0.6899  2.3826
10341TIP3   OH230961   6.806   6.460   2.385 -0.2867 -0.5059 -1.1171
10341TIP3    H130962   6.895   6.462   2.349  0.2160 -1.0811  0.0524
10341TIP3    H230963   6.791   6.368   2.405 -0.2443 -0.1013  0.8666
10342TIP3   OH230964   2.753   3.741   6.927  0.1743 -0.0733 -0.0204
10342TIP3    H130965   2.822   3.684   6.894  1.4115  1.4287 -0.0457
10342TIP3    H230966   2.685   3.738   6.859  1.0918  0.0724 -0.9468
10343TIP3   OH230967   2.454   1.560   5.624  0.0478 -0.0745  0.3825
10343TIP3    H130968   2.372   1.575   5.577  0.6089  0.4456 -0.4492
10343TIP3    H230969   2.461   1.464   5.630 -1.0118 -0.1079  1.1770
10344TIP3   OH230970   3.024   1.305   4.806 -0.2076  0.0420 -0.8641
10344TIP3    H130971   3.027   1.215   4.775 -0.0896 -0.1408 -0.3310
10344TIP3    H230972   3.075   1.354   4.741  1.5409 -0.6198 -0.0370
10345TIP3   OH230973   4.402   6.930   0.061 -0.5691  0.0533  0.0679
10345TIP3    H130974   4.375   6.845   0.097  0.7595  0.0106  0.9863
10345TIP3    H230975   4.425   6.911  -0.030 -2.5084 -0.1200 -0.4111
10346TIP3   OH230976   3.700   6.063   6.703 -0.0710 -0.3657 -0.1089
10346TIP3    H130977   3.755   6.139   6.719 -1.2055  0.5077 -0.2657
10346TIP3    H230978   3.748   5.989   6.742 -0.0472  0.7888  2.1168
10347TIP3   OH230979   4.052   5.785   6.597 -0.1645 -0.3912 -0.8955
10347TIP3    H130980   4.045   5.880   6.595 -0.6560 -0.3794  0.6980
10347TIP3    H230981   3.962   5.754   6.583 -0.2709 -0.5809  0.1653
10348TIP3   OH230982   4.726   6.273   6.790 -0.0079 -0.6240 -0.3151
10348TIP3    H130983   4.647   6.220   6.781 -0.3745 -0.6447  2.4003
10348TIP3    H230984   4.694   6.362   6.808  0.5840 -0.2041 -1.3234
10349TIP3   OH230985   5.006   7.132   0.798  0.0743  0.7624  0.0476
10349TIP3    H130986   4.958   7.211   0.822  1.0475  1.4744 -0.3211
10349TIP3    H230987   5.002   7.130   0.702 -1.6770 -0.7313  0.1386
10350TIP3   OH230988   0.221   5.914   0.646 -0.3781  0.2268 -0.6229
10350TIP3    H130989   0.286   5.971   0.688 -1.5972  2.7556 -2.0515
10350TIP3    H230990   0.260   5.891   0.562 -0.8238  0.8003 -0.9910
10351TIP3   OH230991   7.049   6.838   0.303 -0.2764 -0.0273  0.0812
10351TIP3    H130992   7.090   6.920   0.328  0.9454 -0.4574 -0.4479
10351TIP3    H230993   7.031   6.793   0.385  1.5264 -0.3936  0.3128
10352TIP3   OH230994   3.637   6.089   5.980  0.4858 -0.4088 -0.5224
10352TIP3    H130995   3.641   6.119   6.071  1.4777 -0.3444 -0.5816
10352TIP3    H230996   3.544   6.080   5.962  0.2362  0.7630  0.1168
10353TIP3   OH230997   4.138   1.547   6.074 -0.2129 -0.3193 -0.0495
10353TIP3    H130998   4.133   1.627   6.021  0.0298 -0.4411 -0.2570
10353TIP3    H230999   4.231   1.537   6.094 -0.2440 -0.5446 -0.0189
10354TIP3   OH231000   2.815   1.635   6.507 -0.6359 -0.0484  0.0143
10354TIP3    H131001   2.786   1.550   6.474  0.0153 -0.6850  1.0547
10354TIP3    H231002   2.889   1.615   6.563  0.7176  1.4022 -1.2140
10355TIP3   OH231003   4.985   3.262   4.854  0.2051  0.0407 -0.1983
10355TIP3    H131004   4.997   3.200   4.926  0.6687  0.0226 -0.2887
10355TIP3    H231005   5.058   3.244   4.795  0.6317  1.0212  0.0253
10356TIP3   OH231006   2.176   3.175   6.395  0.5940 -0.0332 -0.1978
10356TIP3    H131007   2.183   3.250   6.335  0.2376 -0.6681 -1.0369
10356TIP3    H231008   2.255   3.124   6.379  0.1808 -0.5482 -0.6016
10357TIP3   OH231009   5.839   6.383   0.003 -0.0248 -0.0289  0.0422
10357TIP3    H131010   5.765   6.422  -0.044 -0.0427  0.1777  0.2382
10357TIP3    H231011   5.850   6.439   0.081  0.3680 -0.0311 -0.0105
10358TIP3   OH231012   5.432   4.737   6.810 -0.0924  0.1294  0.6098
10358TIP3    H131013   5.399   4.667   6.754  0.7422  0.3820 -0.2221
10358TIP3    H231014   5.354   4.787   6.836 -0.3927  0.6445 -1.2174
10359TIP3   OH231015   4.850   3.627   1.893  0.1972 -0.4222 -0.2879
10359TIP3    H131016   4.823   3.662   1.808 -0.7337  1.0936  0.6051
10359TIP3    H231017   4.773   3.578   1.923 -0.1204  0.5136  0.4504
10360TIP3   OH231018   7.538   5.653   0.131  0.8681 -0.0331 -0.4165
10360TIP3    H131019   7.501   5.718   0.072 -0.6916 -0.2475  0.3062
10360TIP3    H231020   7.463   5.602   0.161  1.8240 -0.8768  0.5979
10361TIP3   OH231021   5.912   5.387   1.149 -0.2761 -0.3914  0.0393
10361TIP3    H131022   5.902   5.481   1.137 -1.0852 -0.8544 -3.5397
10361TIP3    H231023   6.004   5.375   1.172 -0.0547  1.2278  0.0292
10362TIP3   OH231024   5.082   7.518   0.245  0.6320  0.8527 -0.5042
10362TIP3    H131025   4.992   7.484   0.242  0.4696  1.3712 -1.6598
10362TIP3    H231026   5.133   7.447   0.285 -0.3229  0.6255  0.3175
10363TIP3   OH231027   5.119   5.493   1.193 -0.2236  0.1238 -0.4951
10363TIP3    H131028   5.091   5.542   1.270 -0.5921 -0.2317 -0.3977
10363TIP3    H231029   5.038   5.454   1.158 -0.1234  0.6291 -1.3065
10364TIP3   OH231030   8.261   6.339   1.678 -0.5083  0.3177 -0.2408
10364TIP3    H131031   8.260   6.280   1.602  1.7491 -0.1735  0.0908
10364TIP3    H231032   8.261   6.427   1.640 -0.7447  0.0839 -0.7853
10365TIP3   OH231033   3.802   3.042   4.991  0.4079 -0.0779  0.1194
10365TIP3    H131034   3.861   2.987   4.939  0.4901  0.4884 -0.3970
10365TIP3    H231035   3.761   2.982   5.053 -0.1634 -0.8787 -1.0087
10366TIP3   OH231036   3.320   0.569   6.835  0.0392 -0.1641  0.3535
10366TIP3    H131037   3.353   0.657   6.820 -1.9809  1.1147  2.9847
10366TIP3    H231038   3.254   0.556   6.767  0.3655  0.3601 -0.0606
10367TIP3   OH231039   0.461   2.591   4.594  0.0372  0.0990  0.1757
10367TIP3    H131040   0.517   2.599   4.516  0.5304  0.3591  0.5576
10367TIP3    H231041   0.374   2.570   4.558  0.4747 -0.7883 -0.3913
10368TIP3   OH231042   2.063   4.857   1.556 -0.1294  0.2250  0.1031
10368TIP3    H131043   2.080   4.827   1.467  1.3947  0.2331  0.3746
10368TIP3    H231044   2.013   4.785   1.596  2.6667 -1.6351  0.4525
10369TIP3   OH231045   3.716   1.758   0.341 -0.5729  0.1258 -0.0166
10369TIP3    H131046   3.724   1.823   0.411 -0.6247  1.3405 -1.1070
10369TIP3    H231047   3.795   1.771   0.288 -0.5885 -0.7084 -0.2495
10370TIP3   OH231048   5.287   2.331   6.520  0.2480  0.1344 -0.2798
10370TIP3    H131049   5.237   2.278   6.583  0.8088  1.6462  1.4618
10370TIP3    H231050   5.329   2.267   6.463 -0.2473 -1.2630  0.9029
10371TIP3   OH231051   5.028   5.206   5.237 -0.4524  0.5544 -0.0668
10371TIP3    H131052   4.958   5.144   5.258 -0.8865  1.0028 -0.1664
10371TIP3    H231053   5.097   5.187   5.299 -1.3911  1.3262  1.2429
10372TIP3   OH231054   4.392   5.960   0.416 -0.8115  0.0203  0.3109
10372TIP3    H131055   4.448   6.030   0.450  0.7613 -0.1279 -1.8605
10372TIP3    H231056   4.317   5.959   0.475  1.9381 -0.5037  3.9791
10373TIP3   OH231057   2.616   3.779   5.830 -0.3454 -0.0303 -0.5483
10373TIP3    H131058   2.540   3.769   5.887 -1.3375  0.0091 -1.8397
10373TIP3    H231059   2.623   3.873   5.815 -0.4606 -0.0872 -0.9743
10374TIP3   OH231060   7.220   7.193   0.642 -0.3310  0.7229 -0.7219
10374TIP3    H131061   7.205   7.121   0.703 -0.0171 -1.2166 -2.8859
10374TIP3    H231062   7.132   7.222   0.618 -0.4629  1.7989  0.9268
10375TIP3   OH231063   1.418   0.656   0.461 -0.5538 -0.1280 -0.4608
10375TIP3    H131064   1.462   0.675   0.378  0.4252 -0.8385 -0.1053
10375TIP3    H231065   1.407   0.561   0.461 -0.1087 -0.1797  0.4459
10376TIP3   OH231066   7.741   7.697   0.518 -0.0452 -0.1290 -0.4181
10376TIP3    H131067   7.827   7.687   0.558  0.8981  1.8812 -1.8993
10376TIP3    H231068   7.696   7.762   0.572 -0.4983 -0.8920  0.1276
10377TIP3   OH231069   6.149   6.097   0.326  0.0459 -0.1225 -0.4193
10377TIP3    H131070   6.217   6.102   0.259 -1.6745 -1.9538 -2.4009
10377TIP3    H231071   6.120   6.006   0.324 -1.3944  0.2617  1.4517
10378TIP3   OH231072   7.331   1.576   1.048  0.3091 -0.1964  0.0791
10378TIP3    H131073   7.253   1.596   1.099 -0.1815 -1.6780 -0.0590
10378TIP3    H231074   7.398   1.636   1.081 -0.9201  1.1880  0.0798
10379TIP3   OH231075   3.670   4.773   6.727  0.2605  0.1756  0.1037
10379TIP3    H131076   3.735   4.726   6.675 -0.1571  0.2120 -0.4563
10379TIP3    H231077   3.711   4.783   6.813  1.3170  0.9145 -0.4771
10380TIP3   OH231078   2.759   5.092   6.602  0.5696  0.0973 -1.0763
10380TIP3    H131079   2.742   5.029   6.532  2.0064 -0.1585 -1.2055
10380TIP3    H231080   2.840   5.135   6.576  0.5975  0.6757 -0.0426
10381TIP3   OH231081   7.676   0.918   0.099 -1.0343  0.0999  0.3139
10381TIP3    H131082   7.616   0.932   0.026  0.2225 -0.3742 -0.8367
10381TIP3    H231083   7.762   0.910   0.057 -0.2312  0.3774  1.8991
10382TIP3   OH231084   6.485   6.944   0.129 -0.1993  0.6617  0.1482
10382TIP3    H131085   6.574   6.962   0.160  0.3327  0.8957 -1.4376
10382TIP3    H231086   6.433   6.935   0.209  1.3105  0.1845  1.1008
10383TIP3   OH231087   4.031   3.933   5.824 -0.4041 -0.1639 -0.0554
10383TIP3    H131088   4.041   3.902   5.734  0.4288  1.6652 -0.6279
10383TIP3    H231089   3.937   3.943   5.836 -0.5223 -0.4562 -0.7025
10384TIP3   OH231090   5.002   7.088   0.261 -0.1114 -0.1469  0.0183
10384TIP3    H131091   5.029   7.002   0.291  0.9033 -0.3119 -1.3635
10384TIP3    H231092   4.977   7.076   0.169 -2.8875  0.4153  0.6271
10385TIP3   OH231093   4.568   7.616   0.228  0.2819  0.4590  1.1385
10385TIP3    H131094   4.476   7.641   0.237 -0.4642 -2.0649  0.8774
10385TIP3    H231095   4.570   7.562   0.149  1.9901  0.5443  1.1239
10386TIP3   OH231096   3.807   0.538   6.798 -0.3252 -0.1699  0.2495
10386TIP3    H131097   3.761   0.509   6.877 -0.9579 -0.2455 -0.1439
10386TIP3    H231098   3.807   0.462   6.741  1.8992 -0.7494  0.9467
10387TIP3   OH231099   3.828   0.840   6.058 -0.7041 -0.4439 -0.4371
10387TIP3    H131100   3.743   0.834   6.103 -0.3895 -0.9654  0.0798
10387TIP3    H231101   3.834   0.932   6.032 -2.2763 -0.7758 -2.1376
10388TIP3   OH231102   3.967   2.944   6.558  0.7883 -0.9322  0.6470
10388TIP3    H131103   3.873   2.926   6.567 -0.0080  2.2005 -0.6022
10388TIP3    H231104   3.975   2.986   6.472  2.8993  1.2750  1.8450
10389TIP3   OH231105   2.326   1.746   6.769  0.8231 -0.4785  0.0726
10389TIP3    H131106   2.359   1.745   6.679  0.2371 -0.0781 -0.1459
10389TIP3    H231107   2.404   1.753   6.823  1.1141  0.2873 -0.4416
10390TIP3   OH231108   4.439   1.186   6.077 -0.7253  0.2399 -0.3987
10390TIP3    H131109   4.494   1.164   6.152 -2.0290  1.3080  0.9135
10390TIP3    H231110   4.374   1.246   6.113 -1.0049  1.2381 -2.5340
10391TIP3   OH231111   4.089   0.791   6.168  0.3114  0.4437  0.1769
10391TIP3    H131112   4.017   0.792   6.105  0.3311  1.4220  0.1677
10391TIP3    H231113   4.093   0.880   6.203  1.8429  0.5548 -0.2122
10392TIP3   OH231114   5.137   5.983   0.531 -0.6394  0.3827  0.1865
10392TIP3    H131115   5.149   6.076   0.513 -1.3966  0.2836 -0.8482
10392TIP3    H231116   5.088   5.981   0.613  0.4316  0.8717  0.8523
10393TIP3   OH231117   2.079   1.725   6.393  0.2088  0.1358 -0.6145
10393TIP3    H131118   2.128   1.646   6.373 -0.0429 -0.4705  1.0990
10393TIP3    H231119   2.065   1.722   6.488 -1.5661  1.2076 -0.8145
10394TIP3   OH231120   2.798   1.530   5.965 -0.2556  0.3768  0.3123
10394TIP3    H131121   2.809   1.436   5.951  0.3064  0.2298  1.6040
10394TIP3    H231122   2.707   1.547   5.943 -0.1788 -0.3417 -0.5912
10395TIP3   OH231123   2.527   1.704   6.178  0.2168  0.3030  0.0003
10395TIP3    H131124   2.446   1.714   6.128  2.0019 -1.1444 -3.4144
10395TIP3    H231125   2.504   1.647   6.251 -2.2810  1.6071  0.2433
10396TIP3   OH231126   5.986   3.914   5.207 -0.0694  0.0003 -0.0087
10396TIP3    H131127   6.022   3.995   5.172  0.8764 -0.0686  0.7819
10396TIP3    H231128   6.022   3.846   5.151  0.2711  0.0160  0.1865
10397TIP3   OH231129   3.477   2.263   6.273  0.0199 -0.2534 -0.4193
10397TIP3    H131130   3.531   2.184   6.271 -0.3337 -0.5339  0.6490
10397TIP3    H231131   3.429   2.260   6.190  2.1435  0.3897 -1.7049
10398TIP3   OH231132   1.880   1.335   5.302 -0.2399  0.0044  0.0564
10398TIP3    H131133   1.955   1.355   5.246 -0.6044 -2.2860 -1.2835
10398TIP3    H231134   1.919   1.301   5.383  0.2486  2.4218  0.8910
10399TIP3   OH231135   6.227   6.816   1.301 -0.2550 -0.8658  0.3586
10399TIP3    H131136   6.299   6.862   1.344 -1.3614 -0.2767  1.6374
10399TIP3    H231137   6.156   6.880   1.300 -0.6918 -1.3609 -1.1056
10400TIP3   OH231138   7.197   7.832   1.905  0.1182 -0.7642 -0.1262
10400TIP3    H131139   7.277   7.835   1.852 -0.6995  1.1699 -1.3187
10400TIP3    H231140   7.145   7.907   1.874 -2.1404 -1.9604  0.6556
10401TIP3   OH231141   5.671   1.961   5.542 -0.5822 -0.0544 -0.0769
10401TIP3    H131142   5.719   1.903   5.601 -1.6931  0.4362  1.3337
10401TIP3    H231143   5.623   2.021   5.600 -3.0152 -0.6247 -1.4009
10402TIP3   OH231144   2.304   6.275   0.563 -0.4797  0.4570 -0.3065
10402TIP3    H131145   2.214   6.279   0.594 -0.5384 -1.1941 -0.2158
10402TIP3    H231146   2.356   6.311   0.635 -1.0506  1.3096 -0.3146
10403TIP3   OH231147   5.017   3.111   6.208 -0.7235 -0.5520  0.4047
10403TIP3    H131148   4.986   3.181   6.150 -0.2096 -1.0452 -0.4842
10403TIP3    H231149   4.961   3.036   6.186  0.4310 -1.1578 -0.4933
10404TIP3   OH231150   6.224   3.399   3.725  0.9591  0.5175 -0.4843
10404TIP3    H131151   6.260   3.356   3.803 -0.9305  0.1408  0.2124
10404TIP3    H231152   6.189   3.327   3.673 -2.2212  1.1628  0.6901
10405TIP3   OH231153   1.514   7.984   0.616 -0.4389 -0.3753  0.2060
10405TIP3    H131154   1.523   7.938   0.532 -2.8648 -1.6819  0.6104
10405TIP3    H231155   1.487   8.073   0.591 -0.8255 -0.6606 -0.4241
10406TIP3   OH231156   7.488   6.150   0.622 -0.1562 -0.1980 -0.1727
10406TIP3    H131157   7.530   6.066   0.604 -2.1957 -1.4939  0.9517
10406TIP3    H231158   7.478   6.152   0.717 -3.1446 -0.2003 -0.4447
10407TIP3   OH231159   6.026   3.817   6.680 -0.7482 -0.4569 -0.0319
10407TIP3    H131160   6.118   3.838   6.663 -1.3036  1.3357 -0.9921
10407TIP3    H231161   5.979   3.853   6.605 -2.3030 -0.8151  0.7416
10408TIP3   OH231162   4.018   4.802   6.641 -0.6764  0.3514  0.1233
10408TIP3    H131163   3.959   4.727   6.629  0.6286 -0.6066 -0.3444
10408TIP3    H231164   4.061   4.812   6.557 -1.1476  1.9173  0.0479
10409TIP3   OH231165   0.885   7.449   0.641 -0.5137 -0.0042  0.2127
10409TIP3    H131166   0.951   7.484   0.701 -0.4436  0.7153 -0.2815
10409TIP3    H231167   0.812   7.511   0.647 -0.1916  0.5062 -1.0429
10410TIP3   OH231168   7.345   0.918   6.822  1.0757 -0.3527 -0.0140
10410TIP3    H131169   7.323   0.998   6.869  0.8208 -1.1980  1.3114
10410TIP3    H231170   7.322   0.937   6.731 -0.9856  0.3467  0.6279
10411TIP3   OH231171   7.781   5.949   0.393  0.7044 -0.2128 -0.3794
10411TIP3    H131172   7.862   5.971   0.439 -0.6756  1.1412  1.4407
10411TIP3    H231173   7.727   5.903   0.457  0.7896 -2.9740 -2.1697
10412TIP3   OH231174   5.918   3.924   5.942 -0.3837 -0.2002 -0.2402
10412TIP3    H131175   5.835   3.901   5.984 -0.1146  1.6844  1.4288
10412TIP3    H231176   5.894   3.954   5.855 -1.4895  0.5305  0.3048
10413TIP3   OH231177   7.083   6.927   2.264 -0.3245  0.2484 -0.2290
10413TIP3    H131178   7.126   6.860   2.211 -0.7369 -0.0419 -0.2009
10413TIP3    H231179   7.043   6.878   2.336  1.2314  0.7784  1.0051
10414TIP3   OH231180   3.280   1.542   1.192  0.0074 -0.5382  0.3197
10414TIP3    H131181   3.279   1.481   1.118  2.4342 -0.8779  0.5221
10414TIP3    H231182   3.237   1.621   1.159 -0.2798 -1.2146 -0.9586
10415TIP3   OH231183   2.298   5.901   1.136 -0.1525  0.3317  0.1168
10415TIP3    H131184   2.332   5.867   1.219  1.1378 -1.9438 -1.2866
10415TIP3    H231185   2.217   5.853   1.122  1.2495 -1.6992 -1.4540
10416TIP3   OH231186   0.050   7.316   0.351  0.1251 -0.2046  0.0174
10416TIP3    H131187  -0.023   7.253   0.356  0.9436 -1.2608 -1.0760
10416TIP3    H231188   0.048   7.347   0.261  2.1568 -1.6345 -0.5572
10417TIP3   OH231189   4.616   3.456   6.719  0.4153 -0.1008  0.0339
10417TIP3    H131190   4.669   3.473   6.797 -1.2284 -0.6302  1.2983
10417TIP3    H231191   4.631   3.363   6.699  2.2199  0.4637 -1.3735
10418TIP3   OH231192   4.313   5.211   6.420 -1.0107  0.0058 -0.6949
10418TIP3    H131193   4.316   5.126   6.465 -0.2360 -0.4124 -1.5219
10418TIP3    H231194   4.247   5.261   6.468  0.3435 -0.1489  1.4186
10419TIP3   OH231195   5.144   2.718   6.309 -0.0850 -0.3343 -0.0687
10419TIP3    H131196   5.228   2.721   6.354 -0.4329 -1.1051  0.6622
10419TIP3    H231197   5.131   2.625   6.289 -0.8261 -0.2411 -0.0479
10420TIP3   OH231198   5.681   2.473   6.327 -0.4045 -0.1107 -0.8855
10420TIP3    H131199   5.629   2.479   6.407  1.0090 -0.8613  0.1139
10420TIP3    H231200   5.638   2.405   6.276 -0.5205 -0.6021 -0.1385
10421TIP3   OH231201   5.547   4.860   5.970 -0.0154 -0.4764 -0.0084
10421TIP3    H131202   5.490   4.913   6.026 -0.3144  0.6462 -1.3427
10421TIP3    H231203   5.506   4.864   5.884  0.8894 -1.4990 -0.4985
10422TIP3   OH231204   2.277   0.409   0.165 -0.2060  0.3095 -0.1607
10422TIP3    H131205   2.364   0.369   0.164  0.0482  0.8396  0.4683
10422TIP3    H231206   2.256   0.420   0.258 -1.5122 -1.0270 -0.2688
10423TIP3   OH231207   4.326   4.235   6.408 -0.0693  0.3826  0.0276
10423TIP3    H131208   4.420   4.254   6.402  0.2068 -0.9168  0.2303
10423TIP3    H231209   4.296   4.288   6.481  0.9023 -0.7064  1.2312
10424TIP3   OH231210   8.235   7.266   0.170 -0.1648  0.5610 -0.2820
10424TIP3    H131211   8.217   7.292   0.260 -0.2954 -0.3563 -0.0358
10424TIP3    H231212   8.233   7.170   0.172 -2.3659  0.5557 -1.7218
10425TIP3   OH231213   8.009   5.031   0.147 -0.3960 -0.0094 -0.5832
10425TIP3    H131214   7.951   5.104   0.168 -0.3116 -0.1437  0.1184
10425TIP3    H231215   8.009   5.027   0.051 -2.3025 -0.6125 -0.5845
10426TIP3   OH231216   6.798   3.425   5.874 -0.4402 -0.0884 -0.4100
10426TIP3    H131217   6.860   3.417   5.801  0.1233  1.8949 -0.1692
10426TIP3    H231218   6.846   3.393   5.950 -0.4465 -0.5716 -0.6106
10427TIP3   OH231219   4.761   2.784   5.028 -0.1740  0.5270  0.1947
10427TIP3    H131220   4.671   2.787   4.995  0.0104 -0.9056 -0.4874
10427TIP3    H231221   4.755   2.732   5.108  0.0234  0.5285  0.2112
10428TIP3   OH231222   4.587   1.098   0.517  0.8238  0.4847 -0.0246
10428TIP3    H131223   4.612   1.041   0.589  0.7730  0.4932 -0.0002
10428TIP3    H231224   4.538   1.040   0.457  0.9943  0.4433 -0.1234
10429TIP3   OH231225   5.851   2.794   5.874 -0.4170  1.0117  0.1404
10429TIP3    H131226   5.827   2.842   5.954 -0.3809  1.4101 -0.0897
10429TIP3    H231227   5.911   2.853   5.828 -2.4382  1.8464 -1.4394
10430TIP3   OH231228   3.914   5.278   5.833  0.3510 -0.0039 -0.1476
10430TIP3    H131229   4.006   5.286   5.859 -0.2078  1.7345  1.4752
10430TIP3    H231230   3.905   5.337   5.757  0.3047  0.8581  0.5158
10431TIP3   OH231231   4.577   0.287   0.786 -0.1365 -0.3039  0.1981
10431TIP3    H131232   4.511   0.313   0.722 -0.5021  0.0363  0.7138
10431TIP3    H231233   4.586   0.192   0.773  0.4688 -0.0984 -0.9840
10432TIP3   OH231234   4.635   1.845   5.307  0.0565 -0.0351  0.1267
10432TIP3    H131235   4.710   1.891   5.344 -0.3602  1.4044 -0.7916
10432TIP3    H231236   4.568   1.912   5.296 -0.9477 -1.0686 -0.2199
10433TIP3   OH231237   0.348   5.878   0.396 -0.4520  0.1891  0.4708
10433TIP3    H131238   0.414   5.947   0.409  0.2723 -0.0972 -1.5076
10433TIP3    H231239   0.372   5.838   0.312 -1.4083 -1.8821  1.1596
10434TIP3   OH231240   3.903   3.456   5.892 -0.2630 -0.8789 -0.4971
10434TIP3    H131241   3.994   3.478   5.872  0.4839 -1.0047  2.5229
10434TIP3    H231242   3.872   3.409   5.815  2.3390 -1.1040 -1.4453
10435TIP3   OH231243   4.881   4.388   5.750  0.5646 -0.3694 -0.2936
10435TIP3    H131244   4.905   4.303   5.712  1.4506  0.1368 -0.8599
10435TIP3    H231245   4.785   4.388   5.748  0.5945 -0.2242 -2.8282
10436TIP3   OH231246   5.401   1.303   6.180  0.5267  0.3027 -0.5496
10436TIP3    H131247   5.480   1.253   6.163  0.2763  0.3221 -1.7935
10436TIP3    H231248   5.431   1.394   6.189  1.0402 -0.0902  2.1579
10437TIP3   OH231249   3.708   3.483   6.635  0.2714  0.4755  0.5551
10437TIP3    H131250   3.773   3.539   6.592 -0.9279  2.1674  0.8913
10437TIP3    H231251   3.653   3.452   6.563 -0.2529  1.3362  0.5744
10438TIP3   OH231252   0.319   7.006   1.965  0.1452 -0.8058  0.1231
10438TIP3    H131253   0.281   6.939   2.022 -1.5278  0.4727  0.5459
10438TIP3    H231254   0.377   7.056   2.023  0.3276 -1.0326  0.1355
10439TIP3   OH231255   4.449   2.136   5.546 -0.1324 -0.0669  0.0641
10439TIP3    H131256   4.451   2.232   5.547 -0.7094 -0.0448 -0.7192
10439TIP3    H231257   4.365   2.114   5.588  1.1070 -0.2949  2.5273
10440TIP3   OH231258   5.052   2.964   6.461  0.4191 -0.5220  0.1202
10440TIP3    H131259   5.056   2.997   6.371 -0.9698 -2.3204 -0.6199
10440TIP3    H231260   5.078   2.872   6.455 -0.7356 -0.9489  1.3846
10441TIP3   OH231261   4.990   4.199   6.914 -0.1859  0.2152 -0.4304
10441TIP3    H131262   4.976   4.278   6.965 -0.0914 -1.2066  1.8399
10441TIP3    H231263   5.083   4.201   6.891 -0.3788  1.2024 -1.1970
10442TIP3   OH231264   1.066   7.021   0.535 -0.6489  0.1511 -0.2497
10442TIP3    H131265   1.133   7.041   0.470 -0.2297  0.4120  0.2619
10442TIP3    H231266   1.108   6.961   0.597 -1.3522 -0.8894 -0.7676
10443TIP3   OH231267   5.277   1.400   6.841 -0.6148  0.4592 -0.0039
10443TIP3    H131268   5.352   1.358   6.885 -0.8749 -2.1036 -1.8714
10443TIP3    H231269   5.241   1.459   6.907  1.4831 -0.2000  1.8184
10444TIP3   OH231270   5.543   4.021   5.732  0.4041 -0.2437  0.1942
10444TIP3    H131271   5.468   4.015   5.673  1.0501 -0.9127 -0.5688
10444TIP3    H231272   5.512   3.984   5.815 -1.5448  3.6821  1.3317
10445TIP3   OH231273   7.234   4.687   4.212 -0.1358  0.3823  0.1584
10445TIP3    H131274   7.301   4.726   4.268 -0.1650 -0.0356  0.4908
10445TIP3    H231275   7.258   4.594   4.206 -1.5187 -0.0950  1.5414
10446TIP3   OH231276   7.011   7.214   1.466  0.5114 -0.2187 -0.3369
10446TIP3    H131277   6.986   7.130   1.504 -0.4239  0.3866  0.3911
10446TIP3    H231278   7.046   7.264   1.539  0.4228  0.2785 -0.6369
10447TIP3   OH231279   4.783   5.670   5.361  0.1180  0.0169  0.7239
10447TIP3    H131280   4.729   5.746   5.380 -0.5478 -0.2650 -0.0562
10447TIP3    H231281   4.873   5.704   5.359 -0.2270  0.8692 -0.1376
10448TIP3   OH231282   6.828   4.493   6.545  0.2763 -0.6001 -0.2018
10448TIP3    H131283   6.756   4.446   6.588  0.6667  0.1621  1.2799
10448TIP3    H231284   6.786   4.537   6.471 -1.0999  1.0765  1.5292
10449TIP3   OH231285   2.462   0.240   0.278 -0.1583  0.3813  0.1741
10449TIP3    H131286   2.537   0.201   0.231  1.1052 -1.3712  3.4910
10449TIP3    H231287   2.424   0.167   0.327 -2.7193  1.7374  0.2534
10450TIP3   OH231288   4.300   4.818   6.278  0.2598 -0.9838 -0.1744
10450TIP3    H131289   4.312   4.728   6.245  1.7773 -0.2687 -1.6623
10450TIP3    H231290   4.357   4.871   6.222 -0.6706  0.9216  0.6617
10451TIP3   OH231291   2.714   0.058   1.288  0.6415 -0.1770  0.2486
10451TIP3    H131292   2.677   0.129   1.342  1.3256  0.2804  0.1160
10451TIP3    H231293   2.684   0.079   1.199  1.2858  0.2430  0.1273
10452TIP3   OH231294   4.223   4.848   4.369 -0.0170  1.0101 -0.2266
10452TIP3    H131295   4.200   4.758   4.393 -0.8756  1.3659  0.2940
10452TIP3    H231296   4.296   4.871   4.427 -0.2992  0.9226  0.1573
10453TIP3   OH231297   4.954   3.864   5.644 -1.0001 -0.2563 -0.1324
10453TIP3    H131298   4.922   3.776   5.625 -0.2294 -0.5992  0.1428
10453TIP3    H231299   5.025   3.878   5.581 -0.2376 -0.3486  0.6982
10454TIP3   OH231300   3.297   7.320   0.591 -0.3295 -0.0020 -0.6259
10454TIP3    H131301   3.259   7.388   0.534 -1.8854  1.4883  2.0957
10454TIP3    H231302   3.320   7.367   0.671 -0.5641 -2.5305  0.9438
10455TIP3   OH231303   3.091   6.763   0.438 -0.2887 -0.2787 -0.0229
10455TIP3    H131304   3.078   6.818   0.515  0.9217 -0.5459  0.3770
10455TIP3    H231305   3.025   6.794   0.375 -0.5424  0.6804  0.7036
10456TIP3   OH231306   6.779   7.893   2.397  0.1255 -0.0006  0.1969
10456TIP3    H131307   6.816   7.881   2.310  0.9759 -0.8000  0.6617
10456TIP3    H231308   6.843   7.853   2.456 -2.0441 -2.4788  0.9271
10457TIP3   OH231309   7.652   4.134   1.112 -0.2512  0.5400  0.0585
10457TIP3    H131310   7.721   4.072   1.136 -1.3985 -0.8310 -0.1413
10457TIP3    H231311   7.634   4.182   1.193 -1.7110 -1.7215  1.1327
10458TIP3   OH231312   7.028   4.091   6.096  0.3796  0.1978  0.8844
10458TIP3    H131313   7.036   4.118   6.005 -0.3486 -0.4401  0.6351
10458TIP3    H231314   7.048   4.170   6.146  2.9968  0.0135  0.2075
10459TIP3   OH231315   5.606   2.094   4.480 -0.5361 -0.0984 -0.0480
10459TIP3    H131316   5.572   2.019   4.433 -2.0627  0.9122 -0.5963
10459TIP3    H231317   5.530   2.132   4.524  0.1446  1.3053 -0.0456
10460TIP3   OH231318   0.071   5.865   0.271 -0.5510 -0.1130 -0.0962
10460TIP3    H131319   0.152   5.895   0.313 -0.6423 -0.1583  0.1132
10460TIP3    H231320   0.001   5.909   0.320 -0.6646 -0.3021 -0.0870
10461TIP3   OH231321   6.383   1.539   6.564  0.3315 -0.7905  0.3388
10461TIP3    H131322   6.413   1.585   6.643  1.0957 -0.2848 -0.2382
10461TIP3    H231323   6.311   1.484   6.595  2.2627 -2.5511  1.9032
10462TIP3   OH231324   0.444   6.508   1.936 -0.0296 -0.2404  0.3941
10462TIP3    H131325   0.525   6.527   1.982  0.0240  2.0140 -0.5506
10462TIP3    H231326   0.471   6.465   1.855  0.1663 -0.2815  0.4834
10463TIP3   OH231327   7.946   4.060   6.306 -0.1017  0.1827 -0.3824
10463TIP3    H131328   7.958   3.977   6.352  0.5457 -0.2974 -1.3962
10463TIP3    H231329   7.936   4.036   6.214  0.2231  1.2325 -0.7045
10464TIP3   OH231330   7.327   7.985   0.393  0.4442 -0.3031  0.3899
10464TIP3    H131331   7.326   8.030   0.477 -0.4308  2.3891 -1.0031
10464TIP3    H231332   7.407   8.017   0.350  0.1253 -0.5255 -0.3791
10465TIP3   OH231333   4.196   0.771   5.731 -0.0294 -0.2917  0.2128
10465TIP3    H131334   4.212   0.865   5.741  1.8990 -0.8358  2.6507
10465TIP3    H231335   4.240   0.748   5.649 -1.0635  1.0277 -0.7351
10466TIP3   OH231336   7.128   7.226   3.400  0.0472  0.1871  0.6986
10466TIP3    H131337   7.147   7.285   3.327  0.2268  0.2921  0.8296
10466TIP3    H231338   7.189   7.153   3.387  0.2792  0.3423  0.9041
10467TIP3   OH231339   5.732   2.512   5.140 -0.2910  0.0532 -0.2752
10467TIP3    H131340   5.749   2.427   5.179  0.9223 -0.1109 -1.1483
10467TIP3    H231341   5.773   2.575   5.200  0.4470 -0.1059 -0.6186
10468TIP3   OH231342   7.760   5.779   0.177  0.5071  0.1870 -0.2682
10468TIP3    H131343   7.680   5.740   0.142  0.1509 -1.0141  1.7818
10468TIP3    H231344   7.782   5.724   0.252  0.6638  3.2389  2.0051
10469TIP3   OH231345   8.478   7.141   1.729 -0.0443 -0.1010 -0.2118
10469TIP3    H131346   8.540   7.155   1.800  2.8811 -2.0663 -2.2420
10469TIP3    H231347   8.480   7.222   1.678  1.9121 -0.5576 -0.9450
10470TIP3   OH231348   7.061   7.546   1.249 -0.2055  0.4598  0.0074
10470TIP3    H131349   7.107   7.490   1.186  1.7919  0.9627  0.9666
10470TIP3    H231350   7.073   7.502   1.333 -1.9238  0.3586  0.2241
10471TIP3   OH231351   5.130   3.006   6.910 -0.0336 -0.0466  0.5044
10471TIP3    H131352   5.154   3.065   6.981 -0.7156 -0.5265  1.1517
10471TIP3    H231353   5.213   2.985   6.867  0.2482  1.0919  0.4956
10472TIP3   OH231354   7.976   7.818   0.366 -0.0515  0.1617  0.0891
10472TIP3    H131355   8.065   7.854   0.363 -0.5967  1.7451  1.8307
10472TIP3    H231356   7.953   7.820   0.459 -1.7934 -0.5709 -0.3063
10473TIP3   OH231357   6.308   1.945   6.704 -0.6611 -0.8608 -0.6573
10473TIP3    H131358   6.338   1.953   6.613  0.6192 -0.3921 -0.2096
10473TIP3    H231359   6.235   1.884   6.699  0.3746 -2.0762 -1.8104
10474TIP3   OH231360   4.755   5.499   6.029  0.5140  0.3266 -0.1212
10474TIP3    H131361   4.766   5.594   6.033 -0.6527  0.5150 -0.9422
10474TIP3    H231362   4.668   5.484   6.068  0.5913 -0.3727 -0.2196
10475TIP3   OH231363   7.946   3.543   6.766  0.2097 -0.2167 -0.1926
10475TIP3    H131364   7.960   3.535   6.861  0.6819 -1.1591 -0.3328
10475TIP3    H231365   7.865   3.494   6.750 -0.2699  0.5624 -0.1767
10476TIP3   OH231366   6.623   7.532   1.385  0.3438  0.2671  0.3605
10476TIP3    H131367   6.604   7.578   1.466 -0.4816  0.4412  0.0706
10476TIP3    H231368   6.577   7.582   1.317  1.9552  0.7883 -0.3808
10477TIP3   OH231369   7.203   7.495   2.425  0.6014  0.3555  0.3570
10477TIP3    H131370   7.109   7.485   2.437  0.7302 -0.2154  0.9018
10477TIP3    H231371   7.220   7.461   2.337  0.2004  1.0820  0.0007
10478TIP3   OH231372   7.737   6.077   1.706  0.1006  0.0562  0.2022
10478TIP3    H131373   7.811   6.102   1.761  0.9612 -0.1370 -0.8548
10478TIP3    H231374   7.662   6.073   1.767  1.2006 -1.0581  1.5186
10479TIP3   OH231375   8.205   6.336   0.820  0.8367  0.2724 -0.5959
10479TIP3    H131376   8.276   6.396   0.844 -0.5075  1.8026 -0.3601
10479TIP3    H231377   8.129   6.392   0.809 -0.5166 -1.4202 -0.1580
10480TIP3   OH231378   4.930   2.445   3.948  0.0301 -0.0684 -0.3969
10480TIP3    H131379   4.973   2.416   3.868  0.4799 -0.7189  0.0780
10480TIP3    H231380   4.976   2.524   3.974 -0.4890  0.4701 -1.0921
10481TIP3   OH231381   8.030   6.987   1.531 -0.8005  0.5666  0.0571
10481TIP3    H131382   8.043   6.917   1.594 -0.7628  1.9129  1.5933
10481TIP3    H231383   7.935   6.991   1.519 -0.8417  0.5809  0.3729
10482TIP3   OH231384   6.737   2.126   4.832  0.5092  0.7851 -0.3923
10482TIP3    H131385   6.815   2.071   4.831  0.8348  1.2546 -0.5928
10482TIP3    H231386   6.768   2.212   4.860 -0.4517  0.1701  2.7584
10483TIP3   OH231387   5.715   6.200   0.355  0.5234  0.2678  0.5664
10483TIP3    H131388   5.720   6.145   0.433 -0.1210 -0.9183 -0.2190
10483TIP3    H231389   5.632   6.247   0.363  1.0378  1.0812  1.1975
10484TIP3   OH231390   1.623   7.555   1.642 -0.1576  0.1942  0.4202
10484TIP3    H131391   1.637   7.483   1.703 -0.7379  0.1353  0.4855
10484TIP3    H231392   1.674   7.531   1.565 -0.9652 -0.6625  0.1440
10485TIP3   OH231393   4.214   2.590   6.259 -0.4188 -0.2901  0.4571
10485TIP3    H131394   4.233   2.669   6.208  2.5536 -1.8049 -0.9141
10485TIP3    H231395   4.173   2.531   6.196  0.0420 -0.8987  0.7282
10486TIP3   OH231396   2.580   0.648   1.586  0.4611  0.4784  0.4401
10486TIP3    H131397   2.486   0.643   1.572  0.5323 -0.0206  0.1452
10486TIP3    H231398   2.600   0.578   1.647  0.7811 -0.0315 -0.2423
10487TIP3   OH231399   0.295   6.725   2.600 -0.3364  0.1742  0.1981
10487TIP3    H131400   0.267   6.779   2.674 -1.7121 -0.0539 -0.1429
10487TIP3    H231401   0.223   6.730   2.537  1.4766  1.6766 -1.8700
10488TIP3   OH231402   7.107   5.519   1.009  0.2041 -0.1682  0.0104
10488TIP3    H131403   7.105   5.435   1.056 -0.7869 -1.6425 -2.5474
10488TIP3    H231404   7.015   5.541   0.995  0.4061  2.2220  2.0417
10489TIP3   OH231405   6.118   6.530   2.761  0.0459 -0.0548 -0.1349
10489TIP3    H131406   6.070   6.456   2.722 -1.7532  0.7312  0.5573
10489TIP3    H231407   6.177   6.559   2.691  0.6424 -1.9949 -0.4961
10490TIP3   OH231408   6.338   3.172   6.562  0.2246 -0.5020  0.1231
10490TIP3    H131409   6.375   3.085   6.548 -1.4624 -1.3560  0.7396
10490TIP3    H231410   6.255   3.155   6.608  1.1380  1.5898  2.6793
10491TIP3   OH231411   0.173   7.911   1.082  0.9836 -0.2602  0.0323
10491TIP3    H131412   0.095   7.967   1.077  1.3454  0.1001 -2.4122
10491TIP3    H231413   0.151   7.845   1.147 -0.7090  0.8583  0.6309
10492TIP3   OH231414   8.197   4.657   4.135 -0.1887 -0.4463 -0.1540
10492TIP3    H131415   8.225   4.694   4.219 -0.2887 -0.5390 -0.0797
10492TIP3    H231416   8.221   4.564   4.141  2.1711  0.0437 -1.2285
10493TIP3   OH231417   7.183   4.674   0.170 -0.6886 -0.0832  0.0574
10493TIP3    H131418   7.276   4.680   0.150 -0.8428 -0.0232 -0.6308
10493TIP3    H231419   7.179   4.681   0.266  0.0465 -0.5295  0.1261
10494TIP3   OH231420   8.331   3.858   6.666  0.2312  0.7709  0.2820
10494TIP3    H131421   8.259   3.795   6.665  0.8492  0.0458  0.9571
10494TIP3    H231422   8.302   3.926   6.727 -1.0139  1.8410 -1.4698
10495TIP3   OH231423   5.114   5.416   4.581  0.1423  0.2926 -0.7899
10495TIP3    H131424   5.204   5.419   4.546  1.0079  2.0043  1.4752
10495TIP3    H231425   5.112   5.337   4.634 -0.0181 -0.3252 -1.7174
10496TIP3   OH231426   4.595   2.186   6.205  0.8417  0.2616 -0.2418
10496TIP3    H131427   4.503   2.209   6.214  1.0150  1.0061 -0.3748
10496TIP3    H231428   4.603   2.101   6.249  0.3959  0.8976  1.0701
10497TIP3   OH231429   1.003   7.819   1.444  0.5465 -0.5581  0.0160
10497TIP3    H131430   0.973   7.859   1.525  0.5833 -0.3790 -0.0577
10497TIP3    H231431   1.004   7.891   1.381  0.5557 -0.6878 -0.1326
10498TIP3   OH231432   6.466   2.110   4.748 -0.0372 -0.5165 -0.5747
10498TIP3    H131433   6.453   2.193   4.793  0.4473  0.7085 -2.6515
10498TIP3    H231434   6.556   2.085   4.768  0.2367  0.1185 -1.0199
10499TIP3   OH231435   6.461   4.456   6.305 -0.3594  0.0464 -0.1644
10499TIP3    H131436   6.465   4.362   6.284  0.2656  0.3272 -1.3884
10499TIP3    H231437   6.373   4.482   6.278  0.6833  0.5589 -3.2758
10500TIP3   OH231438   4.695   3.873   4.410 -0.0086  0.0917  0.4848
10500TIP3    H131439   4.672   3.922   4.489 -0.9888 -0.8395  0.7817
10500TIP3    H231440   4.629   3.805   4.404  1.2494 -1.0971 -0.0274
10501TIP3   OH231441   2.051   6.676   1.964  0.1646 -0.3154  0.7448
10501TIP3    H131442   2.085   6.586   1.971  0.7996 -0.0604  0.9318
10501TIP3    H231443   1.975   6.677   2.023  0.1910 -0.7146  0.7862
10502TIP3   OH231444   3.895   3.807   5.159 -0.1389  0.0361  0.4194
10502TIP3    H131445   3.818   3.798   5.103 -0.5578 -0.0932  0.9997
10502TIP3    H231446   3.882   3.892   5.203 -0.5644 -0.5364  1.4179
10503TIP3   OH231447   7.051   7.309   1.722  0.3664 -0.0352  0.2423
10503TIP3    H131448   7.039   7.388   1.774  0.3330 -0.1872  0.4625
10503TIP3    H231449   7.000   7.242   1.766  0.0504 -0.0786 -0.1848
10504TIP3   OH231450   4.396   3.800   6.958  0.1195  0.4334 -0.0478
10504TIP3    H131451   4.417   3.889   6.987  0.6247  0.7429 -1.3242
10504TIP3    H231452   4.383   3.808   6.863 -1.1494 -0.6112  0.0225
10505TIP3   OH231453   4.975   4.747   6.708 -0.3513  0.4584  0.3819
10505TIP3    H131454   5.017   4.709   6.631 -2.8414  0.0588 -0.8517
10505TIP3    H231455   5.046   4.782   6.760  1.5191 -0.6686 -1.3505
10506TIP3   OH231456   8.232   7.312   0.816  0.2021  0.1513 -0.4689
10506TIP3    H131457   8.215   7.229   0.861  0.9470  0.7703  0.9716
10506TIP3    H231458   8.287   7.288   0.741 -0.5383 -0.7990 -0.7221
10507TIP3   OH231459   4.396   2.654   6.480 -0.2543  0.0408 -0.2575
10507TIP3    H131460   4.342   2.607   6.417 -0.6596 -1.7465  1.3916
10507TIP3    H231461   4.464   2.592   6.506 -0.0506  0.7687  1.0199
10508TIP3   OH231462   4.824   5.806   6.649 -0.0717 -0.5127 -0.0890
10508TIP3    H131463   4.831   5.804   6.554  0.4084  1.1583 -0.0940
10508TIP3    H231464   4.912   5.786   6.680  0.7118  2.7047 -0.0501
10509TIP3   OH231465   8.169   6.026   0.779 -0.7165  0.5483 -0.2186
10509TIP3    H131466   8.182   6.121   0.789 -0.5556  0.7350 -1.8851
10509TIP3    H231467   8.229   6.002   0.707  0.4699 -1.1252  1.2809
10510TIP3   OH231468   7.842   5.046   0.769 -0.0939  0.1756  0.0345
10510TIP3    H131469   7.906   4.975   0.773 -0.1753  0.1299  0.6627
10510TIP3    H231470   7.894   5.125   0.753  0.0183  0.0084 -0.4462
10511TIP3   OH231471   5.576   3.116   5.018  0.1284  0.5443 -0.2890
10511TIP3    H131472   5.583   3.209   4.994  0.7645  0.4497 -0.4709
10511TIP3    H231473   5.665   3.091   5.042  0.0620 -0.1632 -0.7739
10512TIP3   OH231474   4.871   1.657   6.623  0.3933 -0.0988 -0.1040
10512TIP3    H131475   4.833   1.613   6.699 -0.1341  0.6493  0.0697
10512TIP3    H231476   4.912   1.586   6.572 -0.6576 -0.8118  0.0351
10513TIP3   OH231477   0.331   6.622   0.188 -0.5743  0.0644  0.4091
10513TIP3    H131478   0.398   6.665   0.240 -1.4768 -0.0699  1.7308
10513TIP3    H231479   0.379   6.562   0.131  0.4593  0.3852  0.9267
10514TIP3   OH231480   0.875   5.814   1.341 -0.3742 -0.2544 -0.3173
10514TIP3    H131481   0.825   5.761   1.402  0.1113 -1.4245 -0.9186
10514TIP3    H231482   0.818   5.824   1.265 -0.8337  0.8899  0.1664
10515TIP3   OH231483   4.466   4.998   5.714  0.1085 -0.4357 -0.2727
10515TIP3    H131484   4.385   5.000   5.765 -0.2574 -1.8169 -0.7831
10515TIP3    H231485   4.439   4.968   5.627  1.2801 -1.6691 -0.2290
10516TIP3   OH231486   7.315   5.846   0.228  0.0129  0.0987  0.6399
10516TIP3    H131487   7.260   5.856   0.151 -0.2981 -2.1553  0.5565
10516TIP3    H231488   7.281   5.769   0.273  0.1841  1.3649  3.0536
10517TIP3   OH231489   7.221   7.314   0.290  0.0441 -0.3339  0.4449
10517TIP3    H131490   7.205   7.376   0.361 -0.2620  0.6476 -0.4626
10517TIP3    H231491   7.195   7.361   0.211 -0.4905 -1.7359 -0.2331
10518TIP3   OH231492   0.783   7.939   0.276  0.1884  0.2882 -0.1215
10518TIP3    H131493   0.696   7.951   0.314  0.8728 -0.7432  1.8552
10518TIP3    H231494   0.776   7.860   0.223 -1.0226  2.2523 -2.9919
10519TIP3   OH231495   4.156   2.543   6.847 -0.3164 -0.0364  0.6484
10519TIP3    H131496   4.137   2.521   6.938 -1.2768 -1.0607  0.2216
10519TIP3    H231497   4.248   2.567   6.846 -0.4355  0.4819  1.9822
10520TIP3   OH231498   5.045   4.580   5.871  0.6932 -0.1833 -0.3380
10520TIP3    H131499   4.975   4.514   5.862  1.0182 -0.3251 -1.9846
10520TIP3    H231500   5.065   4.606   5.782  1.6604  1.0339  0.2177
10521TIP3   OH231501   2.659   1.889   0.479  0.2624 -0.1125  0.2515
10521TIP3    H131502   2.666   1.945   0.402  1.1492  0.0192  0.4298
10521TIP3    H231503   2.729   1.824   0.469  1.9608  1.3621  2.1339
10522TIP3   OH231504   5.291   4.217   6.824 -0.2086  0.1560  0.0893
10522TIP3    H131505   5.359   4.206   6.757 -0.3773 -0.0557 -0.0476
10522TIP3    H231506   5.336   4.199   6.907 -0.2725 -0.6970 -0.0622
10523TIP3   OH231507   5.416   2.914   6.293  0.8876 -0.2162 -0.3462
10523TIP3    H131508   5.413   2.915   6.389 -0.9516 -0.6089 -0.3841
10523TIP3    H231509   5.417   3.006   6.268 -1.9754 -0.0392  0.0061
10524TIP3   OH231510   2.620   0.248   0.623 -0.0496  0.6054  0.3748
10524TIP3    H131511   2.645   0.190   0.550 -0.2499  0.0846  0.7165
10524TIP3    H231512   2.536   0.285   0.596 -0.3969 -0.0175  0.5804
10525TIP3   OH231513   0.684   0.340   0.142  0.0054 -0.5074  0.3328
10525TIP3    H131514   0.614   0.400   0.168  0.4411  0.5538 -0.8988
10525TIP3    H231515   0.637   0.262   0.110 -0.6614  0.6430 -1.5572
10526TIP3   OH231516   5.637   2.723   6.683  0.2975  0.2227 -0.7744
10526TIP3    H131517   5.584   2.802   6.671  1.3567  1.0405 -0.1030
10526TIP3    H231518   5.599   2.680   6.760  0.4150  0.6321 -0.4901
10527TIP3   OH231519   2.816   7.967   0.468 -0.2188  0.1070 -0.4495
10527TIP3    H131520   2.745   7.904   0.467 -1.2264  1.2277 -0.4725
10527TIP3    H231521   2.782   8.043   0.421  0.2310  1.4561  1.3157
10528TIP3   OH231522   5.890   3.591   6.748 -0.0251 -0.3982  0.9752
10528TIP3    H131523   5.851   3.627   6.827 -0.4013  0.7949  0.2477
10528TIP3    H231524   5.939   3.663   6.709  0.8828 -1.2122  0.5653
10529TIP3   OH231525   4.209   4.988   6.942  0.0302  0.2881 -0.0454
10529TIP3    H131526   4.159   4.915   6.977 -0.5806  1.2742  1.1811
10529TIP3    H231527   4.165   5.011   6.860 -1.0084  0.5862  0.5902
10530TIP3   OH231528   6.163   3.188   4.641 -0.3122 -0.4080  0.0634
10530TIP3    H131529   6.230   3.219   4.702 -0.7490 -1.2115  0.9650
10530TIP3    H231530   6.088   3.168   4.696 -1.3420  0.5996 -0.9639
10531TIP3   OH231531   1.579   0.903   0.979  0.7732 -0.2551 -0.0945
10531TIP3    H131532   1.549   0.963   0.910  2.0629 -0.2100 -0.6353
10531TIP3    H231533   1.638   0.843   0.934  0.3010 -1.2837  0.6585
10532TIP3   OH231534   6.657   2.900   6.462 -0.3048 -0.6192  0.2754
10532TIP3    H131535   6.710   2.820   6.452 -0.0681 -0.4407  0.0897
10532TIP3    H231536   6.635   2.926   6.372  0.2141 -0.0820  0.3009
10533TIP3   OH231537   5.637   4.969   5.221  0.1055  0.2911  0.5187
10533TIP3    H131538   5.556   4.978   5.271 -0.4683 -2.5456  0.1339
10533TIP3    H231539   5.686   4.900   5.266  0.6203 -0.6603 -1.4539
10534TIP3   OH231540   1.025   7.457   0.110  0.5844  0.0866  0.4021
10534TIP3    H131541   1.007   7.474   0.017 -1.3357 -0.5553  0.6388
10534TIP3    H231542   1.058   7.368   0.112  2.0266  0.6077  0.1799
10535TIP3   OH231543   0.758   7.690   0.189  0.5201  0.0260 -0.3272
10535TIP3    H131544   0.771   7.606   0.232  1.8542 -0.0929 -0.9316
10535TIP3    H231545   0.669   7.686   0.154  0.7162 -1.2940 -0.6990
10536TIP3   OH231546   7.775   6.386   0.357  0.1466  0.4674  0.1866
10536TIP3    H131547   7.705   6.396   0.293 -0.7800 -1.0134  0.9337
10536TIP3    H231548   7.772   6.467   0.409 -0.4797  0.7522 -0.2843
10537TIP3   OH231549   0.477   7.722   0.295  0.0828 -0.0370  0.3201
10537TIP3    H131550   0.395   7.724   0.343 -0.1234  0.0949 -0.0381
10537TIP3    H231551   0.457   7.761   0.210  0.5103 -0.0145  0.2253
10538TIP3   OH231552   3.267   0.391   0.845 -0.0922 -0.5290 -0.2915
10538TIP3    H131553   3.267   0.305   0.888 -0.4794  0.5404  1.9073
10538TIP3    H231554   3.254   0.371   0.752 -1.0840 -2.8045  0.2953
10539TIP3   OH231555   7.047   3.280   3.660 -0.2134  0.4054  0.1452
10539TIP3    H131556   7.081   3.368   3.643  2.8150 -0.9774 -1.4802
10539TIP3    H231557   7.049   3.236   3.574 -1.0954 -1.4317  1.0232
10540TIP3   OH231558   7.475   5.467   0.791  0.2615 -0.1844  0.2224
10540TIP3    H131559   7.476   5.494   0.699  1.3279  0.8677  0.5263
10540TIP3    H231560   7.424   5.535   0.835 -0.3680 -0.7630  0.3979
10541TIP3   OH231561   8.114   6.407   1.914  0.0164 -0.2671  0.4817
10541TIP3    H131562   8.171   6.374   1.844  0.1855 -0.2877  0.6282
10541TIP3    H231563   8.169   6.407   1.992  0.0623  0.5280  0.4480
10542TIP3   OH231564   2.152   0.035   1.494  0.1887  0.7427  0.2157
10542TIP3    H131565   2.107   0.044   1.578  1.5248  0.7870  0.9338
10542TIP3    H231566   2.241   0.010   1.517  0.4049  0.1611 -1.2180
10543TIP3   OH231567   7.958   5.616   1.458  0.1618 -0.6510  0.6926
10543TIP3    H131568   7.914   5.539   1.495 -1.8457 -0.3507 -0.9367
10543TIP3    H231569   8.006   5.582   1.382 -1.2847 -0.2239 -0.4376
10544TIP3   OH231570   2.621   0.548   1.873 -0.0051 -0.9475 -0.1317
10544TIP3    H131571   2.541   0.566   1.923  0.0436  0.0605 -0.3922
10544TIP3    H231572   2.681   0.509   1.936 -0.2550 -0.5039  0.3870
10545TIP3   OH231573   7.189   6.352   3.324  0.4842 -0.2308  0.2031
10545TIP3    H131574   7.144   6.322   3.403  0.3348 -0.4864  0.0212
10545TIP3    H231575   7.282   6.336   3.342  0.4398 -0.4187  0.2751
10546TIP3   OH231576   4.531   1.222   6.917  0.6098 -0.2711  0.5733
10546TIP3    H131577   4.535   1.263   6.830 -2.0103 -0.8024  0.1707
10546TIP3    H231578   4.560   1.132   6.903  0.2249 -0.3463  0.2535
10547TIP3   OH231579   1.307   5.547   0.098  0.4202  0.0229 -0.2240
10547TIP3    H131580   1.336   5.638   0.107  1.9920 -0.4322 -0.7276
10547TIP3    H231581   1.376   5.495   0.139  0.2649 -1.0541 -1.3102
10548TIP3   OH231582   8.445   6.596   2.698  0.2306  0.2735 -0.0599
10548TIP3    H131583   8.354   6.567   2.694  0.2494  0.0490  1.0586
10548TIP3    H231584   8.473   6.598   2.607 -0.5425 -0.7655 -0.3321
10549TIP3   OH231585   0.206   6.619   1.259 -0.5587  0.4411  0.2310
10549TIP3    H131586   0.174   6.594   1.172  1.1504 -0.7135 -0.0858
10549TIP3    H231587   0.215   6.714   1.255  0.5245  0.2924 -1.2344
10550TIP3   OH231588   2.940   1.799   6.795 -0.0477  0.0489 -0.1947
10550TIP3    H131589   2.873   1.846   6.745 -0.0389  1.4327  1.0698
10550TIP3    H231590   2.982   1.866   6.849  0.4243 -1.2865  1.1440
10551TIP3   OH231591   6.960   7.318   0.553  0.1655  0.1801  0.4760
10551TIP3    H131592   6.943   7.291   0.462 -1.2145 -0.2863  0.8672
10551TIP3    H231593   6.968   7.414   0.548 -0.2797  0.1927 -0.0775
10552TIP3   OH231594   6.469   6.317   1.672  0.4031  0.6072  0.2733
10552TIP3    H131595   6.501   6.242   1.622  1.0070 -0.4781  2.2231
10552TIP3    H231596   6.409   6.362   1.613  0.6191 -0.9960 -1.1874
10553TIP3   OH231597   4.394   3.534   6.544 -0.0640  0.0613 -0.3346
10553TIP3    H131598   4.446   3.489   6.611 -0.1781  0.8488  0.2922
10553TIP3    H231599   4.310   3.488   6.543  0.3812 -0.7614 -0.8467
10554TIP3   OH231600   5.243   4.274   5.530 -0.6436 -0.0932 -0.2940
10554TIP3    H131601   5.213   4.275   5.620  0.4270  2.8204  0.0953
10554TIP3    H231602   5.168   4.303   5.478 -1.1125 -1.2952 -0.2816
10555TIP3   OH231603   7.688   6.796   1.273 -0.2746 -0.6008  0.0103
10555TIP3    H131604   7.761   6.834   1.224 -0.1861  0.3384  0.8353
10555TIP3    H231605   7.643   6.739   1.211  0.9479 -0.9003 -0.6014
10556TIP3   OH231606   1.377   0.383   0.471 -0.1260 -0.4081  0.0335
10556TIP3    H131607   1.470   0.400   0.487  0.1418 -1.1064 -0.7143
10556TIP3    H231608   1.351   0.324   0.541  0.2704 -1.0515 -0.3545
10557TIP3   OH231609   7.456   3.286   5.178  0.5228 -0.3472 -0.6432
10557TIP3    H131610   7.381   3.255   5.127  0.4196 -0.8823 -0.1644
10557TIP3    H231611   7.470   3.376   5.146 -1.7125  0.5700  0.7925
10558TIP3   OH231612   3.599   0.723   0.538 -0.1725 -0.0947  0.4096
10558TIP3    H131613   3.659   0.696   0.607  0.0997 -1.2270 -0.2613
10558TIP3    H231614   3.568   0.810   0.566 -0.0411 -0.5192  1.9225
10559TIP3   OH231615   5.744   5.359   4.938  0.1885 -0.0873 -0.1280
10559TIP3    H131616   5.777   5.294   4.876 -1.1013  1.0041 -2.0156
10559TIP3    H231617   5.812   5.427   4.939  0.5326 -0.4345  0.1934
10560TIP3   OH231618   5.898   3.736   5.443 -0.4024 -0.0566  0.6915
10560TIP3    H131619   5.967   3.772   5.388  1.2378 -1.0644  2.0489
10560TIP3    H231620   5.920   3.643   5.452 -2.3845 -0.5835  0.5007
10561TIP3   OH231621   5.906   4.690   6.320 -0.3754 -0.3281 -0.0943
10561TIP3    H131622   5.980   4.650   6.275 -0.6441 -0.7556 -0.1666
10561TIP3    H231623   5.846   4.717   6.250 -0.4760 -0.3624 -0.0220
10562TIP3   OH231624   6.725   3.274   5.201  0.0019  0.0576  0.6376
10562TIP3    H131625   6.657   3.268   5.134  0.2411 -2.6717  0.5674
10562TIP3    H231626   6.680   3.311   5.277 -0.8971  0.7508 -0.2132
10563TIP3   OH231627   6.078   3.398   6.671  0.2837  0.3879 -0.3971
10563TIP3    H131628   5.999   3.438   6.708 -0.3279  0.6007 -1.9047
10563TIP3    H231629   6.148   3.460   6.691 -0.0385  0.5190  0.3521
10564TIP3   OH231630   8.205   7.087   0.971  0.0737  0.3463  0.7123
10564TIP3    H131631   8.162   7.106   1.055 -0.9360 -0.7516  0.4644
10564TIP3    H231632   8.290   7.051   0.995  0.5576  1.8272  1.2309
10565TIP3   OH231633   6.781   3.024   5.600  0.1689 -0.0120 -0.2527
10565TIP3    H131634   6.713   2.986   5.544  0.3166 -0.9462  0.1969
10565TIP3    H231635   6.763   3.118   5.599 -1.1872 -0.2598 -0.0677
10566TIP3   OH231636   7.995   7.525   0.366 -0.3754  0.1656  0.0809
10566TIP3    H131637   7.962   7.603   0.321 -0.6063  0.5745  0.9342
10566TIP3    H231638   8.045   7.560   0.440  1.3115 -0.4713 -0.7421
10567TIP3   OH231639   2.165   3.637   5.933  0.1615  0.3733  0.2196
10567TIP3    H131640   2.220   3.682   5.870  1.0198 -0.0810  0.6222
10567TIP3    H231641   2.178   3.685   6.015 -1.1635  1.1301 -0.0094
10568TIP3   OH231642   6.163   5.136   6.116  0.2107 -0.0006 -0.1206
10568TIP3    H131643   6.202   5.069   6.173  1.0097  1.9216  1.6791
10568TIP3    H231644   6.071   5.111   6.108  0.0317 -0.1943  2.2195
10569TIP3   OH231645   3.450   0.727   0.838 -0.0705  0.0282 -0.2623
10569TIP3    H131646   3.463   0.820   0.857  0.1535  0.0619 -0.5901
10569TIP3    H231647   3.536   0.687   0.853 -0.0685 -0.0626 -0.5126
10570TIP3   OH231648   7.007   1.406   5.946 -0.1040 -0.3047 -0.2810
10570TIP3    H131649   7.052   1.348   6.008  2.8212  0.9139 -1.2063
10570TIP3    H231650   6.988   1.485   5.997 -1.8969 -1.0822  0.3009
10571TIP3   OH231651   6.342   1.903   5.699 -0.4030 -0.4360 -0.2186
10571TIP3    H131652   6.318   1.812   5.713 -2.8037  0.2456  0.3024
10571TIP3    H231653   6.348   1.941   5.787  1.0823 -0.1971 -0.4068
10572TIP3   OH231654   0.862   6.150   0.988  0.2050 -0.0811 -0.1379
10572TIP3    H131655   0.902   6.063   0.985 -0.5105 -0.3724 -1.7992
10572TIP3    H231656   0.775   6.136   1.024  0.3257  0.0419  0.2017
10573TIP3   OH231657   6.719   3.800   6.216  0.1951  0.0830 -0.5397
10573TIP3    H131658   6.673   3.780   6.297  0.5384  0.3940 -0.2651
10573TIP3    H231659   6.696   3.729   6.157  2.6205 -2.0146  0.9114
10574TIP3   OH231660   7.015   7.006   1.869 -0.4228  0.2317  0.3515
10574TIP3    H131661   6.940   7.023   1.813 -0.3542  0.6051  0.3731
10574TIP3    H231662   6.983   7.021   1.958 -0.4525 -0.0726  0.3922
10575TIP3   OH231663   5.681   1.531   5.079  0.0224  0.3511 -0.1562
10575TIP3    H131664   5.769   1.566   5.065  0.3123 -0.8240 -1.3226
10575TIP3    H231665   5.663   1.480   5.000 -0.8652 -1.1547  1.0135
10576TIP3   OH231666   7.881   6.583   0.093  0.2329 -0.4085  0.6055
10576TIP3    H131667   7.798   6.564   0.137 -1.1981  1.7595 -1.0187
10576TIP3    H231668   7.911   6.664   0.134 -0.5416  1.0190 -1.5475
10577TIP3   OH231669   7.366   6.321   0.441  0.2259 -0.5513 -0.8620
10577TIP3    H131670   7.405   6.254   0.497  1.3143  1.6669  1.1381
10577TIP3    H231671   7.432   6.338   0.374  1.6746  1.2754  0.9515
10578TIP3   OH231672   5.535   3.348   5.559 -0.1950 -0.3523  0.1848
10578TIP3    H131673   5.541   3.272   5.617  0.5016  0.1900  0.8167
10578TIP3    H231674   5.577   3.419   5.607 -1.3233  0.5724 -0.1870
10579TIP3   OH231675   8.084   6.131   2.808  0.1326 -0.0620 -0.2974
10579TIP3    H131676   8.014   6.185   2.846  1.2482  0.9499  0.3697
10579TIP3    H231677   8.038   6.068   2.752 -1.3188  0.4841  0.2495
10580TIP3   OH231678   4.753   2.114   6.427 -0.2668 -0.2524 -0.4124
10580TIP3    H131679   4.686   2.120   6.495  0.2009 -1.3360  0.1621
10580TIP3    H231680   4.764   2.204   6.396 -0.1247  0.3282  1.2961
10581TIP3   OH231681   5.251   3.255   4.688 -0.0923  0.1714  0.5761
10581TIP3    H131682   5.235   3.275   4.596  0.3658  0.3350  0.5304
10581TIP3    H231683   5.256   3.341   4.731 -1.1064  0.0817  0.8969
10582TIP3   OH231684   0.591   6.489   0.689  0.2609  0.0277 -0.0863
10582TIP3    H131685   0.602   6.412   0.745  1.5424 -0.8649 -1.5484
10582TIP3    H231686   0.653   6.553   0.723  0.8188 -0.4056 -0.2781
10583TIP3   OH231687   5.859   5.335   5.454 -0.1273 -0.4976 -0.2553
10583TIP3    H131688   5.908   5.413   5.426  0.3677 -0.2159  1.2853
10583TIP3    H231689   5.831   5.293   5.373  0.2915  0.8583 -1.1232
10584TIP3   OH231690   1.367   6.374   0.016 -0.0132  0.1235 -0.2189
10584TIP3    H131691   1.327   6.367   0.102  0.1328  0.1513 -0.1480
10584TIP3    H231692   1.461   6.360   0.032 -0.1908 -1.6508 -0.6117
10585TIP3   OH231693   6.015   5.289   5.190  0.0336  0.0894  0.4409
10585TIP3    H131694   6.018   5.248   5.104  0.1525 -1.4319  1.1439
10585TIP3    H231695   6.102   5.272   5.227 -0.9346 -1.7763  1.9635
10586TIP3   OH231696   4.522   1.634   2.111  0.1795 -0.7113  0.2699
10586TIP3    H131697   4.611   1.615   2.081  0.5349  1.1702  0.0778
10586TIP3    H231698   4.529   1.633   2.207  0.9237  1.6206  0.2672
10587TIP3   OH231699   7.767   6.632   0.488 -0.7737 -0.3956 -0.2099
10587TIP3    H131700   7.701   6.658   0.553 -1.4881 -2.4864 -0.0737
10587TIP3    H231701   7.733   6.664   0.405 -0.6326  0.8951  0.2195
10588TIP3   OH231702   6.578   7.652   0.133  0.2149  0.1637  0.1453
10588TIP3    H131703   6.609   7.599   0.207  1.1053  1.0303  0.4035
10588TIP3    H231704   6.521   7.593   0.085  1.2534 -1.0827  0.3826
10589TIP3   OH231705   1.503   1.341   1.191  0.3221  0.4357 -0.4214
10589TIP3    H131706   1.506   1.436   1.204 -0.2432  0.6105 -1.5398
10589TIP3    H231707   1.421   1.326   1.144  0.3390 -0.6263 -0.1039
10590TIP3   OH231708   4.778   0.941   5.974  0.0307  0.1478 -0.1934
10590TIP3    H131709   4.825   0.865   5.942 -0.9201  0.3352 -2.0977
10590TIP3    H231710   4.746   0.985   5.895  0.1463  2.2491  0.8829
10591TIP3   OH231711   8.115   7.399   1.745  0.3580 -0.3350  0.5672
10591TIP3    H131712   8.175   7.335   1.783  1.6651 -0.0991 -1.0345
10591TIP3    H231713   8.150   7.484   1.771  1.0614 -0.1804 -0.8170
10592TIP3   OH231714   4.698   3.587   5.845  0.0861 -0.1205  0.6597
10592TIP3    H131715   4.696   3.679   5.874  0.4029  0.3704 -0.8597
10592TIP3    H231716   4.649   3.540   5.913  0.3905  1.0863  1.7374
10593TIP3   OH231717   8.449   0.204   0.379  0.2274  0.1086  0.4077
10593TIP3    H131718   8.469   0.112   0.362 -0.4016 -0.0885  0.7313
10593TIP3    H231719   8.476   0.218   0.470  1.1773  0.4868  0.0719
10594TIP3   OH231720   8.263   6.717   0.651 -0.8005 -0.2593  0.5055
10594TIP3    H131721   8.186   6.677   0.611  0.5743 -1.4974 -1.0007
10594TIP3    H231722   8.277   6.668   0.732  0.0745 -1.9980 -0.6647
10595TIP3   OH231723   7.144   2.977   4.484  0.1806 -0.1193  0.2951
10595TIP3    H131724   7.116   3.067   4.500  0.6140 -0.0009  0.3962
10595TIP3    H231725   7.073   2.939   4.432  0.2441  0.4466 -0.2159
10596TIP3   OH231726   6.442   7.959   1.512 -0.4066 -0.0280 -0.1713
10596TIP3    H131727   6.458   8.042   1.558 -1.4947 -0.5712  1.2106
10596TIP3    H231728   6.352   7.966   1.482 -0.1215 -0.2385 -1.0943
10597TIP3   OH231729   7.673   5.211   0.398  0.1978  0.0342  0.8705
10597TIP3    H131730   7.713   5.282   0.448 -0.3535  0.6902  0.3991
10597TIP3    H231731   7.639   5.151   0.464 -0.3415  0.7882  1.2840
10598TIP3   OH231732   4.938   3.299   6.030  0.2865  0.0298 -0.5509
10598TIP3    H131733   4.892   3.308   5.947  0.3486 -0.7703 -0.6746
10598TIP3    H231734   4.939   3.388   6.067 -0.6805  0.1925 -0.9046
10599TIP3   OH231735   3.996   0.258   6.024 -0.4275  0.3982 -0.0591
10599TIP3    H131736   4.037   0.236   6.108  0.2204  0.7906 -0.2681
10599TIP3    H231737   3.927   0.321   6.047  0.9289  1.9088 -0.0075
10600TIP3   OH231738   3.794   1.873   4.911 -0.3025 -0.5772 -0.1926
10600TIP3    H131739   3.881   1.856   4.947 -0.2377  0.4886  0.1574
10600TIP3    H231740   3.748   1.789   4.921  0.5181 -1.0033  0.0765
10601TIP3   OH231741   6.629   3.780   0.968  0.4696 -0.0832  0.0333
10601TIP3    H131742   6.548   3.823   0.993 -0.9526 -2.3775 -0.4601
10601TIP3    H231743   6.664   3.833   0.896 -0.7560  0.7316  0.0234
10602TIP3   OH231744   4.294   1.272   6.723  0.1624  0.3304 -0.5880
10602TIP3    H131745   4.385   1.268   6.693  0.1136  1.9796 -1.0420
10602TIP3    H231746   4.259   1.351   6.681 -0.8389  0.8980  1.2576
10603TIP3   OH231747   0.056   6.773   0.422 -0.1812 -0.3033  0.4802
10603TIP3    H131748   0.083   6.734   0.339 -3.4151  0.9991 -1.2844
10603TIP3    H231749   0.062   6.702   0.485  1.3922 -1.5728 -1.0460
10604TIP3   OH231750   4.978   2.665   5.884 -0.0395  0.3538 -0.0570
10604TIP3    H131751   4.919   2.731   5.848 -1.5651 -1.3954 -0.8296
10604TIP3    H231752   5.062   2.711   5.895 -0.4782  1.8534 -2.5593
10605TIP3   OH231753   2.534   3.074   6.581  0.3860 -0.0403  0.1055
10605TIP3    H131754   2.508   3.162   6.611 -1.3979 -0.3866 -0.3902
10605TIP3    H231755   2.555   3.086   6.489 -1.6320 -0.4531 -0.4409
10606TIP3   OH231756   6.667   2.461   5.243  0.3365  0.3325  0.3447
10606TIP3    H131757   6.718   2.512   5.180  0.2910  1.3249  1.0940
10606TIP3    H231758   6.683   2.370   5.220 -0.6013  0.7003 -1.8314
10607TIP3   OH231759   6.142   7.731   0.186  0.3237 -0.2676 -0.3433
10607TIP3    H131760   6.130   7.776   0.103 -1.6037 -2.2637 -1.1989
10607TIP3    H231761   6.095   7.648   0.175 -0.4096 -0.3388  2.9291
10608TIP3   OH231762   4.657   4.906   6.374 -0.7712  0.2528 -0.2719
10608TIP3    H131763   4.612   4.839   6.426  0.7030 -0.3480  0.2594
10608TIP3    H231764   4.640   4.988   6.420  0.4321 -0.2613  1.1074
10609TIP3   OH231765   1.277   0.302   0.740 -0.1095 -0.2125  0.3960
10609TIP3    H131766   1.276   0.214   0.779 -0.0823 -0.5425 -0.3388
10609TIP3    H231767   1.187   0.317   0.711  0.0319 -0.2606 -0.0642
10610TIP3   OH231768   1.628   0.363   2.168  0.0899 -0.4698 -0.4556
10610TIP3    H131769   1.611   0.336   2.258  1.1520  1.4378  0.3495
10610TIP3    H231770   1.542   0.375   2.129 -0.3915  1.0486  1.0403
10611TIP3   OH231771   5.483   2.292   6.181  0.0691 -0.2583  0.6619
10611TIP3    H131772   5.450   2.298   6.092  0.5833  0.3411  0.5066
10611TIP3    H231773   5.479   2.198   6.202 -0.4789 -0.3440  0.1775
10612TIP3   OH231774   0.238   4.736   3.909  0.0691 -0.0691  0.9081
10612TIP3    H131775   0.242   4.755   3.815 -1.3434 -0.1989  0.8237
10612TIP3    H231776   0.257   4.642   3.916  2.0401  0.2902  0.9287
10613TIP3   OH231777   1.295   0.597   1.264  0.0194  0.6973 -0.1318
10613TIP3    H131778   1.254   0.568   1.346  1.4700  0.3116  0.4638
10613TIP3    H231779   1.300   0.517   1.211  1.4001  0.4243  0.3971
10614TIP3   OH231780   2.360   7.704   0.194 -0.2397 -0.2601 -0.0629
10614TIP3    H131781   2.337   7.782   0.142 -1.6205 -0.8328 -0.3517
10614TIP3    H231782   2.281   7.650   0.191 -0.2476 -0.4238  2.4256
10615TIP3   OH231783   8.317   3.566   6.906  0.2018  0.1026 -0.2767
10615TIP3    H131784   8.331   3.614   6.988  2.7178  1.3781 -1.3984
10615TIP3    H231785   8.385   3.599   6.847  0.8179 -3.4464 -1.7124
10616TIP3   OH231786   2.546   7.441   0.245 -0.3859  0.1496  0.0879
10616TIP3    H131787   2.505   7.396   0.171 -0.7539 -1.3057  1.1614
10616TIP3    H231788   2.539   7.534   0.223 -1.3697 -0.2201 -1.2423
10617TIP3   OH231789   7.400   2.219   6.072  0.1400  0.0716 -0.6619
10617TIP3    H131790   7.403   2.245   6.164 -1.0231  0.2892 -0.6764
10617TIP3    H231791   7.388   2.124   6.075  0.9957 -0.0382 -0.5976
10618TIP3   OH231792   6.557   2.988   5.417 -0.2774 -0.3253 -0.1202
10618TIP3    H131793   6.566   3.016   5.326  1.2940 -1.5294 -0.3560
10618TIP3    H231794   6.507   2.907   5.413 -0.4041 -0.2612  0.1147
10619TIP3   OH231795   5.517   3.930   4.732 -0.3639 -0.3075 -0.5741
10619TIP3    H131796   5.425   3.937   4.758 -1.0261  0.1740 -2.8937
10619TIP3    H231797   5.558   4.008   4.769 -1.4405  0.7775 -1.6449
10620TIP3   OH231798   5.552   3.570   5.322 -0.2964 -0.0248 -0.3341
10620TIP3    H131799   5.571   3.603   5.409  1.2866 -0.1856 -0.6165
10620TIP3    H231800   5.473   3.618   5.295 -1.2236 -0.5213  1.4623
10621TIP3   OH231801   6.629   5.772   4.954 -0.6304  0.0327  0.6101
10621TIP3    H131802   6.657   5.706   4.890 -0.8587 -1.1428  1.7114
10621TIP3    H231803   6.708   5.796   5.001 -0.6035  0.3312  0.4166
10622TIP3   OH231804   6.938   5.045   4.694 -0.3591 -0.2406 -0.1738
10622TIP3    H131805   6.986   4.981   4.747 -2.4480  1.6369  4.3003
10622TIP3    H231806   6.846   5.026   4.712 -1.0804  1.5770 -1.8153
10623TIP3   OH231807   7.553   2.518   6.786 -0.3426  0.2407 -0.0539
10623TIP3    H131808   7.636   2.516   6.739 -0.6585 -1.0025 -0.5952
10623TIP3    H231809   7.504   2.590   6.746  0.8022  1.5713  0.8808
10624TIP3   OH231810   7.812   2.240   5.988  0.1075  0.1634 -0.5534
10624TIP3    H131811   7.856   2.155   5.987  0.8453  0.5302 -0.0877
10624TIP3    H231812   7.846   2.283   6.067 -0.6162  0.7009 -0.5354
10625TIP3   OH231813   7.524   0.358   4.418  0.1805 -0.7617  0.4963
10625TIP3    H131814   7.520   0.318   4.332 -1.4593  1.1734 -0.3703
10625TIP3    H231815   7.439   0.340   4.458  0.6426 -0.9803  1.4148
10626TIP3   OH231816   8.075   5.027   3.745 -0.8424 -0.5900  0.0198
10626TIP3    H131817   8.032   4.943   3.763  1.5141 -1.5560  1.3499
10626TIP3    H231818   8.074   5.073   3.829  0.3468 -0.4525 -0.0393
10627TIP3   OH231819   7.073   1.795   5.965 -0.3556 -0.1125 -0.6672
10627TIP3    H131820   7.030   1.746   6.035 -0.4774  0.0826 -0.6054
10627TIP3    H231821   7.133   1.732   5.924  1.1193  0.2810  0.8212
10628TIP3   OH231822   1.537   0.333   1.115 -0.0495  0.5549 -0.2647
10628TIP3    H131823   1.556   0.262   1.176  2.1549  0.6451 -0.8014
10628TIP3    H231824   1.448   0.315   1.084 -0.4643 -0.5640  1.4809
10629TIP3   OH231825   1.893   7.485   1.098 -0.1676  0.5155 -0.6188
10629TIP3    H131826   1.801   7.489   1.072 -0.1861 -0.7019 -0.7587
10629TIP3    H231827   1.916   7.392   1.093  0.7849  0.6830  0.3997
10630TIP3   OH231828   4.327   0.546   1.690 -0.0326  0.3149 -0.4682
10630TIP3    H131829   4.299   0.549   1.598 -1.4440 -1.4615 -0.1055
10630TIP3    H231830   4.250   0.518   1.738  1.4857 -1.5253  0.9444
10631TIP3   OH231831   7.845   4.313   5.880  0.4750 -0.1709  0.8322
10631TIP3    H131832   7.800   4.343   5.959  0.6508  1.3019  0.3894
10631TIP3    H231833   7.912   4.379   5.864  0.4351 -0.4448 -0.5387
10632TIP3   OH231834   7.332   5.147   5.628  0.3443 -0.0576  0.2475
10632TIP3    H131835   7.263   5.130   5.692  0.0423  3.2310  0.8513
10632TIP3    H231836   7.285   5.173   5.549  0.8539 -0.0844 -0.0682
10633TIP3   OH231837   7.533   2.089   4.717 -0.6425  0.6266  0.3848
10633TIP3    H131838   7.505   2.180   4.714  0.1440  0.8802  0.6418
10633TIP3    H231839   7.539   2.069   4.811 -1.7682  0.0115  0.3351
10634TIP3   OH231840   6.969   7.222   2.374 -0.0669  0.5295  0.0772
10634TIP3    H131841   7.035   7.163   2.409 -2.2212 -0.9216  1.8001
10634TIP3    H231842   6.980   7.303   2.424  0.1233  0.1522  0.6511
10635TIP3   OH231843   5.407   5.096   6.095  0.3223 -0.0645  0.2641
10635TIP3    H131844   5.405   5.049   6.179  1.4296  0.0077  0.3424
10635TIP3    H231845   5.320   5.135   6.087 -0.6024 -2.1211  0.1938
10636TIP3   OH231846   7.398   4.360   5.428 -0.6041  0.3265  0.7891
10636TIP3    H131847   7.372   4.333   5.340  0.3704  1.6737  0.0607
10636TIP3    H231848   7.393   4.280   5.480 -0.9326 -0.5509 -0.5553
10637TIP3   OH231849   6.808   4.277   4.237 -0.0889 -0.0272  0.0747
10637TIP3    H131850   6.858   4.286   4.318  1.2232 -1.6743 -0.5186
10637TIP3    H231851   6.837   4.351   4.183  1.7036 -0.9306 -0.2407
10638TIP3   OH231852   7.443   2.925   6.493  0.4656  0.1496  0.2129
10638TIP3    H131853   7.374   2.860   6.509 -1.1438  1.5603 -0.9065
10638TIP3    H231854   7.450   2.974   6.575 -1.3513  1.3668 -0.3302
10639TIP3   OH231855   6.428   0.514   6.577 -0.6777  0.9546 -0.0306
10639TIP3    H131856   6.350   0.538   6.626 -0.0609 -1.6646  2.3630
10639TIP3    H231857   6.470   0.445   6.629  1.0797 -0.5671 -3.2509
10640TIP3   OH231858   6.905   5.188   5.008 -0.2804 -0.4584  0.3038
10640TIP3    H131859   6.820   5.156   4.977 -0.0315  0.0603 -0.9467
10640TIP3    H231860   6.964   5.114   4.996 -0.5310 -0.7895  1.0886
10641TIP3   OH231861   6.829   2.369   4.627  0.1585  0.1847  0.3619
10641TIP3    H131862   6.923   2.352   4.629  0.3931  0.9987 -2.0916
10641TIP3    H231863   6.793   2.300   4.571 -0.3595  1.2301 -0.6334
10642TIP3   OH231864   6.618   3.800   5.803 -1.0782  0.1822  0.2847
10642TIP3    H131865   6.629   3.761   5.890 -0.5358 -0.5243 -0.1002
10642TIP3    H231866   6.525   3.821   5.798 -1.2468 -0.4329  0.7620
10643TIP3   OH231867   0.405   6.862   0.751 -0.0156 -0.0371  0.0847
10643TIP3    H131868   0.497   6.839   0.764 -0.1975 -1.1282 -0.5323
10643TIP3    H231869   0.406   6.958   0.744  0.8231  0.1136  2.0248
10644TIP3   OH231870   5.482   0.700   4.970  0.0082 -0.1421 -0.0972
10644TIP3    H131871   5.567   0.741   4.987 -0.3414  0.7081 -0.3720
10644TIP3    H231872   5.481   0.687   4.875 -0.2617  0.0642 -0.1239
10645TIP3   OH231873   7.315   3.070   6.168 -0.0466  0.2844  0.2071
10645TIP3    H131874   7.348   2.986   6.200  0.9470  0.9772  1.0222
10645TIP3    H231875   7.358   3.081   6.083  0.3884  0.3070  0.4271
10646TIP3   OH231876   7.507   1.501   6.244 -0.5903 -0.1270 -0.5736
10646TIP3    H131877   7.454   1.433   6.202  2.2369 -2.3034 -0.7648
10646TIP3    H231878   7.586   1.506   6.190  0.5335  1.1918  1.1418
10647TIP3   OH231879   3.838   1.977   3.061 -0.8299  0.2522 -0.4401
10647TIP3    H131880   3.785   1.897   3.071  0.5419 -0.7065 -0.6956
10647TIP3    H231881   3.903   1.971   3.131 -0.1750  0.6918 -1.0007
10648TIP3   OH231882   6.094   0.408   5.587 -0.2305  0.6667 -0.1431
10648TIP3    H131883   6.090   0.399   5.682  1.9669 -0.6647 -0.1524
10648TIP3    H231884   6.152   0.483   5.573  1.3830 -0.6426 -0.4725
10649TIP3   OH231885   6.160   3.013   4.056  0.1326 -0.2590 -0.7076
10649TIP3    H131886   6.086   2.988   4.111  1.1060 -0.6430  0.4784
10649TIP3    H231887   6.235   3.012   4.116  1.0993  0.0695 -1.8869
10650TIP3   OH231888   7.585   4.114   5.079 -0.4118  0.5186 -0.1543
10650TIP3    H131889   7.629   4.063   5.147 -0.8957  1.0403  0.5515
10650TIP3    H231890   7.649   4.119   5.008 -0.6153 -1.7054 -0.5331
10651TIP3   OH231891   7.592   5.329   5.320 -0.4279 -0.2851 -0.0072
10651TIP3    H131892   7.640   5.246   5.321 -1.3410 -0.8602  2.6039
10651TIP3    H231893   7.641   5.385   5.379 -0.1773  0.8234 -1.2606
10652TIP3   OH231894   5.489   2.184   1.413 -0.3340 -0.1617 -0.5129
10652TIP3    H131895   5.515   2.200   1.504 -0.2535 -0.1927 -0.5310
10652TIP3    H231896   5.437   2.262   1.390 -2.2898 -1.1827  0.3013
10653TIP3   OH231897   7.690   3.337   6.880  0.2827  0.2322 -0.0286
10653TIP3    H131898   7.604   3.355   6.842  0.1719 -0.0914  0.0739
10653TIP3    H231899   7.693   3.242   6.890 -0.3505  0.4337  2.3514
10654TIP3   OH231900   6.028   4.297   6.588  0.3900  0.1451  0.2178
10654TIP3    H131901   6.018   4.328   6.499 -2.0726  0.4557  0.5688
10654TIP3    H231902   5.949   4.327   6.633  1.8111  0.4087  2.6223
10655TIP3   OH231903   2.174   7.484   0.136  0.1810  0.1514 -0.1697
10655TIP3    H131904   2.179   7.397   0.175  0.3304  0.2724  0.0852
10655TIP3    H231905   2.105   7.477   0.069  0.2789 -0.1914 -0.2329
10656TIP3   OH231906   4.084   5.788   5.596 -0.1649  0.2303  0.1064
10656TIP3    H131907   4.113   5.856   5.657 -0.3234 -0.7780  1.3182
10656TIP3    H231908   4.140   5.799   5.519  1.1926  0.4094  1.1157
10657TIP3   OH231909   7.121   2.538   6.303 -0.1715 -0.5334 -0.1292
10657TIP3    H131910   7.104   2.467   6.241 -0.1435  0.8813 -1.8316
10657TIP3    H231911   7.211   2.564   6.284  0.0052 -0.4002  0.8646
10658TIP3   OH231912   8.193   2.494   5.117 -0.5526  0.9508  0.1590
10658TIP3    H131913   8.230   2.510   5.031 -1.2124  0.9372 -0.1286
10658TIP3    H231914   8.252   2.431   5.158  0.0435  1.3536 -0.0857
10659TIP3   OH231915   6.766   4.179   5.195 -0.3766 -0.1812  0.1694
10659TIP3    H131916   6.682   4.211   5.228  0.5415  0.7607  1.6773
10659TIP3    H231917   6.748   4.088   5.170 -1.3857 -0.6589  2.4146
10660TIP3   OH231918   3.382   0.126   0.048 -0.2138 -0.8563  0.5268
10660TIP3    H131919   3.383   0.208  -0.002 -1.3596 -0.7875  0.6021
10660TIP3    H231920   3.454   0.135   0.110  1.0268 -0.8084 -0.8836
10661TIP3   OH231921   3.963   0.890   0.848 -0.8662  0.1994  0.0453
10661TIP3    H131922   3.890   0.936   0.889 -1.1958  2.4892 -2.8601
10661TIP3    H231923   3.984   0.944   0.772  2.0158 -1.9361 -0.7443
10662TIP3   OH231924   0.896   2.956   6.888 -0.2951 -0.2946  0.4002
10662TIP3    H131925   0.803   2.977   6.880 -0.6870 -1.7670  0.8966
10662TIP3    H231926   0.900   2.890   6.958  1.1502 -0.0293  0.5890
10663TIP3   OH231927   7.368   4.030   6.036  0.0906  0.8290 -0.3326
10663TIP3    H131928   7.381   4.101   6.099  0.3599  0.4973 -0.0121
10663TIP3    H231929   7.282   4.046   5.999  0.1933  1.3907 -0.3427
10664TIP3   OH231930   0.646   4.780   6.287 -0.6025 -0.6616  0.3923
10664TIP3    H131931   0.564   4.826   6.273  0.0493  0.7943  1.2159
10664TIP3    H231932   0.707   4.848   6.316  0.2048 -2.1330  2.3027
10665TIP3   OH231933   5.536   4.417   5.596  0.7177 -0.3102 -0.5099
10665TIP3    H131934   5.453   4.371   5.579  1.4867 -1.9245 -0.0400
10665TIP3    H231935   5.550   4.408   5.690  1.8387 -0.8109 -0.7081
10666TIP3   OH231936   6.938   4.068   3.702 -0.0772  0.5619 -0.4184
10666TIP3    H131937   6.904   4.134   3.763  1.1478  1.0981 -0.3046
10666TIP3    H231938   6.860   4.027   3.665 -0.8344  0.3572  1.3702
10667TIP3   OH231939   3.699   3.046   4.730 -0.5089 -0.1508  0.0713
10667TIP3    H131940   3.651   3.117   4.773 -0.7364 -0.3194  0.1011
10667TIP3    H231941   3.640   2.971   4.736 -0.6653 -0.1007 -0.8040
10668TIP3   OH231942   8.369   1.930   4.504  0.7614  0.2940  0.8125
10668TIP3    H131943   8.331   1.978   4.431  2.2733  0.5369  0.1692
10668TIP3    H231944   8.337   1.975   4.582  0.4458  1.0263  0.2628
10669TIP3   OH231945   0.842   7.437   0.311  0.4550  0.3481  0.8338
10669TIP3    H131946   0.906   7.446   0.242  0.0470  2.0526  0.6547
10669TIP3    H231947   0.891   7.451   0.392  0.8945 -1.4575  0.8925
10670TIP3   OH231948   0.892   6.369   0.246  0.2415 -0.0451 -0.1938
10670TIP3    H131949   0.963   6.323   0.291  0.9419 -0.3242 -1.5565
10670TIP3    H231950   0.933   6.404   0.167 -0.9987  0.3173 -0.6802
10671TIP3   OH231951   7.297   3.896   6.581 -0.2029  0.2549 -0.5553
10671TIP3    H131952   7.226   3.915   6.642 -0.9000 -0.6777 -1.0573
10671TIP3    H231953   7.348   3.977   6.578 -0.5953  0.5610  0.6665
10672TIP3   OH231954   6.704   4.930   6.394  0.2631  0.4617 -0.1696
10672TIP3    H131955   6.747   4.854   6.354  0.9862  0.0383  1.4086
10672TIP3    H231956   6.664   4.975   6.320 -1.4400 -2.2473 -1.0058
10673TIP3   OH231957   7.485   2.657   5.980  0.1760  0.4888 -0.3700
10673TIP3    H131958   7.513   2.570   5.952 -0.2380  0.4528 -0.6721
10673TIP3    H231959   7.395   2.645   6.011  0.3053  0.7066  0.0923
10674TIP3   OH231960   8.281   2.037   6.431  0.0631 -0.1494 -0.6592
10674TIP3    H131961   8.228   2.042   6.511  1.4251 -0.5738  0.2851
10674TIP3    H231962   8.233   1.977   6.374 -0.5985 -0.3331  0.0865
10675TIP3   OH231963   5.711   3.324   6.886 -0.3987  0.0761  0.4585
10675TIP3    H131964   5.682   3.381   6.958 -1.5459 -0.3583  0.3466
10675TIP3    H231965   5.662   3.356   6.810  0.0540 -0.1185  0.0888
10676TIP3   OH231966   8.038   7.547   0.031 -0.5878 -0.1252 -0.5302
10676TIP3    H131967   8.082   7.630   0.050 -0.6628 -0.0141 -0.8536
10676TIP3    H231968   8.041   7.499   0.114 -1.3003  0.5499 -0.1148
10677TIP3   OH231969   6.697   3.618   4.776  0.8290 -0.0706  0.3367
10677TIP3    H131970   6.737   3.703   4.756  1.7478  0.2275  3.1479
10677TIP3    H231971   6.604   3.629   4.757  0.7929  1.8881  1.5181
10678TIP3   OH231972   7.677   3.089   5.083  0.0559  0.2737  0.0479
10678TIP3    H131973   7.727   3.074   5.163  0.1652  0.7038  0.0575
10678TIP3    H231974   7.585   3.091   5.112  0.0649 -0.0236  0.0984
10679TIP3   OH231975   6.814   5.336   3.905  0.2617 -0.3772 -0.0517
10679TIP3    H131976   6.787   5.404   3.967  2.7190  0.7455 -0.1494
10679TIP3    H231977   6.850   5.267   3.960  0.7679 -0.1757 -0.1324
10680TIP3   OH231978   1.561   7.830   1.600 -0.1800  0.0097  0.2094
10680TIP3    H131979   1.532   7.890   1.669 -0.5259 -0.8110  0.7846
10680TIP3    H231980   1.581   7.749   1.646 -1.1906 -0.8030 -0.7545
10681TIP3   OH231981   6.622   1.918   5.878 -0.2229  0.1807  0.4522
10681TIP3    H131982   6.610   1.880   5.791  1.7668  0.6797 -0.0638
10681TIP3    H231983   6.635   1.843   5.936 -1.1266 -0.1355  0.2442
10682TIP3   OH231984   0.555   4.637   3.623  0.2550 -0.1382 -0.7224
10682TIP3    H131985   0.643   4.676   3.627  1.2516 -2.2399 -1.2481
10682TIP3    H231986   0.553   4.591   3.539 -1.1667 -0.5557 -0.4739
10683TIP3   OH231987   7.812   2.520   6.644 -0.1630  0.3026 -0.1623
10683TIP3    H131988   7.845   2.542   6.557 -0.1141  0.3532 -0.1302
10683TIP3    H231989   7.884   2.539   6.704  0.9442 -2.6817 -0.4390
10684TIP3   OH231990   3.234   7.896   0.543  1.0786 -0.1859  0.2672
10684TIP3    H131991   3.162   7.890   0.480  0.5628 -0.5205  0.8754
10684TIP3    H231992   3.280   7.976   0.519 -1.1999  1.6091  1.6051
10685TIP3   OH231993   4.571   0.279   1.194 -0.2281 -0.6364 -0.5576
10685TIP3    H131994   4.605   0.195   1.225 -0.2108 -0.2956  0.3635
10685TIP3    H231995   4.634   0.309   1.129  0.0573 -1.0765 -0.4806
10686TIP3   OH231996   6.532   3.338   5.023  0.4627 -0.2450  0.6113
10686TIP3    H131997   6.502   3.252   4.994  0.6642  0.2221 -1.0084
10686TIP3    H231998   6.457   3.395   5.014  0.5813 -0.0495  0.8415
10687TIP3   OH231999   1.577   5.307   0.876 -0.0530 -0.0369 -0.0737
10687TIP3    H132000   1.643   5.359   0.830  0.8150 -1.8025 -0.8910
10687TIP3    H232001   1.626   5.264   0.946 -0.3180 -1.3753 -0.7018
10688TIP3   OH232002   8.323   7.927   1.508  0.0535  0.8644  0.4640
10688TIP3    H132003   8.351   8.013   1.538 -0.6518  0.9636  0.8310
10688TIP3    H232004   8.328   7.932   1.413  0.6814  1.0817  0.5035
10689TIP3   OH232005   6.833   2.208   5.145 -0.5520  0.3825 -0.0392
10689TIP3    H132006   6.889   2.146   5.191 -1.4141 -1.1015 -0.9402
10689TIP3    H232007   6.894   2.270   5.104  0.3577 -0.2476  0.3480
10690TIP3   OH232008   5.253   1.025   0.132  0.0938  0.2664 -0.0280
10690TIP3    H132009   5.322   0.962   0.110  0.2098  0.5030 -0.3512
10690TIP3    H232010   5.281   1.064   0.214 -0.5634 -0.9492  0.8064
10691TIP3   OH232011   3.774   0.177   0.264  0.2680  0.4117 -0.1668
10691TIP3    H132012   3.702   0.235   0.289 -0.2295 -0.3889  0.2914
10691TIP3    H232013   3.733   0.091   0.254  0.9983  0.1298 -0.8346
10692TIP3   OH232014   5.655   3.236   4.285  0.0309 -0.7572  0.8576
10692TIP3    H132015   5.606   3.225   4.367  0.3790 -1.3291  0.9901
10692TIP3    H232016   5.746   3.245   4.312 -0.0780  1.0497  0.6556
10693TIP3   OH232017   6.546   2.424   4.165 -0.5839 -0.8626 -0.3275
10693TIP3    H132018   6.510   2.409   4.078  1.0069  0.9977 -1.3512
10693TIP3    H232019   6.498   2.500   4.198  1.8859  1.2728 -1.4673
10694TIP3   OH232020   7.994   7.497   0.815  0.6017  0.1515 -0.3448
10694TIP3    H132021   8.061   7.428   0.822 -0.3540 -0.6265  1.4136
10694TIP3    H232022   7.917   7.452   0.782 -0.1546  0.2800  1.2144
10695TIP3   OH232023   7.805   1.692   4.323 -0.3711 -0.3462 -0.1774
10695TIP3    H132024   7.855   1.662   4.399 -0.6788  1.7717  0.9050
10695TIP3    H232025   7.730   1.738   4.360  0.1047  1.7572 -1.7506
10696TIP3   OH232026   6.649   2.444   6.624  0.1521  0.1502  0.5227
10696TIP3    H132027   6.731   2.394   6.626  0.2098  0.2539  0.8658
10696TIP3    H232028   6.648   2.486   6.538  0.6928  0.5326  0.6965
10697TIP3   OH232029   6.969   0.850   6.669 -0.1442 -0.5865  0.1197
10697TIP3    H132030   6.970   0.825   6.761 -1.0813  0.8366  0.5343
10697TIP3    H232031   7.050   0.899   6.657 -0.6280  0.3398  0.5296
10698TIP3   OH232032   0.277   7.601   1.291 -0.1145 -0.5390 -0.3792
10698TIP3    H132033   0.343   7.637   1.232 -0.0567 -0.5356 -0.3114
10698TIP3    H232034   0.217   7.553   1.233 -0.4688  0.0731 -0.5312
10699TIP3   OH232035   6.937   2.941   5.864 -0.4560 -0.1625  0.6075
10699TIP3    H132036   7.014   2.916   5.814 -0.6757  2.4015 -1.1664
10699TIP3    H232037   6.863   2.918   5.808 -0.7811  0.9830  0.5328
10700TIP3   OH232038   6.948   2.800   5.144 -0.2221  0.1127 -1.0716
10700TIP3    H132039   7.002   2.721   5.132 -0.2402  0.0802 -0.9412
10700TIP3    H232040   6.859   2.769   5.131 -0.3476 -0.1968  0.4120
10701TIP3   OH232041   3.206   6.570   0.086  0.2095 -0.2127 -0.3436
10701TIP3    H132042   3.281   6.572   0.146  0.6992  1.7009 -0.9901
10701TIP3    H232043   3.230   6.631   0.016 -1.8271  0.1570 -0.7391
10702TIP3   OH232044   0.191   7.442   1.074 -0.0070  0.2159 -0.4836
10702TIP3    H132045   0.132   7.370   1.098  1.5818 -0.2367  2.2684
10702TIP3    H232046   0.253   7.403   1.013 -1.2318  0.1832 -1.7596
10703TIP3   OH232047   5.265   4.931   4.524  0.0218  0.0385 -0.0678
10703TIP3    H132048   5.273   4.849   4.475 -0.1582  0.4390 -0.7533
10703TIP3    H232049   5.214   4.907   4.602 -0.6593 -0.3365 -0.6276
10704TIP3   OH232050   4.610   1.288   1.452  0.5287 -0.1933 -0.0116
10704TIP3    H132051   4.590   1.246   1.536 -0.8185 -2.7771 -1.5632
10704TIP3    H232052   4.689   1.243   1.422  0.0301 -0.4901 -0.9028
10705TIP3   OH232053   7.955   2.023   5.248 -0.9842 -0.1630  0.3166
10705TIP3    H132054   8.013   2.094   5.274 -2.5360  0.9968  0.6734
10705TIP3    H232055   7.897   2.010   5.323 -1.5592 -0.9173 -0.2499
10706TIP3   OH232056   0.798   2.032   4.946  0.7010  0.2946 -0.4406
10706TIP3    H132057   0.816   1.986   4.864  0.4050 -1.7943  0.6336
10706TIP3    H232058   0.885   2.059   4.977  1.1528 -1.7605  0.1586
10707TIP3   OH232059   6.290   5.879   6.282  0.1210 -0.0279  0.3592
10707TIP3    H132060   6.373   5.863   6.237  0.0219 -0.3729  0.2970
10707TIP3    H232061   6.292   5.820   6.358 -0.1133 -0.1103  0.2999
10708TIP3   OH232062   6.316   2.395   3.678  0.0713  0.0584 -0.1725
10708TIP3    H132063   6.251   2.451   3.720  0.9385  1.0332 -0.1085
10708TIP3    H232064   6.298   2.307   3.712 -0.3975  0.5293  0.8239
10709TIP3   OH232065   2.053   7.105   0.732  0.1765  0.1791  0.1012
10709TIP3    H132066   2.147   7.104   0.748  0.0235 -1.4949  1.0063
10709TIP3    H232067   2.023   7.189   0.766  0.9931 -0.2422  1.9138
10710TIP3   OH232068   6.066   4.507   5.503 -0.2618  0.7391 -0.8869
10710TIP3    H132069   6.089   4.511   5.410 -2.1780  2.8621 -1.3102
10710TIP3    H232070   5.978   4.468   5.505  0.1929 -0.2640  0.1213
10711TIP3   OH232071   6.928   1.407   3.800  0.0620  0.2947 -0.0805
10711TIP3    H132072   6.841   1.401   3.841  0.4428  1.1402  0.9060
10711TIP3    H232073   6.917   1.371   3.713 -1.0390 -0.5846  0.4157
10712TIP3   OH232074   8.040   4.032   5.188 -0.0457  0.4988  0.0060
10712TIP3    H132075   8.006   4.006   5.273 -0.8689  0.3134 -0.3801
10712TIP3    H232076   8.072   4.121   5.202 -0.6734  0.6697  0.3744
10713TIP3   OH232077   5.788   3.984   6.404  0.2170 -0.5133  0.4008
10713TIP3    H132078   5.794   4.064   6.457 -0.7168  0.0868 -0.3772
10713TIP3    H232079   5.699   3.985   6.369 -0.0339 -2.2572  0.9362
10714TIP3   OH232080   7.688   4.160   6.355  0.1064 -0.1560 -0.3096
10714TIP3    H132081   7.781   4.148   6.338  0.3446  1.1684  0.0293
10714TIP3    H232082   7.663   4.237   6.305 -1.5624 -2.3018 -2.9407
10715TIP3   OH232083   2.846   2.947   4.455 -0.0007  0.1021 -0.0799
10715TIP3    H132084   2.853   3.029   4.406 -0.5056  0.0959 -0.1583
10715TIP3    H232085   2.869   2.971   4.545 -1.3958  0.5841  0.1543
10716TIP3   OH232086   2.178   7.597   0.550 -0.1183 -0.7815  0.0334
10716TIP3    H132087   2.130   7.589   0.468  1.7502 -1.3886 -1.0415
10716TIP3    H232088   2.229   7.677   0.541  1.7229 -1.9656 -0.3048
10717TIP3   OH232089   6.614   2.930   6.740 -0.3341 -0.2035 -0.3122
10717TIP3    H132090   6.638   2.946   6.649 -2.4447 -1.3227 -1.0915
10717TIP3    H232091   6.522   2.957   6.746  0.1993  1.2648  1.8676
10718TIP3   OH232092   2.450   0.618   0.702 -0.4505 -0.4021 -0.1235
10718TIP3    H132093   2.409   0.704   0.699 -1.9402 -1.0813  0.6763
10718TIP3    H232094   2.419   0.579   0.783  0.2655 -1.6815 -0.4489
10719TIP3   OH232095   5.817   2.047   4.694  0.2915  0.5946  0.1675
10719TIP3    H132096   5.873   2.125   4.690  0.1165  0.7649  0.9107
10719TIP3    H232097   5.757   2.057   4.621  0.4973  0.9910  0.0513
10720TIP3   OH232098   6.315   5.706   6.504 -0.1377 -0.1951 -0.4917
10720TIP3    H132099   6.298   5.614   6.527 -1.5641 -0.4141 -2.2987
10720TIP3    H232100   6.249   5.755   6.554 -0.1619 -0.2577 -0.4613
10721TIP3   OH232101   7.427   2.753   5.317  0.4388  0.3023  0.2169
10721TIP3    H132102   7.419   2.696   5.240  1.8031  1.6977 -0.9930
10721TIP3    H232103   7.519   2.746   5.343  0.2501  0.7447  1.0192
10722TIP3   OH232104   7.364   3.549   5.222 -0.3176  0.3898  0.0449
10722TIP3    H132105   7.305   3.478   5.247 -1.6532  1.0691 -1.1017
10722TIP3    H232106   7.310   3.628   5.228  0.6187  1.0835 -0.5399
10723TIP3   OH232107   7.202   2.777   6.523 -0.7002 -0.1416 -0.3494
10723TIP3    H132108   7.118   2.741   6.550 -0.7991  0.2733 -0.0983
10723TIP3    H232109   7.186   2.815   6.437 -0.6785 -0.3965 -0.4659
10724TIP3   OH232110   5.789   2.243   5.176 -0.3728  0.1158 -0.1498
10724TIP3    H132111   5.786   2.212   5.085 -1.5543 -0.1232 -0.0367
10724TIP3    H232112   5.752   2.171   5.227  2.7072 -0.8547  0.8492
10725TIP3   OH232113   7.657   1.665   5.797 -0.6435  0.3348  0.0833
10725TIP3    H132114   7.608   1.669   5.714 -0.0065  0.5635 -0.2836
10725TIP3    H232115   7.625   1.585   5.839 -0.2707 -0.3008 -0.8321
10726TIP3   OH232116   7.518   3.328   5.448  0.3629 -0.1433 -0.4145
10726TIP3    H132117   7.490   3.291   5.364 -1.2190 -1.3613  0.6114
10726TIP3    H232118   7.436   3.358   5.489  1.0971  0.2562  0.7757
10727TIP3   OH232119   6.157   3.547   5.520  0.3471 -0.0399 -0.0351
10727TIP3    H132120   6.132   3.587   5.437  0.0813 -0.7811 -0.3162
10727TIP3    H232121   6.252   3.551   5.521  0.4834 -2.0050 -1.3919
10728TIP3   OH232122   8.065   3.324   5.843 -0.2983 -0.8988  0.2871
10728TIP3    H132123   8.086   3.342   5.935 -0.8252  0.4523  0.1491
10728TIP3    H232124   8.091   3.403   5.796  0.6030 -1.8418 -0.8433
10729TIP3   OH232125   1.114   6.233   0.348 -0.4591  0.0431  0.4831
10729TIP3    H132126   1.201   6.204   0.375 -0.8430 -2.8992 -1.1900
10729TIP3    H232127   1.124   6.255   0.256 -1.5364 -0.6717  0.1821
10730TIP3   OH232128   6.883   2.979   4.688 -0.5625 -0.4981 -0.0488
10730TIP3    H132129   6.918   2.969   4.776  0.2386 -1.2857 -0.4497
10730TIP3    H232130   6.826   3.055   4.693  0.2252  0.0298  0.9211
10731TIP3   OH232131   7.775   3.333   4.872  0.0043 -0.1521  0.1963
10731TIP3    H132132   7.698   3.280   4.853  1.2736 -1.9545 -0.0304
10731TIP3    H232133   7.827   3.279   4.932  0.3369  1.7130  1.6269
10732TIP3   OH232134   7.790   2.238   6.578  0.0677 -0.1999  0.0840
10732TIP3    H132135   7.694   2.236   6.570  0.2028  0.8554 -1.8922
10732TIP3    H232136   7.810   2.328   6.604  0.5332 -0.4714  0.6797
10733TIP3   OH232137   3.082   6.907   0.680  0.1389  0.6196  0.3828
10733TIP3    H132138   3.057   6.999   0.670  1.3895  1.0986  1.4443
10733TIP3    H232139   3.111   6.900   0.771  1.0101 -0.5820  0.0236
10734TIP3   OH232140   6.918   3.306   3.920  0.1258 -0.3512 -0.1365
10734TIP3    H132141   6.987   3.254   3.961  1.8259  1.6689 -0.3374
10734TIP3    H232142   6.939   3.303   3.826  0.8832  1.5470 -0.0502
10735TIP3   OH232143   8.069   5.904   1.396  1.0145  0.6373 -0.5615
10735TIP3    H132144   8.007   5.831   1.398  1.0091  0.6722  1.4310
10735TIP3    H232145   8.096   5.910   1.304  0.0413 -1.0390 -0.9782
10736TIP3   OH232146   2.311   0.655   0.437  0.1845 -0.3905  0.8934
10736TIP3    H132147   2.281   0.728   0.382  0.5442 -0.2698  0.8509
10736TIP3    H232148   2.306   0.688   0.526 -0.2974 -0.5493  0.9260
10737TIP3   OH232149   7.606   6.464   0.172  0.1014 -0.2688  0.0707
10737TIP3    H132150   7.574   6.462   0.082  1.8762  1.1663 -0.6313
10737TIP3    H232151   7.599   6.556   0.198 -0.5954 -0.7019  1.4904
10738TIP3   OH232152   7.734   2.502   4.072 -0.0549  0.1319 -0.4848
10738TIP3    H132153   7.759   2.530   4.160  0.4000 -0.8927 -0.2752
10738TIP3    H232154   7.730   2.582   4.021 -1.2424  0.8407  0.6995
10739TIP3   OH232155   3.489   0.047   1.254 -0.3222  0.7836 -0.0139
10739TIP3    H132156   3.490  -0.045   1.228 -0.5323  0.6283  0.5075
10739TIP3    H232157   3.560   0.087   1.204 -1.3275  0.7009 -1.5231
10740TIP3   OH232158   4.889   1.863   0.368 -0.5388 -0.1193 -0.0668
10740TIP3    H132159   4.817   1.831   0.315 -0.6955  0.0280  0.0566
10740TIP3    H232160   4.864   1.841   0.458  0.0679 -1.0407 -0.1166
10741TIP3   OH232161   7.201   0.569   4.255  0.2380 -0.3634  0.1528
10741TIP3    H132162   7.121   0.593   4.208  0.2325  0.5652  0.6264
10741TIP3    H232163   7.253   0.522   4.190  0.5885  1.6343 -1.0493
10742TIP3   OH232164   2.182   7.772   1.312  0.2352  0.0246  0.7037
10742TIP3    H132165   2.257   7.820   1.276  0.6799  0.2174  1.8663
10742TIP3    H232166   2.125   7.840   1.348 -0.8172 -0.0731 -0.7255
10743TIP3   OH232167   6.356   2.916   4.671 -0.1390 -0.1484  0.4717
10743TIP3    H132168   6.277   2.945   4.626 -0.8901 -0.4670  1.5496
10743TIP3    H232169   6.428   2.953   4.620 -0.9942  0.5960 -0.2180
10744TIP3   OH232170   2.657   0.136   0.082 -0.7448 -0.2030 -0.7424
10744TIP3    H132171   2.748   0.162   0.065 -0.6770  0.1562  0.1504
10744TIP3    H232172   2.663   0.069   0.150 -1.2094  0.6206  0.1339
10745TIP3   OH232173   4.462   2.642   4.944 -0.1549  0.8284  0.3296
10745TIP3    H132174   4.408   2.565   4.957  1.8842 -0.3977  1.7922
10745TIP3    H232175   4.419   2.711   4.994 -0.8754  0.1169  0.6914
10746TIP3   OH232176   6.385   4.377   5.924 -0.5809  0.3734  0.0917
10746TIP3    H132177   6.359   4.286   5.914  1.7907 -0.0950 -2.2448
10746TIP3    H232178   6.361   4.418   5.841 -0.2914  1.5679  0.5816
10747TIP3   OH232179   6.100   3.570   6.396 -0.0808 -0.3241  0.2886
10747TIP3    H132180   6.077   3.657   6.363 -0.4549 -0.4227  0.2942
10747TIP3    H232181   6.019   3.536   6.433  0.4209 -0.0679  1.6530
10748TIP3   OH232182   0.441   4.037   6.916  0.2385 -0.6048 -0.3087
10748TIP3    H132183   0.359   4.039   6.965 -0.3515  0.0554 -1.3071
10748TIP3    H232184   0.416   4.056   6.826  1.5364 -0.0300 -0.5629
10749TIP3   OH232185   4.254   1.493   2.537 -0.2097  0.0438  0.2497
10749TIP3    H132186   4.314   1.420   2.520  0.3049  0.5157  0.0278
10749TIP3    H232187   4.168   1.452   2.541  0.1483 -0.6789  0.8144
10750TIP3   OH232188   6.440   3.735   4.280 -0.0728 -0.3414  0.1817
10750TIP3    H132189   6.499   3.732   4.355 -0.7039  0.4506  0.7115
10750TIP3    H232190   6.363   3.685   4.308 -1.3968  2.1157  1.0201
10751TIP3   OH232191   7.694   3.646   6.584  0.1559 -0.1075  0.3644
10751TIP3    H132192   7.627   3.586   6.619  1.0888 -0.8494  0.8814
10751TIP3    H232193   7.671   3.655   6.492 -0.1240 -1.0940  0.3290
10752TIP3   OH232194   4.512   2.037   6.903  0.2686  0.6970 -0.2211
10752TIP3    H132195   4.417   2.045   6.893 -0.1776 -1.5963  1.6553
10752TIP3    H232196   4.530   2.074   6.990  0.4994 -2.2919  1.0897
10753TIP3   OH232197   2.528   7.637   1.520  0.4608 -0.2265 -0.0990
10753TIP3    H132198   2.557   7.545   1.516  0.6456 -0.1511 -0.5431
10753TIP3    H232199   2.591   7.679   1.578 -0.3734 -0.6534  1.1375
10754TIP3   OH232200   7.274   3.309   6.314 -0.8479  0.1201  0.0187
10754TIP3    H132201   7.181   3.331   6.319 -1.0819 -0.9610  0.4038
10754TIP3    H232202   7.276   3.219   6.284  0.1164  0.5450 -1.2475
10755TIP3   OH232203   0.176   7.657   0.107 -0.2157  0.0788 -0.1983
10755TIP3    H132204   0.114   7.622   0.171 -0.1517  1.3408  0.5836
10755TIP3    H232205   0.145   7.746   0.090  1.5154  0.8174  0.3868
10756TIP3   OH232206   3.667   7.552   0.623  0.0639  0.6509 -0.3422
10756TIP3    H132207   3.705   7.497   0.554  0.9153  1.2493 -0.3503
10756TIP3    H232208   3.722   7.536   0.700 -0.4121  0.5854 -0.0123
10757TIP3   OH232209   5.459   0.081   0.339  0.3687 -0.5134 -0.0805
10757TIP3    H132210   5.374   0.039   0.358 -0.0953 -0.0154 -1.0070
10757TIP3    H232211   5.468   0.072   0.244  1.1673 -0.1990 -0.0305
10758TIP3   OH232212   1.296   7.092   0.360 -0.6095 -0.6101 -0.3679
10758TIP3    H132213   1.380   7.110   0.403 -1.3706 -1.1493  1.4211
10758TIP3    H232214   1.317   7.030   0.291  0.8682  1.3456 -1.7318
10759TIP3   OH232215   0.523   8.005   0.380 -0.7792  0.7043 -0.2354
10759TIP3    H132216   0.497   7.918   0.349 -0.0792  0.7937 -1.0996
10759TIP3    H232217   0.477   8.066   0.323 -0.6056  0.8933 -0.1746
10760TIP3   OH232218   7.952   4.293   6.646 -0.1275  0.6465 -0.0200
10760TIP3    H132219   7.889   4.335   6.586 -0.4747  1.0339  0.6163
10760TIP3    H232220   7.983   4.216   6.597 -0.1629  1.1346 -0.8330
10761TIP3   OH232221   7.337   7.621   1.130 -0.6740 -0.5979 -0.4051
10761TIP3    H132222   7.298   7.541   1.094 -0.4417 -0.5656 -0.7302
10761TIP3    H232223   7.410   7.640   1.072 -0.6199 -0.2452 -0.2229
10762TIP3   OH232224   6.434   3.939   6.498 -0.6568  0.2576  0.2794
10762TIP3    H132225   6.392   4.025   6.505 -1.5764 -0.0690 -0.9715
10762TIP3    H232226   6.454   3.914   6.588 -0.0857  1.9283  0.6228
10763TIP3   OH232227   6.984   3.812   6.142 -0.1791  0.0997  0.0980
10763TIP3    H132228   7.003   3.905   6.141 -1.7587  0.4767  1.6221
10763TIP3    H232229   6.890   3.807   6.162 -0.4319 -1.7789 -1.3846
10764TIP3   OH232230   7.301   2.879   4.907  0.0608  0.5145 -0.1378
10764TIP3    H132231   7.258   2.899   4.990 -0.3021 -2.2453  0.3963
10764TIP3    H232232   7.393   2.901   4.921  0.0703 -0.3033  1.1427
10765TIP3   OH232233   4.290   1.390   0.796 -0.1911 -0.5303  0.5114
10765TIP3    H132234   4.378   1.395   0.835  0.6769 -0.0864 -1.4231
10765TIP3    H232235   4.296   1.445   0.718 -1.7750 -1.6381 -0.4175
10766TIP3   OH232236   2.502   6.946   2.935 -0.1951 -0.4050  0.2353
10766TIP3    H132237   2.575   7.009   2.936  0.6607 -1.3705 -0.5607
10766TIP3    H232238   2.537   6.870   2.889 -2.0277 -0.5037 -1.0330
10767TIP3   OH232239   2.229   6.645   2.839 -0.4265  0.1927 -0.0117
10767TIP3    H132240   2.196   6.589   2.768 -0.4043  0.1181  0.0359
10767TIP3    H232241   2.157   6.705   2.857 -0.6070 -0.0858  0.2147
10768TIP3   OH232242   6.438   0.722   5.992 -0.9858 -0.5284 -0.4450
10768TIP3    H132243   6.417   0.746   6.082 -0.0983  1.1168 -0.6701
10768TIP3    H232244   6.385   0.781   5.939 -1.3897 -1.3920 -1.0104
10769TIP3   OH232245   5.424   3.711   4.593  0.2517  0.2389  0.4442
10769TIP3    H132246   5.378   3.687   4.673 -0.8960  1.9729  0.3359
10769TIP3    H232247   5.466   3.795   4.613  0.8703  0.1422 -0.4081
10770TIP3   OH232248   6.654   3.801   5.311 -0.9928  0.0599 -0.0203
10770TIP3    H132249   6.729   3.803   5.253 -0.3803  0.4344  0.7731
10770TIP3    H232250   6.666   3.876   5.369 -3.1715  1.5014 -1.3740
10771TIP3   OH232251   5.523   2.171   4.928  0.1167  0.7661  0.0645
10771TIP3    H132252   5.531   2.237   4.859  1.7901 -0.2830 -0.7680
10771TIP3    H232253   5.613   2.143   4.945 -0.5647 -1.2930  0.4231
10772TIP3   OH232254   5.964   3.798   6.304 -0.4311 -0.1165  0.0043
10772TIP3    H132255   5.904   3.866   6.334 -1.6824 -1.4454  0.5567
10772TIP3    H232256   5.910   3.739   6.251  0.3183 -1.4637  0.7179
10773TIP3   OH232257   7.275   3.388   5.559 -0.3628  0.7749 -0.1272
10773TIP3    H132258   7.243   3.401   5.469  2.3652  0.0386 -1.2467
10773TIP3    H232259   7.243   3.301   5.582 -0.2582  0.5631 -0.7564
10774TIP3   OH232260   6.665   0.492   0.345  0.1262  0.2332 -0.1617
10774TIP3    H132261   6.624   0.408   0.365 -0.8812 -0.4684 -4.5644
10774TIP3    H232262   6.749   0.469   0.305 -0.8057  1.1471 -2.8154
10775TIP3   OH232263   6.277   2.279   6.460  0.4611 -0.5886  0.0787
10775TIP3    H132264   6.229   2.360   6.478  2.9870  1.1855 -0.8309
10775TIP3    H232265   6.348   2.306   6.401  0.5805 -3.7088 -1.3001
10776TIP3   OH232266   2.559   5.982   1.857  0.2448  0.1704 -0.8485
10776TIP3    H132267   2.635   5.956   1.805 -0.3191  0.2096 -1.7181
10776TIP3    H232268   2.529   5.901   1.898 -0.7337 -0.3529 -2.5190
10777TIP3   OH232269   7.282   2.067   4.245 -0.2764 -0.2151  0.1014
10777TIP3    H132270   7.215   2.129   4.274 -0.5550 -0.8167  0.7632
10777TIP3    H232271   7.340   2.119   4.190 -0.8920  0.4754  0.0949
10778TIP3   OH232272   1.057   4.351   6.455 -0.3114  0.9796 -0.1318
10778TIP3    H132273   1.096   4.309   6.532 -0.7986 -0.4361 -0.6521
10778TIP3    H232274   1.131   4.369   6.397  0.1492  2.6745  0.9328
10779TIP3   OH232275   5.770   2.343   5.864 -0.2207 -0.2141 -0.4751
10779TIP3    H132276   5.744   2.427   5.904 -0.3595  0.1511 -1.3110
10779TIP3    H232277   5.819   2.298   5.933  0.3550  0.8028 -0.2097
10780TIP3   OH232278   5.082   2.327   3.741 -0.4543  0.0860  0.1311
10780TIP3    H132279   5.176   2.346   3.743 -0.5311  0.4037  2.4807
10780TIP3    H232280   5.076   2.235   3.765 -0.7043 -0.0516 -0.4748
10781TIP3   OH232281   7.656   3.336   6.181 -0.8618  0.0352  0.3157
10781TIP3    H132282   7.626   3.257   6.226 -0.6779  0.0787  0.5175
10781TIP3    H232283   7.595   3.404   6.209 -1.0937 -0.0607  0.0453
10782TIP3   OH232284   0.057   6.617   2.433  0.1249 -0.2990  0.1736
10782TIP3    H132285   0.147   6.588   2.417  0.4061  0.5078  0.2905
10782TIP3    H232286   0.004   6.565   2.372  0.6915 -0.6086 -0.0590
10783TIP3   OH232287   0.701   7.678   0.776 -0.3743 -0.2838 -0.1468
10783TIP3    H132288   0.733   7.731   0.849 -0.4561  0.9109 -0.9536
10783TIP3    H232289   0.719   7.731   0.699 -1.1535 -1.1096 -0.9101
10784TIP3   OH232290   2.207   6.033   0.449 -0.1484 -0.2735  0.7059
10784TIP3    H132291   2.283   5.999   0.402 -1.0916 -1.0071 -0.3125
10784TIP3    H232292   2.232   6.121   0.475  1.0431 -0.5030  0.3656
10785TIP3   OH232293   0.843   1.164   3.062  0.6267  0.4269  0.2581
10785TIP3    H132294   0.868   1.255   3.078  1.3556  0.0134  1.5869
10785TIP3    H232295   0.922   1.124   3.026  0.6033  0.1033  0.5653
10786TIP3   OH232296   3.254   0.732   0.329  0.1556 -0.8518 -0.3982
10786TIP3    H132297   3.198   0.654   0.332 -1.1577  0.0007 -1.9157
10786TIP3    H232298   3.338   0.699   0.297 -0.0064 -1.8541  0.1785
10787TIP3   OH232299   3.793   7.358   5.137 -1.1656  0.1875 -0.3545
10787TIP3    H132300   3.867   7.358   5.076 -0.9063  0.5619 -0.0436
10787TIP3    H232301   3.738   7.286   5.107  0.2145 -1.2747  0.4944
10788TIP3   OH232302   8.433   5.267   6.706 -0.2645 -0.0176 -0.0941
10788TIP3    H132303   8.359   5.295   6.759  0.0592  1.5878 -0.4586
10788TIP3    H232304   8.404   5.280   6.616  0.4785  0.7005 -0.2367
10789TIP3   OH232305   6.364   3.003   5.739  0.5449  0.1650 -0.1332
10789TIP3    H132306   6.356   3.070   5.671 -1.0409  0.4455  0.2977
10789TIP3    H232307   6.425   3.040   5.802  2.8319 -0.5301 -1.8850
10790TIP3   OH232308   1.012   6.655   0.530 -0.3910  0.3315  0.2361
10790TIP3    H132309   1.031   6.677   0.438  0.5611 -1.4560 -0.0267
10790TIP3    H232310   0.942   6.590   0.525 -1.1108  1.0618  0.8357
10791TIP3   OH232311   7.035   0.930   5.538  0.3032  0.1512  0.2929
10791TIP3    H132312   6.952   0.971   5.512  0.6413  1.0203  0.5495
10791TIP3    H232313   7.045   0.856   5.478 -0.3885  0.3689 -0.1010
10792TIP3   OH232314   7.516   7.234   1.632 -0.2508  0.1265 -0.3141
10792TIP3    H132315   7.464   7.193   1.701  0.1692  0.6240  0.3088
10792TIP3    H232316   7.494   7.327   1.638  1.2593  0.4577  0.4547
10793TIP3   OH232317   5.910   3.425   5.586  0.3632  0.6614 -0.2744
10793TIP3    H132318   5.859   3.407   5.507 -0.6039  0.3546  0.4223
10793TIP3    H232319   6.001   3.423   5.556  0.0543 -0.5334 -1.1637
10794TIP3   OH232320   7.830   2.475   5.762 -0.2937 -0.0922  0.0510
10794TIP3    H132321   7.829   2.563   5.801  0.4342  0.4233 -1.0776
10794TIP3    H232322   7.802   2.417   5.834 -1.4302  1.1240  0.6252
10795TIP3   OH232323   6.036   3.702   5.009 -0.1822  0.1437  0.2511
10795TIP3    H132324   5.986   3.647   4.949  1.2519 -0.5155 -0.3842
10795TIP3    H232325   6.054   3.782   4.958 -1.0407  0.5959  0.6631
10796TIP3   OH232326   6.170   0.315   5.332  0.2848  0.0150  0.1382
10796TIP3    H132327   6.139   0.356   5.413  0.3631 -0.6060  0.4785
10796TIP3    H232328   6.239   0.256   5.360  0.4779 -0.0211 -0.4121
10797TIP3   OH232329   7.834   5.470   2.118 -0.3627  0.3927 -0.0527
10797TIP3    H132330   7.798   5.556   2.139 -2.0445 -0.0633 -1.0028
10797TIP3    H232331   7.839   5.469   2.022  0.7352 -0.1351  0.0101
10798TIP3   OH232332   3.101   0.479   0.372  0.7987 -0.7281  0.2651
10798TIP3    H132333   3.009   0.459   0.355  0.4584  0.6158  0.4442
10798TIP3    H232334   3.123   0.430   0.451  0.2928 -1.2167  0.1032
10799TIP3   OH232335   4.900   4.432   4.332  0.5276 -0.0209 -0.4924
10799TIP3    H132336   4.836   4.431   4.404  0.5906  0.2126 -0.4341
10799TIP3    H232337   4.850   4.411   4.254 -0.2430  3.4058 -0.9856
10800TIP3   OH232338   6.328   3.609   5.911 -0.4822  0.3389 -0.0064
10800TIP3    H132339   6.372   3.572   5.987 -1.2794  1.2891  0.9260
10800TIP3    H232340   6.273   3.678   5.946 -0.3960  1.2021 -1.5144
10801TIP3   OH232341   4.489   0.327   0.050 -0.3100 -0.1442  0.3911
10801TIP3    H132342   4.470   0.377  -0.029 -1.0294  0.3726  0.8778
10801TIP3    H232343   4.513   0.240   0.020  0.0634  0.2397 -0.4260
10802TIP3   OH232344   4.834   1.567   1.300 -0.0004  0.3140  0.1691
10802TIP3    H132345   4.888   1.514   1.359  0.3778  1.3316  0.7452
10802TIP3    H232346   4.890   1.584   1.224 -0.3376 -0.6263 -0.2998
10803TIP3   OH232347   2.019   7.960   1.422 -0.4894 -0.0736 -0.5192
10803TIP3    H132348   1.940   7.956   1.367 -0.9151  0.2069  0.0596
10803TIP3    H232349   1.992   8.012   1.497  0.6854  1.3073 -1.0239
10804TIP3   OH232350   6.123   3.327   5.177 -0.1570  0.4130 -0.5165
10804TIP3    H132351   6.156   3.359   5.093 -1.2744  0.3668 -0.9922
10804TIP3    H232352   6.033   3.301   5.158 -0.6215  0.9814  0.8372
10805TIP3   OH232353   5.661   3.390   4.963  0.2345  0.1503  0.3927
10805TIP3    H132354   5.660   3.476   5.005  1.2733 -0.2450  1.2815
10805TIP3    H232355   5.637   3.406   4.872 -1.6722  1.0849  1.0555
10806TIP3   OH232356   7.367   5.223   6.403 -0.2102 -0.2024  0.1988
10806TIP3    H132357   7.461   5.212   6.389 -0.2795  1.0872 -1.4775
10806TIP3    H232358   7.328   5.205   6.318 -1.2070  2.2538  0.0927
10807TIP3   OH232359   6.981   5.229   6.531 -0.6286  0.3400 -0.1272
10807TIP3    H132360   6.984   5.237   6.626 -0.0204  0.9750 -0.1965
10807TIP3    H232361   6.887   5.236   6.510 -0.7397  0.4819  0.4046
10808TIP3   OH232362   0.722   2.676   6.700  0.8920  0.3875  0.1941
10808TIP3    H132363   0.740   2.618   6.774  1.4520 -0.7966 -0.8779
10808TIP3    H232364   0.764   2.635   6.625 -3.9541 -1.0985 -1.8661
10809TIP3   OH232365   5.818   3.029   6.532  0.3649  0.4462 -0.7532
10809TIP3    H132366   5.859   3.091   6.472 -1.9935  1.8977 -0.9295
10809TIP3    H232367   5.734   3.008   6.491  0.8059 -2.3372 -0.3296
10810TIP3   OH232368   6.308   5.230   5.243 -0.1228 -0.2515 -0.0592
10810TIP3    H132369   6.284   5.156   5.298 -0.4645 -1.2285 -1.5165
10810TIP3    H232370   6.301   5.306   5.301 -2.3534 -1.0327  0.7343
10811TIP3   OH232371   5.901   5.215   4.341  0.1684  0.0597 -0.0103
10811TIP3    H132372   5.875   5.160   4.415 -1.5229  0.2637 -0.4307
10811TIP3    H232373   5.899   5.155   4.265  0.2803  0.2338 -0.1499
10812TIP3   OH232374   2.115   7.828   0.395 -0.7440 -0.3795  0.2835
10812TIP3    H132375   2.046   7.799   0.455 -0.4464 -0.3182  0.6590
10812TIP3    H232376   2.068   7.873   0.324 -1.3185 -2.9972 -1.0374
10813TIP3   OH232377   6.688   1.309   3.326  0.4548  0.3775  0.4483
10813TIP3    H132378   6.682   1.218   3.354  0.1225  0.4821  0.7204
10813TIP3    H232379   6.621   1.318   3.259  0.6876  0.3466  0.2073
10814TIP3   OH232380   0.395   0.834   6.382 -0.4808  0.0118  0.1560
10814TIP3    H132381   0.344   0.901   6.428  0.5618  1.8290 -1.2405
10814TIP3    H232382   0.361   0.835   6.293  1.1080  0.3580 -0.4668
10815TIP3   OH232383   1.797   7.802   0.038 -0.1395  0.6301  0.0902
10815TIP3    H132384   1.796   7.767  -0.052  0.4659  0.1371  0.2679
10815TIP3    H232385   1.753   7.735   0.090 -1.1765  1.2710  0.0379
10816TIP3   OH232386   6.108   2.190   6.681 -0.5790 -0.5145  0.2069
10816TIP3    H132387   6.192   2.186   6.636 -0.8384 -0.5350 -0.2722
10816TIP3    H232388   6.074   2.101   6.676 -0.8983 -0.3724 -0.1016
10817TIP3   OH232389   6.668   1.157   6.665  0.4902 -0.2000  0.2675
10817TIP3    H132390   6.638   1.068   6.685  1.5083 -0.5589  0.2435
10817TIP3    H232391   6.606   1.189   6.600  0.0533 -0.8627  0.3573
10818TIP3   OH232392   0.157   1.143   5.983  0.8309  0.1244  0.2963
10818TIP3    H132393   0.233   1.086   5.966 -0.1082 -1.5145  1.4323
10818TIP3    H232394   0.190   1.231   5.970  2.6964 -0.6194 -0.1978
10819TIP3   OH232395   8.345   2.327   4.576 -0.5543  0.3260 -0.0762
10819TIP3    H132396   8.415   2.355   4.516  0.3904 -0.5086  0.6194
10819TIP3    H232397   8.320   2.241   4.545 -1.3956  0.6935 -0.4207
10820TIP3   OH232398   7.049   3.955   5.480 -0.8860  0.4431 -0.2648
10820TIP3    H132399   6.979   3.938   5.544 -1.2825 -0.0481 -0.8302
10820TIP3    H232400   7.128   3.921   5.522 -1.6121 -2.6440 -1.2617
10821TIP3   OH232401   5.075   0.343   5.380  0.3111 -0.1761 -0.9992
10821TIP3    H132402   5.076   0.436   5.402 -0.2373 -0.7331  1.5779
10821TIP3    H232403   5.125   0.337   5.298  2.4485  2.0657  0.0747
10822TIP3   OH232404   6.219   1.098   6.199 -0.0472 -0.0055  0.4907
10822TIP3    H132405   6.161   1.147   6.257  1.2813  0.2007  1.6515
10822TIP3    H232406   6.257   1.164   6.141  2.5080  0.5209  2.7022
10823TIP3   OH232407   8.417   0.331   4.367 -0.3876  0.2635 -0.1880
10823TIP3    H132408   8.387   0.278   4.441 -0.6701 -0.0640 -0.5290
10823TIP3    H232409   8.492   0.283   4.332 -1.3672 -0.5426 -1.2219
10824TIP3   OH232410   0.005   2.181   5.087 -0.6787  0.0040  0.2350
10824TIP3    H132411  -0.005   2.257   5.144 -0.5461 -0.0980  0.3928
10824TIP3    H232412   0.099   2.171   5.077 -0.7154  0.9016 -1.1732
10825TIP3   OH232413   8.495   7.221   0.690  0.1516 -0.1647  0.4859
10825TIP3    H132414   8.525   7.137   0.723 -0.9771 -0.6085  0.3991
10825TIP3    H232415   8.437   7.200   0.618  0.7666  0.7327 -0.2943
10826TIP3   OH232416   7.640   3.433   5.691 -0.1359 -0.1414 -0.1861
10826TIP3    H132417   7.646   3.355   5.747  0.3979 -0.1338 -0.2304
10826TIP3    H232418   7.653   3.401   5.602 -3.7868 -0.5750 -0.6336
10827TIP3   OH232419   6.533   6.140   3.924 -0.1336 -0.1762  0.5303
10827TIP3    H132420   6.508   6.219   3.974 -0.1536  0.3950 -0.3696
10827TIP3    H232421   6.558   6.077   3.991  1.9784  1.2989  1.2016
10828TIP3   OH232422   7.854   3.450   6.500 -0.0082  0.2298 -0.0472
10828TIP3    H132423   7.839   3.520   6.564  1.1900  0.9974 -0.5784
10828TIP3    H232424   7.842   3.493   6.416 -1.2053 -0.6914 -0.3585
10829TIP3   OH232425   8.059   5.303   6.665  0.0906  0.3773 -0.2016
10829TIP3    H132426   7.997   5.249   6.715  0.9690 -1.7410 -1.3113
10829TIP3    H232427   8.126   5.327   6.728  0.0501 -0.4415  0.1615
10830TIP3   OH232428   0.606   2.938   4.119 -0.1678 -0.1928  0.8071
10830TIP3    H132429   0.607   2.867   4.055  0.3857 -0.8246  1.5043
10830TIP3    H232430   0.523   2.929   4.164 -1.6421  1.7188 -1.4157
10831TIP3   OH232431   8.495   3.765   5.661  0.5709 -0.4376 -0.2334
10831TIP3    H132432   8.436   3.763   5.585  0.7770  1.2221 -0.4724
10831TIP3    H232433   8.452   3.711   5.727 -1.3323  0.8634 -0.3405
10832TIP3   OH232434   0.068   2.349   6.670 -0.2576  0.3273 -0.7526
10832TIP3    H132435   0.127   2.339   6.744 -0.2405 -1.0629 -0.9437
10832TIP3    H232436  -0.019   2.356   6.709 -0.2988 -0.8765 -0.6103
10833TIP3   OH232437   5.156   2.177   6.786 -0.0038  0.3196  0.0206
10833TIP3    H132438   5.064   2.164   6.761 -0.5344 -0.8999  2.4487
10833TIP3    H232439   5.160   2.267   6.817  0.0674  0.9883 -1.8954
10834TIP3   OH232440   5.611   5.429   5.623 -0.0428 -0.0613  0.3476
10834TIP3    H132441   5.555   5.387   5.688 -0.9647 -1.3774 -1.2726
10834TIP3    H232442   5.672   5.360   5.596  1.7761  1.0907  1.4045
10835TIP3   OH232443   0.351   4.112   5.243 -0.0477 -0.1907 -0.2811
10835TIP3    H132444   0.435   4.073   5.269 -0.3721  0.6463  2.1097
10835TIP3    H232445   0.351   4.198   5.283 -2.5914 -0.6687  0.8148
10836TIP3   OH232446   5.754   0.806   4.949  0.2690 -0.9968 -0.3197
10836TIP3    H132447   5.806   0.834   5.024  1.2877  0.7816 -1.6531
10836TIP3    H232448   5.789   0.721   4.925  2.2043 -0.0689 -0.8507
10837TIP3   OH232449   6.567   2.000   4.333 -0.0562  0.0807  0.0204
10837TIP3    H132450   6.579   2.080   4.282 -0.6074 -0.8884 -1.6583
10837TIP3    H232451   6.610   1.931   4.282 -1.1828 -1.0140  0.5100
10838TIP3   OH232452   0.966   2.854   5.141  0.2270 -0.3051 -0.0450
10838TIP3    H132453   1.040   2.798   5.122 -1.8683 -2.7582 -1.3202
10838TIP3    H232454   0.890   2.804   5.112 -1.8767  2.4324  0.5190
10839TIP3   OH232455   1.718   4.237   0.189  0.1491 -0.0580  0.0285
10839TIP3    H132456   1.628   4.258   0.212  0.6715  0.6587  1.4088
10839TIP3    H232457   1.713   4.149   0.152 -1.4476  0.8694 -2.0549
10840TIP3   OH232458   0.855   3.736   5.892  0.5951  0.1247  0.6604
10840TIP3    H132459   0.814   3.660   5.934 -0.1371  0.9202  1.4025
10840TIP3    H232460   0.949   3.723   5.905  0.3527  0.6563  3.0987
10841TIP3   OH232461   6.469   4.017   6.032 -0.2114 -0.1332 -0.3695
10841TIP3    H132462   6.451   3.938   6.083 -0.5986  1.2124  1.6142
10841TIP3    H232463   6.541   4.060   6.079 -1.2434  1.6275 -0.3708
10842TIP3   OH232464   1.966   2.284   4.646  0.1159  0.2087 -0.1192
10842TIP3    H132465   1.894   2.229   4.615  0.4922  0.4482 -1.4533
10842TIP3    H232466   2.026   2.289   4.572 -0.8976  4.1389 -0.8243
10843TIP3   OH232467   4.780   5.766   6.036  0.2432 -0.2964 -0.4071
10843TIP3    H132468   4.865   5.790   5.999  0.4907 -0.3499  0.1343
10843TIP3    H232469   4.720   5.832   6.001  1.0596  1.6046  1.7167
10844TIP3   OH232470   8.405   2.570   3.528  0.0250  0.3672  0.2338
10844TIP3    H132471   8.314   2.585   3.501  0.3272  0.9263 -0.4891
10844TIP3    H232472   8.411   2.476   3.542 -0.6548  0.3214  0.2449
10845TIP3   OH232473   1.064   5.949   4.413 -0.3214 -0.0711 -0.1274
10845TIP3    H132474   1.078   5.868   4.363 -0.1189 -0.8883  1.2242
10845TIP3    H232475   1.075   6.019   4.348  1.4197 -1.0478 -0.9196
10846TIP3   OH232476   5.558   2.146   4.110  0.1430  0.3939 -0.5498
10846TIP3    H132477   5.555   2.148   4.015 -2.1670  2.6789 -0.4659
10846TIP3    H232478   5.513   2.065   4.134  1.5614 -0.6644 -1.3955
10847TIP3   OH232479   4.440   0.973   0.307  0.1287  0.7537  0.2936
10847TIP3    H132480   4.345   0.959   0.313  0.3221 -0.6677  0.0704
10847TIP3    H232481   4.455   0.997   0.216  0.3112 -1.6445 -0.3321
10848TIP3   OH232482   1.345   2.473   3.189  0.2782  0.0089  0.3937
10848TIP3    H132483   1.329   2.487   3.095 -0.2304 -1.4272  0.2553
10848TIP3    H232484   1.361   2.561   3.224  1.4856  0.4512 -1.2167
10849TIP3   OH232485   0.576   4.773   0.454 -0.6680 -0.0133  0.1139
10849TIP3    H132486   0.488   4.774   0.491 -1.0368 -0.5504 -0.7115
10849TIP3    H232487   0.570   4.710   0.381  0.1528  0.6298 -0.5206
10850TIP3   OH232488   0.145   3.238   3.252  0.0155 -0.7667 -0.3495
10850TIP3    H132489   0.075   3.261   3.191 -0.4535  1.3970  0.9454
10850TIP3    H232490   0.187   3.161   3.213 -2.9735 -2.0463 -1.2182
10851TIP3   OH232491  -0.001   2.420   5.254  0.4360  0.2384  0.3994
10851TIP3    H132492  -0.009   2.437   5.348  0.9441 -0.6671  0.6109
10851TIP3    H232493   0.074   2.472   5.226  0.8639 -0.2236  0.6852
10852TIP3   OH232494   2.833   6.579   0.458 -0.4538  0.0568 -0.6157
10852TIP3    H132495   2.806   6.655   0.407  1.0313  0.4126 -0.8991
10852TIP3    H232496   2.871   6.615   0.538  0.7402 -0.3628 -0.9887
10853TIP3   OH232497   6.173   3.535   4.321  0.6733  0.1424 -0.1523
10853TIP3    H132498   6.213   3.459   4.279 -1.5341 -1.4658  0.5189
10853TIP3    H232499   6.086   3.541   4.281  0.1558  1.1915  1.1039
10854TIP3   OH232500   7.691   3.519   4.514 -0.6882 -0.6025  0.0976
10854TIP3    H132501   7.723   3.550   4.429 -0.0837 -0.0930  0.5066
10854TIP3    H232502   7.651   3.597   4.554  0.6053 -0.4136  1.0222
10855TIP3   OH232503   1.795   3.387   4.605  0.7764  0.3358 -0.1910
10855TIP3    H132504   1.797   3.416   4.696  1.2612 -0.0553 -0.0755
10855TIP3    H232505   1.771   3.465   4.555 -0.2099  0.3829  0.3363
10856TIP3   OH232506   5.458   1.898   5.891 -0.1369 -0.3453 -0.3285
10856TIP3    H132507   5.452   1.888   5.796 -1.5453  1.9298 -0.5192
10856TIP3    H232508   5.368   1.882   5.922  0.6029 -2.5440  0.8047
10857TIP3   OH232509   1.550   1.522   2.758  0.4202 -0.1553  0.0183
10857TIP3    H132510   1.533   1.428   2.765 -0.6525 -0.0391 -0.8086
10857TIP3    H232511   1.621   1.528   2.693 -0.9931 -0.2863 -1.5663
10858TIP3   OH232512   6.226   3.426   3.379 -0.1566  0.7201 -0.3605
10858TIP3    H132513   6.231   3.446   3.285  1.2307 -0.4326 -0.5504
10858TIP3    H232514   6.295   3.361   3.393  0.3520  1.6597  1.6673
10859TIP3   OH232515   2.090   4.872   0.519  0.4949  0.2055  0.0455
10859TIP3    H132516   2.134   4.943   0.472 -1.9018  0.4988 -1.8484
10859TIP3    H232517   2.000   4.902   0.529 -0.3417 -2.1965  0.0036
10860TIP3   OH232518   0.354   6.617   5.290  0.5423  0.4063  0.9195
10860TIP3    H132519   0.403   6.550   5.242 -0.4826 -1.2130  2.0787
10860TIP3    H232520   0.268   6.579   5.302 -1.3652  3.5476 -1.8138
10861TIP3   OH232521   1.105   4.375   3.867  0.6778 -0.3361  0.3094
10861TIP3    H132522   1.036   4.441   3.868  0.9821  0.0279 -1.1948
10861TIP3    H232523   1.093   4.328   3.785  0.0277 -2.6609  1.7032
10862TIP3   OH232524   6.881   3.327   5.615  0.2180  0.0557 -0.4656
10862TIP3    H132525   6.964   3.279   5.613  0.6482  0.6510  1.9614
10862TIP3    H232526   6.888   3.390   5.543  2.4623  1.0452  0.5688
10863TIP3   OH232527   1.159   3.405   3.718  0.2583 -0.1827  0.5761
10863TIP3    H132528   1.091   3.417   3.785 -0.7801  0.2808 -0.5408
10863TIP3    H232529   1.189   3.315   3.731 -1.4985 -0.8393  0.2506
10864TIP3   OH232530   6.646   3.618   6.003  0.5235  0.1946  0.0877
10864TIP3    H132531   6.689   3.555   5.945  1.5836 -0.4493  1.5395
10864TIP3    H232532   6.582   3.566   6.052  0.7624  0.4223  0.6426
10865TIP3   OH232533   0.169   1.619   5.594 -0.3578 -0.6363 -0.4832
10865TIP3    H132534   0.121   1.583   5.668  0.2498 -0.3040  0.0858
10865TIP3    H232535   0.177   1.546   5.533 -1.7210 -0.6422 -0.6549
10866TIP3   OH232536   7.844   2.043   5.504 -0.2270 -0.1493  0.0852
10866TIP3    H132537   7.759   2.080   5.528 -1.4279 -2.4134 -0.5476
10866TIP3    H232538   7.866   1.985   5.577  1.6713  1.7848  1.1047
10867TIP3   OH232539   8.319   1.551   5.379  0.0756  0.2417 -0.1921
10867TIP3    H132540   8.381   1.503   5.325 -1.1552  0.4116 -1.7902
10867TIP3    H232541   8.356   1.548   5.467  1.6568 -0.8039 -0.8810
10868TIP3   OH232542   7.311   3.635   3.283  0.0300  0.3000 -0.1017
10868TIP3    H132543   7.383   3.613   3.224 -0.3841  0.4069 -0.6468
10868TIP3    H232544   7.311   3.731   3.286  1.6405  0.2675  2.0338
10869TIP3   OH232545   7.940   5.758   6.731  0.1290  0.4253 -0.3623
10869TIP3    H132546   7.857   5.803   6.747  0.5652  1.0833  0.1090
10869TIP3    H232547   8.007   5.818   6.766  0.7269 -0.5481  0.1901
10870TIP3   OH232548   8.274   2.659   6.199 -0.1535  0.1501 -0.1025
10870TIP3    H132549   8.299   2.624   6.285 -0.7487 -1.4902 -0.5700
10870TIP3    H232550   8.321   2.742   6.192  2.7299 -1.3646  0.3330
10871TIP3   OH232551   6.651   2.169   4.527  0.2030 -0.1464  0.1179
10871TIP3    H132552   6.641   2.099   4.462  1.8120 -0.3802  0.1042
10871TIP3    H232553   6.628   2.128   4.610 -0.2645 -0.3006 -0.0887
10872TIP3   OH232554   7.343   2.799   3.281  0.5301 -0.6123 -0.0356
10872TIP3    H132555   7.353   2.882   3.327 -0.9948 -0.7061  0.5104
10872TIP3    H232556   7.430   2.780   3.245  0.7174  1.5773 -0.8116
10873TIP3   OH232557   0.012   3.434   6.020 -0.4385 -0.2344 -0.9372
10873TIP3    H132558   0.078   3.405   5.957  0.4652  0.4610 -0.3200
10873TIP3    H232559  -0.047   3.489   5.968  0.3458  0.4019 -1.1640
10874TIP3   OH232560   0.035   1.130   6.221 -0.7610  0.1792 -0.5838
10874TIP3    H132561   0.110   1.146   6.279 -1.3096 -0.0901  0.2061
10874TIP3    H232562   0.073   1.127   6.133 -0.0381  1.4645 -0.3254
10875TIP3   OH232563   7.998   3.583   4.064 -0.0167  0.0184  0.1854
10875TIP3    H132564   8.048   3.604   4.143  0.0226 -3.0375  1.0340
10875TIP3    H232565   8.064   3.574   3.996  0.3788 -1.6804  0.7840
10876TIP3   OH232566   5.958   2.726   6.612  0.4925 -0.2076  0.2622
10876TIP3    H132567   5.865   2.711   6.632  0.8368 -1.5805  0.9756
10876TIP3    H232568   5.966   2.820   6.601 -0.8347  0.0167  1.0641
10877TIP3   OH232569   1.389   3.257   5.096  0.1440 -0.6219  0.1690
10877TIP3    H132570   1.321   3.299   5.044  1.0041 -1.5570 -1.7878
10877TIP3    H232571   1.357   3.168   5.110  0.6042 -0.8341 -0.0954
10878TIP3   OH232572   6.670   4.238   5.707  0.2124 -0.2324  0.5075
10878TIP3    H132573   6.732   4.284   5.652 -0.0407 -0.4984 -0.0046
10878TIP3    H232574   6.685   4.272   5.795 -0.5729  1.4547  0.0004
10879TIP3   OH232575   7.526   2.955   2.922 -0.1444  0.3704 -0.6749
10879TIP3    H132576   7.600   2.929   2.867 -0.6033 -0.0097 -1.1142
10879TIP3    H232577   7.450   2.912   2.882 -0.6295  0.9083 -0.3327
10880TIP3   OH232578   5.999   2.017   3.409  0.9183  0.1914  0.2069
10880TIP3    H132579   6.027   1.931   3.378  1.8959  1.0151 -1.2744
10880TIP3    H232580   6.076   2.052   3.455  0.4707  0.2155  0.9419
10881TIP3   OH232581   7.719   4.836   4.838  0.3480  0.9466  0.5607
10881TIP3    H132582   7.813   4.827   4.856  0.3415  2.1255  1.1926
10881TIP3    H232583   7.678   4.824   4.923 -0.1899 -1.1249  0.0317
10882TIP3   OH232584   6.727   3.839   6.787 -0.0341  0.9549 -0.0065
10882TIP3    H132585   6.722   3.761   6.732 -0.7182  1.3131 -0.4524
10882TIP3    H232586   6.752   3.806   6.873  3.2334  0.6128 -1.0061
10883TIP3   OH232587   5.386   0.739   0.829 -0.6213  0.3240 -0.0650
10883TIP3    H132588   5.457   0.678   0.848 -1.4964 -0.8636 -0.5044
10883TIP3    H232589   5.414   0.822   0.867  0.3142 -0.5108  1.1033
10884TIP3   OH232590   5.673   1.652   0.666 -0.5903 -0.0408 -0.1178
10884TIP3    H132591   5.738   1.637   0.735 -1.2358 -0.9273  0.2983
10884TIP3    H232592   5.608   1.710   0.706  0.1510  1.1938 -0.6684
10885TIP3   OH232593   0.062   3.908   5.928  0.3572 -0.4589  0.1503
10885TIP3    H132594   0.152   3.934   5.910 -0.2695  1.7183 -0.0553
10885TIP3    H232595   0.034   3.859   5.851  0.5243  1.1889 -0.9915
10886TIP3   OH232596   7.905   2.973   4.852  0.4234 -0.3932  0.2118
10886TIP3    H132597   7.959   3.009   4.782  1.5203 -0.7197  0.8765
10886TIP3    H232598   7.909   3.038   4.922  1.0869 -1.0493  0.7905
10887TIP3   OH232599   6.580   2.145   6.138  0.2085 -0.8664 -0.0817
10887TIP3    H132600   6.620   2.163   6.053  2.3377 -1.1668  0.8280
10887TIP3    H232601   6.537   2.060   6.127  1.4469 -1.4432 -0.5573
10888TIP3   OH232602   1.035   3.128   4.579 -0.0022 -0.4975  0.5422
10888TIP3    H132603   1.111   3.071   4.571 -0.2690 -0.5324 -1.9101
10888TIP3    H232604   0.966   3.071   4.612  0.3699 -1.0436  0.3866
10889TIP3   OH232605   8.457   5.195   2.816  0.2111 -0.3092  0.0462
10889TIP3    H132606   8.432   5.113   2.860  0.1623 -0.2090  0.2034
10889TIP3    H232607   8.549   5.182   2.792  0.5563  0.0652  1.1472
10890TIP3   OH232608   0.369   1.705   5.833 -0.6517  0.0581  0.2826
10890TIP3    H132609   0.287   1.752   5.823 -1.3507 -1.5320 -1.7499
10890TIP3    H232610   0.343   1.615   5.851  0.6611 -0.2570  0.6670
10891TIP3   OH232611   6.930   3.504   5.371  0.3497  0.0503  0.3608
10891TIP3    H132612   6.882   3.564   5.428  0.8638  0.1924  0.6531
10891TIP3    H232613   6.887   3.510   5.286  1.4888  2.1882 -0.0949
10892TIP3   OH232614   7.515   1.451   4.878  0.2983 -0.1258  0.2633
10892TIP3    H132615   7.425   1.444   4.912  1.1201 -0.0125  2.5301
10892TIP3    H232616   7.544   1.360   4.869 -0.0970 -0.1676 -0.6593
10893TIP3   OH232617   0.663   1.808   6.292 -0.5039  0.1439  0.1776
10893TIP3    H132618   0.672   1.791   6.386  0.9868 -0.5945 -0.0758
10893TIP3    H232619   0.616   1.891   6.287 -0.1799  0.4310  1.5883
10894TIP3   OH232620   7.144   2.728   4.721  0.5547 -0.1092  0.1231
10894TIP3    H132621   7.176   2.788   4.789  0.2921 -0.6036  0.6904
10894TIP3    H232622   7.111   2.786   4.652 -2.7221  0.5098  2.0708
10895TIP3   OH232623   7.325   5.639   5.947 -0.0052  0.0446  0.0134
10895TIP3    H132624   7.352   5.655   6.037 -0.4989 -0.6533  0.2944
10895TIP3    H232625   7.396   5.674   5.894 -0.5364  2.1305  0.6196
10896TIP3   OH232626   1.565   2.021   3.978  0.4469 -0.8676  0.2813
10896TIP3    H132627   1.514   2.094   4.012  2.6123  0.0790  1.5932
10896TIP3    H232628   1.530   1.944   4.023 -0.5128 -0.3665  0.3935
10897TIP3   OH232629   6.726   3.931   2.597  0.2005 -0.3360 -0.1826
10897TIP3    H132630   6.794   3.952   2.661 -1.9294  2.0189  1.4430
10897TIP3    H232631   6.682   3.855   2.633  0.2085 -0.1597  0.2091
10898TIP3   OH232632   2.180   6.916   1.965 -0.6604  0.2795  0.2232
10898TIP3    H132633   2.108   6.854   1.957  0.8289 -1.7290  1.8933
10898TIP3    H232634   2.155   6.973   2.037 -0.6832 -0.2824  0.6627
10899TIP3   OH232635   0.166   3.382   3.835 -0.2992  0.2479  0.0473
10899TIP3    H132636   0.250   3.371   3.790 -0.7664 -0.2815 -0.7237
10899TIP3    H232637   0.185   3.439   3.909  1.1333 -1.4095  0.9855
10900TIP3   OH232638   0.812   3.097   3.718  0.2911 -0.0466 -0.3883
10900TIP3    H132639   0.804   3.134   3.806 -1.2968  0.1480 -0.6006
10900TIP3    H232640   0.748   3.026   3.716  1.1366 -0.8058 -1.0121
10901TIP3   OH232641   6.978   3.200   4.868  0.1925  0.3294  0.7366
10901TIP3    H132642   6.912   3.270   4.871  0.5774  0.6729  1.4375
10901TIP3    H232643   6.954   3.141   4.939 -0.1818 -0.2996  0.0858
10902TIP3   OH232644   6.733   3.649   5.557 -0.1399 -0.3654  0.0506
10902TIP3    H132645   6.717   3.702   5.636  1.6043 -0.8479  0.7381
10902TIP3    H232646   6.692   3.699   5.486 -1.7798  0.0462  1.2547
10903TIP3   OH232647   0.345   1.745   3.002  0.2465 -0.3798 -0.5882
10903TIP3    H132648   0.325   1.828   2.959  1.1377 -0.5079 -1.2694
10903TIP3    H232649   0.434   1.756   3.035  0.3850 -1.0840 -0.7194
10904TIP3   OH232650   0.903   2.048   3.876  0.2730  0.0525 -0.0755
10904TIP3    H132651   0.917   1.973   3.818 -1.2237 -0.2099 -0.1213
10904TIP3    H232652   0.889   2.010   3.962 -1.9259  0.1437 -0.3430
10905TIP3   OH232653   0.856   2.337   2.738 -0.5386  0.0524 -0.3554
10905TIP3    H132654   0.845   2.254   2.784  1.4947 -0.7791 -1.3053
10905TIP3    H232655   0.781   2.341   2.678 -0.6008 -1.1371 -0.3715
10906TIP3   OH232656   0.530   3.043   5.591 -0.0539  0.3555  0.2004
10906TIP3    H132657   0.526   2.990   5.671  1.1157  0.5240  0.3736
10906TIP3    H232658   0.473   2.997   5.529  0.5078 -0.8020  0.5297
10907TIP3   OH232659   8.151   2.644   4.850 -0.3607  0.2620 -0.0025
10907TIP3    H132660   8.158   2.682   4.763  2.2062 -0.3404 -0.0771
10907TIP3    H232661   8.133   2.551   4.835 -1.3151  0.4179  0.1374
10908TIP3   OH232662   6.888   3.009   6.868 -0.0560 -0.3240 -0.0395
10908TIP3    H132663   6.952   3.024   6.798 -1.4627 -1.9258 -1.7527
10908TIP3    H232664   6.812   2.974   6.822 -1.8442  0.7317  2.0634
10909TIP3   OH232665   0.082   4.086   6.727 -0.1708 -0.3466  0.3022
10909TIP3    H132666   0.029   4.041   6.661 -1.2039 -0.4888  1.2272
10909TIP3    H232667   0.143   4.020   6.758  0.2841 -0.2955 -0.4790
10910TIP3   OH232668   6.075   1.087   0.625 -0.2532  0.6416  0.6353
10910TIP3    H132669   6.079   1.173   0.584 -0.5775  0.7223  0.7689
10910TIP3    H232670   6.166   1.063   0.641 -0.0727  0.1085 -1.1670
10911TIP3   OH232671   7.350   2.626   4.041 -0.4858 -0.0882  0.3427
10911TIP3    H132672   7.365   2.700   3.982 -0.1260 -0.1724  0.3298
10911TIP3    H232673   7.402   2.555   4.004 -2.5480 -0.9952 -0.8852
10912TIP3   OH232674   7.782   5.756   2.454 -0.9591 -0.0700  0.0969
10912TIP3    H132675   7.856   5.696   2.444  0.5930  1.5481  1.4407
10912TIP3    H232676   7.706   5.705   2.427  0.7207 -1.5456 -2.0851
10913TIP3   OH232677   7.916   6.784   5.408 -0.5553 -0.1024 -0.7663
10913TIP3    H132678   7.980   6.715   5.422  0.1799  0.2455 -2.2828
10913TIP3    H232679   7.832   6.744   5.432  0.1787 -0.6011  1.1093
10914TIP3   OH232680   7.264   4.832   5.381  0.4307 -0.0114  0.2194
10914TIP3    H132681   7.275   4.823   5.475 -0.8811 -0.5909  0.3344
10914TIP3    H232682   7.288   4.747   5.345  1.8141  0.4843 -0.0723
10915TIP3   OH232683   8.355   6.654   1.154 -0.3166  0.2083  0.4209
10915TIP3    H132684   8.388   6.683   1.239  1.0916 -0.2120  0.0251
10915TIP3    H232685   8.307   6.730   1.120  2.8752  1.9639 -0.3665
10916TIP3   OH232686   0.135   5.239   6.094  0.1908  0.2074  0.7895
10916TIP3    H132687   0.155   5.328   6.123  0.6706  0.5603 -0.5729
10916TIP3    H232688   0.055   5.249   6.041  0.4645 -0.1040  0.3146
10917TIP3   OH232689   7.160   2.893   3.072  0.2149 -0.3327 -0.5642
10917TIP3    H132690   7.212   2.955   3.123  0.7402 -0.3444 -1.0758
10917TIP3    H232691   7.193   2.807   3.098 -0.0920 -0.3724 -0.3063
10918TIP3   OH232692   7.578   2.693   6.459 -0.5831 -0.1713 -0.1509
10918TIP3    H132693   7.558   2.784   6.480  0.5108 -0.2667  1.3731
10918TIP3    H232694   7.507   2.643   6.499 -0.8946 -0.0335 -0.5277
10919TIP3   OH232695   0.559   2.207   5.012 -0.1739  0.2540  0.5916
10919TIP3    H132696   0.507   2.184   4.936 -2.5913  1.4091  1.8062
10919TIP3    H232697   0.644   2.167   4.997 -1.2864 -1.3564 -1.6701
10920TIP3   OH232698   7.849   1.517   6.890 -0.6141  0.0362 -0.2955
10920TIP3    H132699   7.877   1.517   6.798  0.7827 -0.4924  0.1219
10920TIP3    H232700   7.768   1.569   6.890  0.1255  1.2410 -1.5998
10921TIP3   OH232701   1.209   3.339   4.546 -0.4175 -0.0493  0.2598
10921TIP3    H132702   1.143   3.272   4.530  1.1196 -0.5361 -5.0499
10921TIP3    H232703   1.293   3.294   4.530  0.9039  2.0131  1.1706
10922TIP3   OH232704   7.903   1.854   5.708 -0.1471 -0.5843 -0.0807
10922TIP3    H132705   7.835   1.794   5.741 -0.1869 -1.0087 -0.9197
10922TIP3    H232706   7.979   1.798   5.695 -0.1085 -0.4044 -0.6301
10923TIP3   OH232707   1.311   2.606   4.925  0.1975 -0.0209  0.1937
10923TIP3    H132708   1.363   2.584   4.848 -0.2989  1.3773 -0.5596
10923TIP3    H232709   1.363   2.670   4.973 -1.5625  2.8535 -1.5553
10924TIP3   OH232710   7.078   1.082   0.286 -0.4952  0.1396  0.1189
10924TIP3    H132711   7.150   1.090   0.349 -0.5289  0.9668  0.0502
10924TIP3    H232712   7.001   1.114   0.332 -1.0223 -1.6045  0.5094
10925TIP3   OH232713   0.287   2.947   5.403 -0.1805  0.0040 -0.4639
10925TIP3    H132714   0.329   3.019   5.357 -0.4629  1.3288  1.3206
10925TIP3    H232715   0.205   2.932   5.355  0.9934 -0.7744 -2.2916
10926TIP3   OH232716   6.232   4.929   6.303 -0.0092  0.2585 -0.5094
10926TIP3    H132717   6.169   4.952   6.372  0.8477  0.9912  0.0383
10926TIP3    H232718   6.304   4.888   6.350 -0.7344 -2.0159 -1.2904
10927TIP3   OH232719   6.885   4.919   5.992  0.1840 -0.2230 -0.3944
10927TIP3    H132720   6.878   5.013   5.976 -0.5908 -0.3673 -0.9511
10927TIP3    H232721   6.802   4.884   5.960 -0.5101 -0.8142  1.9565
10928TIP3   OH232722   1.399   3.440   4.121  0.2233  0.1066 -0.4552
10928TIP3    H132723   1.423   3.351   4.145  0.2685 -0.2263 -1.7052
10928TIP3    H232724   1.321   3.430   4.066 -0.4003  0.9129  0.2669
10929TIP3   OH232725   7.876   3.282   5.475 -0.0455 -0.1082 -0.0631
10929TIP3    H132726   7.783   3.270   5.457  0.1351 -2.3948  0.4681
10929TIP3    H232727   7.890   3.244   5.562  1.1945  1.1041  0.2947
10930TIP3   OH232728   7.957   4.941   6.544 -0.4146  0.5574 -0.0612
10930TIP3    H132729   7.869   4.967   6.570 -0.7145  0.7183 -1.2507
10930TIP3    H232730   7.944   4.876   6.475  0.3588 -1.2779  1.4734
10931TIP3   OH232731   7.363   2.571   6.554  0.0225  0.2499  0.4525
10931TIP3    H132732   7.314   2.492   6.576 -0.1430 -0.3156 -1.7595
10931TIP3    H232733   7.295   2.634   6.528  0.3769 -0.8095 -3.4626
10932TIP3   OH232734   8.434   3.776   5.301  0.3648  0.3229  0.1659
10932TIP3    H132735   8.377   3.802   5.228  1.1216  1.2437 -0.1069
10932TIP3    H232736   8.493   3.851   5.313 -0.2575  0.5076  2.2385
10933TIP3   OH232737   8.204   1.116   6.010 -0.3399  0.2263  0.2997
10933TIP3    H132738   8.257   1.178   6.060 -0.0377  1.1396 -1.1282
10933TIP3    H232739   8.263   1.081   5.944 -1.0092 -0.1647 -0.1034
10934TIP3   OH232740   0.134   1.994   4.372 -0.6316 -0.6687 -0.3775
10934TIP3    H132741   0.041   1.981   4.393 -0.3296  0.1704  1.6109
10934TIP3    H232742   0.159   1.914   4.325 -2.3377 -0.9300 -0.8723
10935TIP3   OH232743   3.783   2.726   0.213  0.0994  0.3600 -0.4105
10935TIP3    H132744   3.843   2.664   0.173  0.1408 -0.9194  1.5727
10935TIP3    H232745   3.739   2.676   0.282 -1.1394  2.0526  0.0610
10936TIP3   OH232746   5.803   3.741   4.420 -0.3661  0.4928  0.6665
10936TIP3    H132747   5.729   3.747   4.361 -1.0857  1.2094  1.6270
10936TIP3    H232748   5.873   3.790   4.377 -1.2299  1.9704  0.9383
10937TIP3   OH232749   0.393   3.724   6.651 -0.2071  0.2638 -0.2761
10937TIP3    H132750   0.463   3.661   6.668  1.1688  2.1374  1.2187
10937TIP3    H232751   0.409   3.754   6.561  1.5786  1.4255  0.3897
10938TIP3   OH232752   7.320   4.568   3.672 -0.4179  0.1794  0.4681
10938TIP3    H132753   7.240   4.594   3.627 -0.8751 -1.0134  0.5842
10938TIP3    H232754   7.293   4.549   3.762 -0.0642 -0.4850  0.4420
10939TIP3   OH232755   2.329   4.528   2.399  0.2429  0.2396  0.2889
10939TIP3    H132756   2.253   4.564   2.445 -0.3186 -1.3259  0.6211
10939TIP3    H232757   2.339   4.585   2.323 -1.3266  0.4238  0.1917
10940TIP3   OH232758   0.927   5.108   6.518  0.9871 -0.1745  0.2859
10940TIP3    H132759   0.967   5.027   6.486 -0.0622 -0.6163  0.0733
10940TIP3    H232760   0.999   5.172   6.517  0.9686 -0.0596 -3.3414
10941TIP3   OH232761   0.712   5.664   5.577  0.4583 -0.2791 -0.2257
10941TIP3    H132762   0.766   5.608   5.522  0.2345 -0.6984 -0.0179
10941TIP3    H232763   0.645   5.606   5.613  1.4797 -0.3160  1.6776
10942TIP3   OH232764   7.680   4.098   6.849 -0.0680  0.7334  0.0248
10942TIP3    H132765   7.611   4.137   6.795  1.0309  1.7014 -0.6998
10942TIP3    H232766   7.738   4.171   6.869  1.2740 -0.2699 -0.1759
10943TIP3   OH232767   6.256   5.391   6.379 -0.2017 -0.4426 -0.3553
10943TIP3    H132768   6.178   5.442   6.355 -0.4875 -0.9684 -0.5604
10943TIP3    H232769   6.233   5.350   6.462  0.1184 -0.0507 -0.0721
10944TIP3   OH232770   0.047   4.421   5.168  0.5544 -0.1233 -0.6946
10944TIP3    H132771   0.141   4.410   5.152  0.2037 -0.7221 -2.5168
10944TIP3    H232772   0.020   4.485   5.102 -0.3607 -0.1966 -0.3844
10945TIP3   OH232773   5.625   7.427   1.813  0.8792  0.3588 -0.1676
10945TIP3    H132774   5.531   7.441   1.809  0.5869 -1.6520 -0.9257
10945TIP3    H232775   5.655   7.484   1.883 -0.9116  0.9502  0.1354
10946TIP3   OH232776   8.175   3.069   5.802  0.7512  0.0141  0.3713
10946TIP3    H132777   8.207   3.121   5.728 -0.3963 -1.0227 -0.8840
10946TIP3    H232778   8.109   3.124   5.844  0.9562  0.3587  0.2447
10947TIP3   OH232779   1.743   1.803   6.290 -0.5980  0.1638  0.5656
10947TIP3    H132780   1.670   1.823   6.348  0.0685 -1.2399  1.9342
10947TIP3    H232781   1.820   1.839   6.335 -0.1082 -0.7264  0.4472
10948TIP3   OH232782   5.026   0.653   0.220 -0.3953 -0.7711  0.2766
10948TIP3    H132783   5.012   0.560   0.206  0.4834 -0.7911 -0.5467
10948TIP3    H232784   5.120   0.661   0.237  0.0952  0.2673 -2.5259
10949TIP3   OH232785   2.387   4.228   4.905  0.1850 -0.0787  0.3005
10949TIP3    H132786   2.476   4.242   4.873 -0.5356  0.1455 -1.6819
10949TIP3    H232787   2.392   4.148   4.957  1.2357 -0.9567 -1.1383
10950TIP3   OH232788   7.266   1.445   2.568 -0.4076 -0.0818 -0.0032
10950TIP3    H132789   7.272   1.349   2.569 -1.1206 -0.1191  1.2295
10950TIP3    H232790   7.344   1.475   2.613  0.0680 -0.0597 -0.8272
10951TIP3   OH232791   7.865   1.179   1.237  0.1067  0.1343 -0.4083
10951TIP3    H132792   7.814   1.260   1.230  0.6514  0.3915 -1.4164
10951TIP3    H232793   7.849   1.133   1.154 -0.4749 -0.9589  0.2902
10952TIP3   OH232794   7.175   0.059   1.205  0.6666  0.3906 -0.1768
10952TIP3    H132795   7.126   0.137   1.233  0.2880  0.5818 -1.3653
10952TIP3    H232796   7.155   0.050   1.112  0.2366 -1.4685  0.0674
10953TIP3   OH232797   0.923   4.670   6.691  0.3141  0.1299 -0.3084
10953TIP3    H132798   0.949   4.699   6.778 -1.3905  0.6945  0.0407
10953TIP3    H232799   0.858   4.735   6.663  1.3638  0.3638 -2.2941
10954TIP3   OH232800   7.362   4.603   5.054  0.3974 -0.3647  0.0722
10954TIP3    H132801   7.325   4.521   5.088 -3.4757  2.0132  1.9170
10954TIP3    H232802   7.406   4.643   5.128  0.0589  0.4166 -0.1411
10955TIP3   OH232803   7.196   0.724   3.745 -0.3439  0.5430 -0.0044
10955TIP3    H132804   7.249   0.766   3.678  2.2824  0.0718  1.6802
10955TIP3    H232805   7.169   0.795   3.803  1.8957  0.3099  1.3811
10956TIP3   OH232806   6.118   2.411   1.118  0.0953  0.2237 -0.3648
10956TIP3    H132807   6.064   2.342   1.082  0.0849 -0.4551  0.8962
10956TIP3    H232808   6.058   2.463   1.171 -0.0935  1.7979 -2.0929
10957TIP3   OH232809   1.371   7.032   1.581 -0.8889  0.2069  0.6079
10957TIP3    H132810   1.355   6.941   1.605 -1.4337  0.4130  1.0305
10957TIP3    H232811   1.303   7.082   1.627 -0.7239  0.8046  0.2158
10958TIP3   OH232812   7.708   2.400   0.349  0.6531  0.2433 -0.0081
10958TIP3    H132813   7.715   2.313   0.388  1.7460  0.4675  0.3020
10958TIP3    H232814   7.797   2.434   0.350 -0.3471  3.0130  3.6300
10959TIP3   OH232815   1.017   6.746   5.347  0.2475  0.1878 -0.0036
10959TIP3    H132816   0.994   6.784   5.263 -0.7079  0.2620  0.2857
10959TIP3    H232817   1.009   6.651   5.334 -0.7652  0.2357  0.2488
10960TIP3   OH232818   1.108   1.695   3.959  0.5570 -0.1919  0.5859
10960TIP3    H132819   1.095   1.749   3.881  2.7201  0.4444  0.6291
10960TIP3    H232820   1.022   1.658   3.978 -0.2859  0.7808 -1.2693
10961TIP3   OH232821   1.250   4.856   0.016 -0.0951 -0.0549  0.0645
10961TIP3    H132822   1.165   4.894  -0.004 -0.3843 -0.9440 -0.4318
10961TIP3    H232823   1.232   4.764   0.032  0.7127 -0.1529  0.4256
10962TIP3   OH232824   0.619   5.430   6.109 -0.2111 -0.2182  0.1937
10962TIP3    H132825   0.536   5.394   6.140 -0.1212  0.4953  1.3018
10962TIP3    H232826   0.685   5.373   6.148 -0.1226  0.2713  0.7689
10963TIP3   OH232827   0.414   5.929   5.293 -0.3186 -0.4426 -0.2844
10963TIP3    H132828   0.442   5.859   5.234 -0.6009 -0.8285  0.0345
10963TIP3    H232829   0.472   5.921   5.369  0.6716  0.6486 -0.9009
10964TIP3   OH232830   5.244   0.396   0.837  0.0240 -0.0487  0.0336
10964TIP3    H132831   5.198   0.313   0.829  0.9528 -0.5471 -0.2457
10964TIP3    H232832   5.228   0.441   0.754 -0.9097  0.2738  0.3898
10965TIP3   OH232833   0.470   4.625   5.310 -0.3431 -0.4758 -0.1464
10965TIP3    H132834   0.454   4.589   5.398 -0.7779  0.3099  0.0940
10965TIP3    H232835   0.564   4.613   5.297  0.0338  1.0150  1.1398
10966TIP3   OH232836   2.512   3.734   6.785 -0.0968 -0.2342 -0.2940
10966TIP3    H132837   2.497   3.671   6.714 -0.0392  0.7794 -1.2163
10966TIP3    H232838   2.426   3.743   6.826 -0.7265  1.0909 -1.8460
10967TIP3   OH232839   0.073   3.890   5.016  0.5603  0.4137 -0.2026
10967TIP3    H132840   0.058   3.973   4.971 -0.6061 -0.6703 -1.8896
10967TIP3    H232841   0.011   3.891   5.089  0.0692  0.7488 -0.6142
10968TIP3   OH232842   6.452   5.106   0.180 -0.0689  0.0764  0.7384
10968TIP3    H132843   6.496   5.030   0.218  0.3716  0.5252  1.1349
10968TIP3    H232844   6.384   5.069   0.124  0.1260 -0.6088  0.9510
10969TIP3   OH232845   4.673   2.771   0.100 -0.4279 -0.2375  0.5450
10969TIP3    H132846   4.644   2.860   0.120 -0.6936  0.1878 -1.6184
10969TIP3    H232847   4.687   2.731   0.186 -1.6705  1.4271  1.5607
10970TIP3   OH232848   0.799   2.893   5.361  0.3651 -0.3876  0.4688
10970TIP3    H132849   0.843   2.883   5.276 -0.1515 -0.1740  0.1706
10970TIP3    H232850   0.762   2.982   5.358  0.5219 -0.3036  1.0034
10971TIP3   OH232851   3.240   3.313   5.948  0.2291 -0.7982 -0.1959
10971TIP3    H132852   3.155   3.352   5.928 -0.4443 -2.3309 -0.4659
10971TIP3    H232853   3.305   3.373   5.911 -0.6815  1.1372  1.3042
10972TIP3   OH232854   8.357   5.708   5.992 -0.0099 -0.2204  0.9382
10972TIP3    H132855   8.362   5.700   5.897  1.4710  1.7975  0.8087
10972TIP3    H232856   8.448   5.704   6.021 -0.3396  0.6636  2.1202
10973TIP3   OH232857   5.651   0.686   0.215  0.2815  0.1272  0.1896
10973TIP3    H132858   5.729   0.731   0.248 -0.0004 -0.0034  1.0432
10973TIP3    H232859   5.671   0.593   0.227  0.3819  0.0625 -0.4776
10974TIP3   OH232860   0.759   4.150   6.760  0.0851 -0.1884  0.3930
10974TIP3    H132861   0.760   4.236   6.718 -0.9479  0.0956  0.9265
10974TIP3    H232862   0.743   4.168   6.853  0.2997 -0.9267  0.5793
10975TIP3   OH232863   7.705   2.137   0.105  0.4303 -0.1508  0.5890
10975TIP3    H132864   7.705   2.187   0.023  0.4264  1.1918  1.3954
10975TIP3    H232865   7.618   2.150   0.141  0.9306  0.5849  1.5761
10976TIP3   OH232866   1.478   5.336   6.242  0.5495  0.9135  0.2841
10976TIP3    H132867   1.555   5.303   6.195 -0.0018 -1.2840  0.8741
10976TIP3    H232868   1.483   5.294   6.328 -2.9279 -1.7028 -0.7112
10977TIP3   OH232869   0.377   1.229   6.622 -0.3775 -0.4941 -0.4308
10977TIP3    H132870   0.442   1.170   6.661 -1.2032 -0.6767  0.7032
10977TIP3    H232871   0.400   1.315   6.657 -0.0963 -0.3881 -0.8781
10978TIP3   OH232872   3.325   7.711   1.588 -0.1454  0.2561 -0.3404
10978TIP3    H132873   3.399   7.712   1.528 -0.5250 -0.3563 -0.8268
10978TIP3    H232874   3.339   7.787   1.645  0.5254  0.4999 -0.8252
10979TIP3   OH232875   0.630   4.203   3.983  0.0031  0.2669 -0.1717
10979TIP3    H132876   0.670   4.289   3.996  1.9420 -0.3868 -1.4753
10979TIP3    H232877   0.699   4.141   4.008 -1.4038 -0.9192  0.8575
10980TIP3   OH232878   1.028   4.319   6.880  0.2596 -0.4402  0.7004
10980TIP3    H132879   1.110   4.347   6.922  0.4781 -1.6099  1.0838
10980TIP3    H232880   1.056   4.288   6.793 -0.1096  1.4137 -0.0917
10981TIP3   OH232881   6.121   1.240   0.922 -0.1366 -0.3174 -0.8600
10981TIP3    H132882   6.132   1.152   0.885  0.8233 -0.7478  0.4298
10981TIP3    H232883   6.208   1.263   0.955 -0.8606  0.2698  0.6743
10982TIP3   OH232884   7.361   4.990   5.132  0.6254 -0.9018  0.7019
10982TIP3    H132885   7.338   5.082   5.129  2.6509 -0.4137 -0.7970
10982TIP3    H232886   7.338   4.962   5.221  1.0347  1.3170  1.5178
10983TIP3   OH232887   1.822   4.157   6.273  0.5124 -0.5439  0.3724
10983TIP3    H132888   1.857   4.074   6.307  0.5091 -0.6997 -0.0115
10983TIP3    H232889   1.871   4.173   6.193  1.5505  0.5700  1.2100
10984TIP3   OH232890   6.663   1.965   0.559 -0.0112  0.2300  0.3233
10984TIP3    H132891   6.665   2.057   0.533 -1.9401  0.2105  0.0549
10984TIP3    H232892   6.572   1.949   0.585  0.6233 -1.2258  1.7363
10985TIP3   OH232893   1.492   4.882   5.611 -0.2361 -0.4776 -0.1548
10985TIP3    H132894   1.399   4.862   5.619 -0.1103 -1.0071  0.0025
10985TIP3    H232895   1.527   4.813   5.554 -0.1642  0.4004 -1.1927
10986TIP3   OH232896   5.513   0.476   0.894 -0.1318  0.0493  0.9490
10986TIP3    H132897   5.435   0.422   0.888  2.1298 -3.1752 -0.7632
10986TIP3    H232898   5.525   0.491   0.987 -2.0430 -0.5253  1.3008
10987TIP3   OH232899   0.810   2.389   5.808  0.1212 -0.5329 -0.0443
10987TIP3    H132900   0.896   2.349   5.818 -0.2835 -1.5307 -0.4587
10987TIP3    H232901   0.770   2.383   5.895 -0.0774 -1.3787 -0.1878
10988TIP3   OH232902   0.275   4.900   6.701  0.4314 -0.2715 -0.9664
10988TIP3    H132903   0.253   4.814   6.737  0.8460  0.1057  0.2130
10988TIP3    H232904   0.369   4.910   6.717  0.3676  0.4440 -0.9997
10989TIP3   OH232905   1.604   2.157   3.562 -0.4992  0.3858 -0.2904
10989TIP3    H132906   1.541   2.187   3.628  0.2291  0.4933  0.3609
10989TIP3    H232907   1.593   2.219   3.490  1.4435  2.6948  1.3023
10990TIP3   OH232908   4.653   1.116   0.896  0.4509 -0.0193 -0.5527
10990TIP3    H132909   4.629   1.048   0.833 -0.5497 -1.7565  1.6606
10990TIP3    H232910   4.746   1.102   0.911 -0.2973 -2.6438  1.8952
10991TIP3   OH232911   0.991   5.188   5.782 -0.3052 -0.2431  0.2350
10991TIP3    H132912   1.064   5.247   5.763  0.0586 -0.8627 -0.2953
10991TIP3    H232913   0.983   5.190   5.877 -0.0505  0.3686  0.2464
10992TIP3   OH232914   5.078   0.886   2.060 -0.4260 -0.2946  0.0274
10992TIP3    H132915   5.017   0.959   2.057 -0.1356 -0.0698 -0.5060
10992TIP3    H232916   5.031   0.813   2.020 -1.2706 -0.8260  1.9263
10993TIP3   OH232917   7.429   2.207   0.617  0.0057 -0.2023  0.1174
10993TIP3    H132918   7.452   2.193   0.526 -1.0939 -0.9274 -0.0589
10993TIP3    H232919   7.463   2.131   0.664 -0.6248 -0.4953  0.1015
10994TIP3   OH232920   7.411   0.761   0.596 -0.1765 -0.4477 -0.0412
10994TIP3    H132921   7.341   0.711   0.638 -1.2559  0.3786 -0.8300
10994TIP3    H232922   7.428   0.713   0.515  0.7601 -1.1127  0.5368
10995TIP3   OH232923   8.458   4.465   6.837 -0.5475  0.2445  0.2736
10995TIP3    H132924   8.463   4.449   6.931 -0.8504 -0.8928  0.1064
10995TIP3    H232925   8.369   4.439   6.813 -0.3791  0.2585 -0.3773
10996TIP3   OH232926   4.772   1.080   0.291  0.0151 -0.5814  0.0784
10996TIP3    H132927   4.810   0.997   0.263  1.4697 -0.7142  2.2763
10996TIP3    H232928   4.747   1.065   0.382  0.7142  1.4993  0.6518
10997TIP3   OH232929   1.158   4.047   5.639  0.1759  0.1268 -0.3405
10997TIP3    H132930   1.111   4.005   5.711 -0.2009  0.6186 -0.2968
10997TIP3    H232931   1.093   4.055   5.570  0.7078 -0.9272 -0.9726
10998TIP3   OH232932   1.404   5.992   0.541  0.5760  0.3400  0.4498
10998TIP3    H132933   1.378   5.922   0.481 -0.9237  1.6570 -0.4409
10998TIP3    H232934   1.322   6.032   0.569  1.4275  1.7809  0.9325
10999TIP3   OH232935   0.193   3.070   3.051  0.1917  0.3492 -0.5791
10999TIP3    H132936   0.255   3.124   3.001 -0.0569  0.4790 -0.7526
10999TIP3    H232937   0.109   3.083   3.005  0.4928 -1.6478 -1.7523
11000TIP3   OH232938   0.283   3.659   4.969  1.0658  0.3698 -0.0750
11000TIP3    H132939   0.237   3.593   5.022  0.0862  0.3653 -0.9090
11000TIP3    H232940   0.230   3.738   4.980  0.8763  0.3808 -0.9919
11001TIP3   OH232941   6.551   2.067   0.184  0.3281  0.1363 -0.3272
11001TIP3    H132942   6.498   2.063   0.263  0.2406 -0.7720 -0.4305
11001TIP3    H232943   6.641   2.075   0.216  0.3558 -0.9457 -0.1278
11002TIP3   OH232944   1.946   1.026   6.503  0.2250 -0.1802  0.0234
11002TIP3    H132945   1.857   1.005   6.532 -0.4116  0.9675 -1.0442
11002TIP3    H232946   2.002   0.968   6.554 -1.1933 -1.5186  0.0994
11003TIP3   OH232947   4.783   1.704   0.926 -0.1550  0.5763 -0.3843
11003TIP3    H132948   4.690   1.703   0.947 -0.2720  0.0186 -0.8882
11003TIP3    H232949   4.803   1.613   0.903  0.5731  0.6430 -0.0177
11004TIP3   OH232950   0.179   3.640   6.283 -0.0705 -0.9081  0.0142
11004TIP3    H132951   0.256   3.686   6.250  0.0750 -1.4319 -0.3908
11004TIP3    H232952   0.214   3.564   6.329 -0.3207 -0.8166  0.3519
11005TIP3   OH232953   7.627   5.008   6.381 -1.0629  0.0467  0.1933
11005TIP3    H132954   7.572   4.956   6.323 -0.6120 -0.8323  0.5455
11005TIP3    H232955   7.622   4.963   6.465  1.4894 -1.0000 -0.1648
11006TIP3   OH232956   7.377   0.560   2.776  0.1439  0.0959 -0.0346
11006TIP3    H132957   7.365   0.557   2.681  1.8202 -1.6435 -0.2092
11006TIP3    H232958   7.470   0.543   2.789 -0.7086 -3.4044  2.0638
11007TIP3   OH232959   5.346   0.748   1.481 -0.0427  0.0908  0.2210
11007TIP3    H132960   5.311   0.659   1.481 -0.1958  0.1494  0.7553
11007TIP3    H232961   5.290   0.795   1.543  1.8656 -0.1556  2.1860
11008TIP3   OH232962   7.581   0.092   1.598  0.2370 -0.4345  0.3118
11008TIP3    H132963   7.605   0.081   1.506 -1.9156  0.4791 -0.4027
11008TIP3    H232964   7.530   0.013   1.619 -0.3866 -0.0365  0.3180
11009TIP3   OH232965   0.856   4.295   4.659  0.1328 -0.2593 -0.2118
11009TIP3    H132966   0.865   4.384   4.624 -3.0286  0.0375 -0.4477
11009TIP3    H232967   0.945   4.269   4.681  1.4719  1.9195 -2.7172
11010TIP3   OH232968   0.903   7.313   6.433 -0.5145 -0.9757  0.0580
11010TIP3    H132969   0.837   7.243   6.429 -1.5495 -0.0640  0.8021
11010TIP3    H232970   0.961   7.287   6.504 -0.5155 -1.3981 -0.0910
11011TIP3   OH232971   7.691   1.615   0.988  0.6707 -0.1433  1.3387
11011TIP3    H132972   7.630   1.679   1.024 -0.3455  0.0899 -0.7186
11011TIP3    H232973   7.763   1.668   0.953 -1.0507  0.1206 -2.0713
11012TIP3   OH232974   2.716   4.382   5.162 -0.1731  0.2419  0.3212
11012TIP3    H132975   2.751   4.455   5.214 -2.7424  0.4315  1.8791
11012TIP3    H232976   2.748   4.304   5.207 -1.5823  0.4109  1.6608
11013TIP3   OH232977   0.983   2.184   5.083 -0.2845  0.5009 -0.0935
11013TIP3    H132978   1.020   2.255   5.031 -0.3036  1.2347  0.8722
11013TIP3    H232979   0.962   2.224   5.168 -0.8728 -0.5069  0.2594
11014TIP3   OH232980   3.007   6.366   0.391  0.8884 -0.4720 -0.2597
11014TIP3    H132981   2.976   6.371   0.301  3.0117 -0.0955 -1.0074
11014TIP3    H232982   2.991   6.453   0.427 -0.0657 -0.6545 -0.2302
11015TIP3   OH232983   0.114   4.285   6.172  0.1734 -0.2516 -0.2641
11015TIP3    H132984   0.130   4.193   6.192 -2.4497 -0.8337 -0.6273
11015TIP3    H232985   0.174   4.333   6.229  0.1509 -2.1380  1.4026
11016TIP3   OH232986   0.596   4.316   6.610  0.7667 -0.2727 -0.1670
11016TIP3    H132987   0.676   4.364   6.589  1.8947 -1.7634  0.5967
11016TIP3    H232988   0.526   4.367   6.570  1.7834  2.6551  1.5887
11017TIP3   OH232989   1.634   6.111   5.966  0.1188  0.4481 -0.1138
11017TIP3    H132990   1.587   6.041   6.012  0.2530  1.2749  1.2838
11017TIP3    H232991   1.723   6.106   6.000  0.2275  1.0367 -0.3201
11018TIP3   OH232992   7.474   0.055   0.626 -0.0228 -0.1167 -0.2929
11018TIP3    H132993   7.430   0.062   0.710  1.4498 -1.4637  0.6320
11018TIP3    H232994   7.565   0.035   0.649  0.9872  2.0816 -2.1376
11019TIP3   OH232995   6.464   1.038   1.401  0.1710 -1.1175 -0.2772
11019TIP3    H132996   6.489   1.027   1.492  0.6476 -0.9444 -0.3897
11019TIP3    H232997   6.382   1.088   1.404 -0.1776 -1.7086  0.0848
11020TIP3   OH232998   1.377   4.040   5.122 -0.0809 -0.7152  0.0608
11020TIP3    H132999   1.456   4.074   5.163 -1.2855  1.3994  0.7086
11020TIP3    H233000   1.409   3.978   5.056  2.0725 -0.2137  0.5919
11021TIP3   OH233001   6.077   1.586   0.177 -0.8230  0.2590 -0.1577
11021TIP3    H133002   6.028   1.505   0.190  0.1832 -0.6122 -1.6561
11021TIP3    H233003   6.138   1.590   0.250 -0.8675 -0.3459 -0.0882
11022TIP3   OH233004   5.290   0.990   0.492 -0.2379  0.1304 -0.3156
11022TIP3    H133005   5.312   0.958   0.580  0.0721 -1.4665 -0.9717
11022TIP3    H233006   5.264   0.912   0.443  1.1668  0.7614 -2.1289
11023TIP3   OH233007   6.847   0.090   1.066  0.2405  0.4084 -0.6421
11023TIP3    H133008   6.924   0.122   1.019 -0.2903  0.8293 -1.2349
11023TIP3    H233009   6.773   0.110   1.008 -0.3090 -0.0626 -0.1160
11024TIP3   OH233010   7.964   4.784   5.265  0.1793  0.0844  0.1308
11024TIP3    H133011   7.999   4.845   5.200  1.3293 -1.2555 -0.5494
11024TIP3    H233012   7.985   4.824   5.349  2.5387 -0.1984 -0.2783
11025TIP3   OH233013   1.750   2.583   4.064 -0.0081  0.1588  0.2207
11025TIP3    H133014   1.743   2.494   4.099  2.4380 -0.0281  0.2887
11025TIP3    H233015   1.843   2.596   4.049 -0.6484  1.4228 -3.1415
11026TIP3   OH233016   7.137   1.912   1.395  0.3599 -0.2722  0.5796
11026TIP3    H133017   7.179   1.932   1.311  1.2194  0.4014  1.1637
11026TIP3    H233018   7.191   1.843   1.433  0.3842 -0.0727  0.9054
11027TIP3   OH233019   2.419   7.269   0.056  0.5549  0.2543 -0.2053
11027TIP3    H133020   2.462   7.301  -0.024 -0.3868 -0.0624 -0.8398
11027TIP3    H233021   2.472   7.194   0.082  1.0678  0.5619 -0.3274
11028TIP3   OH233022   0.568   3.293   2.871 -0.2626  0.0693 -0.0603
11028TIP3    H133023   0.474   3.281   2.877 -0.2717  0.8020  1.5508
11028TIP3    H233024   0.579   3.369   2.814 -0.6468  0.0252 -0.1944
11029TIP3   OH233025   3.309   7.841   0.203  0.5763  0.0076 -0.1214
11029TIP3    H133026   3.245   7.850   0.273  0.2054  0.7478 -0.5520
11029TIP3    H233027   3.292   7.916   0.145  0.2059 -1.1401 -1.5371
11030TIP3   OH233028   2.906   4.484   4.896  0.3679  0.0093  0.8790
11030TIP3    H133029   2.894   4.578   4.888 -0.8779  0.0738  2.9405
11030TIP3    H233030   2.817   4.449   4.901  0.8072 -1.3282 -0.4302
11031TIP3   OH233031   2.141   5.415   6.414 -0.0746 -0.0904  0.5503
11031TIP3    H133032   2.144   5.496   6.465 -0.8584  0.3958 -0.1538
11031TIP3    H233033   2.223   5.415   6.365  0.0998  0.0840  0.8366
11032TIP3   OH233034   1.264   5.827   4.126  0.1717 -0.4501 -0.3919
11032TIP3    H133035   1.200   5.841   4.057 -0.0765  0.5743  0.0459
11032TIP3    H233036   1.219   5.771   4.190  0.0922 -0.6344 -0.6085
11033TIP3   OH233037   1.791   4.023   4.115  0.4970  0.0335 -0.6111
11033TIP3    H133038   1.785   3.928   4.106  1.0819 -0.1029  0.3635
11033TIP3    H233039   1.847   4.036   4.192 -0.6354  1.1601  0.0349
11034TIP3   OH233040   2.988   7.549   1.524  0.2210 -0.4471  0.0342
11034TIP3    H133041   2.935   7.470   1.523 -0.5403  0.0645 -1.4783
11034TIP3    H233042   2.926   7.621   1.534  0.6886  0.0992 -0.8659
11035TIP3   OH233043   8.460   2.905   0.333 -0.3945  0.8796 -0.7508
11035TIP3    H133044   8.502   2.870   0.254 -1.6878 -1.2140 -0.5470
11035TIP3    H233045   8.367   2.898   0.316 -0.7072 -0.1943  1.1943
11036TIP3   OH233046   0.329   4.638   5.836 -0.4417 -0.0207 -0.3446
11036TIP3    H133047   0.382   4.658   5.913  2.7784  0.3828 -2.5787
11036TIP3    H233048   0.334   4.716   5.782  0.5770 -1.6496 -2.7104
11037TIP3   OH233049   1.698   3.345   5.664  0.4394 -0.1371  0.2394
11037TIP3    H133050   1.786   3.333   5.700  0.4579 -2.5639 -0.5583
11037TIP3    H233051   1.665   3.257   5.651 -1.5876  0.7461 -0.7859
11038TIP3   OH233052   0.403   3.774   6.119  0.0546  0.2257  0.4562
11038TIP3    H133053   0.391   3.867   6.098  0.7192  0.2642  0.2548
11038TIP3    H233054   0.383   3.729   6.037  1.3889  0.2975  0.0831
11039TIP3   OH233055   2.000   5.337   6.175  0.1372  0.2308  0.0035
11039TIP3    H133056   2.063   5.282   6.129 -0.5610 -1.4155  0.9686
11039TIP3    H233057   2.047   5.367   6.253 -0.3832 -1.3529  0.9485
11040TIP3   OH233058   0.262   4.872   5.724 -0.0428  0.5896  0.8138
11040TIP3    H133059   0.251   4.966   5.710 -0.3929  0.4525  0.1483
11040TIP3    H233060   0.228   4.832   5.644  2.4930  0.0097 -0.0282
11041TIP3   OH233061   1.000   4.431   6.094 -0.4444 -0.6725 -0.1141
11041TIP3    H133062   0.949   4.488   6.150  0.0848  1.3820 -1.6602
11041TIP3    H233063   1.079   4.411   6.144 -0.9694 -0.6548  0.7233
11042TIP3   OH233064   1.885   5.107   6.762 -0.0778 -0.0928  0.5440
11042TIP3    H133065   1.840   5.029   6.796  0.2661  0.1930  1.6894
11042TIP3    H233066   1.816   5.174   6.760 -0.6224 -0.6820 -1.4221
11043TIP3   OH233067   5.705   0.323   1.125 -0.2508 -0.3501 -0.0558
11043TIP3    H133068   5.634   0.277   1.081  0.5239 -0.5586 -1.1076
11043TIP3    H233069   5.674   0.413   1.135 -0.6994 -0.4663 -0.4036
11044TIP3   OH233070   1.440   5.399   4.587  1.3650  0.0154  0.1336
11044TIP3    H133071   1.509   5.437   4.641 -0.6065  1.2533  1.8528
11044TIP3    H233072   1.395   5.337   4.645 -0.4336  0.9582 -0.2102
11045TIP3   OH233073   6.510   1.059   1.142 -0.0385 -0.1777 -0.0511
11045TIP3    H133074   6.490   0.970   1.114  0.1672  0.3512 -1.9070
11045TIP3    H233075   6.506   1.055   1.238 -1.6932 -1.7708 -0.1676
11046TIP3   OH233076   1.426   4.197   6.854  0.6791 -0.4249 -0.1167
11046TIP3    H133077   1.516   4.202   6.821  0.5478  1.3362 -0.2742
11046TIP3    H233078   1.434   4.220   6.947  0.1954  1.3434 -0.5050
11047TIP3   OH233079   5.049   1.556   0.762  0.2646 -0.1937 -0.2698
11047TIP3    H133080   5.125   1.610   0.743  0.4038 -0.6905 -1.1725
11047TIP3    H233081   5.084   1.481   0.811  0.2311 -0.0023  0.0462
11048TIP3   OH233082   8.323   4.783   5.829  0.3976 -0.4194  0.1215
11048TIP3    H133083   8.341   4.866   5.872 -1.1911 -0.4862  0.9305
11048TIP3    H233084   8.336   4.717   5.897 -0.7480 -0.6389  0.1329
11049TIP3   OH233085   5.857   0.714   2.152  0.2998  0.1096 -0.0245
11049TIP3    H133086   5.818   0.684   2.070 -1.9316 -0.8726  1.3495
11049TIP3    H233087   5.875   0.807   2.138 -1.5906  0.3387 -1.0692
11050TIP3   OH233088   2.017   2.925   6.935 -0.1560  0.3990  0.1954
11050TIP3    H133089   1.977   2.993   6.881 -0.0132  0.7025  0.4679
11050TIP3    H233090   1.944   2.881   6.979 -0.1597  1.3475  1.1619
11051TIP3   OH233091   5.440   3.247   0.664 -0.4321 -0.1850 -0.0911
11051TIP3    H133092   5.397   3.247   0.578 -0.0452 -0.0020 -0.2863
11051TIP3    H233093   5.533   3.245   0.644 -0.3609 -2.1600  0.3623
11052TIP3   OH233094   0.502   6.670   6.858 -0.2401 -0.3170 -0.3839
11052TIP3    H133095   0.423   6.724   6.851  0.0139  0.2180  0.7131
11052TIP3    H233096   0.502   6.617   6.779 -1.4282  0.0509 -0.6424
11053TIP3   OH233097   6.401   0.553   2.745 -0.2072 -0.4579  0.2910
11053TIP3    H133098   6.308   0.533   2.759 -0.4976 -1.3288 -2.4561
11053TIP3    H233099   6.400   0.618   2.675  1.1717  1.4726  2.0546
11054TIP3   OH233100   1.573   4.683   5.430 -0.0797  0.0259 -0.0289
11054TIP3    H133101   1.541   4.608   5.480 -0.5482  0.3499  0.1632
11054TIP3    H233102   1.595   4.647   5.344 -0.9884 -0.1923 -0.1723
11055TIP3   OH233103   5.299   2.726   2.263 -0.0295 -0.2816  0.7251
11055TIP3    H133104   5.219   2.713   2.211 -0.1551 -0.8260  1.0481
11055TIP3    H233105   5.289   2.667   2.337 -0.5869  1.6145  2.2148
11056TIP3   OH233106   1.537   2.521   6.868 -0.0311  0.1635  0.7288
11056TIP3    H133107   1.481   2.448   6.843 -0.0592  0.6879 -0.7933
11056TIP3    H233108   1.504   2.550   6.953 -2.2276  0.6180 -0.2612
11057TIP3   OH233109   2.274   4.560   3.177  0.1137  0.2105 -0.4609
11057TIP3    H133110   2.274   4.505   3.098  2.8035  1.7153 -1.6122
11057TIP3    H233111   2.282   4.498   3.249  1.7259 -1.0318 -1.6489
11058TIP3   OH233112   4.459   0.473   2.963 -0.6259 -0.1076 -0.2263
11058TIP3    H133113   4.416   0.486   3.047 -1.4500  0.0943 -0.6734
11058TIP3    H233114   4.510   0.393   2.973  0.6833  0.8497  1.0274
11059TIP3   OH233115   8.284   6.712   5.419  0.2085 -0.1110  0.1117
11059TIP3    H133116   8.301   6.767   5.496 -1.5372  1.0120 -0.2734
11059TIP3    H233117   8.355   6.648   5.419  0.9392  0.6644  1.9414
11060TIP3   OH233118   5.134   1.643   1.448  0.2056 -0.1768  0.7179
11060TIP3    H133119   5.139   1.632   1.353  0.7155 -0.9057  0.8228
11060TIP3    H233120   5.219   1.679   1.472 -0.4508  1.4079  0.7264
11061TIP3   OH233121   7.765   5.134   5.238  0.2551 -0.5683 -0.1410
11061TIP3    H133122   7.739   5.068   5.173 -0.2942  0.1321 -0.6371
11061TIP3    H233123   7.837   5.182   5.196 -0.3126  0.0927 -0.3592
11062TIP3   OH233124   7.844   0.195   0.178 -0.6711  0.0962 -1.2941
11062TIP3    H133125   7.766   0.149   0.208  0.4048  0.1969  1.8567
11062TIP3    H233126   7.811   0.272   0.133 -2.4222  0.3839  0.4171
11063TIP3   OH233127   0.078   2.786   4.720  0.2982 -0.1041 -0.1171
11063TIP3    H133128   0.014   2.717   4.737  1.9267 -1.7447 -0.4057
11063TIP3    H233129   0.101   2.820   4.807 -1.3953  0.9207 -0.0613
11064TIP3   OH233130   5.834   0.257   0.350  0.2369 -0.4516 -0.3978
11064TIP3    H133131   5.803   0.231   0.437 -0.2196 -1.7855 -0.9480
11064TIP3    H233132   5.914   0.308   0.367 -0.9773  1.0679  0.9031
11065TIP3   OH233133   3.052   7.845   0.350  0.4298 -0.3939 -0.1848
11065TIP3    H133134   2.997   7.899   0.407  0.7298  1.9579 -1.9943
11065TIP3    H233135   3.002   7.839   0.268  1.5297 -0.7695 -0.8438
11066TIP3   OH233136   6.736   1.174   1.063 -0.0229 -0.7778 -0.0992
11066TIP3    H133137   6.657   1.141   1.105  0.2897 -2.3698 -0.7114
11066TIP3    H233138   6.732   1.269   1.075 -0.4572 -1.0938  2.5849
11067TIP3   OH233139   6.995   0.368   1.000  0.7849 -0.2272 -0.3487
11067TIP3    H133140   7.070   0.318   0.967 -0.1936 -2.1839  0.2946
11067TIP3    H233141   6.934   0.370   0.927 -0.0549 -1.8368  0.2740
11068TIP3   OH233142   4.990   7.865   1.433  0.1351  0.1138  0.1638
11068TIP3    H133143   4.940   7.944   1.410 -0.9385 -0.3446  0.8741
11068TIP3    H233144   5.022   7.883   1.522  0.2006 -0.0915  0.1800
11069TIP3   OH233145   2.997   7.609   0.037  0.0058 -0.4634 -0.1671
11069TIP3    H133146   3.047   7.687   0.062 -1.0973  0.3152 -0.3246
11069TIP3    H233147   2.947   7.637  -0.040  0.6244 -1.7447 -1.0547
11070TIP3   OH233148   4.870   7.392   1.438  0.0062  0.0300 -0.5500
11070TIP3    H133149   4.838   7.434   1.358  1.1630  0.1946 -0.9342
11070TIP3    H233150   4.896   7.466   1.494 -1.5935 -0.0469  0.3347
11071TIP3   OH233151   0.386   1.243   2.827  0.1775  0.4283  0.1731
11071TIP3    H133152   0.394   1.158   2.782  1.0538  0.9714 -0.7226
11071TIP3    H233153   0.294   1.248   2.852  0.4294 -1.4632  1.6013
11072TIP3   OH233154   4.131   7.649   3.592  0.1417  0.9542  0.1298
11072TIP3    H133155   4.188   7.572   3.584 -0.0557  0.5293  2.5741
11072TIP3    H233156   4.179   7.709   3.648 -1.3554  1.0331  1.3538
11073TIP3   OH233157   4.373   5.727   2.191  0.1406 -0.8945  0.2972
11073TIP3    H133158   4.327   5.810   2.199 -0.9386 -1.2072 -2.0791
11073TIP3    H233159   4.465   5.749   2.201 -0.1400  0.6057 -0.3203
11074TIP3   OH233160   0.331   4.485   6.552 -0.3422 -0.1633 -0.0612
11074TIP3    H133161   0.355   4.445   6.468  0.7172  0.0048  0.1576
11074TIP3    H233162   0.275   4.419   6.594 -0.7155 -0.3294 -0.8140
11075TIP3   OH233163   0.821   5.468   6.489 -0.1714 -0.2985 -0.4301
11075TIP3    H133164   0.849   5.559   6.498  0.2429 -0.4388 -0.2879
11075TIP3    H233165   0.833   5.430   6.576 -0.5198 -0.4394 -0.4425
11076TIP3   OH233166   0.187   1.990   1.101 -0.1072 -0.5303  0.5800
11076TIP3    H133167   0.274   1.969   1.136  1.3751  2.5760 -1.0087
11076TIP3    H233168   0.202   2.008   1.009 -2.0475  2.1131  0.7018
11077TIP3   OH233169   2.567   7.809   0.522  0.0892 -0.0788  0.1138
11077TIP3    H133170   2.523   7.870   0.462  1.1551 -1.7933 -2.4923
11077TIP3    H233171   2.518   7.818   0.604 -1.3055  2.4706 -0.9127
11078TIP3   OH233172   2.331   2.354   6.614  0.5471 -0.2239 -0.4640
11078TIP3    H133173   2.405   2.408   6.640  0.0142  0.5753 -0.5847
11078TIP3    H233174   2.369   2.269   6.591  1.4555  0.2826 -0.8384
11079TIP3   OH233175   0.840   3.997   6.032  0.1814 -0.2656  0.1323
11079TIP3    H133176   0.805   3.909   6.045  0.3920 -0.8347 -2.8315
11079TIP3    H233177   0.770   4.044   5.985  0.8558  0.5269 -0.0957
11080TIP3   OH233178   8.203   1.672   0.639 -0.0868  0.1021  0.1363
11080TIP3    H133179   8.133   1.724   0.599 -0.1009 -0.1249 -0.1376
11080TIP3    H233180   8.179   1.581   0.621  1.2259  0.0718 -1.5975
11081TIP3   OH233181   3.693   5.982   0.498 -0.3799 -0.6346 -0.8433
11081TIP3    H133182   3.648   6.055   0.541 -0.1732 -0.2741 -1.2469
11081TIP3    H233183   3.723   5.927   0.571 -0.2225 -0.1377 -0.5300
11082TIP3   OH233184   1.402   5.910   5.785  0.3990 -0.0696  0.1615
11082TIP3    H133185   1.416   5.928   5.878 -0.7331 -2.6260  0.8793
11082TIP3    H233186   1.365   5.991   5.750  5.0525  2.5478  0.8603
11083TIP3   OH233187   6.817   1.575   0.366 -0.0398 -0.4929  0.1708
11083TIP3    H133188   6.839   1.639   0.433  1.0153 -0.2587 -0.3799
11083TIP3    H233189   6.899   1.527   0.352 -0.8395 -2.0169  0.6353
11084TIP3   OH233190   5.634   1.373   0.421 -0.4075 -0.3402 -0.0274
11084TIP3    H133191   5.658   1.383   0.328  0.7299  2.2773  0.4793
11084TIP3    H233192   5.717   1.351   0.464 -0.0755  2.3548  0.8517
11085TIP3   OH233193   6.323   0.562   1.603  0.2765 -0.0748  0.0446
11085TIP3    H133194   6.390   0.539   1.667 -1.5573  0.2775  2.1386
11085TIP3    H233195   6.308   0.656   1.615  0.2146  0.0868 -1.1938
11086TIP3   OH233196   8.178   4.240   5.767 -0.1769 -0.4688  0.3520
11086TIP3    H133197   8.243   4.202   5.826  0.5645 -0.7573 -0.6313
11086TIP3    H233198   8.196   4.199   5.682 -1.2652 -0.1079 -0.0649
11087TIP3   OH233199   2.083   1.632   5.741  0.6146  0.1688 -0.0990
11087TIP3    H133200   2.097   1.549   5.786  1.6386  0.2174 -0.3251
11087TIP3    H233201   2.041   1.688   5.807  2.4445  0.3633  0.9121
11088TIP3   OH233202   0.794   0.821   0.676 -0.7271  0.2922  0.2321
11088TIP3    H133203   0.704   0.788   0.671 -0.6023 -0.3543  2.0600
11088TIP3    H233204   0.786   0.907   0.718 -0.4497  0.0728  0.7345
11089TIP3   OH233205   4.670   7.660   1.092  0.4891 -0.1629 -0.5339
11089TIP3    H133206   4.617   7.724   1.139  2.2700 -0.6235  2.2075
11089TIP3    H233207   4.761   7.686   1.109  1.2368 -2.8648 -0.0662
11090TIP3   OH233208   5.363   7.816   1.627  0.0928 -0.2739 -0.0276
11090TIP3    H133209   5.412   7.896   1.647  1.3059 -1.0700  0.2251
11090TIP3    H233210   5.271   7.844   1.627  0.5317  1.2209 -0.4585
11091TIP3   OH233211   4.486   7.830   0.586 -0.4131 -0.7618  0.1675
11091TIP3    H133212   4.568   7.849   0.540 -0.2055  0.5235  1.0291
11091TIP3    H233213   4.441   7.915   0.591 -1.2063 -1.2083  0.8402
11092TIP3   OH233214   6.154   1.468   2.213 -0.2940  0.1697 -0.1110
11092TIP3    H133215   6.181   1.535   2.275  1.3107 -0.4478 -0.1363
11092TIP3    H233216   6.124   1.395   2.268  0.5190 -0.1305 -0.0661
11093TIP3   OH233217   3.821   7.408   0.443  0.3002 -0.5636 -0.3614
11093TIP3    H133218   3.906   7.366   0.430  0.9828  1.4969 -2.9255
11093TIP3    H233219   3.779   7.404   0.357 -1.3762  0.2259  0.4010
11094TIP3   OH233220   0.119   0.977   4.935  0.2605 -0.0236 -0.1566
11094TIP3    H133221   0.132   1.068   4.909 -2.2729  0.4975  0.2333
11094TIP3    H233222   0.037   0.952   4.892  0.3890 -1.7944  0.5781
11095TIP3   OH233223   3.996   5.667   0.361  0.0351 -0.5672 -0.1207
11095TIP3    H133224   3.974   5.745   0.309 -2.2049 -1.9960 -1.4160
11095TIP3    H233225   4.076   5.633   0.320 -0.2796 -0.2337 -1.0301
11096TIP3   OH233226   4.869   2.963   0.433 -0.0634 -0.2073 -0.0074
11096TIP3    H133227   4.925   2.886   0.440  0.7257  0.4278  0.8965
11096TIP3    H233228   4.825   2.968   0.518  0.3736  0.6845  0.1791
11097TIP3   OH233229   7.771   2.476   0.757  0.1064 -0.0787  0.2683
11097TIP3    H133230   7.680   2.477   0.728  0.4917  2.3657 -0.9686
11097TIP3    H233231   7.822   2.467   0.676  1.0053  0.2716  0.7886
11098TIP3   OH233232   6.922   0.919   0.596  0.3301  0.0767  0.6356
11098TIP3    H133233   6.922   0.840   0.542  0.7735 -0.8021  1.8890
11098TIP3    H233234   6.980   0.897   0.669 -0.0444  1.3433  1.3169
11099TIP3   OH233235   6.674   2.394   2.441  0.1931 -0.0391 -0.6304
11099TIP3    H133236   6.681   2.356   2.528 -0.3829 -2.4966 -1.6206
11099TIP3    H233237   6.599   2.350   2.401  0.9056  0.5102 -2.6433
11100TIP3   OH233238   0.647   1.120   1.526 -0.3617  0.2657 -0.0620
11100TIP3    H133239   0.650   1.092   1.618  1.2046 -0.0611 -0.2030
11100TIP3    H233240   0.575   1.183   1.523  0.1622  0.9778  1.5950
11101TIP3   OH233241   0.252   4.993   6.050  0.2236 -0.6169  0.0743
11101TIP3    H133242   0.171   4.943   6.051  0.0729 -0.5581 -2.9847
11101TIP3    H233243   0.224   5.085   6.054  0.2091 -0.6406  0.4801
11102TIP3   OH233244   6.664   0.736   1.072 -0.4605  0.5197  0.2388
11102TIP3    H133245   6.736   0.789   1.107 -0.2714  1.5513 -1.6548
11102TIP3    H233246   6.596   0.800   1.048 -0.8588 -0.2042 -0.6119
11103TIP3   OH233247   7.105   1.460   0.040 -0.0874 -0.1874  0.8050
11103TIP3    H133248   7.109   1.548   0.002  2.4809 -0.8218 -0.5315
11103TIP3    H233249   7.017   1.429   0.020 -0.8693  1.8893  0.8928
11104TIP3   OH233250   0.739   3.777   5.400  0.1583  0.5958  0.5267
11104TIP3    H133251   0.690   3.721   5.459  0.2641 -1.6711 -1.4606
11104TIP3    H233252   0.686   3.856   5.391 -1.2459 -0.2495  1.3762
11105TIP3   OH233253   6.499   0.942   3.681  0.0975 -0.1619 -0.1054
11105TIP3    H133254   6.441   0.882   3.634 -1.3511  1.2811 -0.1793
11105TIP3    H233255   6.562   0.884   3.725  0.0680 -1.6182 -1.9443
11106TIP3   OH233256   6.566   2.008   2.073 -0.0437  0.3673 -0.4382
11106TIP3    H133257   6.495   2.022   2.010 -0.2888 -0.4132 -0.3347
11106TIP3    H233258   6.621   1.941   2.033  2.4298  3.2153 -2.0190
11107TIP3   OH233259   2.940   7.293   0.243  0.2344  0.2321  0.3000
11107TIP3    H133260   2.925   7.199   0.243  0.4486  0.2021  0.8595
11107TIP3    H233261   2.856   7.330   0.272  0.3327  0.1892  0.6382
11108TIP3   OH233262   7.607   0.893   0.361  0.2799  0.3715  0.1514
11108TIP3    H133263   7.516   0.924   0.358 -0.0312 -0.4911  0.3697
11108TIP3    H233264   7.644   0.921   0.278 -0.8323 -1.1513 -0.9005
11109TIP3   OH233265   0.693   0.495   0.730 -0.2982 -0.1050 -0.3552
11109TIP3    H133266   0.641   0.421   0.699 -1.4020  0.4444  0.1949
11109TIP3    H233267   0.680   0.563   0.665 -1.4524  0.5453  0.5503
11110TIP3   OH233268   0.626   2.436   4.819  0.6155  0.0248 -0.4604
11110TIP3    H133269   0.599   2.435   4.911  0.4699 -2.3259 -0.5015
11110TIP3    H233270   0.559   2.487   4.775 -0.8272 -1.1598  0.3219
11111TIP3   OH233271   3.460   7.574   0.033 -0.1324 -0.2573  0.5228
11111TIP3    H133272   3.501   7.494   0.066  0.6184 -0.2055 -0.2740
11111TIP3    H233273   3.442   7.626   0.111 -0.8150 -1.2884  1.0636
11112TIP3   OH233274   1.636   2.890   1.573 -0.0004 -0.3104  0.0130
11112TIP3    H133275   1.664   2.798   1.572  0.9329 -0.0352 -1.6290
11112TIP3    H233276   1.710   2.938   1.609  0.3005  0.0037 -0.9854
11113TIP3   OH233277   0.504   2.052   4.731  0.8448  0.2681  0.3185
11113TIP3    H133278   0.412   2.028   4.720  0.3622  1.1648  2.1386
11113TIP3    H233279   0.552   1.970   4.715 -0.3299 -0.4461  0.3456
11114TIP3   OH233280   8.009   0.895   1.488 -0.1859  0.1540  0.2276
11114TIP3    H133281   7.938   0.958   1.504 -1.3367 -0.4735 -2.1551
11114TIP3    H233282   8.089   0.948   1.491 -1.0510  1.5607 -0.7505
11115TIP3   OH233283   7.447   3.497   6.694 -0.2725 -0.3220  0.0015
11115TIP3    H133284   7.412   3.413   6.663  2.7997 -1.5090 -0.4820
11115TIP3    H233285   7.434   3.495   6.789  0.0905 -1.5544  0.0443
11116TIP3   OH233286   3.603   8.024   1.216 -0.2343  0.0791  0.2522
11116TIP3    H133287   3.596   7.934   1.184  1.4445  0.4957 -1.3465
11116TIP3    H233288   3.540   8.074   1.163  0.8510  0.3447 -0.7949
11117TIP3   OH233289   7.824   4.713   6.408 -0.2052 -0.2434  0.4395
11117TIP3    H133290   7.735   4.727   6.375  0.5588 -0.7880 -1.9611
11117TIP3    H233291   7.873   4.680   6.332  2.1376  0.3835  1.6291
11118TIP3   OH233292   7.922   3.828   6.437  0.4199  0.1735 -0.1321
11118TIP3    H133293   7.849   3.790   6.389  1.5153 -3.4892  0.9537
11118TIP3    H233294   7.886   3.849   6.524  0.6616 -1.8829  0.4935
11119TIP3   OH233295   4.406   6.232   0.817 -0.3507 -0.1566  0.4471
11119TIP3    H133296   4.437   6.304   0.761 -0.5961 -0.1636  0.3040
11119TIP3    H233297   4.449   6.154   0.782 -2.2553 -0.5209 -1.1499
11120TIP3   OH233298   0.696   6.963   6.761  0.4845 -0.4232  0.4449
11120TIP3    H133299   0.649   6.934   6.683 -0.0788  0.9288  0.2579
11120TIP3    H233300   0.697   6.887   6.819  0.3902 -1.2536 -0.6481
11121TIP3   OH233301   8.134   1.105   1.680  0.6303 -0.1071 -0.7682
11121TIP3    H133302   8.152   1.173   1.745  0.0703  0.3365 -1.0706
11121TIP3    H233303   8.064   1.053   1.718  0.5931 -0.1038 -0.8310
11122TIP3   OH233304   3.192   4.904   6.515 -0.5299  0.5773 -0.0930
11122TIP3    H133305   3.144   4.833   6.472 -0.7226  0.5817  0.1174
11122TIP3    H233306   3.269   4.862   6.552 -0.0173  0.6884 -1.0299
11123TIP3   OH233307   0.876   4.522   4.065  0.1732  0.4644  0.3290
11123TIP3    H133308   0.922   4.588   4.116  2.0956  0.1256 -0.9413
11123TIP3    H233309   0.794   4.564   4.039  1.3177  2.3149 -0.3532
11124TIP3   OH233310   0.151   1.753   0.472  0.2538  0.0605  0.3285
11124TIP3    H133311   0.079   1.693   0.488 -1.0485  1.6223  0.5031
11124TIP3    H233312   0.217   1.729   0.537 -1.0499  0.0730  1.6890
11125TIP3   OH233313   1.552   4.558   5.866 -0.4476 -0.1058  0.5823
11125TIP3    H133314   1.477   4.498   5.870 -1.4332  1.0753  0.2491
11125TIP3    H233315   1.550   4.605   5.949 -0.8714  0.8494  0.0419
11126TIP3   OH233316   3.049   6.875   6.810  0.2875  0.5006 -0.1852
11126TIP3    H133317   3.012   6.863   6.722  1.2992 -0.3496 -0.4995
11126TIP3    H233318   3.128   6.822   6.810  0.1653  0.3071  1.3314
11127TIP3   OH233319   8.345   1.690   0.880 -0.4912  0.1517 -0.5339
11127TIP3    H133320   8.305   1.702   0.966  0.5330 -1.2677  0.1381
11127TIP3    H233321   8.271   1.691   0.819 -1.1699  1.7067  0.2878
11128TIP3   OH233322   1.154   5.074   6.183  0.3000 -0.0569  0.5261
11128TIP3    H133323   1.122   4.984   6.170 -1.4711  0.3496  1.8993
11128TIP3    H233324   1.147   5.088   6.278 -3.9910  3.1706 -0.1370
11129TIP3   OH233325   3.293   6.628   6.626 -0.2233 -0.1151  0.2730
11129TIP3    H133326   3.283   6.701   6.565  1.2900  0.3306  0.5461
11129TIP3    H233327   3.304   6.551   6.569  2.8425  0.5202 -0.0692
11130TIP3   OH233328   3.029   5.990   6.406  0.4964  0.1507  0.7606
11130TIP3    H133329   3.106   6.035   6.372 -0.4286 -0.3045 -2.1226
11130TIP3    H233330   3.048   5.897   6.391 -0.1501 -0.0230  1.0235
11131TIP3   OH233331   3.713   3.924   6.082  0.1045  0.1270 -0.6978
11131TIP3    H133332   3.718   3.839   6.127 -0.2046 -0.3422 -1.5442
11131TIP3    H233333   3.770   3.981   6.133 -0.2420 -0.4059  0.2956
11132TIP3   OH233334   1.978   4.456   5.845  0.0450  0.1174  0.2262
11132TIP3    H133335   1.937   4.398   5.781  1.1761 -2.6695  1.9625
11132TIP3    H233336   2.070   4.429   5.845  0.4153  1.3614  1.6762
11133TIP3   OH233337   3.278   3.558   4.074  0.2608 -0.0448  0.4165
11133TIP3    H133338   3.357   3.508   4.093 -0.8010 -1.3861  1.3926
11133TIP3    H233339   3.279   3.571   3.980  1.8296  0.2628  0.4717
11134TIP3   OH233340   1.397   2.548   6.118 -0.4865  0.0885  0.6944
11134TIP3    H133341   1.326   2.602   6.083  0.1231  1.1037  0.9867
11134TIP3    H233342   1.474   2.604   6.113  0.2222 -0.8698  0.7405
11135TIP3   OH233343   1.769   4.875   6.831 -0.6375  0.4094 -0.1868
11135TIP3    H133344   1.676   4.872   6.852 -0.6643 -0.3695 -0.4015
11135TIP3    H233345   1.780   4.811   6.760  0.4987 -1.4307  1.6070
11136TIP3   OH233346   2.792   4.044   6.457 -0.2844 -0.0432  0.2428
11136TIP3    H133347   2.799   4.115   6.521  1.6047 -0.3737  0.4275
11136TIP3    H233348   2.776   3.965   6.510 -1.6955  0.1317  0.0874
11137TIP3   OH233349   6.284   1.019   0.791 -0.4131 -0.1850 -0.5624
11137TIP3    H133350   6.271   0.925   0.782 -0.2185 -0.1209 -1.5928
11137TIP3    H233351   6.378   1.029   0.808 -1.0169 -0.4120  3.3830
11138TIP3   OH233352   0.180   5.990   6.669 -0.0464 -0.1771 -0.4972
11138TIP3    H133353   0.207   5.974   6.759 -0.4524 -1.2864 -0.5542
11138TIP3    H233354   0.085   6.004   6.675  0.0626  0.6162 -0.6474
11139TIP3   OH233355   3.597   4.962   5.969  0.0559 -0.0002  0.2751
11139TIP3    H133356   3.554   5.001   5.893 -1.6031 -2.4570 -0.0804
11139TIP3    H233357   3.691   4.977   5.954 -0.3696  1.1697 -1.3052
11140TIP3   OH233358   7.057   1.118   1.454 -0.1379 -0.0558  0.2073
11140TIP3    H133359   7.141   1.128   1.410 -0.4985  0.6504 -0.3360
11140TIP3    H233360   7.004   1.191   1.421 -1.3319 -1.1382 -0.2934
11141TIP3   OH233361   2.636   2.877   5.056 -0.0867 -0.2547 -0.0550
11141TIP3    H133362   2.651   2.870   4.962 -1.2918 -3.4224 -0.0462
11141TIP3    H233363   2.555   2.927   5.064  0.5256  0.8543 -0.6389
11142TIP3   OH233364   6.679   2.303   0.526  0.1976  0.1602  0.3242
11142TIP3    H133365   6.599   2.344   0.492  0.9036  1.9650  0.7907
11142TIP3    H233366   6.707   2.360   0.598  2.1711 -0.1468 -0.1590
11143TIP3   OH233367   7.911   0.297   0.455 -0.5762  0.1020 -0.3697
11143TIP3    H133368   7.995   0.322   0.416 -0.7399  1.1699 -0.0566
11143TIP3    H233369   7.858   0.267   0.380  0.1184 -0.6969 -0.5491
11144TIP3   OH233370   6.027   7.366   0.327  0.1054  0.0724 -0.3980
11144TIP3    H133371   6.015   7.407   0.241 -0.2701 -0.6024 -0.6742
11144TIP3    H233372   5.938   7.343   0.354  0.1111  1.2864  0.6766
11145TIP3   OH233373   1.886   3.143   6.796 -0.1605  0.7132  0.3652
11145TIP3    H133374   1.799   3.176   6.773 -0.2168 -0.7501 -1.7517
11145TIP3    H233375   1.945   3.192   6.739  0.1730  0.1584  0.2328
11146TIP3   OH233376   3.265   5.235   6.717  0.3528  0.2720 -0.3584
11146TIP3    H133377   3.334   5.281   6.669  0.6278  0.7053  0.4382
11146TIP3    H233378   3.310   5.162   6.760  1.0960  2.6334  3.1622
11147TIP3   OH233379   4.255   3.715   4.700 -0.8010  0.3787 -1.2379
11147TIP3    H133380   4.177   3.712   4.645 -1.3068  3.3086 -0.7528
11147TIP3    H233381   4.222   3.743   4.786  0.5409 -0.0968 -0.5601
11148TIP3   OH233382   3.400   4.107   6.128  0.1762 -0.5185  0.8420
11148TIP3    H133383   3.368   4.196   6.117  0.5157 -0.1559  2.7387
11148TIP3    H233384   3.495   4.116   6.137  0.3699 -1.2074 -0.3564
11149TIP3   OH233385   1.774   3.763   5.104 -0.3834  0.0417  0.1200
11149TIP3    H133386   1.682   3.772   5.131 -0.0331  0.9089  1.0341
11149TIP3    H233387   1.811   3.699   5.165 -0.2221  0.1462  0.1294
11150TIP3   OH233388   3.174   3.727   5.865  0.0106 -0.1415  0.1684
11150TIP3    H133389   3.254   3.774   5.890  0.0642  0.2740 -0.7717
11150TIP3    H233390   3.167   3.741   5.770 -1.0045 -0.4470  0.1996
11151TIP3   OH233391   5.158   5.367   5.841 -0.4679 -0.7960 -0.1394
11151TIP3    H133392   5.108   5.285   5.843 -0.1778 -0.9594  0.4066
11151TIP3    H233393   5.247   5.340   5.817 -0.8090 -0.4188 -1.9174
11152TIP3   OH233394   4.674   4.596   5.335 -0.8649  0.1323  0.0319
11152TIP3    H133395   4.587   4.635   5.346 -1.6491 -1.7011  0.4275
11152TIP3    H233396   4.716   4.610   5.420 -0.8476  0.8097 -0.0826
11153TIP3   OH233397   3.180   3.110   5.617  0.0579 -0.1933 -0.5836
11153TIP3    H133398   3.248   3.159   5.663 -0.6565  1.7928 -1.5744
11153TIP3    H233399   3.227   3.061   5.550  0.6505  0.1275 -0.4077
11154TIP3   OH233400   4.089   7.002   0.981  0.1142 -0.2617 -0.2033
11154TIP3    H133401   3.999   6.970   0.988 -0.1900  0.1569 -2.0527
11154TIP3    H233402   4.089   7.086   1.027 -0.6081  0.0385 -0.7395
11155TIP3   OH233403   6.518   1.845   1.505 -0.0753  0.1411 -0.0120
11155TIP3    H133404   6.447   1.832   1.568 -0.1305  0.8649  0.0835
11155TIP3    H233405   6.494   1.790   1.431 -0.7869  0.4388 -0.0134
11156TIP3   OH233406   7.147   2.734   0.473  0.1102 -0.6591  0.3219
11156TIP3    H133407   7.094   2.722   0.551 -0.4671  1.3907  0.2886
11156TIP3    H233408   7.139   2.652   0.425  0.1486 -1.7901  2.2011
11157TIP3   OH233409   6.626   0.002   0.039  0.6146 -0.2225  0.1819
11157TIP3    H133410   6.671   0.084   0.020 -0.9844  0.7820  0.6022
11157TIP3    H233411   6.603   0.008   0.132  2.2386 -2.0280  0.7191
11158TIP3   OH233412   3.592   1.763   6.828  0.6460 -0.7291  1.1769
11158TIP3    H133413   3.664   1.732   6.773 -0.2687 -1.6708  0.4973
11158TIP3    H233414   3.522   1.785   6.766  0.5330  0.7027  1.7918
11159TIP3   OH233415   8.011   2.184   0.171 -0.0004  0.1695  0.3319
11159TIP3    H133416   7.933   2.140   0.139  0.9509 -0.5926 -0.9818
11159TIP3    H233417   8.080   2.161   0.108  0.8267  2.4130  0.3700
11160TIP3   OH233418   1.724   5.308   5.469  0.9366 -0.4995 -0.0921
11160TIP3    H133419   1.673   5.360   5.406  1.1564 -0.8159 -0.5312
11160TIP3    H233420   1.746   5.370   5.539  0.0623 -0.3301  0.0353
11161TIP3   OH233421   3.813   6.161   5.076  0.4004  0.1215  0.5640
11161TIP3    H133422   3.872   6.109   5.130  0.2121  0.3928  1.0399
11161TIP3    H233423   3.729   6.157   5.122 -0.1620 -0.9445 -0.5390
11162TIP3   OH233424   7.570   1.016   1.322 -0.2295  0.2219  0.0713
11162TIP3    H133425   7.599   0.944   1.267  0.3980  1.6981 -1.5512
11162TIP3    H233426   7.648   1.071   1.332 -0.4930  0.2882  1.9533
11163TIP3   OH233427   2.302   3.397   5.888 -0.2609 -0.1574 -0.1699
11163TIP3    H133428   2.242   3.326   5.865 -0.3139 -0.3179  0.4627
11163TIP3    H233429   2.246   3.470   5.912 -0.2307 -0.6662  1.5519
11164TIP3   OH233430   0.933   4.787   5.099  0.4024 -0.0340  0.0275
11164TIP3    H133431   0.877   4.841   5.044  1.5870  0.1389 -1.0455
11164TIP3    H233432   0.929   4.828   5.186  0.6953  1.3537 -0.5927
11165TIP3   OH233433   2.341   4.144   5.645  0.3014 -0.1101 -0.1448
11165TIP3    H133434   2.265   4.087   5.631 -0.0071  0.8209 -2.4465
11165TIP3    H233435   2.410   4.107   5.589  1.5596 -0.9234  1.8936
11166TIP3   OH233436   1.238   5.158   5.508  0.0751  0.4509  0.1090
11166TIP3    H133437   1.239   5.246   5.472 -0.2885  1.2548  2.0075
11166TIP3    H233438   1.291   5.163   5.587  0.9020 -1.2813 -0.3032
11167TIP3   OH233439   6.185   7.724   0.693 -0.0288 -0.1417  0.3345
11167TIP3    H133440   6.202   7.674   0.613  0.6430  0.8235 -0.1366
11167TIP3    H233441   6.241   7.684   0.759  0.4409 -0.0708 -0.0188
11168TIP3   OH233442   0.879   1.215   1.356 -0.3969  0.1066 -0.8524
11168TIP3    H133443   0.795   1.239   1.395 -0.1334 -1.4137  0.7520
11168TIP3    H233444   0.928   1.175   1.429  2.7048  3.2709 -1.0668
11169TIP3   OH233445   2.905   4.019   6.220 -0.1955  0.2364 -0.3720
11169TIP3    H133446   2.873   4.034   6.309 -1.1731  1.2770 -0.8949
11169TIP3    H233447   2.917   3.924   6.215 -1.9114 -0.0435  0.2863
11170TIP3   OH233448   1.567   6.025   6.846 -0.2962  0.1373 -0.2143
11170TIP3    H133449   1.492   6.045   6.790 -0.0413 -0.0401 -0.6197
11170TIP3    H233450   1.591   6.109   6.885  0.3950  0.5267 -1.4505
11171TIP3   OH233451   2.276   3.823   5.267  0.0989  0.0671  0.2901
11171TIP3    H133452   2.277   3.731   5.242 -0.7947 -0.4845  2.1667
11171TIP3    H233453   2.308   3.823   5.357  1.3082  1.7392 -0.1216
11172TIP3   OH233454   2.814   2.944   5.423  0.5592 -0.0860 -0.2914
11172TIP3    H133455   2.883   2.878   5.421  0.2057 -0.5416  1.5779
11172TIP3    H233456   2.762   2.928   5.344  2.2151 -0.1276 -1.3970
11173TIP3   OH233457   2.653   5.654   5.542  0.2515  0.1234  0.5326
11173TIP3    H133458   2.702   5.597   5.483  1.7042  1.4648  0.4165
11173TIP3    H233459   2.611   5.594   5.604 -0.1583 -1.2038 -1.0097
11174TIP3   OH233460   7.273   6.813   1.559 -0.1344 -0.1131  0.3489
11174TIP3    H133461   7.242   6.879   1.497 -0.1762  1.9211  2.4649
11174TIP3    H233462   7.368   6.809   1.544 -0.3592 -0.8792 -0.9768
11175TIP3   OH233463   0.217   3.891   6.791 -0.8238  0.1491 -0.1255
11175TIP3    H133464   0.144   3.832   6.772 -2.1386  2.1368 -1.4914
11175TIP3    H233465   0.292   3.852   6.746 -1.3310 -1.2444  0.2262
11176TIP3   OH233466   8.533   0.497   2.399  0.0220 -0.5656  0.3671
11176TIP3    H133467   8.458   0.443   2.375 -0.9568  0.9806 -0.1603
11176TIP3    H233468   8.495   0.570   2.448  1.2283 -0.0214  0.4974
11177TIP3   OH233469   4.190   3.286   5.990 -0.1212 -0.3796 -0.4112
11177TIP3    H133470   4.158   3.196   5.979  1.1818 -1.0010  0.6638
11177TIP3    H233471   4.228   3.287   6.079  1.2080  0.8055 -0.9670
11178TIP3   OH233472   5.445   7.447   2.760 -0.3521  0.1617  0.3223
11178TIP3    H133473   5.444   7.485   2.672 -1.4974  0.2747  0.3696
11178TIP3    H233474   5.448   7.352   2.745  0.8843  0.2180  0.1836
11179TIP3   OH233475   3.135   3.249   4.052  0.0770 -0.0560  0.0230
11179TIP3    H133476   3.139   3.180   3.985  1.8779  0.9513 -0.9330
11179TIP3    H233477   3.213   3.237   4.105  0.0992  0.8872  0.2180
11180TIP3   OH233478   7.278   3.700   0.281  0.6455 -0.4129  0.2194
11180TIP3    H133479   7.349   3.743   0.234  1.9216 -0.6099  1.8838
11180TIP3    H233480   7.323   3.640   0.341 -0.9018 -0.3060  1.5180
11181TIP3   OH233481   8.122   0.266   0.109  0.6647  0.3507  0.1794
11181TIP3    H133482   8.181   0.203   0.068  1.4435  1.8803 -1.1019
11181TIP3    H233483   8.037   0.252   0.066  0.4735 -0.7620  0.8977
11182TIP3   OH233484   7.851   0.796   0.976 -0.0722 -0.0459 -0.0649
11182TIP3    H133485   7.818   0.706   0.967  1.1724 -0.6372  1.0889
11182TIP3    H233486   7.934   0.797   0.928 -0.8001  0.9089 -1.3325
11183TIP3   OH233487   5.852   3.925   5.665 -0.5055 -0.4236  0.5098
11183TIP3    H133488   5.773   3.979   5.658 -1.0381 -1.1275  1.0688
11183TIP3    H233489   5.850   3.870   5.587 -0.2725 -0.0555  0.2414
11184TIP3   OH233490   3.549   3.327   6.448  0.6052 -0.1411  0.0331
11184TIP3    H133491   3.478   3.368   6.399  1.7497  1.8082 -0.0626
11184TIP3    H233492   3.610   3.295   6.382 -0.6807 -2.8224  0.0847
11185TIP3   OH233493   5.767   7.888   0.483 -0.2158 -0.2743 -0.3901
11185TIP3    H133494   5.741   7.852   0.397 -0.3899  1.6367 -1.1593
11185TIP3    H233495   5.850   7.932   0.466  0.5095 -1.1638  0.7765
11186TIP3   OH233496   0.225   1.162   0.018 -0.2427  0.0952  0.7476
11186TIP3    H133497   0.238   1.152   0.112  0.0012  1.3643  0.8582
11186TIP3    H233498   0.166   1.238   0.010 -0.2614 -0.0073 -0.1167
11187TIP3   OH233499   1.803   1.748   5.155 -0.0287  0.2321  0.3500
11187TIP3    H133500   1.751   1.698   5.218  0.4129  0.3278  0.7935
11187TIP3    H233501   1.743   1.817   5.124 -0.1543  0.3683  0.8855
11188TIP3   OH233502   2.440   2.741   6.086 -0.0076  0.0569  0.0779
11188TIP3    H133503   2.401   2.716   6.003  1.4724 -1.5933 -0.1385
11188TIP3    H233504   2.503   2.810   6.063 -0.1896  0.1843 -0.0427
11189TIP3   OH233505   8.229   2.077   1.428  0.1782 -0.0952  0.0695
11189TIP3    H133506   8.217   2.119   1.513  0.0972 -0.3501  0.1833
11189TIP3    H233507   8.323   2.062   1.422  0.2966  0.7350 -0.2708
11190TIP3   OH233508   0.994   3.220   6.921 -0.1493 -0.0908  0.4668
11190TIP3    H133509   0.978   3.126   6.908  1.6491 -0.3912  0.3817
11190TIP3    H233510   1.081   3.225   6.959 -0.7025  1.5019  1.5928
11191TIP3   OH233511   8.216   0.491   1.514 -0.4784  0.2607  0.0090
11191TIP3    H133512   8.163   0.415   1.491 -0.5556 -0.0469  1.1427
11191TIP3    H233513   8.231   0.537   1.431 -1.4813 -0.3116 -0.4991
11192TIP3   OH233514   8.341   1.338   0.533  0.2595  0.1459  0.2865
11192TIP3    H133515   8.416   1.279   0.535  1.7796  2.0293  0.6543
11192TIP3    H233516   8.292   1.312   0.455  1.5986 -0.7603 -0.2763
11193TIP3   OH233517   1.897   3.934   4.939 -0.1074  0.4877 -0.1525
11193TIP3    H133518   1.873   3.866   5.001  0.4774  0.2040 -0.2334
11193TIP3    H233519   1.818   3.987   4.929  0.1689  1.3206  1.8445
11194TIP3   OH233520   3.599   4.169   6.806 -0.1353 -0.2170 -0.3860
11194TIP3    H133521   3.533   4.163   6.737  1.9716 -1.3851 -2.3684
11194TIP3    H233522   3.608   4.079   6.838  0.9504 -0.1746 -0.5661
11195TIP3   OH233523   3.120   4.678   5.400  0.2451  0.0513  0.1618
11195TIP3    H133524   3.036   4.632   5.400  0.9816 -1.3308  1.5886
11195TIP3    H233525   3.099   4.767   5.425 -1.0237  0.1728 -1.2800
11196TIP3   OH233526   3.904   4.561   4.792  0.1681 -0.1344  0.2254
11196TIP3    H133527   3.903   4.491   4.726 -1.0060 -0.6943  0.8155
11196TIP3    H233528   3.963   4.627   4.756  0.3964 -0.9213 -0.8819
11197TIP3   OH233529   0.641   0.818   2.784 -0.1182 -0.2694 -0.0795
11197TIP3    H133530   0.661   0.726   2.803  1.8940 -0.1522 -1.4975
11197TIP3    H233531   0.678   0.833   2.697  0.5574  2.2031  0.6106
11198TIP3   OH233532   5.100   3.645   4.325  0.7001 -0.0689  0.0074
11198TIP3    H133533   5.195   3.629   4.328  0.9466  1.4013  0.3013
11198TIP3    H233534   5.082   3.698   4.402 -0.0713  1.1455 -0.9925
11199TIP3   OH233535   3.801   2.457   6.657  0.2165 -0.2942  0.0070
11199TIP3    H133536   3.866   2.527   6.664  0.2772 -0.3460 -0.0346
11199TIP3    H233537   3.849   2.384   6.617  0.4690 -0.7672  1.1639
11200TIP3   OH233538   8.466   0.457   1.279 -0.3019 -0.4218  0.4236
11200TIP3    H133539   8.556   0.487   1.294 -0.2447 -0.2439 -0.2436
11200TIP3    H233540   8.452   0.469   1.185 -1.1187 -0.1794  0.5648
11201TIP3   OH233541   5.321   1.827   1.482 -0.0394 -0.4131 -0.5428
11201TIP3    H133542   5.282   1.882   1.550 -0.8646  0.5018 -1.7439
11201TIP3    H233543   5.416   1.836   1.496 -0.1693  0.9217 -0.4060
11202TIP3   OH233544   3.298   7.953   2.153 -0.2186 -0.3728 -0.0210
11202TIP3    H133545   3.385   7.912   2.148 -0.1416 -0.1742 -0.3213
11202TIP3    H233546   3.316   8.043   2.180 -0.5332 -1.0622  2.5836
11203TIP3   OH233547   1.363   2.317   6.758  0.2575 -0.4428  0.3708
11203TIP3    H133548   1.436   2.255   6.765  2.1779  1.7183 -0.2019
11203TIP3    H233549   1.336   2.310   6.666 -0.3280 -1.2928  0.5988
11204TIP3   OH233550   2.729   4.790   5.085  0.3008 -0.1781 -0.2695
11204TIP3    H133551   2.769   4.735   5.151 -0.6304 -1.8494 -1.0754
11204TIP3    H233552   2.798   4.803   5.019  1.0286  0.9832  0.6870
11205TIP3   OH233553   7.097   0.069   0.934 -0.3884 -0.2641 -0.8479
11205TIP3    H133554   7.150   0.104   0.862  0.6296 -2.7933 -1.4128
11205TIP3    H233555   7.073  -0.019   0.905 -1.6309 -0.5930  1.0786
11206TIP3   OH233556   0.730   5.429   3.589  0.3798  0.4615  0.0708
11206TIP3    H133557   0.822   5.422   3.616 -0.2258  2.0010  2.6700
11206TIP3    H233558   0.730   5.498   3.522  1.1264  0.3647 -0.0311
11207TIP3   OH233559   1.392   6.193   5.638  0.1673 -0.7509  0.1647
11207TIP3    H133560   1.434   6.269   5.596  0.7488 -0.6005  1.0143
11207TIP3    H233561   1.394   6.213   5.731  0.2713 -1.8002  0.3865
11208TIP3   OH233562   3.743   6.840   0.376  0.0041 -0.6119 -0.0951
11208TIP3    H133563   3.737   6.828   0.281 -1.0182 -0.3590 -0.0666
11208TIP3    H233564   3.784   6.760   0.407 -1.0079 -1.3376 -0.5933
11209TIP3   OH233565   8.198   0.688   1.308  0.3310  0.0391  0.8709
11209TIP3    H133566   8.159   0.758   1.361 -1.2279  0.8521 -1.2853
11209TIP3    H233567   8.270   0.730   1.262 -1.9025  0.8437 -2.0464
11210TIP3   OH233568   3.692   3.232   6.774 -1.2865  0.0841 -0.4974
11210TIP3    H133569   3.712   3.309   6.721 -1.0380 -1.2491 -2.3883
11210TIP3    H233570   3.770   3.219   6.829 -1.6288  1.5932  0.3574
11211TIP3   OH233571   2.922   2.700   6.608  0.1476 -0.0199 -0.2179
11211TIP3    H133572   3.009   2.710   6.569 -0.1549 -0.6213 -1.0655
11211TIP3    H233573   2.878   2.783   6.590  0.7658  0.5245  0.7716
11212TIP3   OH233574   6.975   1.461   0.705  0.3816 -0.7288  0.3183
11212TIP3    H133575   6.881   1.476   0.705  0.7193  1.5661 -0.6635
11212TIP3    H233576   7.013   1.542   0.671  2.7151 -1.6203  0.6644
11213TIP3   OH233577   5.360   4.474   6.722  0.3085  0.3649  0.6406
11213TIP3    H133578   5.301   4.425   6.779  1.5860  0.4212  2.0417
11213TIP3    H233579   5.329   4.455   6.634 -1.3784 -0.1505  1.3123
11214TIP3   OH233580   7.518   1.630   2.043  0.2640  0.4577  0.1731
11214TIP3    H133581   7.546   1.550   1.998  1.6683  0.4476  1.0252
11214TIP3    H233582   7.427   1.642   2.016  0.0318 -1.4296  0.0386
11215TIP3   OH233583   1.855   5.583   6.184 -0.8676 -0.2379  0.0217
11215TIP3    H133584   1.896   5.498   6.166  2.6321  1.0715  1.5325
11215TIP3    H233585   1.871   5.599   6.277 -3.2980  1.1827  0.2541
11216TIP3   OH233586   1.571   4.012   6.170 -0.7903  0.8513 -0.6978
11216TIP3    H133587   1.643   3.983   6.225 -0.8947  1.8263 -0.0415
11216TIP3    H233588   1.611   4.074   6.108 -1.0688  1.4254 -0.3073
11217TIP3   OH233589   1.195   5.435   6.654 -0.1214  0.0700  0.2829
11217TIP3    H133590   1.182   5.454   6.747  1.5092 -2.1129  1.0150
11217TIP3    H233591   1.222   5.518   6.616  0.1034  0.7864  1.9700
11218TIP3   OH233592   3.400   7.110   5.761 -0.2170 -0.0430 -0.0441
11218TIP3    H133593   3.392   7.134   5.853 -2.4976 -2.8221  0.5554
11218TIP3    H233594   3.334   7.163   5.717  2.4929  3.0822 -0.5350
11219TIP3   OH233595   2.884   4.150   6.848 -0.6816  0.0020 -0.4891
11219TIP3    H133596   2.875   4.235   6.892  0.4068 -0.0605 -0.1291
11219TIP3    H233597   2.960   4.160   6.792  0.2578 -1.1468  0.5509
11220TIP3   OH233598   1.252   4.662   5.265  0.2561 -0.2942 -0.0631
11220TIP3    H133599   1.179   4.600   5.255 -0.3503  0.6421 -1.5826
11220TIP3    H233600   1.313   4.617   5.324 -1.4567 -1.1772  1.0917
11221TIP3   OH233601   3.592   5.223   6.128  0.4109 -0.2658 -0.1027
11221TIP3    H133602   3.577   5.200   6.219  1.3057  0.4875  0.2360
11221TIP3    H233603   3.573   5.142   6.080  1.0133 -0.9793  0.8413
11222TIP3   OH233604   2.318   4.204   5.373  0.6544 -0.2460  0.1419
11222TIP3    H133605   2.244   4.258   5.402  0.2843 -0.6705  0.0015
11222TIP3    H233606   2.284   4.155   5.299  1.2113 -0.1270 -0.1931
11223TIP3   OH233607   5.874   7.777   1.943  0.0028 -0.9705 -0.0369
11223TIP3    H133608   5.849   7.857   1.896  0.3727 -1.0148 -0.3104
11223TIP3    H233609   5.912   7.809   2.025  1.4699 -0.8144 -0.7710
11224TIP3   OH233610   0.106   0.338   0.152  0.4561  0.1175  0.1727
11224TIP3    H133611   0.024   0.371   0.189 -1.6816 -2.1206 -2.3877
11224TIP3    H233612   0.121   0.394   0.075 -1.0847 -2.2434 -1.9046
11225TIP3   OH233613   7.379   0.770   1.516  0.1713 -0.2226  0.0354
11225TIP3    H133614   7.345   0.710   1.450  0.8836  0.8788 -1.3672
11225TIP3    H233615   7.308   0.779   1.579  0.1074 -2.6274  0.3640
11226TIP3   OH233616   0.738   4.973   4.984 -0.4654  0.1294 -0.7245
11226TIP3    H133617   0.701   5.055   5.018 -0.5545 -0.1703 -0.0807
11226TIP3    H233618   0.816   5.000   4.936 -1.5526  0.7743 -2.1418
11227TIP3   OH233619   0.705   4.811   6.596 -0.8933 -0.1835  0.5584
11227TIP3    H133620   0.686   4.858   6.515  0.8738  1.2605  0.9696
11227TIP3    H233621   0.629   4.829   6.652 -0.6957  1.3441  0.3464
11228TIP3   OH233622   1.523   2.448   5.249  0.7461 -0.1753  0.0190
11228TIP3    H133623   1.563   2.369   5.212  0.7587 -0.8201  1.3638
11228TIP3    H233624   1.430   2.438   5.231  0.3102 -2.0653  2.8684
11229TIP3   OH233625   3.132   5.932   5.246 -0.0009 -0.3541 -0.1011
11229TIP3    H133626   3.128   6.021   5.281 -2.1317  0.3145 -1.9664
11229TIP3    H233627   3.105   5.876   5.319 -1.0830  0.7292  0.3318
11230TIP3   OH233628   2.594   3.964   5.224 -0.5637 -0.1412 -0.1802
11230TIP3    H133629   2.568   3.872   5.225  0.9215 -0.5726 -0.5340
11230TIP3    H233630   2.625   3.980   5.135  0.8349  0.2127  0.3539
11231TIP3   OH233631   2.329   6.633   6.304  0.8469  0.2677  0.2104
11231TIP3    H133632   2.246   6.607   6.344  1.4394 -0.4389  0.9900
11231TIP3    H233633   2.387   6.558   6.319  1.5690  0.6845 -0.4950
11232TIP3   OH233634   2.877   4.185   4.846 -0.2781 -0.6478 -0.1157
11232TIP3    H133635   2.820   4.125   4.798 -0.3643 -0.1511 -0.6341
11232TIP3    H233636   2.919   4.238   4.778 -1.8478  1.3752  0.4706
11233TIP3   OH233637   7.515   0.685   0.091 -0.6980 -0.0919 -0.3527
11233TIP3    H133638   7.586   0.632   0.055  1.3885  3.0140 -1.0785
11233TIP3    H233639   7.560   0.760   0.130 -3.5532  1.4826  0.0398
11234TIP3   OH233640   2.309   3.206   6.935 -0.2479 -0.1162 -0.3131
11234TIP3    H133641   2.383   3.175   6.986 -0.6175 -0.0905  0.2481
11234TIP3    H233642   2.346   3.269   6.874  0.0071  0.9410  0.9012
11235TIP3   OH233643   2.780   5.516   6.490 -0.5922  0.5538 -0.2768
11235TIP3    H133644   2.834   5.462   6.431 -1.6123 -1.1169  0.2693
11235TIP3    H233645   2.709   5.548   6.434 -0.5859  0.4324 -0.3557
11236TIP3   OH233646   3.443   2.720   6.386 -0.7019 -0.4043  0.7088
11236TIP3    H133647   3.491   2.642   6.415  2.7665  0.5113 -2.2862
11236TIP3    H233648   3.384   2.688   6.318  0.8286 -0.4666 -0.6275
11237TIP3   OH233649   6.329   7.301   0.018  0.3165  0.3838 -0.4141
11237TIP3    H133650   6.336   7.396   0.018 -0.7609  0.4764  0.3590
11237TIP3    H233651   6.331   7.277   0.111  0.8769 -0.3685 -0.6171
11238TIP3   OH233652   7.843   2.300   4.445  0.0148  0.0560 -0.7422
11238TIP3    H133653   7.888   2.245   4.381 -0.3720  0.0398 -1.0018
11238TIP3    H233654   7.861   2.390   4.415 -0.0886  0.0501 -0.8254
11239TIP3   OH233655   1.587   3.863   5.282  0.1046 -0.1995 -0.4433
11239TIP3    H133656   1.668   3.849   5.331 -0.3888  3.0977  1.4538
11239TIP3    H233657   1.519   3.825   5.338 -0.0742  0.3581 -0.2867
11240TIP3   OH233658   3.825   6.628   6.638  0.2331  0.4382 -0.1321
11240TIP3    H133659   3.742   6.637   6.685  0.4409 -2.7926  0.9310
11240TIP3    H233660   3.800   6.590   6.553  0.4421  1.1385 -0.5081
11241TIP3   OH233661   1.024   4.989   5.572 -0.1944 -0.0786  0.4362
11241TIP3    H133662   1.102   5.038   5.547  1.1442 -1.3671  1.9911
11241TIP3    H233663   0.978   5.046   5.634  0.3808 -0.0125  0.8023
11242TIP3   OH233664   2.738   7.430   6.109 -0.0293  0.5091 -0.3693
11242TIP3    H133665   2.702   7.350   6.147  0.5532  1.4322  2.2292
11242TIP3    H233666   2.833   7.418   6.111  0.0455  1.0567 -0.4997
11243TIP3   OH233667   0.434   1.569   1.368 -0.0416 -0.4278 -0.4261
11243TIP3    H133668   0.438   1.641   1.305 -0.3054  0.1762  0.2455
11243TIP3    H233669   0.481   1.601   1.444 -0.6200 -0.7623  0.0750
11244TIP3   OH233670   2.240   4.974   6.328 -0.4403  0.2118 -0.0918
11244TIP3    H133671   2.300   5.043   6.300 -0.7131  0.5420  0.1341
11244TIP3    H233672   2.210   4.933   6.247  2.6825 -2.1673 -0.1196
11245TIP3   OH233673   1.881   6.389   4.943 -0.1602  0.3596 -0.4135
11245TIP3    H133674   1.844   6.477   4.936 -1.3925 -0.1237 -0.0593
11245TIP3    H233675   1.829   6.345   5.010  0.3651 -0.6797 -0.6610
11246TIP3   OH233676   2.029   5.313   5.026 -0.1280  0.8108 -0.0583
11246TIP3    H133677   2.001   5.224   5.007  0.6111  0.7951 -1.1333
11246TIP3    H233678   2.122   5.314   5.004 -0.2315  1.9699 -0.4797
11247TIP3   OH233679   7.775   0.435   2.381  0.0975 -0.0484 -0.1816
11247TIP3    H133680   7.697   0.388   2.408 -1.3090  2.4054  0.1945
11247TIP3    H233681   7.808   0.475   2.462 -0.0388  1.4424 -0.8420
11248TIP3   OH233682   0.856   4.426   5.876 -0.1313  0.2079  0.6824
11248TIP3    H133683   0.919   4.419   5.947  1.2139 -0.4855 -0.5389
11248TIP3    H233684   0.772   4.443   5.919  0.7185  0.1691  2.3908
11249TIP3   OH233685   0.689   1.848   0.992  0.2690  0.5581 -0.1041
11249TIP3    H133686   0.782   1.837   1.010 -0.0262 -0.3674  0.9911
11249TIP3    H233687   0.681   1.934   0.952  1.5099  0.9563  0.4840
11250TIP3   OH233688   4.995   7.761   0.728  0.6017 -0.2256 -0.3695
11250TIP3    H133689   5.088   7.762   0.703  0.0836  0.6205 -2.2884
11250TIP3    H233690   4.975   7.669   0.743  1.6430 -0.4560 -0.3406
11251TIP3   OH233691   1.904   4.847   6.174 -0.3922  0.5858  0.0200
11251TIP3    H133692   1.995   4.857   6.146 -0.4719 -0.3952 -0.6354
11251TIP3    H233693   1.854   4.897   6.110 -0.4793 -0.6803 -0.9208
11252TIP3   OH233694   5.896   6.614   2.627 -0.5954  0.0244  0.2944
11252TIP3    H133695   5.825   6.553   2.644 -0.1986 -0.6140 -0.3291
11252TIP3    H233696   5.974   6.559   2.621 -0.0268  0.7200  1.0364
11253TIP3   OH233697   0.140   3.389   5.785  0.2656 -1.2872 -0.3287
11253TIP3    H133698   0.118   3.375   5.692 -0.6502 -1.0599 -0.1468
11253TIP3    H233699   0.234   3.407   5.784  0.0741 -0.2617 -1.3307
11254TIP3   OH233700   5.472   7.586   0.968  0.1210 -0.2117 -0.1800
11254TIP3    H133701   5.394   7.530   0.959 -1.6895  2.5519 -2.3571
11254TIP3    H233702   5.541   7.537   0.924 -1.2272 -1.1877 -1.2944
11255TIP3   OH233703   3.979   3.931   4.819 -0.0332  0.4195 -0.1499
11255TIP3    H133704   3.926   4.008   4.804  0.3228  0.4337 -1.3704
11255TIP3    H233705   3.967   3.911   4.912 -2.1362  0.4242 -0.4100
11256TIP3   OH233706   5.254   1.125   1.392 -0.2237 -0.3920  0.8286
11256TIP3    H133707   5.333   1.178   1.384  0.0136 -0.8561  0.0920
11256TIP3    H233708   5.239   1.120   1.487 -1.4319  2.6838  0.8354
11257TIP3   OH233709   1.893   2.331   5.872 -0.8096  0.0212  0.1318
11257TIP3    H133710   1.863   2.251   5.915 -0.5879 -0.3255 -0.3567
11257TIP3    H233711   1.933   2.382   5.942 -1.3264 -0.1122  0.5258
11258TIP3   OH233712   3.529   7.762   1.322  0.3259 -0.7191  0.1743
11258TIP3    H133713   3.603   7.707   1.297  0.1844  0.1041 -2.2263
11258TIP3    H233714   3.466   7.751   1.250 -1.2958 -0.3209  1.4904
11259TIP3   OH233715   2.448   3.435   6.870  0.1295  0.2185  0.4954
11259TIP3    H133716   2.463   3.467   6.959 -1.1665  1.3343  0.3375
11259TIP3    H233717   2.531   3.450   6.825  0.3224  1.0768  1.1137
11260TIP3   OH233718   2.509   4.411   6.014  0.1187  0.2398  0.2008
11260TIP3    H133719   2.542   4.441   5.930 -0.1612  0.3848  0.1414
11260TIP3    H233720   2.579   4.431   6.077  0.8688 -1.0446 -0.2017
11261TIP3   OH233721   4.608   8.007   1.218  0.7654  0.2841 -0.0130
11261TIP3    H133722   4.521   8.039   1.239  0.1650 -0.1796 -1.7370
11261TIP3    H233723   4.623   7.935   1.279  0.0314  0.5032  0.4248
11262TIP3   OH233724   2.243   1.066   2.720  0.1374 -0.5641 -0.3601
11262TIP3    H133725   2.256   1.081   2.814  0.9870 -0.7896 -0.4412
11262TIP3    H233726   2.157   1.105   2.702 -0.2090 -0.8592  0.5849
11263TIP3   OH233727   6.607   6.323   1.057 -0.2435  0.4363 -0.2375
11263TIP3    H133728   6.538   6.264   1.029 -0.0248 -1.0709  2.2389
11263TIP3    H233729   6.572   6.364   1.137  1.4056  0.1883  0.6392
11264TIP3   OH233730   7.598   7.383   1.297  0.0073  0.3578  0.0901
11264TIP3    H133731   7.539   7.459   1.296  0.1776  0.5516  2.0397
11264TIP3    H233732   7.680   7.417   1.334 -0.2365 -0.9585  1.9393
11265TIP3   OH233733   0.916   5.817   5.819 -0.3212  0.2618 -0.7201
11265TIP3    H133734   0.971   5.784   5.748 -0.1650 -0.7164 -0.1516
11265TIP3    H233735   0.877   5.739   5.858  0.5031  0.6746  1.0131
11266TIP3   OH233736   5.370   7.521   1.833  0.4677 -0.8252  0.3281
11266TIP3    H133737   5.352   7.548   1.743  0.4827 -2.0095 -0.0390
11266TIP3    H233738   5.369   7.602   1.884  0.8463 -0.1114 -0.8067
11267TIP3   OH233739   2.822   5.950   6.602  0.6203 -0.5213 -0.0094
11267TIP3    H133740   2.755   6.000   6.556  0.9646  0.1408  0.1934
11267TIP3    H233741   2.897   5.950   6.542  1.0212  0.2252  0.4730
11268TIP3   OH233742   2.572   2.990   6.069 -0.2495  0.4616  0.4094
11268TIP3    H133743   2.624   3.051   6.121 -1.8277  1.8662  0.3594
11268TIP3    H233744   2.600   3.006   5.979  0.1171  0.3162  0.4933
11269TIP3   OH233745   1.786   6.256   3.770 -0.3155 -0.8803 -0.5114
11269TIP3    H133746   1.700   6.213   3.762 -0.7033 -0.1821 -0.1792
11269TIP3    H233747   1.849   6.185   3.763 -0.9772 -1.6224  0.8837
11270TIP3   OH233748   1.720   3.794   6.881  0.0592  0.2661 -0.1438
11270TIP3    H133749   1.659   3.847   6.933 -0.8867  0.6750 -1.6438
11270TIP3    H233750   1.665   3.729   6.838  0.6682  0.6093 -1.4801
11271TIP3   OH233751   1.249   6.903   6.730 -0.5174  0.4460  0.2970
11271TIP3    H133752   1.235   6.948   6.814 -1.2016  0.8753 -0.0383
11271TIP3    H233753   1.169   6.921   6.680 -0.1512  0.1152 -0.4121
11272TIP3   OH233754   5.720   1.415   1.321 -0.5750 -0.1973 -0.1422
11272TIP3    H133755   5.788   1.354   1.294 -0.3048 -0.1845  0.5051
11272TIP3    H233756   5.741   1.497   1.275  0.6423  0.2166  1.1099
11273TIP3   OH233757   0.414   5.092   6.436  0.3023  0.2138 -0.1729
11273TIP3    H133758   0.491   5.137   6.401  0.9790 -0.5559  0.3214
11273TIP3    H233759   0.342   5.154   6.421  0.9571  0.8118 -0.9115
11274TIP3   OH233760   3.260   6.193   6.411 -0.6747  0.6923  0.5814
11274TIP3    H133761   3.308   6.112   6.395 -0.5784  0.9354 -0.4257
11274TIP3    H233762   3.268   6.208   6.505  0.2045  0.1017  0.6057
11275TIP3   OH233763   0.371   1.180   2.462  0.0775 -1.2215 -0.2864
11275TIP3    H133764   0.339   1.265   2.493 -0.3717 -1.4336 -0.1642
11275TIP3    H233765   0.410   1.200   2.377 -0.0267 -0.8891 -0.2592
11276TIP3   OH233766   4.691   4.099   5.785 -0.0984 -0.1766  0.3284
11276TIP3    H133767   4.785   4.100   5.770 -0.0326  0.9800  0.7956
11276TIP3    H233768   4.652   4.092   5.698  0.4218 -1.3778  0.1826
11277TIP3   OH233769   3.030   2.115   6.036 -0.4199 -0.5130 -0.4053
11277TIP3    H133770   2.942   2.092   6.067  0.7987 -1.5191  2.4681
11277TIP3    H233771   3.032   2.086   5.945 -2.2502 -2.7398  0.2280
11278TIP3   OH233772   3.864   5.072   5.013  0.1400 -0.4769 -0.3384
11278TIP3    H133773   3.846   5.012   5.086 -0.6238 -2.0358 -1.7782
11278TIP3    H233774   3.905   5.017   4.947 -2.4619  0.0998 -2.5155
11279TIP3   OH233775   4.291   5.606   0.837 -0.8115 -0.4090 -0.7060
11279TIP3    H133776   4.256   5.668   0.773 -0.7650  0.5480  0.1988
11279TIP3    H233777   4.372   5.646   0.867  0.1976 -1.7918 -1.4904
11280TIP3   OH233778   6.009   3.697   3.776 -0.4256  0.1553 -0.1069
11280TIP3    H133779   5.932   3.703   3.719 -1.0737 -1.6287  0.5288
11280TIP3    H233780   6.080   3.670   3.718 -0.7166 -0.0560 -0.3675
11281TIP3   OH233781   3.111   2.986   5.014  0.5321  0.0166  0.1717
11281TIP3    H133782   3.020   2.987   4.985  0.7281  1.7511 -0.4411
11281TIP3    H233783   3.106   2.966   5.108 -0.2489 -3.3548 -0.5123
11282TIP3   OH233784   3.312   3.366   6.306 -0.6984  0.4940  0.8135
11282TIP3    H133785   3.323   3.274   6.284 -1.4311  0.5483  0.1870
11282TIP3    H233786   3.356   3.414   6.236 -1.1046  0.6291  0.6467
11283TIP3   OH233787   1.801   2.682   4.350  0.4773 -0.2299  0.1591
11283TIP3    H133788   1.875   2.645   4.398 -1.1662 -1.5234  1.7521
11283TIP3    H233789   1.822   2.666   4.258  2.0220 -0.8764  0.5996
11284TIP3   OH233790   3.701   6.948   6.155 -0.2120  0.3026  0.2430
11284TIP3    H133791   3.726   7.037   6.129  1.4315  0.4687  2.2858
11284TIP3    H233792   3.681   6.955   6.248 -2.2223 -1.0419 -0.0691
11285TIP3   OH233793   0.455   1.020   0.832 -0.1276 -0.1033 -0.2824
11285TIP3    H133794   0.395   1.089   0.806  2.0031  2.8593  2.3047
11285TIP3    H233795   0.437   1.005   0.925  4.2919  2.2953  1.1212
11286TIP3   OH233796   5.927   7.528   0.135 -0.3869  0.4075 -0.0129
11286TIP3    H133797   5.929   7.562   0.046  0.3060 -0.0121 -0.1569
11286TIP3    H233798   5.836   7.503   0.150 -0.5535  0.7377 -0.5055
11287TIP3   OH233799   2.952   4.108   5.096 -0.3235 -0.0166  0.2425
11287TIP3    H133800   3.021   4.043   5.081 -0.6172  0.0292 -1.3566
11287TIP3    H233801   2.932   4.143   5.009 -2.8171 -0.4712  0.5908
11288TIP3   OH233802   7.463   1.478   0.816 -0.1088  0.7380 -0.0043
11288TIP3    H133803   7.552   1.503   0.840 -0.4076  0.8453  1.0585
11288TIP3    H233804   7.410   1.504   0.892 -0.5845 -2.1218  0.7024
11289TIP3   OH233805   6.289   6.861   3.219 -0.4069  0.1693 -0.6773
11289TIP3    H133806   6.285   6.766   3.234 -1.1815  0.4304  0.8934
11289TIP3    H233807   6.270   6.899   3.304 -1.2532  1.7478 -1.5552
11290TIP3   OH233808   0.899   0.708   0.060 -0.5464  0.1901  0.2048
11290TIP3    H133809   0.857   0.624   0.042 -3.0011  1.0912  1.5460
11290TIP3    H233810   0.993   0.688   0.061 -1.0909 -2.5181  0.4690
11291TIP3   OH233811   5.256   4.942   5.515 -0.4541 -0.0267 -0.2524
11291TIP3    H133812   5.199   4.875   5.477  0.1770 -0.5537 -0.2865
11291TIP3    H233813   5.306   4.976   5.442 -0.0251 -0.2621 -0.0714
11292TIP3   OH233814   6.397   7.969   0.637 -0.2003  0.5716 -0.2949
11292TIP3    H133815   6.310   7.937   0.663 -1.0519  1.7207 -1.6062
11292TIP3    H233816   6.450   7.890   0.626 -0.8393 -0.1042  1.3408
11293TIP3   OH233817   0.516   4.398   4.954  0.1604  0.0452  0.1237
11293TIP3    H133818   0.548   4.487   4.938 -0.1884  0.1330 -0.0950
11293TIP3    H233819   0.493   4.366   4.867  1.9279 -0.8946 -0.0287
11294TIP3   OH233820   2.652   4.348   4.892  0.2290 -0.1604 -0.2801
11294TIP3    H133821   2.639   4.379   4.982 -1.3772 -0.1691 -0.4919
11294TIP3    H233822   2.732   4.297   4.896  0.1504 -0.1974  1.1709
11295TIP3   OH233823   0.198   1.263   1.601 -0.3162 -0.4306  0.0586
11295TIP3    H133824   0.132   1.312   1.651 -0.9737 -2.1614  0.9343
11295TIP3    H233825   0.187   1.172   1.630  1.6166 -0.9315 -0.7302
11296TIP3   OH233826   4.398   3.854   5.910 -0.3239  0.5603 -0.1121
11296TIP3    H133827   4.469   3.912   5.938  1.6123 -1.3221 -0.9288
11296TIP3    H233828   4.442   3.783   5.863 -3.0824  1.1838 -3.8764
11297TIP3   OH233829   6.430   0.896   0.297 -0.4258 -0.5469  0.9693
11297TIP3    H133830   6.357   0.931   0.246 -0.9474 -2.4287  0.3562
11297TIP3    H233831   6.474   0.973   0.333 -1.4136  0.7130 -0.4471
11298TIP3   OH233832   3.708   6.747   0.125  0.0299  0.2761  0.3315
11298TIP3    H133833   3.729   6.667   0.075 -2.2716 -2.1013  2.9964
11298TIP3    H233834   3.613   6.753   0.122  0.0130  1.4462  2.3706
11299TIP3   OH233835   1.679   4.754   4.749  0.2640  0.0335  0.4955
11299TIP3    H133836   1.721   4.674   4.716 -0.2304  0.0464 -0.1542
11299TIP3    H233837   1.747   4.795   4.803  0.2214 -1.2912  1.5727
11300TIP3   OH233838   4.598   7.224   0.192  0.3454 -0.1148 -0.4420
11300TIP3    H133839   4.631   7.147   0.146  0.5262  1.1296 -2.4440
11300TIP3    H233840   4.612   7.297   0.131  0.0087  1.4826  1.3309
11301TIP3   OH233841   6.944   1.773   0.905 -1.1150  0.3511  0.2395
11301TIP3    H133842   6.857   1.746   0.874 -2.2512  1.8434  2.0351
11301TIP3    H233843   6.927   1.827   0.982  1.2941  2.7225 -0.7929
11302TIP3   OH233844   0.288   1.143   0.292 -0.1690  0.2096  0.0625
11302TIP3    H133845   0.232   1.113   0.363 -1.9306  2.7048 -0.2110
11302TIP3    H233846   0.363   1.184   0.336 -0.1074 -0.3182  0.4516
11303TIP3   OH233847   3.619   4.698   5.685 -0.4450  0.5743 -0.4079
11303TIP3    H133848   3.527   4.714   5.707 -0.4397  2.6669 -1.7909
11303TIP3    H233849   3.624   4.714   5.590  1.0682 -0.8586 -0.5947
11304TIP3   OH233850   1.214   5.168   6.835  0.3137 -0.4178  0.4138
11304TIP3    H133851   1.228   5.197   6.745 -1.4437 -0.8324 -0.0191
11304TIP3    H233852   1.182   5.078   6.826 -0.3164 -0.3027  1.4222
11305TIP3   OH233853   2.021   6.300   6.830  0.1490 -0.2107  0.0018
11305TIP3    H133854   2.082   6.355   6.781 -0.1024 -0.6149 -0.7720
11305TIP3    H233855   1.935   6.338   6.812  0.2336  0.8321  1.7190
11306TIP3   OH233856   0.359   2.705   2.243  0.5025  0.0348 -0.5107
11306TIP3    H133857   0.402   2.665   2.318  0.4916 -0.8113 -0.9493
11306TIP3    H233858   0.430   2.749   2.196  1.1036 -2.2493 -1.8071
11307TIP3   OH233859   2.164   4.876   6.067  0.6418  0.9797 -0.2784
11307TIP3    H133860   2.128   4.873   5.978 -1.2156  0.0713  0.4768
11307TIP3    H233861   2.244   4.824   6.062 -0.3914 -0.5771 -1.0106
11308TIP3   OH233862   1.755   4.700   5.735 -0.0917  0.2346  0.8997
11308TIP3    H133863   1.684   4.675   5.795 -0.0965 -0.0845  0.7666
11308TIP3    H233864   1.832   4.654   5.768 -0.0731  0.1350  0.7207
11309TIP3   OH233865   0.592   4.336   6.216 -0.0027  0.0672 -0.0544
11309TIP3    H133866   0.639   4.253   6.222 -0.4129 -0.2507 -1.2782
11309TIP3    H233867   0.653   4.394   6.170 -0.3709 -0.0339 -0.6713
11310TIP3   OH233868   1.618   7.024   6.710 -0.0307 -0.3274  0.5346
11310TIP3    H133869   1.546   6.963   6.723 -0.8693 -0.3112 -3.4084
11310TIP3    H233870   1.681   6.975   6.658  0.5019  1.3147 -0.3903
11311TIP3   OH233871   1.399   6.251   5.913 -0.0690  0.1347 -0.0544
11311TIP3    H133872   1.460   6.194   5.960 -2.1326 -1.8019  0.3521
11311TIP3    H233873   1.391   6.328   5.969  1.3646  0.0457  0.2851
11312TIP3   OH233874   5.666   3.629   5.085 -0.0906 -0.1183  0.7484
11312TIP3    H133875   5.645   3.594   5.171 -0.3121  0.5599  0.9773
11312TIP3    H233876   5.680   3.723   5.100 -0.1538  0.0067  0.0481
11313TIP3   OH233877   6.096   4.731   6.127 -0.0478  0.5590  0.2435
11313TIP3    H133878   6.080   4.766   6.039  0.6747  2.8374  1.0013
11313TIP3    H233879   6.161   4.789   6.165 -2.6465  1.5375  3.4422
11314TIP3   OH233880   4.549   3.767   5.106  0.2434  0.6744  0.4688
11314TIP3    H133881   4.598   3.786   5.026  0.5557  2.0970  0.9852
11314TIP3    H233882   4.534   3.672   5.103  1.7208  0.4475 -0.4453
11315TIP3   OH233883   5.234   7.072   2.698  0.3443 -0.2163 -0.2279
11315TIP3    H133884   5.258   6.981   2.713  1.5286  0.2376  0.7040
11315TIP3    H233885   5.307   7.107   2.646  0.2227  0.3703 -0.0030
11316TIP3   OH233886   4.754   7.987  -0.020 -0.7768 -0.2409 -0.2732
11316TIP3    H133887   4.800   7.953   0.058  0.4536 -1.0748 -1.3415
11316TIP3    H233888   4.675   7.934  -0.026 -0.8884 -0.1588  0.4216
11317TIP3   OH233889   5.415   7.089   0.098 -0.5121 -0.2182 -0.0486
11317TIP3    H133890   5.476   7.116   0.029 -0.7535 -1.7114 -0.8654
11317TIP3    H233891   5.435   6.996   0.113 -2.8479 -0.8590 -0.6379
11318TIP3   OH233892   3.730   3.575   6.061  0.3158 -0.1269 -0.3894
11318TIP3    H133893   3.778   3.523   5.996  0.7446 -0.9199  0.5543
11318TIP3    H233894   3.797   3.607   6.121 -0.4549 -2.6430  1.9189
11319TIP3   OH233895   2.982   2.208   6.619  0.5421  0.0334 -0.2847
11319TIP3    H133896   2.928   2.282   6.591  3.1250  1.2367 -2.4234
11319TIP3    H233897   2.991   2.154   6.541  2.2436 -0.2133  0.0504
11320TIP3   OH233898   2.127   4.905   3.861  0.1997 -0.2797  0.1104
11320TIP3    H133899   2.035   4.881   3.849  0.7736 -2.2844 -0.5120
11320TIP3    H233900   2.170   4.876   3.780  1.2319  1.5345 -0.0282
11321TIP3   OH233901   1.164   4.008   5.291 -0.4894  0.4849 -0.6881
11321TIP3    H133902   1.125   3.931   5.248 -1.8659  0.4738  0.5280
11321TIP3    H233903   1.247   4.021   5.246 -0.4159 -1.4896 -1.1904
11322TIP3   OH233904   2.324   3.430   6.619 -0.0395 -0.4249 -0.4130
11322TIP3    H133905   2.257   3.498   6.629 -3.1410 -3.5971  1.7570
11322TIP3    H233906   2.368   3.427   6.704  0.4143 -0.8030 -0.6562
11323TIP3   OH233907   5.940   0.661   0.259 -0.4182 -0.0323 -0.2409
11323TIP3    H133908   5.947   0.749   0.222  0.3127 -0.3234 -0.8129
11323TIP3    H233909   5.978   0.604   0.192  1.7345 -0.4895  1.3050
11324TIP3   OH233910   2.419   7.099   4.412 -0.3644 -0.2810 -0.4251
11324TIP3    H133911   2.455   7.036   4.350 -0.9674 -0.5424 -0.5110
11324TIP3    H233912   2.485   7.105   4.481 -0.1808 -0.8007 -0.5559
11325TIP3   OH233913   3.819   7.523   2.037 -0.2521  0.0310 -0.5114
11325TIP3    H133914   3.838   7.548   2.128  0.5922 -2.9175  0.1957
11325TIP3    H233915   3.739   7.471   2.043  0.8976 -1.8698 -1.1242
11326TIP3   OH233916   7.542   1.216   0.356 -0.0081 -0.4674 -0.6553
11326TIP3    H133917   7.477   1.278   0.388  0.5513  0.5996 -1.5595
11326TIP3    H233918   7.493   1.160   0.295 -0.1979 -0.0227 -0.9106
11327TIP3   OH233919   2.903   5.148   4.346 -0.2853  0.7184 -0.0630
11327TIP3    H133920   2.913   5.101   4.429  1.2392  0.4738 -0.3703
11327TIP3    H233921   2.985   5.133   4.301 -1.0518  0.9892 -1.5601
11328TIP3   OH233922   3.202   1.392   0.033  0.1207  0.0086  0.0855
11328TIP3    H133923   3.276   1.448   0.055  0.1973  0.3549 -1.0045
11328TIP3    H233924   3.242   1.311   0.002  0.0347 -0.0678  0.1729
11329TIP3   OH233925   1.670   4.027   5.587  0.1544 -0.4879 -0.2365
11329TIP3    H133926   1.731   3.962   5.551 -0.4531 -1.5729  0.6626
11329TIP3    H233927   1.588   3.979   5.599  0.2538 -0.0767  2.2811
11330TIP3   OH233928   5.394   4.055   5.461  0.0532 -0.5068 -0.1747
11330TIP3    H133929   5.454   4.112   5.413 -0.2535 -1.1525 -1.3448
11330TIP3    H233930   5.339   4.115   5.512 -0.0814  0.2280 -1.1721
11331TIP3   OH233931   3.900   6.120   4.797 -0.4339 -0.1395  0.0584
11331TIP3    H133932   3.929   6.109   4.888  0.4752  0.1817 -0.1837
11331TIP3    H233933   3.949   6.053   4.748 -0.3843  0.1622 -0.3031
11332TIP3   OH233934   7.164   3.366   5.308  0.0290 -0.1276  0.5606
11332TIP3    H133935   7.145   3.297   5.244 -0.5562  0.0446  0.5478
11332TIP3    H233936   7.081   3.413   5.318  0.7043  1.2846 -0.2690
11333TIP3   OH233937   5.011   4.343   4.981 -0.0675  0.0984  0.0367
11333TIP3    H133938   5.097   4.305   5.000 -0.4448  0.0764  1.8474
11333TIP3    H233939   4.951   4.295   5.039 -0.7542  2.5034  1.3581
11334TIP3   OH233940   1.588   5.295   6.733  0.0345 -0.3320  0.1833
11334TIP3    H133941   1.563   5.275   6.824 -1.3254 -1.5844 -0.4469
11334TIP3    H233942   1.516   5.260   6.680  1.0797 -0.0997 -1.4197
11335TIP3   OH233943   2.645   6.584   5.741  0.1030  0.1295  0.4098
11335TIP3    H133944   2.603   6.646   5.800 -0.6286  1.2549 -1.2264
11335TIP3    H233945   2.577   6.519   5.722 -0.9639  1.8946 -2.1578
11336TIP3   OH233946   3.767   5.416   5.591  0.0403 -0.2673 -0.3296
11336TIP3    H133947   3.761   5.363   5.512 -0.4158 -0.3299 -0.2567
11336TIP3    H233948   3.803   5.500   5.561  1.0808 -0.7359 -0.3851
11337TIP3   OH233949   4.192   5.896   5.866 -0.0888  0.8959 -0.5519
11337TIP3    H133950   4.151   5.965   5.917 -0.1180  1.3129 -1.1311
11337TIP3    H233951   4.156   5.815   5.901 -1.0610  1.2357 -0.7628
11338TIP3   OH233952   5.141   5.605   5.053  0.1816  0.0595  0.4893
11338TIP3    H133953   5.158   5.633   5.143 -0.5206 -0.3957  0.7668
11338TIP3    H233954   5.076   5.667   5.021  2.5806  2.0652 -0.7161
11339TIP3   OH233955   2.669   7.494   6.901  0.5167  0.1846 -0.0720
11339TIP3    H133956   2.707   7.550   6.834 -0.1128  0.5087 -0.1595
11339TIP3    H233957   2.582   7.471   6.868  2.4296 -4.5676 -2.1817
11340TIP3   OH233958   4.639   4.101   6.340  0.0757 -0.2459  0.0283
11340TIP3    H133959   4.599   4.126   6.423  1.3852  0.0593  0.5913
11340TIP3    H233960   4.594   4.021   6.314 -0.3721 -0.3134  1.0135
11341TIP3   OH233961   6.690   3.987   3.944  0.1614  0.4376  0.8118
11341TIP3    H133962   6.621   4.052   3.937 -0.4295 -0.3572 -1.1580
11341TIP3    H233963   6.758   4.017   3.883  0.2042 -0.3893  0.4365
11342TIP3   OH233964   3.331   2.881   5.587 -0.6418  0.1248  0.0698
11342TIP3    H133965   3.340   2.785   5.592 -1.0651  0.0074 -1.3205
11342TIP3    H233966   3.333   2.909   5.679 -0.1726 -1.1831  0.4794
11343TIP3   OH233967   7.091   3.732   5.887  0.1558  0.8510 -0.0472
11343TIP3    H133968   7.124   3.642   5.893 -1.3350  0.2215 -1.0931
11343TIP3    H233969   7.054   3.750   5.974  1.3782  0.8503  0.4952
11344TIP3   OH233970   2.590   1.178   0.422  0.1763 -0.0204 -0.5977
11344TIP3    H133971   2.634   1.097   0.447 -0.5564 -0.3019 -0.2105
11344TIP3    H233972   2.649   1.219   0.358  1.2693 -0.1040  0.3459
11345TIP3   OH233973   7.504   7.485   0.153 -0.0670  0.6233 -0.1856
11345TIP3    H133974   7.531   7.551   0.216 -0.2755  0.3928  0.1452
11345TIP3    H233975   7.583   7.469   0.100  0.2191  0.5322  0.2626
11346TIP3   OH233976   3.984   4.402   5.289  0.2518  0.4612 -0.8229
11346TIP3    H133977   3.983   4.306   5.290 -1.2995  0.4594 -0.1347
11346TIP3    H233978   3.897   4.425   5.256 -0.1429  1.6247  0.9636
11347TIP3   OH233979   5.394   3.200   6.306  0.3877 -0.1625  0.2932
11347TIP3    H133980   5.343   3.237   6.378  0.0735  0.5203 -0.2683
11347TIP3    H233981   5.341   3.218   6.228  0.4511 -1.3874 -0.0479
11348TIP3   OH233982   3.894   3.346   5.388 -0.0644 -0.0891  0.5775
11348TIP3    H133983   3.867   3.354   5.297  1.2460  0.1148  0.1996
11348TIP3    H233984   3.955   3.418   5.402  0.6004 -0.7760  1.3033
11349TIP3   OH233985   7.014   3.988   6.957  0.2079  0.4874 -0.2810
11349TIP3    H133986   6.951   4.054   6.931 -0.6349  0.0616  0.6613
11349TIP3    H233987   7.012   3.923   6.886  0.5491  1.1240 -0.8770
11350TIP3   OH233988   3.597   4.871   6.363 -0.1443  0.5072 -0.2561
11350TIP3    H133989   3.521   4.890   6.307  1.1888  1.3082 -1.8397
11350TIP3    H233990   3.655   4.947   6.352  1.2538 -0.4611  0.2808
11351TIP3   OH233991   3.855   5.003   5.932  0.5450 -0.8966 -0.0246
11351TIP3    H133992   3.937   4.966   5.967 -0.5437 -0.6094  2.9510
11351TIP3    H233993   3.878   5.092   5.907  1.3895 -1.1671 -0.2602
11352TIP3   OH233994   3.068   2.213   0.780  0.2993  0.1996 -0.3633
11352TIP3    H133995   3.092   2.225   0.688 -1.3009  0.5478 -0.7613
11352TIP3    H233996   3.093   2.296   0.822  1.3507 -0.0928 -0.4119
11353TIP3   OH233997   5.669   3.981   6.085  0.5475  0.2096  0.1032
11353TIP3    H133998   5.663   3.908   6.147  0.8581  0.6591  0.6621
11353TIP3    H233999   5.583   4.022   6.088  0.7774  0.6464  0.7449
11354TIP3   OH234000   2.894   1.161   2.206 -0.1665 -0.2118 -0.5863
11354TIP3    H134001   2.939   1.198   2.130 -0.8198  0.3165 -0.7310
11354TIP3    H234002   2.878   1.237   2.263 -0.0701 -0.5341 -0.1288
11355TIP3   OH234003   1.984   0.392   0.927 -0.2843 -0.7313  0.2460
11355TIP3    H134004   1.966   0.483   0.950 -1.0836 -0.9485  0.5045
11355TIP3    H234005   1.928   0.341   0.986 -1.0576 -1.3546 -0.9993
11356TIP3   OH234006   3.261   5.686   5.483  0.0518 -0.2905  0.2480
11356TIP3    H134007   3.205   5.763   5.494 -0.1528 -0.3391 -0.4213
11356TIP3    H234008   3.344   5.720   5.450 -0.3011 -0.4231 -0.8139
11357TIP3   OH234009   6.358   4.654   5.394 -0.0277  0.0014  0.3704
11357TIP3    H134010   6.371   4.749   5.398  1.2433 -0.1506  0.0072
11357TIP3    H234011   6.306   4.633   5.472  0.3521  0.8904  0.8626
11358TIP3   OH234012   4.918   3.851   4.274  0.2654 -0.2086 -0.1328
11358TIP3    H134013   4.855   3.885   4.338  0.5314 -0.2387  0.1518
11358TIP3    H234014   4.920   3.757   4.291 -0.2002 -0.3153 -0.6742
11359TIP3   OH234015   5.110   2.993   4.541 -0.0199 -0.5164  0.0870
11359TIP3    H134016   5.019   3.022   4.540  0.2811  0.5003  0.7153
11359TIP3    H234017   5.148   3.039   4.616  0.9407 -1.1528 -0.0036
11360TIP3   OH234018   5.762   6.022   5.209  0.0423  0.3597  0.3935
11360TIP3    H134019   5.778   6.055   5.121 -0.8060 -0.3359 -0.0308
11360TIP3    H234020   5.674   5.985   5.205 -0.1492  0.6768  1.6439
11361TIP3   OH234021   6.313   4.007   4.164  0.3588 -0.1962  0.0001
11361TIP3    H134022   6.249   3.995   4.235  1.1292 -0.2776  0.6906
11361TIP3    H234023   6.376   3.936   4.177  1.0219  0.3560 -0.2018
11362TIP3   OH234024   5.350   5.404   6.252  0.1094  0.0207  0.3289
11362TIP3    H134025   5.445   5.415   6.263 -0.1893  2.3980  0.7339
11362TIP3    H234026   5.312   5.443   6.330 -1.2781  0.5895 -0.6249
11363TIP3   OH234027   3.179   4.255   5.595  0.3910  0.3180  0.3586
11363TIP3    H134028   3.086   4.246   5.572  0.3918  0.2066  0.3969
11363TIP3    H234029   3.214   4.315   5.529  0.6589 -0.9189 -0.6402
11364TIP3   OH234030   2.325   4.783   6.554 -0.2399 -0.3443  1.0665
11364TIP3    H134031   2.352   4.712   6.496  1.3179  0.3363  0.9359
11364TIP3    H234032   2.397   4.794   6.615  0.3661  2.3220 -0.0566
11365TIP3   OH234033   4.286   4.648   5.319  0.0975 -0.1753  0.4945
11365TIP3    H134034   4.286   4.597   5.238 -0.2482  0.8901 -0.1923
11365TIP3    H234035   4.229   4.723   5.300  1.1916  0.8603  1.2272
11366TIP3   OH234036   4.425   2.315   5.934  0.1920 -0.5419 -0.1215
11366TIP3    H134037   4.413   2.369   5.857 -2.9093  0.4463  0.9774
11366TIP3    H234038   4.520   2.304   5.942  0.6978  1.9500 -2.2412
11367TIP3   OH234039   6.206   4.480   6.195  0.7480 -0.8252 -0.2742
11367TIP3    H134040   6.154   4.556   6.168  2.0046 -0.1161 -0.7471
11367TIP3    H234041   6.173   4.408   6.141 -1.0038 -0.8122  0.7478
11368TIP3   OH234042   4.938   4.538   6.461  0.2241  0.2666 -0.6757
11368TIP3    H134043   4.843   4.525   6.463  0.3228 -0.4696 -0.3941
11368TIP3    H234044   4.965   4.501   6.377  0.2967  0.2223 -0.6320
11369TIP3   OH234045   3.311   5.674   6.451  0.0513  0.0603  0.3565
11369TIP3    H134046   3.291   5.601   6.393 -1.5348  0.9140 -0.2008
11369TIP3    H234047   3.312   5.751   6.394 -0.1240  0.7148  1.2263
11370TIP3   OH234048   5.419   3.994   6.547  0.2351 -0.6684 -0.1087
11370TIP3    H134049   5.432   3.900   6.560 -1.9874 -0.7925  1.6875
11370TIP3    H234050   5.396   4.003   6.455 -0.9377 -2.1028  0.0181
11371TIP3   OH234051   5.707   2.730   4.058  0.1713  0.3655  0.1589
11371TIP3    H134052   5.624   2.758   4.097 -0.7277 -1.6066 -0.2917
11371TIP3    H234053   5.736   2.656   4.112  0.6436 -0.1924 -0.8398
11372TIP3   OH234054   4.608   2.925   5.620 -0.2803 -0.3609  0.8878
11372TIP3    H134055   4.561   2.910   5.538  0.9749  1.3018 -0.1561
11372TIP3    H234056   4.538   2.928   5.686 -2.0221  4.4350 -0.9399
11373TIP3   OH234057   5.852   5.210   6.063 -0.4179  0.1250 -0.0323
11373TIP3    H134058   5.879   5.124   6.095 -1.0986  0.3064  1.0843
11373TIP3    H234059   5.883   5.213   5.973 -0.6043 -1.3989 -0.1737
11374TIP3   OH234060   4.497   5.090   6.870 -0.0182 -0.0157 -0.2757
11374TIP3    H134061   4.553   5.029   6.823  0.3328  0.5155 -0.5472
11374TIP3    H234062   4.420   5.038   6.895  0.3742 -0.6146 -0.3232
11375TIP3   OH234063   2.976   7.061   6.319  0.6703  0.5178 -0.4087
11375TIP3    H134064   2.887   7.068   6.285  0.2471  0.3588  0.6264
11375TIP3    H234065   3.000   7.151   6.341  0.3277  0.4288  0.3615
11376TIP3   OH234066   6.215   6.595   5.834 -0.0889 -0.1391 -0.0033
11376TIP3    H134067   6.264   6.567   5.757 -0.1831 -0.4957  0.0641
11376TIP3    H234068   6.180   6.513   5.871  0.2776 -0.0111  0.6344
11377TIP3   OH234069   4.094   6.053   6.316  0.0150  0.4144 -0.0982
11377TIP3    H134070   4.083   6.005   6.398  1.2810 -1.8506 -1.1862
11377TIP3    H234071   4.138   6.135   6.341  1.6965 -0.8723  1.3414
11378TIP3   OH234072   3.838   5.529   4.007  0.1434  0.1964 -0.9176
11378TIP3    H134073   3.828   5.579   3.926  0.3670  1.2238 -0.3209
11378TIP3    H234074   3.914   5.567   4.050 -0.1763 -0.1105 -0.0621
11379TIP3   OH234075   4.080   5.105   5.343  0.4086  0.2300 -0.3368
11379TIP3    H134076   3.993   5.137   5.319 -1.4311 -2.3403  2.5189
11379TIP3    H234077   4.106   5.159   5.417  0.6648  0.1422 -0.3634
11380TIP3   OH234078   3.333   6.651   3.095  0.0155  0.2082  0.0732
11380TIP3    H134079   3.424   6.644   3.123  0.4030  1.0036 -0.9582
11380TIP3    H234080   3.291   6.571   3.128  1.0765 -0.1495  0.5624
11381TIP3   OH234081   4.353   3.540   3.240 -0.0930 -0.3399 -0.2055
11381TIP3    H134082   4.312   3.507   3.160 -0.0308  0.4948 -0.5947
11381TIP3    H234083   4.421   3.600   3.209 -0.3474  0.3110  0.4697
11382TIP3   OH234084   6.639   3.712   4.473 -0.3100  0.5678 -0.1331
11382TIP3    H134085   6.602   3.741   4.557 -0.3288  0.3599 -0.0687
11382TIP3    H234086   6.721   3.761   4.464 -0.0681  0.2316  0.2369
11383TIP3   OH234087   1.772   5.196   6.136  0.1774 -0.2483 -0.2775
11383TIP3    H134088   1.764   5.159   6.049 -0.5699 -1.3592  0.2647
11383TIP3    H234089   1.861   5.234   6.138  0.5767 -1.1416 -1.1511
11384TIP3   OH234090   0.670   1.340   0.077  0.0996  0.0178  0.0137
11384TIP3    H134091   0.614   1.399   0.127 -1.3853 -0.8791 -0.5727
11384TIP3    H234092   0.719   1.291   0.144  0.8361  1.3919  0.5096
11385TIP3   OH234093   4.688   3.645   6.210 -0.1621 -0.0727 -0.4502
11385TIP3    H134094   4.660   3.625   6.121 -0.3361 -0.7640 -0.2389
11385TIP3    H234095   4.708   3.560   6.249  1.2714  0.3289 -0.2815
11386TIP3   OH234096   6.912   2.941   6.128  0.1176  0.3647  0.1497
11386TIP3    H134097   6.935   2.921   6.037 -0.7007 -0.3441  0.0927
11386TIP3    H234098   6.828   2.987   6.122 -0.1309 -0.0374  0.5784
11387TIP3   OH234099   5.177   1.695   5.763 -0.0252 -0.2974  0.1134
11387TIP3    H134100   5.259   1.733   5.730  1.0799 -0.9631  1.9952
11387TIP3    H234101   5.130   1.768   5.801  2.1776 -0.7101  3.8958
11388TIP3   OH234102   4.965   3.225   5.282  0.3800  0.0767 -0.2286
11388TIP3    H134103   4.936   3.179   5.203  0.7827  2.5869 -1.8728
11388TIP3    H234104   4.886   3.269   5.314  0.8869  1.6228 -1.0478
11389TIP3   OH234105   5.439   3.086   0.871 -0.0826 -0.3989 -0.7459
11389TIP3    H134106   5.508   3.027   0.842 -0.8223 -0.9415 -1.4233
11389TIP3    H234107   5.421   3.140   0.794 -0.5709 -0.4089 -0.6383
11390TIP3   OH234108   7.265   1.354   0.224 -0.4166 -0.0636 -0.5517
11390TIP3    H134109   7.235   1.269   0.258  0.6434 -0.5429 -0.8038
11390TIP3    H234110   7.199   1.379   0.160 -0.8805 -0.5655 -0.2720
11391TIP3   OH234111   4.547   3.999   4.614 -0.2346 -0.3023 -0.3392
11391TIP3    H134112   4.496   3.995   4.696 -0.2409 -0.4475 -0.3505
11391TIP3    H234113   4.540   4.090   4.586  0.3289 -0.0921  0.1815
11392TIP3   OH234114   7.165   5.745   6.166 -0.5324 -0.2460  0.2948
11392TIP3    H134115   7.139   5.658   6.197  1.2286 -1.0361 -0.3663
11392TIP3    H234116   7.238   5.771   6.222  0.5914 -0.3126 -1.0851
11393TIP3   OH234117   5.360   3.596   4.313  0.0827  0.3111  0.1708
11393TIP3    H134118   5.359   3.640   4.398  0.6624  0.0333  0.3265
11393TIP3    H234119   5.451   3.568   4.301  0.1598  0.9586 -0.8614
11394TIP3   OH234120   4.374   5.169   5.460 -0.3500 -0.2513 -0.0426
11394TIP3    H134121   4.285   5.135   5.454  0.3456 -1.8195 -2.3733
11394TIP3    H234122   4.368   5.243   5.520 -3.1296 -0.6178  0.1848
11395TIP3   OH234123   3.742   3.857   5.585 -0.4017  0.2750  0.3041
11395TIP3    H134124   3.731   3.919   5.657  0.3270  0.8275 -0.0573
11395TIP3    H234125   3.739   3.771   5.627  1.3164  0.6234  1.1768
11396TIP3   OH234126   4.086   5.092   4.334  0.0748 -0.8325  0.7429
11396TIP3    H134127   4.121   5.118   4.419 -1.8785 -1.2263  1.6911
11396TIP3    H234128   4.123   5.005   4.318  2.5885  0.3314 -0.1000
11397TIP3   OH234129   3.165   2.089   5.113  0.1181 -0.3567 -0.2299
11397TIP3    H134130   3.200   2.170   5.076  1.8597 -1.0253 -0.0647
11397TIP3    H234131   3.175   2.025   5.043  1.2151 -1.0656  0.5736
11398TIP3   OH234132   1.801   1.485   3.090  0.1447  0.3843  0.2670
11398TIP3    H134133   1.874   1.468   3.030  0.6431  0.9031  0.7209
11398TIP3    H234134   1.756   1.561   3.051  0.3359  0.5806  0.4268
11399TIP3   OH234135   6.342   5.326   4.958 -0.0369 -0.5235  0.1023
11399TIP3    H134136   6.346   5.331   5.054  1.2087 -1.8395  0.1418
11399TIP3    H234137   6.256   5.289   4.939 -0.2231 -0.4137  0.7230
11400TIP3   OH234138   3.395   5.461   6.071  0.2067  0.0643 -0.2834
11400TIP3    H134139   3.368   5.389   6.015  0.2496  0.7053 -1.1488
11400TIP3    H234140   3.491   5.458   6.069  0.2050 -0.1114  0.0047
11401TIP3   OH234141   5.254   4.394   6.003  0.7990  0.6145 -0.5647
11401TIP3    H134142   5.264   4.436   6.088  1.5046  1.4727 -1.0684
11401TIP3    H234143   5.193   4.451   5.955 -0.1675 -0.2488 -0.3932
11402TIP3   OH234144   2.686   3.175   6.360 -0.1492  0.2972  0.4473
11402TIP3    H134145   2.746   3.112   6.320 -0.5449  1.0497 -1.4001
11402TIP3    H234146   2.743   3.243   6.396  0.1539  0.5602 -0.5163
11403TIP3   OH234147   4.472   6.161   6.131  0.2329  0.1578  0.3041
11403TIP3    H134148   4.528   6.227   6.172  0.2785  0.5062 -0.3131
11403TIP3    H234149   4.389   6.169   6.176  0.9085 -0.9164  1.7911
11404TIP3   OH234150   4.489   7.554   0.658 -0.4330 -0.2579 -0.3170
11404TIP3    H134151   4.523   7.507   0.582 -2.8112 -1.5145 -0.6686
11404TIP3    H234152   4.501   7.646   0.637 -1.0360 -0.5862 -2.2428
11405TIP3   OH234153   4.833   3.566   4.140 -0.9279  0.1638  0.0243
11405TIP3    H134154   4.774   3.586   4.067  0.8444 -0.2075 -1.5476
11405TIP3    H234155   4.921   3.576   4.103  0.0020 -0.8403  1.8992
11406TIP3   OH234156   3.630   4.313   6.112 -0.4440  0.4943 -0.1076
11406TIP3    H134157   3.594   4.359   6.187 -0.2374  0.8026 -0.1982
11406TIP3    H234158   3.707   4.268   6.146 -0.9593 -0.2384  0.1054
11407TIP3   OH234159   0.529   7.858   0.032  0.5306 -0.4480  0.2217
11407TIP3    H134160   0.458   7.855  -0.032  0.7938 -1.8276 -0.0321
11407TIP3    H234161   0.546   7.951   0.046 -0.4303 -0.1307 -0.7121
11408TIP3   OH234162   3.886   1.568   5.725 -0.0453 -0.0170 -0.7365
11408TIP3    H134163   3.965   1.515   5.731  0.6418  1.0820  0.1984
11408TIP3    H234164   3.877   1.588   5.631  1.2294  0.5031 -0.7593
11409TIP3   OH234165   8.278   4.962   6.343 -0.1481 -0.3274  0.2004
11409TIP3    H134166   8.369   4.989   6.332 -0.1002 -0.6876 -0.2966
11409TIP3    H234167   8.258   4.980   6.435  0.8136 -1.4310  0.6331
11410TIP3   OH234168   8.127   7.054   1.281  0.0687 -0.0143 -0.2852
11410TIP3    H134169   8.120   7.027   1.372  2.7120  0.4111  0.0726
11410TIP3    H234170   8.106   6.975   1.231 -1.2147 -0.2955  0.6737
11411TIP3   OH234171   1.494   1.890   0.507 -0.2065 -0.9273  0.3367
11411TIP3    H134172   1.511   1.833   0.432 -0.8918 -2.2686  1.1767
11411TIP3    H234173   1.421   1.945   0.479  0.8946  0.0086 -0.7257
11412TIP3   OH234174   7.270   5.105   3.702 -0.3182  0.1865  0.1866
11412TIP3    H134175   7.283   5.139   3.613 -0.0385 -0.8487 -0.1656
11412TIP3    H234176   7.206   5.165   3.740  0.3370  1.2603 -0.3566
11413TIP3   OH234177   1.075   4.897   6.437  0.0405 -0.0019 -0.3956
11413TIP3    H134178   1.104   4.839   6.507 -1.6781 -0.2303  0.1359
11413TIP3    H234179   1.063   4.839   6.361  2.7679  0.3744 -1.1855
11414TIP3   OH234180   4.037   4.749   4.635  0.4787  0.2545 -0.0201
11414TIP3    H134181   4.014   4.795   4.555 -1.1554 -0.1675  0.1940
11414TIP3    H234182   4.085   4.671   4.605 -1.0119 -0.4315 -0.6419
11415TIP3   OH234183   2.686   3.936   6.693 -0.0526 -0.0973 -0.1034
11415TIP3    H134184   2.721   4.000   6.754  0.0787  0.8629 -1.1641
11415TIP3    H234185   2.606   3.904   6.734  0.2520  0.2256  0.7503
11416TIP3   OH234186   5.861   3.525   4.110 -0.3832  0.2673  0.1915
11416TIP3    H134187   5.883   3.507   4.202 -0.0534  0.0354  0.0691
11416TIP3    H234188   5.938   3.571   4.076 -0.0871 -0.5634 -0.2471
11417TIP3   OH234189   4.171   5.289   3.717  0.1979 -0.1749  0.8325
11417TIP3    H134190   4.119   5.255   3.790  0.7170 -0.1537  1.2217
11417TIP3    H234191   4.227   5.215   3.692  1.2675  0.3503  1.6267
11418TIP3   OH234192   5.684   4.532   5.090  0.0448  0.0052  0.1371
11418TIP3    H134193   5.709   4.590   5.019 -0.6500 -0.0193 -0.1289
11418TIP3    H234194   5.735   4.562   5.165  1.2841 -0.3924 -0.5404
11419TIP3   OH234195   4.757   2.171   0.356 -0.0719  0.3391 -0.0736
11419TIP3    H134196   4.833   2.221   0.384 -0.2689  1.2384 -1.1055
11419TIP3    H234197   4.779   2.140   0.268 -0.4380 -0.3678  0.0751
11420TIP3   OH234198   6.681   5.171   5.982 -0.2705 -0.1122  0.4403
11420TIP3    H134199   6.735   5.175   5.903 -0.0449  0.4620  0.6270
11420TIP3    H234200   6.713   5.242   6.037 -1.2781  0.2929  0.5117
11421TIP3   OH234201   4.386   4.957   6.034 -0.3601 -0.8245  0.1956
11421TIP3    H134202   4.458   5.016   6.057 -2.0925  2.3821 -2.1595
11421TIP3    H234203   4.427   4.889   5.981  0.9603  1.1307 -1.3670
11422TIP3   OH234204   3.901   4.830   5.620  0.2207  0.4828 -0.2617
11422TIP3    H134205   3.840   4.866   5.684  0.4778 -1.0488  0.8628
11422TIP3    H234206   3.865   4.745   5.596  1.7181 -0.2901  0.1693
11423TIP3   OH234207   1.548   3.693   5.944 -0.0164 -0.5778 -0.0906
11423TIP3    H134208   1.560   3.686   6.039 -1.6522  0.1858  0.1806
11423TIP3    H234209   1.519   3.783   5.930  1.8771 -0.1483 -1.5094
11424TIP3   OH234210   4.204   5.146   5.883 -0.6294  0.3320 -0.4311
11424TIP3    H134211   4.184   5.094   5.805 -0.3150 -0.9910  0.3580
11424TIP3    H234212   4.254   5.087   5.940 -2.2336  0.7593  1.4710
11425TIP3   OH234213   5.193   4.874   6.863  0.6018 -0.0041 -0.0453
11425TIP3    H134214   5.206   4.968   6.862  1.4900 -0.0898  1.4430
11425TIP3    H234215   5.248   4.843   6.936  0.2858 -1.6488 -0.4872
11426TIP3   OH234216   3.133   4.878   4.950  0.0109  0.1222  0.4667
11426TIP3    H134217   3.226   4.892   4.930 -0.0516 -2.4340 -2.0710
11426TIP3    H234218   3.132   4.795   4.998 -0.9832 -0.1283  0.0144
11427TIP3   OH234219   2.914   4.337   5.515  0.0196 -0.0224 -1.0556
11427TIP3    H134220   2.891   4.261   5.461  0.8134  0.5320 -2.1880
11427TIP3    H234221   2.874   4.411   5.470 -0.3718  0.2974 -0.1895
11428TIP3   OH234222   2.237   5.336   5.860 -0.3243 -0.9263  0.1395
11428TIP3    H134223   2.205   5.325   5.771 -0.1618 -1.3753  0.1353
11428TIP3    H234224   2.207   5.257   5.906 -1.6152 -0.0465  0.8384
11429TIP3   OH234225   4.510   2.491   0.190  0.3409 -0.1241  0.7509
11429TIP3    H134226   4.499   2.584   0.208  0.4658 -0.4723  2.7860
11429TIP3    H234227   4.582   2.464   0.247  1.4208 -1.1298 -1.0473
11430TIP3   OH234228   3.807   6.147   4.382 -0.0396 -0.4612 -0.2185
11430TIP3    H134229   3.717   6.137   4.413  0.0091 -0.8393 -0.1955
11430TIP3    H234230   3.849   6.206   4.445 -0.5907  0.6320 -0.8566
11431TIP3   OH234231   1.745   1.955   0.162 -0.7898 -0.1770  0.0111
11431TIP3    H134232   1.663   1.914   0.135  0.1366 -1.2275 -1.3024
11431TIP3    H234233   1.811   1.886   0.151  0.8458  1.6790 -2.4879
11432TIP3   OH234234   5.730   5.033   4.955  0.1139  0.2084  0.0104
11432TIP3    H134235   5.814   5.077   4.963 -0.0873  0.8563 -1.2986
11432TIP3    H234236   5.690   5.040   5.041  0.6282  1.4761  0.1511
11433TIP3   OH234237   3.115   4.941   5.571 -0.1977 -0.6052  0.2458
11433TIP3    H134238   3.195   4.957   5.520 -0.6078 -2.3695 -0.9975
11433TIP3    H234239   3.055   5.010   5.544  0.0645 -0.7263 -0.6746
11434TIP3   OH234240   3.850   4.888   3.107  0.1086  0.2096 -0.6102
11434TIP3    H134241   3.781   4.889   3.041 -0.0262 -1.2143 -0.4979
11434TIP3    H234242   3.895   4.805   3.094 -0.9558 -0.8550  2.1064
11435TIP3   OH234243   4.502   4.594   3.757  0.0996  0.2056  0.6835
11435TIP3    H134244   4.581   4.588   3.703  0.5051  0.1956  1.2818
11435TIP3    H234245   4.436   4.631   3.698  0.4698 -0.0541  0.0997
11436TIP3   OH234246   5.721   4.138   4.369  0.3207 -0.6817  0.2587
11436TIP3    H134247   5.791   4.136   4.303 -0.6053  1.3999 -0.8285
11436TIP3    H234248   5.723   4.050   4.408  2.1363 -1.3407 -1.2207
11437TIP3   OH234249   3.968   3.322   6.372  0.3402 -0.3140  0.4952
11437TIP3    H134250   3.983   3.394   6.433  0.1317  0.2485 -0.1110
11437TIP3    H234251   3.873   3.306   6.378  0.2465  0.0468 -0.0188
11438TIP3   OH234252   5.841   2.634   3.827  0.2005  0.7534 -0.3571
11438TIP3    H134253   5.895   2.692   3.773  0.2170  0.6555 -0.4454
11438TIP3    H234254   5.799   2.693   3.890  1.7402  0.6338  0.8270
11439TIP3   OH234255   1.730   1.669   0.398  0.8623  0.1651  0.0018
11439TIP3    H134256   1.707   1.700   0.486  0.9369  0.4333 -0.0734
11439TIP3    H234257   1.699   1.579   0.396  1.1814  0.0425  0.4296
11440TIP3   OH234258   3.976   0.415   1.600 -0.1089 -0.2222 -0.1462
11440TIP3    H134259   3.971   0.322   1.579 -0.3622 -0.9289  2.8879
11440TIP3    H234260   3.902   0.431   1.658  0.1526  1.8032 -0.3134
11441TIP3   OH234261   2.613   0.569   0.492  0.2630 -0.1235  0.6718
11441TIP3    H134262   2.528   0.559   0.535 -0.7323 -1.0565 -1.4456
11441TIP3    H234263   2.603   0.644   0.434 -0.1183 -1.9922 -1.7838
11442TIP3   OH234264   6.432   4.073   5.434  0.5306  0.0296  0.3792
11442TIP3    H134265   6.496   4.021   5.483 -0.1943 -0.1400  1.1712
11442TIP3    H234266   6.371   4.104   5.501 -0.2822  0.0792 -0.3774
11443TIP3   OH234267   8.416   1.413   0.279  0.2066 -0.0095  0.1831
11443TIP3    H134268   8.384   1.340   0.225 -0.3113 -0.2220  0.7687
11443TIP3    H234269   8.482   1.374   0.336 -0.6202 -0.1815  1.0283
11444TIP3   OH234270   5.186   2.454   5.156  0.0335 -0.3604  0.0915
11444TIP3    H134271   5.214   2.383   5.213  1.5566  0.5117  0.4824
11444TIP3    H234272   5.259   2.465   5.094 -1.1122 -0.5534 -1.3164
11445TIP3   OH234273   6.893   4.720   6.864  0.5721  0.0314 -0.1904
11445TIP3    H134274   6.896   4.804   6.909 -1.5949  0.0718 -0.0715
11445TIP3    H234275   6.871   4.741   6.774 -0.6480 -0.4359 -0.0149
11446TIP3   OH234276   4.715   3.392   5.635 -0.0285  0.1827 -0.1090
11446TIP3    H134277   4.705   3.463   5.698  1.3922 -0.9001  1.3553
11446TIP3    H234278   4.755   3.321   5.685  0.3262 -0.9859 -2.0234
11447TIP3   OH234279   3.742   5.400   5.993  0.2548 -0.1759 -0.9071
11447TIP3    H134280   3.703   5.336   6.052 -1.3918  0.8111 -0.8963
11447TIP3    H234281   3.821   5.357   5.960  0.7731 -1.0413  1.3898
11448TIP3   OH234282   2.997   3.266   6.672 -0.3611  0.6011  0.3575
11448TIP3    H134283   3.067   3.319   6.633 -0.1301  1.4114  1.8225
11448TIP3    H234284   3.018   3.176   6.645  0.9121  0.9086  0.2605
11449TIP3   OH234285   0.074   4.604   4.975  0.7148 -0.6344  0.0308
11449TIP3    H134286   0.026   4.683   4.950  2.4438  0.2930 -0.4610
11449TIP3    H234287   0.143   4.597   4.909  1.6628 -1.5593  1.1035
11450TIP3   OH234288   5.098   2.449   6.264  0.1021 -0.5390 -0.0534
11450TIP3    H134289   5.048   2.433   6.345  1.7192  0.4325  1.1553
11450TIP3    H234290   5.145   2.368   6.248 -1.5826 -1.3598 -1.0366
11451TIP3   OH234291   7.092   0.852   0.847  0.2143 -0.4330  0.3180
11451TIP3    H134292   7.058   0.871   0.935 -0.6109  0.2676 -0.1480
11451TIP3    H234293   7.186   0.870   0.854  0.1284 -0.2414  1.0233
11452TIP3   OH234294   0.570   1.828   0.487  1.0149  0.4701 -0.6050
11452TIP3    H134295   0.597   1.893   0.423  2.5163 -0.3698 -0.8510
11452TIP3    H234296   0.647   1.815   0.542  0.2814 -0.0618  0.3141
11453TIP3   OH234297   3.790   5.824   5.268  0.1627  0.6762 -0.4520
11453TIP3    H134298   3.870   5.876   5.272  0.2454  0.4894  0.4480
11453TIP3    H234299   3.764   5.827   5.176  0.7693  1.3921 -0.6060
11454TIP3   OH234300   5.561   3.816   4.280 -0.1824 -0.2093  0.2177
11454TIP3    H134301   5.529   3.843   4.194 -0.6621  1.7696  0.9846
11454TIP3    H234302   5.484   3.820   4.337  0.2147 -1.1215  0.8365
11455TIP3   OH234303   4.650   4.773   6.114 -0.4085  0.0643  0.7547
11455TIP3    H134304   4.686   4.832   6.180  1.7315  0.2668 -0.5548
11455TIP3    H234305   4.661   4.820   6.031 -2.4355 -0.4662  0.1454
11456TIP3   OH234306   5.259   3.993   4.829  0.0853 -0.4157 -0.6532
11456TIP3    H134307   5.248   4.049   4.906  1.5323  2.5271 -2.5157
11456TIP3    H234308   5.170   3.964   4.807 -0.6418  0.8495  0.5357
11457TIP3   OH234309   2.088   0.726   0.612 -0.0407 -0.1905  0.3188
11457TIP3    H134310   2.044   0.801   0.573 -1.3285 -1.0272  0.1314
11457TIP3    H234311   2.082   0.741   0.706 -1.1086 -0.5114  0.3049
11458TIP3   OH234312   4.025   5.699   2.701 -0.5419  0.1807  0.2221
11458TIP3    H134313   4.056   5.786   2.675 -1.7901  0.4055 -0.5031
11458TIP3    H234314   4.023   5.702   2.797 -0.7428  1.0018  0.1919
11459TIP3   OH234315   4.757   4.362   5.151 -0.8316 -0.1413  0.1279
11459TIP3    H134316   4.742   4.404   5.066  0.7958 -0.2558 -0.2402
11459TIP3    H234317   4.710   4.417   5.214 -1.9432  0.0174 -0.8313
11460TIP3   OH234318   4.528   3.093   5.224  0.1499 -0.2844 -0.3928
11460TIP3    H134319   4.485   3.022   5.273  0.8617  0.3477  1.1659
11460TIP3    H234320   4.619   3.089   5.252  0.1904  1.2546 -0.2988
11461TIP3   OH234321   5.409   5.905   5.549 -0.1040 -0.3114  0.1532
11461TIP3    H134322   5.441   5.969   5.613  0.5849  1.4434 -1.8677
11461TIP3    H234323   5.435   5.820   5.584  0.2900  0.6223  2.1745
11462TIP3   OH234324   6.032   2.391   4.371  0.1363  0.4180  0.1506
11462TIP3    H134325   6.053   2.483   4.388 -0.5395  0.4245  0.9888
11462TIP3    H234326   6.117   2.346   4.373  0.5976  1.1956 -1.4453
11463TIP3   OH234327   3.482   3.604   4.599  0.1325  0.0065  0.1218
11463TIP3    H134328   3.474   3.651   4.516 -1.0940  0.2140  0.3403
11463TIP3    H234329   3.396   3.564   4.612  0.2848  0.0492  1.3285
11464TIP3   OH234330   3.555   5.041   6.670 -0.0302  0.3679 -0.0444
11464TIP3    H134331   3.540   5.050   6.764 -1.0435  0.1973 -0.1801
11464TIP3    H234332   3.552   4.947   6.654 -2.0112  0.4931 -0.5665
11465TIP3   OH234333   3.551   4.488   5.924 -0.3635 -0.2705 -0.3812
11465TIP3    H134334   3.578   4.420   5.986 -0.7183 -0.5530 -0.5323
11465TIP3    H234335   3.600   4.566   5.950 -1.8242  0.1075  1.3716
11466TIP3   OH234336   3.023   2.360   1.089 -0.1498 -0.0666  0.7202
11466TIP3    H134337   3.113   2.326   1.091 -0.7111 -1.6575 -0.4420
11466TIP3    H234338   3.034   2.455   1.082  1.4573 -0.3387 -0.7435
11467TIP3   OH234339   7.747   3.972   3.887 -0.8212 -0.5619 -0.7189
11467TIP3    H134340   7.762   3.882   3.914 -1.9155 -0.2296  1.0298
11467TIP3    H234341   7.809   3.985   3.815  0.8783 -2.0328  0.4164
11468TIP3   OH234342   6.145   7.626   1.896 -0.7239 -0.2329 -0.4698
11468TIP3    H134343   6.071   7.582   1.938  0.0774 -1.3639 -0.1927
11468TIP3    H234344   6.145   7.714   1.933 -1.1100 -0.6641  0.5925
11469TIP3   OH234345   3.037   4.313   6.625  0.0179  0.2254 -0.6166
11469TIP3    H134346   3.126   4.347   6.613 -0.6492  2.1055 -0.2963
11469TIP3    H234347   2.981   4.373   6.577 -1.2156 -0.2327  0.2231
11470TIP3   OH234348   2.711   4.217   5.760  0.1832 -0.4103 -0.2582
11470TIP3    H134349   2.707   4.229   5.665  0.8403  1.2919 -0.0939
11470TIP3    H234350   2.662   4.292   5.795 -0.4766 -1.2938  0.7398
11471TIP3   OH234351   6.153   3.787   6.042 -0.0940  0.0596 -0.0788
11471TIP3    H134352   6.064   3.824   6.041  0.2850  0.9740 -1.2027
11471TIP3    H234353   6.197   3.835   6.112  0.0517  0.9617 -0.7646
11472TIP3   OH234354   5.815   4.424   6.721 -1.0162 -0.1004  0.4339
11472TIP3    H134355   5.814   4.518   6.703 -0.4126  0.0344  1.1061
11472TIP3    H234356   5.742   4.410   6.781  0.7113  0.4263  2.7176
11473TIP3   OH234357   3.884   4.184   6.885  0.3493  0.1493 -0.3095
11473TIP3    H134358   3.923   4.215   6.803 -1.0097 -0.1044 -1.0559
11473TIP3    H234359   3.791   4.202   6.876  0.2966  0.9241  1.5515
11474TIP3   OH234360   5.806   2.891   6.156 -0.0137  0.1203  0.5914
11474TIP3    H134361   5.778   2.983   6.156 -0.3147  0.0298  0.3581
11474TIP3    H234362   5.725   2.842   6.172 -0.4094 -0.2609 -2.2339
11475TIP3   OH234363   6.761   4.744   3.934  0.4115  0.3560 -0.0499
11475TIP3    H134364   6.854   4.753   3.954 -0.1853 -0.3404  3.4391
11475TIP3    H234365   6.720   4.821   3.975 -0.8841 -0.9811  1.2306
11476TIP3   OH234366   4.731   3.825   5.959  0.1039  0.2854 -0.2933
11476TIP3    H134367   4.822   3.850   5.941  0.2541  0.8252  1.1017
11476TIP3    H234368   4.691   3.905   5.994 -0.8184 -0.0412 -0.6043
11477TIP3   OH234369   0.380   7.967   0.890 -0.2364 -0.3083  0.0370
11477TIP3    H134370   0.391   7.897   0.825 -0.4444 -1.2032  0.9652
11477TIP3    H234371   0.315   7.932   0.951  2.1748 -0.6857  2.4337
11478TIP3   OH234372   4.320   2.876   3.405 -0.6333  0.3738  0.6587
11478TIP3    H134373   4.364   2.937   3.346 -0.4810 -1.1731 -0.8640
11478TIP3    H234374   4.340   2.909   3.492  0.3938  1.8504 -0.1127
11479TIP3   OH234375   3.277   4.304   6.908  0.5253  0.0841  0.5361
11479TIP3    H134376   3.290   4.327   6.816 -1.4544 -1.1930 -0.0932
11479TIP3    H234377   3.248   4.385   6.950  1.3310  0.6451  0.0128
11480TIP3   OH234378   2.000   0.093   1.749 -0.2787  0.1541  0.4693
11480TIP3    H134379   2.005   0.028   1.818 -0.3224  0.2802  0.5923
11480TIP3    H234380   1.914   0.133   1.760 -0.0015  0.6712  0.7941
11481TIP3   OH234381   3.483   5.213   4.746  0.8911  0.6257 -0.7977
11481TIP3    H134382   3.465   5.305   4.726  3.2283  1.1344 -0.8022
11481TIP3    H234383   3.503   5.173   4.662 -0.6272 -0.0343 -0.8610
11482TIP3   OH234384   3.602   4.740   4.691  0.3823  0.0866 -0.2608
11482TIP3    H134385   3.591   4.747   4.786  0.5421  0.3925 -0.2635
11482TIP3    H234386   3.618   4.647   4.675  1.6245  0.2196  0.1467
11483TIP3   OH234387   7.908   4.911   0.452 -0.1986 -0.3701  0.5240
11483TIP3    H134388   7.985   4.967   0.453 -0.4239 -0.0467  0.0709
11483TIP3    H234389   7.865   4.928   0.535 -0.2745  0.1463  0.3816
11484TIP3   OH234390   7.032   2.379   0.852 -0.1009  0.0452  0.1274
11484TIP3    H134391   7.109   2.427   0.882 -0.5649  0.3069  0.9353
11484TIP3    H234392   7.066   2.316   0.789  0.6079  0.9969 -0.4669
11485TIP3   OH234393   6.098   7.192   6.252  0.0834 -0.1184  0.7010
11485TIP3    H134394   6.125   7.101   6.251 -1.3457 -0.5504  0.7224
11485TIP3    H234395   6.015   7.193   6.299 -0.2408  1.0901  0.1489
11486TIP3   OH234396   3.466   7.330   5.438  0.6903  0.1049  0.7402
11486TIP3    H134397   3.459   7.372   5.353 -0.6431  0.8698  1.2137
11486TIP3    H234398   3.445   7.238   5.421 -3.4466  0.9499  0.8354
11487TIP3   OH234399   0.573   7.467   0.368  0.1474  0.2694  0.4587
11487TIP3    H134400   0.661   7.471   0.331 -1.3259  1.6592 -3.0957
11487TIP3    H234401   0.525   7.537   0.323 -3.4506 -2.1339  0.3890
11488TIP3   OH234402   4.886   5.560   4.560 -0.5409 -0.5122 -0.0107
11488TIP3    H134403   4.843   5.538   4.642  0.8094  0.3617  0.9447
11488TIP3    H234404   4.969   5.511   4.562 -0.8102 -1.0350 -1.1650
11489TIP3   OH234405   6.608   5.093   5.322 -0.2961 -0.2855 -0.0027
11489TIP3    H134406   6.602   5.174   5.271  2.9180 -0.1119 -0.2396
11489TIP3    H234407   6.616   5.024   5.256  0.6121 -0.3996  0.2185
11490TIP3   OH234408   5.109   5.074   5.744  0.5155 -0.1723  0.2709
11490TIP3    H134409   5.077   4.995   5.789  0.1460  0.7478  1.6842
11490TIP3    H234410   5.174   5.042   5.683  0.3557 -1.5870  0.8047
11491TIP3   OH234411   4.652   5.354   4.953  0.1906 -0.0296 -0.5626
11491TIP3    H134412   4.679   5.420   5.016  0.0531  0.9828 -1.5470
11491TIP3    H234413   4.559   5.340   4.970  0.0261  0.6382 -0.8765
11492TIP3   OH234414   7.206   3.297   5.002  0.5396 -0.3841  0.1141
11492TIP3    H134415   7.140   3.247   4.955 -1.9753  1.7891  1.2348
11492TIP3    H234416   7.226   3.371   4.945  1.7779 -0.8392 -0.0639
11493TIP3   OH234417   4.593   5.142   6.091  0.3936 -0.0310  0.5339
11493TIP3    H134418   4.612   5.232   6.064  0.3335 -1.2244 -3.6833
11493TIP3    H234419   4.667   5.091   6.060 -0.3388 -1.7090  1.4662
11494TIP3   OH234420   3.871   4.606   6.102 -0.6637  0.3645  0.6389
11494TIP3    H134421   3.864   4.567   6.015 -0.3481  0.6291  0.4939
11494TIP3    H234422   3.933   4.678   6.091  0.8395 -0.7814  1.4848
11495TIP3   OH234423   0.921   0.068   2.446  0.4817 -0.2793  0.5404
11495TIP3    H134424   0.973  -0.009   2.424  1.3744  0.8640 -1.4505
11495TIP3    H234425   0.985   0.134   2.471 -0.1301  0.5423 -0.0267
11496TIP3   OH234426   3.998   6.006   5.232  0.0990  0.1227  0.0741
11496TIP3    H134427   4.054   5.977   5.159 -0.4467  0.5113 -0.4974
11496TIP3    H234428   4.057   6.055   5.289  0.4622  0.0726 -0.2579
11497TIP3   OH234429   4.787   0.724   1.232  0.1992 -0.0202 -0.3223
11497TIP3    H134430   4.724   0.654   1.212  0.5255 -0.8779  1.5817
11497TIP3    H234431   4.733   0.797   1.261  0.0443 -0.8849  1.6899
11498TIP3   OH234432   4.993   3.904   5.955 -0.1053  0.0671  0.0422
11498TIP3    H134433   5.061   3.897   6.022  0.5067 -1.9198 -0.7421
11498TIP3    H234434   5.028   3.968   5.893  0.1062  0.6041  0.7097
11499TIP3   OH234435   6.975   5.352   6.265 -0.4370  0.4704  0.3322
11499TIP3    H134436   6.987   5.297   6.342  0.2807  0.1839  0.0179
11499TIP3    H234437   7.025   5.431   6.284  0.8449 -0.1568 -0.4041
11500TIP3   OH234438   6.273   5.254   6.606 -0.3238  0.0510 -0.2557
11500TIP3    H134439   6.343   5.197   6.638  0.1968  1.1657  0.6186
11500TIP3    H234440   6.201   5.194   6.587  0.6214 -1.0366 -0.5107
11501TIP3   OH234441   6.085   2.580   5.715 -0.2500  0.4705 -0.0343
11501TIP3    H134442   6.119   2.507   5.766 -1.7855 -0.3590 -0.1721
11501TIP3    H234443   6.163   2.621   5.676  0.4825 -2.1983 -1.4413
11502TIP3   OH234444   1.865   0.864   0.504 -0.0417  0.0464 -0.0042
11502TIP3    H134445   1.834   0.852   0.415  0.9089 -0.5792 -0.2579
11502TIP3    H234446   1.810   0.806   0.557  1.3613 -1.8368 -0.5874
11503TIP3   OH234447   5.632   2.507   0.812  0.2898 -0.4187 -0.1905
11503TIP3    H134448   5.653   2.551   0.729  0.3917 -1.6095 -0.8098
11503TIP3    H234449   5.599   2.421   0.786  1.6144 -1.3319  1.0411
11504TIP3   OH234450   4.609   3.769   3.407  0.3159 -0.2529 -0.2231
11504TIP3    H134451   4.682   3.823   3.437  0.5760 -0.2422 -0.8863
11504TIP3    H234452   4.647   3.708   3.344  0.3634 -2.4055  1.8186
11505TIP3   OH234453   5.019   4.427   5.429  0.5517  0.5397 -0.3831
11505TIP3    H134454   4.934   4.389   5.449  0.5853  0.0478 -1.1482
11505TIP3    H234455   5.013   4.452   5.337  1.9539 -1.4751 -1.0723
11506TIP3   OH234456   4.813   2.419   6.428 -0.0022 -0.1120  0.3453
11506TIP3    H134457   4.793   2.488   6.365  0.9127 -0.5961 -0.4854
11506TIP3    H234458   4.841   2.465   6.507  1.5233  0.4642 -0.5217
11507TIP3   OH234459   2.636   0.299   1.372  0.3843 -0.0450 -0.2910
11507TIP3    H134460   2.697   0.366   1.341  0.5186 -1.2655 -2.8407
11507TIP3    H234461   2.549   0.336   1.356  0.4502  0.4159  0.3992
11508TIP3   OH234462   6.238   4.084   4.438 -0.0277 -0.2160 -0.4323
11508TIP3    H134463   6.224   4.174   4.467  3.3577 -0.6611  2.9736
11508TIP3    H234464   6.158   4.037   4.464  0.2981  0.7703  2.5431
11509TIP3   OH234465   3.453   3.000   6.781  0.2676  0.0401  0.3276
11509TIP3    H134466   3.521   2.933   6.779  0.6530  0.3889  1.3197
11509TIP3    H234467   3.399   2.982   6.704  1.1034 -0.6315 -0.1099
11510TIP3   OH234468   4.775   7.777   4.714 -0.1368  0.0142 -0.0805
11510TIP3    H134469   4.844   7.714   4.735  1.0023  1.0508 -0.6620
11510TIP3    H234470   4.700   7.723   4.689  0.0180 -1.1535  1.8428
11511TIP3   OH234471   6.676   7.481   0.332  0.5634 -0.3524  0.1679
11511TIP3    H134472   6.618   7.405   0.334 -0.2927  0.2930  0.4354
11511TIP3    H234473   6.764   7.445   0.346  0.0475 -1.1715  1.3833
11512TIP3   OH234474   8.255   2.725   1.575  0.5688  0.2970 -0.1772
11512TIP3    H134475   8.222   2.697   1.660  0.5746 -0.3907 -0.3983
11512TIP3    H234476   8.277   2.818   1.587 -0.4912  0.4952  0.2528
11513TIP3   OH234477   3.124   4.937   6.810 -0.0504  0.0906 -0.1374
11513TIP3    H134478   3.126   4.960   6.717  0.1455  0.3842 -0.0598
11513TIP3    H234479   3.114   5.020   6.856 -1.0676 -0.1393  0.0677
11514TIP3   OH234480   3.812   4.871   5.218 -0.1593  0.0540  0.1219
11514TIP3    H134481   3.802   4.791   5.166  2.5039 -0.0783 -0.2513
11514TIP3    H234482   3.877   4.850   5.284 -0.7119  1.4018  1.1328
11515TIP3   OH234483   3.026   5.011   4.542  0.4675 -0.0672  0.0199
11515TIP3    H134484   3.047   5.023   4.635 -0.0050 -1.6835  0.3602
11515TIP3    H234485   2.969   4.933   4.541 -0.5471  0.6807 -1.4956
11516TIP3   OH234486   6.514   4.277   4.559  0.0261  0.2120 -0.1613
11516TIP3    H134487   6.599   4.272   4.515 -0.6292 -0.3170 -1.3900
11516TIP3    H234488   6.460   4.211   4.516 -0.6353 -0.3524  1.4705
11517TIP3   OH234489   2.879   7.066   5.664 -0.7796 -0.0522 -0.5969
11517TIP3    H134490   2.830   7.027   5.592 -1.5349 -2.0990  0.9851
11517TIP3    H234491   2.812   7.093   5.727  0.0523 -3.7087  1.9972
11518TIP3   OH234492   5.723   6.627   5.015 -0.6407 -0.3543  0.1844
11518TIP3    H134493   5.806   6.589   5.043 -1.9263 -0.9102  3.4543
11518TIP3    H234494   5.738   6.722   5.021  0.3352 -0.4106 -1.1184
11519TIP3   OH234495   6.769   7.287   6.393  0.1311 -0.1811  0.0132
11519TIP3    H134496   6.813   7.295   6.478 -0.2770 -1.1678  0.3247
11519TIP3    H234497   6.784   7.372   6.350  1.7365 -0.2506  0.3917
11520TIP3   OH234498   6.299   4.206   6.588 -0.0402  0.2808 -0.5449
11520TIP3    H134499   6.289   4.222   6.682 -0.7555 -1.4009 -0.3042
11520TIP3    H234500   6.218   4.239   6.549 -0.3513 -0.2828 -0.3853
11521TIP3   OH234501   1.972   7.785   4.576  0.0491 -0.3135  0.5756
11521TIP3    H134502   1.894   7.791   4.632 -1.2084 -1.5420 -1.0049
11521TIP3    H234503   1.996   7.692   4.577 -0.9253 -0.6329 -2.1337
11522TIP3   OH234504   1.713   5.955   5.116  0.1503 -0.1796 -0.1263
11522TIP3    H134505   1.778   6.025   5.107  0.0103  0.2157  1.6429
11522TIP3    H234506   1.629   5.998   5.105  0.1331 -0.3919 -0.8039
11523TIP3   OH234507   5.256   4.156   6.230 -0.0608  0.0024 -0.7963
11523TIP3    H134508   5.212   4.184   6.150  0.9751 -1.7795 -2.0146
11523TIP3    H234509   5.289   4.236   6.269  0.3789  0.7675 -2.7222
11524TIP3   OH234510   5.358   4.966   6.347  0.3848 -0.1109  0.4222
11524TIP3    H134511   5.299   4.897   6.377  0.1093  0.5105  1.3428
11524TIP3    H234512   5.409   4.990   6.425  1.3093 -0.0919 -0.1745
11525TIP3   OH234513   3.199   4.868   5.985 -0.8179  0.1469 -0.2363
11525TIP3    H134514   3.147   4.846   5.907 -0.9140  1.4864 -0.5564
11525TIP3    H234515   3.141   4.848   6.058 -1.4353  0.6915 -0.5673
11526TIP3   OH234516   1.676   0.379   0.545  0.1508 -0.3477 -0.6021
11526TIP3    H134517   1.725   0.335   0.614  0.9309 -2.5763 -2.4989
11526TIP3    H234518   1.703   0.335   0.464 -1.7049  1.3037 -2.1906
11527TIP3   OH234519   5.162   3.816   5.112 -0.0415  0.0181  0.2746
11527TIP3    H134520   5.192   3.817   5.021 -0.0784 -0.7947  0.2543
11527TIP3    H234521   5.069   3.838   5.107 -0.6966 -2.7614 -0.1292
11528TIP3   OH234522   3.467   5.036   5.760 -0.3202 -0.0606 -0.6338
11528TIP3    H134523   3.491   5.063   5.671 -0.0616 -2.6567 -1.4060
11528TIP3    H234524   3.422   4.953   5.748 -0.2793 -0.4451  1.6785
11529TIP3   OH234525   3.951   2.516   4.929  0.3369  0.0208 -0.8355
11529TIP3    H134526   4.011   2.513   4.855  0.1993  0.0242 -0.9466
11529TIP3    H234527   3.908   2.430   4.928  1.9475 -0.8352  0.5792
11530TIP3   OH234528   7.341   3.922   5.022 -0.0061 -0.3064  0.6101
11530TIP3    H134529   7.354   3.940   4.928  0.3960 -1.3825  0.4487
11530TIP3    H234530   7.425   3.946   5.062 -0.1479  0.0710  0.6707
11531TIP3   OH234531   2.501   5.231   6.631  0.5070  0.5212 -0.5484
11531TIP3    H134532   2.596   5.227   6.622  1.0034  3.4897  2.3145
11531TIP3    H234533   2.481   5.325   6.629 -2.7577 -0.1056 -3.9453
11532TIP3   OH234534   3.720   4.632   6.332  0.2952 -0.6259  0.5032
11532TIP3    H134535   3.668   4.713   6.328  1.1850 -0.0338  0.7907
11532TIP3    H234536   3.760   4.625   6.245  1.2115 -0.0893  0.8796
11533TIP3   OH234537   4.951   2.417   6.020 -0.2156  0.2828 -0.6626
11533TIP3    H134538   5.021   2.410   6.086 -1.4848 -0.2366  0.6650
11533TIP3    H234539   4.928   2.510   6.020 -1.1155  0.0728  0.6070
11534TIP3   OH234540   6.329   4.721   4.097  0.1822  0.5971  0.8088
11534TIP3    H134541   6.328   4.661   4.023  1.4171  2.3499 -0.6614
11534TIP3    H234542   6.396   4.686   4.155  1.1632  0.7652 -0.2161
11535TIP3   OH234543   3.450   1.752   0.265  0.1231  0.6783  0.1222
11535TIP3    H134544   3.544   1.745   0.281 -0.1361 -2.2590  0.6745
11535TIP3    H234545   3.410   1.753   0.352 -0.3624  2.0825 -0.1050
11536TIP3   OH234546   1.135   1.043   3.390 -0.4592 -0.0173  1.0828
11536TIP3    H134547   1.105   1.011   3.475 -1.4396  1.5141  1.3260
11536TIP3    H234548   1.067   1.015   3.328  0.6531 -1.8408  0.6501
11537TIP3   OH234549   0.437   7.234   1.770  0.1765 -0.2319  0.2599
11537TIP3    H134550   0.357   7.244   1.717 -1.3984  2.0870  2.9520
11537TIP3    H234551   0.424   7.151   1.816  0.1348 -0.7312 -0.6376
11538TIP3   OH234552   4.118   5.272   5.542 -0.7066  0.4994 -0.0034
11538TIP3    H134553   4.138   5.217   5.617 -0.3629  1.7215  0.8298
11538TIP3    H234554   4.135   5.361   5.573  2.5272  0.8349 -2.4931
11539TIP3   OH234555   1.181   0.286   1.465  0.4273 -0.0991 -0.2665
11539TIP3    H134556   1.251   0.301   1.529 -1.2887  0.8382  1.4400
11539TIP3    H234557   1.163   0.374   1.430 -0.3923 -0.2139 -0.1389
11540TIP3   OH234558   6.724   5.070   6.660 -0.5680 -0.0000  0.2484
11540TIP3    H134559   6.742   4.986   6.618 -3.0796 -0.7842  0.6682
11540TIP3    H234560   6.720   5.132   6.587 -0.8913 -0.6499 -0.2955
11541TIP3   OH234561   8.161   4.288   5.214 -0.7181 -0.2487  0.0665
11541TIP3    H134562   8.177   4.313   5.305  2.1142 -1.2638 -0.0762
11541TIP3    H234563   8.146   4.370   5.168 -0.2357  0.4403  1.1244
11542TIP3   OH234564   6.307   4.846   5.870 -0.0500  0.1109 -0.1451
11542TIP3    H134565   6.381   4.907   5.878 -0.2475  0.5786 -1.8083
11542TIP3    H234566   6.331   4.773   5.927  1.5666  0.3868 -0.4311
11543TIP3   OH234567   0.975   1.984   0.643 -0.4109  0.2111  0.1793
11543TIP3    H134568   0.978   1.954   0.734 -0.3512 -1.7335 -0.4472
11543TIP3    H234569   0.935   2.071   0.648 -0.7880 -0.0440  2.0197
11544TIP3   OH234570   7.565   6.352   4.150  0.7865  0.4134  0.3573
11544TIP3    H134571   7.476   6.385   4.163  0.7862 -0.1265  1.7113
11544TIP3    H234572   7.563   6.315   4.061 -0.7403 -0.9144  0.9249
11545TIP3   OH234573   7.739   5.174   6.632  0.4475 -0.1792  0.4575
11545TIP3    H134574   7.793   5.193   6.709 -0.2820  2.3695  0.3766
11545TIP3    H234575   7.796   5.192   6.557  0.7210 -1.3330  0.3781
11546TIP3   OH234576   3.967   5.564   6.849  0.3903  0.1201  0.6470
11546TIP3    H134577   3.942   5.515   6.771 -0.4319  2.3028 -0.4926
11546TIP3    H234578   4.062   5.571   6.843  0.3745 -0.1246  0.1170
11547TIP3   OH234579   6.249   5.866   5.032  0.3790 -0.1463  0.1435
11547TIP3    H134580   6.265   5.879   4.939  0.5302 -0.9571  0.0589
11547TIP3    H234581   6.155   5.845   5.038  0.1888  0.7067  0.2590
11548TIP3   OH234582   4.773   0.569   1.728 -0.2768  0.1745 -0.3347
11548TIP3    H134583   4.731   0.574   1.643 -2.1696 -3.3928  0.2702
11548TIP3    H234584   4.731   0.494   1.771  1.3402  1.2472  3.3269
11549TIP3   OH234585   4.362   6.590   4.801  0.2281  0.1621  0.1548
11549TIP3    H134586   4.367   6.625   4.712  0.5087  0.7654  0.4083
11549TIP3    H234587   4.411   6.508   4.798 -0.3758 -0.1858 -0.4212
11550TIP3   OH234588   5.969   4.832   5.874 -0.4658  0.5116 -0.0983
11550TIP3    H134589   6.039   4.897   5.868 -0.4555  0.5496  0.3577
11550TIP3    H234590   5.907   4.855   5.805  2.0951 -2.0895 -3.4156
11551TIP3   OH234591   6.726   5.987   4.623 -0.0284 -0.4790 -0.9705
11551TIP3    H134592   6.706   6.057   4.561  3.0648 -1.0736 -2.7065
11551TIP3    H234593   6.663   5.918   4.602 -0.5398  0.2518 -1.8715
11552TIP3   OH234594   8.400   3.279   4.143 -0.3214 -0.2503 -0.0205
11552TIP3    H134595   8.386   3.362   4.188  0.5784  0.8513 -1.7373
11552TIP3    H234596   8.313   3.255   4.110 -0.7552 -0.4690  1.2723
11553TIP3   OH234597   0.684   5.241   5.036 -0.1711 -0.0153 -0.1824
11553TIP3    H134598   0.777   5.250   5.015 -0.0873  1.0460  0.6298
11553TIP3    H234599   0.663   5.318   5.088 -0.7795 -1.7739  2.2674
11554TIP3   OH234600   3.760   5.903   4.988  0.4305  0.4823  0.3586
11554TIP3    H134601   3.728   5.992   5.001 -2.3427 -0.1014 -2.0087
11554TIP3    H234602   3.823   5.910   4.917  1.8659  0.8552  1.6421
11555TIP3   OH234603   5.501   6.046   5.786 -0.2283 -0.6101 -0.8715
11555TIP3    H134604   5.453   6.000   5.855  2.1598 -0.8919  0.6497
11555TIP3    H234605   5.495   6.139   5.810 -1.1415 -0.5082 -1.4437
11556TIP3   OH234606   5.233   4.149   5.834  0.6867 -0.0178 -0.1522
11556TIP3    H134607   5.242   4.242   5.856 -0.1967  0.2276 -0.7688
11556TIP3    H234608   5.309   4.107   5.874  0.3139  0.7457  1.3975
11557TIP3   OH234609   4.538   4.631   4.680  0.3087  0.2911  0.3954
11557TIP3    H134610   4.466   4.585   4.724 -0.1693  1.5540  0.9904
11557TIP3    H234611   4.535   4.601   4.590 -0.4189 -0.3322  0.6234
11558TIP3   OH234612   0.839   7.807   0.580 -0.3654  0.1280  0.0172
11558TIP3    H134613   0.934   7.807   0.594 -0.3304  1.0823 -0.1916
11558TIP3    H234614   0.829   7.811   0.484 -0.6118 -3.4036 -0.1631
11559TIP3   OH234615   7.709   3.585   4.169  0.4956  0.2666 -0.4697
11559TIP3    H134616   7.681   3.496   4.148 -0.9870 -0.0515  2.6511
11559TIP3    H234617   7.803   3.586   4.150  0.8673 -2.4902  1.1070
11560TIP3   OH234618   6.723   5.903   3.423 -0.5828 -0.1073 -0.3484
11560TIP3    H134619   6.743   5.810   3.414  0.7491  0.1951 -0.6032
11560TIP3    H234620   6.732   5.921   3.516 -1.2689 -0.3255 -0.2385
11561TIP3   OH234621   4.434   7.136   5.435 -0.6757  0.8772 -0.0794
11561TIP3    H134622   4.416   7.051   5.395 -1.9939  2.0450 -2.1029
11561TIP3    H234623   4.356   7.188   5.415  0.7508  3.0120 -0.2314
11562TIP3   OH234624   3.488   5.318   3.722 -0.5965 -0.0559 -0.5923
11562TIP3    H134625   3.573   5.279   3.704 -1.1274 -0.8411 -1.4289
11562TIP3    H234626   3.445   5.257   3.782 -0.1086  0.9383  0.7945
11563TIP3   OH234627   6.547   7.210   4.471 -0.3520 -0.2412 -0.2332
11563TIP3    H134628   6.538   7.116   4.490 -4.9064  0.4027  1.4795
11563TIP3    H234629   6.488   7.225   4.397 -1.1691  1.6077  0.7671
11564TIP3   OH234630   5.921   0.146   0.939 -0.1361 -0.0368 -0.1299
11564TIP3    H134631   5.956   0.079   0.880  1.7312 -0.5774  1.5361
11564TIP3    H234632   5.955   0.228   0.903  0.4752 -0.3042 -0.1757
11565TIP3   OH234633   8.098   2.483   4.196  0.0212  0.7065 -0.1922
11565TIP3    H134634   8.185   2.511   4.225 -0.6874  3.6736 -0.6970
11565TIP3    H234635   8.043   2.493   4.274  0.1016 -1.0914  0.1064
11566TIP3   OH234636   5.745   4.295   5.204  0.0557 -0.0932  0.0609
11566TIP3    H134637   5.835   4.268   5.188 -0.2727 -0.4093 -1.2753
11566TIP3    H234638   5.738   4.382   5.164 -0.7344 -0.8387 -1.4454
11567TIP3   OH234639   5.151   5.026   4.248 -0.2453  0.1634  0.2594
11567TIP3    H134640   5.226   4.975   4.280 -1.0157  0.7737  3.1796
11567TIP3    H234641   5.078   4.965   4.248 -0.4713  0.4259  0.6926
11568TIP3   OH234642   7.367   3.330   3.517  0.2617  0.6838 -0.8539
11568TIP3    H134643   7.369   3.236   3.500  0.2051  0.7777 -1.3811
11568TIP3    H234644   7.460   3.354   3.524  0.3096  0.7634 -1.7001
11569TIP3   OH234645   7.643   4.012   3.161  0.2866  0.2458  0.0289
11569TIP3    H134646   7.663   4.043   3.250  1.2486 -0.0298 -0.0782
11569TIP3    H234647   7.561   4.055   3.138 -0.0890  0.1397  1.1436
11570TIP3   OH234648   5.162   6.001   4.614 -0.0890  0.1172  0.3460
11570TIP3    H134649   5.241   5.965   4.575 -1.1887 -0.0573 -1.7828
11570TIP3    H234650   5.109   5.925   4.638 -1.8353  0.2035 -2.9557
11571TIP3   OH234651   7.207   3.636   6.214 -0.9003  0.0527  0.2886
11571TIP3    H134652   7.131   3.686   6.185 -1.8793 -0.8728  1.2184
11571TIP3    H234653   7.249   3.692   6.280 -1.2664  0.2110  0.3918
11572TIP3   OH234654   7.859   3.333   3.625 -0.6354  0.0830 -0.0307
11572TIP3    H134655   7.924   3.290   3.570 -2.2590 -1.4099 -0.8488
11572TIP3    H234656   7.842   3.270   3.695 -0.7937  0.7015  0.4921
11573TIP3   OH234657   7.651   6.523   4.949  0.4443 -0.2646  0.1440
11573TIP3    H134658   7.637   6.536   4.855 -0.1772 -0.6765  0.1726
11573TIP3    H234659   7.746   6.515   4.958  0.4787 -0.7038 -0.5161
11574TIP3   OH234660   5.224   6.214   5.103  0.3694  0.2759  0.2879
11574TIP3    H134661   5.285   6.275   5.145 -0.5206  0.9432  0.6178
11574TIP3    H234662   5.149   6.211   5.162  0.1613 -0.6933 -0.0211
11575TIP3   OH234663   5.863   4.988   4.576 -0.1543  0.6234  0.1399
11575TIP3    H134664   5.777   4.958   4.546  0.2090 -0.9136  0.5992
11575TIP3    H234665   5.925   4.944   4.518  0.3781  0.7587  0.6009
11576TIP3   OH234666   3.041   2.885   0.162 -0.0411  0.3563 -0.4211
11576TIP3    H134667   2.987   2.955   0.199  0.3934  0.4888 -0.0268
11576TIP3    H234668   3.081   2.923   0.084  0.4657  0.6614 -0.0148
11577TIP3   OH234669   4.964   3.464   0.997 -0.4399  0.2826  0.1037
11577TIP3    H134670   4.946   3.424   0.912  0.0368  1.5709 -0.6151
11577TIP3    H234671   5.051   3.434   1.020 -0.5333  0.0069  0.1006
11578TIP3   OH234672   7.229   3.854   5.680 -0.0746 -0.5514 -0.0217
11578TIP3    H134673   7.178   3.829   5.758  0.3107 -0.0967  0.3774
11578TIP3    H234674   7.280   3.775   5.659  0.3239 -0.4623  0.5915
11579TIP3   OH234675   6.745   4.477   4.437  0.4203  0.0920  0.1059
11579TIP3    H134676   6.677   4.544   4.431  1.2532  1.0285  1.0628
11579TIP3    H234677   6.728   4.420   4.362 -0.5911  1.0922 -0.4495
11580TIP3   OH234678   5.496   4.897   4.187 -0.0749 -0.2596 -0.4012
11580TIP3    H134679   5.466   4.878   4.098 -1.3999 -0.5874  0.1040
11580TIP3    H234680   5.481   4.815   4.235  0.9536 -0.1935  0.0476
11581TIP3   OH234681   5.803   6.592   6.130  0.3878 -0.2044 -0.1701
11581TIP3    H134682   5.721   6.562   6.091  1.6098 -2.9204 -0.7503
11581TIP3    H234683   5.844   6.644   6.061  0.1035 -0.5568 -0.6112
11582TIP3   OH234684   3.905   6.497   4.140  0.4116 -0.6442 -0.3335
11582TIP3    H134685   3.984   6.469   4.186 -0.7422 -2.6272  0.4903
11582TIP3    H234686   3.875   6.419   4.093 -1.0109  0.0926 -0.6894
11583TIP3   OH234687   6.222   5.062   5.431  0.3139  0.1456 -0.3526
11583TIP3    H134688   6.182   5.127   5.489 -2.2623 -2.1963  0.5953
11583TIP3    H234689   6.267   5.001   5.489  2.4534  0.8284 -1.2182
11584TIP3   OH234690   0.953   4.010   2.104 -0.4002  0.4227 -0.4939
11584TIP3    H134691   0.867   4.001   2.062 -0.2537  1.9046 -1.1686
11584TIP3    H234692   0.933   4.031   2.195 -0.7206 -4.3087  0.6189
11585TIP3   OH234693   5.898   5.762   5.157  0.5183 -0.0732  0.0873
11585TIP3    H134694   5.815   5.723   5.182  0.4121  0.7752  1.1048
11585TIP3    H234695   5.940   5.786   5.239  1.7754 -0.4954 -0.4163
11586TIP3   OH234696   7.006   4.028   6.478  0.3669  0.0852 -0.3306
11586TIP3    H134697   7.035   4.068   6.396 -1.7814 -1.0690 -1.6949
11586TIP3    H234698   7.075   4.050   6.541  1.2981  2.3053 -2.0463
11587TIP3   OH234699   5.495   2.113   0.489  0.0497 -0.1449 -0.1308
11587TIP3    H134700   5.487   2.133   0.396 -0.0994 -0.5578 -0.2074
11587TIP3    H234701   5.555   2.038   0.492 -0.1982 -0.3341  0.0849
11588TIP3   OH234702   8.285   6.036   5.987 -0.1747  0.3273 -0.0350
11588TIP3    H134703   8.278   6.037   6.082 -0.8137  0.0943 -0.0809
11588TIP3    H234704   8.230   5.962   5.959  0.9647 -0.3631 -0.4997
11589TIP3   OH234705   7.144   6.935   4.367  0.2863  0.1880  0.1960
11589TIP3    H134706   7.220   6.951   4.424  0.7832  0.0329 -0.4133
11589TIP3    H234707   7.076   6.993   4.401 -0.1218 -1.4688  2.3147
11590TIP3   OH234708   3.456   0.959   0.627  0.3386 -0.1956  0.0653
11590TIP3    H134709   3.407   0.957   0.545  3.8393  0.6038 -2.1616
11590TIP3    H234710   3.498   1.045   0.627 -0.2107  0.1052  3.0974
11591TIP3   OH234711   5.126   5.027   3.401  0.4089 -0.0941  0.4531
11591TIP3    H134712   5.107   5.020   3.494  1.6500  2.1384  0.9063
11591TIP3    H234713   5.220   5.008   3.394  0.6502  1.2693 -0.1304
11592TIP3   OH234714   8.175   4.620   4.880 -0.1751 -0.0205 -0.0272
11592TIP3    H134715   8.124   4.565   4.819  1.4534 -0.2845 -1.2003
11592TIP3    H234716   8.161   4.580   4.966 -0.8344 -0.9281 -0.5435
11593TIP3   OH234717   4.220   1.692   0.363 -0.1945  0.0834 -0.3551
11593TIP3    H134718   4.246   1.676   0.272 -0.5558  2.6771 -0.9440
11593TIP3    H234719   4.144   1.750   0.357  0.2833  0.9605  1.6286
11594TIP3   OH234720   0.286   6.657   5.970 -0.0983 -0.0048  0.0575
11594TIP3    H134721   0.260   6.567   5.954 -0.7559  0.1330  0.3185
11594TIP3    H234722   0.220   6.690   6.032  0.3390  0.5419  0.2354
11595TIP3   OH234723   6.936   4.245   4.472  0.1549  0.0105  0.3489
11595TIP3    H134724   6.993   4.182   4.516  1.1534 -1.2168 -2.6290
11595TIP3    H234725   6.980   4.329   4.485  1.6986 -0.6711 -0.3682
11596TIP3   OH234726   8.380   3.258   6.529 -0.0300  0.0918  0.0656
11596TIP3    H134727   8.401   3.264   6.622 -0.1644  0.9041  0.0475
11596TIP3    H234728   8.445   3.198   6.494  0.0693 -0.1578  0.6706
11597TIP3   OH234729   7.358   5.187   6.922  0.1016  0.0362 -0.1838
11597TIP3    H134730   7.406   5.196   6.839 -0.4218  1.5622 -0.3384
11597TIP3    H234731   7.409   5.236   6.985 -0.7171  0.8223 -0.1251
11598TIP3   OH234732   4.616   4.454   4.401  0.1226  0.2700  0.0783
11598TIP3    H134733   4.652   4.543   4.395  0.6169  0.0396 -0.3834
11598TIP3    H234734   4.616   4.421   4.311 -3.1661  0.9934 -0.2366
11599TIP3   OH234735   8.250   3.334   4.711  0.1233  0.1095  0.0046
11599TIP3    H134736   8.225   3.286   4.790 -1.8599 -0.6734 -1.0750
11599TIP3    H234737   8.255   3.426   4.739 -2.7840  0.1316  0.5609
11600TIP3   OH234738   6.595   4.566   3.823  0.1748 -0.2587  0.6716
11600TIP3    H134739   6.587   4.569   3.727  0.1385 -1.5100  0.6256
11600TIP3    H234740   6.663   4.630   3.843  0.1759  0.0263 -0.1945
11601TIP3   OH234741   7.215   4.310   3.206  0.4484  0.0239 -0.9555
11601TIP3    H134742   7.198   4.334   3.115  0.1411  0.1137 -0.8775
11601TIP3    H234743   7.134   4.267   3.234 -0.0657  1.4198 -0.2433
11602TIP3   OH234744   7.940   4.400   4.057  0.3776  0.3243  0.2404
11602TIP3    H134745   7.919   4.493   4.046  0.8445  0.4976  0.7908
11602TIP3    H234746   7.855   4.357   4.059  0.2152  0.4007 -2.8705
11603TIP3   OH234747   8.333   5.268   5.525 -0.0550 -0.5520  0.2530
11603TIP3    H134748   8.412   5.255   5.473 -0.5930  1.4216 -1.1732
11603TIP3    H234749   8.290   5.183   5.526  0.9656 -1.0916 -0.8940
11604TIP3   OH234750   6.085   6.588   4.436 -0.5267 -0.3569 -0.1276
11604TIP3    H134751   6.132   6.578   4.519 -0.2484  0.0715 -0.2323
11604TIP3    H234752   5.996   6.613   4.462 -0.1522  0.8730  0.0208
11605TIP3   OH234753   6.922   3.949   4.951  0.4978  0.2204  0.0975
11605TIP3    H134754   6.985   3.877   4.955  1.8048  1.3102 -0.3322
11605TIP3    H234755   6.911   3.977   5.042  1.4226  0.6817  0.0732
11606TIP3   OH234756   7.739   3.898   4.440 -0.0028 -0.1830 -1.0310
11606TIP3    H134757   7.657   3.928   4.401 -0.1330  0.4457 -0.3002
11606TIP3    H234758   7.806   3.919   4.375  0.2549  4.0936  0.4660
11607TIP3   OH234759   5.080   4.627   5.605 -0.0085  0.2874  0.4956
11607TIP3    H134760   5.088   4.669   5.519  0.8337 -0.4117  0.2232
11607TIP3    H234761   5.056   4.536   5.585  0.4168  0.0624  0.9871
11608TIP3   OH234762   3.755   5.370   3.520 -0.0253  0.3289  0.8721
11608TIP3    H134763   3.723   5.421   3.445 -1.5360  2.3858  2.8624
11608TIP3    H234764   3.715   5.284   3.508 -0.3463  0.6615 -0.6256
11609TIP3   OH234765   2.128   2.291   1.679  1.0298 -1.2675 -0.1983
11609TIP3    H134766   2.140   2.373   1.726  1.2096 -1.9479  0.9551
11609TIP3    H234767   2.097   2.318   1.592 -0.5066 -0.0595  0.6962
11610TIP3   OH234768   7.939   5.663   5.104  0.2978 -0.2174  0.3748
11610TIP3    H134769   7.981   5.671   5.190  0.1306 -0.9430  0.5261
11610TIP3    H234770   7.876   5.592   5.115 -1.3803  1.2362  0.3185
11611TIP3   OH234771   6.029   3.957   4.578  0.2767  0.1871  0.3892
11611TIP3    H134772   6.014   3.893   4.648  0.3442 -0.4591 -0.1832
11611TIP3    H234773   5.945   4.002   4.569  0.4453  0.6790  1.2988
11612TIP3   OH234774   8.230   3.545   3.652  0.1985 -0.2795  0.4397
11612TIP3    H134775   8.287   3.621   3.656 -0.8855  0.5468  0.4107
11612TIP3    H234776   8.227   3.522   3.559 -0.1536  0.1725  0.3371
11613TIP3   OH234777   6.278   2.934   4.332 -0.5964 -0.2515 -0.4310
11613TIP3    H134778   6.367   2.969   4.332 -0.5980 -0.2475 -0.4540
11613TIP3    H234779   6.222   3.008   4.355 -0.4798 -0.5220  0.7673
11614TIP3   OH234780   7.293   3.427   6.027  0.2908  0.3539  1.0763
11614TIP3    H134781   7.252   3.512   6.043 -3.0352 -1.3267  1.7556
11614TIP3    H234782   7.335   3.405   6.110 -0.3025  0.5432  1.4264
11615TIP3   OH234783   5.855   7.240   4.318  0.1660  0.0809  0.1384
11615TIP3    H134784   5.893   7.272   4.236 -1.2238  1.0410 -0.1387
11615TIP3    H234785   5.784   7.301   4.337 -1.0906 -1.5525  0.7841
11616TIP3   OH234786   7.462   5.372   4.570  0.2576 -0.3100  0.5580
11616TIP3    H134787   7.384   5.411   4.611  0.2355 -0.7557  0.9338
11616TIP3    H234788   7.445   5.278   4.571  1.4160 -0.5034  1.8752
11617TIP3   OH234789   0.815   6.324   6.588  0.2325 -0.4571 -0.7933
11617TIP3    H134790   0.758   6.313   6.512 -0.8642  1.3225 -0.2518
11617TIP3    H234791   0.782   6.261   6.652 -1.4043  0.8346 -0.3384
11618TIP3   OH234792   5.855   5.652   6.276  0.1555 -0.2340 -0.2232
11618TIP3    H134793   5.808   5.634   6.194  1.7875  1.1363 -1.4972
11618TIP3    H234794   5.942   5.680   6.248  0.8979 -0.2090  2.0169
11619TIP3   OH234795   0.108   5.053   6.531  0.2477  0.2236  0.1573
11619TIP3    H134796   0.160   4.994   6.585  2.0476  0.6312 -1.0854
11619TIP3    H234797   0.080   5.122   6.591  0.3038 -0.5203  1.0551
11620TIP3   OH234798   4.812   4.785   3.971  0.2721  0.2356 -0.0293
11620TIP3    H134799   4.762   4.838   3.909  0.0552 -0.4526 -0.4384
11620TIP3    H234800   4.816   4.698   3.931 -0.3577 -0.3577  1.2003
11621TIP3   OH234801   7.029   4.790   4.020 -0.3847 -0.6033  0.0796
11621TIP3    H134802   7.104   4.772   4.076 -0.3951 -0.2672  0.1951
11621TIP3    H234803   7.066   4.792   3.931 -0.8034 -4.0519 -0.2576
11622TIP3   OH234804   7.318   4.769   5.650  0.0845  0.2847 -0.2141
11622TIP3    H134805   7.276   4.773   5.735  2.7938 -0.6091  1.2411
11622TIP3    H234806   7.352   4.680   5.644 -0.4120  0.2032 -2.4151
11623TIP3   OH234807   1.123   2.723   4.760  0.0114 -0.6681 -0.1915
11623TIP3    H134808   1.097   2.657   4.696  1.1554 -0.9940 -0.3249
11623TIP3    H234809   1.197   2.684   4.806  0.9950  0.7143 -0.5852
11624TIP3   OH234810   6.578   2.738   4.673  0.0667  0.4950  0.1585
11624TIP3    H134811   6.611   2.768   4.758 -1.8740  1.2760  0.6703
11624TIP3    H234812   6.494   2.783   4.663 -0.4557 -0.7960 -1.4619
11625TIP3   OH234813   4.815   7.183   5.092 -0.1611  0.0622  0.4218
11625TIP3    H134814   4.763   7.113   5.054  0.7203  0.3123 -1.2861
11625TIP3    H234815   4.803   7.173   5.186 -2.6088 -0.3886  0.0936
11626TIP3   OH234816   7.147   5.553   3.825  0.3559 -0.0033  0.1471
11626TIP3    H134817   7.181   5.512   3.903  1.5918  2.4994  0.9743
11626TIP3    H234818   7.221   5.601   3.788 -0.5636  0.0050 -1.7606
11627TIP3   OH234819   3.116   1.699   0.983 -0.2939  0.2192 -0.1182
11627TIP3    H134820   3.042   1.640   0.998  0.1284 -0.3546 -0.2349
11627TIP3    H234821   3.077   1.785   0.971 -0.7666  0.4441  2.6897
11628TIP3   OH234822   0.883   3.346   5.185 -0.3888  0.6433  0.3305
11628TIP3    H134823   0.963   3.294   5.182  0.7217  2.3469  0.2882
11628TIP3    H234824   0.839   3.325   5.102  2.7413  3.9382 -2.3248
11629TIP3   OH234825   8.340   6.150   5.722  0.7038 -0.0633  0.3399
11629TIP3    H134826   8.380   6.104   5.648 -0.4900 -1.7427  0.6871
11629TIP3    H234827   8.257   6.182   5.688  0.0449 -1.0420  0.9899
11630TIP3   OH234828   0.268   4.995   4.936 -0.3126 -0.2764  0.5270
11630TIP3    H134829   0.179   4.966   4.956  0.5389 -1.7016  2.3770
11630TIP3    H234830   0.276   4.984   4.841 -1.6969 -1.3034  0.5093
11631TIP3   OH234831   0.457   5.702   6.634 -0.1118  0.1476 -0.1044
11631TIP3    H134832   0.391   5.698   6.565  2.3787  1.1897 -2.6196
11631TIP3    H234833   0.476   5.611   6.654 -1.5256 -0.1622 -0.0844
11632TIP3   OH234834   7.958   3.529   5.323  0.1376  0.1264  0.3243
11632TIP3    H134835   7.925   3.442   5.342 -3.0648  1.2144 -0.0283
11632TIP3    H234836   7.949   3.538   5.228 -0.7025  1.2951  0.5097
11633TIP3   OH234837   5.885   6.826   6.285  0.6979  0.1313 -0.2782
11633TIP3    H134838   5.811   6.816   6.344  0.0799  1.4684 -0.8167
11633TIP3    H234839   5.877   6.753   6.224  0.5186 -0.4160  0.3886
11634TIP3   OH234840   3.938   6.814   4.596 -0.4159  0.2624 -0.2848
11634TIP3    H134841   3.974   6.754   4.662 -0.8588  0.5226  0.1905
11634TIP3    H234842   3.862   6.768   4.561 -1.5411  1.0916  1.0096
11635TIP3   OH234843   7.634   4.643   5.888  0.0388 -0.6512  0.6588
11635TIP3    H134844   7.545   4.609   5.873  0.7363 -2.3100  0.1482
11635TIP3    H234845   7.677   4.575   5.940  0.8358  0.4087  1.3931
11636TIP3   OH234846   5.187   5.410   5.348 -0.7599 -0.2418 -0.0424
11636TIP3    H134847   5.125   5.353   5.302 -0.3443 -0.9518  0.2632
11636TIP3    H234848   5.136   5.448   5.419 -0.6590 -1.4529  0.6982
11637TIP3   OH234849   7.339   3.550   5.765 -0.0960  0.0257 -0.3153
11637TIP3    H134850   7.389   3.477   5.801 -0.7273  0.1634  0.8651
11637TIP3    H234851   7.301   3.515   5.684 -0.9435 -1.1834  0.5827
11638TIP3   OH234852   6.477   6.990   3.871 -0.3433  0.3747  0.0131
11638TIP3    H134853   6.407   7.053   3.854  0.0143  0.7033 -0.2617
11638TIP3    H234854   6.499   6.955   3.785 -0.8933 -0.5145  0.2261
11639TIP3   OH234855   6.326   6.968   4.127  0.6975 -0.0274  0.3183
11639TIP3    H134856   6.282   7.008   4.052  0.6958  1.5398  1.1425
11639TIP3    H234857   6.333   6.875   4.103 -0.6365  0.1776 -0.9807
11640TIP3   OH234858   5.142   4.074   6.567 -0.0345  0.0508  0.2841
11640TIP3    H134859   5.175   4.134   6.634  3.5607 -1.4460 -0.0394
11640TIP3    H234860   5.218   4.022   6.541 -2.5122 -3.1225 -1.0631
11641TIP3   OH234861   6.220   3.719   3.152 -0.1573  0.1192  0.0757
11641TIP3    H134862   6.305   3.750   3.120 -1.6828  2.1290 -2.1994
11641TIP3    H234863   6.224   3.624   3.144  2.3373  0.0787  1.2625
11642TIP3   OH234864   5.777   4.839   5.420  0.2437 -0.3408 -0.1497
11642TIP3    H134865   5.773   4.891   5.500 -2.4228  1.2722 -1.2808
11642TIP3    H234866   5.725   4.761   5.439 -0.4333  0.0672 -0.3331
11643TIP3   OH234867   7.310   5.731   6.570  0.2209 -1.1271  0.7092
11643TIP3    H134868   7.391   5.694   6.606  0.3292  0.5530  2.2501
11643TIP3    H234869   7.336   5.767   6.485  1.7343  1.8055  2.3544
11644TIP3   OH234870   6.465   4.523   4.281  0.3329 -0.3696  0.3155
11644TIP3    H134871   6.393   4.463   4.263 -1.6588  1.9666  0.2825
11644TIP3    H234872   6.445   4.561   4.366  1.7517  0.0064  0.4973
11645TIP3   OH234873   6.690   6.867   6.165 -0.1313 -0.3440 -0.7173
11645TIP3    H134874   6.641   6.936   6.119 -1.3687 -0.8129 -0.1106
11645TIP3    H234875   6.759   6.915   6.211 -1.2775  0.5712  0.0978
11646TIP3   OH234876   5.141   3.519   6.266  0.4295  0.2970 -0.1685
11646TIP3    H134877   5.192   3.438   6.269  1.6723  0.9681 -2.5283
11646TIP3    H234878   5.152   3.557   6.353 -0.1500 -2.0310  0.9669
11647TIP3   OH234879   6.231   2.975   4.972  0.8175 -0.5065 -0.7770
11647TIP3    H134880   6.204   2.922   5.047  1.5413 -0.7977 -0.7139
11647TIP3    H234881   6.200   2.926   4.896 -0.5198  0.1324 -0.6553
11648TIP3   OH234882   5.611   2.337   4.736  0.5519  0.1715  0.3783
11648TIP3    H134883   5.702   2.322   4.711  0.4311 -0.1669  0.1422
11648TIP3    H234884   5.586   2.417   4.690  0.7108  0.2301  0.3946
11649TIP3   OH234885   7.192   3.256   4.315  0.1539  1.4176 -0.4067
11649TIP3    H134886   7.245   3.335   4.314  1.5675  0.6076  2.7594
11649TIP3    H234887   7.201   3.223   4.405 -1.7133 -1.4370 -1.2112
11650TIP3   OH234888   7.009   6.009   4.527  0.7111 -0.4009 -0.3767
11650TIP3    H134889   7.042   5.945   4.590  0.2362 -0.2424  0.0263
11650TIP3    H234890   6.931   6.046   4.567 -0.1739 -1.0296 -1.4997
11651TIP3   OH234891   5.381   4.768   4.793 -0.1371  0.3140 -0.1260
11651TIP3    H134892   5.367   4.697   4.730  0.3125 -1.2261  1.4795
11651TIP3    H234893   5.463   4.809   4.766  0.5938 -1.0128  0.0769
11652TIP3   OH234894   6.461   6.481   6.122  0.4840 -0.3465 -0.0067
11652TIP3    H134895   6.532   6.530   6.080 -0.2326  0.5818 -0.1404
11652TIP3    H234896   6.386   6.540   6.120 -0.1259 -1.0802  0.7151
11653TIP3   OH234897   5.959   1.262   5.351 -0.1575  0.4594  0.0191
11653TIP3    H134898   6.053   1.276   5.358 -0.3143  2.0380 -0.8492
11653TIP3    H234899   5.937   1.287   5.262 -1.2403 -0.9213 -0.1197
11654TIP3   OH234900   4.494   2.207   0.305  0.3140 -0.0653 -0.2061
11654TIP3    H134901   4.452   2.124   0.329 -0.4638  0.2346 -0.5162
11654TIP3    H234902   4.587   2.193   0.324  0.1325 -0.8707  0.1183
11655TIP3   OH234903   6.160   2.867   6.051  0.0318  0.1196 -0.3371
11655TIP3    H134904   6.237   2.924   6.057  0.8933 -0.9142 -1.3233
11655TIP3    H234905   6.116   2.895   5.970  1.0491 -1.2964 -1.4158
11656TIP3   OH234906   3.936   4.430   3.295  0.3617 -0.3969  0.3182
11656TIP3    H134907   3.955   4.338   3.274  1.1456 -0.8234  2.7376
11656TIP3    H234908   3.874   4.425   3.368 -0.6922  1.0218 -0.4618
11657TIP3   OH234909   5.626   4.166   4.838 -0.1112 -0.0808 -0.3041
11657TIP3    H134910   5.719   4.165   4.819 -0.1090  0.5813 -0.3362
11657TIP3    H234911   5.620   4.141   4.930  0.1530  0.5861 -0.1001
11658TIP3   OH234912   6.891   6.183   5.049 -0.2588 -0.1762 -0.0260
11658TIP3    H134913   6.961   6.236   5.086 -0.3475 -0.5216  0.6397
11658TIP3    H234914   6.849   6.142   5.125 -1.0495 -0.1341 -0.4362
11659TIP3   OH234915   3.055   1.961   0.584  0.5961  0.0277 -0.1111
11659TIP3    H134916   3.137   1.975   0.537 -0.1082  0.4392 -1.2387
11659TIP3    H234917   2.994   2.023   0.545 -0.9810 -2.0889 -1.0952
11660TIP3   OH234918   6.364   4.284   5.057  0.4119 -0.2875 -0.0673
11660TIP3    H134919   6.338   4.194   5.076 -1.8184  0.2794 -0.3773
11660TIP3    H234920   6.412   4.312   5.135 -0.0830 -1.2707  0.5973
11661TIP3   OH234921  -0.026   6.197   6.329 -0.1495 -0.3406  0.1867
11661TIP3    H134922   0.061   6.190   6.367  0.1828 -1.1529 -0.6899
11661TIP3    H234923  -0.011   6.235   6.242 -0.7142 -0.0049  0.2361
11662TIP3   OH234924   3.165   1.182   0.710  0.2613  0.1570  0.4955
11662TIP3    H134925   3.150   1.113   0.775  1.0446  1.1228  1.7324
11662TIP3    H234926   3.257   1.169   0.683 -0.3143 -0.7860 -1.1044
11663TIP3   OH234927   7.580   3.929   3.561  0.0706 -0.2810  0.5063
11663TIP3    H134928   7.670   3.919   3.593 -0.4933 -0.9547  1.9050
11663TIP3    H234929   7.549   3.840   3.549 -0.6224 -0.0518  0.5945
11664TIP3   OH234930   6.883   3.148   2.467  0.1987  0.4149 -0.0985
11664TIP3    H134931   6.839   3.210   2.524  0.7530  0.2353  0.5420
11664TIP3    H234932   6.850   3.062   2.495 -0.2198  0.3871 -0.6689
11665TIP3   OH234933   6.114   2.574   6.851 -0.2837  0.3655  0.9601
11665TIP3    H134934   6.079   2.649   6.802 -0.6057 -0.8065 -0.6590
11665TIP3    H234935   6.208   2.573   6.829 -0.2692  0.3252  1.0240
11666TIP3   OH234936   5.489   4.082   5.093 -0.4585 -0.3942  0.1304
11666TIP3    H134937   5.413   4.122   5.050  1.1095  1.6831 -0.8058
11666TIP3    H234938   5.488   4.120   5.181 -0.6286 -0.5213  0.1833
11667TIP3   OH234939   5.807   1.960   3.652  0.3263 -0.2145 -0.6174
11667TIP3    H134940   5.789   1.868   3.637  2.7143 -0.7379 -0.5119
11667TIP3    H234941   5.873   1.983   3.587  0.9513  0.9667  0.4001
11668TIP3   OH234942   7.796   7.911   0.925 -0.1113 -0.2979 -0.1121
11668TIP3    H134943   7.840   7.828   0.945  2.7460  1.0614 -0.5115
11668TIP3    H234944   7.768   7.902   0.834  0.2695 -0.7720 -0.1821
11669TIP3   OH234945   8.145   2.211   3.094  0.1194 -0.2410  0.1628
11669TIP3    H134946   8.108   2.134   3.050 -1.0681  0.8662 -0.8287
11669TIP3    H234947   8.210   2.175   3.154  0.0873 -1.9766 -0.7864
11670TIP3   OH234948   2.182   6.050   6.569 -0.4035 -0.2155 -0.1215
11670TIP3    H134949   2.226   6.106   6.633 -1.5825  0.7113 -0.1023
11670TIP3    H234950   2.088   6.066   6.584 -0.6931 -0.1771 -1.9183
11671TIP3   OH234951   3.363   1.767   0.524 -0.0499  0.3717 -0.1262
11671TIP3    H134952   3.297   1.719   0.574 -0.8798 -0.7185 -2.2198
11671TIP3    H234953   3.429   1.792   0.589 -0.7521 -1.6137  1.3910
11672TIP3   OH234954   6.646   3.982   5.035 -0.2575  0.4442 -0.5285
11672TIP3    H134955   6.718   3.942   4.986 -1.1674  0.6279 -2.0434
11672TIP3    H234956   6.627   4.063   4.988 -2.2120 -0.1604 -0.8080
11673TIP3   OH234957   7.778   5.289   5.714  0.4789  0.1411 -0.0802
11673TIP3    H134958   7.786   5.251   5.627 -0.5882 -0.3285  0.0163
11673TIP3    H234959   7.688   5.269   5.741  0.0581  2.2724  0.1853
11674TIP3   OH234960   4.932   4.146   5.634  0.2377  0.3538 -0.2869
11674TIP3    H134961   4.958   4.054   5.634 -1.7198 -0.2218  0.6552
11674TIP3    H234962   4.915   4.166   5.542 -1.1120 -0.7508 -0.2768
11675TIP3   OH234963   4.777   4.958   6.790 -0.1616 -0.3201  0.0579
11675TIP3    H134964   4.847   4.893   6.779 -2.0338 -2.5307  0.6021
11675TIP3    H234965   4.823   5.042   6.798  2.4828 -1.8196  1.5206
11676TIP3   OH234966   5.618   5.934   4.465 -0.3087  0.4483  0.0190
11676TIP3    H134967   5.624   5.907   4.557 -1.2854 -2.1702 -0.6495
11676TIP3    H234968   5.704   5.913   4.429 -0.6186 -0.4777 -0.1745
11677TIP3   OH234969   8.092   5.997   6.265 -0.5602  0.3657  0.2400
11677TIP3    H134970   8.071   5.909   6.233 -0.2619  1.1901 -2.3997
11677TIP3    H234971   8.071   6.055   6.191 -1.6335  2.6233  2.2509
11678TIP3   OH234972   6.964   7.309   5.657 -0.2071  0.1004  0.0544
11678TIP3    H134973   6.900   7.324   5.588 -0.3877  1.8583  0.5608
11678TIP3    H234974   6.960   7.389   5.710  3.2397  0.7523 -0.5870
11679TIP3   OH234975   5.217   2.723   0.165 -0.5325  0.1001  0.2231
11679TIP3    H134976   5.194   2.672   0.087  1.5582  0.2436 -0.5257
11679TIP3    H234977   5.286   2.673   0.208  1.9051  2.4640 -0.7816
11680TIP3   OH234978   7.821   4.705   6.688  0.1811  0.4377 -0.0394
11680TIP3    H134979   7.916   4.705   6.705  0.0351  2.4862  0.8463
11680TIP3    H234980   7.814   4.721   6.594  0.7367 -1.6827 -0.4809
11681TIP3   OH234981   6.373   4.592   5.710 -0.5255 -0.0824 -0.6034
11681TIP3    H134982   6.408   4.519   5.659 -1.5189  0.6290 -2.3871
11681TIP3    H234983   6.434   4.664   5.694 -0.5884  0.0083 -0.4364
11682TIP3   OH234984   6.420   4.645   6.035  0.6315 -0.1641 -0.6820
11682TIP3    H134985   6.414   4.556   6.001  1.3858  0.2453 -1.9185
11682TIP3    H234986   6.379   4.641   6.121  2.4517 -2.1280  0.1082
11683TIP3   OH234987   7.540   4.941   5.615 -0.0983 -0.8300 -0.6792
11683TIP3    H134988   7.487   5.021   5.614  1.5848  0.2988 -1.2043
11683TIP3    H234989   7.478   4.872   5.638 -1.6735  0.5525 -0.6639
11684TIP3   OH234990   6.170   2.314   4.689  0.1685  0.1038 -0.1627
11684TIP3    H134991   6.144   2.238   4.741 -0.3230 -2.7335 -4.3529
11684TIP3    H234992   6.254   2.341   4.727  0.1203 -2.2000  1.7164
11685TIP3   OH234993   6.963   2.377   4.984 -0.3848 -0.1796  0.4829
11685TIP3    H134994   7.024   2.409   4.917 -0.1172 -0.3041  0.6669
11685TIP3    H234995   6.924   2.456   5.020 -1.3414 -0.1514 -0.5764
11686TIP3   OH234996   8.423   6.084   6.679  0.3576  0.4491  0.2527
11686TIP3    H134997   8.453   6.130   6.757  0.6172 -1.1769  1.1508
11686TIP3    H234998   8.350   6.136   6.646  0.0729  1.0108  1.7489
11687TIP3   OH234999   3.359   4.857   5.243  0.1485 -0.2506 -0.5200
11687TIP3    H135000   3.294   4.926   5.243 -0.3575 -0.5694  3.5969
11687TIP3    H235001   3.309   4.776   5.233  0.5452 -0.1943 -3.2884
11688TIP3   OH235002   6.395   2.649   6.497 -0.0336 -0.5362  0.2473
11688TIP3    H135003   6.352   2.574   6.456 -2.3850  0.5500  0.6462
11688TIP3    H235004   6.364   2.648   6.588 -1.3204  1.7678 -0.1215
11689TIP3   OH235005   2.485   6.868   0.135 -0.3526  0.2055  0.0211
11689TIP3    H135006   2.407   6.854   0.081 -0.6180  1.5360  0.0467
11689TIP3    H235007   2.513   6.957   0.114 -0.1176  0.5284  1.6572
11690TIP3   OH235008   4.414   5.284   3.249  0.8856 -0.1529 -0.4794
11690TIP3    H135009   4.352   5.216   3.277 -0.8507  1.6052  0.0481
11690TIP3    H235010   4.447   5.252   3.165 -0.4828 -1.3006 -0.6117
11691TIP3   OH235011   4.922   2.765   5.427 -0.4420 -0.2561 -1.0698
11691TIP3    H135012   4.946   2.673   5.427  0.6596  0.0117 -0.5032
11691TIP3    H235013   4.834   2.768   5.389 -1.5751 -1.8044  1.3493
11692TIP3   OH235014   5.514   5.680   5.666 -0.5703 -0.1091 -0.1789
11692TIP3    H135015   5.588   5.704   5.721 -0.7811  1.3710 -0.5190
11692TIP3    H235016   5.540   5.597   5.625  0.8054  0.3049 -0.1585
11693TIP3   OH235017   5.723   5.379   6.520  0.8729  0.2039  0.3073
11693TIP3    H135018   5.702   5.327   6.597  0.1095 -0.1967 -0.1670
11693TIP3    H235019   5.756   5.316   6.456  0.6857  0.4063  0.0064
11694TIP3   OH235020   5.755   6.416   3.954  0.1839 -0.4429  0.1859
11694TIP3    H135021   5.797   6.459   4.028 -0.2611 -1.0478  0.7948
11694TIP3    H235022   5.759   6.322   3.975 -0.0952 -0.6061 -0.4715
11695TIP3   OH235023   7.989   5.305   5.171 -0.1126 -0.0815 -0.1941
11695TIP3    H135024   7.983   5.345   5.084  0.1748  0.9143  0.2294
11695TIP3    H235025   8.081   5.315   5.196 -0.5835  1.4559  1.0467
11696TIP3   OH235026   7.098   6.255   6.404 -0.4625 -0.1747 -0.1143
11696TIP3    H135027   7.101   6.165   6.436  2.0590  0.0452  0.4032
11696TIP3    H235028   7.021   6.258   6.348 -1.1258 -2.3932  0.6247
11697TIP3   OH235029   6.538   2.520   6.009 -0.2515  0.9226  0.6468
11697TIP3    H135030   6.475   2.549   6.076  0.8981  0.5403  1.9137
11697TIP3    H235031   6.620   2.510   6.057  0.3383 -0.3873 -0.6204
11698TIP3   OH235032   7.397   6.881   6.738  0.0823  0.6238 -0.1467
11698TIP3    H135033   7.324   6.943   6.745  1.7039  2.7340 -1.4290
11698TIP3    H235034   7.405   6.842   6.825 -2.0177  0.9754  0.2276
11699TIP3   OH235035   7.143   4.474   2.972 -0.6105 -0.2178  0.0157
11699TIP3    H135036   7.055   4.447   2.997 -0.7429  0.0762 -0.1251
11699TIP3    H235037   7.129   4.550   2.915 -0.2000  0.9433  1.4257
11700TIP3   OH235038   5.079   7.508   5.386  0.5992  0.0281  0.7722
11700TIP3    H135039   5.113   7.430   5.342  2.3268  0.4736  1.2979
11700TIP3    H235040   5.015   7.544   5.325  0.3174 -1.3822  0.2089
11701TIP3   OH235041   8.186   2.997   6.199  0.3789 -0.1115  0.5810
11701TIP3    H135042   8.168   3.086   6.230  2.4852  0.4808  0.1603
11701TIP3    H235043   8.279   2.998   6.175 -0.0553 -1.8644 -1.3046
11702TIP3   OH235044   7.477   4.349   5.895  0.0029 -0.5037 -0.1272
11702TIP3    H135045   7.534   4.374   5.968  0.2855  3.0494 -1.4479
11702TIP3    H235046   7.393   4.327   5.936  1.3812 -2.7797  1.5801
11703TIP3   OH235047   6.653   5.362   5.303 -0.2389 -0.7355 -0.3522
11703TIP3    H135048   6.657   5.442   5.250  2.3263 -1.1042 -0.7435
11703TIP3    H235049   6.629   5.393   5.391  0.7828  0.4841 -0.4905
11704TIP3   OH235050   6.853   2.463   4.352 -0.1987  0.4892 -0.4893
11704TIP3    H135051   6.827   2.467   4.444 -1.7582 -0.9133 -0.8612
11704TIP3    H235052   6.798   2.527   4.308  1.1979  1.8440 -0.3296
11705TIP3   OH235053   5.332   5.693   3.640 -0.1589  0.8037 -0.3146
11705TIP3    H135054   5.291   5.616   3.599  0.8036  0.3412 -0.4189
11705TIP3    H235055   5.270   5.764   3.624 -1.2745 -0.0456  0.1720
11706TIP3   OH235056   7.627   6.052   5.160  0.0333 -0.1392 -0.3201
11706TIP3    H135057   7.697   6.090   5.212 -1.6641  0.7102  1.3716
11706TIP3    H235058   7.617   6.111   5.085  2.6149 -1.4775 -1.7858
11707TIP3   OH235059   5.429   2.726   4.841  0.0457  0.4762  0.0738
11707TIP3    H135060   5.441   2.820   4.831  2.7072 -0.0273 -1.8149
11707TIP3    H235061   5.352   2.706   4.788 -0.2805  1.4912  0.1523
11708TIP3   OH235062   7.681   5.861   3.482  0.1783  0.0585  0.2074
11708TIP3    H135063   7.657   5.792   3.420  2.2657 -0.7124  0.2080
11708TIP3    H235064   7.692   5.816   3.565 -1.8032  0.9675  0.9837
11709TIP3   OH235065   6.766   5.891   5.461 -0.6860 -0.1844  0.1826
11709TIP3    H135066   6.698   5.946   5.499  0.5437  0.5603  1.3452
11709TIP3    H235067   6.813   5.855   5.536  0.3369 -0.4949 -0.5892
11710TIP3   OH235068   6.539   5.076   6.233 -0.2432  0.2494 -0.0741
11710TIP3    H135069   6.564   5.101   6.144 -0.2141 -0.8561 -0.3897
11710TIP3    H235070   6.451   5.039   6.223 -0.7014  1.1796  0.5322
11711TIP3   OH235071   7.362   1.734   6.274 -0.1839  0.2552 -0.0216
11711TIP3    H135072   7.413   1.655   6.259  1.2875  0.8031  1.8323
11711TIP3    H235073   7.284   1.705   6.321 -0.3380 -0.2448 -0.5725
11712TIP3   OH235074   7.004   3.562   4.976 -0.1217  0.0237  0.4921
11712TIP3    H135075   7.011   3.486   4.917 -0.7279  1.8338 -1.9613
11712TIP3    H235076   6.917   3.553   5.015 -1.0232  0.5286 -1.3436
11713TIP3   OH235077   6.176   5.769   5.272  0.5429 -0.3596  0.0944
11713TIP3    H135078   6.237   5.791   5.201  0.5168 -0.0693  0.1588
11713TIP3    H235079   6.125   5.849   5.285 -0.9079 -1.0749 -1.0007
11714TIP3   OH235080   7.254   4.007   5.300  0.1708  0.1206  0.1957
11714TIP3    H135081   7.267   3.948   5.226 -3.0968 -0.6289  0.1150
11714TIP3    H235082   7.177   3.972   5.345  0.5830  2.0321  2.4752
11715TIP3   OH235083   5.753   4.282   6.417 -0.5132 -0.0568 -0.6126
11715TIP3    H135084   5.760   4.258   6.325 -1.1435 -1.7290 -0.2554
11715TIP3    H235085   5.719   4.371   6.416  2.4589  1.1011 -2.0122
11716TIP3   OH235086   8.269   4.987   5.578  0.0167 -0.2188 -0.1620
11716TIP3    H135087   8.300   4.955   5.662 -0.3014  0.8134  0.3538
11716TIP3    H235088   8.183   4.947   5.567  0.5751 -1.3385 -0.5832
11717TIP3   OH235089   1.598   1.319   1.964  0.3425  0.5922  0.1654
11717TIP3    H135090   1.521   1.371   1.987 -0.5717 -0.4064 -0.5437
11717TIP3    H235091   1.628   1.356   1.881  1.4339  1.8260  1.0872
11718TIP3   OH235092   2.121   0.453   0.403 -0.2804 -0.0201  0.0407
11718TIP3    H135093   2.071   0.444   0.484 -0.8533  1.1699 -0.1561
11718TIP3    H235094   2.173   0.533   0.416 -0.3972  0.1904 -0.7669
11719TIP3   OH235095   5.484   5.413   3.782  0.4220 -0.3173  0.2796
11719TIP3    H135096   5.572   5.444   3.761  0.4050 -0.4637 -0.0063
11719TIP3    H235097   5.449   5.382   3.699  0.0822 -0.2153  0.3846
11720TIP3   OH235098   6.657   1.981   6.633 -0.2323  0.0469 -0.6764
11720TIP3    H135099   6.710   1.902   6.643 -0.0408 -0.1541 -3.1658
11720TIP3    H235100   6.672   2.010   6.544 -2.7117  1.1728 -0.7835
11721TIP3   OH235101   8.036   5.580   6.896  0.0366  0.3950 -0.3791
11721TIP3    H135102   7.992   5.648   6.846  1.4881  3.1006  1.8572
11721TIP3    H235103   7.991   5.579   6.980  0.3964 -1.0164 -0.1825
11722TIP3   OH235104   7.672   5.941   6.520 -0.1754 -0.4550 -0.3026
11722TIP3    H135105   7.676   6.031   6.486 -2.4177 -0.4637 -0.6301
11722TIP3    H235106   7.685   5.951   6.614 -0.4510  0.2297 -0.3306
11723TIP3   OH235107   4.784   5.796   6.324  0.5498 -0.3268  0.2523
11723TIP3    H135108   4.776   5.786   6.229  1.0200 -2.4179  0.4266
11723TIP3    H235109   4.806   5.709   6.356 -2.3093 -0.2650  2.5796
11724TIP3   OH235110   6.269   0.141   0.843 -0.0448 -0.1719  0.2340
11724TIP3    H135111   6.208   0.143   0.769  0.1335 -0.8483  0.0681
11724TIP3    H235112   6.314   0.057   0.835  2.3571  1.1518 -0.8330
11725TIP3   OH235113   3.406   3.678   0.385 -0.3007 -0.1299 -0.3118
11725TIP3    H135114   3.496   3.702   0.407  0.1874 -2.9843  1.1396
11725TIP3    H235115   3.357   3.691   0.466 -0.7538 -0.4629 -0.5293
11726TIP3   OH235116   5.996   6.319   6.411  0.6698  0.1038 -0.1810
11726TIP3    H135117   6.039   6.361   6.485 -0.3998 -0.2420  0.6519
11726TIP3    H235118   6.009   6.380   6.338 -0.0810  1.4517  0.7938
11727TIP3   OH235119   7.048   4.490   5.711 -0.2920 -0.5687  0.2726
11727TIP3    H135120   7.084   4.529   5.631 -0.0448 -0.1357  0.5979
11727TIP3    H235121   6.953   4.486   5.694 -0.1176 -1.5890 -0.5270
11728TIP3   OH235122   3.990   5.107   3.883 -0.1327 -0.0273  0.5158
11728TIP3    H135123   3.968   5.015   3.897  0.0829 -0.6160 -2.6860
11728TIP3    H235124   3.908   5.146   3.850  0.9174 -0.1223 -2.3780
11729TIP3   OH235125   7.593   7.070   6.608 -0.0411 -0.1931  0.2128
11729TIP3    H135126   7.555   6.985   6.630  1.9125 -0.9152  0.9959
11729TIP3    H235127   7.611   7.111   6.693 -1.4453  1.2377 -0.1597
11730TIP3   OH235128   0.751   1.385   1.649 -0.7927  0.2350 -0.3184
11730TIP3    H135129   0.727   1.426   1.565 -0.6684 -2.4396 -1.7162
11730TIP3    H235130   0.675   1.397   1.705 -1.0225  1.7274 -0.9442
11731TIP3   OH235131   7.591   4.679   6.272 -0.0696  0.6820  0.7692
11731TIP3    H135132   7.528   4.719   6.212  0.3982  1.0587  0.5295
11731TIP3    H235133   7.619   4.599   6.227 -1.1953 -0.0578  1.3603
11732TIP3   OH235134   7.667   2.311   2.979 -0.3286  0.1123 -0.2700
11732TIP3    H135135   7.704   2.229   3.011 -1.2595  0.2278  1.1492
11732TIP3    H235136   7.683   2.374   3.049 -0.2026  0.9831 -1.0723
11733TIP3   OH235137   6.646   2.490   4.783 -0.1102 -0.2502  0.1415
11733TIP3    H135138   6.710   2.430   4.745 -2.4424 -1.9081 -1.2235
11733TIP3    H235139   6.588   2.513   4.711 -0.5141  2.0333  1.1327
11734TIP3   OH235140   6.305   3.115   6.068 -0.1967 -0.2644 -0.0333
11734TIP3    H135141   6.229   3.141   6.017 -0.9664 -1.2627  0.5890
11734TIP3    H235142   6.307   3.177   6.141 -0.2049 -0.0194 -0.2399
11735TIP3   OH235143   0.793   6.832   0.382  0.0051 -0.7466 -0.0973
11735TIP3    H135144   0.807   6.789   0.466 -0.3086 -0.6179  0.0230
11735TIP3    H235145   0.862   6.898   0.377 -0.2221 -0.4766  0.2491
11736TIP3   OH235146   6.305   3.383   4.820  0.1536 -0.4301 -0.2125
11736TIP3    H135147   6.215   3.404   4.846 -0.4593 -1.8268 -1.1878
11736TIP3    H235148   6.350   3.467   4.823 -0.9013  0.1114  1.3766
11737TIP3   OH235149   4.416   0.540   1.001 -0.2739 -0.1995  0.2955
11737TIP3    H135150   4.503   0.499   0.996 -0.1705  0.0587 -0.0052
11737TIP3    H235151   4.357   0.475   0.964 -0.1628 -0.2444  0.1954
11738TIP3   OH235152   6.125   4.332   4.428  0.3832 -0.0375  0.5437
11738TIP3    H135153   6.096   4.398   4.364  0.3495 -0.3106  0.2749
11738TIP3    H235154   6.047   4.313   4.480  0.6257  0.8192  1.2304
11739TIP3   OH235155   5.051   5.822   5.248  0.3184 -0.5408  0.4311
11739TIP3    H135156   4.990   5.810   5.176  1.0270 -2.3909  0.1119
11739TIP3    H235157   5.124   5.871   5.210 -0.8319  1.4964  0.7652
11740TIP3   OH235158   4.657   1.470   5.719 -0.5132  0.0450 -0.1468
11740TIP3    H135159   4.740   1.431   5.690  0.1395  1.2856  0.0118
11740TIP3    H235160   4.669   1.483   5.814 -0.8756  0.2387 -0.1283
11741TIP3   OH235161   5.777   5.050   6.464  0.5532  0.1560 -0.5227
11741TIP3    H135162   5.795   5.076   6.554  0.4120  0.5387 -0.6011
11741TIP3    H235163   5.681   5.044   6.459  0.4666  1.7100 -1.0613
11742TIP3   OH235164   7.522   5.258   5.783  0.2214  0.3289  0.4722
11742TIP3    H135165   7.466   5.272   5.860  1.6101 -1.3006  1.8077
11742TIP3    H235166   7.471   5.199   5.727  0.8227 -1.6154  1.9479
11743TIP3   OH235167   7.910   1.972   5.963 -0.0499 -0.0697  0.0379
11743TIP3    H135168   7.921   1.954   5.870  0.0189  0.9295 -0.1532
11743TIP3    H235169   7.984   1.928   6.005 -1.6955 -3.0844 -0.0333
11744TIP3   OH235170   8.220   6.534   6.539  0.0319  0.1588  0.1465
11744TIP3    H135171   8.137   6.567   6.503  0.3214  0.9497  0.2157
11744TIP3    H235172   8.238   6.590   6.614  0.8893  0.3000 -0.1619
11745TIP3   OH235173   5.738   0.494   0.658 -0.3769  0.5427  0.3662
11745TIP3    H135174   5.734   0.413   0.606  0.6157  0.3444  0.6033
11745TIP3    H235175   5.656   0.493   0.708 -0.6613 -0.0027 -0.0888
11746TIP3   OH235176   5.496   4.257   5.311 -0.4354  0.1913  0.1736
11746TIP3    H135177   5.566   4.275   5.249 -1.5225  1.7296 -0.6427
11746TIP3    H235178   5.433   4.328   5.298 -2.5949 -1.6569  0.2436
11747TIP3   OH235179   7.990   4.928   6.264  0.4796 -0.0296  0.0155
11747TIP3    H135180   8.082   4.944   6.287 -0.4075  0.7398  3.2079
11747TIP3    H235181   7.982   4.832   6.268  0.6783  0.0062  1.7288
11748TIP3   OH235182   7.151   4.298   6.233 -0.0546 -0.0622  0.0285
11748TIP3    H135183   7.125   4.383   6.268  1.0235  0.2866  0.0100
11748TIP3    H235184   7.229   4.274   6.283 -0.6233 -1.2511  0.3453
11749TIP3   OH235185   8.144   2.428   0.694  0.4147  0.6690  0.3789
11749TIP3    H135186   8.081   2.376   0.744  0.8088  1.0349  1.2479
11749TIP3    H235187   8.189   2.364   0.639  0.8591  0.1026  1.4033
11750TIP3   OH235188   7.896   3.725   5.500  0.3949 -0.0038  0.3289
11750TIP3    H135189   7.943   3.668   5.439  1.1794  2.1359 -1.1255
11750TIP3    H235190   7.913   3.687   5.586  2.7765 -0.6703 -0.4030
11751TIP3   OH235191   7.934   4.072   6.034 -0.0388  0.2681 -0.3119
11751TIP3    H135192   8.029   4.073   6.048 -0.3626  0.1449  2.0826
11751TIP3    H235193   7.913   4.160   6.002  0.8205  0.4186 -0.4631
11752TIP3   OH235194   1.495   5.879   4.287 -0.3557  0.3009 -0.6777
11752TIP3    H135195   1.508   5.972   4.304  1.3238  0.2256 -1.4811
11752TIP3    H235196   1.414   5.875   4.236 -1.6139  1.1194  1.2411
11753TIP3   OH235197   7.177   5.310   4.326 -0.5584 -0.4773  0.5969
11753TIP3    H135198   7.259   5.325   4.373 -1.1619  0.1355  1.4731
11753TIP3    H235199   7.191   5.348   4.240 -0.6939  1.6928  1.4955
11754TIP3   OH235200   8.377   4.124   5.945 -0.5770 -0.0200  0.3855
11754TIP3    H135201   8.424   4.041   5.942 -1.1242 -0.3196 -0.1346
11754TIP3    H235202   8.327   4.121   6.026 -0.9359 -0.3950  0.1545
11755TIP3   OH235203   7.154   4.747   6.359  0.2603 -0.7181  0.3053
11755TIP3    H135204   7.151   4.832   6.403  2.7492 -0.7783  0.6496
11755TIP3    H235205   7.231   4.752   6.303 -0.6620 -2.0747 -1.1411
11756TIP3   OH235206   2.269   6.702   4.142  0.2243  0.5011 -0.0463
11756TIP3    H135207   2.267   6.792   4.173 -0.2063  0.5053 -0.0882
11756TIP3    H235208   2.198   6.658   4.190  1.5372 -0.2320  1.2597
11757TIP3   OH235209   8.329   5.654   5.730  0.1678  0.2073  0.2941
11757TIP3    H135210   8.274   5.708   5.673 -0.8035  1.8059  2.6348
11757TIP3    H235211   8.359   5.583   5.674 -1.5406  1.1651 -1.9429
11758TIP3   OH235212   0.013   4.275   5.408  0.1831  0.2124 -0.6727
11758TIP3    H135213   0.035   4.334   5.336 -0.7387  0.1105 -1.0475
11758TIP3    H235214  -0.005   4.191   5.366 -1.2694  0.3875 -0.4226
11759TIP3   OH235215   1.855   4.559   3.670 -0.1663 -0.1749 -0.4071
11759TIP3    H135216   1.810   4.475   3.681  1.7788 -1.2770 -0.4807
11759TIP3    H235217   1.826   4.591   3.585 -1.5949 -0.3458  0.0074
11760TIP3   OH235218   1.039   2.792   2.150  0.0550  1.1864 -0.3798
11760TIP3    H135219   0.952   2.753   2.162  1.3085 -2.2655 -2.0488
11760TIP3    H235220   1.026   2.856   2.080 -0.8550 -0.4178 -1.7042
11761TIP3   OH235221   0.100   3.729   4.509  0.5187  0.2096 -0.0200
11761TIP3    H135222   0.071   3.786   4.580 -1.1811 -0.4968 -0.1178
11761TIP3    H235223   0.141   3.788   4.446  0.8936  1.0078  0.9488
11762TIP3   OH235224   7.812   3.547   6.125 -0.0849  0.0918  0.0977
11762TIP3    H135225   7.894   3.509   6.092 -0.0025 -0.3288  0.7869
11762TIP3    H235226   7.749   3.474   6.123 -0.0558  0.0397  0.9518
11763TIP3   OH235227   7.468   3.822   5.871 -0.2905  0.8051 -0.1034
11763TIP3    H135228   7.430   3.888   5.929 -3.0894  0.9317 -2.0351
11763TIP3    H235229   7.449   3.739   5.915  0.1632  1.0495  0.5765
11764TIP3   OH235230   0.197   7.619   4.479  1.1354  0.1606  0.0493
11764TIP3    H135231   0.264   7.640   4.543  2.0483 -0.0038 -0.8288
11764TIP3    H235232   0.215   7.678   4.405 -0.0648  0.5431  0.0611
11765TIP3   OH235233   7.707   5.854   6.200 -0.2593 -0.1282  0.0583
11765TIP3    H135234   7.789   5.874   6.155 -0.5690 -2.5608 -1.7134
11765TIP3    H235235   7.726   5.775   6.251 -0.6809  1.0553  2.0870
11766TIP3   OH235236   7.392   3.781   6.353  0.0905 -0.1340  0.6278
11766TIP3    H135237   7.339   3.818   6.423  0.2391  2.1702 -0.4247
11766TIP3    H235238   7.390   3.848   6.284  1.8081 -1.3709 -0.6554
11767TIP3   OH235239   8.341   5.020   5.315  0.0200 -0.2832  0.2903
11767TIP3    H135240   8.300   5.000   5.399 -0.7801 -1.8585 -0.4519
11767TIP3    H235241   8.435   5.022   5.335 -0.2274  0.4929  1.4375
11768TIP3   OH235242   6.794   6.348   4.298 -0.6538 -0.1923  0.1022
11768TIP3    H135243   6.856   6.412   4.331 -0.5935  1.1425 -2.5139
11768TIP3    H235244   6.846   6.291   4.241 -1.6049  0.2746 -1.2452
11769TIP3   OH235245   5.371   0.944   6.623 -0.8616 -1.2570 -0.2934
11769TIP3    H135246   5.390   1.036   6.610 -0.3575 -1.4457 -0.9290
11769TIP3    H235247   5.346   0.912   6.536 -1.4457 -1.6262  0.0051
11770TIP3   OH235248   8.415   2.992   4.557 -0.1985  0.3474 -0.1045
11770TIP3    H135249   8.338   2.948   4.593  0.2317 -1.7468 -1.6661
11770TIP3    H235250   8.488   2.954   4.605 -0.0597  2.0700  1.1181
11771TIP3   OH235251   8.139   7.885   4.333 -0.2078 -0.0503  0.1985
11771TIP3    H135252   8.207   7.895   4.266 -1.4253  1.1282 -0.8989
11771TIP3    H235253   8.058   7.913   4.289 -1.0614  0.5739  2.1138
11772TIP3   OH235254   6.904   7.004   4.006  0.2096  0.0828  0.0134
11772TIP3    H135255   6.944   6.937   3.950  0.7374  0.7649 -0.4426
11772TIP3    H235256   6.885   7.077   3.946 -0.6873  0.2084  0.4335
11773TIP3   OH235257   8.267   3.399   4.361 -0.3097  0.1971  0.3637
11773TIP3    H135258   8.345   3.388   4.415  0.3072 -1.5154 -0.8435
11773TIP3    H235259   8.224   3.314   4.363 -0.4187  0.1852 -1.6291
11774TIP3   OH235260   0.080   4.852   5.455 -0.3546  0.3991  0.6942
11774TIP3    H135261   0.145   4.885   5.393 -0.5560 -0.9013 -0.2320
11774TIP3    H235262   0.084   4.757   5.444 -0.9527  0.2073  2.1165
11775TIP3   OH235263   0.911   4.070   2.410 -0.0652  0.1124 -0.2519
11775TIP3    H135264   0.993   4.107   2.443 -0.4736 -0.5726  1.5733
11775TIP3    H235265   0.853   4.145   2.401  0.5148  0.4970 -0.7855
11776TIP3   OH235266   0.209   6.325   4.904 -0.0745  0.0161  0.1304
11776TIP3    H135267   0.266   6.401   4.918 -1.9928  1.3988  0.5056
11776TIP3    H235268   0.152   6.322   4.981 -0.9152 -1.0208 -0.5088
11777TIP3   OH235269   3.421   3.388   3.368  0.4383  0.1198 -0.1342
11777TIP3    H135270   3.432   3.407   3.275  3.2150 -0.4089  0.0610
11777TIP3    H235271   3.418   3.293   3.374 -1.2268  0.1713  0.1938
11778TIP3   OH235272   8.177   3.639   4.236 -0.6437  0.1297  0.1462
11778TIP3    H135273   8.229   3.561   4.257 -0.6060  0.1772  0.2299
11778TIP3    H235274   8.223   3.711   4.279  0.3026  0.4577 -1.4058
11779TIP3   OH235275   8.148   5.716   4.874  0.0397 -0.8556  0.3320
11779TIP3    H135276   8.087   5.699   4.946  1.1979 -1.1944  1.2283
11779TIP3    H235277   8.091   5.739   4.801 -1.0675  1.3366  1.8426
11780TIP3   OH235278   7.576   5.532   5.671 -0.1850  0.0785  0.2177
11780TIP3    H135279   7.582   5.456   5.729 -0.5844  0.2525  0.4876
11780TIP3    H235280   7.639   5.514   5.601  1.7689  0.7603  1.7555
11781TIP3   OH235281   7.351   0.931   0.859  0.2337  0.6334  0.0769
11781TIP3    H135282   7.434   0.911   0.815 -1.2448 -1.2314 -1.9415
11781TIP3    H235283   7.355   1.025   0.877  1.5646  1.1214 -2.5990
11782TIP3   OH235284   7.536   5.239   4.980  0.6145  0.6511 -0.3051
11782TIP3    H135285   7.487   5.242   5.063  2.1721 -0.9330  0.7138
11782TIP3    H235286   7.479   5.189   4.922  0.4307 -0.0816  0.4847
11783TIP3   OH235287   1.306   4.713   4.043 -0.5223  0.4212 -0.3221
11783TIP3    H135288   1.292   4.761   4.125 -0.9640  0.9970 -0.7301
11783TIP3    H235289   1.313   4.622   4.070 -2.6289  0.3795  0.1795
11784TIP3   OH235290   7.122   2.023   6.120  0.2702  0.0070 -0.2300
11784TIP3    H135291   7.215   2.002   6.124  0.1181 -0.4496  1.2217
11784TIP3    H235292   7.084   1.952   6.067  0.4759 -0.8250  0.7212
11785TIP3   OH235293   7.513   5.615   3.920 -0.0471 -0.1023  0.0143
11785TIP3    H135294   7.467   5.661   3.990  0.6820 -0.6754  0.8691
11785TIP3    H235295   7.496   5.668   3.842  0.0436  1.1384  0.8265
11786TIP3   OH235296   7.012   4.542   4.442  0.4396 -0.2545 -0.0610
11786TIP3    H135297   6.919   4.540   4.462  0.6440  0.3580  1.0051
11786TIP3    H235298   7.018   4.589   4.359 -0.3593 -2.0721 -1.1646
11787TIP3   OH235299   6.855   4.228   3.885 -0.1941  0.4748 -0.2816
11787TIP3    H135300   6.912   4.252   3.958 -0.2579 -0.0407 -0.0598
11787TIP3    H235301   6.768   4.223   3.924  0.0989 -2.0503  0.1017
11788TIP3   OH235302   1.533   4.742   3.883 -0.5344  0.0202  0.0091
11788TIP3    H135303   1.467   4.737   3.953  0.2207  1.6326  0.8617
11788TIP3    H235304   1.606   4.689   3.915 -0.2974  0.5393  0.3473
11789TIP3   OH235305   4.702   6.334   6.306 -0.2475 -0.3037 -0.2616
11789TIP3    H135306   4.677   6.290   6.387 -0.6806  0.0588 -0.1959
11789TIP3    H235307   4.739   6.418   6.335 -0.1460 -0.2912 -0.4265
11790TIP3   OH235308   7.765   5.897   4.501 -0.0639 -0.4019  0.1497
11790TIP3    H135309   7.714   5.821   4.475 -0.5707 -0.3039  0.8320
11790TIP3    H235310   7.700   5.958   4.538  0.6296 -0.6222  1.7931
11791TIP3   OH235311   5.428   1.523   1.081 -0.0167 -0.3752 -0.1207
11791TIP3    H135312   5.419   1.458   1.011 -0.9897 -0.1618 -0.2094
11791TIP3    H235313   5.517   1.512   1.113  1.0236  0.6751 -2.5448
11792TIP3   OH235314   7.776   7.151   5.643  0.8857 -0.4575 -0.0637
11792TIP3    H135315   7.756   7.068   5.684 -0.9670 -0.4866 -0.9758
11792TIP3    H235316   7.787   7.130   5.550  0.2717  0.3256 -0.3217
11793TIP3   OH235317   7.926   5.532   6.571 -0.0343  0.1490 -0.2005
11793TIP3    H135318   7.954   5.598   6.634  0.3733  0.4186 -0.6577
11793TIP3    H235319   7.967   5.450   6.601 -1.7193 -0.2065  1.1969
11794TIP3   OH235320   5.804   4.852   3.354 -0.4097  0.3327 -0.5544
11794TIP3    H135321   5.881   4.906   3.337 -0.1876  0.7421  1.6393
11794TIP3    H235322   5.840   4.765   3.373 -0.6692 -0.1737 -2.2623
11795TIP3   OH235323   8.034   7.300   3.676 -0.3454 -0.1083  0.1623
11795TIP3    H135324   8.098   7.282   3.745  1.0840 -1.6476 -1.5291
11795TIP3    H235325   7.969   7.230   3.684  0.0679 -0.5504 -0.3434
11796TIP3   OH235326   0.332   4.407   5.183  0.1550 -0.0401 -0.0396
11796TIP3    H135327   0.372   4.378   5.101 -1.7159  1.4961 -1.5268
11796TIP3    H235328   0.386   4.480   5.212 -0.3195  0.6973 -0.9715
11797TIP3   OH235329   8.235   3.098   4.321  0.3797  0.1745  0.2463
11797TIP3    H135330   8.317   3.133   4.286  1.0162 -0.5929  0.9623
11797TIP3    H235331   8.194   3.054   4.246  0.5845  0.6088 -0.1260
11798TIP3   OH235332   7.978   5.390   4.875  0.3389 -0.5065 -0.0822
11798TIP3    H135333   7.884   5.386   4.862 -0.2072  0.5409  3.0039
11798TIP3    H235334   8.003   5.476   4.840 -0.4522  0.6259  1.9996
11799TIP3   OH235335   2.435   6.808   6.539  0.0915  0.1641  0.2222
11799TIP3    H135336   2.431   6.896   6.502 -0.3948  0.3966  0.8449
11799TIP3    H235337   2.406   6.751   6.467  0.5987  0.4867 -0.2428
11800TIP3   OH235338   7.862   7.233   4.759 -0.0143 -0.4538  0.6504
11800TIP3    H135339   7.907   7.175   4.820  0.0797 -1.0210  0.0480
11800TIP3    H235340   7.774   7.195   4.750 -0.1392 -0.1778  0.6979
11801TIP3   OH235341   6.840   4.691   3.557  0.2761  0.1762  0.4167
11801TIP3    H135342   6.834   4.709   3.651 -0.0313 -0.2957  0.4886
11801TIP3    H235343   6.756   4.651   3.535  0.5197 -0.1250  0.0276
11802TIP3   OH235344   8.379   5.570   4.879 -0.3921 -0.2568  0.3531
11802TIP3    H135345   8.292   5.610   4.884 -1.3409 -2.0388 -1.5870
11802TIP3    H235346   8.399   5.547   4.970 -1.5225  1.0061  0.9520
11803TIP3   OH235347   8.337   3.508   6.224 -0.1456  0.1544 -0.9253
11803TIP3    H135348   8.355   3.591   6.267  1.0716  0.5315 -2.1375
11803TIP3    H235349   8.422   3.476   6.195 -0.3101 -2.5529  1.3085
11804TIP3   OH235350   0.084   5.003   6.876 -0.1181 -0.1492 -0.1901
11804TIP3    H135351   0.131   4.950   6.812 -2.0446  0.1045 -1.8603
11804TIP3    H235352  -0.008   4.979   6.865 -0.5666  0.5277  1.9019
11805TIP3   OH235353   6.976   5.076   4.418 -0.5596 -0.0267  0.5854
11805TIP3    H135354   7.043   5.144   4.411 -0.3448 -0.2621  0.3768
11805TIP3    H235355   6.951   5.077   4.510 -0.8658  0.6333  0.5014
11806TIP3   OH235356   0.884   2.833   4.140  0.5783 -0.4913 -0.3828
11806TIP3    H135357   0.881   2.790   4.054 -0.1647 -0.4538 -0.3771
11806TIP3    H235358   0.808   2.891   4.140  0.8043 -0.1985  0.1451
11807TIP3   OH235359   0.615   3.847   5.800  0.2981  0.5018  0.1531
11807TIP3    H135360   0.694   3.804   5.831 -1.0136 -1.1283  1.3431
11807TIP3    H235361   0.642   3.936   5.778  2.7654 -0.4776 -0.9384
11808TIP3   OH235362   1.052   4.206   2.792 -0.2357 -0.0903  0.0048
11808TIP3    H135363   1.069   4.231   2.883 -1.2528 -1.5801  0.6180
11808TIP3    H235364   1.139   4.201   2.752  0.3679 -1.2648  1.4030
11809TIP3   OH235365   7.438   3.565   4.243 -0.3074  0.0806 -0.6399
11809TIP3    H135366   7.530   3.563   4.216 -0.0234 -0.4944  0.3748
11809TIP3    H235367   7.401   3.483   4.210 -0.1415 -0.2758  0.0474
11810TIP3   OH235368   7.593   5.161   1.412  0.8699  0.0825  0.1137
11810TIP3    H135369   7.520   5.209   1.374 -1.4829 -2.9154  0.6485
11810TIP3    H235370   7.600   5.195   1.502 -2.6420 -2.3827  1.4539
11811TIP3   OH235371   7.493   2.594   4.941  0.4121 -0.5484  0.2874
11811TIP3    H135372   7.520   2.558   5.026  1.1750 -1.0321 -0.1610
11811TIP3    H235373   7.518   2.686   4.945 -0.7420 -0.2492  1.0906
11812TIP3   OH235374   0.237   6.390   5.834  0.7755 -0.3041 -0.0787
11812TIP3    H135375   0.172   6.439   5.783 -0.0302 -1.7770 -0.5059
11812TIP3    H235376   0.185   6.346   5.902  1.4902 -0.5445  0.3117
11813TIP3   OH235377   8.140   5.566   2.787  0.1452  0.2703  0.3576
11813TIP3    H135378   8.209   5.503   2.766  1.4099  1.5222  0.7043
11813TIP3    H235379   8.165   5.601   2.872 -2.4307 -1.2950  1.8155
11814TIP3   OH235380   8.007   2.718   4.058  0.5000  0.1674 -0.2933
11814TIP3    H135381   8.027   2.659   4.131 -3.0633  0.1514  0.7490
11814TIP3    H235382   8.008   2.661   3.981  0.6254 -0.5593  0.2411
11815TIP3   OH235383   8.403   6.859   4.221 -0.9419  0.1836  0.9180
11815TIP3    H135384   8.392   6.946   4.259 -0.8228  0.0602  1.2330
11815TIP3    H235385   8.477   6.822   4.267  0.9193  1.0451 -1.2918
11816TIP3   OH235386   0.634   4.833   5.746  0.4903  0.3197 -0.3507
11816TIP3    H135387   0.591   4.882   5.676 -0.8051  0.5123  0.5517
11816TIP3    H235388   0.623   4.888   5.824  0.8970 -0.4205  0.2346
11817TIP3   OH235389   0.842   6.765   6.524  1.0260  0.1775 -0.1848
11817TIP3    H135390   0.865   6.854   6.496  2.4718  0.5845  2.1717
11817TIP3    H235391   0.748   6.770   6.544  0.6007  0.5802 -2.1027
11818TIP3   OH235392   7.549   5.660   4.448 -0.7238 -0.0613  0.0316
11818TIP3    H135393   7.549   5.675   4.543 -1.6677  1.6058 -0.1979
11818TIP3    H235394   7.523   5.569   4.438 -3.3261  0.4847  1.3147
11819TIP3   OH235395   6.657   4.946   4.101  0.2457  0.4969  0.1189
11819TIP3    H135396   6.700   5.013   4.155  1.0929  0.9340 -1.0693
11819TIP3    H235397   6.566   4.977   4.093  0.5717  1.3913 -0.2323
11820TIP3   OH235398   8.287   5.526   5.350 -0.0942  0.3392  0.2566
11820TIP3    H135399   8.355   5.523   5.418 -0.5927  0.1613  0.7484
11820TIP3    H235400   8.289   5.439   5.310 -0.1400  0.2815  0.3794
11821TIP3   OH235401   7.471   3.329   4.593  0.2714  0.0222 -0.1247
11821TIP3    H135402   7.541   3.387   4.562 -0.1964 -1.0431 -3.3303
11821TIP3    H235403   7.513   3.276   4.661  2.0773  0.6747 -0.6944
11822TIP3   OH235404   8.430   4.635   3.658  0.2903 -0.4221  0.3442
11822TIP3    H135405   8.457   4.633   3.749  1.2407  0.3046  0.0859
11822TIP3    H235406   8.511   4.644   3.608 -0.2472 -0.4350 -0.5527
11823TIP3   OH235407   7.133   4.685   3.177 -0.7212  0.6573 -0.1552
11823TIP3    H135408   7.151   4.596   3.145  2.0065  0.7323  0.9839
11823TIP3    H235409   7.128   4.739   3.099 -0.9455 -0.2656 -0.7851
11824TIP3   OH235410   8.140   5.802   5.583  0.3787 -0.7048 -0.1701
11824TIP3    H135411   8.060   5.854   5.570  0.4011 -0.4319  0.8055
11824TIP3    H235412   8.193   5.821   5.506 -0.2506 -0.4378 -0.5438
11825TIP3   OH235413   0.255   4.466   4.001  0.4228 -0.1373  0.0285
11825TIP3    H135414   0.249   4.410   3.923 -1.8019 -0.4972  0.4061
11825TIP3    H235415   0.179   4.441   4.053  0.2309  2.1845  0.9196
11826TIP3   OH235416   6.818   4.473   5.550  0.0769  0.0397 -0.2444
11826TIP3    H135417   6.748   4.498   5.490 -0.0462 -0.3471 -0.2692
11826TIP3    H235418   6.854   4.393   5.512 -0.6673 -0.7811  0.7262
11827TIP3   OH235419   1.413   4.592   3.388  0.1463  0.0486  0.7218
11827TIP3    H135420   1.472   4.653   3.344 -0.7733  0.9686  0.7347
11827TIP3    H235421   1.438   4.596   3.480 -0.2036  0.7534  0.7894
11828TIP3   OH235422   8.109   2.990   5.487  0.8987 -0.3290 -0.1345
11828TIP3    H135423   8.145   3.077   5.499 -0.1973  0.3536 -1.5432
11828TIP3    H235424   8.037   2.984   5.550 -0.2493  0.5369 -1.3219
11829TIP3   OH235425   0.956   4.433   5.438  0.0980  0.2654 -0.3731
11829TIP3    H135426   0.977   4.339   5.440  0.4370  0.3505  0.6918
11829TIP3    H235427   0.865   4.438   5.465  0.9288  0.4377  2.6036
11830TIP3   OH235428   8.477   5.498   5.123  0.0627  0.0213 -0.3869
11830TIP3    H135429   8.428   5.473   5.202  0.8626  0.4956  0.2753
11830TIP3    H235430   8.540   5.427   5.111  1.1662  0.8237  0.4808
11831TIP3   OH235431   6.360   7.578   4.746  0.1333  0.0649 -0.0574
11831TIP3    H135432   6.405   7.629   4.679 -1.5964  3.0137  0.9496
11831TIP3    H235433   6.427   7.516   4.777  2.2798  1.6514 -1.3521
11832TIP3   OH235434   7.594   6.847   5.119  0.6683  0.2932 -0.5826
11832TIP3    H135435   7.586   6.863   5.213  1.6934  2.0063 -0.7624
11832TIP3    H235436   7.680   6.806   5.108 -0.0293 -1.1896 -0.6385
11833TIP3   OH235437   0.343   3.482   4.761  0.2012 -0.0332 -0.1168
11833TIP3    H135438   0.419   3.525   4.723  0.9464 -0.1509  1.2004
11833TIP3    H235439   0.313   3.543   4.829  0.0951 -0.7149  0.4563
11834TIP3   OH235440   6.193   3.899   3.397  0.4478  0.6032  0.2620
11834TIP3    H135441   6.204   3.804   3.403  0.9163  0.5679 -1.0349
11834TIP3    H235442   6.264   3.928   3.340 -0.6382  1.5297 -0.6377
11835TIP3   OH235443   6.350   6.230   4.288 -0.9130 -0.0481 -0.1399
11835TIP3    H135444   6.292   6.203   4.216  0.2522 -1.5201 -0.5434
11835TIP3    H235445   6.390   6.311   4.257  0.6053 -1.3868 -1.7366
11836TIP3   OH235446   1.471   6.188   4.042 -0.1956  0.2234  0.1854
11836TIP3    H135447   1.383   6.217   4.068  0.1046  0.7916  0.5579
11836TIP3    H235448   1.531   6.241   4.094  0.4662  2.4331 -2.7307
11837TIP3   OH235449   7.658   5.388   3.982 -0.0116  0.5477  0.4674
11837TIP3    H135450   7.601   5.458   3.951  1.2526  1.2161 -0.3894
11837TIP3    H235451   7.727   5.382   3.916 -1.4138 -3.2147 -0.8022
11838TIP3   OH235452   1.143   3.966   4.145  0.1727  0.1950 -0.4974
11838TIP3    H135453   1.154   4.059   4.159 -0.6985  0.3336 -0.7058
11838TIP3    H235454   1.232   3.930   4.147  0.2861  0.6029  2.3887
11839TIP3   OH235455   0.991   5.529   2.528  0.6215 -0.4536 -0.8580
11839TIP3    H135456   1.052   5.568   2.465  1.6262 -0.0050  0.3591
11839TIP3    H235457   1.039   5.531   2.611 -1.7581  1.6188  0.5345
11840TIP3   OH235458   7.911   4.617   3.652  0.2953 -0.0174  0.0012
11840TIP3    H135459   7.999   4.610   3.616 -0.2752  1.3021 -1.7471
11840TIP3    H235460   7.916   4.686   3.718  0.6063 -0.0840  0.0447
11841TIP3   OH235461   8.381   6.123   4.843 -0.4521  0.4889  0.4821
11841TIP3    H135462   8.453   6.135   4.780  0.3262  0.9699  1.4460
11841TIP3    H235463   8.318   6.068   4.796  0.8727 -0.5658 -0.1386
11842TIP3   OH235464   6.938   5.424   4.344  0.2765 -0.2063  0.2937
11842TIP3    H135465   7.017   5.372   4.355 -0.2665 -0.9043  0.9327
11842TIP3    H235466   6.957   5.481   4.269  0.1397 -2.7361 -1.7360
11843TIP3   OH235467   8.506   5.761   2.089 -0.4689 -0.0968 -0.2678
11843TIP3    H135468   8.449   5.735   2.161  0.0875 -0.7026 -0.0356
11843TIP3    H235469   8.452   5.749   2.011 -1.5667  1.9967  0.1401
11844TIP3   OH235470   1.631   4.953   3.507  0.4926  0.3019  0.2103
11844TIP3    H135471   1.724   4.933   3.498  0.5571  0.7014 -0.0406
11844TIP3    H235472   1.588   4.899   3.440  0.1770 -2.4185  2.4946
11845TIP3   OH235473   8.264   6.453   6.123  0.5473 -0.5849 -0.1339
11845TIP3    H135474   8.343   6.403   6.103  0.0075 -2.2253  1.6118
11845TIP3    H235475   8.197   6.415   6.067  0.6177 -0.3507 -0.3761
11846TIP3   OH235476   1.036   2.261   5.739 -0.7392 -0.6439 -0.2001
11846TIP3    H135477   1.111   2.220   5.782 -0.7395 -1.0414 -0.5823
11846TIP3    H235478   1.067   2.283   5.651 -0.4001  1.1442  0.3380
11847TIP3   OH235479   8.179   3.935   4.813  0.3513  0.2573  0.2226
11847TIP3    H135480   8.183   3.951   4.718  1.5972  1.3474  0.4406
11847TIP3    H235481   8.268   3.910   4.836 -0.3995 -1.9992  0.7923
11848TIP3   OH235482   1.518   3.838   3.626 -0.4537  0.4862 -0.2887
11848TIP3    H135483   1.504   3.897   3.700 -0.2796 -0.7643  0.7773
11848TIP3    H235484   1.606   3.859   3.594 -0.6916  1.3134 -0.4081
11849TIP3   OH235485   5.977   6.126   3.679  0.2347  0.2009  0.7612
11849TIP3    H135486   5.886   6.122   3.708  0.1681  0.6989  0.6213
11849TIP3    H235487   6.006   6.214   3.702  0.2707  0.4965 -0.4084
11850TIP3   OH235488   6.014   2.326   5.981  0.2615 -0.0843 -0.5714
11850TIP3    H135489   6.007   2.306   6.075  0.0098 -0.1757 -0.6078
11850TIP3    H235490   6.035   2.420   5.978  0.0298 -0.0264 -0.4280
11851TIP3   OH235491   8.124   3.639   4.618  0.4859  0.9121  0.0404
11851TIP3    H135492   8.172   3.580   4.559 -1.8653  0.6195 -1.6711
11851TIP3    H235493   8.041   3.593   4.635  0.2437  1.9859  1.8400
11852TIP3   OH235494   6.759   2.594   5.021  0.1202  0.1117 -0.0649
11852TIP3    H135495   6.704   2.568   4.946 -3.6695  1.2045  2.1798
11852TIP3    H235496   6.782   2.685   5.003 -0.5119  0.2710 -0.0827
11853TIP3   OH235497   0.768   3.393   5.438 -0.2370 -0.0030  0.2006
11853TIP3    H135498   0.803   3.373   5.351 -1.0085 -1.2512  0.1610
11853TIP3    H235499   0.766   3.488   5.442  0.1501  0.0656 -1.0137
11854TIP3   OH235500   7.061   6.201   5.485  0.4854 -0.2224  0.6982
11854TIP3    H135501   7.102   6.159   5.560  0.6748  0.2503  0.8551
11854TIP3    H235502   7.019   6.129   5.438 -0.3897 -0.3934  1.7359
11855TIP3   OH235503   6.041   5.606   4.134  0.3030  0.4455 -0.1255
11855TIP3    H135504   6.009   5.640   4.051  0.4811 -0.5344 -0.6002
11855TIP3    H235505   6.049   5.511   4.120  1.4923  0.4315  0.6164
11856TIP3   OH235506   2.197   6.317   5.219 -0.6157  0.4006  0.7101
11856TIP3    H135507   2.289   6.342   5.207 -0.6965 -0.5874 -2.3089
11856TIP3    H235508   2.192   6.227   5.189 -2.5648  0.3965  0.9811
11857TIP3   OH235509   0.211   3.756   2.744  0.1801 -0.1540  0.2356
11857TIP3    H135510   0.191   3.846   2.720  1.7128 -0.2692 -1.6061
11857TIP3    H235511   0.257   3.762   2.828  0.8160  0.8451 -0.1756
11858TIP3   OH235512   0.232   3.454   5.412 -0.1543 -0.4616 -0.2451
11858TIP3    H135513   0.228   3.525   5.476 -0.0881 -0.6997  0.0239
11858TIP3    H235514   0.326   3.442   5.394 -0.2403  0.5849 -1.4874
11859TIP3   OH235515   7.000   5.306   4.765 -0.1296  0.2238 -0.2265
11859TIP3    H135516   6.977   5.282   4.854  0.2505  2.0140  0.3765
11859TIP3    H235517   6.978   5.229   4.712  1.0903 -1.4281  1.6220
11860TIP3   OH235518   0.641   5.926   1.821  0.3860  0.1038 -0.1501
11860TIP3    H135519   0.724   5.939   1.868  0.2478  0.1206  0.0875
11860TIP3    H235520   0.667   5.883   1.739  0.6223  0.0418 -0.0442
11861TIP3   OH235521   8.410   4.490   4.375 -0.0743 -0.4294  0.3389
11861TIP3    H135522   8.320   4.458   4.383 -0.0864  0.1119  2.3620
11861TIP3    H235523   8.407   4.581   4.405  0.9920 -0.1381 -0.3968
11862TIP3   OH235524   7.269   4.799   4.884  0.0352  0.7232 -0.0163
11862TIP3    H135525   7.227   4.731   4.831 -0.2057  1.1978 -0.4434
11862TIP3    H235526   7.304   4.753   4.960  0.1414  0.0789 -0.4594
11863TIP3   OH235527   7.192   3.636   4.061 -0.4943  0.1993  0.0769
11863TIP3    H135528   7.119   3.619   4.122  0.2770  0.8281  1.1895
11863TIP3    H235529   7.149   3.665   3.981 -1.5007 -0.0191  0.5181
11864TIP3   OH235530   1.027   6.053   6.600  0.1722 -0.7748 -0.2315
11864TIP3    H135531   0.960   6.100   6.549 -0.5880 -0.9795  0.5615
11864TIP3    H235532   0.982   6.028   6.680  1.0199 -1.5148  0.0155
11865TIP3   OH235533   8.330   3.798   4.366 -0.0661  0.0099  0.7782
11865TIP3    H135534   8.415   3.765   4.393  0.0880  0.0048  0.2927
11865TIP3    H235535   8.328   3.889   4.396 -0.6369 -0.5369  2.4444
11866TIP3   OH235536   7.832   5.112   4.027  0.7674  0.0189 -0.1803
11866TIP3    H135537   7.925   5.100   4.009  1.4886  3.2769  1.1092
11866TIP3    H235538   7.794   5.140   3.944  0.7976 -1.8465 -0.8449
11867TIP3   OH235539   2.460   0.107   1.089  0.8295 -0.3251  0.3188
11867TIP3    H135540   2.466   0.033   1.149  1.7846 -1.5802 -1.3062
11867TIP3    H235541   2.547   0.114   1.050  1.2102  2.5923  1.5131
11868TIP3   OH235542   0.809   5.222   2.715  0.7598 -0.4183  0.1975
11868TIP3    H135543   0.777   5.290   2.656 -0.1531 -2.3898 -1.6912
11868TIP3    H235544   0.837   5.151   2.656  1.2381 -1.8529  2.0974
11869TIP3   OH235545   1.103   5.274   4.710 -0.4450  0.1299  0.4332
11869TIP3    H135546   1.055   5.284   4.627  0.1854  1.3391  0.1974
11869TIP3    H235547   1.141   5.360   4.726  0.8741 -0.5515  1.0977
11870TIP3   OH235548   2.030   4.550   4.130  0.5052 -0.2734  0.1148
11870TIP3    H135549   2.031   4.536   4.035 -1.6098  1.1451 -0.1550
11870TIP3    H235550   2.072   4.635   4.143 -0.1005 -0.0016  0.3411
11871TIP3   OH235551   7.128   4.739   5.861  1.0185 -0.0456  0.1997
11871TIP3    H135552   7.041   4.780   5.862  1.5781  1.2647 -2.0348
11871TIP3    H235553   7.110   4.645   5.861 -0.3536  0.1831  1.6360
11872TIP3   OH235554   0.760   4.591   5.636 -0.0204 -0.0509 -0.1403
11872TIP3    H135555   0.688   4.647   5.668  0.3858  0.6017 -0.3613
11872TIP3    H235556   0.786   4.539   5.713 -1.7420 -1.3924 -0.4350
11873TIP3   OH235557   5.455   1.561   0.503  0.1372 -0.0063 -0.4033
11873TIP3    H135558   5.485   1.602   0.422  0.4590 -0.0681 -0.3150
11873TIP3    H235559   5.534   1.547   0.554 -0.1386  0.6722  0.2225
11874TIP3   OH235560   0.856   6.461   5.810  0.0864  0.3358  0.1007
11874TIP3    H135561   0.877   6.404   5.737 -0.3262 -0.5217  0.6448
11874TIP3    H235562   0.896   6.545   5.787  0.5671 -0.1236 -0.7707
11875TIP3   OH235563   5.935   0.479   2.536 -0.2356  0.4664  0.3798
11875TIP3    H135564   5.989   0.503   2.461 -0.0452  1.1148  0.7213
11875TIP3    H235565   5.848   0.513   2.514 -0.2984  0.2155  0.2333
11876TIP3   OH235566   0.550   4.620   4.807  0.0534 -0.3543 -0.3853
11876TIP3    H135567   0.560   4.568   4.728 -0.2910  0.0227 -0.6803
11876TIP3    H235568   0.585   4.706   4.784 -1.3393  0.1796 -0.5816
11877TIP3   OH235569   7.172   4.151   6.675  0.1285  0.2935  0.2710
11877TIP3    H135570   7.236   4.129   6.743  0.8362 -1.4282 -0.9214
11877TIP3    H235571   7.153   4.244   6.689 -0.2463 -0.1838  3.2417
11878TIP3   OH235572   1.618   7.582   0.235 -0.4747  0.1459 -0.3088
11878TIP3    H135573   1.582   7.668   0.215 -0.5514  0.5125  1.3386
11878TIP3    H235574   1.541   7.525   0.242 -0.4775  0.1285 -0.4647
11879TIP3   OH235575   0.171   4.576   6.164 -0.5060 -0.5654  0.8745
11879TIP3    H135576   0.179   4.482   6.154  0.1191 -0.5826  1.5399
11879TIP3    H235577   0.096   4.588   6.222 -1.7420 -0.5859 -0.6886
11880TIP3   OH235578   0.852   5.760   6.282 -0.2493  0.0217 -0.0910
11880TIP3    H135579   0.778   5.754   6.222 -0.6664 -1.3873  0.5239
11880TIP3    H235580   0.917   5.700   6.246  0.4306  0.9321 -0.3957
11881TIP3   OH235581   0.342   5.168   5.708 -0.8806 -0.6434 -0.0489
11881TIP3    H135582   0.355   5.262   5.698 -3.0091 -0.4134 -0.9063
11881TIP3    H235583   0.424   5.129   5.678  1.6002  1.0575  4.1226
11882TIP3   OH235584   7.651   3.918   6.106  0.2664 -0.0802  0.2070
11882TIP3    H135585   7.643   4.007   6.141 -0.1970 -0.5868  1.4389
11882TIP3    H235586   7.583   3.912   6.039 -1.9157 -0.5454  2.4028
11883TIP3   OH235587   7.994   3.801   4.964 -0.7386 -0.5338  0.3491
11883TIP3    H135588   7.949   3.859   5.025 -0.0567  0.3714  0.0101
11883TIP3    H235589   8.048   3.859   4.912 -2.3261 -1.1301 -2.0381
11884TIP3   OH235590   7.711   3.722   6.309 -0.4724 -0.1636 -0.1812
11884TIP3    H135591   7.656   3.790   6.271  0.9863  0.0045 -2.0343
11884TIP3    H235592   7.726   3.660   6.238  0.2577 -1.1450  0.8057
11885TIP3   OH235593   8.294   6.403   4.699  0.0225 -0.0988  0.6794
11885TIP3    H135594   8.210   6.368   4.670  0.5852 -1.5717  0.7951
11885TIP3    H235595   8.332   6.443   4.621 -0.5853  0.1964  0.5279
11886TIP3   OH235596   6.715   5.222   4.213 -0.1785 -0.6315  0.2214
11886TIP3    H135597   6.744   5.306   4.248 -0.4761 -0.2351 -0.4770
11886TIP3    H235598   6.690   5.171   4.291 -0.9731  0.2912  0.5874
11887TIP3   OH235599   2.222   6.440   5.534 -0.2111 -0.1484 -0.1893
11887TIP3    H135600   2.222   6.385   5.456 -2.0528 -0.3262 -0.0847
11887TIP3    H235601   2.302   6.416   5.581  0.0434 -1.2439 -1.1738
11888TIP3   OH235602   6.239   7.674   5.494  0.2430 -0.4936 -0.0408
11888TIP3    H135603   6.244   7.604   5.559 -0.8523 -1.6742 -1.2083
11888TIP3    H235604   6.330   7.702   5.482  0.9986 -3.2324 -1.1648
11889TIP3   OH235605   6.332   6.359   0.230 -0.3861  0.4992 -0.0544
11889TIP3    H135606   6.287   6.356   0.314 -0.2227 -0.7302  0.0095
11889TIP3    H235607   6.261   6.355   0.165 -0.5100  1.3982  0.0263
11890TIP3   OH235608   7.218   5.478   4.661 -0.4518  0.0256  0.2851
11890TIP3    H135609   7.220   5.541   4.733 -1.1234 -0.2580  0.5595
11890TIP3    H235610   7.160   5.408   4.692 -0.0505 -0.5226 -0.1837
11891TIP3   OH235611   7.257   6.715   4.733  0.2551 -0.5241 -0.5336
11891TIP3    H135612   7.164   6.708   4.712  0.1897  0.0146 -0.4279
11891TIP3    H235613   7.301   6.693   4.651  0.0096  0.6483 -0.9946
11892TIP3   OH235614   6.477   4.159   3.478 -0.0777  0.2385 -0.1713
11892TIP3    H135615   6.417   4.104   3.528  0.3533  0.7523  0.9255
11892TIP3    H235616   6.458   4.248   3.508  0.0779  0.5725 -1.0445
11893TIP3   OH235617   8.337   6.107   5.108  1.3868  0.2131 -0.1369
11893TIP3    H135618   8.362   6.127   5.018  1.4519 -0.8896 -0.3710
11893TIP3    H235619   8.268   6.041   5.100  1.5980 -0.1088  0.6226
11894TIP3   OH235620   0.618   3.579   6.408 -0.1945  0.1372  0.2992
11894TIP3    H135621   0.542   3.626   6.442  0.4082  0.4216  1.2770
11894TIP3    H235622   0.693   3.616   6.456  0.4083 -1.0490  0.2960
11895TIP3   OH235623   0.028   6.400   5.658 -0.0994 -0.2304 -0.0335
11895TIP3    H135624   0.032   6.306   5.644 -0.1579 -0.4547  1.4334
11895TIP3    H235625   0.032   6.437   5.570  0.8057 -1.5683 -0.5743
11896TIP3   OH235626   7.797   3.900   5.838 -0.2820  0.3629 -0.2003
11896TIP3    H135627   7.824   3.955   5.912 -4.4329  0.7279  1.1565
11896TIP3    H235628   7.800   3.811   5.874  0.8552  0.2206 -0.6292
11897TIP3   OH235629   0.511   5.820   5.718  0.4174 -0.0450  0.0346
11897TIP3    H135630   0.590   5.802   5.666  0.5182 -0.1561  0.2272
11897TIP3    H235631   0.440   5.780   5.667  0.3460  0.9173 -0.6413
11898TIP3   OH235632   6.594   4.724   5.671 -0.1328 -0.0880  0.0762
11898TIP3    H135633   6.673   4.691   5.630 -0.5522 -1.0922  0.0659
11898TIP3    H235634   6.576   4.806   5.625 -0.7897 -1.3558 -2.0214
11899TIP3   OH235635   7.155   6.226   4.422 -0.4915 -0.9541  0.6464
11899TIP3    H135636   7.089   6.275   4.470 -0.5128 -0.5624  0.2196
11899TIP3    H235637   7.122   6.136   4.419  0.1694 -1.2682  2.5671
11900TIP3   OH235638   8.104   7.726   4.606 -0.1025  0.4381 -0.1367
11900TIP3    H135639   8.063   7.797   4.657 -1.9915  0.3673 -1.4865
11900TIP3    H235640   8.088   7.648   4.658 -0.5787  0.5994 -0.0320
11901TIP3   OH235641   2.394   1.276   4.931 -0.2648  0.2787 -0.0207
11901TIP3    H135642   2.322   1.259   4.869 -0.1178  0.2399 -0.1803
11901TIP3    H235643   2.461   1.213   4.907 -1.3959 -1.7918  2.1168
11902TIP3   OH235644   0.333   5.980   5.864 -0.6826  0.0083 -0.4664
11902TIP3    H135645   0.393   6.008   5.933 -0.5111 -0.9301 -0.2350
11902TIP3    H235646   0.386   5.925   5.807 -1.4483 -1.2872  0.0485
11903TIP3   OH235647   1.155   5.836   4.738 -0.4016  0.6075  0.0161
11903TIP3    H135648   1.247   5.840   4.713 -0.5979 -0.8711 -0.9564
11903TIP3    H235649   1.123   5.925   4.725  0.5495  0.8108 -0.9546
11904TIP3   OH235650   0.055   4.913   4.663 -0.2348  0.2937 -0.5706
11904TIP3    H135651   0.080   4.852   4.594  1.4020 -0.2928  0.5367
11904TIP3    H235652   0.017   4.858   4.731  2.2845  0.3258  0.9225
11905TIP3   OH235653   5.492   6.325   5.741  0.0608  0.1837 -0.2000
11905TIP3    H135654   5.550   6.400   5.756 -0.5452  0.2185  2.2375
11905TIP3    H235655   5.440   6.349   5.664 -0.5025  2.5102  0.8754
11906TIP3   OH235656   7.339   4.262   5.177  0.0684  0.3377  0.2205
11906TIP3    H135657   7.425   4.248   5.139  1.5846  1.8611  2.8949
11906TIP3    H235658   7.307   4.175   5.199  2.1380 -0.0788  1.6624
11907TIP3   OH235659   7.557   3.160   4.806 -0.4387 -0.2587 -0.4850
11907TIP3    H135660   7.540   3.095   4.738  0.3539 -1.3199  0.2955
11907TIP3    H235661   7.577   3.107   4.884  0.6746  0.9252  0.0455
11908TIP3   OH235662   6.286   2.585   6.177 -0.3585 -0.3133  0.2513
11908TIP3    H135663   6.264   2.642   6.104 -1.6914  0.6348  1.3622
11908TIP3    H235664   6.324   2.643   6.243 -1.4543 -0.7267  1.2744
11909TIP3   OH235665   1.077   5.211   2.834  0.4148  0.3825  0.3309
11909TIP3    H135666   1.082   5.293   2.884  1.1031  0.3958  0.2462
11909TIP3    H235667   0.984   5.199   2.818  0.3945  1.9632 -0.9699
11910TIP3   OH235668   8.460   4.087   6.954  0.3935  0.2909  0.2117
11910TIP3    H135669   8.499   4.119   6.873  0.2801 -2.0165 -0.7867
11910TIP3    H235670   8.366   4.099   6.942  0.5323  2.4178  1.1091
11911TIP3   OH235671   1.410   3.935   5.617 -0.5350 -0.6344 -0.0658
11911TIP3    H135672   1.325   3.977   5.630  0.2039  0.9126 -0.1084
11911TIP3    H235673   1.393   3.866   5.553 -1.3695  0.9650 -1.6204
11912TIP3   OH235674   7.822   3.719   3.886 -0.0143 -0.1328  0.1314
11912TIP3    H135675   7.856   3.652   3.945 -1.8960 -0.7298  0.5985
11912TIP3    H235676   7.869   3.706   3.804  1.5769 -0.2499  1.0595
11913TIP3   OH235677   5.442   4.229   3.343 -0.0709  0.4972  0.3289
11913TIP3    H135678   5.358   4.257   3.379 -0.8338  0.2135 -1.1766
11913TIP3    H235679   5.419   4.158   3.283  1.3168  0.0203  0.3510
11914TIP3   OH235680   0.235   5.759   4.742 -0.0930  0.0375 -0.3807
11914TIP3    H135681   0.235   5.838   4.689  0.4947  1.0499  1.0948
11914TIP3    H235682   0.227   5.687   4.679 -1.3009  1.2888 -1.6733
11915TIP3   OH235683   6.941   7.450   2.542 -0.5521 -0.1216 -0.0785
11915TIP3    H135684   6.857   7.472   2.502 -0.5864 -1.2635 -0.6433
11915TIP3    H235685   6.918   7.413   2.627 -0.6428 -0.8548 -0.4225
11916TIP3   OH235686   0.811   6.883   5.004  0.0954 -0.1130  0.4804
11916TIP3    H135687   0.757   6.962   5.013  0.1826 -0.2291  2.1656
11916TIP3    H235688   0.771   6.835   4.932 -1.5335  0.2297  1.1244
11917TIP3   OH235689   6.796   4.553   6.081  0.1036 -0.3537 -0.5761
11917TIP3    H135690   6.779   4.473   6.030 -2.9635 -1.2188  1.6840
11917TIP3    H235691   6.770   4.624   6.022 -1.3157 -1.2208 -1.0068
11918TIP3   OH235692   6.746   4.240   6.423 -0.2998 -0.4461 -0.0244
11918TIP3    H135693   6.726   4.199   6.508 -0.7021  0.1131  0.1536
11918TIP3    H235694   6.841   4.250   6.424 -0.3549  0.0759  0.6074
11919TIP3   OH235695   7.730   5.160   3.769 -0.5097  0.0439  0.0387
11919TIP3    H135696   7.785   5.192   3.698 -1.0911  1.3697  0.1640
11919TIP3    H235697   7.674   5.094   3.728 -0.3625  0.3061 -0.5941
11920TIP3   OH235698   7.483   3.454   0.033 -0.6888  0.1776  0.0289
11920TIP3    H135699   7.573   3.468   0.004 -0.8005  1.5393  0.2912
11920TIP3    H235700   7.451   3.382  -0.021  0.8424 -0.9151  0.5618
11921TIP3   OH235701   5.006   0.149   4.577 -0.0503 -0.0037  0.8314
11921TIP3    H135702   5.095   0.115   4.579  0.2237  0.7119  1.1534
11921TIP3    H235703   5.009   0.222   4.516 -0.2069  0.5796  1.5107
11922TIP3   OH235704   2.155   7.453   6.642 -0.2239  0.6042 -0.1342
11922TIP3    H135705   2.247   7.475   6.623  0.2436 -0.7224  0.5073
11922TIP3    H235706   2.110   7.537   6.644  1.0104  1.2801 -0.3270
11923TIP3   OH235707   7.943   3.062   0.019  0.5171  0.9269 -0.0578
11923TIP3    H135708   8.011   3.125   0.040  0.9855 -0.1463  1.7219
11923TIP3    H235709   7.990   2.980   0.001 -0.3315 -0.1301  2.3666
11924TIP3   OH235710   7.038   4.589   1.075 -0.7626  0.8727 -0.0579
11924TIP3    H135711   7.125   4.576   1.113 -0.7126  1.7402  0.1369
11924TIP3    H235712   6.986   4.516   1.109  0.0445  0.0126 -0.6555
11925TIP3   OH235713   7.704   2.639   0.480 -0.3359  0.6112  0.2787
11925TIP3    H135714   7.771   2.672   0.419 -0.4765  0.8972  0.2768
11925TIP3    H235715   7.661   2.568   0.433 -0.5591  0.9451 -0.0250
11926TIP3   OH235716   5.929   2.206   0.990 -0.6598 -0.5224  0.2617
11926TIP3    H135717   5.835   2.206   1.007 -0.6443 -1.7990  0.3944
11926TIP3    H235718   5.957   2.116   1.007  0.6490 -0.0729  0.5587
11927TIP3   OH235719   2.380   5.536   5.754 -0.7109 -0.0199 -0.3454
11927TIP3    H135720   2.421   5.484   5.685  1.3892 -0.8049  1.4411
11927TIP3    H235721   2.325   5.474   5.801  0.2866 -0.2247  0.5813
11928TIP3   OH235722   7.455   2.175   0.252 -0.0393 -0.0688  0.4073
11928TIP3    H135723   7.385   2.175   0.186  1.3051  0.0520 -1.0395
11928TIP3    H235724   7.452   2.264   0.289 -0.5224 -0.0017  0.2131
11929TIP3   OH235725   8.106   3.103   1.296  0.4672 -0.1022  0.4106
11929TIP3    H135726   8.185   3.141   1.256 -0.8320  1.0287 -1.1657
11929TIP3    H235727   8.068   3.050   1.226 -1.7086  1.7025  0.1672
11930TIP3   OH235728   0.427   4.665   6.090 -0.1428 -0.7821  0.1110
11930TIP3    H135729   0.337   4.642   6.110 -0.2130 -0.3319  0.3117
11930TIP3    H235730   0.452   4.727   6.158  0.3571 -0.9961  0.1240
11931TIP3   OH235731   2.242   7.804   5.137  0.1441 -0.0959  0.4628
11931TIP3    H135732   2.198   7.737   5.190  0.1961  0.7340  1.5618
11931TIP3    H235733   2.246   7.881   5.194  1.9421  0.2081 -0.0701
11932TIP3   OH235734   4.662   0.363   0.269  0.1774 -0.0432 -0.1539
11932TIP3    H135735   4.610   0.377   0.191  0.1611  0.7223 -0.0138
11932TIP3    H235736   4.606   0.391   0.341  1.2240  2.0192 -0.1018
11933TIP3   OH235737   7.379   2.059   1.800  0.4416  0.3589  0.3032
11933TIP3    H135738   7.367   2.151   1.821  0.1866  0.2387  0.6958
11933TIP3    H235739   7.324   2.044   1.723  2.6006  1.1752 -1.4396
11934TIP3   OH235740   2.964   7.132   6.033  0.2505 -0.5065 -0.2402
11934TIP3    H135741   3.024   7.059   6.026  0.6072 -0.5582  2.7733
11934TIP3    H235742   2.894   7.101   6.091  0.3999  1.5136  1.0770
11935TIP3   OH235743   6.990   5.855   6.821  0.4114  0.2952  0.4075
11935TIP3    H135744   7.029   5.856   6.734  0.6869  1.2073  0.5373
11935TIP3    H235745   6.896   5.864   6.805  0.2800 -1.3444  0.1254
11936TIP3   OH235746   2.103   7.724   6.745  0.4214  0.0124  0.0066
11936TIP3    H135747   2.132   7.815   6.739 -0.2582  0.2763  0.6239
11936TIP3    H235748   2.008   7.729   6.732  0.1358 -0.3999  1.8137
11937TIP3   OH235749   7.681   7.317   6.079 -0.3535 -0.3400 -0.4253
11937TIP3    H135750   7.600   7.361   6.052 -1.1628  0.2052  2.7141
11937TIP3    H235751   7.743   7.388   6.096 -0.4319 -0.5798  0.8876
11938TIP3   OH235752   7.175   5.869   4.294  0.5052  0.2806  0.1779
11938TIP3    H135753   7.112   5.897   4.361 -0.8947 -1.9120 -0.1639
11938TIP3    H235754   7.260   5.894   4.329 -0.2493 -0.4060  2.5708
11939TIP3   OH235755   4.781   2.767   1.371  0.0573  0.2163  0.6185
11939TIP3    H135756   4.785   2.774   1.275  1.8881 -0.7030  0.6166
11939TIP3    H235757   4.744   2.851   1.399  1.6943  1.4352 -0.7548
11940TIP3   OH235758   1.735   6.623   4.982  0.2874  0.3584  0.8646
11940TIP3    H135759   1.722   6.715   5.007  0.1572  1.0085 -1.4726
11940TIP3    H235760   1.659   6.578   5.018 -1.0897  1.6608 -0.3262
11941TIP3   OH235761   2.634   6.009   6.142  0.0355 -0.4057 -0.8620
11941TIP3    H135762   2.621   6.031   6.049  1.1040 -1.0798 -1.1712
11941TIP3    H235763   2.727   6.027   6.158  0.1794 -1.6643 -0.2874
11942TIP3   OH235764   2.119   6.913   6.197 -0.1569 -0.2979 -0.1722
11942TIP3    H135765   2.204   6.953   6.219 -1.4760  1.0075  2.9061
11942TIP3    H235766   2.055   6.971   6.238 -2.3725 -3.1423  0.5292
11943TIP3   OH235767   3.815   7.572   4.126 -0.3043 -0.1774 -0.2353
11943TIP3    H135768   3.900   7.615   4.129 -0.1356 -0.5748  0.7592
11943TIP3    H235769   3.829   7.488   4.169 -0.4176 -1.6250 -2.9792
11944TIP3   OH235770   1.746   5.214   5.754 -0.2770  0.0041  0.4862
11944TIP3    H135771   1.656   5.244   5.761 -0.9036 -1.7754  0.2124
11944TIP3    H235772   1.797   5.294   5.737 -1.8681  0.9110 -0.0964
11945TIP3   OH235773   5.371   0.889   5.790  0.3186  0.6516  0.2896
11945TIP3    H135774   5.373   0.980   5.762  1.6014  0.6107  0.2330
11945TIP3    H235775   5.333   0.842   5.716 -0.5504  1.1584  0.4045
11946TIP3   OH235776   1.893   7.773   5.625  0.3354  0.4961 -0.0542
11946TIP3    H135777   1.806   7.793   5.591  0.1962  2.5528  1.4127
11946TIP3    H235778   1.895   7.815   5.711  3.8557  3.1605 -1.3301
11947TIP3   OH235779   1.053   6.962   5.510  0.0637 -0.2995 -0.0606
11947TIP3    H135780   0.960   6.956   5.532  0.1257  0.1436  0.3363
11947TIP3    H235781   1.061   6.917   5.426 -0.6707  0.4077 -0.5221
11948TIP3   OH235782   2.597   7.250   6.448  0.2974 -0.1791  0.0609
11948TIP3    H135783   2.525   7.226   6.506 -0.1600 -1.4114 -1.0058
11948TIP3    H235784   2.674   7.252   6.504  0.1100 -2.7754  0.4670
11949TIP3   OH235785   1.123   5.883   6.012 -0.9871  0.4491  0.2192
11949TIP3    H135786   1.056   5.843   5.956 -1.5577  1.5297  0.1205
11949TIP3    H235787   1.201   5.829   5.998 -1.5431 -0.1876 -0.4746
11950TIP3   OH235788   7.093   0.773   2.958  0.1736 -0.4405 -0.5812
11950TIP3    H135789   7.151   0.736   3.024 -0.4415 -0.2601  0.0623
11950TIP3    H235790   7.007   0.779   3.001 -0.0262  0.5229 -1.0890
11951TIP3   OH235791   3.892   4.176   6.086 -0.4446 -0.0630 -0.4109
11951TIP3    H135792   3.928   4.203   6.001 -0.2532 -1.8699 -0.9319
11951TIP3    H235793   3.967   4.178   6.145 -0.3885  0.3367 -0.4948
11952TIP3   OH235794   1.828   7.392   6.187 -0.1380  0.0126  0.7804
11952TIP3    H135795   1.767   7.460   6.160  0.0349 -0.6983 -1.4601
11952TIP3    H235796   1.794   7.360   6.271 -1.2500  1.5451  0.9247
11953TIP3   OH235797   0.637   6.273   5.961  0.8033  0.1668  0.1607
11953TIP3    H135798   0.641   6.203   5.896  0.8940 -1.7535  2.1878
11953TIP3    H235799   0.544   6.285   5.978  0.8751 -1.2577  1.6710
11954TIP3   OH235800   0.949   7.433   5.743 -0.0229 -0.5649  0.3701
11954TIP3    H135801   1.006   7.412   5.669 -1.3444 -1.9409 -0.2793
11954TIP3    H235802   0.973   7.523   5.767  1.0991 -0.4559 -1.0791
11955TIP3   OH235803   4.058   2.055   0.091  0.1406  0.5751 -0.5227
11955TIP3    H135804   4.006   1.975   0.095  0.1835  0.5635 -0.1643
11955TIP3    H235805   4.119   2.040   0.018  0.3590  0.1506 -0.2590
11956TIP3   OH235806   2.063   5.796   5.097 -0.4136  0.2908  0.8638
11956TIP3    H135807   2.108   5.725   5.141  1.6633 -0.2017 -1.9219
11956TIP3    H235808   1.970   5.772   5.101  0.0721 -1.4663  1.8394
11957TIP3   OH235809   2.241   7.554   4.425  0.4222 -0.7965 -0.0759
11957TIP3    H135810   2.171   7.517   4.479 -0.2293  1.4574  0.6817
11957TIP3    H235811   2.321   7.509   4.455 -0.0746 -0.3101  2.0650
11958TIP3   OH235812   1.938   6.396   5.291  0.4341  0.5196  0.1413
11958TIP3    H135813   2.027   6.368   5.270  0.1233 -0.3973  0.0196
11958TIP3    H235814   1.911   6.337   5.362 -0.4233  0.1641 -0.4710
11959TIP3   OH235815   5.206   0.027   6.520  0.3117  0.3647 -0.0595
11959TIP3    H135816   5.272   0.062   6.579  1.5173  0.0127 -1.1753
11959TIP3    H235817   5.247  -0.049   6.479 -0.7585  0.1594 -0.8045
11960TIP3   OH235818   0.238   2.223   1.754  0.0753  0.6034  0.5501
11960TIP3    H135819   0.288   2.216   1.836 -1.3500  2.9928  1.6763
11960TIP3    H235820   0.162   2.165   1.767  0.7979 -0.4497  0.1571
11961TIP3   OH235821   5.665   3.246   0.261 -0.3470 -0.0430  0.5540
11961TIP3    H135822   5.620   3.327   0.284 -2.6466 -1.5906  1.7227
11961TIP3    H235823   5.639   3.229   0.170  2.4514  1.9798 -0.6833
11962TIP3   OH235824   1.951   6.539   6.319  0.1705 -0.1421 -0.0575
11962TIP3    H135825   2.030   6.489   6.340  0.3969 -0.2173 -1.0348
11962TIP3    H235826   1.954   6.548   6.224 -1.6415 -1.1899 -0.2104
11963TIP3   OH235827   2.146   7.986   6.692 -0.1346 -0.1895 -0.2235
11963TIP3    H135828   2.063   7.992   6.647  0.6273 -1.6934 -1.8631
11963TIP3    H235829   2.208   8.031   6.635  0.5603 -0.8280  0.0170
11964TIP3   OH235830   5.673   1.866   0.445 -0.3271  0.3652 -0.2142
11964TIP3    H135831   5.727   1.812   0.503 -1.1523  1.6857  1.8153
11964TIP3    H235832   5.651   1.808   0.372 -1.4286 -2.1670  2.0452
11965TIP3   OH235833   5.812   0.747   0.590  0.0687 -0.5442  0.1589
11965TIP3    H135834   5.899   0.734   0.551 -0.1352 -0.5039 -0.3117
11965TIP3    H235835   5.780   0.659   0.607 -0.3320 -0.6010 -0.8568
11966TIP3   OH235836   1.829   6.934   6.096 -0.3686 -0.3018 -0.0098
11966TIP3    H135837   1.862   6.970   6.015 -1.1068 -0.4602 -0.3877
11966TIP3    H235838   1.782   7.007   6.138 -0.6729 -0.4412 -0.1085
11967TIP3   OH235839   1.126   5.877   6.437  0.3977  0.3634  0.1849
11967TIP3    H135840   1.042   5.834   6.453 -1.8166  3.7906 -1.7876
11967TIP3    H235841   1.124   5.956   6.490  1.8815  1.1014 -0.8097
11968TIP3   OH235842   2.549  -0.006   6.307  0.4551  0.1020 -0.7848
11968TIP3    H135843   2.642   0.007   6.326  0.4061 -0.8206  0.0833
11968TIP3    H235844   2.540   0.017   6.214  1.6640 -0.4033 -1.0280
11969TIP3   OH235845   1.499   6.742   6.387  0.1121 -0.2042  0.3819
11969TIP3    H135846   1.582   6.739   6.339 -0.3911  0.8986 -0.5723
11969TIP3    H235847   1.472   6.834   6.384 -1.4865 -0.6553  0.0599
11970TIP3   OH235848   3.587   7.728   6.545  0.3449  0.1899 -0.5928
11970TIP3    H135849   3.656   7.794   6.555 -0.7207  1.1638  0.3748
11970TIP3    H235850   3.565   7.731   6.452 -1.1023  2.6364 -0.1993
11971TIP3   OH235851   2.713   7.101   6.224 -0.5018  0.4853 -0.2076
11971TIP3    H135852   2.648   7.090   6.154 -0.0201  0.6167 -0.6728
11971TIP3    H235853   2.665   7.149   6.292 -1.4279 -0.9948  0.2085
11972TIP3   OH235854   1.119   7.922   4.901 -0.2903  0.2457  0.8917
11972TIP3    H135855   1.182   7.853   4.883  0.1856  1.1721 -1.2335
11972TIP3    H235856   1.167   7.985   4.956 -0.1626 -0.2673  1.3654
11973TIP3   OH235857   2.161   6.580   5.105  0.4690 -0.2461  0.9132
11973TIP3    H135858   2.118   6.496   5.124  1.1671 -0.9630 -0.6730
11973TIP3    H235859   2.254   6.563   5.118  0.6641  0.1400  0.0102
11974TIP3   OH235860   5.211   3.469   2.684 -0.3080  0.3337 -0.5633
11974TIP3    H135861   5.143   3.416   2.725  1.6119 -2.3457 -0.7322
11974TIP3    H235862   5.269   3.494   2.756 -0.3666  0.9330 -0.7195
11975TIP3   OH235863   5.792   0.692   4.386 -0.1012  0.2087 -0.4164
11975TIP3    H135864   5.850   0.717   4.458  0.7207 -3.8151  0.4444
11975TIP3    H235865   5.843   0.711   4.307  1.0120 -0.0175  0.2319
11976TIP3   OH235866   0.880   5.058   4.670 -0.1935  0.0673  0.1013
11976TIP3    H135867   0.857   5.142   4.630 -1.7174 -0.1355  0.4961
11976TIP3    H235868   0.962   5.075   4.716 -0.4919  1.3482  0.1893
11977TIP3   OH235869   8.255   2.698   0.274 -0.1961  0.6685 -0.2269
11977TIP3    H135870   8.266   2.614   0.230  1.7306  0.4063  0.6687
11977TIP3    H235871   8.243   2.676   0.366  1.3587  1.3710  0.1777
11978TIP3   OH235872   4.726   5.097   0.427  0.1560 -0.0599  0.3532
11978TIP3    H135873   4.813   5.084   0.466 -0.2079 -2.1528  0.5371
11978TIP3    H235874   4.666   5.096   0.502 -0.1920 -0.4037  0.0745
11979TIP3   OH235875   5.531   1.295   0.684  0.1975  0.4430 -0.0231
11979TIP3    H135876   5.562   1.295   0.593  0.1658 -1.6317 -0.0767
11979TIP3    H235877   5.436   1.307   0.677  0.0681 -0.6933 -0.3457
11980TIP3   OH235878   2.217   7.000   5.448 -0.1872 -0.0587  0.3458
11980TIP3    H135879   2.215   6.914   5.488  1.1780 -0.4008 -0.2650
11980TIP3    H235880   2.227   6.983   5.354  0.8313  0.7536  0.2878
11981TIP3   OH235881   0.017   2.870   2.683 -0.1057 -0.5099  0.1114
11981TIP3    H135882   0.086   2.855   2.617 -0.4988 -0.4481 -0.3186
11981TIP3    H235883  -0.064   2.852   2.636 -0.3876 -0.5108  0.6002
11982TIP3   OH235884   7.114   2.730   0.878  0.6772  0.3328 -0.6284
11982TIP3    H135885   7.048   2.707   0.812  1.3210 -3.6439 -0.0185
11982TIP3    H235886   7.063   2.763   0.952 -0.5410 -1.1472 -0.7832
11983TIP3   OH235887   1.824   7.876   6.796 -0.0656 -0.0033  0.2887
11983TIP3    H135888   1.849   7.924   6.718 -0.0469  1.2874  1.0825
11983TIP3    H235889   1.820   7.942   6.865  1.8005 -1.4107  1.8055
11984TIP3   OH235890   7.032   2.036   1.947  0.2486 -0.1075 -0.0896
11984TIP3    H135891   7.052   2.029   2.040  1.1449  1.2433 -0.1669
11984TIP3    H235892   6.942   2.003   1.939 -0.0079  0.2245  1.3306
11985TIP3   OH235893   8.235   6.108   5.367 -0.3215 -0.5069 -0.4176
11985TIP3    H135894   8.250   6.104   5.272  2.4252 -0.2625 -0.0275
11985TIP3    H235895   8.321   6.124   5.404 -1.9782  3.9911  1.8651
11986TIP3   OH235896   6.326   3.322   0.543 -0.0504 -0.1267  0.0612
11986TIP3    H135897   6.364   3.247   0.498 -1.7206 -1.6975  1.2017
11986TIP3    H235898   6.241   3.335   0.500 -1.6859 -1.6671  2.6994
11987TIP3   OH235899   7.870   2.500   2.883  0.2194  0.3307  0.3116
11987TIP3    H135900   7.839   2.502   2.974  0.3315 -0.8617  0.3745
11987TIP3    H235901   7.963   2.477   2.890  0.1324 -0.1609 -0.1326
11988TIP3   OH235902   2.533   7.852   6.399 -0.4505  0.1253 -0.0831
11988TIP3    H135903   2.572   7.896   6.324  0.7499 -0.6947  0.0412
11988TIP3    H235904   2.531   7.759   6.375 -1.6109  0.0577  0.2356
11989TIP3   OH235905   2.434   6.426   5.717  0.1665 -0.4906  0.1558
11989TIP3    H135906   2.424   6.331   5.715  0.8868 -0.5844  0.6322
11989TIP3    H235907   2.381   6.454   5.792  0.1764 -0.5517  0.1860
11990TIP3   OH235908   7.218   6.418   5.377 -0.0879 -0.1759 -0.1671
11990TIP3    H135909   7.172   6.394   5.458 -2.8038 -0.3813 -1.7089
11990TIP3    H235910   7.245   6.508   5.390 -0.7252 -0.1313  0.8868
11991TIP3   OH235911   1.957   6.733   6.616 -0.0436 -0.0396 -0.0652
11991TIP3    H135912   1.956   6.759   6.708  0.5934 -0.2887  0.0127
11991TIP3    H235913   1.950   6.816   6.568  3.0719  0.3945  0.1744
11992TIP3   OH235914   7.065   2.002   0.452  0.3912 -0.2702  0.0803
11992TIP3    H135915   7.097   2.081   0.496 -0.3351  0.1820 -0.1936
11992TIP3    H235916   6.987   2.031   0.404 -0.7216 -1.4406  1.1324
11993TIP3   OH235917   6.082   1.921   0.071  0.3188 -0.5749 -0.1550
11993TIP3    H135918   6.074   1.829   0.045  0.5795 -1.0554  1.3985
11993TIP3    H235919   5.994   1.957   0.057  0.1113 -1.1610 -0.3973
11994TIP3   OH235920   7.018   1.238   2.237  0.3614  0.0221  0.4309
11994TIP3    H135921   6.997   1.246   2.330  0.9479 -0.0690  0.5705
11994TIP3    H235922   7.106   1.202   2.235  0.1506 -0.4606 -0.1688
11995TIP3   OH235923   1.056   6.322   6.958  0.2325 -0.2210  0.2890
11995TIP3    H135924   0.963   6.342   6.956  0.1295 -0.4904  1.4713
11995TIP3    H235925   1.089   6.348   6.872 -0.7517  0.7476  0.1940
11996TIP3   OH235926   2.054   4.212   6.871  0.0586 -0.4570  0.1846
11996TIP3    H135927   2.052   4.229   6.777 -3.8379  1.6812  0.5640
11996TIP3    H235928   2.008   4.129   6.881  0.5443 -0.7245  0.1848
11997TIP3   OH235929   2.967   5.059   6.181  0.2588 -0.2066  0.4098
11997TIP3    H135930   3.024   5.135   6.184 -0.6206  0.5474 -1.2472
11997TIP3    H235931   2.879   5.095   6.191 -0.0278 -1.2435  1.8033
11998TIP3   OH235932   8.149   4.776   4.634 -0.1684  0.1011 -0.6084
11998TIP3    H135933   8.067   4.783   4.584 -1.3040 -2.1103  0.8871
11998TIP3    H235934   8.125   4.731   4.714  2.7944 -1.8513 -0.7351
11999TIP3   OH235935   5.536   2.693   1.270 -0.2944 -0.3634 -0.6656
11999TIP3    H135936   5.601   2.683   1.200 -0.6385 -1.0127 -0.8972
11999TIP3    H235937   5.557   2.777   1.310  0.6843 -0.5501 -0.7545
12000TIP3   OH235938   7.747   2.718   2.047  0.1402  0.4721 -0.3760
12000TIP3    H135939   7.686   2.646   2.060  0.3119  0.8781  3.2869
12000TIP3    H235940   7.694   2.797   2.056  0.7335  0.7962  0.4624
12001TIP3   OH235941   5.933   0.641   1.683  0.2633  0.3153 -0.2104
12001TIP3    H135942   5.941   0.644   1.588  0.4587 -0.6406 -0.2285
12001TIP3    H235943   5.973   0.558   1.708 -0.1537  0.3700  0.6656
12002TIP3   OH235944   8.085   2.058   0.445  0.2525 -0.0895  0.0492
12002TIP3    H135945   8.148   2.117   0.485 -0.8811 -0.0944  1.9210
12002TIP3    H235946   8.020   2.115   0.404  1.5408 -0.0851 -2.0537
12003TIP3   OH235947   7.667   0.619   1.756 -0.7511  0.0146  0.3513
12003TIP3    H135948   7.656   0.592   1.665  0.3122  0.6375  0.0189
12003TIP3    H235949   7.754   0.588   1.780 -0.5806  0.8103  0.7973
12004TIP3   OH235950   0.766   3.312   1.722 -0.2259  0.1046 -0.5629
12004TIP3    H135951   0.837   3.293   1.783 -0.3706 -0.0857 -0.4521
12004TIP3    H235952   0.810   3.331   1.639  0.0375  1.7114 -0.0735
12005TIP3   OH235953   1.650   5.722   6.068  0.3291  0.3180  0.5460
12005TIP3    H135954   1.711   5.661   6.109  0.9656  1.2648  1.0070
12005TIP3    H235955   1.672   5.718   5.974 -1.2133 -1.9349  0.2445
12006TIP3   OH235956   0.300   5.255   5.452  0.4568 -0.1449  0.1998
12006TIP3    H135957   0.357   5.314   5.501  0.8110  1.1225 -1.6939
12006TIP3    H235958   0.359   5.211   5.391 -0.5937  1.3399 -1.9278
12007TIP3   OH235959   1.642   6.072   6.504 -0.2231 -1.0559 -0.2397
12007TIP3    H135960   1.586   6.146   6.485  0.5477  0.3202  2.6627
12007TIP3    H235961   1.602   5.999   6.457 -3.2321  0.3376  0.0650
12008TIP3   OH235962   6.114   1.225   0.022 -0.2638 -0.4563  0.2928
12008TIP3    H135963   6.192   1.280   0.015 -0.6745 -0.1617 -2.4706
12008TIP3    H235964   6.057   1.271   0.083 -0.1765  1.7013 -1.2059
12009TIP3   OH235965   0.866   1.635   1.078 -0.1497  0.3405 -0.1068
12009TIP3    H135966   0.889   1.544   1.099  2.9025  1.1157  0.1054
12009TIP3    H235967   0.838   1.672   1.162  0.3209  0.0824  0.1672
12010TIP3   OH235968   0.788   4.154   6.268  0.4885  0.2348 -0.1912
12010TIP3    H135969   0.836   4.088   6.218 -0.0230  0.7023 -1.3248
12010TIP3    H235970   0.838   4.163   6.349 -0.1825 -2.5149  0.5806
12011TIP3   OH235971   1.290   7.013   6.056  0.2372  0.5948 -0.6891
12011TIP3    H135972   1.282   7.089   5.997  0.3822  0.2744 -1.1233
12011TIP3    H235973   1.278   7.050   6.143 -1.1228  0.9026 -0.9869
12012TIP3   OH235974   2.239   7.054   6.483  0.5130 -0.5805 -0.0594
12012TIP3    H135975   2.157   7.089   6.450  0.4288 -0.6110  0.1174
12012TIP3    H235976   2.235   7.068   6.577  0.1052 -1.8338  0.1211
12013TIP3   OH235977   0.069   4.553   5.889  0.3713 -0.0014 -0.2731
12013TIP3    H135978   0.156   4.582   5.861  0.6950 -0.0294  0.6907
12013TIP3    H235979   0.077   4.541   5.983 -0.4940 -0.6831 -0.2845
12014TIP3   OH235980   0.078   3.894   2.331 -0.0449  0.8696  0.4193
12014TIP3    H135981   0.159   3.858   2.295  0.7104  2.4385  0.5126
12014TIP3    H235982   0.092   3.895   2.425 -0.0252  1.4901  0.4107
12015TIP3   OH235983   7.666   2.975   0.018 -1.3179 -0.6999 -0.1723
12015TIP3    H135984   7.759   2.993   0.006 -0.7984 -1.8516  1.8779
12015TIP3    H235985   7.653   2.890  -0.023 -1.0979 -1.2925  0.9640
12016TIP3   OH235986   8.168   3.799   6.171 -0.6529 -0.5864 -0.3706
12016TIP3    H135987   8.250   3.764   6.206 -0.8646 -0.6240  0.0828
12016TIP3    H235988   8.117   3.823   6.248 -0.0107  1.9191 -0.6803
12017TIP3   OH235989   0.866   5.311   4.514 -0.1324 -0.1773 -0.5238
12017TIP3    H135990   0.775   5.291   4.494 -0.7879  3.1607 -1.1467
12017TIP3    H235991   0.908   5.320   4.428  0.2221  0.6960 -0.2644
12018TIP3   OH235992   7.373   3.290   1.106 -0.3257 -0.3677  0.4765
12018TIP3    H135993   7.426   3.210   1.115  0.2005  0.0170  0.7932
12018TIP3    H235994   7.434   3.356   1.073 -0.8434 -0.1820 -0.1215
12019TIP3   OH235995   1.570   4.658   6.109  0.5499  0.2312  0.2744
12019TIP3    H135996   1.522   4.628   6.186  3.5003 -0.2447  1.9928
12019TIP3    H235997   1.586   4.751   6.124  0.9646  0.1811  0.1614
12020TIP3   OH235998   8.095   3.916   4.510  0.4644 -0.4539 -0.2744
12020TIP3    H135999   8.139   3.838   4.543  0.4637 -0.8392 -1.1629
12020TIP3    H236000   8.027   3.883   4.452 -0.2993  0.1766  0.2495
12021TIP3   OH236001   0.248   1.682   1.061  0.1538  0.4165  0.1903
12021TIP3    H136002   0.211   1.630   1.133  1.8880 -1.6002 -0.3330
12021TIP3    H236003   0.338   1.698   1.088 -0.1277  2.5581 -0.0244
12022TIP3   OH236004   1.697   5.582   5.249 -1.1090 -0.4810 -0.6999
12022TIP3    H136005   1.697   5.633   5.168  0.2406  1.2976  0.3883
12022TIP3    H236006   1.789   5.577   5.274 -1.3596 -2.3704 -0.1026
12023TIP3   OH236007   0.884   5.554   4.132  0.6754  0.1373  0.5607
12023TIP3    H136008   0.803   5.544   4.182  0.7525 -1.3118  0.4284
12023TIP3    H236009   0.855   5.566   4.042  0.5799  0.9113  0.6929
12024TIP3   OH236010   2.362   6.054   5.304  0.3313  0.3691  0.4782
12024TIP3    H136011   2.391   5.980   5.358  0.1888  0.7077  1.0178
12024TIP3    H236012   2.393   6.131   5.351 -0.8677  0.7139  0.7199
12025TIP3   OH236013   3.029   0.657   4.839 -0.4515  0.1379  0.2096
12025TIP3    H136014   3.043   0.605   4.918  2.1092  0.2410 -0.1378
12025TIP3    H236015   2.990   0.596   4.777  1.9753 -1.2537  0.0015
12026TIP3   OH236016   3.086   6.277   1.641 -0.3116  0.2527 -0.4440
12026TIP3    H136017   3.134   6.351   1.604 -1.2853  0.2446 -1.7676
12026TIP3    H236018   3.014   6.317   1.689 -0.1789  0.1936 -0.1929
12027TIP3   OH236019   1.214   1.261   4.708 -0.5283 -0.6238  0.2068
12027TIP3    H136020   1.147   1.265   4.776  1.0307  0.1000  1.7817
12027TIP3    H236021   1.296   1.273   4.756  0.5789  0.4603 -1.8865
12028TIP3   OH236022   0.747   6.247   6.338 -0.3140 -0.1800  0.6690
12028TIP3    H136023   0.745   6.178   6.272  0.0548 -1.1144  1.6139
12028TIP3    H236024   0.756   6.328   6.288 -1.1550 -0.7762 -0.4779
12029TIP3   OH236025   8.199   4.146   6.161  0.2303 -0.3877  0.2967
12029TIP3    H136026   8.120   4.191   6.189 -0.5970 -1.4402 -0.3029
12029TIP3    H236027   8.225   4.093   6.236 -0.6343 -1.3818 -0.0958
12030TIP3   OH236028   0.936   6.334   5.567 -0.1068  0.4483 -0.1503
12030TIP3    H136029   0.935   6.399   5.496  1.3931 -0.0430 -0.6410
12030TIP3    H236030   0.992   6.264   5.533 -0.2129 -0.2486  1.1237
12031TIP3   OH236031   8.342   3.576   5.812  0.5734  0.3995  0.0108
12031TIP3    H136032   8.299   3.514   5.754  1.1040  0.3476 -0.3313
12031TIP3    H236033   8.271   3.624   5.854  0.2023  1.3151 -1.6436
12032TIP3   OH236034   6.431   3.066   1.277 -0.4856  0.0316  0.0694
12032TIP3    H136035   6.435   2.971   1.268 -0.6515 -0.2619  2.7086
12032TIP3    H236036   6.522   3.093   1.288 -0.4186  0.2075 -0.8932
12033TIP3   OH236037   6.576   0.519   2.348 -0.3343 -0.7181  0.2263
12033TIP3    H136038   6.603   0.487   2.435 -2.6710 -2.7947  0.2471
12033TIP3    H236039   6.584   0.442   2.291  1.4983  0.7115 -1.5145
12034TIP3   OH236040   0.698   5.028   6.388  0.3675  0.3527 -0.4439
12034TIP3    H136041   0.762   5.083   6.432 -1.0711  1.6150  0.1055
12034TIP3    H236042   0.679   5.073   6.307 -2.1260  1.6264  0.7976
12035TIP3   OH236043   8.039   4.434   4.748  0.1819  0.2272  0.1736
12035TIP3    H136044   7.956   4.441   4.795  0.2574  0.1764  0.3118
12035TIP3    H236045   8.078   4.353   4.780  0.4937  0.4787  0.4391
12036TIP3   OH236046   2.393   5.592   6.048  0.5206  0.3472  0.0056
12036TIP3    H136047   2.328   5.558   5.987 -0.7882  1.5415  0.7160
12036TIP3    H236048   2.447   5.651   5.995  2.3200 -2.1285 -1.0455
12037TIP3   OH236049   0.496   1.732   1.153 -0.7796 -0.4577  0.3641
12037TIP3    H136050   0.567   1.699   1.097  0.3121  0.7671  1.0098
12037TIP3    H236051   0.490   1.825   1.132 -1.2975 -0.2815  1.2917
12038TIP3   OH236052   2.348   5.794   6.629 -0.2103 -0.3510  0.5937
12038TIP3    H136053   2.336   5.882   6.594 -1.6742 -0.7534  0.0698
12038TIP3    H236054   2.442   5.788   6.645 -0.0929  1.3242  0.6843
12039TIP3   OH236055   2.746   6.802   6.527 -0.0466 -0.1343  0.5903
12039TIP3    H136056   2.736   6.817   6.433 -1.0016 -0.1516  0.6835
12039TIP3    H236057   2.657   6.802   6.561  0.2653 -0.5846  1.4300
12040TIP3   OH236058   0.857   2.292   0.973  0.5467  0.1795 -0.0635
12040TIP3    H136059   0.849   2.211   1.023 -0.5177  0.2006 -0.1961
12040TIP3    H236060   0.768   2.312   0.944  0.7437  1.5596  0.2305
12041TIP3   OH236061   2.687   5.078   5.123 -1.0825  0.1269 -0.5990
12041TIP3    H136062   2.686   5.126   5.041 -1.9972  0.3100 -0.4792
12041TIP3    H236063   2.729   4.994   5.101 -0.7841  0.4123 -1.1161
12042TIP3   OH236064   3.376   7.232   6.015 -0.2155  0.6747  0.1323
12042TIP3    H136065   3.297   7.281   5.990 -0.1921  0.9145  0.5305
12042TIP3    H236066   3.433   7.298   6.055  0.8585  0.8243 -1.6303
12043TIP3   OH236067   0.176   5.189   1.202  0.4263 -0.5729 -0.2654
12043TIP3    H136068   0.248   5.232   1.155 -1.6353  1.9362 -1.2690
12043TIP3    H236069   0.136   5.131   1.137 -0.2377  0.2331 -0.5860
12044TIP3   OH236070   7.975   1.105   0.616  0.0914  0.2852  0.0563
12044TIP3    H136071   7.885   1.138   0.613 -0.0522 -0.2542 -3.1361
12044TIP3    H236072   7.965   1.012   0.640 -0.0831  0.5674  1.1037
12045TIP3   OH236073   8.062   3.345   2.842 -0.0677  0.4773 -0.7064
12045TIP3    H136074   8.030   3.308   2.924  2.8100  2.0465  1.2316
12045TIP3    H236075   8.031   3.435   2.842 -0.5686  0.3167 -1.6726
12046TIP3   OH236076   4.133   7.654   4.575  0.6932 -0.0878  0.0054
12046TIP3    H136077   4.175   7.568   4.580  1.4920  0.2912  0.0107
12046TIP3    H236078   4.201   7.715   4.603 -0.4590  0.3807  1.8703
12047TIP3   OH236079   0.069   3.960   6.197 -0.0354 -0.6240  0.2306
12047TIP3    H136080   0.082   3.961   6.102  0.1704  0.4271  0.2644
12047TIP3    H236081   0.007   3.889   6.212 -0.4031 -0.5084 -0.7330
12048TIP3   OH236082   1.064   2.187   1.469 -0.1062  0.0400 -0.1134
12048TIP3    H136083   1.051   2.224   1.381 -0.0916 -1.0595 -0.5892
12048TIP3    H236084   0.989   2.217   1.519 -2.0866 -2.3349 -1.5218
12049TIP3   OH236085   2.542   7.070   5.263  0.1661 -0.1413  0.4054
12049TIP3    H136086   2.579   7.137   5.320 -0.1464  0.4569 -0.0821
12049TIP3    H236087   2.607   7.061   5.193  1.0737 -1.6627  1.4165
12050TIP3   OH236088   3.194   3.891   6.857 -0.0622 -0.2899  0.3677
12050TIP3    H136089   3.164   3.940   6.933  1.1800 -0.0914  0.7342
12050TIP3    H236090   3.163   3.942   6.782 -2.8220 -1.3902  0.6786
12051TIP3   OH236091   2.802   4.969   5.684 -0.0544  0.1702  0.2764
12051TIP3    H136092   2.756   4.923   5.613 -1.6964  3.0100 -0.5490
12051TIP3    H236093   2.740   4.969   5.756  0.1542  0.6048  0.4547
12052TIP3   OH236094   1.294   3.032   4.072  0.5213 -0.0165  0.1450
12052TIP3    H136095   1.221   3.066   4.020  0.6184  0.7584  0.5066
12052TIP3    H236096   1.266   2.946   4.101  0.8779 -0.9116 -2.0728
12053TIP3   OH236097   1.617   7.526   6.075 -0.2309 -0.1169 -0.2438
12053TIP3    H136098   1.556   7.575   6.020  2.3798  0.5344 -2.6549
12053TIP3    H236099   1.576   7.439   6.085 -2.1159  0.6850 -0.7263
12054TIP3   OH236100   5.388   0.306   6.578 -0.0173 -0.1067 -0.0721
12054TIP3    H136101   5.478   0.335   6.591  0.0116 -0.3902  0.3677
12054TIP3    H236102   5.339   0.348   6.649 -0.1931 -0.1290 -0.1799
12055TIP3   OH236103   1.347   7.441   6.431  0.3175  0.2189 -0.5433
12055TIP3    H136104   1.372   7.534   6.431  0.2836  0.2316 -0.0793
12055TIP3    H236105   1.290   7.432   6.508  0.2623 -0.1705 -0.6326
12056TIP3   OH236106   2.285   6.177   5.709  0.1777 -0.3606 -0.6575
12056TIP3    H136107   2.230   6.156   5.634  0.8579 -2.2293 -0.6524
12056TIP3    H236108   2.225   6.180   5.783 -0.2583 -0.0257 -1.0180
12057TIP3   OH236109   2.909   4.251   4.393 -0.3523 -0.8940  0.3593
12057TIP3    H136110   2.924   4.172   4.445  0.3811 -0.2105  1.1875
12057TIP3    H236111   2.973   4.244   4.322  0.3217 -0.5923  0.9397
12058TIP3   OH236112   2.205   5.839   4.337 -0.6970 -0.1616 -0.2406
12058TIP3    H136113   2.169   5.844   4.426  1.9479 -1.9501  1.0300
12058TIP3    H236114   2.178   5.753   4.305 -0.5915 -0.0402 -0.6578
12059TIP3   OH236115   7.036   2.117   1.032  0.0504 -0.3008  0.7087
12059TIP3    H136116   7.032   2.100   0.938 -0.2185 -0.5211  0.7603
12059TIP3    H236117   6.969   2.184   1.047  1.4281  1.1930  0.4290
12060TIP3   OH236118   1.433   6.189   6.379  0.0236  0.6577 -0.2267
12060TIP3    H136119   1.386   6.119   6.334  0.9229 -0.6625  0.8521
12060TIP3    H236120   1.396   6.270   6.343 -1.9954 -0.3541 -0.4877
12061TIP3   OH236121   6.094   0.529   4.489 -0.6540 -0.0686 -0.3248
12061TIP3    H136122   6.079   0.592   4.560  2.0147 -0.0477  0.2983
12061TIP3    H236123   6.107   0.446   4.534 -0.1137 -0.2696 -0.8451
12062TIP3   OH236124   4.713   1.093   5.439  0.0447  0.9282  0.3736
12062TIP3    H136125   4.744   1.183   5.429  0.1442  0.8282 -0.1866
12062TIP3    H236126   4.787   1.039   5.413 -0.8955  0.6867 -1.8662
12063TIP3   OH236127   0.579   2.125   0.363 -0.6078  0.1500 -0.0653
12063TIP3    H136128   0.640   2.090   0.298 -1.5061 -0.1292 -0.7654
12063TIP3    H236129   0.596   2.220   0.363 -0.1446  0.0701 -0.2214
12064TIP3   OH236130   3.439   7.108   6.373  0.0642 -0.0319  0.3771
12064TIP3    H136131   3.523   7.117   6.328 -0.4157  0.3466 -0.4718
12064TIP3    H236132   3.460   7.111   6.466  1.1524 -1.4428  0.1773
12065TIP3   OH236133   4.627   0.091   6.338 -0.2444 -0.0187 -0.2756
12065TIP3    H136134   4.543   0.068   6.299 -0.2291 -0.2044 -0.2012
12065TIP3    H236135   4.612   0.176   6.379 -0.8290 -0.7793  1.0941
12066TIP3   OH236136   4.804   0.188   4.244 -0.1931 -0.6384  0.2205
12066TIP3    H136137   4.766   0.182   4.156  1.3069 -1.3176 -0.3878
12066TIP3    H236138   4.766   0.114   4.291 -1.7656  0.2907  0.4690
12067TIP3   OH236139   0.860   4.216   4.340  0.1041  0.6970 -0.0780
12067TIP3    H136140   0.803   4.284   4.376  1.3556  2.2273 -0.9152
12067TIP3    H236141   0.897   4.255   4.261 -0.6581 -1.7032 -1.6489
12068TIP3   OH236142   4.106   1.500   4.987 -0.4040  0.1105 -0.2175
12068TIP3    H136143   4.171   1.430   4.995  0.3803  1.0987  2.8458
12068TIP3    H236144   4.123   1.541   4.903  2.6309  0.0431  0.3328
12069TIP3   OH236145   0.794   3.622   0.783 -0.1126 -0.5984 -0.2346
12069TIP3    H136146   0.813   3.695   0.842 -2.0502  0.0419 -0.3726
12069TIP3    H236147   0.825   3.544   0.829 -2.5969 -0.2316  2.1463
12070TIP3   OH236148   4.457   5.580   6.469  0.2813  0.2951  0.3465
12070TIP3    H136149   4.498   5.599   6.553 -0.0332 -1.0123  0.7998
12070TIP3    H236150   4.526   5.539   6.416  0.5537  1.3538 -0.1356
12071TIP3   OH236151   7.984   2.867   1.110 -0.0886  0.0007  0.2809
12071TIP3    H136152   8.024   2.838   1.192 -1.4197 -0.5352  0.7598
12071TIP3    H236153   7.947   2.787   1.072 -0.1980  0.3903 -0.4415
12072TIP3   OH236154   1.540   6.502   6.471  0.4015  0.8021  0.2872
12072TIP3    H136155   1.526   6.597   6.462  0.3138  0.9369  1.7643
12072TIP3    H236156   1.635   6.493   6.480  0.5457  0.6126 -1.3298
12073TIP3   OH236157   7.131   4.306   0.772  0.0223 -0.5857  0.5958
12073TIP3    H136158   7.206   4.308   0.714 -0.8130  1.8392 -0.4552
12073TIP3    H236159   7.146   4.229   0.828  2.6797 -0.7893 -0.3259
12074TIP3   OH236160   7.318   0.877   1.143  0.1656 -0.1614  0.2894
12074TIP3    H136161   7.367   0.945   1.190 -0.3875  0.3122  0.1752
12074TIP3    H236162   7.344   0.889   1.051 -1.1885  0.9629  0.0365
12075TIP3   OH236163   0.600   2.719   1.359 -0.3344 -0.0836  0.0629
12075TIP3    H136164   0.520   2.673   1.333 -0.1204 -0.6345  0.3671
12075TIP3    H236165   0.605   2.794   1.300 -0.0712 -1.0926 -1.2119
12076TIP3   OH236166   1.782   7.355   5.750 -0.0959  0.2074  0.5556
12076TIP3    H136167   1.730   7.313   5.681  0.6499  0.6593 -0.2985
12076TIP3    H236168   1.770   7.449   5.736 -1.2052  0.2898  2.0297
12077TIP3   OH236169   2.252   6.485   4.830  0.1846  0.0521 -0.3876
12077TIP3    H136170   2.205   6.442   4.758  0.0123 -0.7157  0.1827
12077TIP3    H236171   2.226   6.577   4.824  1.2686  0.2674 -2.1882
12078TIP3   OH236172   2.448   2.934   0.723 -0.0877  0.1380  0.1369
12078TIP3    H136173   2.478   2.850   0.760 -1.5484 -0.5557 -0.2243
12078TIP3    H236174   2.434   2.916   0.630  0.2720  0.9835 -0.0852
12079TIP3   OH236175   4.555   0.405   4.968  0.2939  0.7442  0.1530
12079TIP3    H136176   4.527   0.412   5.059  0.1929  1.6203  0.0632
12079TIP3    H236177   4.619   0.334   4.967  0.0704  0.5363  0.8526
12080TIP3   OH236178   7.452   4.708   0.135 -0.4353  0.2818  0.7087
12080TIP3    H136179   7.461   4.787   0.188 -0.3791  0.6160  0.2022
12080TIP3    H236180   7.540   4.692   0.100 -1.1853  2.0886 -2.1694
12081TIP3   OH236181   7.699   1.383   0.226  0.5112 -0.0910  0.5448
12081TIP3    H136182   7.655   1.314   0.277 -0.0039 -0.4744 -0.3987
12081TIP3    H236183   7.756   1.335   0.166 -1.4124  0.1741 -1.5729
12082TIP3   OH236184   2.804   4.539   3.735 -0.0846  0.1348 -0.0348
12082TIP3    H136185   2.843   4.456   3.709 -1.1226 -0.2135 -0.4903
12082TIP3    H236186   2.714   4.536   3.701  0.2107  1.9087 -1.0511
12083TIP3   OH236187   2.131   5.846   2.853  0.0930  0.1969 -0.1709
12083TIP3    H136188   2.047   5.823   2.894  0.5084 -1.4776 -0.2072
12083TIP3    H236189   2.185   5.878   2.925 -0.6939  1.6846 -0.2131
12084TIP3   OH236190   2.595   7.499   4.171  0.1838 -0.2055 -0.2339
12084TIP3    H136191   2.526   7.564   4.158 -0.3605 -0.8779 -0.7776
12084TIP3    H236192   2.555   7.417   4.142  0.9334 -0.7408  0.2630
12085TIP3   OH236193   7.984   1.825   0.560 -0.3688  0.3668 -0.1113
12085TIP3    H136194   8.031   1.902   0.528  1.7186 -1.6193 -1.9832
12085TIP3    H236195   7.923   1.802   0.489 -0.2968 -0.2656  0.0263
12086TIP3   OH236196   3.320   7.653   5.244  0.4312 -0.2842 -0.5013
12086TIP3    H136197   3.415   7.662   5.237  0.7609 -2.3011  0.9911
12086TIP3    H236198   3.303   7.561   5.223 -1.3176  0.3039 -1.8060
12087TIP3   OH236199   3.787   5.877   5.944 -0.3557  0.1063  0.0905
12087TIP3    H136200   3.732   5.832   5.879 -1.2882 -1.3294  1.8138
12087TIP3    H236201   3.744   5.962   5.956 -2.1537 -0.9479  1.3169
12088TIP3   OH236202   0.223   3.425   0.221 -0.4976  0.3429  0.1336
12088TIP3    H136203   0.136   3.404   0.189  1.1522 -2.6277 -2.7547
12088TIP3    H236204   0.253   3.497   0.166  0.2655 -1.1922 -1.5360
12089TIP3   OH236205   1.423   4.273   0.162  0.2284 -0.3637  0.6563
12089TIP3    H136206   1.344   4.242   0.207  0.6669 -1.2770  0.8062
12089TIP3    H236207   1.412   4.244   0.072 -0.1486  0.5277  0.4159
12090TIP3   OH236208   3.298   7.223   4.364  0.5925  0.5179 -0.8222
12090TIP3    H136209   3.276   7.204   4.456  2.9464 -1.4867 -0.6414
12090TIP3    H236210   3.231   7.178   4.313  0.9538 -0.7878 -0.1511
12091TIP3   OH236211   4.863   7.556   5.756  0.1937 -0.3928  0.2577
12091TIP3    H136212   4.922   7.631   5.752  2.0442 -1.8696 -1.1054
12091TIP3    H236213   4.905   7.495   5.816 -1.2484 -0.4075  1.2922
12092TIP3   OH236214   7.112   2.859   0.095  0.1398 -0.5254 -0.6366
12092TIP3    H136215   7.180   2.927   0.095 -0.0346 -0.3524 -0.3908
12092TIP3    H236216   7.034   2.903   0.062  0.3016 -0.8842 -1.5366
12093TIP3   OH236217   0.252   5.614   5.323  0.1750 -0.2868  0.0221
12093TIP3    H136218   0.246   5.552   5.396  0.9295 -0.2984  0.0825
12093TIP3    H236219   0.205   5.691   5.354 -0.3995 -0.6743  0.1155
12094TIP3   OH236220   7.233   1.071   0.505 -0.0598  0.5054  0.3132
12094TIP3    H136221   7.264   1.021   0.580 -0.4147  1.1456  0.9016
12094TIP3    H236222   7.250   1.163   0.530 -1.0610  0.7713  0.0216
12095TIP3   OH236223   0.308   0.692   0.027 -0.2936 -0.2432  0.0884
12095TIP3    H136224   0.307   0.766  -0.034  0.6276 -1.1594 -1.0895
12095TIP3    H236225   0.393   0.699   0.071  0.6618 -1.6754 -1.4498
12096TIP3   OH236226   2.314   3.789   5.528  0.0043 -0.2950 -0.9803
12096TIP3    H136227   2.384   3.756   5.585  0.7819 -0.5176 -2.0472
12096TIP3    H236228   2.256   3.836   5.587  1.0002 -0.1985 -0.0559
12097TIP3   OH236229   0.110   1.774  -0.036  0.5597 -0.3597  0.0136
12097TIP3    H136230   0.058   1.800   0.040 -0.3887 -0.4234 -0.5992
12097TIP3    H236231   0.180   1.720  -0.000 -0.8538 -1.8157  0.6785
12098TIP3   OH236232   1.948   5.522   5.171 -0.8784 -0.6480 -0.3876
12098TIP3    H136233   1.912   5.571   5.097  2.0039  0.7907 -0.9322
12098TIP3    H236234   1.959   5.433   5.137 -0.1552 -0.1454 -1.5116
12099TIP3   OH236235   3.302   6.401   6.082 -0.0826 -0.2059  0.1679
12099TIP3    H136236   3.383   6.453   6.074 -0.7426  0.9437  0.8178
12099TIP3    H236237   3.236   6.454   6.037 -0.1995 -1.8066 -1.5869
12100TIP3   OH236238   3.370   6.178   5.797  0.1907  0.1056 -0.3606
12100TIP3    H136239   3.280   6.179   5.765 -1.1283 -1.0649  3.1013
12100TIP3    H236240   3.395   6.271   5.801 -1.7807  0.6040  1.0477
12101TIP3   OH236241   3.126   6.214   6.174  0.0348 -0.3124  0.4204
12101TIP3    H136242   3.187   6.278   6.138 -0.5354  0.2250  0.3992
12101TIP3    H236243   3.157   6.198   6.263  0.0983  0.0941  0.4711
12102TIP3   OH236244   6.912   3.046   0.025 -0.0237  0.1116 -0.2083
12102TIP3    H136245   6.827   3.079   0.052 -0.8430 -0.8397 -1.5666
12102TIP3    H236246   6.969   3.124   0.023 -0.4859  0.5284  2.0345
12103TIP3   OH236247   7.043   2.292   1.715 -0.1445 -0.2750 -0.1094
12103TIP3    H136248   6.995   2.370   1.687  0.7713  1.0185  1.7773
12103TIP3    H236249   7.022   2.284   1.808  2.8678  0.0348  0.6433
12104TIP3   OH236250   0.943   6.225   5.997  0.2049  0.5234 -0.3639
12104TIP3    H136251   0.999   6.244   6.073  0.2426 -0.6666 -0.0768
12104TIP3    H236252   0.999   6.173   5.939 -0.9387 -1.6761  0.4535
12105TIP3   OH236253   0.052   5.189   5.359  0.0088 -0.1073  0.0684
12105TIP3    H136254   0.122   5.199   5.424 -0.4289 -1.5374  0.7763
12105TIP3    H236255   0.092   5.214   5.276  1.2414 -0.5443  0.5291
12106TIP3   OH236256   3.205   6.439   4.355 -0.0471 -0.0589 -0.1108
12106TIP3    H136257   3.267   6.479   4.295  0.0627 -0.8221 -0.5184
12106TIP3    H236258   3.259   6.409   4.429 -0.4302  2.6412  1.3419
12107TIP3   OH236259   1.336   4.334   3.547  0.5283  0.1137 -0.7974
12107TIP3    H136260   1.330   4.422   3.585  1.0951 -0.0856 -0.2375
12107TIP3    H236261   1.412   4.295   3.590  0.3441 -0.6095 -1.1299
12108TIP3   OH236262   2.721   2.738   1.185  0.3064  0.5552  0.0330
12108TIP3    H136263   2.643   2.695   1.220  0.0714 -0.0628 -1.2218
12108TIP3    H236264   2.787   2.727   1.254 -0.6782  1.0322  1.0772
12109TIP3   OH236265   7.359   4.397   0.150  0.1180 -0.0779  0.2376
12109TIP3    H136266   7.332   4.458   0.218  0.0651 -0.9718  1.0285
12109TIP3    H236267   7.302   4.321   0.161  0.1935 -0.2877 -0.7255
12110TIP3   OH236268   7.879   4.168   0.406  0.4758 -0.1745  0.2236
12110TIP3    H136269   7.830   4.136   0.482 -1.2669 -1.0129 -1.2216
12110TIP3    H236270   7.955   4.111   0.401  1.5998  1.0419  2.4050
12111TIP3   OH236271   3.806   6.245   6.243  0.5133  0.3229  0.2835
12111TIP3    H136272   3.756   6.277   6.317 -1.4144  0.9636 -1.2584
12111TIP3    H236273   3.864   6.178   6.280 -0.1046  0.9325  2.4044
12112TIP3   OH236274   6.877   0.610   1.396  0.3384  0.0494  0.1649
12112TIP3    H136275   6.878   0.704   1.414 -1.9622 -0.2755  2.3201
12112TIP3    H236276   6.949   0.597   1.334  0.8863  3.1666  0.0351
12113TIP3   OH236277   1.346   7.205   6.279 -0.0289 -0.2743 -0.0374
12113TIP3    H136278   1.350   7.284   6.332  1.3680  0.8000 -1.7027
12113TIP3    H236279   1.357   7.235   6.189  0.0005 -2.2984 -0.7448
12114TIP3   OH236280   1.440   4.810   0.835  0.2428 -0.5749 -0.0979
12114TIP3    H136281   1.389   4.808   0.754  1.1179 -0.5082 -0.6519
12114TIP3    H236282   1.388   4.864   0.895 -0.4024 -0.6225 -0.6120
12115TIP3   OH236283   7.420   1.037   0.189 -0.6103  0.0423 -0.3998
12115TIP3    H136284   7.497   1.013   0.138 -0.2735 -0.2048  0.2170
12115TIP3    H236285   7.347   1.028   0.128 -0.1279  0.4893 -1.0459
12116TIP3   OH236286   3.039   5.092   4.808  0.5220 -0.1427 -0.0394
12116TIP3    H136287   3.090   5.168   4.836 -1.5388 -0.0748  3.9874
12116TIP3    H236288   3.075   5.019   4.859  0.5501 -1.2834 -1.6560
12117TIP3   OH236289   2.824   6.207   5.300 -0.7295 -0.4846  0.1864
12117TIP3    H136290   2.789   6.218   5.388 -0.4996 -1.6215  0.4243
12117TIP3    H236291   2.790   6.122   5.271  0.0515 -0.5981 -0.4124
12118TIP3   OH236292   7.444   3.029   1.804 -0.1334 -0.4954  0.3202
12118TIP3    H136293   7.358   3.046   1.842 -1.5554 -0.5733 -2.7171
12118TIP3    H236294   7.482   3.116   1.790 -0.8337 -0.3545 -0.7505
12119TIP3   OH236295   2.136   6.051   5.156  0.1264  0.6439  0.0384
12119TIP3    H136296   2.208   6.037   5.217  0.4090  1.5709 -0.0797
12119TIP3    H236297   2.117   5.964   5.121 -0.0520  0.0903  1.4606
12120TIP3   OH236298   5.959   1.882   5.301  0.0418 -0.2308 -0.3286
12120TIP3    H136299   5.995   1.826   5.370  0.9628  0.3561 -0.3273
12120TIP3    H236300   5.874   1.911   5.335 -0.7671 -2.1889 -0.6296
12121TIP3   OH236301   0.999   5.192   4.960  0.1049  0.3468 -0.1590
12121TIP3    H136302   1.047   5.206   4.879 -1.0115  0.9911 -0.7106
12121TIP3    H236303   1.067   5.187   5.028  1.0089  0.1409 -1.0791
12122TIP3   OH236304   2.860   6.589   4.375 -0.2056  0.2096  0.3423
12122TIP3    H136305   2.910   6.561   4.452  0.5593  0.4775 -0.0454
12122TIP3    H236306   2.800   6.517   4.358 -0.0458 -0.0603  0.9037
12123TIP3   OH236307   0.776   5.300   5.614  0.2999 -0.4039 -0.1171
12123TIP3    H136308   0.856   5.280   5.662 -0.7914 -1.5953  1.2525
12123TIP3    H236309   0.723   5.350   5.676  0.1106  0.6960 -1.1414
12124TIP3   OH236310   6.464   1.615   0.856  0.2709  0.0709  0.0884
12124TIP3    H136311   6.418   1.692   0.824 -0.9750 -0.0569  1.5197
12124TIP3    H236312   6.398   1.546   0.857  1.3770 -1.0452 -1.2004
12125TIP3   OH236313   1.640   5.947   3.457 -0.1125 -0.1871 -0.1680
12125TIP3    H136314   1.565   5.999   3.488 -0.3758  1.0162 -2.6834
12125TIP3    H236315   1.601   5.869   3.419  0.0712 -0.6561  0.6000
12126TIP3   OH236316   2.155   5.179   5.625 -0.6161 -0.1758 -0.1747
12126TIP3    H136317   2.138   5.215   5.538  1.5739  2.2082  0.3437
12126TIP3    H236318   2.182   5.088   5.608  0.7835  0.5586 -2.1029
12127TIP3   OH236319   1.514   1.336   3.034  0.5536  0.1489 -0.1930
12127TIP3    H136320   1.536   1.271   3.101 -0.5951 -0.2197 -0.1559
12127TIP3    H236321   1.587   1.331   2.971  1.2228 -0.0904  0.5898
12128TIP3   OH236322   0.295   3.084   1.533  0.5275 -0.6534 -0.1970
12128TIP3    H136323   0.274   3.010   1.590  2.5630 -1.7044 -0.7661
12128TIP3    H236324   0.285   3.161   1.589 -1.5751 -1.3393  0.4031
12129TIP3   OH236325   4.146   0.642   4.935 -0.0563 -0.1001  0.1110
12129TIP3    H136326   4.060   0.676   4.963  0.0701  0.2211  0.1093
12129TIP3    H236327   4.132   0.616   4.844  0.1989  1.1640 -0.2860
12130TIP3   OH236328   1.822   6.229   5.448 -0.2875  0.0627 -0.3342
12130TIP3    H136329   1.808   6.145   5.404  1.7856 -0.1316 -0.6514
12130TIP3    H236330   1.840   6.206   5.540  0.4501  0.1360 -0.4555
12131TIP3   OH236331   6.932   0.217   5.385  0.2420 -0.3174 -0.3807
12131TIP3    H136332   6.861   0.169   5.427 -0.8152  0.4424 -1.2560
12131TIP3    H236333   7.008   0.159   5.389  0.1360 -0.2996  2.4498
12132TIP3   OH236334   2.586   6.111   6.568 -0.0623 -0.4614 -0.5009
12132TIP3    H136335   2.542   6.129   6.485 -0.4112  0.3387 -0.1465
12132TIP3    H236336   2.518   6.126   6.634  0.6423  0.4106  0.0283
12133TIP3   OH236337   0.142   5.479   6.564  0.4629  0.1353  0.5230
12133TIP3    H136338   0.160   5.572   6.552  2.0277 -0.0362  1.4118
12133TIP3    H236339   0.046   5.472   6.560  0.4185  1.4307 -1.9208
12134TIP3   OH236340   1.847   7.266   4.778 -0.2834 -0.3466 -0.0428
12134TIP3    H136341   1.771   7.286   4.833  0.0163 -0.6339  0.4831
12134TIP3    H236342   1.922   7.275   4.837  0.0099 -1.0675 -0.2967
12135TIP3   OH236343   2.532   5.716   4.912 -0.0645 -0.6626  0.0179
12135TIP3    H136344   2.534   5.791   4.971 -0.2597 -2.0302  1.8353
12135TIP3    H236345   2.439   5.703   4.893 -0.2065 -1.5348  1.2063
12136TIP3   OH236346   8.226   3.760   0.053  0.9336 -0.1784 -0.1777
12136TIP3    H136347   8.226   3.791   0.143  1.9258 -2.1660  0.5377
12136TIP3    H236348   8.284   3.684   0.053  1.5811  0.2486 -2.6582
12137TIP3   OH236349   2.252   6.732   5.460  0.5372  0.1275 -0.6273
12137TIP3    H136350   2.313   6.696   5.524 -0.9272  0.5854  1.0697
12137TIP3    H236351   2.196   6.658   5.436  2.1257 -0.4571 -2.6836
12138TIP3   OH236352   6.145   0.078   6.922 -0.5018  0.0906 -0.2389
12138TIP3    H136353   6.218   0.132   6.954  0.6536 -1.7163  0.2535
12138TIP3    H236354   6.180   0.036   6.843 -1.1864 -0.4084 -0.2758
12139TIP3   OH236355   3.157   5.278   4.977 -0.2644 -0.1601 -0.1701
12139TIP3    H136356   3.110   5.359   4.958 -1.1200 -0.9892 -1.6471
12139TIP3    H236357   3.244   5.307   5.004 -0.8813  1.2818  0.3121
12140TIP3   OH236358   6.309   0.225   5.002 -0.3903  0.2293 -0.3309
12140TIP3    H136359   6.247   0.298   4.997 -0.8731 -0.1445  0.1372
12140TIP3    H236360   6.256   0.151   5.031 -0.2989 -0.7921 -2.7235
12141TIP3   OH236361   3.020   6.670   3.298  0.3861 -0.5894  0.4418
12141TIP3    H136362   3.007   6.591   3.350 -0.6224 -0.3721  0.5309
12141TIP3    H236363   3.042   6.738   3.363  3.2537 -1.1958  0.1978
12142TIP3   OH236364   7.169   2.611   0.176 -0.5581  0.3267  0.5255
12142TIP3    H136365   7.117   2.578   0.102 -0.1241  0.0829  0.3238
12142TIP3    H236366   7.143   2.702   0.184 -1.8030 -0.0672  1.1190
12143TIP3   OH236367   4.979   3.793   6.313 -0.3936 -0.3426 -0.2930
12143TIP3    H136368   4.911   3.736   6.277 -1.1681  0.3382  0.1009
12143TIP3    H236369   4.932   3.866   6.352  0.4942 -0.5088  1.1221
12144TIP3   OH236370   2.820   7.696   4.452  0.0722  0.2090 -0.0787
12144TIP3    H136371   2.809   7.606   4.420  0.8939 -0.3744  1.2153
12144TIP3    H236372   2.903   7.694   4.499  0.0173  1.6227  0.0967
12145TIP3   OH236373   1.672   7.413   4.997 -0.1350 -0.4858 -0.0664
12145TIP3    H136374   1.753   7.407   5.047 -0.6512  1.8076  1.1283
12145TIP3    H236375   1.603   7.387   5.058 -0.3742 -1.9242 -0.9220
12146TIP3   OH236376   5.800   0.422   6.135  0.2174 -0.2140  0.0062
12146TIP3    H136377   5.739   0.480   6.088 -0.5545 -0.3995  0.7611
12146TIP3    H236378   5.799   0.454   6.225  1.2905 -0.1891  0.0107
12147TIP3   OH236379   6.949   2.208   2.379 -0.2013  0.0394  0.1256
12147TIP3    H136380   7.000   2.162   2.312 -0.2932  0.6067 -0.3495
12147TIP3    H236381   6.858   2.184   2.360 -0.2057  0.0117  0.1866
12148TIP3   OH236382   7.835   1.205   0.054  0.4450 -0.6297  0.2351
12148TIP3    H136383   7.910   1.146   0.063  0.1342 -0.9374  0.9327
12148TIP3    H236384   7.841   1.239  -0.035 -0.1178 -2.7656 -0.6616
12149TIP3   OH236385   4.463   6.857   5.723  0.0125 -0.1810 -0.2107
12149TIP3    H136386   4.479   6.951   5.715 -0.9157  0.0762  0.8956
12149TIP3    H236387   4.368   6.850   5.729  0.1211 -1.1405  0.3791
12150TIP3   OH236388   8.474   0.492   1.010  0.0155  0.8647 -0.1051
12150TIP3    H136389   8.388   0.488   0.968 -0.8349  1.8049  1.4992
12150TIP3    H236390   8.514   0.572   0.976  0.0779  0.6608 -0.5123
12151TIP3   OH236391   2.658   7.621   5.907 -0.4673  0.2639  0.5693
12151TIP3    H136392   2.690   7.551   5.965 -1.5306  0.3159  1.2301
12151TIP3    H236393   2.626   7.688   5.967 -1.2637  0.4678 -0.0834
12152TIP3   OH236394   1.014   6.485   5.278  0.8945  0.2555 -0.0381
12152TIP3    H136395   0.931   6.437   5.274  1.6249 -1.0228 -0.4027
12152TIP3    H236396   1.062   6.455   5.200  1.5605  1.2264  0.0005
12153TIP3   OH236397   2.071   7.346   4.976 -0.0932  0.0277  0.3090
12153TIP3    H136398   2.163   7.327   4.995 -0.3573 -0.6920  0.8925
12153TIP3    H236399   2.035   7.375   5.059 -0.9397 -1.8598  0.6055
12154TIP3   OH236400   2.419   3.040   6.303 -0.0758  0.1736  0.1981
12154TIP3    H136401   2.469   2.958   6.306 -1.1916 -0.5526 -0.7520
12154TIP3    H236402   2.469   3.097   6.244  0.6392  0.1530  0.7711
12155TIP3   OH236403   0.085   4.276   5.841 -0.1368 -0.1395 -0.2381
12155TIP3    H136404   0.025   4.207   5.870 -0.6654 -0.3649 -1.8496
12155TIP3    H236405   0.067   4.350   5.899 -0.8156 -0.7620  0.3409
12156TIP3   OH236406   2.356   6.179   6.730  0.0520 -0.1571 -0.4119
12156TIP3    H136407   2.340   6.271   6.712  1.2549  0.1753  0.1103
12156TIP3    H236408   2.393   6.178   6.819 -0.0196 -1.1376 -0.3852
12157TIP3   OH236409   1.169   7.660   5.402 -0.3201  0.3090 -0.2100
12157TIP3    H136410   1.108   7.703   5.342  0.2392  2.2534  0.5484
12157TIP3    H236411   1.128   7.577   5.424 -1.8071  0.7728 -1.1786
12158TIP3   OH236412   2.308   4.651   3.778  0.2770 -0.2567  0.1888
12158TIP3    H136413   2.259   4.649   3.695 -0.0557 -0.8195  0.3949
12158TIP3    H236414   2.245   4.621   3.844  0.3058  0.9368  0.7756
12159TIP3   OH236415   7.852   3.207   0.635 -0.0752 -0.3155 -0.5253
12159TIP3    H136416   7.809   3.280   0.590 -2.7869 -0.9026  0.9956
12159TIP3    H236417   7.822   3.129   0.586 -0.5775 -0.7140  0.4074
12160TIP3   OH236418   1.905   5.892   6.327 -0.6138 -0.2171  0.0823
12160TIP3    H136419   1.813   5.868   6.325 -1.2806  2.0856  1.3482
12160TIP3    H236420   1.926   5.900   6.421  0.7039 -0.1166 -0.2074
12161TIP3   OH236421   0.987   5.682   6.761  0.0571  0.2529 -0.3859
12161TIP3    H136422   0.907   5.647   6.801  0.1501  0.0131 -0.4135
12161TIP3    H236423   0.955   5.737   6.690 -0.1490  1.3907  0.5643
12162TIP3   OH236424   7.510   2.882   2.041 -0.1341 -0.2723  0.0528
12162TIP3    H136425   7.496   2.950   1.975  1.3963 -1.3551 -1.4242
12162TIP3    H236426   7.441   2.818   2.023  0.4325 -0.6842 -0.6500
12163TIP3   OH236427   0.594   4.974   0.651 -0.9808  0.3402  0.6325
12163TIP3    H136428   0.607   4.889   0.609  1.0645  1.8105 -1.8710
12163TIP3    H236429   0.500   4.988   0.649 -1.2177 -1.2919 -0.0992
12164TIP3   OH236430   2.152   5.135   4.440  0.7898 -0.1251 -0.1947
12164TIP3    H136431   2.157   5.195   4.365 -0.0173 -1.4034 -1.2902
12164TIP3    H236432   2.067   5.092   4.430  1.2305 -1.2264  0.7525
12165TIP3   OH236433   7.416   3.030   0.116  0.0980 -0.2935 -0.3439
12165TIP3    H136434   7.441   3.046   0.208  0.9034 -0.4753 -0.5255
12165TIP3    H236435   7.500   3.019   0.071 -0.3381 -2.0999 -0.7594
12166TIP3   OH236436   7.218   4.136   0.235  0.1637 -0.2156  0.4525
12166TIP3    H136437   7.151   4.184   0.284  0.0228 -0.7927  0.8196
12166TIP3    H236438   7.173   4.058   0.203  0.4548 -0.2147  0.0292
12167TIP3   OH236439   2.572   6.575   5.481  0.2136 -0.4685 -0.2611
12167TIP3    H136440   2.642   6.607   5.537  0.7572  1.3216 -1.9023
12167TIP3    H236441   2.513   6.529   5.540  1.2928  0.4720  1.5913
12168TIP3   OH236442   8.482   0.955   0.862 -0.4952 -0.0925  0.0953
12168TIP3    H136443   8.426   0.954   0.940 -1.9349  3.8598 -0.7855
12168TIP3    H236444   8.423   0.938   0.789 -0.1274  1.6309 -0.6191
12169TIP3   OH236445   0.269   1.800   0.225  0.3655  0.3802  0.1241
12169TIP3    H136446   0.269   1.896   0.228 -0.8759  0.4303 -0.8605
12169TIP3    H236447   0.199   1.775   0.286 -2.0747  0.2767 -2.5902
12170TIP3   OH236448   8.243   6.259   6.490  0.0509  0.3504 -0.7095
12170TIP3    H136449   8.262   6.349   6.514  1.9583 -0.1270 -0.3719
12170TIP3    H236450   8.311   6.236   6.427  0.1448 -1.1557 -0.0808
12171TIP3   OH236451   1.659   7.768   6.222  0.4526 -0.0079  0.0748
12171TIP3    H136452   1.684   7.836   6.159 -1.2090 -0.0276 -0.6549
12171TIP3    H236453   1.631   7.694   6.168  0.5437 -0.6175  0.8500
12172TIP3   OH236454   7.305   2.318   2.406  0.4767  0.5785  0.0938
12172TIP3    H136455   7.224   2.354   2.371 -1.0797 -2.4004  0.4869
12172TIP3    H236456   7.295   2.325   2.501  0.8561  0.5380  0.1367
12173TIP3   OH236457   1.736   6.793   4.742 -0.0513 -0.4847 -0.7276
12173TIP3    H136458   1.775   6.712   4.773  0.9785 -0.5335 -2.1186
12173TIP3    H236459   1.783   6.862   4.789  0.7740 -0.5986 -1.3837
12174TIP3   OH236460   8.508   0.235   0.637 -0.0328  0.3704 -0.2133
12174TIP3    H136461   8.541   0.260   0.724  2.7855 -0.7514 -0.9101
12174TIP3    H236462   8.439   0.172   0.655 -1.1916  1.9962  1.2735
12175TIP3   OH236463   1.478   5.496   4.982  0.0010  0.2643 -0.0639
12175TIP3    H136464   1.536   5.504   4.905  0.6481  2.9319  0.6283
12175TIP3    H236465   1.477   5.584   5.019 -0.5812 -0.9151  2.8059
12176TIP3   OH236466   8.098   1.391   0.194 -0.5285 -0.4240 -0.1643
12176TIP3    H136467   8.060   1.383   0.281  0.1894  1.8845  0.3767
12176TIP3    H236468   8.182   1.433   0.208  0.0966 -1.0660 -1.8677
12177TIP3   OH236469   2.331   7.267   5.027 -0.4741 -0.1641  0.3211
12177TIP3    H136470   2.386   7.291   4.953 -1.6403  0.2888 -0.4029
12177TIP3    H236471   2.385   7.287   5.104  0.9506 -1.1581 -0.3912
12178TIP3   OH236472   1.385   4.998   6.664  0.5858 -0.4358 -0.7495
12178TIP3    H136473   1.405   4.929   6.601 -0.3774 -1.5632  0.1507
12178TIP3    H236474   1.317   4.960   6.720  0.1164  1.2069 -0.1772
12179TIP3   OH236475   6.990   0.655   1.864  0.6609  0.2426 -0.3250
12179TIP3    H136476   7.043   0.685   1.938  0.7811 -0.9288  0.0671
12179TIP3    H236477   7.055   0.637   1.795  0.6253  0.4195 -0.4059
12180TIP3   OH236478   8.134   3.695   0.501  0.0579 -0.6525  0.2875
12180TIP3    H136479   8.088   3.765   0.546  1.3056 -0.0694  0.6797
12180TIP3    H236480   8.066   3.631   0.480 -0.8232 -0.0886  1.3765
12181TIP3   OH236481   1.347   6.426   6.281  0.0237  0.0228 -0.0760
12181TIP3    H136482   1.367   6.471   6.199  1.4075 -1.3778 -0.5199
12181TIP3    H236483   1.400   6.472   6.346 -0.0833  0.3012 -0.1826
12182TIP3   OH236484   8.176   0.843   0.377 -0.0500  0.2800 -0.1576
12182TIP3    H136485   8.227   0.831   0.297  1.4978 -0.1708  0.8654
12182TIP3    H236486   8.114   0.912   0.355  0.3167  0.1384 -1.7569
12183TIP3   OH236487   7.496   3.652   3.072 -0.0731 -0.6988  0.0833
12183TIP3    H136488   7.537   3.704   3.004 -0.9142 -1.5263 -1.0750
12183TIP3    H236489   7.544   3.569   3.071 -0.8752 -1.1599 -0.3372
12184TIP3   OH236490   6.943   0.783   0.149  0.2100 -0.0323  0.3234
12184TIP3    H136491   6.857   0.771   0.190 -0.6764 -0.1011 -1.4947
12184TIP3    H236492   6.989   0.844   0.207 -0.8147 -0.5079  1.6645
12185TIP3   OH236493   3.462   5.165   5.267  0.3510 -0.3891 -0.2169
12185TIP3    H136494   3.509   5.138   5.189 -1.2483  2.0278 -2.0794
12185TIP3    H236495   3.377   5.120   5.260  0.4056 -0.6006  0.4273
12186TIP3   OH236496   2.117   7.405   6.904  0.0251  0.4618  0.0215
12186TIP3    H136497   2.144   7.412   6.812  0.8442  0.3205  0.2476
12186TIP3    H236498   2.171   7.469   6.950  0.6055 -0.4347  0.6121
12187TIP3   OH236499   2.018   4.644   6.419  0.6736  0.2220  0.0814
12187TIP3    H136500   1.961   4.568   6.404 -0.0215  0.6463  0.5144
12187TIP3    H236501   2.069   4.651   6.338  1.0310 -0.9425  0.1894
12188TIP3   OH236502   8.324   0.733   2.053  0.1096  0.5005  0.3720
12188TIP3    H136503   8.382   0.737   2.129  0.4272  0.2030  0.1470
12188TIP3    H236504   8.302   0.641   2.044 -0.2810  0.5956  0.3702
12189TIP3   OH236505   0.985   0.355   2.270  0.1258  0.0418 -0.3682
12189TIP3    H136506   1.067   0.306   2.276  0.3732  0.3344 -1.4498
12189TIP3    H236507   1.011   0.445   2.254 -0.3220  0.6225  1.9196
12190TIP3   OH236508   0.515   3.463   1.767 -0.0150 -0.2057 -0.0357
12190TIP3    H136509   0.509   3.539   1.710  1.1569  0.5182  0.7831
12190TIP3    H236510   0.605   3.432   1.757 -0.2294 -0.9711  0.2945
12191TIP3   OH236511   5.296   0.674   5.914  0.0301 -0.2023  0.5133
12191TIP3    H136512   5.341   0.757   5.897  0.7112 -0.7720 -0.4759
12191TIP3    H236513   5.320   0.617   5.841 -0.8989 -1.0925  0.8798
12192TIP3   OH236514   1.396   6.979   6.428  0.2756  0.1317 -0.6145
12192TIP3    H136515   1.368   6.970   6.519  0.6791 -0.9173 -0.5800
12192TIP3    H236516   1.393   7.073   6.411 -0.0016  0.3192  0.4176
12193TIP3   OH236517   2.346   7.673   4.849 -0.2593 -0.2038 -0.3493
12193TIP3    H136518   2.364   7.722   4.769 -0.6560  0.4374 -0.0459
12193TIP3    H236519   2.277   7.722   4.893 -1.0484 -1.3187 -0.3012
12194TIP3   OH236520   6.034   2.947   0.003  0.2828  0.2851  0.1924
12194TIP3    H136521   6.057   3.022   0.058 -1.9503 -0.0819  1.7219
12194TIP3    H236522   6.064   2.871   0.052  1.0361  0.0959 -0.5582
12195TIP3   OH236523   3.568   6.498   5.987  0.3164 -0.7245 -0.2196
12195TIP3    H136524   3.551   6.592   5.987 -3.6950 -1.3235 -0.6518
12195TIP3    H236525   3.552   6.472   5.896 -0.1788 -2.0386  0.2349
12196TIP3   OH236526   6.609   0.975   6.891 -0.0817  0.0136  0.0504
12196TIP3    H136527   6.574   0.931   6.813 -1.0040 -0.2975  0.6345
12196TIP3    H236528   6.536   1.025   6.926 -0.4792 -2.0396  2.2917
12197TIP3   OH236529   0.978   1.631   0.841 -0.0635 -0.3327 -0.1583
12197TIP3    H136530   0.905   1.627   0.903  1.0021 -4.1969  1.0473
12197TIP3    H236531   1.049   1.672   0.890 -0.3498  0.1041 -0.1082
12198TIP3   OH236532   4.752   0.406   3.438 -0.4613  0.4794 -0.0163
12198TIP3    H136533   4.751   0.312   3.425  0.4302  0.5730 -0.7858
12198TIP3    H236534   4.823   0.421   3.501 -1.7841  0.4743  1.5271
12199TIP3   OH236535   6.925   0.627   4.448  0.1648 -0.3019 -0.2126
12199TIP3    H136536   6.950   0.619   4.356 -1.4781 -0.9871 -0.6062
12199TIP3    H236537   6.849   0.570   4.458 -1.7808  2.3448  0.7649
12200TIP3   OH236538   2.526   4.696   4.883 -0.0058  0.3354  0.1551
12200TIP3    H136539   2.452   4.750   4.854  0.2306  0.8785  0.5740
12200TIP3    H236540   2.588   4.758   4.921  1.0234 -0.0179 -0.9015
12201TIP3   OH236541   6.476   0.420   4.920  0.5299 -0.0936 -0.5802
12201TIP3    H136542   6.437   0.409   4.832 -0.3076 -0.1720 -0.2086
12201TIP3    H236543   6.402   0.410   4.980  1.2091 -0.6694  0.1729
12202TIP3   OH236544   5.151   7.992   0.070 -0.3776 -0.3213  0.6394
12202TIP3    H136545   5.092   8.057   0.108  0.3880  1.9344 -1.9160
12202TIP3    H236546   5.220   7.981   0.136 -0.6166  1.2869  1.1808
12203TIP3   OH236547   0.201   4.326   5.606 -0.3267  0.9431  0.2533
12203TIP3    H136548   0.162   4.332   5.693  1.0213  0.8403  0.8791
12203TIP3    H236549   0.133   4.286   5.552 -1.1266  0.8876  1.2886
12204TIP3   OH236550   4.259   7.732   6.279  0.0618 -0.0932 -0.2795
12204TIP3    H136551   4.300   7.672   6.217 -0.3788  0.4075 -1.0523
12204TIP3    H236552   4.166   7.732   6.256 -0.0224  0.4835  0.0488
12205TIP3   OH236553   7.807   4.829   5.754 -0.2251  0.3518 -0.1255
12205TIP3    H136554   7.767   4.915   5.750 -0.4680  0.1890 -1.6017
12205TIP3    H236555   7.741   4.772   5.794  0.0658  0.9038  1.1681
12206TIP3   OH236556   2.242   0.890   0.282 -0.2250 -0.2841  0.3209
12206TIP3    H136557   2.234   0.932   0.197  1.4318 -2.6581 -1.0657
12206TIP3    H236558   2.195   0.948   0.342 -1.8374  1.1910 -2.2620
12207TIP3   OH236559   2.476   2.615   1.227  0.0876  0.2730 -0.0370
12207TIP3    H136560   2.380   2.614   1.229  0.0772  1.1161  0.3122
12207TIP3    H236561   2.499   2.578   1.142 -0.6356  2.9512 -1.4449
12208TIP3   OH236562   1.567   7.916   6.523  0.1570  0.1137 -0.3282
12208TIP3    H136563   1.550   7.969   6.445  1.7492 -0.1483 -0.8629
12208TIP3    H236564   1.609   7.976   6.584  0.6572 -0.1578 -0.4008
12209TIP3   OH236565   2.751   6.664   6.920 -0.0973 -0.2010 -0.3397
12209TIP3    H136566   2.784   6.739   6.969 -0.5946  1.3186 -2.2717
12209TIP3    H236567   2.816   6.650   6.851  0.2731 -1.9069  0.3367
12210TIP3   OH236568   2.867   5.358   6.918  0.1283 -0.0552  0.5043
12210TIP3    H136569   2.903   5.410   6.846  0.1171 -2.3502 -1.2000
12210TIP3    H236570   2.772   5.363   6.905  0.1598 -1.7706 -0.6512
12211TIP3   OH236571   4.511   7.328   6.274 -0.4455  0.0723 -0.4497
12211TIP3    H136572   4.462   7.407   6.250 -1.9560 -1.2036 -1.6317
12211TIP3    H236573   4.482   7.309   6.363 -0.9260  0.2075 -0.5750
12212TIP3   OH236574   7.910   2.388   2.356 -0.3007  0.7647 -0.2533
12212TIP3    H136575   7.845   2.319   2.343 -0.1862  0.4235  0.9160
12212TIP3    H236576   7.932   2.417   2.268 -0.5623 -0.4917 -0.7486
12213TIP3   OH236577   1.714   4.180   5.362 -0.4668 -0.2528 -0.0579
12213TIP3    H136578   1.639   4.239   5.372  0.8422  1.3039  0.9475
12213TIP3    H236579   1.709   4.122   5.437 -1.7453 -1.4421 -1.0325
12214TIP3   OH236580   3.264   4.038   5.463 -0.4402  0.0326  0.4039
12214TIP3    H136581   3.255   3.978   5.537  0.2249  0.5819  0.9439
12214TIP3    H236582   3.257   4.125   5.503 -2.4011  0.3092 -0.5048
12215TIP3   OH236583   2.301   7.658   5.986  0.0672  0.3629 -0.1824
12215TIP3    H136584   2.333   7.663   5.896  0.2653  1.8620 -0.0326
12215TIP3    H236585   2.300   7.748   6.017  2.0707 -0.3297  2.0483
12216TIP3   OH236586   3.399   4.825   4.531 -0.0638  0.0088  0.2361
12216TIP3    H136587   3.479   4.785   4.565 -0.4729 -0.3607  0.7737
12216TIP3    H236588   3.358   4.866   4.607 -0.4964  0.0070  0.0058
12217TIP3   OH236589   0.677   2.708   0.042  0.2402 -0.3105  0.1029
12217TIP3    H136590   0.744   2.715   0.110 -0.1106  1.2444  0.3144
12217TIP3    H236591   0.649   2.799   0.027 -2.0465 -0.9683  0.2752
12218TIP3   OH236592   4.080   5.431   4.481 -0.0907  0.5101  0.3780
12218TIP3    H136593   4.142   5.451   4.551 -0.8149  1.2433  0.8130
12218TIP3    H236594   4.015   5.374   4.523  1.0457 -1.4622 -0.4306
12219TIP3   OH236595   1.222   5.441   5.088 -0.1434 -0.9399 -0.1420
12219TIP3    H136596   1.310   5.453   5.053 -0.3065 -0.7625 -0.4936
12219TIP3    H236597   1.223   5.353   5.126  0.3628 -0.7077  0.3925
12220TIP3   OH236598   6.478   0.006   3.293  0.4146  1.6462 -0.5399
12220TIP3    H136599   6.571   0.025   3.281  0.8829 -0.8766 -1.1625
12220TIP3    H236600   6.443  -0.001   3.204  0.4056 -0.8725 -0.3737
12221TIP3   OH236601   7.501   1.515   0.114 -0.0460 -0.2899 -0.3194
12221TIP3    H136602   7.579   1.478   0.154 -0.3301 -0.0337  0.4793
12221TIP3    H236603   7.430   1.459   0.144 -0.1041 -0.8712 -1.5079
12222TIP3   OH236604   7.102   2.763   1.469 -0.4641 -0.4097  0.0275
12222TIP3    H136605   7.062   2.713   1.398  0.2134  0.1150 -0.7401
12222TIP3    H236606   7.121   2.698   1.537  0.3158 -1.1903 -0.9177
12223TIP3   OH236607   7.373   1.838   0.616  0.1454 -0.4081  0.6247
12223TIP3    H136608   7.308   1.802   0.677  1.5488 -1.8841  1.2822
12223TIP3    H236609   7.433   1.888   0.671  1.6441 -2.0707  0.5402
12224TIP3   OH236610   0.666   5.395   1.177 -0.5861  0.0052  0.0331
12224TIP3    H136611   0.573   5.414   1.164 -0.2731  1.9170  0.3080
12224TIP3    H236612   0.702   5.385   1.089 -0.7925  0.7062 -0.1344
12225TIP3   OH236613   0.373   3.470   0.902 -0.3378 -0.1219  0.2425
12225TIP3    H136614   0.437   3.494   0.835 -1.8597 -0.3443 -1.3294
12225TIP3    H236615   0.381   3.537   0.969 -0.0739  1.1658 -1.0639
12226TIP3   OH236616   5.586   4.390   6.861  0.3732  0.1685  0.4433
12226TIP3    H136617   5.529   4.398   6.784  1.5137  2.8138 -0.1964
12226TIP3    H236618   5.531   4.418   6.934 -0.4432 -1.4964  0.4918
12227TIP3   OH236619   4.229   1.113   4.889  0.1493  0.0353 -0.5514
12227TIP3    H136620   4.302   1.173   4.877 -0.9174  1.4068 -0.4049
12227TIP3    H236621   4.160   1.147   4.832 -0.0531 -1.7978 -1.4181
12228TIP3   OH236622   2.365   5.909   4.772  0.2705 -0.0207  0.4922
12228TIP3    H136623   2.373   6.004   4.784  1.4911 -0.0813  0.2511
12228TIP3    H236624   2.455   5.880   4.755 -0.2927 -1.0164 -0.8672
12229TIP3   OH236625   4.332   7.620   5.830  0.7449 -0.1096  0.3004
12229TIP3    H136626   4.315   7.592   5.741 -0.3342  2.2729 -0.2929
12229TIP3    H236627   4.333   7.716   5.825  1.9584  0.0307  2.6021
12230TIP3   OH236628   3.153   6.489   5.354 -0.5836  0.5721 -0.8191
12230TIP3    H136629   3.246   6.504   5.367 -0.4781  0.8725 -1.9393
12230TIP3    H236630   3.137   6.510   5.262 -1.6334 -0.0828 -0.7957
12231TIP3   OH236631   0.707   3.920   1.934  0.0000 -0.2978  0.1491
12231TIP3    H136632   0.664   3.984   1.877  0.7834 -1.1517 -1.4104
12231TIP3    H236633   0.684   3.835   1.897 -0.3798 -0.9199  1.7500
12232TIP3   OH236634   3.942   0.128   6.596  0.6703  0.4974 -0.3047
12232TIP3    H136635   4.035   0.132   6.619  0.7006  1.2484 -0.5491
12232TIP3    H236636   3.931   0.042   6.556  1.4784  0.7911 -1.1810
12233TIP3   OH236637   3.359   4.770   5.768 -0.0077  0.2507  0.1985
12233TIP3    H136638   3.348   4.772   5.863 -2.3797 -0.1259 -0.0336
12233TIP3    H236639   3.270   4.779   5.733  0.9375  1.4461 -2.0071
12234TIP3   OH236640   7.641   2.544   0.136 -0.2746  0.3275  0.2029
12234TIP3    H136641   7.734   2.545   0.113 -0.2631 -0.6709  0.1842
12234TIP3    H236642   7.636   2.493   0.217 -0.9428 -0.6830 -0.4618
12235TIP3   OH236643   2.840   6.512   5.921 -0.2056  0.2735 -0.0077
12235TIP3    H136644   2.789   6.569   5.864 -2.8373 -0.6879  1.3088
12235TIP3    H236645   2.823   6.424   5.887 -1.1573 -0.2381  1.7350
12236TIP3   OH236646   3.237   3.801   5.608 -0.2575  0.4097  0.2044
12236TIP3    H136647   3.327   3.783   5.583 -0.4783  0.9338 -0.9868
12236TIP3    H236648   3.185   3.744   5.551 -0.7213  0.8949  0.1353
12237TIP3   OH236649   2.490   5.335   4.077 -0.3709  0.3329 -0.1871
12237TIP3    H136650   2.578   5.373   4.083 -0.0388 -0.1441 -1.7043
12237TIP3    H236651   2.492   5.259   4.135  0.0143  0.7098  0.2915
12238TIP3   OH236652   2.975   5.559   5.504  0.6396  0.2226 -0.0993
12238TIP3    H136653   3.016   5.509   5.433 -0.1885  0.3022 -0.6458
12238TIP3    H236654   3.003   5.515   5.584  2.1542  0.5517 -0.4341
12239TIP3   OH236655   1.379   6.242   5.242  0.5254 -0.3480 -0.8729
12239TIP3    H136656   1.383   6.324   5.193  0.3235 -0.5888 -1.2960
12239TIP3    H236657   1.418   6.263   5.327 -1.0447  0.6139 -0.3761
12240TIP3   OH236658   1.310   4.434   4.045  0.8371 -0.3914  0.1718
12240TIP3    H136659   1.230   4.424   3.995 -0.4904 -3.1980  2.6989
12240TIP3    H236660   1.380   4.416   3.982 -0.6976 -1.9912 -1.1232
12241TIP3   OH236661   3.320   5.440   6.324 -0.7683  0.9591 -0.3424
12241TIP3    H136662   3.325   5.445   6.228 -1.9321  2.3666 -0.3518
12241TIP3    H236663   3.267   5.362   6.340 -1.1187  1.0824 -0.8674
12242TIP3   OH236664   0.444   4.981   5.160  0.3259  0.4053 -0.3344
12242TIP3    H136665   0.379   4.926   5.203  1.5995 -2.2590 -1.6596
12242TIP3    H236666   0.431   4.964   5.066  3.0656 -0.4083 -0.6139
12243TIP3   OH236667   2.281   5.650   4.600  0.6579 -0.0033  0.1192
12243TIP3    H136668   2.307   5.732   4.642 -2.8518  0.8061  0.8283
12243TIP3    H236669   2.248   5.595   4.671 -0.5082 -0.6164 -0.8768
12244TIP3   OH236670   6.418   3.962   0.082  0.2479  0.0668  0.2488
12244TIP3    H136671   6.482   3.910   0.132  0.4708 -1.0552 -1.1573
12244TIP3    H236672   6.410   3.915  -0.001 -1.5364  0.8665 -0.0373
12245TIP3   OH236673   1.571   4.206   6.444 -0.0643 -0.2355 -0.1314
12245TIP3    H136674   1.659   4.221   6.410  0.2469 -1.3436  0.1690
12245TIP3    H236675   1.522   4.170   6.370 -0.1154 -0.1303 -0.1491
12246TIP3   OH236676   2.854   6.706   3.088 -0.4522  0.2939 -0.8496
12246TIP3    H136677   2.929   6.680   3.142  0.3150  1.1579 -1.4853
12246TIP3    H236678   2.783   6.648   3.116  0.6350 -1.0165 -0.7393
12247TIP3   OH236679   7.504   0.391   0.660 -0.2478 -0.0204 -0.0214
12247TIP3    H136680   7.509   0.295   0.663 -1.8608 -0.1136  0.0762
12247TIP3    H236681   7.591   0.418   0.630 -0.0234 -1.5565 -0.8447
12248TIP3   OH236682   2.645   5.795   5.775 -0.0242  0.4915  0.5053
12248TIP3    H136683   2.634   5.747   5.693  2.1578  2.1774 -0.8522
12248TIP3    H236684   2.704   5.741   5.827 -1.0097 -0.3441  0.7538
12249TIP3   OH236685   1.142   4.876   6.785  0.4254 -0.0097  0.2508
12249TIP3    H136686   1.167   4.798   6.735  2.9383  0.3410  0.9095
12249TIP3    H236687   1.108   4.842   6.867 -2.3360 -0.5327 -1.0493
12250TIP3   OH236688   1.240   7.589   6.649 -0.1050  0.2263  0.4933
12250TIP3    H136689   1.146   7.591   6.629  0.0140  1.3182 -0.0419
12250TIP3    H236690   1.263   7.682   6.659  1.4118  0.1208 -1.7636
12251TIP3   OH236691   7.282   0.459   0.004 -0.2248 -0.1615  0.6093
12251TIP3    H136692   7.314   0.372   0.025 -1.8244 -0.6656  1.0345
12251TIP3    H236693   7.359   0.515   0.012  1.2528 -1.8092 -1.6089
12252TIP3   OH236694   7.844   2.214   0.610  0.0691  0.3304  0.2222
12252TIP3    H136695   7.891   2.266   0.545 -2.8475  4.2077  1.0399
12252TIP3    H236696   7.792   2.152   0.559  0.0998  1.3103 -1.0211
12253TIP3   OH236697   1.635   6.581   5.512  0.0553  0.0532 -0.3205
12253TIP3    H136698   1.717   6.614   5.474  1.2374 -3.8858 -1.4123
12253TIP3    H236699   1.623   6.634   5.591  1.8651  2.9414 -1.8816
12254TIP3   OH236700   5.525   7.325   3.903  0.0833  0.4849  0.0390
12254TIP3    H136701   5.516   7.351   3.995 -0.2129  0.5666 -0.0143
12254TIP3    H236702   5.457   7.259   3.890  1.6091 -1.2099  0.5022
12255TIP3   OH236703   0.397   1.082   6.121 -0.4506  0.0527  0.4997
12255TIP3    H136704   0.470   1.097   6.181  0.8990  2.5983 -1.6476
12255TIP3    H236705   0.320   1.110   6.169  0.3075 -0.2838  1.9252
12256TIP3   OH236706   3.879   7.078   5.352 -0.2976 -0.2274 -0.3436
12256TIP3    H136707   3.798   7.108   5.394 -0.3100 -1.1247  0.2717
12256TIP3    H236708   3.876   7.118   5.264 -1.1692  0.1316 -0.1558
12257TIP3   OH236709   2.428   6.437   6.439 -0.3850 -0.2878  0.4187
12257TIP3    H136710   2.468   6.366   6.389 -1.0365  0.3996 -1.1273
12257TIP3    H236711   2.501   6.474   6.489 -0.0055 -1.9034  1.0867
12258TIP3   OH236712   1.963   3.309   4.322 -0.0269 -0.1417  0.2443
12258TIP3    H136713   1.991   3.228   4.364  3.6646 -0.4604 -2.6010
12258TIP3    H236714   1.884   3.284   4.274  1.4053 -2.2564 -1.1035
12259TIP3   OH236715   4.060   7.208   4.737  0.2503 -0.2466  0.3025
12259TIP3    H136716   4.131   7.145   4.725  1.5270  1.4234 -1.0357
12259TIP3    H236717   4.094   7.290   4.703 -2.6276  0.4003 -1.1416
12260TIP3   OH236718   3.892   7.198   6.111 -0.1276  0.0437  0.2416
12260TIP3    H136719   3.978   7.163   6.087 -0.0651  0.9295 -0.8816
12260TIP3    H236720   3.892   7.198   6.206  1.2315  0.3057  0.2515
12261TIP3   OH236721   5.128   5.839   5.568  0.1210  0.4085  0.1639
12261TIP3    H136722   5.219   5.853   5.593 -0.4069  2.1931  1.1685
12261TIP3    H236723   5.129   5.836   5.472  1.1152  1.1814  0.1555
12262TIP3   OH236724   3.534   1.307   1.800 -0.1329  0.0675  0.2591
12262TIP3    H136725   3.547   1.275   1.889 -3.4993  0.3970  0.9415
12262TIP3    H236726   3.494   1.233   1.754 -3.5293  1.6390  0.5614
12263TIP3   OH236727   0.319   2.072   0.299 -0.3077  0.1729  0.4075
12263TIP3    H136728   0.245   2.041   0.353 -0.3295 -0.7668 -0.1496
12263TIP3    H236729   0.382   2.106   0.363 -0.2915 -1.0261  1.0442
12264TIP3   OH236730   8.095   0.999   2.079  0.1637 -0.3760 -0.3406
12264TIP3    H136731   8.175   0.952   2.057  0.6782  0.7437 -0.8999
12264TIP3    H236732   8.124   1.086   2.104 -0.7970 -0.2843  0.5072
12265TIP3   OH236733   5.688   5.692   5.314  0.0057  0.2978  0.7723
12265TIP3    H136734   5.625   5.759   5.289  0.0668  1.0730  2.5908
12265TIP3    H236735   5.669   5.618   5.257 -0.8313  1.4449 -0.4661
12266TIP3   OH236736   3.425   5.454   4.594 -0.4332  0.2682  0.5035
12266TIP3    H136737   3.365   5.465   4.520 -1.1290 -2.5409  0.5821
12266TIP3    H236738   3.512   5.459   4.554 -0.7842  0.2302 -0.2813
12267TIP3   OH236739   3.092   6.450   6.499  0.0299 -0.2910 -0.1132
12267TIP3    H136740   3.155   6.391   6.541 -1.0660 -0.2873  1.5868
12267TIP3    H236741   3.016   6.395   6.480 -1.0852  0.5483  1.6690
12268TIP3   OH236742   4.260   4.535   2.127 -0.1334 -0.1152  0.0048
12268TIP3    H136743   4.194   4.467   2.140 -1.8085  1.6755  1.1732
12268TIP3    H236744   4.216   4.617   2.150  2.8374  1.0314  2.0409
12269TIP3   OH236745   8.079   0.287   1.394 -0.6795  0.2759 -0.2434
12269TIP3    H136746   8.039   0.342   1.326  0.6488  0.0879 -1.2067
12269TIP3    H236747   8.038   0.201   1.383 -0.6319  0.3059 -0.6690
12270TIP3   OH236748   4.276   7.413   4.579 -0.0344  0.0385  1.0628
12270TIP3    H136749   4.316   7.329   4.560  2.2898  1.8316 -2.4963
12270TIP3    H236750   4.348   7.466   4.614 -0.3164  1.8700 -1.0092
12271TIP3   OH236751   2.355   6.717   6.798 -0.3194  0.5947 -0.0359
12271TIP3    H136752   2.404   6.758   6.727 -0.0932  1.5361  0.6545
12271TIP3    H236753   2.287   6.666   6.753  0.6655  0.0867 -0.9606
12272TIP3   OH236754   3.361   4.115   0.302 -0.0687  0.5815 -0.1463
12272TIP3    H136755   3.379   4.209   0.310 -0.7811  0.7454 -0.4359
12272TIP3    H236756   3.288   4.100   0.363 -1.6860  0.7213 -2.0091
12273TIP3   OH236757   3.135   6.514   4.908  0.1278 -0.0040 -0.3768
12273TIP3    H136758   3.040   6.502   4.913  0.0876  0.8714  1.1011
12273TIP3    H236759   3.171   6.448   4.967  0.3119  1.1932  0.8767
12274TIP3   OH236760   0.930   3.666   0.017  0.5874 -0.1394 -0.0210
12274TIP3    H136761   1.022   3.642   0.024  0.5957 -0.0539  0.1734
12274TIP3    H236762   0.893   3.645   0.103  0.8589  1.6767  0.5666
12275TIP3   OH236763   4.357   7.888   5.829 -0.3063 -0.3591  0.1644
12275TIP3    H136764   4.448   7.880   5.801 -0.0101  1.8156  0.4525
12275TIP3    H236765   4.359   7.952   5.900 -2.1412  0.1867 -0.2511
12276TIP3   OH236766   5.756   6.094   3.253 -0.1089 -0.1237  0.0248
12276TIP3    H136767   5.700   6.071   3.327 -0.7497  2.1089  0.2738
12276TIP3    H236768   5.814   6.018   3.242 -0.9175 -1.0445  1.9322
12277TIP3   OH236769   4.124   4.989   5.655  0.2662  0.0330  0.2006
12277TIP3    H136770   4.039   4.948   5.643  0.7759 -0.8603 -0.4148
12277TIP3    H236771   4.174   4.964   5.578  1.3843 -0.2035  0.9929
12278TIP3   OH236772   3.950   5.039   6.796 -0.1143 -0.5983  0.2765
12278TIP3    H136773   3.902   5.080   6.724 -2.5081 -1.0472  1.5557
12278TIP3    H236774   3.974   4.952   6.763 -0.9087 -0.6720 -0.1219
12279TIP3   OH236775   2.502   4.610   5.413  0.4552  0.2801  0.0601
12279TIP3    H136776   2.539   4.522   5.401  1.2437  0.3612  1.7266
12279TIP3    H236777   2.578   4.667   5.425 -0.1176  0.5429  2.9599
12280TIP3   OH236778   5.168   7.360   6.125 -0.3936  0.3812 -0.4225
12280TIP3    H136779   5.245   7.415   6.137  0.9561 -1.3184 -1.0642
12280TIP3    H236780   5.186   7.282   6.176 -1.0208 -0.6772 -1.7886
12281TIP3   OH236781   7.952   0.381   6.598 -0.2990  0.4989  0.2326
12281TIP3    H136782   7.872   0.355   6.553  0.6938  0.1636 -1.3573
12281TIP3    H236783   8.007   0.302   6.598  0.3589  0.9442  0.6089
12282TIP3   OH236784   3.702   6.038   3.483  0.3607 -0.1318  0.1319
12282TIP3    H136785   3.797   6.024   3.476  0.3942  1.1773 -2.7326
12282TIP3    H236786   3.665   5.950   3.483  1.5560 -0.6464  0.7311
12283TIP3   OH236787   3.598   6.728   4.540  0.3599  0.1926  0.2067
12283TIP3    H136788   3.651   6.654   4.568  0.5875  0.3480  0.1872
12283TIP3    H236789   3.630   6.750   4.453  2.3488  2.2050  1.3683
12284TIP3   OH236790   5.293   4.256   4.984  0.5130  0.0528  0.0854
12284TIP3    H136791   5.332   4.336   5.018  1.4621 -0.2148 -0.3672
12284TIP3    H236792   5.289   4.269   4.890 -1.1788  0.3731  0.1832
12285TIP3   OH236793   1.144   5.300   6.418  0.5225 -0.0378  0.7287
12285TIP3    H136794   1.154   5.356   6.495  2.8702  1.4567 -0.5801
12285TIP3    H236795   1.233   5.286   6.387 -0.2619 -2.0715 -0.7119
12286TIP3   OH236796   5.137   5.333   5.013 -0.0839 -0.4932 -0.2276
12286TIP3    H136797   5.070   5.300   5.073  1.8204 -0.8761  1.7313
12286TIP3    H236798   5.129   5.429   5.018 -0.2158 -0.5331  0.3165
12287TIP3   OH236799   0.171   4.405  -0.023 -0.2717 -0.3757  0.1761
12287TIP3    H136800   0.185   4.431   0.068 -1.5708  0.6508  0.0999
12287TIP3    H236801   0.231   4.331  -0.036  1.2341  0.5949  1.3219
12288TIP3   OH236802   7.150   0.077   3.572  0.6833 -0.3867  0.1570
12288TIP3    H136803   7.069   0.052   3.617  0.6032 -2.0578 -0.8680
12288TIP3    H236804   7.151   0.172   3.575  0.3824 -0.4204  3.1608
12289TIP3   OH236805   4.113   7.710   4.914  0.0705  0.0827 -0.2656
12289TIP3    H136806   4.099   7.626   4.955  0.4388 -0.8602 -1.9971
12289TIP3    H236807   4.039   7.764   4.942 -0.1580 -0.8055  0.8569
12290TIP3   OH236808   7.974   0.162   5.851 -0.1342 -0.1602  0.6101
12290TIP3    H136809   7.923   0.185   5.928  0.6189 -1.3485  1.4841
12290TIP3    H236810   8.017   0.243   5.825 -0.4309  0.2560  1.4059
12291TIP3   OH236811   5.345   5.629   6.856  0.1334 -0.2906 -0.2044
12291TIP3    H136812   5.407   5.697   6.829 -0.2253 -0.2216 -0.8556
12291TIP3    H236813   5.381   5.596   6.939  0.8646 -0.0227 -0.4075
12292TIP3   OH236814   4.993   3.788   4.567 -0.5430 -0.0573 -0.5607
12292TIP3    H136815   5.025   3.821   4.651  1.6403 -0.0818 -1.3599
12292TIP3    H236816   4.983   3.866   4.513 -0.6049 -0.1841 -0.7316
12293TIP3   OH236817   4.131   7.262   4.374  0.0494 -0.6730 -0.0831
12293TIP3    H136818   4.169   7.175   4.363 -0.0217 -0.6977 -0.1284
12293TIP3    H236819   4.196   7.310   4.426 -0.4844 -1.1325  1.0128
12294TIP3   OH236820   7.081   0.154   4.691  0.0064  0.4205  0.5361
12294TIP3    H136821   7.168   0.176   4.656  0.1471  0.7291  1.0755
12294TIP3    H236822   7.091   0.065   4.724  0.2389  0.6041  0.9749
12295TIP3   OH236823   4.229   5.861   5.390  0.0416 -0.5548 -0.2391
12295TIP3    H136824   4.263   5.774   5.369 -0.0469 -0.8138  0.6304
12295TIP3    H236825   4.297   5.922   5.361  0.2452 -0.9341 -0.5592
12296TIP3   OH236826   4.518   7.039   2.996  0.1211 -0.1788 -0.2276
12296TIP3    H136827   4.474   7.109   3.044 -0.8697 -1.2554  0.4656
12296TIP3    H236828   4.452   7.007   2.935  0.3535 -0.9512 -0.0779
12297TIP3   OH236829   3.847   5.405   6.652  0.4899  0.1945  0.3029
12297TIP3    H136830   3.769   5.422   6.703  0.3483  0.6950 -0.0733
12297TIP3    H236831   3.829   5.322   6.607  0.2586  0.2080  0.3701
12298TIP3   OH236832   4.166   5.555   3.630  0.3524 -0.3547  0.0670
12298TIP3    H136833   4.157   5.460   3.638  1.2136 -0.3463  1.2770
12298TIP3    H236834   4.084   5.590   3.666  1.5930 -0.5392  3.2969
12299TIP3   OH236835   4.523   7.316   4.841 -0.5838 -0.4306  0.1567
12299TIP3    H136836   4.518   7.333   4.935 -0.4042 -0.7298  0.2214
12299TIP3    H236837   4.537   7.402   4.801  0.5263 -0.4514  0.4968
12300TIP3   OH236838   2.476   5.891   6.340  0.4531  0.1204  0.0271
12300TIP3    H136839   2.536   5.924   6.274 -0.1183  0.3273 -0.3915
12300TIP3    H236840   2.399   5.948   6.333 -0.1018 -0.6272  0.0318
12301TIP3   OH236841   6.000   6.950   5.881  0.5135 -0.6851  0.5820
12301TIP3    H136842   5.977   6.881   5.819 -0.0990 -0.6111  0.7264
12301TIP3    H236843   6.012   7.028   5.827  0.5873 -0.7598  0.4905
12302TIP3   OH236844   4.188   5.750   5.110  0.1299  0.2967 -0.2515
12302TIP3    H136845   4.276   5.731   5.077  0.3537  0.9842 -0.0596
12302TIP3    H236846   4.183   5.705   5.194  0.3153  0.2815 -0.2490
12303TIP3   OH236847   7.658   1.349   4.265 -0.0048  0.6950 -0.1168
12303TIP3    H136848   7.679   1.439   4.290  0.4943  1.0584 -1.7994
12303TIP3    H236849   7.566   1.338   4.292 -0.3775  2.0372 -0.7923
12304TIP3   OH236850   2.085   7.467   6.155  0.1247  0.2919  0.4650
12304TIP3    H136851   2.094   7.507   6.069 -1.0022  2.0052  1.1131
12304TIP3    H236852   1.994   7.438   6.159  0.8450 -2.1954  0.1106
12305TIP3   OH236853   6.795   0.102   4.701  0.3563  0.0356  0.1540
12305TIP3    H136854   6.774   0.178   4.755 -0.6801 -0.8640  1.0391
12305TIP3    H236855   6.890   0.099   4.699  0.4170  1.9164 -0.7038
12306TIP3   OH236856   4.064   5.639   4.136  0.1027  0.4773 -0.2681
12306TIP3    H136857   4.139   5.581   4.153 -0.6598 -0.3539  0.3374
12306TIP3    H236858   4.102   5.718   4.099  1.3471  0.2991  0.5957
12307TIP3   OH236859   3.007   3.691   5.210  0.0645 -0.3367  0.5462
12307TIP3    H136860   3.074   3.709   5.144 -1.5803 -0.3048 -1.1509
12307TIP3    H236861   3.014   3.765   5.272  1.5482 -0.3185  0.3803
12308TIP3   OH236862   7.452   0.152   5.167 -0.6689 -0.6228 -0.2765
12308TIP3    H136863   7.374   0.122   5.120 -1.5050 -0.1366  0.7684
12308TIP3    H236864   7.438   0.246   5.181  0.1548 -0.5047 -0.1769
12309TIP3   OH236865   1.434   6.318   6.631 -0.7854 -0.2781  0.5705
12309TIP3    H136866   1.395   6.265   6.562 -2.1318  2.1039 -0.5813
12309TIP3    H236867   1.481   6.387   6.584 -1.6121  1.3063  1.9959
12310TIP3   OH236868   1.297   3.794   6.634 -0.4382  0.3007  0.2189
12310TIP3    H136869   1.390   3.772   6.632 -0.4272  0.3829 -1.7708
12310TIP3    H236870   1.284   3.839   6.717  1.4014  0.7405  0.2954
12311TIP3   OH236871   3.960   4.426   6.373 -0.4357 -0.5999 -0.0465
12311TIP3    H136872   3.949   4.461   6.284  1.2009  1.8518  0.6409
12311TIP3    H236873   3.965   4.504   6.429  1.3689 -1.9898  1.8421
12312TIP3   OH236874   6.577   1.086   1.654 -0.1166 -0.0521  0.3630
12312TIP3    H136875   6.655   1.139   1.635 -1.5286  0.8389 -3.3612
12312TIP3    H236876   6.510   1.150   1.680 -1.1237 -0.2199 -1.7502
12313TIP3   OH236877   4.554   4.657   4.076  0.3108 -0.3458 -0.1407
12313TIP3    H136878   4.527   4.617   3.994 -0.4856  0.4290 -0.2693
12313TIP3    H236879   4.637   4.701   4.056 -0.0430  0.1111 -0.6156
12314TIP3   OH236880   0.236   0.608   0.460  0.1001 -0.0603  0.0404
12314TIP3    H136881   0.204   0.618   0.550  0.9181 -0.2373  0.3573
12314TIP3    H236882   0.297   0.680   0.449 -1.8872  1.4603 -1.2365
12315TIP3   OH236883   0.056   3.901   0.904 -0.3227  0.4228 -0.3939
12315TIP3    H136884   0.054   3.852   0.986 -0.1836  1.3150  0.1524
12315TIP3    H236885   0.105   3.845   0.844 -0.0010 -0.0258  0.2779
12316TIP3   OH236886   3.327   4.294   5.830 -0.0509  0.3929 -0.2345
12316TIP3    H136887   3.275   4.262   5.756  0.2109  1.6874 -1.0004
12316TIP3    H236888   3.395   4.348   5.789 -0.1160  1.4159  0.9803
12317TIP3   OH236889   3.649   7.090   5.536 -0.0844  0.4005 -0.2825
12317TIP3    H136890   3.557   7.115   5.537 -0.3749 -0.6846  0.2924
12317TIP3    H236891   3.665   7.053   5.623  0.1755 -1.9948 -1.3068
12318TIP3   OH236892   3.148   6.722   4.378  0.0341 -0.1718 -0.3094
12318TIP3    H136893   3.074   6.755   4.328 -0.4515  1.6959  1.5796
12318TIP3    H236894   3.136   6.627   4.378 -1.5922  0.0147 -1.1950
12319TIP3   OH236895   1.989   1.088   1.428 -0.8654  0.1525 -0.0077
12319TIP3    H136896   2.024   1.039   1.354 -1.4119 -1.6501  0.8943
12319TIP3    H236897   1.975   1.177   1.394  0.1879 -0.2988 -1.6548
12320TIP3   OH236898   3.506   5.724   5.089  0.1407  0.6780 -0.0131
12320TIP3    H136899   3.428   5.777   5.072  1.3780  1.7130 -2.6116
12320TIP3    H236900   3.564   5.741   5.015  1.6753 -2.2980  0.4483
12321TIP3   OH236901   0.610   2.968   0.001  0.3977 -0.0633 -0.1132
12321TIP3    H136902   0.546   3.035   0.026  1.0145 -0.6158  3.2416
12321TIP3    H236903   0.695   3.011   0.010  0.7171 -0.8020  0.5001
12322TIP3   OH236904   3.268   4.417   5.378  0.0679  0.4926  0.6422
12322TIP3    H136905   3.253   4.376   5.293 -0.2661  1.1100  0.4026
12322TIP3    H236906   3.235   4.506   5.368 -0.0540  0.5410  1.4441
12323TIP3   OH236907   0.470   4.769   0.087  0.2153 -0.1484 -0.3488
12323TIP3    H136908   0.456   4.677   0.110  0.1116  0.3376  1.6579
12323TIP3    H236909   0.564   4.775   0.068  0.0698 -0.8291 -1.3158
12324TIP3   OH236910   0.340   2.179   0.053  0.4205  0.0890  0.6260
12324TIP3    H136911   0.324   2.127   0.132 -0.1307 -0.5282  0.1171
12324TIP3    H236912   0.284   2.139  -0.013  0.4674  0.9432  0.0624
12325TIP3   OH236913   0.847   3.101   0.072  0.1535  0.5969 -0.0033
12325TIP3    H136914   0.939   3.093   0.099 -0.4801 -0.0822  2.0307
12325TIP3    H236915   0.834   3.195   0.058  0.3823  1.0280  2.5681
12326TIP3   OH236916   5.052   4.656   4.705 -0.0803  0.2379 -0.1294
12326TIP3    H136917   5.068   4.567   4.673  0.8285 -0.3064  1.7246
12326TIP3    H236918   4.962   4.675   4.681  0.0882 -0.7290 -1.5855
12327TIP3   OH236919   2.762   7.387   5.091  0.0931 -0.3348 -0.2745
12327TIP3    H136920   2.679   7.412   5.132  0.4507  0.6299 -0.1317
12327TIP3    H236921   2.820   7.370   5.165 -0.0697 -1.3700 -0.3708
12328TIP3   OH236922   3.341   6.359   4.576 -0.3402  0.1602  0.3896
12328TIP3    H136923   3.353   6.371   4.671  0.7444  1.6874  0.0753
12328TIP3    H236924   3.421   6.316   4.547  0.3645  1.7873 -0.1793
12329TIP3   OH236925   7.339   0.395   5.141  0.1221 -0.0594 -0.0536
12329TIP3    H136926   7.256   0.389   5.093 -0.6988  2.1365  1.0162
12329TIP3    H236927   7.377   0.478   5.113 -0.1219  1.0082  2.6367
12330TIP3   OH236928   5.512   5.842   6.900  0.8235  0.4118 -0.0419
12330TIP3    H136929   5.594   5.871   6.860  0.3481  2.2013  0.2516
12330TIP3    H236930   5.458   5.921   6.905  0.5801  0.0893  3.3811
12331TIP3   OH236931   3.020   7.385   6.088  0.0932 -0.2160  0.1017
12331TIP3    H136932   3.031   7.440   6.010  0.6098  1.6822  1.4578
12331TIP3    H236933   3.014   7.296   6.055  1.8832  0.4148 -1.9923
12332TIP3   OH236934   7.905   1.734   0.159  0.5869 -0.9931 -0.3928
12332TIP3    H136935   7.877   1.692   0.240 -2.1225  1.4729  0.0472
12332TIP3    H236936   7.991   1.772   0.179 -0.6221  0.7033  1.7910
12333TIP3   OH236937   4.075   6.555   4.447 -0.4507  0.4038  0.1481
12333TIP3    H136938   3.984   6.538   4.469 -0.0651 -0.0679  1.4482
12333TIP3    H236939   4.125   6.501   4.509  0.6902 -1.8069 -2.5626
12334TIP3   OH236940   4.754   6.586   4.665 -0.0573 -0.0383 -0.2184
12334TIP3    H136941   4.754   6.677   4.634 -0.1468  0.3387  0.8548
12334TIP3    H236942   4.750   6.594   4.760  0.5255 -1.1599 -0.0967
12335TIP3   OH236943   0.197   0.145   6.813 -0.5977  0.2007  0.1340
12335TIP3    H136944   0.218   0.211   6.747 -1.3611 -0.0957 -0.4184
12335TIP3    H236945   0.276   0.138   6.867  0.0484  0.4104 -0.7791
12336TIP3   OH236946   3.328   4.769   4.287  0.1380 -0.0158  0.1127
12336TIP3    H136947   3.279   4.851   4.288 -1.5539 -1.0075  1.2042
12336TIP3    H236948   3.347   4.751   4.380  0.6748 -0.7607 -0.1317
12337TIP3   OH236949   2.511   7.614   6.284  0.1435 -0.3884  0.3326
12337TIP3    H136950   2.592   7.568   6.304  0.8376 -0.6663 -2.8424
12337TIP3    H236951   2.464   7.556   6.224 -1.7675  0.4018  1.0108
12338TIP3   OH236952   3.827   4.655   5.050  0.2185 -0.4289 -0.3339
12338TIP3    H136953   3.816   4.571   5.094 -1.3344 -0.2757 -0.3796
12338TIP3    H236954   3.851   4.632   4.960  1.3719 -0.7848  0.0620
12339TIP3   OH236955   4.137   4.856   5.216 -0.6541 -0.5545 -0.0893
12339TIP3    H136956   4.212   4.884   5.164  0.3456 -0.5690  1.3309
12339TIP3    H236957   4.087   4.936   5.232 -0.4413 -0.3923 -0.2376
12340TIP3   OH236958   3.208   5.939   3.801 -0.1459 -0.9606  0.8562
12340TIP3    H136959   3.209   5.869   3.735 -1.1531 -0.6883  0.5524
12340TIP3    H236960   3.284   5.993   3.779 -1.9663  0.6430 -1.7287
12341TIP3   OH236961   5.703   0.719   6.886  0.2188  0.7040 -0.4551
12341TIP3    H136962   5.681   0.726   6.793 -1.0693  0.3629 -0.1807
12341TIP3    H236963   5.779   0.661   6.888 -0.9746 -0.9359 -1.1563
12342TIP3   OH236964   5.101   6.922   5.403 -0.1609 -0.2976 -0.1022
12342TIP3    H136965   5.137   6.911   5.491 -0.2855  0.4026  0.0397
12342TIP3    H236966   5.053   7.005   5.407  1.0040  0.4656 -1.2059
12343TIP3   OH236967   0.943   2.693   0.137 -0.2841 -0.5537  0.3603
12343TIP3    H136968   0.979   2.604   0.137 -2.0921 -1.3351  2.5451
12343TIP3    H236969   1.010   2.745   0.181 -0.0071 -1.1989  0.7190
12344TIP3   OH236970   5.284   5.917   5.108 -0.0859 -0.6410  0.2998
12344TIP3    H136971   5.298   6.010   5.122 -1.1179 -0.0153 -2.4788
12344TIP3    H236972   5.326   5.898   5.024 -1.2254 -2.3447  0.0820
12345TIP3   OH236973   4.930   4.885   4.208 -0.0811  0.2738 -0.0529
12345TIP3    H136974   4.872   4.944   4.256 -0.7085  0.6722 -1.2691
12345TIP3    H236975   4.876   4.852   4.136  0.6472 -0.8099 -0.1108
12346TIP3   OH236976   6.015   6.432   6.176  0.1554 -0.0657  0.2729
12346TIP3    H136977   6.087   6.489   6.150 -0.6145  0.9730  0.4033
12346TIP3    H236978   5.936   6.483   6.157 -0.5690 -1.4077 -0.4085
12347TIP3   OH236979   2.618   6.201   4.981  0.4365 -0.3457  0.0152
12347TIP3    H136980   2.549   6.213   4.916  0.1953 -1.7816 -0.0095
12347TIP3    H236981   2.698   6.195   4.930  0.2959 -1.0424 -0.1349
12348TIP3   OH236982   4.996   5.798   4.697 -0.4182  0.4485  0.2528
12348TIP3    H136983   4.987   5.716   4.648 -1.2691  0.7636 -0.1267
12348TIP3    H236984   4.960   5.778   4.783 -2.6034  1.0133 -0.5030
12349TIP3   OH236985   3.178   5.832   4.815 -0.1515 -0.2189 -0.1576
12349TIP3    H136986   3.111   5.874   4.761  0.1539  1.5227  0.7753
12349TIP3    H236987   3.221   5.769   4.756  1.0727  2.5773 -2.3828
12350TIP3   OH236988   6.961   0.281   3.882 -0.2905 -0.1046 -0.3117
12350TIP3    H136989   7.012   0.295   3.961  1.0019 -1.2858 -0.9191
12350TIP3    H236990   6.977   0.359   3.829  0.8539 -0.4518 -0.4812
12351TIP3   OH236991   1.021   5.001   0.784 -0.8837  0.0178 -0.8983
12351TIP3    H136992   1.113   4.978   0.773 -0.5890  0.5198  0.3651
12351TIP3    H236993   0.983   4.993   0.696  0.6233  0.9289 -1.6533
12352TIP3   OH236994   3.754   6.947   6.442 -0.0291 -0.2354 -0.2154
12352TIP3    H136995   3.740   7.030   6.488  0.6483  0.5246 -1.3760
12352TIP3    H236996   3.828   6.907   6.488  0.6563  0.5295 -0.6550
12353TIP3   OH236997   4.190   5.609   6.412  0.4682  0.6090 -0.3245
12353TIP3    H136998   4.154   5.679   6.466  2.1101  2.0076 -1.0257
12353TIP3    H236999   4.279   5.597   6.445 -0.4504 -2.6558  1.2439
12354TIP3   OH237000   3.652   6.723   2.568  0.2329  0.4604 -0.1314
12354TIP3    H137001   3.612   6.701   2.484  0.1661  2.7101 -0.7168
12354TIP3    H237002   3.582   6.762   2.619  0.5999  0.3122  0.4936
12355TIP3   OH237003   7.184   5.531   6.317 -0.3011  0.5012  0.5023
12355TIP3    H137004   7.189   5.552   6.410 -1.3505  0.8384  0.4905
12355TIP3    H237005   7.273   5.507   6.293 -0.2290 -0.6774  1.8495
12356TIP3   OH237006   2.443   4.877   5.128 -0.4401  0.0231  0.3393
12356TIP3    H137007   2.442   4.952   5.068 -0.3743 -0.0106  0.2952
12356TIP3    H237008   2.529   4.837   5.114 -0.5733 -0.2086  0.1759
12357TIP3   OH237009   7.587   0.902   0.742  0.4058 -0.7802 -0.0138
12357TIP3    H137010   7.533   0.849   0.682  0.9596 -2.2680  0.7818
12357TIP3    H237011   7.676   0.893   0.709  0.5450 -0.5639  0.3012
12358TIP3   OH237012   3.675   7.952   3.756 -0.0777 -0.4684 -0.7012
12358TIP3    H137013   3.714   7.976   3.840  3.1797  0.4344 -2.4029
12358TIP3    H237014   3.619   8.027   3.733  0.5105  0.1185 -0.2306
12359TIP3   OH237015   2.939   7.677   3.422  0.1160  0.3764 -0.2991
12359TIP3    H137016   2.921   7.616   3.350  0.2524  1.7291 -1.4920
12359TIP3    H237017   2.886   7.643   3.495 -0.9893 -0.3100 -1.3902
12360TIP3   OH237018   2.799   5.945   5.629 -0.4137 -0.3633 -0.2310
12360TIP3    H137019   2.748   5.888   5.686  0.4312 -1.6469 -0.7320
12360TIP3    H237020   2.865   5.984   5.686  1.3389 -2.7466 -0.5595
12361TIP3   OH237021   2.500   7.433   5.178  0.4242  0.0064  0.2669
12361TIP3    H137022   2.490   7.525   5.155  0.3810 -0.1061 -0.1654
12361TIP3    H237023   2.460   7.426   5.265 -1.4217 -0.0129 -0.5637
12362TIP3   OH237024   2.416   6.514   5.185 -0.3283  0.4072 -0.2007
12362TIP3    H137025   2.406   6.593   5.238  3.4539  0.2792  0.8752
12362TIP3    H237026   2.493   6.531   5.131  1.9245 -3.3298  1.6191
12363TIP3   OH237027   5.195   3.622   3.795  0.1464 -0.1745 -0.5114
12363TIP3    H137028   5.224   3.714   3.800 -2.5199  0.8299 -2.5886
12363TIP3    H237029   5.152   3.606   3.879 -1.0012  1.0924 -0.8382
12364TIP3   OH237030   5.369   4.716   5.266 -0.1486 -0.0873 -0.4790
12364TIP3    H137031   5.274   4.720   5.282  0.4116  1.0989  3.1162
12364TIP3    H237032   5.383   4.777   5.194 -2.1065 -0.1835 -0.9788
12365TIP3   OH237033   2.310   7.946   4.400 -0.4004  0.9253  0.5211
12365TIP3    H137034   2.217   7.950   4.421 -0.4225 -1.5305  0.9830
12365TIP3    H237035   2.312   7.945   4.304 -1.0817 -2.8205  0.4968
12366TIP3   OH237036   3.300   6.876   6.462 -0.3341  0.5422 -0.6494
12366TIP3    H137037   3.340   6.822   6.393  2.1110  0.2713  0.9283
12366TIP3    H237038   3.325   6.966   6.439 -1.1207  0.6470 -1.1292
12367TIP3   OH237039   3.395   6.042   4.840  0.4356  0.1300  0.4410
12367TIP3    H137040   3.433   5.993   4.768  0.6486 -0.6475  1.0671
12367TIP3    H237041   3.390   5.979   4.912 -0.6876  0.6171  0.8095
12368TIP3   OH237042   5.744   6.520   5.690 -0.3538 -0.0194 -0.3994
12368TIP3    H137043   5.737   6.447   5.629 -1.0250 -0.2509 -0.0478
12368TIP3    H237044   5.837   6.546   5.686  0.0519 -1.3682  0.0390
12369TIP3   OH237045   4.090   7.042   4.161  0.1411 -0.2023 -0.1580
12369TIP3    H137046   4.059   7.009   4.245  0.0874 -2.3096 -0.9763
12369TIP3    H237047   4.015   7.089   4.125 -0.2761 -0.4430  0.3826
12370TIP3   OH237048   3.155   6.201   5.616 -0.0017 -0.6020  0.1754
12370TIP3    H137049   3.146   6.181   5.523  0.4177 -1.0702  0.2335
12370TIP3    H237050   3.138   6.295   5.621  0.7095 -0.4265 -0.4858
12371TIP3   OH237051   3.203   1.384   0.428  0.8265  0.1720 -0.6529
12371TIP3    H137052   3.244   1.340   0.353  0.0384  0.0520 -1.0187
12371TIP3    H237053   3.258   1.359   0.503  0.5820 -1.1910 -0.9071
12372TIP3   OH237054   2.678   6.830   6.267  0.2535 -0.4242 -0.3209
12372TIP3    H137055   2.684   6.903   6.205 -1.4686  0.6923  0.7596
12372TIP3    H237056   2.629   6.763   6.220 -1.6552  0.6858  0.0390
12373TIP3   OH237057   2.942   6.723   5.432 -0.2005  0.2259 -0.2695
12373TIP3    H137058   2.903   6.810   5.441  1.0503  0.6999  0.7935
12373TIP3    H237059   2.885   6.677   5.371 -2.1417  1.0450  0.8849
12374TIP3   OH237060   3.326   4.409   6.108  0.4391  0.0241  0.2028
12374TIP3    H137061   3.383   4.431   6.182 -0.6471  1.0969  0.7284
12374TIP3    H237062   3.382   4.419   6.031  1.0266  0.8627  0.7356
12375TIP3   OH237063   7.480   0.436   3.765  0.1921 -0.0976 -0.0969
12375TIP3    H137064   7.432   0.411   3.686 -0.6717 -0.7779  0.6255
12375TIP3    H237065   7.556   0.485   3.733 -0.0021 -0.5982 -1.3616
12376TIP3   OH237066   4.212   5.567   5.342  0.3367  0.5744  0.1402
12376TIP3    H137067   4.220   5.560   5.437 -1.2939 -0.3385  0.2089
12376TIP3    H237068   4.295   5.532   5.308  0.2260 -0.6817  1.1565
12377TIP3   OH237069   0.467   4.724   0.968 -0.4608 -0.2255  0.4075
12377TIP3    H137070   0.452   4.658   1.036 -0.8944  0.1564  0.6802
12377TIP3    H237071   0.548   4.696   0.926 -0.4196 -0.7040  0.7966
12378TIP3   OH237072   2.524   7.094   4.836  0.0580 -0.0053  0.0460
12378TIP3    H137073   2.615   7.124   4.844  0.4013 -0.7981 -0.8125
12378TIP3    H237074   2.476   7.171   4.807  0.7537 -0.0156 -1.1431
12379TIP3   OH237075   8.368   1.546   6.630  0.1521  0.2315 -0.0342
12379TIP3    H137076   8.413   1.615   6.581 -1.2292  1.0017 -0.2380
12379TIP3    H237077   8.282   1.583   6.650 -0.7179 -1.5400 -0.3928
12380TIP3   OH237078   3.045   6.857   6.526 -0.1434  0.2072  0.9567
12380TIP3    H137079   3.140   6.856   6.531 -0.1081 -1.3457  0.3574
12380TIP3    H237080   3.025   6.907   6.447  0.2765 -1.3603 -0.1818
12381TIP3   OH237081   3.988   1.605   1.746  0.0378  0.7702  0.1088
12381TIP3    H137082   4.032   1.668   1.690 -0.3782  0.0091 -1.0925
12381TIP3    H237083   3.903   1.590   1.705 -0.2572  0.1668  0.9099
12382TIP3   OH237084   5.741   1.065   4.439  0.8031 -0.3968  0.4970
12382TIP3    H137085   5.800   1.137   4.417 -1.7411  1.0390 -1.7634
12382TIP3    H237086   5.721   1.023   4.356 -1.8257 -0.4935  1.1293
12383TIP3   OH237087   3.470   3.447   5.554 -0.1779 -0.3297 -0.5810
12383TIP3    H137088   3.457   3.461   5.461  2.3327 -3.2218 -1.4276
12383TIP3    H237089   3.554   3.490   5.573 -1.1974  1.2026  0.6301
12384TIP3   OH237090   4.209   6.666   5.965  0.4452 -0.2592 -0.2780
12384TIP3    H137091   4.164   6.744   5.932 -0.4286 -0.6088  0.0545
12384TIP3    H237092   4.301   6.681   5.945  0.0738  0.0397 -1.8675
12385TIP3   OH237093   3.123   7.603   6.802  0.0292 -0.0416  0.0547
12385TIP3    H137094   3.113   7.562   6.717 -2.7829  1.5156 -0.4047
12385TIP3    H237095   3.210   7.643   6.800  0.7288 -1.6140 -1.3525
12386TIP3   OH237096   2.512   6.896   5.540 -0.2301  0.1852 -0.3392
12386TIP3    H137097   2.452   6.942   5.481  1.7117  0.5062 -2.1375
12386TIP3    H237098   2.493   6.931   5.626 -2.1114  0.8084 -0.9773
12387TIP3   OH237099   5.910   6.194   6.869  0.0767  0.2561 -0.2493
12387TIP3    H137100   5.854   6.260   6.828  0.1005 -0.7165 -1.9054
12387TIP3    H237101   5.850   6.142   6.923 -0.2026  0.6980 -0.1342
12388TIP3   OH237102   3.987   5.403   5.298  0.0957  0.4017 -0.3006
12388TIP3    H137103   3.928   5.462   5.344 -0.2890  1.5825 -2.2852
12388TIP3    H237104   4.075   5.434   5.320  0.1027 -1.5864  2.9682
12389TIP3   OH237105   3.178   5.078   5.198 -0.1833 -0.5243  0.2469
12389TIP3    H137106   3.104   5.114   5.247  1.0158  0.4609  1.3684
12389TIP3    H237107   3.171   5.119   5.111  0.7327  1.9132  1.2760
12390TIP3   OH237108   4.468   7.467   4.074  0.2362  0.2641  0.4094
12390TIP3    H137109   4.446   7.547   4.025 -3.1455 -0.7578  0.1328
12390TIP3    H237110   4.509   7.499   4.154 -0.0350  2.2490 -0.2028
12391TIP3   OH237111   3.039   6.338   4.159  0.4722 -0.0094 -0.0811
12391TIP3    H137112   2.991   6.402   4.107 -0.0247 -0.5703 -0.3211
12391TIP3    H237113   3.100   6.390   4.212 -1.2540  0.8050  1.1493
12392TIP3   OH237114   4.602   7.941   4.445  0.2717 -0.3608  0.0256
12392TIP3    H137115   4.547   8.016   4.424 -0.7418 -0.8642  0.7946
12392TIP3    H237116   4.641   7.915   4.362 -0.4486  0.1664 -0.4835
12393TIP3   OH237117   3.899   5.315   4.630  0.6196  0.2085  0.0802
12393TIP3    H137118   3.937   5.344   4.713  2.2166 -3.3500  0.6610
12393TIP3    H237119   3.852   5.235   4.651  2.1934 -1.5122 -2.6597
12394TIP3   OH237120   4.589   7.419   0.431  0.3256 -0.7441  0.6378
12394TIP3    H137121   4.580   7.481   0.358 -1.7607 -1.2200  0.4646
12394TIP3    H237122   4.639   7.346   0.395  0.2545 -0.4824  0.0101
12395TIP3   OH237123   6.212   0.416   5.863  0.0224  0.0846  1.1013
12395TIP3    H137124   6.200   0.447   5.953 -0.4538  4.1854 -0.2578
12395TIP3    H237125   6.291   0.460   5.833 -0.1418 -0.7949 -0.6924
12396TIP3   OH237126   4.692   7.419   5.587  0.1598  0.0278  0.0762
12396TIP3    H137127   4.618   7.406   5.647  0.3281 -0.7564  0.1213
12396TIP3    H237128   4.764   7.445   5.644 -0.2973  1.6679 -0.0664
12397TIP3   OH237129   0.706   1.382   0.471  0.4464 -0.2254  0.1900
12397TIP3    H137130   0.776   1.369   0.535  0.1306  0.8683  0.7605
12397TIP3    H237131   0.725   1.318   0.402  0.3017 -2.0207  1.7626
12398TIP3   OH237132   4.610   7.838   5.790  0.4391  0.1965  0.6802
12398TIP3    H137133   4.646   7.754   5.762 -1.0547 -0.4552  0.6480
12398TIP3    H237134   4.684   7.898   5.789  1.2183 -0.7772 -0.7194
12399TIP3   OH237135   3.418   6.052   6.706  0.3738  0.0908 -0.3501
12399TIP3    H137136   3.507   6.080   6.687 -0.1088  1.3103 -0.8863
12399TIP3    H237137   3.425   5.958   6.726  1.8053  0.2574 -0.0675
12400TIP3   OH237138   2.425   7.517   6.774 -0.1332 -0.4091 -0.0823
12400TIP3    H137139   2.424   7.532   6.679  0.3964 -2.0544 -0.3639
12400TIP3    H237140   2.387   7.597   6.811 -1.9259 -0.4354 -1.7708
12401TIP3   OH237141   3.591   5.134   5.017 -0.4610 -0.2375 -0.9752
12401TIP3    H137142   3.565   5.153   4.927 -0.0073 -2.0324 -1.5091
12401TIP3    H237143   3.685   5.115   5.011 -0.0673  1.2509  0.1528
12402TIP3   OH237144   5.074   5.968   6.792 -0.7227 -0.0499  0.1622
12402TIP3    H137145   5.016   5.964   6.869 -0.2621  0.6395  0.5506
12402TIP3    H237146   5.042   6.044   6.743 -0.0973  0.3777  0.4166
12403TIP3   OH237147   6.541   7.159   6.197 -0.1935  0.2779  0.3364
12403TIP3    H137148   6.467   7.204   6.237  0.2925  0.5490  0.9486
12403TIP3    H237149   6.610   7.163   6.264  0.4097  0.1379 -0.2702
12404TIP3   OH237150   0.840   1.699   1.345 -0.0554  0.4723 -0.5379
12404TIP3    H137151   0.932   1.720   1.365 -0.1430  1.9474 -1.6320
12404TIP3    H237152   0.790   1.747   1.410 -0.0712 -0.4283  0.1345
12405TIP3   OH237153   4.816   3.408   6.289  0.5490  0.1757  0.0774
12405TIP3    H137154   4.791   3.327   6.332  0.5881  0.4595  0.6341
12405TIP3    H237155   4.911   3.412   6.298  0.3959  1.0305  1.3759
12406TIP3   OH237156   1.813   1.316   1.370 -0.2185 -0.1347  0.0456
12406TIP3    H137157   1.735   1.268   1.395 -0.8918  0.9270  0.0058
12406TIP3    H237158   1.810   1.397   1.421  0.6553  0.0873 -0.2371
12407TIP3   OH237159   2.839   6.358   3.958  0.0546 -0.2804 -0.3836
12407TIP3    H137160   2.908   6.307   3.917 -1.5036 -2.3237 -0.5681
12407TIP3    H237161   2.786   6.390   3.885  0.3153  0.5757 -0.2040
12408TIP3   OH237162   3.554   5.092   4.523  0.4086  0.1384 -0.3980
12408TIP3    H137163   3.480   5.123   4.472 -0.9341 -1.0229  0.8070
12408TIP3    H237164   3.562   4.999   4.501 -0.8346 -0.6429  2.1717
12409TIP3   OH237165   7.571   1.183   4.909  0.2616 -0.2067  0.4281
12409TIP3    H137166   7.504   1.138   4.961  0.3241  0.0400  0.7226
12409TIP3    H237167   7.654   1.162   4.952  0.1102  1.8203  1.7614
12410TIP3   OH237168   5.215   6.604   5.381  0.3406 -0.1052 -0.1601
12410TIP3    H137169   5.245   6.663   5.311 -0.1446 -0.2861 -0.5236
12410TIP3    H237170   5.124   6.629   5.395  0.3147 -0.3636  0.1117
12411TIP3   OH237171   7.269   0.369   5.418 -0.3973  0.3458 -0.0057
12411TIP3    H137172   7.297   0.385   5.328  0.0100 -3.5626 -0.6554
12411TIP3    H237173   7.177   0.396   5.419 -0.8814 -1.1007 -2.0892
12412TIP3   OH237174   6.217   1.590   3.459  0.9080  0.0737 -0.6358
12412TIP3    H137175   6.254   1.631   3.381  2.2132 -1.3582 -0.8093
12412TIP3    H237176   6.265   1.508   3.467  0.1612 -0.2075  1.1697
12413TIP3   OH237177   8.090   0.680   6.391 -0.0048  0.4910  0.2171
12413TIP3    H137178   8.028   0.676   6.318 -0.7817 -1.0144  0.9243
12413TIP3    H237179   8.085   0.770   6.422 -0.3140  0.9201 -1.0424
12414TIP3   OH237180   4.243   6.286   3.570  0.0929 -0.3713  0.0148
12414TIP3    H137181   4.206   6.311   3.485  0.9582 -2.3569 -0.9847
12414TIP3    H237182   4.174   6.236   3.613 -0.2416  0.3935  0.3843
12415TIP3   OH237183   5.436   7.941   5.301 -0.1414 -0.3168 -0.2616
12415TIP3    H137184   5.516   7.984   5.333 -1.3190  0.4889  1.6831
12415TIP3    H237185   5.412   7.990   5.222  0.8720 -0.1014 -0.4456
12416TIP3   OH237186   4.409   5.625   5.521 -0.4960 -0.3336  0.1595
12416TIP3    H137187   4.495   5.585   5.505 -1.0021 -0.5925 -2.0190
12416TIP3    H237188   4.430   5.708   5.564  0.9644  0.4877 -2.0662
12417TIP3   OH237189   4.409   4.092   4.846 -0.2715 -0.4973 -0.3642
12417TIP3    H137190   4.371   4.049   4.923 -1.4294 -0.9724 -1.1792
12417TIP3    H237191   4.419   4.183   4.873  1.2141 -1.0457  1.0254
12418TIP3   OH237192   5.376   5.062   5.293 -0.0582 -0.0949 -0.6113
12418TIP3    H137193   5.434   5.135   5.270  0.8125 -1.0702 -1.5932
12418TIP3    H237194   5.318   5.054   5.218 -0.5886  0.0182 -0.2115
12419TIP3   OH237195   3.437   5.931   5.582 -0.0579 -0.4520 -0.0991
12419TIP3    H137196   3.466   6.023   5.583 -1.7079  0.0695  1.7711
12419TIP3    H237197   3.418   5.911   5.673 -0.7700 -2.3304 -0.6527
12420TIP3   OH237198   5.015   6.417   5.905  0.2147 -0.5724 -0.1646
12420TIP3    H137199   5.109   6.413   5.922  0.0899 -1.6321  0.3159
12420TIP3    H237200   4.977   6.348   5.960 -1.1419  1.4790  1.5539
12421TIP3   OH237201   4.056   6.623   4.837  0.2805 -0.5973 -0.2964
12421TIP3    H137202   4.027   6.534   4.853  0.9508 -1.1064 -1.7738
12421TIP3    H237203   4.152   6.618   4.842  0.3895 -0.2795 -1.8207
12422TIP3   OH237204   5.180   2.881   5.201  0.0139  0.4665 -0.2428
12422TIP3    H137205   5.236   2.804   5.217  0.2009 -0.0811 -3.2198
12422TIP3    H237206   5.094   2.855   5.233  0.5161 -0.2418  0.5751
12423TIP3   OH237207   0.934   1.276   0.652 -0.4086 -0.2502 -0.0951
12423TIP3    H137208   1.003   1.209   0.655 -0.9996 -0.8607 -0.0780
12423TIP3    H237209   0.979   1.357   0.676  0.3931 -0.5700 -0.4629
12424TIP3   OH237210   4.126   7.327   3.953  0.4540  0.3710 -0.4803
12424TIP3    H137211   4.126   7.232   3.942  0.2578  0.2988  0.1066
12424TIP3    H237212   4.179   7.342   4.031  2.4137  0.9173 -1.8878
12425TIP3   OH237213   5.339   6.446   4.808  0.0736 -0.0114 -0.1703
12425TIP3    H137214   5.385   6.454   4.891 -0.3010 -0.4303  0.0761
12425TIP3    H237215   5.259   6.397   4.828  0.6698 -1.3671 -1.0328
12426TIP3   OH237216   4.416   5.844   5.735 -0.0060  0.1239  0.5616
12426TIP3    H137217   4.483   5.849   5.802  1.4171  0.7279 -0.8798
12426TIP3    H237218   4.334   5.837   5.784  1.1013 -0.8258  2.3307
12427TIP3   OH237219   7.358   6.973   5.547  0.0772 -0.5325 -0.5610
12427TIP3    H137220   7.285   7.033   5.563  0.4436 -0.2544  0.0819
12427TIP3    H237221   7.355   6.912   5.620 -0.2383 -1.2514 -1.1670
12428TIP3   OH237222   3.102   7.214   3.744 -0.2538 -0.7340  0.4069
12428TIP3    H137223   3.179   7.257   3.709  0.0281  0.5228  2.5243
12428TIP3    H237224   3.135   7.134   3.785 -0.2204 -0.7549  0.3383
12429TIP3   OH237225   7.753   2.678   1.002  0.0392 -0.4543 -0.6522
12429TIP3    H137226   7.732   2.675   1.095 -1.2628 -1.7883 -0.9757
12429TIP3    H237227   7.720   2.763   0.973 -0.7755 -0.5981 -0.1701
12430TIP3   OH237228   0.688   2.759   0.348  0.0093 -0.0649 -0.0539
12430TIP3    H137229   0.783   2.758   0.356  0.3179  2.0601 -2.6554
12430TIP3    H237230   0.660   2.830   0.406 -0.0387 -1.0157  1.0881
12431TIP3   OH237231   4.297   7.195   5.098  1.1065 -0.0522  0.1236
12431TIP3    H137232   4.271   7.148   5.018  1.2328  1.3837 -0.7759
12431TIP3    H237233   4.253   7.147   5.169 -0.5600 -0.1974 -0.9798
12432TIP3   OH237234   6.313   4.314   4.097 -0.1652  0.3102 -0.2303
12432TIP3    H137235   6.265   4.327   4.015  0.2021 -1.9055 -0.8152
12432TIP3    H237236   6.299   4.222   4.118 -0.1901  0.8381  2.1748
12433TIP3   OH237237   0.736   4.240   4.982  0.1584 -0.0725 -0.3939
12433TIP3    H137238   0.661   4.300   4.981 -1.0372 -1.5215 -0.1585
12433TIP3    H237239   0.790   4.268   4.908 -1.3401  0.1123 -1.4481
12434TIP3   OH237240   5.609   7.380   3.414 -0.2912 -0.8938 -0.1507
12434TIP3    H137241   5.596   7.292   3.450 -0.9037 -1.0777 -0.7964
12434TIP3    H237242   5.651   7.364   3.329  1.0279 -0.4764  0.4162
12435TIP3   OH237243   3.258   6.616   6.903 -0.3222  0.2058  0.1846
12435TIP3    H137244   3.329   6.656   6.952 -1.8434  2.7447  0.4311
12435TIP3    H237245   3.275   6.639   6.811 -0.7365  0.6991  0.2275
12436TIP3   OH237246   1.504   1.864   0.086  0.0300  0.1609  0.1434
12436TIP3    H137247   1.471   1.829   0.003  0.5368 -1.5201  0.6338
12436TIP3    H237248   1.495   1.792   0.147  1.0116  0.9384  1.2151
12437TIP3   OH237249   7.907   4.413   0.231 -0.6736 -0.3879 -0.1362
12437TIP3    H137250   7.900   4.343   0.296 -0.0899  2.1092  2.7102
12437TIP3    H237251   7.826   4.407   0.181 -0.8120 -2.8257  0.3113
12438TIP3   OH237252   7.655   6.405   5.828  0.3874 -0.2586 -0.0266
12438TIP3    H137253   7.622   6.319   5.800 -1.8751  0.9207 -1.1433
12438TIP3    H237254   7.729   6.422   5.769  0.2049 -1.0003 -0.4835
12439TIP3   OH237255   3.023   3.809   0.004  0.5156 -0.5167 -0.2998
12439TIP3    H137256   3.093   3.789   0.067 -0.4269 -0.4132  0.7991
12439TIP3    H237257   3.018   3.731  -0.052  0.5523 -1.1184  0.5195
12440TIP3   OH237258   3.015   5.711   6.356 -0.4403  0.4188  0.3264
12440TIP3    H137259   3.027   5.656   6.433 -0.3502  0.4534  0.3379
12440TIP3    H237260   3.076   5.674   6.291 -1.5464 -0.5083 -0.2046
12441TIP3   OH237261   4.581   5.921   6.687 -0.4101  0.2028  0.4515
12441TIP3    H137262   4.658   5.908   6.632  0.0971 -1.0015  1.4319
12441TIP3    H237263   4.559   5.833   6.718 -0.3558  0.9279  2.5950
12442TIP3   OH237264   5.400   0.075   5.953 -0.0655  0.4879  0.5090
12442TIP3    H137265   5.391   0.124   6.035 -0.9397  0.9002  0.1752
12442TIP3    H237266   5.478   0.112   5.912 -1.0745  2.0753 -0.0404
12443TIP3   OH237267   8.059   0.376   5.624  0.1602  0.3589  0.0283
12443TIP3    H137268   8.153   0.360   5.619  0.1347  0.3440 -0.4349
12443TIP3    H237269   8.024   0.343   5.542 -0.2611  0.3135  0.2219
12444TIP3   OH237270   4.959   7.055   3.764  0.1741 -0.2452 -0.3587
12444TIP3    H137271   4.955   7.020   3.676 -1.0272 -0.2122 -0.3334
12444TIP3    H237272   4.920   7.142   3.757 -2.0218 -1.1049  0.5965
12445TIP3   OH237273   3.312   6.968   5.331 -0.3604  0.5107 -0.1932
12445TIP3    H137274   3.244   7.035   5.320  0.0074  0.8272 -0.5709
12445TIP3    H237275   3.280   6.913   5.402  0.3788  2.4016  1.6646
12446TIP3   OH237276   5.583   0.505   4.770  0.3777 -0.1379 -0.4122
12446TIP3    H137277   5.500   0.457   4.775 -0.4302  1.0459 -1.9429
12446TIP3    H237278   5.636   0.455   4.708  0.6815 -0.7053  0.3021
12447TIP3   OH237279   4.514   7.120   5.715 -0.1753  0.0498  0.6206
12447TIP3    H137280   4.460   7.139   5.638  0.9911  0.0904 -0.2100
12447TIP3    H237281   4.496   7.192   5.775 -1.4991 -0.2537  0.6151
12448TIP3   OH237282   3.036   5.571   5.923  0.1115 -0.4778 -0.2737
12448TIP3    H137283   2.942   5.590   5.923  0.2270  0.2323  2.0682
12448TIP3    H237284   3.047   5.506   5.854 -2.1113 -0.6601 -0.5030
12449TIP3   OH237285   0.687   3.066   1.657 -0.2895  0.0932  0.3433
12449TIP3    H137286   0.645   3.081   1.572  0.1332 -0.4840  0.0305
12449TIP3    H237287   0.688   3.152   1.699 -1.1961  0.2338  0.0805
12450TIP3   OH237288   4.460   6.563   3.742  0.5085  0.4065  0.2879
12450TIP3    H137289   4.380   6.591   3.699  0.3034 -0.1854  0.2933
12450TIP3    H237290   4.468   6.621   3.818  0.1984  0.5975  0.1731
12451TIP3   OH237291   4.134   6.234   5.675  0.3411  0.0196  0.3066
12451TIP3    H137292   4.046   6.235   5.714  0.6245  0.8833  0.9208
12451TIP3    H237293   4.190   6.198   5.743  1.0408  2.6291  1.1674
12452TIP3   OH237294   3.801   5.070   4.674 -0.3356  0.6715 -0.4284
12452TIP3    H137295   3.795   5.039   4.584 -1.5054 -0.2207 -0.0438
12452TIP3    H237296   3.715   5.054   4.712  1.0911 -2.1060  1.8482
12453TIP3   OH237297   2.600   5.382   6.002  0.4414  0.2420  0.4352
12453TIP3    H137298   2.593   5.364   6.096 -0.7582 -1.0834  0.1025
12453TIP3    H237299   2.529   5.443   5.985 -1.2951 -1.9175 -0.1851
12454TIP3   OH237300   4.066   4.772   3.481  0.1518 -0.1788 -0.0410
12454TIP3    H137301   4.027   4.853   3.449 -2.8512 -1.6977 -0.4401
12454TIP3    H237302   4.102   4.729   3.403  0.4480  0.0798 -0.0477
12455TIP3   OH237303   3.934   7.863   0.719  0.1435 -0.6120 -0.5997
12455TIP3    H137304   3.871   7.849   0.789 -0.0515  3.6167  0.2038
12455TIP3    H237305   3.999   7.794   0.730 -1.2536 -1.5423  2.1404
12456TIP3   OH237306   3.557   4.450   4.114 -0.5411  0.3558 -0.1291
12456TIP3    H137307   3.593   4.364   4.092 -1.5377  0.5659 -2.7444
12456TIP3    H237308   3.628   4.512   4.097 -0.8112  0.3523 -1.3134
12457TIP3   OH237309   3.920   7.272   4.201 -0.0313 -0.7793  0.0294
12457TIP3    H137310   3.855   7.247   4.266 -0.1038  0.4101  0.4274
12457TIP3    H237311   4.001   7.281   4.251 -0.1616  0.4834  0.0249
12458TIP3   OH237312   5.355   7.219   4.568 -0.3958  0.2359  0.3727
12458TIP3    H137313   5.267   7.183   4.585 -1.3616  2.1472 -0.4196
12458TIP3    H237314   5.364   7.214   4.473  0.7692 -0.8589  0.5357
12459TIP3   OH237315   3.286   5.715   4.238 -0.8870 -0.1918 -0.2402
12459TIP3    H137316   3.253   5.712   4.148 -0.9807  2.3298 -0.3214
12459TIP3    H237317   3.376   5.744   4.230 -0.6995 -0.5696  0.4380
12460TIP3   OH237318   3.284   5.864   6.222 -1.0221  0.0985  0.0438
12460TIP3    H137319   3.266   5.928   6.154  0.4786 -0.1950 -0.6343
12460TIP3    H237320   3.250   5.782   6.188  1.1780 -0.3795 -1.0785
12461TIP3   OH237321   4.700   7.822   2.684 -0.0785 -0.3313 -0.1517
12461TIP3    H137322   4.777   7.840   2.737 -0.5955 -1.0487  0.8520
12461TIP3    H237323   4.733   7.821   2.594  0.6604  1.6196  0.0717
12462TIP3   OH237324   3.854   4.676   4.340 -0.4320  0.3330 -0.2864
12462TIP3    H137325   3.925   4.618   4.367 -2.8920 -2.6263  0.0724
12462TIP3    H237326   3.832   4.646   4.251 -1.7177  0.6858 -0.0978
12463TIP3   OH237327   4.334   4.995   6.611 -0.0037 -0.2363 -0.1444
12463TIP3    H137328   4.253   4.948   6.589 -0.9261  0.3266  1.9370
12463TIP3    H237329   4.404   4.930   6.596 -0.8737 -0.9277 -1.3328
12464TIP3   OH237330   4.998   6.137   3.458 -0.5382  0.1392  0.2116
12464TIP3    H137331   5.015   6.147   3.365  0.1233  0.1551  0.3297
12464TIP3    H237332   4.940   6.209   3.481 -0.4771  0.2949 -0.1316
12465TIP3   OH237333   1.995   0.460   0.172  0.1748  0.9129  0.1139
12465TIP3    H137334   2.066   0.432   0.115  0.3469  1.6667 -0.0472
12465TIP3    H237335   2.035   0.467   0.259 -0.4127 -1.6137  0.6259
12466TIP3   OH237336   8.033   0.605   5.375 -0.2560  0.3398 -0.5338
12466TIP3    H137337   8.044   0.694   5.406  2.2056 -1.0041  2.6750
12466TIP3    H237338   7.967   0.567   5.433  0.4405 -0.6221 -0.3545
12467TIP3   OH237339   5.558   6.743   4.643  0.2880  0.2694 -0.2401
12467TIP3    H137340   5.512   6.823   4.666 -0.6022 -0.2068 -0.3612
12467TIP3    H237341   5.619   6.729   4.716 -0.6702  0.1981  0.5664
12468TIP3   OH237342   6.329   7.744   6.103 -0.8952  0.1973 -0.4396
12468TIP3    H137343   6.364   7.685   6.171  1.9892 -1.9342 -3.5968
12468TIP3    H237344   6.237   7.718   6.094 -0.4153 -1.8824  0.2740
12469TIP3   OH237345   4.798   7.652   6.929  0.6736  0.2281  0.1617
12469TIP3    H137346   4.813   7.570   6.883 -0.7131 -0.7355  1.4037
12469TIP3    H237347   4.855   7.648   7.006  0.4341  0.3196  0.3472
12470TIP3   OH237348   6.002   5.539   5.340 -0.0665 -0.6799  0.8228
12470TIP3    H137349   5.988   5.501   5.253  0.2966  0.6933  0.1444
12470TIP3    H237350   6.050   5.620   5.323  3.2396 -2.1487  2.5842
12471TIP3   OH237351   5.752   7.677   2.402 -0.2895 -0.0651  0.2836
12471TIP3    H137352   5.677   7.685   2.342  0.7474 -0.4927 -1.0696
12471TIP3    H237353   5.726   7.730   2.478 -1.4108  0.8865 -0.7331
12472TIP3   OH237354   5.027   6.245   4.548  0.1154 -0.7493 -0.8215
12472TIP3    H137355   5.063   6.274   4.632 -0.0708  1.0840 -1.3431
12472TIP3    H237356   5.063   6.158   4.534 -0.1206 -1.2061  1.3295
12473TIP3   OH237357   6.157   6.584   5.078 -0.2360 -0.6444 -0.5667
12473TIP3    H137358   6.117   6.661   5.037 -0.3480 -0.0757  0.5779
12473TIP3    H237359   6.248   6.585   5.047  0.0207  0.5037  0.1683
12474TIP3   OH237360   6.662   4.668   5.112 -0.1042  0.6850  0.0813
12474TIP3    H137361   6.574   4.696   5.088 -0.4097  0.4859  0.9382
12474TIP3    H237362   6.692   4.615   5.038 -0.4878  1.2074 -0.4456
12475TIP3   OH237363   5.004   6.186   5.574 -0.2510 -1.0532 -0.1159
12475TIP3    H137364   5.064   6.216   5.505 -2.4416 -0.5175 -1.8150
12475TIP3    H237365   4.955   6.115   5.534 -2.9574  0.5717  0.1922
12476TIP3   OH237366   8.117   3.506   5.594 -0.0073  0.2447 -0.0655
12476TIP3    H137367   8.029   3.484   5.563  0.3560 -0.3098 -0.7310
12476TIP3    H237368   8.166   3.527   5.514  0.5506  0.2294  0.2706
12477TIP3   OH237369   4.384   6.000   3.681 -0.9993 -0.6328  0.3973
12477TIP3    H137370   4.377   6.079   3.734 -2.3134  0.8778 -1.9875
12477TIP3    H237371   4.337   5.933   3.732  0.2445  0.0380  2.4798
12478TIP3   OH237372   4.912   7.395   6.185 -0.4378 -0.2071  0.1684
12478TIP3    H137373   4.892   7.311   6.228  2.1538 -0.2318  1.4278
12478TIP3    H237374   5.000   7.383   6.149  0.1923  2.1478  0.8449
12479TIP3   OH237375   5.316   6.806   5.208 -0.2391 -0.0238  0.2381
12479TIP3    H137376   5.346   6.845   5.290  0.7239  1.0120 -0.6028
12479TIP3    H237377   5.316   6.879   5.145 -0.0637 -1.0080 -0.9163
12480TIP3   OH237378   4.258   5.795   3.233  0.4435 -0.0113  0.2665
12480TIP3    H137379   4.313   5.724   3.199 -1.2028 -1.2151  0.0588
12480TIP3    H237380   4.277   5.869   3.176  0.8666 -0.7835 -0.6241
12481TIP3   OH237381   7.384   7.652   3.976  0.2885 -0.5119  0.6984
12481TIP3    H137382   7.435   7.589   4.026  0.1945 -0.3909  0.9437
12481TIP3    H237383   7.395   7.624   3.885  2.1641  0.5240  0.5949
12482TIP3   OH237384   6.191   6.618   5.357  0.1562  0.4179 -0.0072
12482TIP3    H137385   6.154   6.637   5.271  1.1246 -0.4842 -0.6360
12482TIP3    H237386   6.264   6.680   5.366 -1.5500  2.2864  1.2880
12483TIP3   OH237387   7.584   6.489   6.064 -0.4965  0.1789  1.0073
12483TIP3    H137388   7.579   6.405   6.110 -0.7117  0.4802  1.5440
12483TIP3    H237389   7.599   6.466   5.972 -0.5230 -0.4440  1.1580
12484TIP3   OH237390   5.370   7.747   4.382  0.0652 -0.5266 -0.1418
12484TIP3    H137391   5.399   7.733   4.292 -1.1412  3.4681 -1.2271
12484TIP3    H237392   5.432   7.809   4.418 -1.6403  0.8182  0.5384
12485TIP3   OH237393   4.048   6.117   3.668 -0.2754  0.9058  0.5511
12485TIP3    H137394   3.972   6.064   3.646  1.1883 -0.8787 -0.3955
12485TIP3    H237395   4.058   6.108   3.763  0.1321 -0.7828  0.3574
12486TIP3   OH237396   6.080   4.704   4.978  0.0625 -0.2340  0.1708
12486TIP3    H137397   6.119   4.790   4.995 -0.1208 -0.0999 -0.0987
12486TIP3    H237398   6.121   4.647   5.043  0.9752 -0.1663 -0.3293
12487TIP3   OH237399   5.723   5.903   6.750 -0.7004 -0.5698 -0.1355
12487TIP3    H137400   5.765   5.964   6.688 -1.2577  0.7135  0.7373
12487TIP3    H237401   5.713   5.822   6.700 -1.8348  0.6703 -2.0041
12488TIP3   OH237402   2.104   5.265   6.690 -0.2821  0.2175 -0.5068
12488TIP3    H137403   2.097   5.327   6.618  0.7861  1.3495  0.3499
12488TIP3    H237404   2.017   5.226   6.697 -1.8767  3.8370  0.9250
12489TIP3   OH237405   6.388   7.708   5.009  0.2248 -0.3033 -0.2647
12489TIP3    H137406   6.457   7.770   4.986 -1.4691  1.8536  0.2827
12489TIP3    H237407   6.364   7.668   4.925  0.2431  0.9517 -0.8795
12490TIP3   OH237408   4.325   4.822   5.530 -0.0630 -0.1725  0.5010
12490TIP3    H137409   4.393   4.790   5.590  1.0468 -0.2345 -0.7786
12490TIP3    H237410   4.316   4.754   5.464 -3.0365 -1.2309  1.8987
12491TIP3   OH237411   5.352   5.937   3.948 -0.4972 -0.1127 -0.2179
12491TIP3    H137412   5.315   5.893   4.025  0.5017  1.3443  1.1168
12491TIP3    H237413   5.392   5.867   3.897  0.6252 -0.8385  1.6208
12492TIP3   OH237414   5.153   7.102   2.988  0.0560  0.6020  0.6273
12492TIP3    H137415   5.203   7.080   2.910 -0.6385 -3.6008  1.1969
12492TIP3    H237416   5.212   7.080   3.061 -0.6555  0.8040  1.2691
12493TIP3   OH237417   0.187   0.208   3.904  0.6878 -0.5843 -0.2069
12493TIP3    H137418   0.240   0.288   3.903 -0.5700  0.3723  2.7728
12493TIP3    H237419   0.214   0.163   3.984 -0.7697 -1.6387 -0.2898
12494TIP3   OH237420   4.095   6.355   5.049 -0.1958  0.1128 -0.2237
12494TIP3    H137421   4.077   6.274   5.002 -0.1647  0.7427 -1.3395
12494TIP3    H237422   4.069   6.337   5.140 -0.7915 -0.9306 -0.5993
12495TIP3   OH237423   7.712   0.857   6.376  0.2313 -0.1617  0.0001
12495TIP3    H137424   7.687   0.948   6.360  0.7448 -0.4147 -2.3579
12495TIP3    H237425   7.634   0.806   6.354  0.8157 -0.4844 -1.3558
12496TIP3   OH237426   6.221   6.005   4.646  0.0792 -0.8258 -0.1017
12496TIP3    H137427   6.213   6.054   4.564  0.2696  2.4079  1.7677
12496TIP3    H237428   6.316   5.994   4.658  0.2854  2.2693  1.6596
12497TIP3   OH237429   8.392   0.272   5.145 -0.0565 -0.0541  0.6335
12497TIP3    H137430   8.397   0.204   5.078  0.3509 -0.3613  0.9661
12497TIP3    H237431   8.300   0.274   5.171 -0.6848  1.7819 -1.6691
12498TIP3   OH237432   7.740   6.534   6.412  0.5343  0.6341  0.4788
12498TIP3    H137433   7.827   6.563   6.382  1.0087  0.3386  1.5326
12498TIP3    H237434   7.681   6.604   6.386  0.9954  0.5602 -0.7826
12499TIP3   OH237435   6.733   7.181   5.033 -0.4464  0.2881 -0.2731
12499TIP3    H137436   6.749   7.165   5.126 -2.3718  1.1664  0.2398
12499TIP3    H237437   6.716   7.094   4.996 -1.1260  0.0902  0.4948
12500TIP3   OH237438   4.999   3.929   4.814 -0.4092  0.2847  0.6628
12500TIP3    H137439   4.958   3.918   4.900  0.1256  0.9389  0.9997
12500TIP3    H237440   4.941   3.988   4.766 -0.6293  0.0369  0.6240
12501TIP3   OH237441   4.969   5.781   4.336  0.6850 -0.5432  0.1342
12501TIP3    H137442   4.952   5.787   4.242  1.4261  0.2535  0.0405
12501TIP3    H237443   4.885   5.801   4.377  0.2702 -1.2473 -0.3577
12502TIP3   OH237444   5.921   6.214   4.552 -0.6061  0.3932  0.4140
12502TIP3    H137445   5.930   6.132   4.600  0.8427  0.2163 -0.1401
12502TIP3    H237446   6.004   6.224   4.504 -1.2764  1.5141 -0.5557
12503TIP3   OH237447   4.710   7.798   4.235  0.0302  0.2286  0.0556
12503TIP3    H137448   4.699   7.703   4.225  1.0485 -0.0063  0.9859
12503TIP3    H237449   4.693   7.833   4.148 -2.5226 -0.5834  0.1993
12504TIP3   OH237450   4.843   6.414   4.140 -0.0001  0.4202  0.3985
12504TIP3    H137451   4.831   6.380   4.229 -0.4625 -0.4757  0.0064
12504TIP3    H237452   4.927   6.378   4.112 -0.9904 -1.3241 -0.4143
12505TIP3   OH237453   5.281   5.598   5.960 -0.2137  0.4104 -0.2388
12505TIP3    H137454   5.215   5.547   5.914 -0.3959  1.5510 -1.2827
12505TIP3    H237455   5.359   5.542   5.961 -0.9113 -0.5580  0.1498
12506TIP3   OH237456   4.632   6.785   6.171 -0.5628 -0.4288 -0.2502
12506TIP3    H137457   4.617   6.875   6.201 -0.6927  0.0965 -1.8703
12506TIP3    H237458   4.720   6.764   6.203 -1.6833 -0.8618  2.8040
12507TIP3   OH237459   8.177   0.390   6.876 -0.1779 -0.4219  0.3185
12507TIP3    H137460   8.226   0.403   6.795 -1.5003  1.7094 -0.1765
12507TIP3    H237461   8.231   0.429   6.945  0.0325 -0.4747  0.1825
12508TIP3   OH237462   4.350   7.118   6.019  0.4205 -0.5621 -0.2223
12508TIP3    H137463   4.364   7.208   6.047 -1.5033  0.2833 -1.7815
12508TIP3    H237464   4.415   7.067   6.066  0.3640  1.4013  2.0675
12509TIP3   OH237465   7.606   4.461   2.642 -1.1464 -0.1430  0.2602
12509TIP3    H137466   7.561   4.545   2.632 -1.6624 -0.1660  2.3135
12509TIP3    H237467   7.622   4.433   2.552  0.4026  2.8658 -0.4697
12510TIP3   OH237468   5.469   5.548   4.929 -0.0818  0.2487 -0.4116
12510TIP3    H137469   5.380   5.544   4.964 -1.1008  1.1489 -2.8547
12510TIP3    H237470   5.519   5.592   4.998 -1.8271  1.0565  0.3698
12511TIP3   OH237471   8.473   4.620   3.929 -0.2249  0.0540  0.4029
12511TIP3    H137472   8.548   4.586   3.979 -0.3332 -0.0624  0.4861
12511TIP3    H237473   8.400   4.617   3.990 -0.1615  0.7575  0.5112
12512TIP3   OH237474   1.366   1.402   0.165  0.4496 -0.4165  0.1709
12512TIP3    H137475   1.431   1.341   0.201  1.7111  1.0286  0.4044
12512TIP3    H237476   1.393   1.414   0.074 -0.5790 -1.2220 -0.2477
12513TIP3   OH237477   5.871   4.593   5.290 -0.2072  0.2693 -0.5793
12513TIP3    H137478   5.865   4.671   5.346 -1.5943  0.3842 -0.8871
12513TIP3    H237479   5.960   4.597   5.255  1.6914 -1.2937  3.7326
12514TIP3   OH237480   5.034   7.184   5.706  0.0078  0.5715 -0.1133
12514TIP3    H137481   5.041   7.248   5.777  0.7081  1.1671 -0.7142
12514TIP3    H237482   4.951   7.138   5.723 -0.8127  2.0506 -0.0326
12515TIP3   OH237483   7.203   0.604   4.533 -0.1866 -0.0491  0.1476
12515TIP3    H137484   7.219   0.617   4.440 -0.4513 -0.6060  0.0232
12515TIP3    H237485   7.110   0.624   4.544 -0.6520 -2.0833 -0.0862
12516TIP3   OH237486   3.487   7.242   3.388  0.1117 -0.5118  0.2154
12516TIP3    H137487   3.430   7.314   3.411  0.5990  0.0024 -0.1754
12516TIP3    H237488   3.573   7.267   3.422  0.2913 -0.8869  0.0489
12517TIP3   OH237489   1.205   1.403   6.644 -0.0933  0.2171  0.0985
12517TIP3    H137490   1.263   1.363   6.708  0.8047  0.2757 -0.6789
12517TIP3    H237491   1.135   1.338   6.631 -0.5771  0.4301  1.5231
12518TIP3   OH237492   6.117   7.396   6.053 -0.1512 -0.1392  0.3195
12518TIP3    H137493   6.213   7.400   6.058 -0.1189  0.3844 -0.5011
12518TIP3    H237494   6.091   7.337   6.123  0.9569 -2.3690 -1.0994
12519TIP3   OH237495   5.355   7.456   5.452  0.2469 -0.0605 -0.1804
12519TIP3    H137496   5.414   7.493   5.385  0.2187 -1.2633 -0.8849
12519TIP3    H237497   5.269   7.491   5.429  0.8816  3.0366  1.8192
12520TIP3   OH237498   4.861   5.236   3.706  0.4716 -0.0463  0.0770
12520TIP3    H137499   4.875   5.301   3.637  0.8570 -0.5899 -0.3654
12520TIP3    H237500   4.896   5.278   3.785  0.5237  0.3692 -0.1620
12521TIP3   OH237501   6.339   6.255   5.046 -0.0402 -0.1488 -0.2761
12521TIP3    H137502   6.320   6.229   4.956 -2.5949 -0.2147  0.2547
12521TIP3    H237503   6.420   6.306   5.039  1.7174 -3.0108 -2.1440
12522TIP3   OH237504   8.380   5.946   6.324  0.0852  0.3481  0.0104
12522TIP3    H137505   8.408   6.031   6.360  0.9546 -0.0986  0.4256
12522TIP3    H237506   8.289   5.959   6.300 -0.1282  1.0656  1.1565
12523TIP3   OH237507   7.362   7.077   4.494  0.2603 -0.1698 -0.7575
12523TIP3    H137508   7.456   7.083   4.481  0.5429 -0.9642  0.9098
12523TIP3    H237509   7.344   7.130   4.571 -0.9899  1.8067 -2.3298
12524TIP3   OH237510   4.427   5.035   3.937  0.2416 -0.1792 -0.2728
12524TIP3    H137511   4.403   4.988   4.017  3.6031  1.3980  1.7824
12524TIP3    H237512   4.458   5.121   3.968  2.9757 -0.0401 -3.0890
12525TIP3   OH237513   5.078   7.212   4.979 -0.1980 -0.4581  0.2850
12525TIP3    H137514   5.122   7.213   5.064  0.5591  1.3296 -0.1015
12525TIP3    H237515   4.985   7.216   5.000  0.0526  2.2238  1.0124
12526TIP3   OH237516   5.100   6.287   4.885 -0.3676  0.1062  0.2489
12526TIP3    H137517   5.040   6.212   4.880  0.9846 -1.1961  2.8097
12526TIP3    H237518   5.156   6.268   4.960  0.6690  3.2258  0.3226
12527TIP3   OH237519   5.089   6.982   4.754 -0.3581 -0.5419 -0.3006
12527TIP3    H137520   5.104   7.049   4.821  0.6618  0.4117 -1.4554
12527TIP3    H237521   5.158   6.917   4.769 -0.0186 -0.2376 -0.5297
12528TIP3   OH237522   8.038   6.529   5.443 -0.5968 -0.3792 -0.1950
12528TIP3    H137523   8.031   6.494   5.532 -1.5621 -1.0035 -0.5085
12528TIP3    H237524   8.123   6.573   5.441  0.4134 -2.2292  0.3939
12529TIP3   OH237525   6.891   5.765   5.677  1.0076  0.2229  0.2184
12529TIP3    H137526   6.831   5.717   5.734 -0.1503  1.4703  0.0980
12529TIP3    H237527   6.963   5.791   5.734  0.9957 -0.5118  0.5794
12530TIP3   OH237528   5.171   7.105   6.222 -0.3307  0.2759 -0.0981
12530TIP3    H137529   5.081   7.073   6.213 -0.2150 -0.1897  0.3683
12530TIP3    H237530   5.221   7.053   6.160 -0.1309 -0.5157  0.7038
12531TIP3   OH237531   6.098   5.719   6.140 -0.4618  0.5154  0.3712
12531TIP3    H137532   6.121   5.798   6.190  0.1237  1.1326 -0.8740
12531TIP3    H237533   6.115   5.742   6.049  1.0516 -1.5134  0.1126
12532TIP3   OH237534   5.955   4.310   6.923 -0.5393 -0.3913  0.1620
12532TIP3    H137535   5.924   4.353   6.843  0.0014 -0.0242  0.1398
12532TIP3    H237536   6.019   4.246   6.892  0.6678  0.6720  0.3789
12533TIP3   OH237537   4.102   6.087   3.971 -0.2043  0.7049 -0.2701
12533TIP3    H137538   4.036   6.153   3.989  2.7560  4.1936 -1.5671
12533TIP3    H237539   4.146   6.073   4.055 -0.5355  0.7141 -0.0958
12534TIP3   OH237540   5.814   7.158   5.330 -0.2183  0.1875 -0.5498
12534TIP3    H137541   5.743   7.213   5.362 -0.1781  0.4267 -0.8649
12534TIP3    H237542   5.814   7.173   5.235 -0.8016 -1.0529 -0.7499
12535TIP3   OH237543   5.772   6.810   5.373  0.0052  0.1847 -0.2842
12535TIP3    H137544   5.831   6.738   5.392 -0.1644  0.3780  1.0842
12535TIP3    H237545   5.705   6.805   5.442  0.1988  1.8454  0.0624
12536TIP3   OH237546   5.913   6.105   5.424 -0.0605  0.1584  0.2979
12536TIP3    H137547   5.896   6.027   5.475  1.3856  0.7830  1.7627
12536TIP3    H237548   5.855   6.097   5.348 -1.6969 -1.1353  1.6372
12537TIP3   OH237549   4.177   6.629   5.190  0.1900  0.1857 -0.5402
12537TIP3    H137550   4.115   6.559   5.169 -0.1732  0.2028  0.4348
12537TIP3    H237551   4.155   6.653   5.281  0.6463  1.2062 -0.7002
12538TIP3   OH237552   5.802   6.572   4.457 -0.5272 -0.3240 -0.3331
12538TIP3    H137553   5.838   6.553   4.544  2.5937  1.7087 -1.0828
12538TIP3    H237554   5.725   6.626   4.475  0.6863  0.9717  1.1908
12539TIP3   OH237555   4.299   3.962   5.661 -0.2493 -0.1812 -0.0318
12539TIP3    H137556   4.209   3.990   5.646 -0.6846 -1.3322  0.3650
12539TIP3    H237557   4.294   3.904   5.737  0.6821 -0.9746 -0.5563
12540TIP3   OH237558   7.563   0.288   4.152  0.4216  0.0193 -0.0758
12540TIP3    H137559   7.625   0.240   4.097  0.9100  0.7302 -0.1448
12540TIP3    H237560   7.584   0.380   4.139 -0.8618  0.2858 -0.3374
12541TIP3   OH237561   5.326   4.719   4.365  0.0870  0.5390 -0.0843
12541TIP3    H137562   5.371   4.641   4.333 -0.4838  1.0042 -2.0496
12541TIP3    H237563   5.234   4.702   4.347 -0.0967  1.4167  0.0265
12542TIP3   OH237564   5.339   5.886   4.839 -0.1759  0.6810  0.4641
12542TIP3    H137565   5.244   5.890   4.827 -0.2803  0.4635  1.1608
12542TIP3    H237566   5.368   5.822   4.774 -0.6866 -0.2826  1.1677
12543TIP3   OH237567   4.423   6.108   5.411 -0.3319  0.2294 -0.1950
12543TIP3    H137568   4.497   6.151   5.368  0.5865 -0.9480  0.1833
12543TIP3    H237569   4.443   6.114   5.505 -1.5162  1.3288 -0.0045
12544TIP3   OH237570   3.498   5.939   4.549 -0.0775 -0.7327 -0.5166
12544TIP3    H137571   3.473   5.883   4.475 -1.1906 -0.3149 -0.4694
12544TIP3    H237572   3.531   5.878   4.615  0.2305 -1.1795 -1.0826
12545TIP3   OH237573   1.092   0.954   4.148 -0.7061 -0.1015  0.3639
12545TIP3    H137574   1.093   1.018   4.077  0.0838 -0.7225 -0.2065
12545TIP3    H237575   1.000   0.931   4.160 -1.0711  1.7063  1.1032
12546TIP3   OH237576   6.115   5.107   5.801  0.4441 -0.3470 -0.2400
12546TIP3    H137577   6.190   5.143   5.754  1.1070  1.1953  1.9727
12546TIP3    H237578   6.142   5.105   5.893 -1.9329 -0.5099  0.4853
12547TIP3   OH237579   5.209   7.679   4.774 -0.1226  0.0150  0.1014
12547TIP3    H137580   5.159   7.601   4.797 -0.6230  0.3653  0.2313
12547TIP3    H237581   5.184   7.698   4.683 -0.6352  0.4891  0.3354
12548TIP3   OH237582   3.751   6.714   3.970 -0.0439 -0.0815 -0.4996
12548TIP3    H137583   3.730   6.772   4.043 -1.5405 -0.8042 -0.3406
12548TIP3    H237584   3.751   6.627   4.008 -0.1098 -0.3926 -1.2138
12549TIP3   OH237585   3.919   6.305   4.576 -0.3932 -0.5228 -0.6084
12549TIP3    H137586   3.894   6.257   4.655 -1.0112 -0.9876 -1.0832
12549TIP3    H237587   4.012   6.321   4.587  0.0946 -2.8615 -0.9695
12550TIP3   OH237588   7.932   6.496   5.184  0.2724  0.8876 -0.0740
12550TIP3    H137589   7.852   6.443   5.182  0.6451  0.3579 -1.0003
12550TIP3    H237590   7.958   6.495   5.277  1.3111 -2.1358 -0.3282
12551TIP3   OH237591   7.813   7.086   6.049 -0.0862 -0.0363  0.3416
12551TIP3    H137592   7.761   7.036   5.985  0.3410 -1.1302  0.8394
12551TIP3    H237593   7.762   7.166   6.064 -1.5285 -1.0036  0.6593
12552TIP3   OH237594   0.389   0.481   6.232 -0.5073  0.5696 -0.5528
12552TIP3    H137595   0.470   0.462   6.185  1.4426  2.0909  2.0652
12552TIP3    H237596   0.341   0.540   6.175  2.0741  2.8507 -0.4407
12553TIP3   OH237597   7.723   5.555   5.408  0.4152 -0.1683 -0.0541
12553TIP3    H137598   7.715   5.645   5.375  1.0023  0.7358  2.1431
12553TIP3    H237599   7.815   5.534   5.398  0.1800 -0.7341 -1.0617
12554TIP3   OH237600   5.517   6.152   4.345 -0.4646  0.3707 -0.4755
12554TIP3    H137601   5.528   6.125   4.254 -1.0257 -0.3891 -0.3208
12554TIP3    H237602   5.571   6.090   4.395  2.0298  2.4139 -0.4828
12555TIP3   OH237603   5.833   5.142   6.720  0.4001 -0.2500 -0.2643
12555TIP3    H137604   5.845   5.203   6.792  0.0552 -1.3989  0.7914
12555TIP3    H237605   5.768   5.079   6.753 -0.9415  0.1217 -2.1478
12556TIP3   OH237606   6.944   6.805   4.999 -0.4994  0.0643  0.3746
12556TIP3    H137607   6.985   6.889   5.022 -0.2468  0.1506 -0.3708
12556TIP3    H237608   7.017   6.745   4.988 -0.6370 -0.0626  0.1544
12557TIP3   OH237609   7.302   6.769   5.716 -0.2690  0.1248 -0.5871
12557TIP3    H137610   7.236   6.787   5.783 -1.5487 -1.4983 -1.3852
12557TIP3    H237611   7.307   6.674   5.711  3.1975  0.1852  0.4540
12558TIP3   OH237612   3.735   5.316   2.839  0.1306  0.0501 -0.8244
12558TIP3    H137613   3.697   5.336   2.925 -1.3086  2.0401 -1.8732
12558TIP3    H237614   3.815   5.368   2.836  1.8029 -2.3680  0.4763
12559TIP3   OH237615   2.942   4.337   3.600 -0.2059 -0.5588  0.1382
12559TIP3    H137616   2.936   4.262   3.661 -1.2700 -0.0865  0.6337
12559TIP3    H237617   3.034   4.363   3.603 -0.4425  0.1162  2.3612
12560TIP3   OH237618   6.353   5.610   4.830  0.0693  0.1953  0.2426
12560TIP3    H137619   6.356   5.547   4.903  2.7772 -0.0614 -0.0506
12560TIP3    H237620   6.441   5.609   4.793 -0.4500  2.5409 -1.1905
12561TIP3   OH237621   3.412   6.124   3.766  0.5921 -0.0989  0.2088
12561TIP3    H137622   3.453   6.154   3.847  0.6556  0.3022  0.0293
12561TIP3    H237623   3.485   6.110   3.706  0.6244 -1.3744  0.5398
12562TIP3   OH237624   1.950   0.868   5.962 -0.2119  0.0964  0.3055
12562TIP3    H137625   1.939   0.925   6.038  1.3115  2.5515 -1.2656
12562TIP3    H237626   1.871   0.882   5.910  0.4368  1.2404 -0.3751
12563TIP3   OH237627   6.134   5.493   5.782 -0.5023 -0.6154 -0.1672
12563TIP3    H137628   6.048   5.459   5.758 -0.5270 -0.6134 -0.0783
12563TIP3    H237629   6.152   5.455   5.868 -0.4614 -0.5277 -0.1369
12564TIP3   OH237630   5.047   7.829   5.179  0.4020  0.1981  0.5098
12564TIP3    H137631   4.991   7.900   5.148 -0.4554 -1.4675 -1.8765
12564TIP3    H237632   4.989   7.753   5.183  0.6542  0.0568  5.4898
12565TIP3   OH237633   7.646   6.207   6.126 -0.3823 -0.0023 -0.1654
12565TIP3    H137634   7.597   6.127   6.110  1.5395 -1.3063  0.3210
12565TIP3    H237635   7.664   6.206   6.220  1.0807  0.1336 -0.4247
12566TIP3   OH237636   1.915   0.996   2.817 -0.2718  0.7103 -0.0394
12566TIP3    H137637   1.840   0.976   2.872 -0.1387  0.3461  0.0058
12566TIP3    H237638   1.978   0.926   2.834 -0.9960 -0.4660 -2.0663
12567TIP3   OH237639   7.494   4.294   6.699  1.0807  0.2536 -0.1373
12567TIP3    H137640   7.411   4.332   6.670 -0.5207 -0.2694  3.5268
12567TIP3    H237641   7.525   4.355   6.766  2.4497 -0.8598  0.2464
12568TIP3   OH237642   8.106   5.972   5.105 -0.1711  1.0729  0.3480
12568TIP3    H137643   8.124   5.905   5.171 -1.5045  1.6344  1.2857
12568TIP3    H237644   8.020   5.950   5.071  0.3429  1.0163 -0.9532
12569TIP3   OH237645   2.832   4.500   4.474 -0.5247 -0.2115 -0.1298
12569TIP3    H137646   2.863   4.411   4.457 -2.4671 -0.9520  0.1087
12569TIP3    H237647   2.777   4.492   4.552  1.2111  1.6236  1.3455
12570TIP3   OH237648   3.038   6.482   4.582  0.1914 -0.0480  0.2561
12570TIP3    H137649   3.102   6.532   4.632  0.6453 -0.1397 -0.2326
12570TIP3    H237650   3.088   6.411   4.542 -0.5230 -1.1572  1.3050
12571TIP3   OH237651   4.714   4.523   3.583 -0.1663 -0.0565  0.4331
12571TIP3    H137652   4.803   4.488   3.582  0.0227  0.4359 -0.5464
12571TIP3    H237653   4.660   4.453   3.548 -0.0555 -0.0540  0.2579
12572TIP3   OH237654   6.444   6.580   3.648  0.2983  0.0026  0.1303
12572TIP3    H137655   6.446   6.598   3.742  0.5403  0.4909  0.0333
12572TIP3    H237656   6.453   6.665   3.607 -0.6354 -0.1154 -0.3462
12573TIP3   OH237657   7.786   6.233   4.681 -0.1128 -0.3471  0.1684
12573TIP3    H137658   7.879   6.216   4.667 -0.2239 -0.8575  0.0204
12573TIP3    H237659   7.751   6.249   4.594  0.0626  1.0338  0.3491
12574TIP3   OH237660   5.578   4.655   5.454  0.2694 -0.0823  0.0886
12574TIP3    H137661   5.518   4.664   5.380  1.0006 -0.0614 -0.5155
12574TIP3    H237662   5.562   4.567   5.488 -0.2207 -0.0137  0.0437
12575TIP3   OH237663   0.897   0.602   4.549 -0.2563 -0.2236 -0.3895
12575TIP3    H137664   0.981   0.639   4.575 -0.4829 -0.5735  0.8920
12575TIP3    H237665   0.902   0.594   4.454  1.4604 -0.9841 -0.2500
12576TIP3   OH237666   8.451   3.571   3.120 -0.0070 -0.5133 -0.0871
12576TIP3    H137667   8.460   3.476   3.120 -1.1636 -0.6494 -2.5625
12576TIP3    H237668   8.357   3.587   3.128  0.3217  0.5101  2.5677
12577TIP3   OH237669   5.006   6.054   4.848  0.2850  1.0725  0.0220
12577TIP3    H137670   4.941   5.995   4.888 -1.9198  2.4853 -1.3598
12577TIP3    H237671   5.050   5.999   4.782  3.2135 -0.9658  3.4874
12578TIP3   OH237672   5.831   5.938   5.997  0.5188 -0.4960  0.5655
12578TIP3    H137673   5.926   5.929   5.995  0.5061 -0.9180  1.8487
12578TIP3    H237674   5.816   6.033   5.988  1.0679 -0.3824  0.8358
12579TIP3   OH237675   5.312   6.252   6.019 -0.3741  0.0761  0.3314
12579TIP3    H137676   5.244   6.209   5.966 -1.4064  0.9999  0.8764
12579TIP3    H237677   5.337   6.329   5.968 -1.3829  0.9775  1.1642
12580TIP3   OH237678   4.881   5.840   3.478  0.3610 -0.0175  0.3059
12580TIP3    H137679   4.811   5.903   3.496 -0.9486 -1.1869 -0.6422
12580TIP3    H237680   4.843   5.755   3.499  0.9897 -0.8074 -1.6524
12581TIP3   OH237681   7.005   6.425   5.850  0.0748 -0.1924  0.3149
12581TIP3    H137682   6.970   6.506   5.887 -0.4053 -0.1996 -0.1199
12581TIP3    H237683   7.083   6.453   5.802  0.3363 -0.0937  0.7927
12582TIP3   OH237684   6.741   7.585   6.877  0.5939  0.3469 -0.0842
12582TIP3    H137685   6.684   7.635   6.935  0.2552 -1.1798  0.9261
12582TIP3    H237686   6.684   7.518   6.839  1.2461  0.1412 -0.7051
12583TIP3   OH237687   5.321   5.826   3.185  0.0866  0.4420  0.2996
12583TIP3    H137688   5.372   5.852   3.107 -0.4694  0.2363 -0.1361
12583TIP3    H237689   5.384   5.780   3.240 -0.3185 -2.6037 -1.6470
12584TIP3   OH237690   3.865   6.224   5.772  0.1439  0.0130 -0.2431
12584TIP3    H137691   3.812   6.207   5.850 -1.6768  1.8212 -1.0346
12584TIP3    H237692   3.865   6.141   5.724 -0.8646 -0.3718  0.4192
12585TIP3   OH237693   0.380   0.157   4.982  0.8521  0.6520  0.1451
12585TIP3    H137694   0.310   0.209   5.022  0.8885 -0.2008  1.3103
12585TIP3    H237695   0.363   0.068   5.010  0.4426 -0.0883 -2.3605
12586TIP3   OH237696   5.838   5.539   5.729 -0.3458  0.0817 -0.2837
12586TIP3    H137697   5.782   5.472   5.690 -0.3518  0.8693 -1.6475
12586TIP3    H237698   5.780   5.614   5.744  0.1229  0.5443 -0.7596
12587TIP3   OH237699   8.503   0.600   4.513 -0.1596 -0.0005  0.0343
12587TIP3    H137700   8.422   0.647   4.495 -1.1023 -1.0823  1.2971
12587TIP3    H237701   8.476   0.508   4.519  1.1624 -0.3747  0.4604
12588TIP3   OH237702   3.794   4.605   0.052  0.1746 -0.2898  0.4051
12588TIP3    H137703   3.843   4.638  -0.024 -0.5332  0.8116  0.4190
12588TIP3    H237704   3.811   4.669   0.121 -2.6317  1.0687 -0.0801
12589TIP3   OH237705   5.623   6.284   4.602  0.1406  0.0305  0.3643
12589TIP3    H137706   5.606   6.244   4.517  0.6294  0.2570  0.1638
12589TIP3    H237707   5.718   6.281   4.612  0.0110 -0.9807  1.3804
12590TIP3   OH237708   5.695   5.669   4.808 -0.2907 -0.3620  0.5602
12590TIP3    H137709   5.756   5.631   4.872 -0.7943  1.8542  2.4462
12590TIP3    H237710   5.612   5.623   4.825  0.3642 -2.0984 -0.7785
12591TIP3   OH237711   5.921   5.014   6.214  0.3967 -0.5624  0.5627
12591TIP3    H137712   5.913   4.922   6.190 -0.4310 -0.5661  0.8251
12591TIP3    H237713   5.882   5.020   6.301  1.5401 -0.1804  1.0616
12592TIP3   OH237714   6.181   7.442   5.608  0.4987  0.0930 -0.0702
12592TIP3    H137715   6.203   7.350   5.627 -1.7255 -0.2082  1.2245
12592TIP3    H237716   6.151   7.441   5.518 -0.5832 -0.6569  0.2919
12593TIP3   OH237717   3.400   4.926   6.153 -0.1144  0.6428  0.3004
12593TIP3    H137718   3.320   4.915   6.101  0.6411  0.3951 -0.8309
12593TIP3    H237719   3.471   4.920   6.089  0.7556  2.5389  1.0610
12594TIP3   OH237720   4.584   5.944   5.975  0.2703 -0.0921 -0.4033
12594TIP3    H137721   4.629   6.019   5.936 -0.6238  1.0421  0.7011
12594TIP3    H237722   4.529   5.982   6.044 -0.8152 -1.6668 -0.3669
12595TIP3   OH237723   7.623   7.943   6.818  0.2482  0.1188 -0.0736
12595TIP3    H137724   7.682   7.937   6.743  0.7397  1.6254  0.1807
12595TIP3    H237725   7.535   7.934   6.779  0.5333  0.1409 -0.7337
12596TIP3   OH237726   4.362   6.024   4.367 -0.1996  0.4297 -0.3788
12596TIP3    H137727   4.446   6.058   4.334  0.5546  0.2618  1.3093
12596TIP3    H237728   4.298   6.090   4.341  0.5921  0.9732 -0.9723
12597TIP3   OH237729   0.642   0.733   5.094  0.3071 -0.2453  0.2578
12597TIP3    H137730   0.612   0.775   5.013  0.3837  0.3913  0.5543
12597TIP3    H237731   0.577   0.665   5.110 -0.5865  0.6575  0.5054
12598TIP3   OH237732   4.600   6.481   5.122  0.5975 -0.4683 -0.4220
12598TIP3    H137733   4.524   6.423   5.116 -2.6504  3.4834  0.2721
12598TIP3    H237734   4.633   6.470   5.211 -1.4091  0.3935  0.4454
12599TIP3   OH237735   2.728   6.541   3.624  0.2695 -0.1440  0.1899
12599TIP3    H137736   2.716   6.458   3.670 -0.8580 -0.3068 -0.3900
12599TIP3    H237737   2.823   6.547   3.610  0.2515 -1.9011 -0.8144
12600TIP3   OH237738   3.723   3.937   3.364 -0.0851 -0.4146 -0.5102
12600TIP3    H137739   3.658   3.911   3.299 -1.4358  5.5138 -1.8009
12600TIP3    H237740   3.673   3.948   3.445  0.1259 -0.1942 -0.4098
12601TIP3   OH237741   6.723   6.701   4.529 -0.2684 -0.0960 -0.6227
12601TIP3    H137742   6.740   6.618   4.486  1.2131 -0.8285  1.2660
12601TIP3    H237743   6.632   6.695   4.558  0.1063 -1.4600  0.3209
12602TIP3   OH237744   6.476   5.072   5.777 -0.1731  0.3077 -0.1202
12602TIP3    H137745   6.535   5.110   5.843  0.6075  0.6813 -1.0124
12602TIP3    H237746   6.478   5.135   5.705 -1.2945  0.0770 -0.3674
12603TIP3   OH237747   2.681   3.927   0.835  0.3217 -0.1885  0.1107
12603TIP3    H137748   2.611   3.903   0.774 -1.3299  2.6076  0.8160
12603TIP3    H237749   2.762   3.916   0.784 -0.9787  1.5534 -2.4445
12604TIP3   OH237750   6.890   6.320   6.218  0.4857  0.0452  0.7851
12604TIP3    H137751   6.839   6.290   6.143 -0.4767  1.0089  1.0370
12604TIP3    H237752   6.825   6.341   6.284  1.3057 -0.2607  1.6953
12605TIP3   OH237753   5.828   5.835   5.518  0.0464  0.1755  1.3367
12605TIP3    H137754   5.762   5.780   5.476  1.0959  0.6888 -1.0686
12605TIP3    H237755   5.900   5.776   5.539  0.4907  0.3083  0.2385
12606TIP3   OH237756   7.616   6.855   6.054 -0.0573  1.0094 -0.6428
12606TIP3    H137757   7.534   6.892   6.088 -0.6407 -1.0053  0.1952
12606TIP3    H237758   7.592   6.821   5.967 -0.5551 -1.1017  0.2913
12607TIP3   OH237759   0.268   0.052   6.193 -0.4033  0.2514  0.3175
12607TIP3    H137760   0.248   0.016   6.107 -2.1630  0.7023  0.5099
12607TIP3    H237761   0.363   0.065   6.193 -0.1868 -1.1823 -0.9790
12608TIP3   OH237762   1.956   2.176   1.871 -0.4174  0.7394 -0.0789
12608TIP3    H137763   1.923   2.262   1.898 -1.3570  0.3980 -0.1373
12608TIP3    H237764   1.989   2.190   1.783 -2.2256  0.6388 -0.7998
12609TIP3   OH237765   4.388   5.857   4.837  0.9987 -0.2449  0.2156
12609TIP3    H137766   4.397   5.868   4.742 -0.6984 -1.7945 -0.1563
12609TIP3    H237767   4.443   5.926   4.874  1.5198  0.5283 -1.8906
12610TIP3   OH237768   4.913   6.924   5.971 -0.3660 -0.4222  0.1336
12610TIP3    H137769   4.908   6.829   5.957  3.1121 -0.4305 -1.7326
12610TIP3    H237770   4.892   6.962   5.886  1.3478  0.3122  0.0096
12611TIP3   OH237771   5.329   5.872   5.936 -0.3579  0.2334  0.4384
12611TIP3    H137772   5.337   5.777   5.942 -0.6712  0.2871  1.8400
12611TIP3    H237773   5.240   5.887   5.903 -0.0744  0.0248 -0.4197
12612TIP3   OH237774   5.949   6.431   5.077  0.3567  0.1875 -0.0540
12612TIP3    H137775   6.033   6.466   5.105  0.4149 -1.3377  1.7430
12612TIP3    H237776   5.966   6.395   4.990  1.0082  1.8846 -0.6394
12613TIP3   OH237777   3.845   1.722   0.766 -0.1699 -0.5827  0.4034
12613TIP3    H137778   3.930   1.692   0.733  0.8772  1.5814  1.0223
12613TIP3    H237779   3.859   1.733   0.860 -1.6945 -1.9540  0.8241
12614TIP3   OH237780   5.751   5.661   6.511  0.2009  0.0793  0.3911
12614TIP3    H137781   5.780   5.677   6.422 -2.3878  1.3195 -0.2735
12614TIP3    H237782   5.764   5.567   6.524 -0.7474 -0.3980 -1.8248
12615TIP3   OH237783   5.795   7.519   5.061 -0.2742 -0.4907 -0.4184
12615TIP3    H137784   5.767   7.437   5.101 -0.3970 -1.4943 -2.4730
12615TIP3    H237785   5.722   7.579   5.076 -0.9032 -1.2618 -0.3310
12616TIP3   OH237786   6.687   6.957   4.476 -0.7487  0.4041 -0.3677
12616TIP3    H137787   6.712   6.867   4.497  0.0474  0.7489  0.1587
12616TIP3    H237788   6.603   6.948   4.431 -0.7613 -0.5894 -0.1592
12617TIP3   OH237789   6.033   0.115   5.785  0.5815 -0.2183 -0.8814
12617TIP3    H137790   5.963   0.068   5.831  1.3164 -0.9814 -0.5262
12617TIP3    H237791   6.034   0.202   5.825  0.1426 -0.3570 -0.5631
12618TIP3   OH237792   6.436   5.869   4.763 -0.2511  0.1413  0.4120
12618TIP3    H137793   6.516   5.868   4.816  0.0143 -0.0385  0.0174
12618TIP3    H237794   6.383   5.797   4.798  0.8367 -1.3713 -0.9223
12619TIP3   OH237795   5.279   6.701   4.092  0.0142  0.0861  0.2843
12619TIP3    H137796   5.344   6.739   4.152  0.6611 -1.8497  0.8212
12619TIP3    H237797   5.330   6.648   4.031 -0.9098 -0.1194 -0.3233
12620TIP3   OH237798   6.939   7.754   5.630  0.2653  0.6784  0.2550
12620TIP3    H137799   6.961   7.787   5.543 -0.5281  1.1063  0.2038
12620TIP3    H237800   7.007   7.788   5.687  1.3789 -0.4870 -0.3720
12621TIP3   OH237801   6.093   5.809   5.866  0.2099 -0.1605  0.1524
12621TIP3    H137802   6.139   5.876   5.816  1.6791 -0.1920  1.4006
12621TIP3    H237803   6.101   5.729   5.815  1.7601 -0.2098  0.4608
12622TIP3   OH237804   6.284   6.493   4.125 -0.1346  0.0796 -0.1728
12622TIP3    H137805   6.238   6.558   4.177 -0.3195 -0.0041 -0.2328
12622TIP3    H237806   6.217   6.430   4.099  0.5395 -1.6536  2.1905
12623TIP3   OH237807   5.455   6.545   3.960  0.1235 -0.5418 -0.1977
12623TIP3    H137808   5.441   6.504   4.045  2.1907  0.3397  0.6058
12623TIP3    H237809   5.526   6.494   3.920  0.9055  0.5988 -0.2933
12624TIP3   OH237810   5.084   6.912   4.195 -0.1543  0.4664  0.0743
12624TIP3    H137811   5.054   6.963   4.121 -0.3195  1.4299  0.7940
12624TIP3    H237812   5.135   6.840   4.157 -0.8656  0.5290 -0.9900
12625TIP3   OH237813   5.736   6.326   5.245  0.0947 -0.8094  0.3871
12625TIP3    H137814   5.701   6.255   5.191  0.8958 -1.7709  1.1216
12625TIP3    H237815   5.803   6.367   5.190 -1.4587  0.4041 -0.6447
12626TIP3   OH237816   6.102   6.056   5.232 -0.1610  0.4744  0.0340
12626TIP3    H137817   6.055   6.088   5.308  0.2416  1.5961 -0.1719
12626TIP3    H237818   6.184   6.106   5.232  0.7340 -0.9646  0.0117
12627TIP3   OH237819   4.270   5.821   4.540 -0.5248 -0.3213  0.4586
12627TIP3    H137820   4.294   5.874   4.464  0.8578 -0.3010  0.9018
12627TIP3    H237821   4.302   5.733   4.519  1.0258 -0.0293  1.5736
12628TIP3   OH237822   5.537   5.856   6.437  0.4469  0.0019  0.0418
12628TIP3    H137823   5.615   5.890   6.394  0.7313  1.4489  1.6637
12628TIP3    H237824   5.568   5.781   6.488  0.8849  0.8781  1.0801
12629TIP3   OH237825   7.116   6.307   5.143  0.2874  0.0464  0.3844
12629TIP3    H137826   7.135   6.344   5.229 -1.4100  0.6223  0.5148
12629TIP3    H237827   7.177   6.353   5.084  2.3348 -1.2474  1.4273
12630TIP3   OH237828   6.439   5.922   5.469  0.0095 -0.1995  0.2034
12630TIP3    H137829   6.412   5.924   5.377  1.4264  0.1705 -0.2211
12630TIP3    H237830   6.382   5.857   5.509 -0.8834 -0.0923 -0.8559
12631TIP3   OH237831   5.463   6.176   4.854 -0.2364 -0.0605  0.1323
12631TIP3    H137832   5.414   6.104   4.812 -1.3431 -0.8017  2.6223
12631TIP3    H237833   5.538   6.133   4.895 -1.5314 -0.0146  2.6371
12632TIP3   OH237834   4.544   5.315   4.638  0.0315  0.0499 -0.1023
12632TIP3    H137835   4.584   5.328   4.552 -0.4717 -0.2154 -0.3770
12632TIP3    H237836   4.510   5.401   4.662  1.1341  0.3838  0.3279
12633TIP3   OH237837   5.759   6.876   5.117 -0.2482 -0.0076  0.0858
12633TIP3    H137838   5.737   6.969   5.119  3.0021  0.8197  0.9861
12633TIP3    H237839   5.742   6.845   5.206  2.1164  0.6614  0.8166
12634TIP3   OH237840   4.910   5.686   4.085  0.1584  0.2103 -0.0212
12634TIP3    H137841   4.869   5.695   3.999 -0.8015 -0.1805  0.3818
12634TIP3    H237842   5.001   5.665   4.066 -0.0066  0.3013 -0.9431
12635TIP3   OH237843   8.141   5.117   4.511 -0.3723  0.4715  0.1597
12635TIP3    H137844   8.058   5.160   4.529 -1.1954 -1.0888  0.1187
12635TIP3    H237845   8.203   5.190   4.498 -1.5968  1.6293  0.7105
12636TIP3   OH237846   6.216   7.165   5.651  0.0999  0.1807  0.2900
12636TIP3    H137847   6.277   7.123   5.590 -1.5224 -0.8921 -0.6407
12636TIP3    H237848   6.131   7.157   5.609 -0.5423  2.7288  1.0022
12637TIP3   OH237849   7.187   4.361   5.943  0.1989 -0.4160  0.1797
12637TIP3    H137850   7.148   4.401   6.021  1.2231 -0.3210  0.6581
12637TIP3    H237851   7.139   4.399   5.869  0.7571  1.2434  0.6511
12638TIP3   OH237852   6.139   5.382   6.028 -0.5659  0.1187  0.7015
12638TIP3    H137853   6.198   5.433   6.083 -2.9286  1.6269  1.9260
12638TIP3    H237854   6.157   5.291   6.052  1.7838  0.4662  0.4476
12639TIP3   OH237855   6.474   5.688   5.174  0.2604  0.0292  0.1823
12639TIP3    H137856   6.556   5.702   5.222  0.2697 -0.8529  0.4362
12639TIP3    H237857   6.497   5.702   5.082  0.6752 -0.1300  0.2607
12640TIP3   OH237858   3.783   6.755   4.314 -0.5558  0.7754  0.3776
12640TIP3    H137859   3.737   6.804   4.245 -1.5092 -0.5417  0.0669
12640TIP3    H237860   3.859   6.719   4.270 -1.8447 -1.1479 -0.3374
12641TIP3   OH237861   4.955   6.638   5.422 -0.1713 -0.1171 -0.4086
12641TIP3    H137862   4.962   6.564   5.483  1.7869 -0.5975 -1.1824
12641TIP3    H237863   4.908   6.705   5.471  0.1723 -0.9981  1.1573
12642TIP3   OH237864   8.276   2.444   0.134 -0.1205 -0.3588  0.0311
12642TIP3    H137865   8.321   2.501   0.072  0.9921 -1.5633 -0.2895
12642TIP3    H237866   8.321   2.359   0.126 -0.0704 -0.5786  2.3509
12643TIP3   OH237867   0.734   0.254   6.135  0.2749 -0.5332  0.7040
12643TIP3    H137868   0.703   0.334   6.093  2.7083  0.6710  1.0833
12643TIP3    H237869   0.766   0.200   6.063 -1.1238 -1.0777  0.4722
12644TIP3   OH237870   8.009   0.333   4.022  0.1070  0.9488  0.2380
12644TIP3    H137871   7.989   0.367   4.109 -0.7989  1.2137 -0.0685
12644TIP3    H237872   8.019   0.239   4.035 -3.0190  0.5371  0.1625
12645TIP3   OH237873   8.132   6.311   5.897  0.4264 -0.3308 -0.0224
12645TIP3    H137874   8.112   6.384   5.839  0.3545 -0.8774 -0.7021
12645TIP3    H237875   8.123   6.233   5.841 -2.1394 -1.0786  1.3481
12646TIP3   OH237876   7.294   0.336   6.161 -0.0395 -0.3969 -0.0380
12646TIP3    H137877   7.376   0.316   6.205  0.0625  1.9904  0.8974
12646TIP3    H237878   7.320   0.379   6.079 -0.3360 -0.2832 -0.0742
12647TIP3   OH237879   7.557   6.132   5.780 -0.2264 -0.2092 -0.0531
12647TIP3    H137880   7.547   6.058   5.721 -0.8941  0.3919 -0.7099
12647TIP3    H237881   7.494   6.115   5.851 -0.4987 -0.1989 -0.2887
12648TIP3   OH237882   7.583   0.568   5.978  0.4386 -1.0226  0.4917
12648TIP3    H137883   7.648   0.504   5.948 -0.3837 -1.2814 -0.7512
12648TIP3    H237884   7.548   0.607   5.898 -0.8802 -0.8149  1.1572
12649TIP3   OH237885   7.732   0.635   4.376 -0.3183  0.1779  0.1526
12649TIP3    H137886   7.649   0.660   4.417  0.9760 -0.5552  3.4171
12649TIP3    H237887   7.730   0.539   4.376 -0.3137  0.1738 -1.6053
12650TIP3   OH237888   0.923   1.800   6.588 -0.7060  0.1142 -0.6665
12650TIP3    H137889   0.921   1.806   6.493  0.2787 -0.6822 -0.7425
12650TIP3    H237890   0.941   1.708   6.607 -1.2787  0.1952  0.2912
12651TIP3   OH237891   7.850   5.668   5.986  0.0492  0.1509  0.1282
12651TIP3    H137892   7.802   5.590   6.015 -0.3087 -0.1846 -1.3505
12651TIP3    H237893   7.922   5.634   5.934 -0.6748  0.8407 -1.3518
12652TIP3   OH237894   4.037   3.808   0.256 -0.2563  0.4896 -0.6635
12652TIP3    H137895   4.093   3.884   0.272 -0.9234  0.4246  2.1891
12652TIP3    H237896   3.955   3.828   0.302 -0.2061 -2.2358  0.6991
12653TIP3   OH237897   8.503   0.552   3.668 -0.0231  0.0286  0.0450
12653TIP3    H137898   8.472   0.481   3.611  1.1868 -0.4547 -0.0205
12653TIP3    H237899   8.487   0.520   3.757 -0.0256 -0.0705  0.0092
12654TIP3   OH237900   5.762   7.168   4.621  0.4735 -0.3230  1.0925
12654TIP3    H137901   5.681   7.138   4.662  0.4865 -0.1797  1.2261
12654TIP3    H237902   5.832   7.136   4.679  0.6040 -1.8370  0.1095
12655TIP3   OH237903   2.925   2.137   0.174 -0.0817  0.2518 -0.6069
12655TIP3    H137904   2.835   2.120   0.203  0.7419 -0.4440  1.6091
12655TIP3    H237905   2.963   2.189   0.244  1.2368  0.6269 -1.5848
12656TIP3   OH237906   5.026   6.607   4.951  0.5452 -0.1035 -0.4032
12656TIP3    H137907   4.932   6.595   4.936  0.7949 -0.2021 -1.9197
12656TIP3    H237908   5.062   6.519   4.950  0.4529 -0.1928  1.7044
12657TIP3   OH237909   3.107   5.955   4.076  0.2070  0.0127  0.4319
12657TIP3    H137910   3.081   5.942   3.985  1.3364  1.5695 -0.1226
12657TIP3    H237911   3.196   5.919   4.081  0.9816  1.8573  0.3763
12658TIP3   OH237912   3.159   6.134   4.735  0.0339  0.4758 -0.3228
12658TIP3    H137913   3.242   6.090   4.758 -0.3870 -0.0638  0.2001
12658TIP3    H237914   3.186   6.214   4.690  0.9078  1.5747  2.0494
12659TIP3   OH237915   6.621   5.564   4.778  0.0231  0.2156  0.5699
12659TIP3    H137916   6.644   5.472   4.792  3.2531  0.6923 -1.0992
12659TIP3    H237917   6.626   5.575   4.683 -2.2119  1.6803  0.6024
12660TIP3   OH237918   6.755   5.141   3.703  0.9229  0.1042 -0.0502
12660TIP3    H137919   6.698   5.099   3.768  1.6676 -0.4524  0.2446
12660TIP3    H237920   6.787   5.220   3.747  0.3474  0.4409 -0.2321
12661TIP3   OH237921   7.068   5.289   3.760  0.2996  0.5663  0.9018
12661TIP3    H137922   7.114   5.371   3.740  0.7654  0.6808  2.3839
12661TIP3    H237923   6.985   5.318   3.798 -0.3706  0.3484 -0.3565
12662TIP3   OH237924   3.301   5.880   5.047 -0.3455 -0.2448 -0.2010
12662TIP3    H137925   3.229   5.854   4.988 -1.7786  2.5256  0.2742
12662TIP3    H237926   3.259   5.893   5.132  1.1133 -0.6287  0.5968
12663TIP3   OH237927   4.497   4.679   5.677  0.1767 -0.1809 -0.1302
12663TIP3    H137928   4.587   4.668   5.648  0.6820  2.1188  0.4578
12663TIP3    H237929   4.503   4.728   5.759 -1.5578 -1.0613  0.5673
12664TIP3   OH237930   6.375   4.997   4.059 -0.9611  0.5860 -0.1216
12664TIP3    H137931   6.362   4.902   4.066  0.0373  0.4695  0.2074
12664TIP3    H237932   6.292   5.034   4.088 -1.4445 -0.1907 -0.4729
12665TIP3   OH237933   7.124   6.421   4.775 -0.0544  0.2267  0.1766
12665TIP3    H137934   7.178   6.482   4.725  1.1807 -0.8855  0.1340
12665TIP3    H237935   7.173   6.408   4.856 -0.3453 -0.6614  0.2044
12666TIP3   OH237936   5.203   7.578   2.897  0.8628  0.1305  0.8549
12666TIP3    H137937   5.280   7.583   2.840  1.7369  0.6518  2.0409
12666TIP3    H237938   5.219   7.499   2.950 -0.9740 -1.5721 -1.0458
12667TIP3   OH237939   4.138   5.430   5.960 -0.3569  0.0818  0.7856
12667TIP3    H137940   4.174   5.494   6.022  0.0228  0.9330 -0.2966
12667TIP3    H237941   4.179   5.347   5.985 -0.8964  0.2354  2.2375
12668TIP3   OH237942   6.063   6.762   6.486  0.2469  0.0350  0.5313
12668TIP3    H137943   6.038   6.783   6.396  0.2639 -1.2583  0.2242
12668TIP3    H237944   5.996   6.804   6.539 -0.1713  0.1927 -0.1118
12669TIP3   OH237945   3.835   5.234   4.326  0.2799 -0.2829  0.0511
12669TIP3    H137946   3.908   5.187   4.286  0.8517  1.9407 -1.6255
12669TIP3    H237947   3.875   5.286   4.396 -0.1789 -1.4289  1.1750
12670TIP3   OH237948   0.181   6.571   6.380  0.5042 -0.0663  0.4905
12670TIP3    H137949   0.160   6.524   6.460 -0.6071 -0.1967  0.1310
12670TIP3    H237950   0.097   6.606   6.350  0.4908 -1.9896 -1.8538
12671TIP3   OH237951   0.792   7.184   4.645 -0.4354 -0.1989  0.2729
12671TIP3    H137952   0.868   7.232   4.680 -1.0090 -0.2990  1.6707
12671TIP3    H237953   0.824   7.147   4.563  0.7919  0.4538  0.4332
12672TIP3   OH237954   6.295   7.031   5.381 -0.3311  0.2149 -0.7126
12672TIP3    H137955   6.311   7.105   5.322 -2.8160 -0.2568 -2.0567
12672TIP3    H237956   6.212   6.994   5.351 -0.5923 -1.3490  1.7760
12673TIP3   OH237957   7.835   3.578   5.855 -0.3000  0.0618 -0.1864
12673TIP3    H137958   7.775   3.510   5.826  0.1831 -0.4607  0.0330
12673TIP3    H237959   7.817   3.587   5.949  0.1731 -0.3042 -0.0618
12674TIP3   OH237960   5.038   5.469   5.581 -0.2192 -0.1264 -0.2416
12674TIP3    H137961   5.104   5.476   5.650 -0.0311  2.9263 -0.6627
12674TIP3    H237962   4.955   5.457   5.628  0.0926  0.4920  0.4838
12675TIP3   OH237963   4.599   6.969   4.653  0.3345 -0.3664  0.1833
12675TIP3    H137964   4.614   7.046   4.709  1.0066 -1.9359  2.2064
12675TIP3    H237965   4.687   6.937   4.633  0.0105 -2.1279  1.5151
12676TIP3   OH237966   7.203   6.418   2.565  0.5776 -0.4561  0.2243
12676TIP3    H137967   7.136   6.360   2.529  1.3543 -0.6032 -1.0258
12676TIP3    H237968   7.242   6.368   2.637  1.8226 -1.8657 -1.3748
12677TIP3   OH237969   1.672   0.516   1.695  0.0132  0.1790 -0.4312
12677TIP3    H137970   1.617   0.527   1.773 -0.3604  0.6442 -0.7510
12677TIP3    H237971   1.755   0.559   1.718 -0.4180  1.1306 -0.6130
12678TIP3   OH237972   7.672   6.547   3.765 -0.3374  0.1662  0.2295
12678TIP3    H137973   7.704   6.567   3.677 -0.7176 -0.0557  0.0397
12678TIP3    H237974   7.581   6.575   3.765 -1.1490 -2.3663 -0.3281
12679TIP3   OH237975   1.440   5.427   5.657 -0.0921  0.1949 -0.0402
12679TIP3    H137976   1.401   5.452   5.573 -0.4029  1.8751  0.5754
12679TIP3    H237977   1.466   5.336   5.646 -2.3307 -0.3362 -1.1561
12680TIP3   OH237978   8.355   7.719   4.430  0.0511  0.3342 -0.5034
12680TIP3    H137979   8.394   7.798   4.392 -0.2148 -0.6180 -2.8544
12680TIP3    H237980   8.400   7.707   4.513 -2.1903  4.8041  1.5225
12681TIP3   OH237981   7.250   6.513   4.526  0.5320 -0.3382  0.2834
12681TIP3    H137982   7.225   6.548   4.441  1.5065 -0.5305 -0.0860
12681TIP3    H237983   7.191   6.440   4.541 -1.0532  1.0031  0.7362
12682TIP3   OH237984   0.696   0.068   4.952 -0.3851  0.2538 -0.1979
12682TIP3    H137985   0.672  -0.007   4.899  0.8351 -0.4532  0.2295
12682TIP3    H237986   0.615   0.094   4.996 -0.5604 -1.6026  0.6321
12683TIP3   OH237987   6.552   6.096   2.490 -0.0777 -0.1167  0.2070
12683TIP3    H137988   6.492   6.139   2.428 -1.1106 -1.9706 -0.1330
12683TIP3    H237989   6.639   6.115   2.456 -0.5460  1.0665 -0.3516
12684TIP3   OH237990   2.748   0.041   4.745 -0.3620  0.0690 -0.1641
12684TIP3    H137991   2.723  -0.026   4.808  2.4079 -1.3636 -0.5553
12684TIP3    H237992   2.765   0.119   4.798  0.4018 -0.6875  0.7127
12685TIP3   OH237993   2.553   1.057   4.494  0.4588 -0.1138  0.1162
12685TIP3    H137994   2.579   0.970   4.463 -0.2344  0.2922 -1.6660
12685TIP3    H237995   2.627   1.114   4.473 -0.6999  0.4987 -2.4128
12686TIP3   OH237996   1.310   5.990   5.373  0.1276 -0.3481  0.5264
12686TIP3    H137997   1.351   5.905   5.362  2.2055  0.3885  2.3141
12686TIP3    H237998   1.380   6.048   5.402 -1.8464  1.2995  2.2305
12687TIP3   OH237999   0.235   3.657   5.597  0.0824  0.1854  0.1873
12687TIP3    H138000   0.284   3.688   5.673 -0.4352 -1.2817  1.1480
12687TIP3    H238001   0.147   3.691   5.608  0.0325  0.0550  0.1950
12688TIP3   OH238002   6.724   7.920   3.817  0.2792  0.0760  0.2213
12688TIP3    H138003   6.711   8.000   3.868  0.4844  2.2162 -2.9643
12688TIP3    H238004   6.819   7.916   3.802  0.0804  0.1936 -1.1159
12689TIP3   OH238005   6.887   4.602   4.890 -0.4897  0.0464 -0.5997
12689TIP3    H138006   6.971   4.596   4.845  0.1850 -1.2110  0.7943
12689TIP3    H238007   6.879   4.520   4.938 -3.0355 -0.3360 -1.5692
12690TIP3   OH238008   0.712   7.093   5.706  0.5567  0.2750 -0.1270
12690TIP3    H138009   0.743   7.055   5.788 -1.4644  0.4108  0.7412
12690TIP3    H238010   0.719   7.022   5.642  0.4621 -0.3871  0.5899
12691TIP3   OH238011   7.200   6.697   2.593 -0.4132 -0.4134  0.5133
12691TIP3    H138012   7.273   6.723   2.649 -1.8103  1.0252  1.7024
12691TIP3    H238013   7.200   6.601   2.597  3.1227 -0.6036 -1.7777
12692TIP3   OH238014   7.701   6.819   3.149 -0.4153 -0.3122  0.3616
12692TIP3    H138015   7.774   6.878   3.130 -0.8216 -0.2061 -0.8849
12692TIP3    H238016   7.702   6.756   3.078 -1.8932  0.0359  0.0184
12693TIP3   OH238017   1.672   0.180   4.946  0.2244  0.2049 -0.5990
12693TIP3    H138018   1.669   0.187   4.850 -0.6517  2.0343 -0.4568
12693TIP3    H238019   1.691   0.269   4.976  1.3745 -0.5312  0.9024
12694TIP3   OH238020   1.679   4.101   4.833 -0.0256  0.3435 -0.3735
12694TIP3    H138021   1.717   4.166   4.773 -0.2290  1.2543  0.4754
12694TIP3    H238022   1.696   4.136   4.920  1.5606 -1.6759  0.1870
12695TIP3   OH238023   2.129   0.833   5.738  0.1354  0.1861 -0.0496
12695TIP3    H138024   2.072   0.807   5.810 -0.1647 -2.1867 -1.0914
12695TIP3    H238025   2.095   0.784   5.662  1.2695  1.5965 -1.5021
12696TIP3   OH238026   1.933   1.059   4.241  0.2561 -0.1807 -0.6869
12696TIP3    H138027   1.880   1.089   4.315  1.1872 -0.0427 -0.0597
12696TIP3    H238028   1.870   1.039   4.172 -0.5500  0.7708 -0.2354
12697TIP3   OH238029   6.628   6.180   4.435 -0.0433 -0.6237  0.3519
12697TIP3    H138030   6.543   6.207   4.399 -0.0588 -1.1906 -0.0525
12697TIP3    H238031   6.692   6.235   4.391 -0.2393  0.1621  1.0316
12698TIP3   OH238032   7.691   5.536   6.838  0.2252  0.0998 -0.0600
12698TIP3    H138033   7.651   5.608   6.790  1.1872  0.3958 -0.4145
12698TIP3    H238034   7.742   5.488   6.773 -1.8467 -1.9836 -0.2263
12699TIP3   OH238035   6.885   7.204   5.332  0.5094  0.2333 -0.1959
12699TIP3    H138036   6.969   7.232   5.295  1.2609  1.4888  2.3875
12699TIP3    H238037   6.908   7.133   5.392 -0.4915 -0.6072 -0.7980
12700TIP3   OH238038   7.071   7.309   4.183  0.2582 -0.7446  0.7508
12700TIP3    H138039   7.064   7.226   4.136 -1.6374 -0.2624  0.1197
12700TIP3    H238040   7.000   7.306   4.248 -0.3282  0.6669  0.2117
12701TIP3   OH238041   6.556   6.178   5.498  0.6968  0.4854  0.6616
12701TIP3    H138042   6.524   6.239   5.432  0.1453  1.0626  1.4594
12701TIP3    H238043   6.484   6.116   5.511  2.1916 -1.9540 -2.0549
12702TIP3   OH238044   6.417   6.615   3.909  0.0167  0.0008 -0.2732
12702TIP3    H138045   6.486   6.664   3.953  0.8754 -0.4245 -1.1430
12702TIP3    H238046   6.382   6.556   3.977 -0.8074  1.5605  0.6908
12703TIP3   OH238047  -0.020   5.679   4.370 -0.1788 -0.1853 -0.8872
12703TIP3    H138048  -0.029   5.726   4.453 -1.2519  0.0108 -1.1022
12703TIP3    H238049   0.052   5.722   4.325 -1.4873  1.6184 -1.3149
12704TIP3   OH238050   7.588   7.175   4.772 -0.4950  0.3853 -0.2070
12704TIP3    H138051   7.578   7.081   4.787 -0.5925  0.7077  1.9535
12704TIP3    H238052   7.504   7.202   4.735 -1.8829  0.2178  2.6124
12705TIP3   OH238053   1.790   0.173   4.421 -0.3893 -0.0076 -0.0695
12705TIP3    H138054   1.788   0.078   4.408  0.2563  0.2068 -1.9063
12705TIP3    H238055   1.727   0.207   4.357  0.2450  0.8662 -0.2346
12706TIP3   OH238056   1.275   5.703   6.661 -0.3838  0.3485  0.2075
12706TIP3    H138057   1.185   5.692   6.694 -0.6722  0.6532 -0.4706
12706TIP3    H238058   1.328   5.716   6.739 -1.2388  2.3259  0.4697
12707TIP3   OH238059   6.764   5.471   4.561  0.0934 -0.1029 -0.5001
12707TIP3    H138060   6.843   5.443   4.515  1.0780  0.6891  0.6975
12707TIP3    H238061   6.697   5.409   4.532  1.6035 -1.9968 -0.0408
12708TIP3   OH238062   6.880   6.442   5.384 -1.2115 -0.1776  0.4619
12708TIP3    H138063   6.821   6.433   5.458 -0.5374  0.4751  1.0810
12708TIP3    H238064   6.939   6.367   5.391 -0.7198  0.2554  0.9759
12709TIP3   OH238065   1.417   0.343   5.196 -0.8950 -0.1504  0.5696
12709TIP3    H138066   1.419   0.436   5.176  0.0959 -0.0190  1.2070
12709TIP3    H238067   1.446   0.338   5.287  1.2586 -1.2486 -0.1368
12710TIP3   OH238068   0.471   6.203   6.337 -0.9307  0.3286  0.3981
12710TIP3    H138069   0.500   6.292   6.358 -0.7029 -0.2281  2.4869
12710TIP3    H238070   0.551   6.156   6.314 -1.1686  0.9096 -1.7488
12711TIP3   OH238071   8.391   7.422   4.508 -0.0505  0.1161  0.5259
12711TIP3    H138072   8.474   7.426   4.555 -0.5456  0.7193  1.3724
12711TIP3    H238073   8.341   7.354   4.553  0.0185 -0.3151 -0.0421
12712TIP3   OH238074   6.805   7.602   3.335 -0.0763  0.1611 -0.5667
12712TIP3    H138075   6.784   7.610   3.428 -0.6095  0.1477 -0.6861
12712TIP3    H238076   6.721   7.586   3.293  0.0929  0.7120 -1.1121
12713TIP3   OH238077   8.383   4.800   4.871 -0.2908  0.0644  0.2792
12713TIP3    H138078   8.316   4.733   4.881 -0.3390  0.0606 -0.0685
12713TIP3    H238079   8.336   4.878   4.842 -0.3592  0.5036  1.5176
12714TIP3   OH238080   7.011   5.718   6.582 -0.4123 -0.8004  0.0706
12714TIP3    H138081   6.942   5.652   6.589  0.7565 -1.9306  1.0521
12714TIP3    H238082   7.093   5.670   6.598  0.9547 -0.1713 -4.1835
12715TIP3   OH238083   1.651   0.958   2.931 -0.3243  0.0933 -0.4296
12715TIP3    H138084   1.624   1.050   2.923 -1.1415 -0.1301 -0.3040
12715TIP3    H238085   1.569   0.910   2.942  0.0998 -0.6584 -0.5276
12716TIP3   OH238086   7.341   5.249   5.221  0.6558 -0.4467  0.1659
12716TIP3    H138087   7.407   5.301   5.266 -1.3559  1.7418  0.6669
12716TIP3    H238088   7.276   5.229   5.288  0.0071 -1.2250 -0.6762
12717TIP3   OH238089   4.753   5.494   6.593 -0.5086 -0.3201  0.4207
12717TIP3    H138090   4.684   5.446   6.640 -1.4162  0.1629 -0.3928
12717TIP3    H238091   4.765   5.574   6.644 -1.6057  0.2787 -0.2493
12718TIP3   OH238092   6.901   5.729   5.052 -0.6532 -0.1340  0.1563
12718TIP3    H138093   6.929   5.647   5.094 -0.5612 -0.4453 -0.5072
12718TIP3    H238094   6.981   5.764   5.013 -0.5922  0.5295  0.8643
12719TIP3   OH238095   8.300   7.939   4.125 -0.0411 -0.2581  0.3656
12719TIP3    H138096   8.343   8.005   4.071  1.5717 -1.2532  0.3791
12719TIP3    H238097   8.276   7.870   4.064 -1.5334  0.2338  0.3817
12720TIP3   OH238098   6.151   4.560   5.219  0.4019 -0.1552 -0.2919
12720TIP3    H138099   6.218   4.617   5.256  1.0946 -1.4047  0.3949
12720TIP3    H238100   6.188   4.472   5.222 -1.6550 -1.0257  1.0854
12721TIP3   OH238101   3.202   6.678   4.707  0.0786  0.2163  0.1428
12721TIP3    H138102   3.283   6.633   4.682 -1.5414 -2.2546 -0.8784
12721TIP3    H238103   3.181   6.643   4.793  0.5684  1.5661  0.8246
12722TIP3   OH238104   2.321   6.755   6.060 -0.1261 -0.0725 -0.0350
12722TIP3    H138105   2.335   6.727   6.150  1.2179 -2.7980 -1.0156
12722TIP3    H238106   2.236   6.799   6.061 -0.6460 -1.0549  2.3359
12723TIP3   OH238107   0.653   6.757   5.334 -0.0358 -0.3129 -0.2844
12723TIP3    H138108   0.641   6.695   5.407 -2.1156  0.2258 -0.1495
12723TIP3    H238109   0.704   6.707   5.269  2.3780 -0.6026  1.7424
12724TIP3   OH238110   6.392   6.820   5.919  0.0790  0.7792  0.3048
12724TIP3    H138111   6.479   6.827   5.879 -1.8324  4.2507 -3.6968
12724TIP3    H238112   6.354   6.740   5.883  1.1097 -0.0182  0.9910
12725TIP3   OH238113   7.533   4.997   4.524  0.6802 -0.4325  0.0265
12725TIP3    H138114   7.486   5.009   4.606  0.1939  0.8997 -0.4423
12725TIP3    H238115   7.625   5.009   4.546  0.8727 -3.3461  1.0082
12726TIP3   OH238116   0.396   7.642   5.424  0.3504  0.1104  0.3613
12726TIP3    H138117   0.472   7.698   5.437 -0.9629  1.7848  1.0108
12726TIP3    H238118   0.340   7.658   5.499 -0.8552 -0.7643 -0.3208
12727TIP3   OH238119   3.309   0.279   4.756 -0.1622 -0.0152 -0.7703
12727TIP3    H138120   3.250   0.285   4.832  1.2073 -0.3380  0.3394
12727TIP3    H238121   3.253   0.250   4.685 -1.4128 -0.0422  0.2027
12728TIP3   OH238122   0.324   6.776   3.303  0.2833 -0.3461 -0.5706
12728TIP3    H138123   0.291   6.703   3.250  2.2116  0.4840 -2.9890
12728TIP3    H238124   0.246   6.810   3.347 -1.0289 -2.3482 -1.2396
12729TIP3   OH238125   6.929   6.341   4.588 -0.0804 -0.0909  0.6565
12729TIP3    H138126   6.845   6.385   4.598  0.6953  1.9143 -1.1509
12729TIP3    H238127   6.983   6.376   4.660 -0.5428 -0.7430  1.3158
12730TIP3   OH238128   5.565   5.330   4.335  0.5241  0.0640  0.4627
12730TIP3    H138129   5.557   5.248   4.384  1.4089 -0.9538 -1.0565
12730TIP3    H238130   5.529   5.310   4.248  0.4355  1.3837  0.1810
12731TIP3   OH238131   7.833   7.906   6.658 -0.3768 -0.4868  0.7191
12731TIP3    H138132   7.836   7.991   6.615 -2.4545 -0.1056  1.2600
12731TIP3    H238133   7.923   7.888   6.684  0.7264 -0.1576 -2.6584
12732TIP3   OH238134   0.930   1.392   5.360  0.0885 -0.6276  0.0364
12732TIP3    H138135   0.936   1.468   5.417  1.7191 -1.1841  0.6522
12732TIP3    H238136   0.960   1.319   5.414  1.3796 -1.2019 -1.4114
12733TIP3   OH238137   6.228   5.960   3.162 -0.1601 -0.3194  0.4477
12733TIP3    H138138   6.303   5.906   3.186 -0.3710 -0.6915  0.2801
12733TIP3    H238139   6.202   6.003   3.243  0.7951  0.5114  0.3173
12734TIP3   OH238140  -0.006   7.729   4.673 -0.4270 -0.3718  0.2469
12734TIP3    H138141   0.083   7.756   4.651  0.3813 -2.2911  1.0194
12734TIP3    H238142  -0.049   7.809   4.703  1.6043  0.2577  1.6405
12735TIP3   OH238143   7.853   6.753   5.155 -0.5539  0.1095  0.5273
12735TIP3    H138144   7.889   6.665   5.156  1.0168  0.7468  1.5157
12735TIP3    H238145   7.858   6.782   5.246 -0.5856  1.4194  0.1179
12736TIP3   OH238146   2.948   0.943   1.628 -0.1409 -0.8354 -0.1034
12736TIP3    H138147   3.006   1.013   1.658 -0.1961 -0.5772 -0.5927
12736TIP3    H238148   2.916   0.902   1.709 -0.5119  0.0295  0.1928
12737TIP3   OH238149   6.709   5.466   5.573 -0.3510 -0.4444  0.2376
12737TIP3    H138150   6.666   5.531   5.518  0.1470 -0.9245 -0.7310
12737TIP3    H238151   6.742   5.515   5.648  1.3736  0.6984 -1.2342
12738TIP3   OH238152   0.829   6.238   3.872  0.5623 -0.4633 -0.4102
12738TIP3    H138153   0.892   6.247   3.943  0.6806 -0.5320 -0.5054
12738TIP3    H238154   0.746   6.219   3.915  0.3196  1.0084 -0.2021
12739TIP3   OH238155   0.350   0.649   4.004 -0.5546  0.1986  0.2706
12739TIP3    H138156   0.342   0.669   4.097  0.6036  0.4878  0.3238
12739TIP3    H238157   0.380   0.731   3.965  1.8117 -0.6993  0.1076
12740TIP3   OH238158   0.651   0.126   3.823  0.4696  0.9979  0.0383
12740TIP3    H138159   0.627   0.049   3.875 -1.9082  0.7389 -1.3805
12740TIP3    H238160   0.745   0.118   3.811  0.3402 -1.4078  0.3676
12741TIP3   OH238161   1.001   6.481   2.785 -0.0723  0.1594  0.2441
12741TIP3    H138162   1.003   6.435   2.701 -2.1615 -1.0186  0.8155
12741TIP3    H238163   1.062   6.431   2.841  2.5504  1.8752 -0.9808
12742TIP3   OH238164   7.172   6.125   5.720 -0.1125  0.4098  0.2776
12742TIP3    H138165   7.192   6.032   5.729 -0.8526  0.3591  1.5443
12742TIP3    H238166   7.137   6.150   5.806  2.3410  2.4041  0.7653
12743TIP3   OH238167   7.927   5.249   4.589 -0.3568 -0.6370  0.2223
12743TIP3    H138168   7.856   5.306   4.561 -1.3947 -1.3314  1.4034
12743TIP3    H238169   7.887   5.190   4.652  1.2375 -1.1403  0.7833
12744TIP3   OH238170   0.441   7.215   3.413  0.7413  0.1559  0.6239
12744TIP3    H138171   0.351   7.245   3.399  1.1885  1.0533 -0.3614
12744TIP3    H238172   0.431   7.131   3.457 -0.6084 -0.6180 -1.1107
12745TIP3   OH238173   7.248   5.907   4.695 -0.2058 -0.1000 -0.4482
12745TIP3    H138174   7.229   5.974   4.762  0.0529 -0.3524 -0.1210
12745TIP3    H238175   7.172   5.849   4.698  0.7687 -1.3138  1.1154
12746TIP3   OH238176   6.756   5.605   5.869 -0.8340  0.2131 -0.2659
12746TIP3    H138177   6.781   5.675   5.929  1.2871 -0.7530  0.0217
12746TIP3    H238178   6.715   5.539   5.925  0.7232 -0.4848  0.0573
12747TIP3   OH238179   5.621   6.053   3.461 -0.5667  0.3433 -0.0563
12747TIP3    H138180   5.555   6.122   3.455 -0.7792  0.1403 -0.0314
12747TIP3    H238181   5.668   6.072   3.542  0.9932  1.9072 -1.2974
12748TIP3   OH238182   0.272   6.209   4.286 -0.4361 -0.4119  0.3943
12748TIP3    H138183   0.356   6.220   4.330 -0.6893 -1.0828  1.0515
12748TIP3    H238184   0.213   6.175   4.353 -0.8743 -1.2502 -0.3952
12749TIP3   OH238185   8.305   5.893   3.973 -0.6995 -0.0057  0.2085
12749TIP3    H138186   8.309   5.974   4.023 -2.0361 -0.5896  1.2817
12749TIP3    H238187   8.235   5.907   3.909 -0.8844 -0.2810  0.3490
12750TIP3   OH238188   7.514   7.964   2.925 -0.0500  0.5284  0.1218
12750TIP3    H138189   7.557   8.009   2.998  2.5703 -1.5512 -0.0402
12750TIP3    H238190   7.542   8.012   2.847  0.8455  0.0722  0.1489
12751TIP3   OH238191   5.049   4.403   4.583  0.6583 -0.5066  0.4623
12751TIP3    H138192   5.116   4.338   4.568  2.5960  1.3575  0.7959
12751TIP3    H238193   5.045   4.454   4.502 -1.1255 -1.2776  0.0497
12752TIP3   OH238194   6.260   7.208   4.843  0.9260 -0.1079  0.1954
12752TIP3    H138195   6.296   7.123   4.815  2.1027  0.2272  0.6654
12752TIP3    H238196   6.315   7.273   4.799  0.4036  0.4086  0.3065
12753TIP3   OH238197   0.663   0.109   2.535  0.2292  0.3648 -0.4395
12753TIP3    H138198   0.619   0.151   2.460  0.1881  0.9869 -0.0734
12753TIP3    H238199   0.747   0.080   2.500  0.2392  0.7145 -0.7095
12754TIP3   OH238200   5.219   6.931   3.927  0.7693  0.5478 -0.0386
12754TIP3    H138201   5.173   6.880   3.861 -2.5207  2.4832  0.5992
12754TIP3    H238202   5.238   6.869   3.998 -0.9889 -0.3021 -0.2993
12755TIP3   OH238203   7.334   7.535   3.334  0.3969 -0.4930  0.0546
12755TIP3    H138204   7.342   7.452   3.288 -0.2141 -1.1270  1.0594
12755TIP3    H238205   7.240   7.555   3.330  0.4593 -0.1479  0.3121
12756TIP3   OH238206   3.432   0.098   2.470  0.2692  0.2797  0.1078
12756TIP3    H138207   3.486   0.177   2.469  0.2940  0.2631  0.1957
12756TIP3    H238208   3.485   0.033   2.423  0.7943 -0.0524  1.1561
12757TIP3   OH238209   3.310   1.967   0.155  0.0328 -0.6675  0.4763
12757TIP3    H138210   3.361   2.001   0.081  1.2058 -1.3262  0.9609
12757TIP3    H238211   3.357   1.887   0.181 -3.0257 -3.0625 -1.0842
12758TIP3   OH238212   6.567   5.023   4.408  0.0832 -0.2388  0.4755
12758TIP3    H138213   6.558   5.095   4.470 -1.0821 -1.3567  1.6514
12758TIP3    H238214   6.489   5.029   4.353  1.6443  1.4120 -1.6512
12759TIP3   OH238215   6.493   6.827   5.065 -0.2805  0.6709 -0.1182
12759TIP3    H138216   6.469   6.746   5.020  2.6587 -1.1057  1.3119
12759TIP3    H238217   6.525   6.798   5.151 -1.3481  3.5709  1.3203
12760TIP3   OH238218   6.762   3.535   5.128 -0.7256 -0.1223 -1.1330
12760TIP3    H138219   6.669   3.555   5.141 -0.3089  0.4419  1.1620
12760TIP3    H238220   6.765   3.439   5.129 -1.0702 -0.1347  0.6082
12761TIP3   OH238221   1.338   6.767   5.846  0.0196 -0.3100  0.2753
12761TIP3    H138222   1.310   6.816   5.923  0.8159  1.2734 -0.4193
12761TIP3    H238223   1.261   6.762   5.790 -0.5310 -1.3726  1.1250
12762TIP3   OH238224   7.542   7.158   5.309  0.1305  0.0937 -0.2001
12762TIP3    H138225   7.543   7.071   5.349  1.8330 -0.3951 -1.2360
12762TIP3    H238226   7.586   7.146   5.225 -1.6254  1.5102 -1.3431
12763TIP3   OH238227   0.481   1.245   3.574 -0.2000  0.2186  0.0637
12763TIP3    H138228   0.556   1.215   3.524 -1.5260  0.4904 -2.1613
12763TIP3    H238229   0.519   1.292   3.649  1.8386  1.2834 -1.5897
12764TIP3   OH238230   5.312   6.896   4.488 -0.6023 -0.1995  0.7937
12764TIP3    H138231   5.231   6.899   4.437 -0.7503  1.6733  1.1069
12764TIP3    H238232   5.379   6.931   4.429  0.1028 -2.1841  0.3680
12765TIP3   OH238233   5.089   4.783   5.371 -0.1769  0.1905 -0.3823
12765TIP3    H138234   5.058   4.717   5.309 -0.6452  1.4017 -1.4608
12765TIP3    H238235   5.014   4.840   5.386  0.4376  0.9154 -0.0378
12766TIP3   OH238236   7.732   5.323   4.811 -0.3758 -0.2065  0.1659
12766TIP3    H138237   7.672   5.282   4.874 -0.3145 -0.5879 -0.0220
12766TIP3    H238238   7.678   5.342   4.735 -0.2537 -0.5731 -0.0129
12767TIP3   OH238239   0.319   5.989   3.938 -0.1330  0.4262 -0.0875
12767TIP3    H138240   0.236   5.996   3.985 -0.2976 -1.8001  0.0124
12767TIP3    H238241   0.293   5.977   3.846  0.0791  0.0006 -0.0922
12768TIP3   OH238242   7.724   7.675   3.903 -0.3597  0.1754 -0.1496
12768TIP3    H138243   7.795   7.631   3.857  0.1184  0.9985 -0.2046
12768TIP3    H238244   7.705   7.752   3.850 -0.7078  0.4199  0.3261
12769TIP3   OH238245   5.712   6.314   5.527 -0.1821 -0.1165 -0.3794
12769TIP3    H138246   5.714   6.301   5.432  1.0891  0.6385 -0.4654
12769TIP3    H238247   5.735   6.228   5.563  1.3923  0.1085 -0.8084
12770TIP3   OH238248   0.241   5.201   2.823 -0.4731  0.6678 -0.6202
12770TIP3    H138249   0.336   5.193   2.817 -0.5870 -0.5016 -0.9696
12770TIP3    H238250   0.225   5.295   2.824  0.7992  0.8818  1.4526
12771TIP3   OH238251   8.144   7.308   2.121  0.4238 -0.4338 -0.0121
12771TIP3    H138252   8.160   7.270   2.208  2.3279  1.2927  0.4387
12771TIP3    H238253   8.187   7.247   2.060  1.3844 -0.2770  0.4934
12772TIP3   OH238254   7.299   6.445   4.068  0.3907 -0.3722  0.7353
12772TIP3    H138255   7.344   6.529   4.055 -1.0040  0.2601 -0.1797
12772TIP3    H238256   7.207   6.469   4.077 -0.4677 -2.0059 -2.6406
12773TIP3   OH238257   1.019   7.537   5.129 -0.0906 -0.2883 -0.3481
12773TIP3    H138258   0.985   7.610   5.180  0.7800  0.1809 -0.4393
12773TIP3    H238259   0.958   7.528   5.056  1.2227  2.0090 -1.7723
12774TIP3   OH238260   6.124   7.684   4.425  0.5332  0.0482 -0.4534
12774TIP3    H138261   6.206   7.730   4.441 -0.3660  1.3482  0.4951
12774TIP3    H238262   6.151   7.596   4.397  2.2450  0.7741 -1.1299
12775TIP3   OH238263   7.984   7.925   4.784 -0.9105 -0.5191 -0.5677
12775TIP3    H138264   7.926   7.992   4.821 -0.1106  0.1200 -0.4692
12775TIP3    H238265   8.045   7.904   4.855 -0.4572 -0.5503 -0.9654
12776TIP3   OH238266   7.689   7.590   4.519 -0.2302  0.4953  0.3233
12776TIP3    H138267   7.705   7.561   4.608  1.5293 -0.4468 -0.2718
12776TIP3    H238268   7.687   7.510   4.467  0.4489  1.1361 -0.7274
12777TIP3   OH238269   6.975   6.730   5.711  0.4894  0.0887 -0.2841
12777TIP3    H138270   6.946   6.820   5.695 -1.3690 -0.2426  1.0228
12777TIP3    H238271   6.995   6.696   5.624  1.1506  1.7492 -0.8015
12778TIP3   OH238272   6.980   7.120   6.250  0.1161  0.4370  0.2206
12778TIP3    H138273   6.942   7.208   6.245 -0.4302  0.2209  0.6754
12778TIP3    H238274   6.939   7.080   6.326  0.4167 -0.1961  0.0484
12779TIP3   OH238275   7.061   6.956   5.390 -0.0438 -0.5034  0.8468
12779TIP3    H138276   7.094   6.917   5.309 -0.6540  1.7097 -0.5053
12779TIP3    H238277   7.139   6.981   5.438  0.3249  0.9758 -0.4775
12780TIP3   OH238278   6.295   7.498   5.195  0.6218 -0.0436  1.1089
12780TIP3    H138279   6.329   7.567   5.137 -1.8003  1.6263  1.5923
12780TIP3    H238280   6.347   7.507   5.275  0.7592  0.8225  0.9268
12781TIP3   OH238281   6.366   2.571   0.093  0.1053  0.1353  0.0327
12781TIP3    H138282   6.294   2.610   0.042 -1.0930 -0.9482  0.8639
12781TIP3    H238283   6.361   2.478   0.074  1.2196  0.0408  0.2075
12782TIP3   OH238284   1.426   6.371   3.608  0.1097  0.1467  0.5830
12782TIP3    H138285   1.331   6.373   3.619  0.1752 -0.5243  1.2313
12782TIP3    H238286   1.458   6.443   3.663 -0.1423  1.4544 -0.9229
12783TIP3   OH238287   1.226   6.550   4.317 -0.0703 -0.1261 -0.2571
12783TIP3    H138288   1.163   6.541   4.389 -0.1215  0.5709 -0.2177
12783TIP3    H238289   1.265   6.463   4.309 -0.6643 -0.4247  0.0640
12784TIP3   OH238290   6.858   5.706   4.488 -0.4394 -0.1613  0.1795
12784TIP3    H138291   6.794   5.641   4.516 -0.8053 -0.0779 -0.4478
12784TIP3    H238292   6.879   5.682   4.397  1.8386 -1.3015  0.9817
12785TIP3   OH238293   6.038   5.495   3.608 -0.4367 -0.1164  0.2134
12785TIP3    H138294   5.980   5.523   3.537 -0.7879 -0.3876  0.3900
12785TIP3    H238295   6.126   5.496   3.569 -0.5744  0.1777 -0.0903
12786TIP3   OH238296   7.850   6.595   5.736  0.9106 -0.4299  0.4117
12786TIP3    H138297   7.785   6.628   5.798  0.2107 -2.4490  0.8049
12786TIP3    H238298   7.920   6.660   5.737 -0.9510  1.6521  0.2050
12787TIP3   OH238299   1.474   6.762   6.655 -0.2360 -0.3633 -0.0777
12787TIP3    H138300   1.382   6.775   6.677  0.0673 -0.4280  1.3045
12787TIP3    H238301   1.477   6.764   6.560 -1.4881  0.8644 -0.1030
12788TIP3   OH238302   5.730   5.369   3.009 -0.2330  0.2776 -0.4854
12788TIP3    H138303   5.751   5.454   3.047 -1.1485 -0.4257  1.6687
12788TIP3    H238304   5.703   5.388   2.919  0.2219  2.1648 -0.2344
12789TIP3   OH238305   6.441   7.877   3.599  0.5752 -0.1801  0.2749
12789TIP3    H138306   6.414   7.874   3.691  0.0072 -0.1602  0.1096
12789TIP3    H238307   6.494   7.956   3.592  2.6143 -1.4549  1.1222
12790TIP3   OH238308   8.358   5.785   2.669 -0.4621 -0.4078 -0.5683
12790TIP3    H138309   8.301   5.721   2.711 -1.4318  0.6447 -0.2756
12790TIP3    H238310   8.407   5.825   2.741  0.1923 -0.8490 -0.7571
12791TIP3   OH238311   7.568   7.857   3.419  0.2630 -0.0601  0.0297
12791TIP3    H138312   7.535   7.863   3.329  1.4795 -0.1637 -0.4448
12791TIP3    H238313   7.630   7.784   3.416  1.8659  1.2479  0.4424
12792TIP3   OH238314   8.178   6.319   3.804  0.2712  0.6244  0.4401
12792TIP3    H138315   8.180   6.282   3.716 -4.0750 -2.2470  1.3809
12792TIP3    H238316   8.143   6.407   3.793 -1.6026 -0.2356 -0.6096
12793TIP3   OH238317   6.982   6.457   3.822 -0.1270  0.1761  0.0598
12793TIP3    H138318   7.013   6.388   3.764  0.4045  1.1014 -0.7863
12793TIP3    H238319   6.887   6.443   3.828 -0.0180 -0.6163 -0.1128
12794TIP3   OH238320   2.294   1.068   4.743  0.5704  0.4224  0.6558
12794TIP3    H138321   2.306   1.132   4.673  0.8089 -0.2197  0.1141
12794TIP3    H238322   2.357   0.999   4.724 -1.2666 -1.0887 -0.0187
12795TIP3   OH238323   1.138   7.110   4.637  0.1366 -0.2184 -0.1669
12795TIP3    H138324   1.144   7.191   4.587 -1.8375  0.1188  0.1048
12795TIP3    H238325   1.117   7.139   4.726 -4.2571 -1.1332 -0.8060
12796TIP3   OH238326   4.117   7.905   5.160 -0.0240  0.3773  0.5935
12796TIP3    H138327   4.026   7.929   5.143  0.2872  1.0295 -0.2216
12796TIP3    H238328   4.139   7.844   5.090 -0.2525 -0.8919  1.6047
12797TIP3   OH238329   8.299   2.277   1.871 -0.0301 -0.3809  0.2792
12797TIP3    H138330   8.260   2.260   1.957  0.2633  1.3977  0.7905
12797TIP3    H238331   8.388   2.306   1.891  0.5791 -1.5330 -0.7191
12798TIP3   OH238332   1.529   7.262   6.566 -0.1753  0.3235 -0.0577
12798TIP3    H138333   1.535   7.194   6.633 -1.6480  0.9480  0.7376
12798TIP3    H238334   1.437   7.290   6.569  0.1792  1.6300 -1.0764
12799TIP3   OH238335   6.634   1.998   1.716 -0.5408  0.2084  0.4466
12799TIP3    H138336   6.721   1.957   1.719 -0.5183  0.2770  0.7185
12799TIP3    H238337   6.594   1.963   1.636  0.1627  1.0237 -0.2724
12800TIP3   OH238338   2.743   0.063   5.236 -0.8802 -0.1322  0.2117
12800TIP3    H138339   2.776   0.125   5.301 -1.7340  0.6373 -0.0636
12800TIP3    H238340   2.716   0.118   5.163 -0.1883 -0.9715 -0.6878
12801TIP3   OH238341   1.212   4.665   6.576 -0.1858  0.3830  0.0873
12801TIP3    H138342   1.288   4.609   6.587  1.0104  1.9901  0.2470
12801TIP3    H238343   1.137   4.607   6.587  1.0090 -0.9026  1.6526
12802TIP3   OH238344   2.385   5.513   6.633  0.0612  0.0506  0.2368
12802TIP3    H138345   2.332   5.574   6.582 -1.4587 -1.4334  0.0109
12802TIP3    H238346   2.352   5.520   6.722  2.2345  2.1018  0.9492
12803TIP3   OH238347   3.651   7.743   6.246 -0.1721 -0.0617 -0.1440
12803TIP3    H138348   3.638   7.837   6.260 -1.7998  0.0417 -2.1488
12803TIP3    H238349   3.599   7.722   6.169  1.3238 -2.3563 -0.5916
12804TIP3   OH238350   0.607   7.247   5.448  0.1448 -0.0028  0.9406
12804TIP3    H138351   0.669   7.176   5.431 -3.2005 -2.1813 -2.9418
12804TIP3    H238352   0.541   7.207   5.506 -1.1197  0.2372 -0.3123
12805TIP3   OH238353   0.788   6.566   4.799  0.5340 -0.5946 -0.1331
12805TIP3    H138354   0.749   6.652   4.780  0.4751 -0.2654  1.4208
12805TIP3    H238355   0.869   6.588   4.846  1.0427 -1.3717 -0.6401
12806TIP3   OH238356   2.690   0.317   5.161  0.2099 -0.1146  0.0852
12806TIP3    H138357   2.745   0.395   5.155  1.1280 -0.8285 -1.0614
12806TIP3    H238358   2.614   0.337   5.106  0.3822  0.0306 -0.1020
12807TIP3   OH238359   1.123   6.839   4.734 -0.4140 -0.4028 -0.0046
12807TIP3    H138360   1.049   6.805   4.683 -1.2189 -0.6296  1.2870
12807TIP3    H238361   1.135   6.928   4.703  0.1774 -1.0696 -1.7462
12808TIP3   OH238362   0.471   6.481   4.367 -0.2392 -0.7938 -0.0644
12808TIP3    H138363   0.441   6.473   4.277 -3.4010 -0.3754  0.8972
12808TIP3    H238364   0.513   6.397   4.386 -1.3231 -1.6189 -1.2724
12809TIP3   OH238365   4.731   1.577   5.334 -0.2159  0.1843 -0.4854
12809TIP3    H138366   4.756   1.570   5.426  0.3376  4.0790 -0.2864
12809TIP3    H238367   4.680   1.658   5.328 -3.0708 -1.6595 -3.0489
12810TIP3   OH238368   4.860   1.806   4.213  0.3254 -0.9147 -0.0954
12810TIP3    H138369   4.924   1.758   4.160 -0.1265 -1.7304  0.0764
12810TIP3    H238370   4.816   1.864   4.151  2.1478  0.6284  0.0401
12811TIP3   OH238371   1.747   7.612   6.662 -0.4839 -0.2549 -0.5497
12811TIP3    H138372   1.734   7.558   6.739 -1.0443 -0.1996 -0.6009
12811TIP3    H238373   1.739   7.702   6.693 -0.9235 -0.2379 -0.7091
12812TIP3   OH238374   2.987   7.317   5.645  0.4402  0.4287 -0.8957
12812TIP3    H138375   3.070   7.329   5.692  0.2600  1.9112 -0.9299
12812TIP3    H238376   2.961   7.227   5.665  2.2299 -0.1690 -1.1619
12813TIP3   OH238377   7.980   2.629   0.393 -0.2128 -0.1232 -0.2603
12813TIP3    H138378   8.052   2.654   0.450  0.4454 -0.5036 -0.9198
12813TIP3    H238379   8.017   2.629   0.305 -0.9161 -0.6729 -0.5653
12814TIP3   OH238380   6.532   0.087   6.857  0.4087  0.0917 -0.2608
12814TIP3    H138381   6.495   0.023   6.918  1.5216 -0.9615 -0.6604
12814TIP3    H238382   6.598   0.037   6.808  0.9449  1.4327 -0.9135
12815TIP3   OH238383   5.926   4.054   0.204 -0.0060 -0.2249  0.6186
12815TIP3    H138384   6.015   4.060   0.169 -0.4417  1.1891 -0.3310
12815TIP3    H238385   5.896   4.145   0.207 -1.3004 -0.6591  1.2356
12816TIP3   OH238386   0.848   6.808   4.536 -0.1855  1.2203  0.2002
12816TIP3    H138387   0.854   6.712   4.531 -0.0445  1.1634  1.2933
12816TIP3    H238388   0.807   6.834   4.454 -1.1048  0.1349  0.3018
12817TIP3   OH238389   5.413   0.499   6.805  0.3090  0.0730 -0.5516
12817TIP3    H138390   5.347   0.511   6.873  0.6948  0.8916 -0.3193
12817TIP3    H238391   5.379   0.545   6.729 -1.4433 -3.1744 -1.8201
12818TIP3   OH238392   4.913   0.316   6.815  0.2676  0.8715 -0.1427
12818TIP3    H138393   4.866   0.355   6.889  0.2473 -0.2393  0.4432
12818TIP3    H238394   4.916   0.222   6.836  4.2491  1.1136  0.6985
12819TIP3   OH238395   0.489   6.237   5.313  0.0585 -0.1489 -0.0703
12819TIP3    H138396   0.488   6.142   5.310  1.8792 -0.1870  0.3762
12819TIP3    H238397   0.550   6.259   5.383  0.6795  1.3568 -1.0490
12820TIP3   OH238398   1.700   5.168   6.436 -0.1907  0.0174 -0.0391
12820TIP3    H138399   1.725   5.195   6.348 -1.1682 -1.1802 -0.6951
12820TIP3    H238400   1.747   5.086   6.450  0.7163  0.6904  0.9322
12821TIP3   OH238401   2.968   6.597   6.299 -0.1209 -0.8566 -0.1914
12821TIP3    H138402   2.984   6.544   6.377 -0.9478 -1.2346 -0.2696
12821TIP3    H238403   2.945   6.684   6.333  0.8996 -0.6286 -0.0573
12822TIP3   OH238404   5.334   1.154   3.250  0.1117  0.2606 -0.3964
12822TIP3    H138405   5.277   1.105   3.191 -0.3818 -1.5327  1.5028
12822TIP3    H238406   5.281   1.227   3.280  0.0487  0.6441 -1.4303
12823TIP3   OH238407   5.109   1.385   6.034 -0.3089  0.2599  0.3846
12823TIP3    H138408   5.179   1.337   6.080 -1.9892 -0.3759  2.3511
12823TIP3    H238409   5.094   1.334   5.954  1.8369  0.7059 -0.3384
12824TIP3   OH238410   3.384   0.094   6.644 -0.2477  0.4771 -0.0351
12824TIP3    H138411   3.315   0.146   6.685 -0.6493 -0.3701  0.3853
12824TIP3    H238412   3.341   0.049   6.571 -0.0926  0.1319  0.0825
12825TIP3   OH238413   1.360   5.391   1.022  0.2867  0.0896  0.0729
12825TIP3    H138414   1.284   5.353   0.978  0.6189 -2.2980  1.4645
12825TIP3    H238415   1.434   5.370   0.964  0.1023  1.0922 -0.5362
12826TIP3   OH238416   0.515   3.421   0.462 -0.7922  0.1903  0.4988
12826TIP3    H138417   0.521   3.490   0.396 -0.1601  0.3759  0.7426
12826TIP3    H238418   0.575   3.353   0.430 -0.1660  0.4586  1.0895
12827TIP3   OH238419   6.462   2.516   0.480  0.2771 -0.2680  0.6318
12827TIP3    H138420   6.380   2.549   0.444 -1.0104 -0.9158  2.8758
12827TIP3    H238421   6.530   2.564   0.432 -1.4215  0.9306 -0.6333
12828TIP3   OH238422   1.640   5.546   4.743 -0.1579  0.2592 -0.7071
12828TIP3    H138423   1.711   5.482   4.742  0.4251  0.8383  1.0403
12828TIP3    H238424   1.685   5.631   4.742 -0.8743  0.6392 -1.1769
12829TIP3   OH238425   3.569   1.374   6.110 -0.1205  0.1123 -0.3542
12829TIP3    H138426   3.607   1.286   6.117 -0.0505  0.2935  1.8432
12829TIP3    H238427   3.644   1.433   6.109 -0.2367  0.2840  0.7014
12830TIP3   OH238428   6.906   0.538   6.009  0.3433 -0.3896 -0.4614
12830TIP3    H138429   6.956   0.563   6.086  0.8553  0.4615 -1.0606
12830TIP3    H238430   6.841   0.608   5.999 -0.6424 -1.2221  0.0126
12831TIP3   OH238431   1.984   7.457   4.540 -0.4067  0.0024 -0.1797
12831TIP3    H138432   1.904   7.404   4.547  0.1026 -0.6939  0.6038
12831TIP3    H238433   2.028   7.444   4.624  1.8054 -1.7183 -1.5248
12832TIP3   OH238434   1.878   7.852   4.042  0.5760 -0.2907 -0.0917
12832TIP3    H138435   1.938   7.780   4.060  1.4054  0.2856 -0.5500
12832TIP3    H238436   1.801   7.832   4.094  2.1408  0.2769  2.5172
12833TIP3   OH238437   5.109   2.172   2.997  0.5420 -0.4187  0.1649
12833TIP3    H138438   5.112   2.077   3.001 -2.1482 -0.6944 -2.6024
12833TIP3    H238439   5.074   2.199   3.082  2.5071 -1.7632  1.4446
12834TIP3   OH238440   0.961   5.530   5.964  0.1391  0.7406  0.3128
12834TIP3    H138441   1.018   5.455   5.982 -1.0192 -0.1487  0.3584
12834TIP3    H238442   0.880   5.490   5.932  0.0033  2.0362 -0.9885
12835TIP3   OH238443   5.137   0.575   5.245 -0.0631 -0.3811  0.4116
12835TIP3    H138444   5.151   0.590   5.152 -0.3528 -0.8269  0.2957
12835TIP3    H238445   5.199   0.634   5.288 -0.3984  0.3072 -0.0478
12836TIP3   OH238446   3.382   7.944   5.374  0.5678 -0.4038  0.2414
12836TIP3    H138447   3.367   7.991   5.292 -0.9241 -1.7319 -0.2789
12836TIP3    H238448   3.457   7.888   5.356  0.0594 -0.9128 -0.3428
12837TIP3   OH238449   4.637   0.724   4.808  0.1925  0.1580 -0.3281
12837TIP3    H138450   4.672   0.696   4.723  0.2003 -1.0505  0.0605
12837TIP3    H238451   4.552   0.681   4.815 -0.1735  0.9058 -0.0690
12838TIP3   OH238452   2.270   7.811   5.515 -0.5433  0.2415  0.0265
12838TIP3    H138453   2.217   7.885   5.545  0.2264  0.0236  1.9919
12838TIP3    H238454   2.351   7.850   5.484 -0.6821  0.3378 -0.2123
12839TIP3   OH238455   5.971   3.642   0.736  0.3441 -0.3755 -0.1612
12839TIP3    H138456   5.974   3.638   0.832  0.2441 -1.4246 -0.1957
12839TIP3    H238457   5.972   3.551   0.708  2.1682 -0.0593 -1.2166
12840TIP3   OH238458   6.837   0.356   4.846 -0.4291 -0.4582  0.4950
12840TIP3    H138459   6.861   0.309   4.925 -1.2439 -0.2048  0.9000
12840TIP3    H238460   6.761   0.409   4.871  0.4087  1.0019  0.0236
12841TIP3   OH238461   0.192   3.131   0.650  0.4039 -0.1053  1.0206
12841TIP3    H138462   0.186   3.145   0.555  1.7750  0.2267  0.9681
12841TIP3    H238463   0.138   3.053   0.666 -1.3577  0.9203  0.2520
12842TIP3   OH238464   6.870   3.148   0.388 -0.3293 -0.4054 -0.1150
12842TIP3    H138465   6.887   3.110   0.302 -1.1887 -3.6523  1.1026
12842TIP3    H238466   6.954   3.141   0.434  0.1275  1.3200 -0.6512
12843TIP3   OH238467   6.926   4.708   0.565  0.5193 -0.4292  0.8967
12843TIP3    H138468   6.916   4.623   0.522 -2.1748  0.3090 -0.0893
12843TIP3    H238469   6.962   4.688   0.651  0.4369 -2.5092  0.4636
12844TIP3   OH238470   2.365   7.341   5.790  0.0298  0.3324 -0.5766
12844TIP3    H138471   2.357   7.398   5.866  1.1823  0.5970 -0.6449
12844TIP3    H238472   2.336   7.394   5.716 -1.1874  0.0433 -0.3184
12845TIP3   OH238473   4.663   2.211   4.482 -0.2661  0.2585 -0.2309
12845TIP3    H138474   4.730   2.149   4.512  0.8935  1.1160 -1.0204
12845TIP3    H238475   4.580   2.167   4.502  0.5201 -2.5030 -2.6175
12846TIP3   OH238476   1.384   3.160   0.900 -0.0355 -0.0826 -0.2776
12846TIP3    H138477   1.310   3.151   0.960 -0.8596  0.4309 -1.2098
12846TIP3    H238478   1.357   3.227   0.838  2.1609  1.8041  0.7497
12847TIP3   OH238479   6.136   0.481   3.858 -0.0253  0.3057 -0.2476
12847TIP3    H138480   6.105   0.441   3.777  1.2370  0.7764 -0.9773
12847TIP3    H238481   6.200   0.420   3.893  0.0574  0.5025 -0.0523
12848TIP3   OH238482   6.717   1.957   5.348  0.2243 -0.2634  0.7270
12848TIP3    H138483   6.700   1.959   5.442 -0.3941  1.0514  0.6003
12848TIP3    H238484   6.800   2.004   5.338  0.2195 -0.2804  0.6057
12849TIP3   OH238485   6.264   0.632   5.592 -0.2318  0.0473 -0.0344
12849TIP3    H138486   6.200   0.653   5.660  0.5346 -0.4761  0.8565
12849TIP3    H238487   6.346   0.618   5.639  0.4159  0.1562 -1.1152
12850TIP3   OH238488   2.398   7.214   3.758 -0.0619  0.2760 -0.1946
12850TIP3    H138489   2.340   7.211   3.833 -1.7889 -0.0229 -1.5258
12850TIP3    H238490   2.435   7.302   3.759 -0.4843  0.4398  0.6933
12851TIP3   OH238491   4.628   0.615   6.267 -0.0667  0.1295 -0.3484
12851TIP3    H138492   4.650   0.704   6.241  0.4257  0.5424  1.4666
12851TIP3    H238493   4.691   0.560   6.221 -0.1320  0.7298 -1.1709
12852TIP3   OH238494   5.232   1.210   6.411 -0.4144 -0.5488  0.0559
12852TIP3    H138495   5.277   1.268   6.350  0.4290  2.1996  3.1193
12852TIP3    H238496   5.286   1.214   6.491 -3.0776 -1.5913  1.9695
12853TIP3   OH238497   3.167   7.225   5.031 -0.6669 -0.6490  0.2128
12853TIP3    H138498   3.115   7.286   4.978  0.2232  0.4122  0.5597
12853TIP3    H238499   3.218   7.175   4.967  0.6537  0.8591  0.0596
12854TIP3   OH238500   1.710   1.704   5.737 -0.0267  0.0891 -0.2173
12854TIP3    H138501   1.759   1.627   5.710  0.9740  0.1654  1.3374
12854TIP3    H238502   1.720   1.707   5.832 -1.0061  1.4886 -0.1424
12855TIP3   OH238503   3.289   2.177   3.302 -0.1266 -0.0320  0.7019
12855TIP3    H138504   3.206   2.150   3.341 -0.3830  1.0545  0.9177
12855TIP3    H238505   3.327   2.236   3.367  0.2423  0.4416  0.0558
12856TIP3   OH238506   2.993   7.403   4.893 -0.2874  0.2169  0.1258
12856TIP3    H138507   2.919   7.395   4.953 -0.0782 -1.5968  0.1876
12856TIP3    H238508   2.960   7.373   4.809  0.5895 -1.5304  0.3645
12857TIP3   OH238509   4.320   0.454   4.479  0.5942 -0.4826 -0.8236
12857TIP3    H138510   4.398   0.422   4.524 -0.0730  0.0679  0.7533
12857TIP3    H238511   4.353   0.514   4.413  1.5154 -0.1694 -0.0955
12858TIP3   OH238512   5.301   0.877   6.353  0.2260  0.2160  0.4040
12858TIP3    H138513   5.252   0.949   6.314 -0.9817 -0.0697  1.3414
12858TIP3    H238514   5.301   0.808   6.287 -0.2806  0.3750  0.2367
12859TIP3   OH238515   0.754   6.044   6.157 -0.1380  0.0745 -0.3061
12859TIP3    H138516   0.796   6.068   6.075 -0.5828  1.5747 -0.1033
12859TIP3    H238517   0.796   5.962   6.182  2.1866  1.2000 -0.4453
12860TIP3   OH238518   1.566   3.461   0.599 -0.3626 -0.0723 -0.3655
12860TIP3    H138519   1.509   3.411   0.658  0.4211  0.3745  0.7932
12860TIP3    H238520   1.647   3.411   0.595  0.9103  1.7098  1.8445
12861TIP3   OH238521   5.588   1.187   3.967  0.1573 -0.3379 -0.4135
12861TIP3    H138522   5.647   1.118   3.997  0.3970  0.8789  2.0680
12861TIP3    H238523   5.516   1.187   4.031 -0.7425  0.5277 -1.3989
12862TIP3   OH238524   2.866   6.494   4.788 -0.6051 -0.0234  0.2690
12862TIP3    H138525   2.818   6.421   4.827  1.2155 -0.7330  1.2558
12862TIP3    H238526   2.922   6.453   4.722 -2.2558  0.9464 -1.7955
12863TIP3   OH238527   4.145   1.946   3.719 -0.5176  0.0028 -0.1798
12863TIP3    H138528   4.139   1.861   3.674  1.7886 -0.2761 -0.0328
12863TIP3    H238529   4.233   1.947   3.756 -0.2516  2.7566 -0.7530
12864TIP3   OH238530   3.030   7.933   4.424  0.6960 -0.1709 -0.0705
12864TIP3    H138531   3.045   7.868   4.493  0.2820 -2.7489 -2.2925
12864TIP3    H238532   2.935   7.936   4.415  0.7434  0.2054 -0.4477
12865TIP3   OH238533   4.231   1.030   5.690 -0.5264  0.2124 -0.1554
12865TIP3    H138534   4.233   1.121   5.720 -1.3109 -0.3502  1.7210
12865TIP3    H238535   4.322   1.008   5.674 -0.3277  1.3248 -0.6022
12866TIP3   OH238536   5.013   0.117   4.925  0.3932  0.2291  0.2430
12866TIP3    H138537   5.105   0.143   4.927  0.7473 -0.9214 -0.3422
12866TIP3    H238538   5.015   0.024   4.903 -0.9331  0.3526 -0.4677
12867TIP3   OH238539   5.836   0.485   4.854  0.6888  0.2597 -0.1292
12867TIP3    H138540   5.747   0.505   4.826  0.9846  0.1234 -1.1923
12867TIP3    H238541   5.835   0.391   4.872  0.8306  0.0826 -1.0007
12868TIP3   OH238542   1.452   7.703   5.945 -0.3910  0.2428 -0.2323
12868TIP3    H138543   1.405   7.665   5.872  1.1017 -2.9551  0.3707
12868TIP3    H238544   1.384   7.731   6.006 -1.6109 -2.7419 -0.1359
12869TIP3   OH238545   0.332   3.753   0.756 -0.1156  0.6329  0.0563
12869TIP3    H138546   0.359   3.756   0.848 -1.4815 -1.0134  0.5240
12869TIP3    H238547   0.396   3.696   0.714 -0.0362  0.6443  0.1619
12870TIP3   OH238548   2.458   4.816   4.195  0.3832 -0.3997  0.0249
12870TIP3    H138549   2.479   4.766   4.116 -2.0494  0.7621 -1.4267
12870TIP3    H238550   2.385   4.769   4.234  0.4541  0.0107  0.6509
12871TIP3   OH238551   7.802   2.130   1.391 -0.0087 -0.6121 -0.1880
12871TIP3    H138552   7.848   2.211   1.411  0.6714 -0.9557 -0.3509
12871TIP3    H238553   7.794   2.085   1.476  4.2416 -2.7874 -0.8278
12872TIP3   OH238554   3.380   2.180   6.036 -0.1380  0.0900 -0.1492
12872TIP3    H138555   3.411   2.092   6.015  1.3983  0.5989 -0.0305
12872TIP3    H238556   3.325   2.204   5.961  0.0382 -0.6758 -0.5320
12873TIP3   OH238557   6.875   0.187   6.272  1.0158  0.1799 -0.4396
12873TIP3    H138558   6.941   0.118   6.268  0.1396 -0.8670  2.1086
12873TIP3    H238559   6.923   0.268   6.257  2.3406 -0.8312 -1.7580
12874TIP3   OH238560   3.792   1.991   5.713 -0.5359  0.6041  0.0767
12874TIP3    H138561   3.700   2.016   5.702 -0.2657  1.1562 -0.9405
12874TIP3    H238562   3.842   2.066   5.681  0.2742 -0.3453 -0.9259
12875TIP3   OH238563   7.477   4.054   0.081 -0.7705  0.6182 -0.0991
12875TIP3    H138564   7.433   4.123   0.131 -0.5646  1.0374 -0.4924
12875TIP3    H238565   7.570   4.076   0.085 -0.4269 -1.0354  1.9064
12876TIP3   OH238566   4.394   0.545   4.791 -0.6394 -0.0887  0.2512
12876TIP3    H138567   4.462   0.506   4.847  0.1916  2.1071  0.8508
12876TIP3    H238568   4.313   0.504   4.820  0.0644 -0.6410  1.5201
12877TIP3   OH238569   4.490   7.748   5.400 -0.2607 -0.1060 -0.0625
12877TIP3    H138570   4.548   7.824   5.399 -0.3072 -0.0380  1.2315
12877TIP3    H238571   4.454   7.744   5.311  2.4095 -0.6886 -1.1534
12878TIP3   OH238572   4.744   1.235   3.962  0.0592 -0.4590 -0.0938
12878TIP3    H138573   4.728   1.286   4.042 -0.2698 -2.0936  0.8900
12878TIP3    H238574   4.671   1.174   3.957 -1.2940  1.3127 -3.0389
12879TIP3   OH238575   4.766   1.458   5.037  0.1278  0.0535  0.4014
12879TIP3    H138576   4.860   1.465   5.055 -0.3746  1.9221  2.5093
12879TIP3    H238577   4.726   1.452   5.124 -1.7814  0.1521 -0.4588
12880TIP3   OH238578   2.711   7.744   4.099 -0.3397  0.6680 -0.4339
12880TIP3    H138579   2.660   7.675   4.142  0.1265  0.4305 -0.2524
12880TIP3    H238580   2.664   7.762   4.017 -0.9859  0.8088 -0.0315
12881TIP3   OH238581   0.238   8.006   6.216 -0.2475  0.5456  0.3535
12881TIP3    H138582   0.262   7.995   6.124 -1.3647  2.2963 -0.1716
12881TIP3    H238583   0.143   8.004   6.216 -0.2342 -1.4003  1.7631
12882TIP3   OH238584   3.327   7.357   3.653 -0.5364 -0.4336 -0.2131
12882TIP3    H138585   3.319   7.424   3.721  2.4477 -0.2642  0.0124
12882TIP3    H238586   3.322   7.406   3.571 -4.2639 -0.6507 -0.2353
12883TIP3   OH238587   0.688   7.036   2.522 -0.0529 -0.3848  0.2538
12883TIP3    H138588   0.622   6.979   2.561 -0.5111 -0.4400 -0.5809
12883TIP3    H238589   0.750   7.053   2.592 -0.4050 -1.1713  0.7615
12884TIP3   OH238590   0.620   7.936   4.010 -0.2310  0.0871  0.1283
12884TIP3    H138591   0.698   7.922   4.063  0.4019  2.1390 -0.1914
12884TIP3    H238592   0.639   7.895   3.926  0.1585 -0.1552  0.3362
12885TIP3   OH238593   8.018   4.531   0.015  0.2491  0.6127  0.2927
12885TIP3    H138594   8.021   4.616   0.060 -1.1982  0.7911  0.0534
12885TIP3    H238595   7.999   4.468   0.085  0.3470  0.5994  0.3078
12886TIP3   OH238596   4.751   7.151   4.181 -0.1429  0.3383 -0.0028
12886TIP3    H138597   4.841   7.158   4.149 -0.1718  2.3147  0.3067
12886TIP3    H238598   4.760   7.152   4.276 -0.5347  1.0575  0.0243
12887TIP3   OH238599   3.975   0.956   6.726  0.3242  0.1770 -0.2905
12887TIP3    H138600   4.024   1.010   6.664 -0.6764 -1.3114 -2.4469
12887TIP3    H238601   3.954   1.015   6.799  1.8118  1.8751 -1.2054
12888TIP3   OH238602   5.970   0.870   4.534  0.1295  0.6914 -0.0033
12888TIP3    H138603   5.976   0.812   4.609  0.5899 -1.0655 -1.3655
12888TIP3    H238604   5.904   0.935   4.559  0.8075  0.5671  2.1775
12889TIP3   OH238605   7.492   7.277   0.604 -0.9240  0.1056  0.1317
12889TIP3    H138606   7.495   7.369   0.630 -0.8688  0.2095 -0.2440
12889TIP3    H238607   7.402   7.250   0.623 -0.3737 -0.3483  2.2449
12890TIP3   OH238608   1.863   6.790   4.428 -0.2290  0.3841  0.6451
12890TIP3    H138609   1.771   6.767   4.444 -0.4111  0.6116 -0.0653
12890TIP3    H238610   1.913   6.728   4.481 -0.8346  1.3079  2.3207
12891TIP3   OH238611   7.169   6.796   1.811 -0.6125 -0.0868 -0.9496
12891TIP3    H138612   7.213   6.788   1.726 -1.8687  0.0532 -1.6269
12891TIP3    H238613   7.103   6.864   1.797 -2.3326 -1.6241 -0.5059
12892TIP3   OH238614   4.779   0.198   4.725 -0.0960  0.4964  0.0528
12892TIP3    H138615   4.863   0.173   4.688 -1.0240 -0.7111 -1.2714
12892TIP3    H238616   4.792   0.195   4.820  1.8728  2.1740 -0.1303
12893TIP3   OH238617   2.916   7.559   5.547  0.7310  0.2682  0.5584
12893TIP3    H138618   2.948   7.479   5.588 -0.5907 -0.7272 -0.3254
12893TIP3    H238619   2.995   7.601   5.512  1.3635 -0.9759  0.4767
12894TIP3   OH238620   4.905   7.944   5.865 -0.6577  0.2662  0.3929
12894TIP3    H138621   4.850   7.950   5.943  2.1008 -2.3973  2.6689
12894TIP3    H238622   4.983   7.996   5.886 -1.0160  1.6791 -1.6501
12895TIP3   OH238623   7.082   5.854   0.092 -0.7432  0.1801  0.2608
12895TIP3    H138624   6.988   5.855   0.072 -0.9386 -1.4582  0.9802
12895TIP3    H238625   7.125   5.847   0.007 -1.2355  1.6070 -0.1235
12896TIP3   OH238626   3.011   7.765   4.644  0.0670 -0.4388  0.3093
12896TIP3    H138627   3.027   7.839   4.702 -2.4767  0.2974  0.1449
12896TIP3    H238628   3.029   7.688   4.698  0.0175  0.2713  1.3675
12897TIP3   OH238629   4.782   6.586   6.403 -0.3523  0.1141  0.3084
12897TIP3    H138630   4.834   6.650   6.354 -2.3476  1.0649 -0.5883
12897TIP3    H238631   4.787   6.616   6.494  2.0091 -0.7475  0.5200
12898TIP3   OH238632   2.141   7.859   4.902 -0.3791  0.0721 -0.1598
12898TIP3    H138633   2.146   7.860   4.998 -0.7219  3.3186 -0.1111
12898TIP3    H238634   2.050   7.841   4.883 -0.3548 -0.3617  0.1180
12899TIP3   OH238635   3.860   0.000   5.954  0.7475 -0.1220  0.8110
12899TIP3    H138636   3.783   0.054   5.970  0.8423  0.3865 -0.4195
12899TIP3    H238637   3.934   0.056   5.980  0.7702 -0.1406  0.7856
12900TIP3   OH238638   5.151   0.242   5.863 -0.1407 -0.0588 -0.3523
12900TIP3    H138639   5.138   0.200   5.948  2.0292 -0.1636 -0.0410
12900TIP3    H238640   5.117   0.179   5.799 -3.1154  0.6308  0.4818
12901TIP3   OH238641   3.702   7.497   5.934  0.1949  0.1752 -0.1957
12901TIP3    H138642   3.788   7.533   5.955  0.9519 -0.6750 -1.7262
12901TIP3    H238643   3.710   7.467   5.843 -1.0797 -1.8704  0.3336
12902TIP3   OH238644   0.824   7.875   6.516  0.2965 -0.6101 -0.3016
12902TIP3    H138645   0.905   7.919   6.492  0.8441 -1.1735  0.4597
12902TIP3    H238646   0.779   7.860   6.433  0.2157  1.1344 -0.5829
12903TIP3   OH238647   6.585   0.049   5.883 -0.0956 -0.1989  0.0550
12903TIP3    H138648   6.496   0.069   5.912 -0.7225 -1.8686 -0.6707
12903TIP3    H238649   6.623   0.135   5.864 -1.5067  0.5412  0.4780
12904TIP3   OH238650   3.147   7.794   5.056 -0.2092 -0.2602 -0.7077
12904TIP3    H138651   3.131   7.710   5.012 -0.9534 -0.8146  0.5685
12904TIP3    H238652   3.175   7.769   5.144  0.5401  0.8306 -0.6418
12905TIP3   OH238653   3.946   7.346   5.884  0.0874 -0.1131  0.7010
12905TIP3    H138654   3.919   7.266   5.928  2.1624  0.2395  2.6867
12905TIP3    H238655   3.962   7.408   5.955  1.7048  1.0412 -0.6464
12906TIP3   OH238656   2.704   6.668   5.240 -0.2058  0.7416 -0.1678
12906TIP3    H138657   2.740   6.589   5.197 -0.8592  0.3722 -0.0378
12906TIP3    H238658   2.651   6.634   5.312  1.3262  1.3748  1.3046
12907TIP3   OH238659   6.357   1.093   3.874 -0.0668 -0.0567 -0.1455
12907TIP3    H138660   6.408   1.167   3.840 -0.3275 -0.4365 -1.4197
12907TIP3    H238661   6.380   1.020   3.817 -0.4372 -0.7568  0.5898
12908TIP3   OH238662   7.320   3.228   0.822  0.2899  0.0498 -0.1682
12908TIP3    H138663   7.343   3.223   0.915  0.2049  0.2915 -0.1345
12908TIP3    H238664   7.225   3.236   0.822  0.2055 -0.9378 -0.3064
12909TIP3   OH238665   1.435   8.006   6.010  0.1203 -0.1031 -0.2514
12909TIP3    H138666   1.455   8.050   5.927 -0.7814 -1.3103 -1.1427
12909TIP3    H238667   1.417   7.915   5.984  0.2394 -0.5882  1.3287
12910TIP3   OH238668   1.239   7.246   5.884  0.1938 -0.4202  0.2018
12910TIP3    H138669   1.312   7.291   5.842  1.0968 -2.8433 -0.8694
12910TIP3    H238670   1.204   7.311   5.945  3.3818  0.7259  0.9343
12911TIP3   OH238671   1.422   7.725   6.383 -0.0246 -0.2769 -0.0444
12911TIP3    H138672   1.500   7.715   6.328  0.7465 -1.2876  1.2237
12911TIP3    H238673   1.454   7.769   6.462 -0.9513  0.2958  0.0202
12912TIP3   OH238674   0.695   6.585   5.562 -0.4910  0.3146 -0.4896
12912TIP3    H138675   0.618   6.574   5.617  2.1812 -0.2995  3.3444
12912TIP3    H238676   0.733   6.497   5.556  1.2318  1.0259 -0.2821
12913TIP3   OH238677   5.439   1.158   5.724  0.2060  0.4227  0.0227
12913TIP3    H138678   5.379   1.233   5.724  0.7411  0.8859 -1.6840
12913TIP3    H238679   5.499   1.176   5.652  2.3108 -0.1107  1.6117
12914TIP3   OH238680   5.571   0.431   5.924 -0.2274  0.3162  0.3079
12914TIP3    H138681   5.625   0.354   5.903  0.1310  0.6508 -0.0196
12914TIP3    H238682   5.493   0.421   5.869 -1.7612 -1.5637  2.7807
12915TIP3   OH238683   5.068   0.196   5.591 -0.1267 -0.3622  0.0880
12915TIP3    H138684   5.157   0.164   5.577 -1.0799 -2.9019 -0.3521
12915TIP3    H238685   5.057   0.266   5.527  2.0223  0.9681  1.1098
12916TIP3   OH238686   2.340   5.287   0.262 -0.2307  0.1430  0.1373
12916TIP3    H138687   2.410   5.313   0.203  0.1978 -0.6847  0.2739
12916TIP3    H238688   2.276   5.359   0.258 -1.2136 -0.8503 -2.9407
12917TIP3   OH238689   2.520   7.899   5.458  0.2103  0.3211 -0.1206
12917TIP3    H138690   2.607   7.874   5.427  0.7420  1.7199  0.1906
12917TIP3    H238691   2.524   7.995   5.466 -0.9525  0.2832  1.1227
12918TIP3   OH238692   3.351   7.891   6.332 -0.0743  0.2104  0.2347
12918TIP3    H138693   3.412   7.962   6.314 -0.7681  0.3055 -1.9184
12918TIP3    H238694   3.330   7.900   6.425 -0.5221  3.1154 -0.0972
12919TIP3   OH238695   5.175   0.583   3.954  0.0152  0.8176 -0.0324
12919TIP3    H138696   5.240   0.546   4.013 -0.6510 -0.0178  0.1853
12919TIP3    H238697   5.127   0.646   4.007  0.1214  0.8511  0.0230
12920TIP3   OH238698   3.599   0.175   6.838 -0.0630 -0.1183 -0.7511
12920TIP3    H138699   3.624   0.152   6.748  0.7479 -1.4431 -0.1815
12920TIP3    H238700   3.633   0.105   6.892 -3.0907 -0.8458  0.3044
12921TIP3   OH238701   2.747   8.002   6.567 -0.2327  0.8621 -0.2167
12921TIP3    H138702   2.704   8.029   6.648 -0.2310  0.8957 -0.2272
12921TIP3    H238703   2.687   7.939   6.528 -1.0061  2.1031 -1.0236
12922TIP3   OH238704   2.810   1.235   4.525  0.5415  0.2379 -0.3633
12922TIP3    H138705   2.861   1.205   4.449  0.0600 -1.7464  0.0697
12922TIP3    H238706   2.861   1.205   4.601  0.0132  0.4679  0.0833
12923TIP3   OH238707   6.128   0.027   5.093  0.7643 -0.5837 -0.3078
12923TIP3    H138708   6.044   0.052   5.133  0.6907 -0.2200 -0.6939
12923TIP3    H238709   6.128  -0.069   5.096 -0.4158 -0.6538 -1.8395
12924TIP3   OH238710   3.787   0.401   6.144 -0.0069 -0.2119 -0.7395
12924TIP3    H138711   3.781   0.463   6.218  0.6539 -1.0618  0.0381
12924TIP3    H238712   3.702   0.408   6.100  0.1957  1.5311 -0.8864
12925TIP3   OH238713   0.412   2.206   1.959  0.0852 -0.6113 -0.6448
12925TIP3    H138714   0.454   2.290   1.938 -0.0914 -0.6068 -0.9838
12925TIP3    H238715   0.392   2.212   2.053  1.5087 -0.9059 -0.3178
12926TIP3   OH238716   3.424   6.486   5.712  0.0056  0.1484  0.2014
12926TIP3    H138717   3.463   6.520   5.632  0.7746 -0.8717  0.1350
12926TIP3    H238718   3.331   6.477   5.692  0.2317 -0.3142 -0.6502
12927TIP3   OH238719   0.492   4.115   0.521  0.0301 -0.7432 -0.5824
12927TIP3    H138720   0.496   4.144   0.430 -0.4973 -2.4613 -1.1651
12927TIP3    H238721   0.426   4.046   0.522  0.4324 -1.1322  0.9888
12928TIP3   OH238722   3.100   7.200   6.840 -0.2102  0.0533 -0.7496
12928TIP3    H138723   3.061   7.113   6.835 -1.5604  0.6579 -0.8284
12928TIP3    H238724   3.027   7.260   6.825  0.6110  1.2131 -0.1451
12929TIP3   OH238725   0.317   5.550   0.305 -0.4995  0.4008 -0.4994
12929TIP3    H138726   0.259   5.603   0.251  0.8598  0.8953 -1.4983
12929TIP3    H238727   0.268   5.469   0.321 -2.1967  1.5570  0.2549
12930TIP3   OH238728   7.034   3.261   1.694  0.0439  0.2484 -0.0863
12930TIP3    H138729   7.030   3.353   1.668 -0.1060  0.1567 -0.4027
12930TIP3    H238730   7.114   3.228   1.653 -1.0372 -0.3057 -1.8419
12931TIP3   OH238731   3.344   6.950   6.156 -0.2295  0.0353  0.4433
12931TIP3    H138732   3.348   7.005   6.235 -1.1949 -0.5695  0.9190
12931TIP3    H238733   3.349   7.012   6.083  0.8423  0.5909  0.9758
12932TIP3   OH238734   2.405   7.696   4.172 -0.2176 -0.0225 -0.2931
12932TIP3    H138735   2.354   7.697   4.091 -0.8195 -0.8198  0.0742
12932TIP3    H238736   2.347   7.657   4.237  0.4448  0.1444  0.4069
12933TIP3   OH238737   7.045   4.667   0.821  0.0030  0.1477 -0.3566
12933TIP3    H138738   7.055   4.643   0.913 -3.2338  3.4497  0.9865
12933TIP3    H238739   7.092   4.750   0.812 -1.3574  0.8467 -1.1908
12934TIP3   OH238740   5.843   1.425   6.218  0.0418 -0.2811 -0.3351
12934TIP3    H138741   5.753   1.457   6.224 -0.1843 -0.7198 -1.2670
12934TIP3    H238742   5.885   1.484   6.155  0.2035 -0.5188 -0.4518
12935TIP3   OH238743   2.693   5.959   5.365 -0.7667 -0.2231 -0.3156
12935TIP3    H138744   2.602   5.928   5.370 -0.9050  0.4476  1.6062
12935TIP3    H238745   2.718   5.976   5.456  0.3487  2.3149 -1.0552
12936TIP3   OH238746   6.796   5.132   0.035  0.0423  0.2705 -0.6791
12936TIP3    H138747   6.755   5.150   0.119  0.0710 -0.6013 -0.4676
12936TIP3    H238748   6.890   5.124   0.055  0.0127 -0.2621 -0.7298
12937TIP3   OH238749   2.791   7.936   3.441 -0.5072 -0.3872 -0.5180
12937TIP3    H138750   2.852   7.863   3.448 -1.8882 -1.5300 -0.2308
12937TIP3    H238751   2.704   7.896   3.445 -1.2876  1.3224  0.2610
12938TIP3   OH238752   5.141   0.557   3.350 -0.6061  0.3856  0.0184
12938TIP3    H138753   5.231   0.568   3.383 -0.5504  0.8463 -0.2696
12938TIP3    H238754   5.109   0.647   3.340 -1.3341  0.2145  0.7444
12939TIP3   OH238755   3.749   0.544   3.631  0.1076 -0.2275  0.3137
12939TIP3    H138756   3.798   0.626   3.639 -0.4104  0.4406 -2.7166
12939TIP3    H238757   3.805   0.488   3.577 -0.7711 -0.8385  0.0345
12940TIP3   OH238758   8.513   7.063   6.161 -0.1202  0.1778 -0.0929
12940TIP3    H138759   8.426   7.072   6.122 -1.1815  0.5266  2.2671
12940TIP3    H238760   8.519   6.971   6.187 -0.0234  0.2765  0.2519
12941TIP3   OH238761   1.113   5.226   0.014 -0.1715  0.7294  0.0999
12941TIP3    H138762   1.048   5.296   0.002 -1.0991 -0.1852 -0.3351
12941TIP3    H238763   1.067   5.147  -0.013  1.5289  0.2225 -1.3679
12942TIP3   OH238764   7.284   0.375   6.808 -0.2359 -0.0260 -0.3766
12942TIP3    H138765   7.369   0.417   6.822 -1.6616  3.2306 -1.0722
12942TIP3    H238766   7.221   0.434   6.849 -2.2706 -1.9520 -0.6477
12943TIP3   OH238767   3.911   6.955   3.823  0.6536  0.1552 -0.0404
12943TIP3    H138768   3.916   7.049   3.843 -1.1552  0.2137  0.2406
12943TIP3    H238769   3.820   6.941   3.799  0.5979 -1.8030  1.2400
12944TIP3   OH238770   1.034   7.778   6.852 -0.1788 -0.2392  0.1549
12944TIP3    H138771   0.979   7.748   6.924 -0.5088  2.5703  1.1440
12944TIP3    H238772   1.116   7.731   6.863 -0.5024 -0.4312  1.8887
12945TIP3   OH238773   5.118   0.124   6.115  0.2424 -0.2774 -0.4027
12945TIP3    H138774   5.023   0.134   6.114  0.3282  1.2054  2.1863
12945TIP3    H238775   5.133   0.030   6.125 -0.9219 -0.6130 -1.7641
12946TIP3   OH238776   3.202   7.814   6.585 -0.8330 -0.0656 -0.3406
12946TIP3    H138777   3.201   7.742   6.522 -2.6478 -0.0956 -0.2837
12946TIP3    H238778   3.193   7.772   6.670 -0.8300  0.1645 -0.2268
12947TIP3   OH238779   0.655   5.269   0.429  0.6222  0.5227  0.1218
12947TIP3    H138780   0.669   5.333   0.359  0.8655 -0.8502 -1.1012
12947TIP3    H238781   0.613   5.195   0.386 -1.1331  0.4797  1.8335
12948TIP3   OH238782   5.588   0.156   3.290  0.0436  0.5831 -0.8489
12948TIP3    H138783   5.641   0.135   3.213  1.2626  1.5001 -0.2887
12948TIP3    H238784   5.611   0.088   3.354 -0.2968  0.3298 -1.0005
12949TIP3   OH238785   7.730   3.854   1.189 -0.0849  0.1358  0.4728
12949TIP3    H138786   7.744   3.763   1.217  0.7572  0.3038  0.5941
12949TIP3    H238787   7.789   3.866   1.115 -1.4238  0.0758 -0.6428
12950TIP3   OH238788   5.580   0.289   5.334 -0.3766  0.2523 -0.8000
12950TIP3    H138789   5.662   0.305   5.380 -0.9767 -0.2556  0.4699
12950TIP3    H238790   5.599   0.308   5.242  1.1948  0.0087 -0.5264
12951TIP3   OH238791   8.136   0.307   5.090  0.7788  0.4590 -0.0487
12951TIP3    H138792   8.114   0.290   4.998  0.2998  0.4054  0.0744
12951TIP3    H238793   8.052   0.324   5.132  0.9880  0.3704  0.4069
12952TIP3   OH238794   3.415   7.509   4.423  0.1259  0.0580  0.1382
12952TIP3    H138795   3.417   7.599   4.393 -0.3020  0.5549  1.5496
12952TIP3    H238796   3.346   7.468   4.372 -0.2745  0.7581  0.1169
12953TIP3   OH238797   8.091   7.304   5.337 -0.7849 -0.1426 -0.5658
12953TIP3    H138798   8.065   7.236   5.275  1.3399 -1.1577 -0.4260
12953TIP3    H238799   8.161   7.351   5.292  1.0281 -1.1127  1.1318
12954TIP3   OH238800   0.856   7.031   6.499 -0.7489  0.5732 -0.3659
12954TIP3    H138801   0.775   7.072   6.529 -0.1564  1.2084  0.3730
12954TIP3    H238802   0.925   7.075   6.548  0.0193 -0.2232 -0.7203
12955TIP3   OH238803   5.208   7.708   5.948  0.3561  0.7133 -0.1113
12955TIP3    H138804   5.169   7.716   6.035 -1.1111 -0.3325 -0.6513
12955TIP3    H238805   5.273   7.638   5.957 -0.1218  0.2830  0.0406
12956TIP3   OH238806   6.946   3.495   1.274  0.3848 -0.7764  0.1307
12956TIP3    H138807   6.999   3.415   1.277  1.7751  0.1454  0.5156
12956TIP3    H238808   6.979   3.548   1.346 -1.5793 -0.4917  0.8528
12957TIP3   OH238809   5.708   0.519   5.671 -0.1092  0.7177 -0.1390
12957TIP3    H138810   5.682   0.593   5.726  0.3203  0.7730 -0.0061
12957TIP3    H238811   5.642   0.515   5.602 -1.7109 -0.4965  1.4240
12958TIP3   OH238812   0.056   2.879   0.077 -0.1915  0.5739 -0.0571
12958TIP3    H138813   0.032   2.970   0.058  2.0749  0.8499 -1.7802
12958TIP3    H238814   0.134   2.864   0.024  0.6308 -1.7549  1.7818
12959TIP3   OH238815   2.055   6.781   5.827  0.3922 -0.1557 -0.5532
12959TIP3    H138816   1.999   6.847   5.787  0.9151  0.2018 -0.6999
12959TIP3    H238817   2.051   6.707   5.767 -0.0810 -0.2036 -0.4614
12960TIP3   OH238818   3.587   7.573   3.963 -0.2431  0.1816 -0.2165
12960TIP3    H138819   3.640   7.594   4.040 -0.2572 -0.3767 -0.0512
12960TIP3    H238820   3.650   7.570   3.891  0.0511 -1.0974  0.0867
12961TIP3   OH238821   2.271   7.004   5.780 -0.3691  0.5671  0.0048
12961TIP3    H138822   2.192   7.058   5.770 -0.0983  0.3784 -3.4658
12961TIP3    H238823   2.242   6.931   5.835 -2.4568  0.8608 -0.6337
12962TIP3   OH238824   0.990   5.039   0.495 -0.1012 -0.0064  0.3157
12962TIP3    H138825   0.973   5.115   0.440  0.7948 -1.7333 -2.4330
12962TIP3    H238826   1.085   5.028   0.493 -0.0279  0.0755  2.4637
12963TIP3   OH238827   0.245   4.833   0.841 -0.0210 -0.0536  0.8511
12963TIP3    H138828   0.208   4.898   0.900  0.4180 -0.4392  1.5478
12963TIP3    H238829   0.327   4.806   0.882 -0.2203 -1.0870  0.5823
12964TIP3   OH238830   4.113   0.500   4.708 -0.1963  0.3215  0.0910
12964TIP3    H138831   4.048   0.565   4.681  0.7353  1.9199  1.5993
12964TIP3    H238832   4.180   0.503   4.639 -0.3294  0.7037 -0.0211
12965TIP3   OH238833   1.526   6.588   4.192 -0.4048 -0.3416  0.4412
12965TIP3    H138834   1.467   6.663   4.183 -1.0624 -0.7431  1.3774
12965TIP3    H238835   1.596   6.606   4.130 -2.2479 -0.5760 -1.8050
12966TIP3   OH238836   1.219   2.726   0.621 -0.0146  0.4646  0.0459
12966TIP3    H138837   1.285   2.722   0.551  1.8353  1.5513  1.6647
12966TIP3    H238838   1.271   2.729   0.702 -2.0280  2.2282  1.3225
12967TIP3   OH238839   7.766   1.534   0.449  0.6665  0.2888  0.4347
12967TIP3    H138840   7.772   1.449   0.491 -0.6336 -0.2602 -0.4360
12967TIP3    H238841   7.740   1.514   0.359  1.9629  1.5100 -0.2340
12968TIP3   OH238842   1.178   4.184   1.090  0.7780 -0.0276 -0.1129
12968TIP3    H138843   1.205   4.100   1.055 -0.3569 -0.0478 -0.9619
12968TIP3    H238844   1.097   4.205   1.044 -0.1701  0.4517  1.7274
12969TIP3   OH238845   7.108   0.737   5.335  0.1189  0.7729 -0.0818
12969TIP3    H138846   7.072   0.650   5.353  1.4522  0.1912 -0.2117
12969TIP3    H238847   7.139   0.733   5.245  0.0346  1.4385 -0.1452
12970TIP3   OH238848   0.458   1.311   5.138  0.1937  0.0996 -0.6518
12970TIP3    H138849   0.388   1.310   5.204  0.1186 -2.0498 -0.7402
12970TIP3    H238850   0.490   1.401   5.139  0.8826 -0.1052  3.0490
12971TIP3   OH238851   3.625   1.470   4.354  0.1568  0.0940 -0.2890
12971TIP3    H138852   3.719   1.474   4.368  0.3468  0.6032 -1.6153
12971TIP3    H238853   3.602   1.556   4.319 -0.5614 -0.4662 -1.2566
12972TIP3   OH238854   4.339   6.868   5.401 -0.0536  0.1944 -0.0534
12972TIP3    H138855   4.274   6.874   5.331  0.4093 -1.2146 -0.6034
12972TIP3    H238856   4.289   6.834   5.476  0.0371 -0.8505 -0.4637
12973TIP3   OH238857   1.121   7.289   5.152  0.5603  0.1336 -0.6029
12973TIP3    H138858   1.082   7.377   5.150 -0.6544 -0.3672  0.1448
12973TIP3    H238859   1.207   7.300   5.112  0.6542  1.7809 -0.0037
12974TIP3   OH238860   3.194   6.941   4.601 -0.5466 -0.1736 -0.3752
12974TIP3    H138861   3.195   6.849   4.627 -0.7421  0.2218  1.0815
12974TIP3    H238862   3.286   6.966   4.601 -0.5231 -0.2579 -0.3351
12975TIP3   OH238863   4.579  -0.010   4.658  0.1186 -0.2488 -0.6429
12975TIP3    H138864   4.520   0.063   4.640 -1.9301 -1.6325  0.3401
12975TIP3    H238865   4.665   0.031   4.666 -0.9275  2.0172 -0.4744
12976TIP3   OH238866   5.132   7.400   4.797 -0.1906 -0.4119 -0.1255
12976TIP3    H138867   5.049   7.415   4.752  0.0169 -0.3577 -0.4917
12976TIP3    H238868   5.108   7.350   4.875 -1.0251  2.5534  1.6012
12977TIP3   OH238869   5.032   6.518   4.420 -0.1723 -0.2559  0.1272
12977TIP3    H138870   5.023   6.428   4.452  1.7910 -0.5296 -0.0003
12977TIP3    H238871   5.071   6.565   4.494  0.4559  0.0744 -0.4114
12978TIP3   OH238872   6.753   0.815   6.487  0.0002 -0.0622 -0.5820
12978TIP3    H138873   6.807   0.855   6.555  0.3296  0.7540 -1.3162
12978TIP3    H238874   6.806   0.743   6.453 -0.1366 -0.4269 -0.0284
12979TIP3   OH238875   5.632   6.432   4.846  0.4247  0.7119 -0.5420
12979TIP3    H138876   5.632   6.501   4.912  0.3926 -0.5530  0.8078
12979TIP3    H238877   5.723   6.427   4.817  0.1176  2.4351 -1.8542
12980TIP3   OH238878   8.208   1.156   5.381 -0.0102 -0.6911  0.7866
12980TIP3    H138879   8.251   1.182   5.299  1.1575  1.2041  1.9845
12980TIP3    H238880   8.115   1.171   5.364  0.1509 -0.9688 -0.4192
12981TIP3   OH238881   3.994   7.905   6.823 -0.5713 -0.2635  0.6536
12981TIP3    H138882   4.005   7.826   6.769 -0.5143  0.3323 -0.2165
12981TIP3    H238883   4.035   7.882   6.907  1.0674 -0.5387 -0.1961
12982TIP3   OH238884   6.336   0.059   3.578 -0.1793  0.3260 -0.0915
12982TIP3    H138885   6.335   0.078   3.484  0.2985  0.8045 -0.0023
12982TIP3    H238886   6.340   0.146   3.619  1.5010  0.0592  0.3394
12983TIP3   OH238887   6.647   0.388   4.211  0.1494 -0.8668 -0.2118
12983TIP3    H138888   6.583   0.318   4.201 -1.9654  0.8165  1.0377
12983TIP3    H238889   6.673   0.385   4.303 -0.1310  0.1048 -0.0901
12984TIP3   OH238890   5.219   6.773   4.858  0.0880 -0.0467 -0.0413
12984TIP3    H138891   5.292   6.743   4.913 -0.8777 -0.1367  1.2136
12984TIP3    H238892   5.146   6.718   4.884 -0.8144  1.0581 -0.2013
12985TIP3   OH238893   5.367   6.826   3.326 -0.1236 -0.4450 -0.0340
12985TIP3    H138894   5.384   6.732   3.337  0.6053 -0.1720  1.3105
12985TIP3    H238895   5.377   6.862   3.414 -0.6552  0.8598 -0.5012
12986TIP3   OH238896   7.475   6.083   1.189  0.0010 -0.6476 -0.2179
12986TIP3    H138897   7.437   6.099   1.275 -3.4048 -1.8633 -1.3917
12986TIP3    H238898   7.544   6.019   1.204 -1.5626 -1.9981  1.4488
12987TIP3   OH238899   7.737   1.213   6.333  0.0695 -0.0049  0.0645
12987TIP3    H138900   7.692   1.204   6.248  1.4345  0.9323 -0.7667
12987TIP3    H238901   7.828   1.230   6.310  0.6161 -0.6078  1.7457
12988TIP3   OH238902   4.857   6.628   6.852 -0.1100 -0.6165 -0.0145
12988TIP3    H138903   4.908   6.651   6.930  1.0799 -1.0454 -0.6535
12988TIP3    H238904   4.812   6.547   6.876  0.6889 -1.0462  0.0384
12989TIP3   OH238905   5.469   2.366   3.107 -0.9025 -0.5050  0.0559
12989TIP3    H138906   5.559   2.387   3.084 -0.7536  1.1533  1.9732
12989TIP3    H238907   5.419   2.444   3.082 -1.6186 -0.9576  0.0478
12990TIP3   OH238908   0.735   7.890   4.709 -0.4711  0.1814 -0.3770
12990TIP3    H138909   0.700   7.947   4.778 -0.4504 -1.1537  0.7478
12990TIP3    H238910   0.823   7.924   4.693  0.5195 -1.0738  2.0990
12991TIP3   OH238911   6.826   6.970   6.421 -0.1437  0.6910  0.4862
12991TIP3    H138912   6.744   6.957   6.468  0.1424  0.6919  0.9922
12991TIP3    H238913   6.873   6.887   6.431  0.5877  1.2101  1.5452
12992TIP3   OH238914   4.125   6.762   6.251  0.3968  0.3168 -0.0483
12992TIP3    H138915   4.181   6.700   6.206  0.3833  0.7649 -0.6801
12992TIP3    H238916   4.038   6.748   6.213  0.4068  0.7709 -0.2415
12993TIP3   OH238917   7.536   0.137   3.608 -0.1309  0.8851 -0.2738
12993TIP3    H138918   7.540   0.232   3.621  0.5815  0.8161  0.0323
12993TIP3    H238919   7.473   0.125   3.537  2.3318  1.8140 -2.6804
12994TIP3   OH238920   7.605   0.964   4.231 -0.0691 -0.0690 -0.4929
12994TIP3    H138921   7.521   1.005   4.210  0.1329  0.4442 -0.3034
12994TIP3    H238922   7.587   0.911   4.308  0.0503  0.9770  0.2649
12995TIP3   OH238923   3.795   6.544   5.164  0.3457 -0.1468 -0.0212
12995TIP3    H138924   3.868   6.499   5.207 -0.8156 -1.7919  0.2661
12995TIP3    H238925   3.746   6.583   5.236  1.2052  1.3926 -0.2525
12996TIP3   OH238926   3.343   7.542   5.559  0.0245 -0.0620 -0.6307
12996TIP3    H138927   3.265   7.571   5.511  0.2731 -0.6501 -1.3881
12996TIP3    H238928   3.371   7.463   5.514  0.9163  0.0041 -0.2020
12997TIP3   OH238929   8.374   0.795   6.074  0.0236  0.4034 -0.3138
12997TIP3    H138930   8.291   0.769   6.035 -0.5805 -0.8013  1.7059
12997TIP3    H238931   8.355   0.875   6.122 -0.4069 -0.8084  1.5855
12998TIP3   OH238932   5.247   0.313   4.246  0.3126 -0.3316  0.1188
12998TIP3    H138933   5.179   0.346   4.305  1.3037 -0.4341  1.3289
12998TIP3    H238934   5.297   0.391   4.222  0.6148 -0.4605  0.3295
12999TIP3   OH238935   4.229   7.330   5.451  0.2236  0.4166 -0.4048
12999TIP3    H138936   4.154   7.339   5.510  0.0993  1.4668 -0.6992
12999TIP3    H238937   4.289   7.399   5.480  0.4098  0.5599 -1.1296
13000TIP3   OH238938   1.176   5.350   0.673  0.0838  0.0974  0.0475
13000TIP3    H138939   1.158   5.272   0.621  1.4549 -1.2058  1.4879
13000TIP3    H238940   1.097   5.364   0.725 -0.1726 -0.3277 -0.2351
13001TIP3   OH238941   4.607   7.025   4.972 -0.0981 -0.3999 -0.3808
13001TIP3    H138942   4.534   7.050   5.029  0.4095  1.4405 -0.5151
13001TIP3    H238943   4.650   6.954   5.019 -0.1647  0.5589  1.1802
13002TIP3   OH238944   5.667   0.865   6.067 -0.4245  0.4156  0.0656
13002TIP3    H138945   5.637   0.856   5.977 -3.1954  1.5991  0.8290
13002TIP3    H238946   5.635   0.950   6.096  0.3161  0.0150  2.2238
13003TIP3   OH238947   1.053   5.507   0.204 -0.0725  0.3066  0.3230
13003TIP3    H138948   1.065   5.556   0.285  0.1260  0.6330  0.0948
13003TIP3    H238949   1.142   5.489   0.173 -0.1479  0.2706  0.1249
13004TIP3   OH238950   6.545   0.961   3.172  0.3062 -0.4856  0.1112
13004TIP3    H138951   6.593   0.891   3.215  0.4319 -0.5500 -0.1305
13004TIP3    H238952   6.473   0.917   3.127  0.0368 -0.3916  0.4549
13005TIP3   OH238953   4.638   6.757   4.340  0.7060  0.2450  0.1637
13005TIP3    H138954   4.719   6.799   4.370  1.3193  0.5722 -1.8762
13005TIP3    H238955   4.655   6.663   4.351  1.1240  0.3429  0.3738
13006TIP3   OH238956   4.389   6.638   3.014 -0.3511  0.3035 -0.0326
13006TIP3    H138957   4.330   6.713   3.002 -0.5223 -0.0446 -1.4739
13006TIP3    H238958   4.464   6.657   2.958 -1.8961 -2.1318 -3.0613
13007TIP3   OH238959   7.871   1.260   4.643 -0.3091 -0.1974 -0.2546
13007TIP3    H138960   7.813   1.184   4.645  0.6894 -0.9825 -0.4373
13007TIP3    H238961   7.815   1.333   4.616 -1.5761 -0.5874  1.2288
13008TIP3   OH238962   2.700   5.451   0.305 -0.9392 -0.1442 -0.2326
13008TIP3    H138963   2.653   5.400   0.239  1.4351 -1.5094 -0.9228
13008TIP3    H238964   2.756   5.509   0.253 -1.2793  0.9308  0.5898
13009TIP3   OH238965   3.221   4.675   0.274 -0.4479 -0.3160  0.8626
13009TIP3    H138966   3.145   4.733   0.277 -1.9285 -2.1903  1.3679
13009TIP3    H238967   3.272   4.704   0.198 -2.0508  0.5193  0.0905
13010TIP3   OH238968   7.535   0.215   6.278 -0.3396 -0.1333  0.3361
13010TIP3    H138969   7.610   0.240   6.332 -0.0114  0.5677 -0.4208
13010TIP3    H238970   7.505   0.132   6.314  1.8151 -1.2407 -0.3681
13011TIP3   OH238971   5.843   1.042   3.327  0.4147 -0.0231 -0.2208
13011TIP3    H138972   5.797   1.124   3.344  2.2094  1.1013 -0.6894
13011TIP3    H238973   5.783   0.974   3.358 -1.6851  1.3859 -1.1029
13012TIP3   OH238974   7.812   1.133   4.216 -0.2243  0.2333  0.0858
13012TIP3    H138975   7.752   1.060   4.228 -0.8293  0.5297 -0.9587
13012TIP3    H238976   7.755   1.211   4.219  0.3649  0.6352  0.8939
13013TIP3   OH238977   5.498   7.176   2.984  0.2914  0.0947 -0.1634
13013TIP3    H138978   5.464   7.118   3.053  2.1572 -1.8910 -0.8761
13013TIP3    H238979   5.548   7.119   2.926 -1.8252  1.5827 -3.6413
13014TIP3   OH238980   8.088   0.128   4.478 -0.4050 -0.2250 -0.2705
13014TIP3    H138981   8.180   0.150   4.490 -0.6820 -0.0261  1.6185
13014TIP3    H238982   8.063   0.172   4.396  1.0877 -0.0720 -0.6569
13015TIP3   OH238983   6.897   0.082   3.711  0.5989  0.1058 -0.2674
13015TIP3    H138984   6.817   0.102   3.662  1.2691 -0.5960 -1.6754
13015TIP3    H238985   6.892   0.138   3.789 -1.0383  0.3969 -0.5569
13016TIP3   OH238986   5.516   1.703   3.681 -0.0669  0.5320 -0.5137
13016TIP3    H138987   5.577   1.680   3.750  0.1161  2.4623  0.0138
13016TIP3    H238988   5.464   1.624   3.666  1.9277 -0.8294 -0.3306
13017TIP3   OH238989   5.343   7.154   4.299  0.3552  0.1778 -0.3072
13017TIP3    H138990   5.422   7.130   4.251 -0.3706 -0.6160 -1.1616
13017TIP3    H238991   5.323   7.243   4.270  0.0407 -0.2216 -1.3388
13018TIP3   OH238992   3.474   7.952   4.109  0.1519  0.7074 -0.6199
13018TIP3    H138993   3.450   7.963   4.017  0.1987 -1.4749 -0.9147
13018TIP3    H238994   3.391   7.945   4.155  0.1089  2.4705 -0.3627
13019TIP3   OH238995   7.489   0.939   3.804  0.0075 -0.0779 -0.4667
13019TIP3    H138996   7.500   0.893   3.721  2.2121 -0.9270  0.2448
13019TIP3    H238997   7.543   1.017   3.796 -0.2526  0.1486 -0.0480
13020TIP3   OH238998   6.575   6.090   6.355  0.3586 -0.4054 -0.2039
13020TIP3    H138999   6.599   6.179   6.379  2.2917 -0.6634 -1.0790
13020TIP3    H239000   6.559   6.094   6.261 -1.5374 -0.5764  0.0938
13021TIP3   OH239001   3.579   6.539   3.173  0.0154  0.0336  0.6002
13021TIP3    H139002   3.584   6.469   3.239  2.0232 -0.5813 -0.1742
13021TIP3    H239003   3.667   6.576   3.171 -1.2202  3.2394  1.6317
13022TIP3   OH239004   3.091   7.569   5.897 -0.3311 -0.0195  0.8382
13022TIP3    H139005   3.158   7.625   5.935 -0.0179 -0.2048  0.5671
13022TIP3    H239006   3.024   7.629   5.863  0.5450  0.2432 -0.4665
13023TIP3   OH239007   2.562   3.737   3.017 -0.4846 -0.4175 -0.8283
13023TIP3    H139008   2.619   3.664   2.994  1.0362  0.8172 -1.0718
13023TIP3    H239009   2.598   3.771   3.099 -0.8929  0.3201 -0.9497
13024TIP3   OH239010   7.840   2.042   4.082 -0.1237  0.2203  0.0668
13024TIP3    H139011   7.799   2.116   4.038  0.1093  0.7003  0.6469
13024TIP3    H239012   7.801   1.965   4.041  0.8197  0.6441 -1.6556
13025TIP3   OH239013   7.752   0.540   4.724 -0.1458  0.3139 -0.1540
13025TIP3    H139014   7.763   0.525   4.630 -1.8054  1.2647 -0.5240
13025TIP3    H239015   7.664   0.576   4.732 -1.0266 -2.1962  2.0591
13026TIP3   OH239016   5.897   1.981   6.918  0.1478 -0.0298  0.6257
13026TIP3    H139017   5.921   2.050   6.980  1.1050 -0.3151  0.5823
13026TIP3    H239018   5.813   2.008   6.884 -0.1498  0.4017  1.6672
13027TIP3   OH239019   3.639   6.862   3.766  0.3325 -0.5184 -0.1547
13027TIP3    H139020   3.562   6.881   3.819  0.2350 -2.5399  0.4797
13027TIP3    H239021   3.699   6.818   3.826  0.3448 -2.5892 -1.6342
13028TIP3   OH239022   3.570   6.902   5.260 -0.0538  0.0924 -1.0416
13028TIP3    H139023   3.604   6.899   5.350  0.9952 -0.8513 -1.4578
13028TIP3    H239024   3.480   6.934   5.269 -1.3376 -3.6859  0.7604
13029TIP3   OH239025   4.666   5.425   2.160  0.2543  0.0701 -0.4290
13029TIP3    H139026   4.679   5.514   2.125  1.6909  0.2153  0.4634
13029TIP3    H239027   4.660   5.437   2.255  0.9741 -0.8557 -0.2661
13030TIP3   OH239028   6.041   0.322   6.224  0.1990  0.2834  0.4302
13030TIP3    H139029   6.074   0.407   6.198  0.7624 -0.1718 -0.3557
13030TIP3    H239030   5.947   0.327   6.206  0.4801  0.1863 -1.1529
13031TIP3   OH239031   1.583   3.623   0.151  0.2502  0.7748  0.0827
13031TIP3    H139032   1.504   3.590   0.109  0.4228 -0.2686  0.5672
13031TIP3    H239033   1.612   3.695   0.095 -1.1380  1.2788  0.0011
13032TIP3   OH239034   5.431   0.430   5.056 -0.4732 -0.1883  0.4873
13032TIP3    H139035   5.414   0.523   5.037 -0.7994  0.0494  1.8622
13032TIP3    H239036   5.525   0.420   5.043 -0.4947  0.2476 -0.0339
13033TIP3   OH239037   6.297   6.802   5.593 -0.3472 -0.2635  0.3449
13033TIP3    H139038   6.318   6.874   5.533 -0.5893 -0.7189 -0.2994
13033TIP3    H239039   6.382   6.773   5.626 -0.1034 -0.8087 -0.7362
13034TIP3   OH239040   0.013   4.932   1.444 -0.1965 -0.3780  0.2860
13034TIP3    H139041  -0.008   5.023   1.463 -0.8791  0.0387 -2.3221
13034TIP3    H239042   0.093   4.936   1.391  0.0166 -1.3239  0.5185
13035TIP3   OH239043   3.580   7.737   5.297 -0.1067  0.2436  0.1402
13035TIP3    H139044   3.643   7.681   5.252  0.2083  0.1223  0.7298
13035TIP3    H239045   3.628   7.770   5.373 -0.5623  0.6340  0.2560
13036TIP3   OH239046   2.507   6.592   4.893 -0.5540  0.1110 -0.5608
13036TIP3    H139047   2.544   6.547   4.817 -0.5320 -1.5835  0.4276
13036TIP3    H239048   2.416   6.564   4.896 -0.6119  0.3358 -0.0906
13037TIP3   OH239049   2.953   6.934   0.110 -0.1329 -0.2836 -0.3550
13037TIP3    H139050   2.981   6.846   0.085 -2.4942 -0.9336 -0.9235
13037TIP3    H239051   2.918   6.972   0.029 -0.9936  0.3909  0.3175
13038TIP3   OH239052   5.529   7.941   3.927 -0.0312  0.5324 -0.2368
13038TIP3    H139053   5.553   7.932   3.835 -4.3725 -0.9159 -1.3493
13038TIP3    H239054   5.474   8.019   3.929  0.2067  0.6713  1.2030
13039TIP3   OH239055   5.420   0.495   4.462  0.3979 -0.3706 -0.7837
13039TIP3    H139056   5.434   0.432   4.390  1.4692 -0.3355 -0.6211
13039TIP3    H239057   5.425   0.442   4.541  1.1902 -0.1085 -0.6503
13040TIP3   OH239058   3.842   7.952   4.279 -0.2007 -0.5481  0.1268
13040TIP3    H139059   3.910   7.885   4.280 -0.1218 -0.4923 -1.3282
13040TIP3    H239060   3.789   7.933   4.356  1.1639 -0.8918  1.0041
13041TIP3   OH239061   1.943   4.114   1.701  0.0643  0.4138 -0.1375
13041TIP3    H139062   1.879   4.181   1.727  0.4172  1.5239 -2.0552
13041TIP3    H239063   1.889   4.038   1.678 -0.6654  1.6468 -2.6322
13042TIP3   OH239064   7.591   0.693   5.703 -0.0649  0.0564 -0.9858
13042TIP3    H139065   7.630   0.780   5.703 -0.8417  0.4619  1.8990
13042TIP3    H239066   7.548   0.686   5.618  0.1382  2.4161 -1.3219
13043TIP3   OH239067   3.355   7.409   4.720  0.0013 -0.6673 -0.2444
13043TIP3    H139068   3.298   7.337   4.694  0.5962 -1.0133 -0.6202
13043TIP3    H239069   3.400   7.434   4.639 -0.3383  0.2501 -0.1544
13044TIP3   OH239070   5.850   0.050   5.227 -0.3736  0.0546 -0.1081
13044TIP3    H139071   5.781   0.013   5.171  0.9574 -2.9139  0.0851
13044TIP3    H239072   5.818   0.036   5.316 -0.9384  1.5975 -0.0645
13045TIP3   OH239073   5.222   7.972   3.317  0.5244  0.6260 -0.9017
13045TIP3    H139074   5.261   8.047   3.273  0.4732 -0.3031 -2.5815
13045TIP3    H239075   5.294   7.908   3.323  0.7099  1.0060  0.9924
13046TIP3   OH239076   3.345   6.814   3.687  0.4103 -0.3790 -0.7110
13046TIP3    H139077   3.381   6.824   3.598  2.1275  0.9712  0.1126
13046TIP3    H239078   3.422   6.798   3.742 -0.8734 -3.8870  0.1982
13047TIP3   OH239079   4.482   7.385   3.756  0.5783 -0.2728  0.0941
13047TIP3    H139080   4.431   7.466   3.751 -0.3437 -0.8655 -0.1939
13047TIP3    H239081   4.480   7.362   3.849 -3.1215 -2.4263 -0.3844
13048TIP3   OH239082   0.072   1.412   4.698  0.3121  0.0399 -0.2153
13048TIP3    H139083   0.047   1.504   4.709  0.2205 -0.2560  2.2257
13048TIP3    H239084   0.049   1.393   4.607 -0.8173  2.0812 -0.4067
13049TIP3   OH239085   6.898   1.669   3.432 -0.1028 -0.3799  0.1355
13049TIP3    H139086   6.944   1.655   3.515 -0.0450 -0.3324  0.1111
13049TIP3    H239087   6.949   1.620   3.368 -0.0665 -0.2988  0.1023
13050TIP3   OH239088   3.326   7.659   5.995  0.5743 -0.7220  0.4784
13050TIP3    H139089   3.342   7.578   6.043  2.8199  0.5128  1.8858
13050TIP3    H239090   3.411   7.702   5.992 -0.5072  1.3970 -0.5937
13051TIP3   OH239091   5.140   5.893   3.594  0.0578 -0.8408  0.1593
13051TIP3    H139092   5.055   5.852   3.575  0.0039  0.3523 -2.3929
13051TIP3    H239093   5.123   5.987   3.589  1.6033 -0.5908 -0.7694
13052TIP3   OH239094   4.558   5.384   3.699  0.0503  0.6047 -0.1167
13052TIP3    H139095   4.513   5.467   3.712  1.0923  1.3180 -1.0165
13052TIP3    H239096   4.574   5.351   3.787  1.5889  2.4304  0.3273
13053TIP3   OH239097   3.149   7.952   5.571  0.2421  0.2626  0.0464
13053TIP3    H139098   3.167   7.988   5.658  0.8827 -2.1769  0.9575
13053TIP3    H239099   3.232   7.960   5.524  0.5234 -0.4700  0.4146
13054TIP3   OH239100   4.375   6.567   4.523 -0.5127  0.0617  0.2773
13054TIP3    H139101   4.458   6.543   4.482 -0.8737  0.4457 -0.6822
13054TIP3    H239102   4.370   6.662   4.512 -1.7897 -0.1394 -0.9952
13055TIP3   OH239103   3.952   5.498   3.118  0.0382  0.1569 -0.3049
13055TIP3    H139104   3.993   5.467   3.199  0.1748 -0.8406 -0.7425
13055TIP3    H239105   4.023   5.497   3.054  0.1866  1.9859 -0.1909
13056TIP3   OH239106   8.454   0.690   4.833  0.1075  0.4807 -0.2415
13056TIP3    H139107   8.454   0.653   4.921  0.5408 -0.7225 -0.7356
13056TIP3    H239108   8.546   0.690   4.806  0.0183  1.1583 -0.5643
13057TIP3   OH239109   3.618   5.650   2.620  0.2532  0.0497 -0.3665
13057TIP3    H139110   3.629   5.745   2.630 -0.6915  0.2267 -0.9287
13057TIP3    H239111   3.703   5.619   2.587  0.4895  0.7277 -0.4051
13058TIP3   OH239112   3.772   5.105   2.664  0.0304  0.1560  0.5998
13058TIP3    H139113   3.736   5.027   2.707 -1.4435 -0.3173 -1.4169
13058TIP3    H239114   3.764   5.174   2.729  0.8790 -1.2628  2.2392
13059TIP3   OH239115   6.241   6.812   6.929  0.0336  0.1061 -0.1706
13059TIP3    H139116   6.156   6.770   6.939  0.1474  0.1376  1.0690
13059TIP3    H239117   6.288   6.758   6.866 -0.8241 -0.0373 -0.6877
13060TIP3   OH239118   4.041   5.960   4.623 -0.3122  0.6764  0.4883
13060TIP3    H139119   4.131   5.933   4.606  0.0484  0.4977  2.5103
13060TIP3    H239120   3.991   5.879   4.620  0.5470 -0.1528  5.1323
13061TIP3   OH239121   4.351   7.823   3.667 -0.2596 -0.3969 -0.2943
13061TIP3    H139122   4.440   7.798   3.691 -1.2413 -3.6749  0.0829
13061TIP3    H239123   4.358   7.917   3.648  2.9203 -0.2168  1.3065
13062TIP3   OH239124   5.901   1.073   2.944 -0.3527 -0.3649 -0.2093
13062TIP3    H139125   5.919   0.997   3.000  0.3753 -0.3766 -0.4588
13062TIP3    H239126   5.983   1.121   2.942 -1.0194  0.8183  0.5346
13063TIP3   OH239127   4.765   0.884   6.348 -0.1720  0.9587  0.4528
13063TIP3    H139128   4.743   0.963   6.299  1.6579  1.0989 -0.1612
13063TIP3    H239129   4.825   0.914   6.417  0.9709  0.0278 -0.1189
13064TIP3   OH239130   0.169   0.534   6.058  1.0497  0.0703 -0.0825
13064TIP3    H139131   0.113   0.584   5.998  2.9033  1.3710 -0.7870
13064TIP3    H239132   0.189   0.454   6.011  1.1433  0.3473 -0.5165
13065TIP3   OH239133   4.618   7.769   3.754 -0.1809  0.1838 -0.0608
13065TIP3    H139134   4.642   7.685   3.793 -1.2448  0.4036  1.1036
13065TIP3    H239135   4.660   7.768   3.669  2.7855 -0.0088  1.3540
13066TIP3   OH239136   8.249   6.720   0.225 -0.0091  0.5442 -0.4457
13066TIP3    H139137   8.338   6.708   0.190  0.5930  1.1497  0.8474
13066TIP3    H239138   8.243   6.658   0.297 -0.4114  0.9436 -0.1294
13067TIP3   OH239139   0.180   1.212   3.611 -0.0442 -0.9530  0.1086
13067TIP3    H139140   0.179   1.303   3.582  0.5998 -0.7200  0.7921
13067TIP3    H239141   0.273   1.189   3.613 -0.2748 -2.0084 -1.2450
13068TIP3   OH239142   5.906   7.096   6.648 -0.3878 -0.2393  0.1437
13068TIP3    H139143   5.928   7.171   6.593 -0.9614 -0.3503 -0.2383
13068TIP3    H239144   5.978   7.089   6.710 -0.2756  0.5582  0.1003
13069TIP3   OH239145   4.052   1.292   6.267  0.5279  0.5461 -0.4240
13069TIP3    H139146   4.022   1.338   6.188  0.4059 -0.7887 -1.1720
13069TIP3    H239147   4.144   1.270   6.247 -0.1592 -1.8082 -1.1643
13070TIP3   OH239148   4.082   6.707   3.940  0.1556  0.2473 -0.1008
13070TIP3    H139149   3.997   6.734   3.908  0.9516  1.3861 -1.2796
13070TIP3    H239150   4.063   6.645   4.011 -1.6422  1.4842  0.5187
13071TIP3   OH239151   8.037   0.977   6.197 -0.0163 -0.4131 -0.9858
13071TIP3    H139152   8.053   1.054   6.251 -2.0186 -0.7074  0.0644
13071TIP3    H239153   8.102   0.983   6.127  1.8216  0.6232  0.7483
13072TIP3   OH239154   7.017   7.490   2.889 -0.1043  0.0617  0.7068
13072TIP3    H139155   6.952   7.423   2.869 -0.2875  0.8586 -1.5396
13072TIP3    H239156   7.074   7.492   2.812 -0.4172  2.8611  0.4916
13073TIP3   OH239157   4.340   1.353   6.257 -0.2230 -0.8976 -0.0439
13073TIP3    H139158   4.359   1.439   6.295 -1.2066 -1.3304  1.4878
13073TIP3    H239159   4.416   1.300   6.278  0.5822 -0.2892 -1.3798
13074TIP3   OH239160   5.363   7.910   6.489 -0.1869 -0.0736 -0.1415
13074TIP3    H139161   5.386   7.887   6.400 -0.3785 -0.1036 -0.1845
13074TIP3    H239162   5.446   7.925   6.533 -0.0877 -0.1849 -0.2915
13075TIP3   OH239163   2.191   2.357   0.471 -0.3752 -0.5483 -0.0443
13075TIP3    H139164   2.238   2.278   0.501  1.2919  0.2525 -0.4967
13075TIP3    H239165   2.109   2.323   0.434  0.5408 -2.1354 -0.7035
13076TIP3   OH239166   6.656   0.310   5.326 -0.8627 -0.0286 -0.0675
13076TIP3    H139167   6.620   0.325   5.414  0.3796  0.0580  0.4454
13076TIP3    H239168   6.704   0.228   5.334 -0.5055  0.1292 -0.5923
13077TIP3   OH239169   7.544   1.012   5.435 -0.0866  0.2475  0.4964
13077TIP3    H139170   7.540   0.920   5.409 -1.8762  0.5354 -0.3451
13077TIP3    H239171   7.459   1.048   5.409 -0.0680  1.7381  2.3723
13078TIP3   OH239172   6.229   1.705   5.841 -0.1683  0.6034  0.1365
13078TIP3    H139173   6.147   1.750   5.822 -1.3788 -0.8488  1.8155
13078TIP3    H239174   6.233   1.700   5.936  1.1854 -0.5802  0.0460
13079TIP3   OH239175   4.964   7.413   3.730  0.0321 -0.4111  0.0309
13079TIP3    H139176   4.907   7.346   3.692  0.0169 -1.4915  1.8971
13079TIP3    H239177   4.983   7.472   3.657 -0.5593 -2.0322 -1.4781
13080TIP3   OH239178   5.968   7.097   5.524  0.5343  0.3964  0.0152
13080TIP3    H139179   6.014   7.015   5.502 -1.8615 -0.8864 -0.3346
13080TIP3    H239180   5.906   7.110   5.452 -2.8216 -0.3198  2.6507
13081TIP3   OH239181   4.770   7.236   3.633 -1.2087 -0.2556  0.3645
13081TIP3    H139182   4.702   7.192   3.683 -2.5166  2.6507  1.2770
13081TIP3    H239183   4.722   7.291   3.571  0.3615 -0.5294 -1.1167
13082TIP3   OH239184   8.221   1.108   6.487 -0.1899 -0.0030 -0.8771
13082TIP3    H139185   8.251   1.043   6.423 -1.9138 -1.7048 -0.0386
13082TIP3    H239186   8.230   1.063   6.572 -0.0214  1.4104 -0.1259
13083TIP3   OH239187   4.656   7.084   6.810  0.1064 -0.0422 -0.4738
13083TIP3    H139188   4.625   7.174   6.816  2.4755  0.8902 -1.9466
13083TIP3    H239189   4.749   7.088   6.831  0.2709 -2.1351 -0.6730
13084TIP3   OH239190   1.338   0.594   5.088 -0.1905  0.1768 -0.0166
13084TIP3    H139191   1.282   0.518   5.071  1.1952 -0.7527 -0.4773
13084TIP3    H239192   1.324   0.652   5.013 -1.2192  0.3745  0.3175
13085TIP3   OH239193   7.796   0.518   5.007 -0.3938 -0.0953 -0.3840
13085TIP3    H139194   7.854   0.594   5.006 -1.8900  1.0614 -0.8496
13085TIP3    H239195   7.761   0.513   4.919  0.0729 -1.6623 -0.5122
13086TIP3   OH239196   6.319   1.929   5.292 -0.0101  0.1052 -0.3213
13086TIP3    H139197   6.323   2.007   5.237  0.2024 -0.5419 -1.2225
13086TIP3    H239198   6.226   1.916   5.309 -0.0598  0.4159 -0.3570
13087TIP3   OH239199   0.562   1.571   6.864 -0.1432  0.1382  0.4432
13087TIP3    H139200   0.565   1.666   6.852 -1.9408  0.3438  1.3312
13087TIP3    H239201   0.468   1.552   6.872  0.1932 -1.7441  0.0292
13088TIP3   OH239202   4.342   7.611   3.834  0.6850  0.1488 -0.4002
13088TIP3    H139203   4.353   7.699   3.797  0.2452  0.2124 -0.3862
13088TIP3    H239204   4.278   7.623   3.905  1.5008  0.0203  0.3589
13089TIP3   OH239205   3.659   0.766   4.919 -0.3771  0.0632  0.0730
13089TIP3    H139206   3.753   0.777   4.937 -0.3197  0.2459 -0.3275
13089TIP3    H239207   3.636   0.845   4.870 -1.1810  0.9890  1.8981
13090TIP3   OH239208   3.638   7.376   6.937  0.1373 -0.1182 -0.1494
13090TIP3    H139209   3.546   7.384   6.962  0.1262  0.9599 -0.5171
13090TIP3    H239210   3.650   7.440   6.867  1.1697 -0.2506 -0.1071
13091TIP3   OH239211   4.536   6.998   4.245  0.0648 -0.3179  0.3057
13091TIP3    H139212   4.570   6.909   4.239  0.9815  0.0349  0.1620
13091TIP3    H239213   4.605   7.053   4.208  0.0906  0.5920  1.6911
13092TIP3   OH239214   5.625   0.155   5.789  0.2877  0.3378 -0.3097
13092TIP3    H139215   5.699   0.108   5.826 -0.4010 -0.5360 -0.0111
13092TIP3    H239216   5.634   0.144   5.694  0.1155 -0.4289 -0.2379
13093TIP3   OH239217   4.926   7.936   4.428  0.4177  0.3379  0.1272
13093TIP3    H139218   4.905   7.911   4.339 -0.0297  1.5617 -0.1253
13093TIP3    H239219   4.844   7.927   4.476  0.3618  0.8578  0.1350
13094TIP3   OH239220   5.179   2.198   6.162 -0.2061 -0.2250  0.1259
13094TIP3    H139221   5.266   2.173   6.134 -0.8985 -0.7123 -1.6466
13094TIP3    H239222   5.155   2.133   6.228  0.1213 -1.0496 -0.5641
13095TIP3   OH239223   4.748   7.463   4.227 -0.3961  0.3832 -0.0405
13095TIP3    H139224   4.673   7.495   4.277 -1.4193 -0.1286 -1.2301
13095TIP3    H239225   4.797   7.409   4.289 -1.5813 -0.1404  0.4456
13096TIP3   OH239226   5.201   7.717   6.296 -0.0893 -0.0892  0.4576
13096TIP3    H139227   5.209   7.705   6.390 -1.8702  2.6109  0.9815
13096TIP3    H239228   5.126   7.663   6.270  0.9663 -1.5721  0.3759
13097TIP3   OH239229   7.716   0.427   3.431  0.0695  0.1562 -0.2446
13097TIP3    H139230   7.737   0.511   3.390  1.3869  0.1098  0.3070
13097TIP3    H239231   7.700   0.368   3.358 -0.5128  0.7979 -0.6419
13098TIP3   OH239232   7.246   1.573   4.554 -0.0130  1.1164  0.0557
13098TIP3    H139233   7.341   1.559   4.561 -0.1648 -0.6055 -1.1138
13098TIP3    H239234   7.237   1.648   4.496  0.6486  2.0005  1.0660
13099TIP3   OH239235   4.876   7.469   4.722  0.7105  0.6439 -0.1247
13099TIP3    H139236   4.823   7.433   4.794  1.6426 -0.5520 -0.0218
13099TIP3    H239237   4.813   7.518   4.669 -0.8298 -1.8797 -0.7569
13100TIP3   OH239238   7.059   0.868   5.988  0.8785  0.3812 -0.2670
13100TIP3    H139239   7.070   0.796   6.050  0.6884  1.8160  1.4508
13100TIP3    H239240   6.967   0.893   5.996  1.5493  2.5720  1.1508
13101TIP3   OH239241   0.613   3.651   0.231  0.3145 -0.1391 -0.3582
13101TIP3    H139242   0.708   3.663   0.227  0.4110 -0.5499  0.4365
13101TIP3    H239243   0.597   3.569   0.186  0.5567 -1.0202  1.1265
13102TIP3   OH239244   4.719   5.985   5.173 -0.0062 -0.5034 -0.2163
13102TIP3    H139245   4.803   5.953   5.139  0.4990  0.0443  0.4780
13102TIP3    H239246   4.659   5.978   5.100  1.5947  2.8357 -1.9369
13103TIP3   OH239247   3.970   5.853   3.864 -0.2364 -0.0525  0.2862
13103TIP3    H139248   3.875   5.855   3.875 -0.1220  0.7867  1.2370
13103TIP3    H239249   4.002   5.926   3.918  0.8530  0.4407 -1.0007
13104TIP3   OH239250   4.603   5.721   4.147 -0.2187 -0.0158  0.3576
13104TIP3    H139251   4.554   5.667   4.085 -1.0084 -0.6597  1.5346
13104TIP3    H239252   4.613   5.805   4.102 -1.1293 -0.3417 -0.4855
13105TIP3   OH239253   6.723   0.334   5.931  0.0202 -0.4939  0.7810
13105TIP3    H139254   6.790   0.389   5.972  0.0717 -0.7477  1.0391
13105TIP3    H239255   6.641   0.364   5.971  0.2852 -2.1891  2.6907
13106TIP3   OH239256   7.950   1.151   5.900 -0.4368 -0.1507 -0.4886
13106TIP3    H139257   7.942   1.066   5.856  0.7563  0.3479 -1.6705
13106TIP3    H239258   8.037   1.150   5.938 -0.4149  0.5658 -0.5171
13107TIP3   OH239259   4.407   4.992   2.745  0.1160 -0.2380 -0.2744
13107TIP3    H139260   4.486   4.939   2.758  0.4081  0.4225  0.7025
13107TIP3    H239261   4.388   4.983   2.652 -1.4611 -4.3333  0.3042
13108TIP3   OH239262   3.717   6.516   4.671 -0.4122  0.8486  0.1037
13108TIP3    H139263   3.775   6.439   4.663 -0.0443  1.1549 -0.1896
13108TIP3    H239264   3.659   6.495   4.744  0.4644  0.7964  0.7861
13109TIP3   OH239265   7.286   0.063   6.001 -0.3730  0.0985 -0.1418
13109TIP3    H139266   7.293   0.150   6.040  1.6772  0.1844 -0.6675
13109TIP3    H239267   7.313   0.075   5.910  0.6661 -1.2089 -0.0220
13110TIP3   OH239268   0.257   0.325   5.421  0.0082 -0.2329  0.8544
13110TIP3    H139269   0.344   0.365   5.418  0.0033 -0.2894 -1.2578
13110TIP3    H239270   0.273   0.232   5.405 -0.3231 -0.4515  1.7979
13111TIP3   OH239271   3.967   0.972   5.509  0.0974  0.1238  0.0892
13111TIP3    H139272   3.997   0.926   5.588  0.6028  1.4691  0.6968
13111TIP3    H239273   3.975   1.065   5.531 -0.1849  0.5114 -1.3948
13112TIP3   OH239274   4.817   5.951   3.053  0.2779  0.1917  0.3727
13112TIP3    H139275   4.813   5.861   3.086  0.5581 -0.0463 -0.2184
13112TIP3    H239276   4.802   6.006   3.130  1.0114 -0.3433  0.9045
13113TIP3   OH239277   4.242   8.014   6.223 -0.2370  0.9081  0.0382
13113TIP3    H139278   4.267   7.932   6.265 -0.7767  0.7808  0.1133
13113TIP3    H239279   4.314   8.033   6.162 -1.1084 -0.7030 -1.5069
13114TIP3   OH239280   7.385   0.423   5.710  0.3524  0.7472  0.0654
13114TIP3    H139281   7.353   0.453   5.625 -0.8155  1.2583  0.6692
13114TIP3    H239282   7.477   0.450   5.712  0.0740  1.7762 -0.5582
13115TIP3   OH239283   3.600   6.381   4.283  0.4205 -0.0801 -0.1323
13115TIP3    H139284   3.566   6.328   4.355  1.8219  2.0077  2.1600
13115TIP3    H239285   3.682   6.417   4.317  1.3263  0.6165 -2.9589
13116TIP3   OH239286   6.749   0.869   4.351 -0.3188 -0.1069  0.3551
13116TIP3    H139287   6.800   0.789   4.348 -1.6584 -0.9898  0.4546
13116TIP3    H239288   6.749   0.902   4.262  0.7424  0.1119  0.4348
13117TIP3   OH239289   4.171   6.623   2.808 -0.5275 -0.2235 -0.1281
13117TIP3    H139290   4.218   6.706   2.795 -0.3880 -0.3616 -0.4870
13117TIP3    H239291   4.237   6.565   2.846 -0.4422 -0.3760 -0.5073
13118TIP3   OH239292   3.094   6.884   6.024  0.0331  0.2343  0.7344
13118TIP3    H139293   3.154   6.888   6.100 -0.5992  0.5836  1.2173
13118TIP3    H239294   3.100   6.793   5.995 -0.3693 -0.1213  1.7368
13119TIP3   OH239295   3.239   7.621   6.359 -0.0951 -0.0014 -0.4765
13119TIP3    H139296   3.289   7.542   6.342 -0.9584 -0.4402 -0.9979
13119TIP3    H239297   3.284   7.689   6.308  0.7059 -0.1263  0.0544
13120TIP3   OH239298   4.368   7.670   5.170  0.9612 -0.2141  0.6194
13120TIP3    H139299   4.398   7.685   5.081 -0.2012 -2.4708 -0.2135
13120TIP3    H239300   4.276   7.645   5.160  0.6123  0.2105  2.5193
13121TIP3   OH239301   7.032   0.601   4.875 -0.0653  0.1423  0.4259
13121TIP3    H139302   7.003   0.677   4.824  0.5868 -0.5896 -1.0659
13121TIP3    H239303   6.963   0.536   4.863 -1.3063  0.9447  2.8386
13122TIP3   OH239304   8.464   4.817   0.728  0.6469  0.4274 -0.9394
13122TIP3    H139305   8.547   4.830   0.773  1.2946  0.2794 -2.0631
13122TIP3    H239306   8.410   4.891   0.754  1.2371  0.6961 -0.4611
13123TIP3   OH239307   6.709   7.280   5.923  0.2964  0.9091 -0.2002
13123TIP3    H139308   6.663   7.325   5.852  0.0837 -0.7744 -1.1394
13123TIP3    H239309   6.639   7.239   5.974  0.5850  0.3857 -0.2221
13124TIP3   OH239310   2.284   2.099   2.961 -0.6507  0.2296  0.2475
13124TIP3    H139311   2.357   2.039   2.978 -0.5987  0.6382  1.4741
13124TIP3    H239312   2.218   2.075   3.026 -0.3583  1.9564  1.2007
13125TIP3   OH239313   0.407   6.570   4.791  0.0098 -0.0097 -0.0599
13125TIP3    H139314   0.454   6.634   4.844 -0.8856  1.2915 -0.8225
13125TIP3    H239315   0.321   6.610   4.775 -1.6774 -2.6118  1.8930
13126TIP3   OH239316   3.231   6.210   0.709  0.0798  0.3070  0.0423
13126TIP3    H139317   3.227   6.244   0.798  3.9822 -1.2538  0.9221
13126TIP3    H239318   3.274   6.279   0.658  3.0069 -0.9653  0.6648
13127TIP3   OH239319   1.499   0.697   6.884 -0.1516  0.1173 -0.2365
13127TIP3    H139320   1.423   0.754   6.883 -0.5911 -0.4656 -0.4980
13127TIP3    H239321   1.527   0.694   6.975 -1.1154 -0.5497  0.0462
13128TIP3   OH239322   7.148   7.559   3.853 -0.3347  0.3917  0.7172
13128TIP3    H139323   7.210   7.592   3.918  1.5609  0.8152 -1.2768
13128TIP3    H239324   7.181   7.473   3.829 -1.8981 -0.4369  1.3900
13129TIP3   OH239325   7.322   6.644   6.444 -0.6493  0.2740  0.0359
13129TIP3    H139326   7.301   6.674   6.356 -0.1683  0.1451 -0.1264
13129TIP3    H239327   7.285   6.556   6.450 -0.0962  0.0173 -0.2739
13130TIP3   OH239328   5.226   6.608   4.609  0.0341 -0.5042 -0.3911
13130TIP3    H139329   5.248   6.594   4.701  0.0619  0.0643 -0.3050
13130TIP3    H239330   5.274   6.688   4.585 -1.4695  0.4275 -0.3635
13131TIP3   OH239331   5.977   7.925   2.155 -0.2804  0.2514 -0.1838
13131TIP3    H139332   6.058   7.893   2.196 -1.7555 -1.4637  1.4584
13131TIP3    H239333   5.934   7.976   2.224 -0.3147  1.7173 -1.2623
13132TIP3   OH239334   6.409   7.430   6.017  0.3097 -0.1735  0.3174
13132TIP3    H139335   6.435   7.467   6.102  0.9198 -0.5392  0.2923
13132TIP3    H239336   6.443   7.340   6.019  0.1826 -0.2341 -0.2519
13133TIP3   OH239337   0.476   1.487   3.430  0.1453 -0.1734 -0.2810
13133TIP3    H139338   0.389   1.517   3.403  0.6121 -0.5085 -2.2612
13133TIP3    H239339   0.466   1.393   3.443 -0.1996  0.0687  1.2471
13134TIP3   OH239340   8.088   0.393   3.639  0.1955  0.8668  0.0126
13134TIP3    H139341   7.997   0.380   3.664 -0.1268  1.7096 -0.7048
13134TIP3    H239342   8.129   0.431   3.717 -0.5211  2.3214 -0.3102
13135TIP3   OH239343   6.415   6.499   5.613  0.2624 -0.0578  0.7510
13135TIP3    H139344   6.472   6.551   5.555 -1.4393 -0.0538 -0.9785
13135TIP3    H239345   6.407   6.414   5.569 -0.7249 -0.1992  1.1924
13136TIP3   OH239346   2.542   5.365   0.083 -0.5679 -0.0939  0.1942
13136TIP3    H139347   2.592   5.297   0.037 -0.5743  0.2672 -0.3538
13136TIP3    H239348   2.533   5.436   0.018 -1.5573 -0.0504  0.3701
13137TIP3   OH239349   6.421   0.211   4.203  0.5664 -0.1384 -0.8300
13137TIP3    H139350   6.442   0.130   4.249 -0.4317  0.1439  0.1359
13137TIP3    H239351   6.383   0.268   4.270  0.7191  0.9190 -1.6238
13138TIP3   OH239352   0.571   0.457   4.096 -0.4845 -0.3524  0.1957
13138TIP3    H139353   0.642   0.521   4.112  1.4264 -1.6788 -2.5954
13138TIP3    H239354   0.495   0.511   4.076 -0.2207  1.1080  2.8054
13139TIP3   OH239355   1.516   0.965   3.527 -0.4242 -0.1310 -0.0879
13139TIP3    H139356   1.600   0.930   3.557  0.4801  1.0467 -1.1992
13139TIP3    H239357   1.451   0.905   3.565  0.9436 -1.5758  0.0654
13140TIP3   OH239358   8.376   0.067   4.971  0.0275 -0.4626 -0.4353
13140TIP3    H139359   8.308   0.013   4.932  0.2518 -1.2957  0.2927
13140TIP3    H239360   8.454   0.012   4.970  0.7409  0.5516 -1.4390
13141TIP3   OH239361   0.130   7.057   5.094 -0.1437  0.2060  0.0564
13141TIP3    H139362   0.121   6.976   5.144  0.8851  0.3804  0.5439
13141TIP3    H239363   0.174   7.117   5.154  2.2157  0.0569 -1.4656
13142TIP3   OH239364   8.332   0.680   5.609 -0.1826 -0.0772  0.2800
13142TIP3    H139365   8.271   0.666   5.682 -0.7800 -0.2055 -0.2465
13142TIP3    H239366   8.329   0.774   5.593  0.2013 -0.0012  0.6351
13143TIP3   OH239367   5.337   7.937   5.938  0.8177 -0.4058 -0.0483
13143TIP3    H139368   5.290   7.856   5.922  1.4129 -0.3923 -1.9841
13143TIP3    H239369   5.299   7.971   6.019 -1.4574 -1.1345 -0.7655
13144TIP3   OH239370   8.240   0.157   4.038  0.0161 -0.0164 -0.3913
13144TIP3    H139371   8.271   0.107   4.114 -0.0883  0.5108 -0.0007
13144TIP3    H239372   8.244   0.248   4.067 -1.6300  0.0749 -0.4390
13145TIP3   OH239373   5.670   7.157   6.784  0.0163  0.5357  0.9747
13145TIP3    H139374   5.747   7.138   6.730 -1.3547 -0.1931 -0.7857
13145TIP3    H239375   5.673   7.092   6.854  0.6434  0.0706  0.5209
13146TIP3   OH239376   8.040   6.781   4.843  0.0348  0.1936  0.1994
13146TIP3    H139377   8.055   6.726   4.920 -0.3244 -0.5072 -0.2346
13146TIP3    H239378   8.057   6.724   4.769 -0.2223  0.7018 -0.2535
13147TIP3   OH239379   7.852   0.274   2.761 -0.1638 -0.0028  0.1007
13147TIP3    H139380   7.809   0.329   2.696 -2.1661 -1.4253  0.1569
13147TIP3    H239381   7.942   0.306   2.764 -0.6164  1.5553 -1.7236
13148TIP3   OH239382   0.864   0.444   3.613 -0.2923  0.6319  0.3978
13148TIP3    H139383   0.914   0.444   3.695  0.8748  1.2393 -0.2971
13148TIP3    H239384   0.886   0.528   3.572 -1.8357  0.8746  0.0333
13149TIP3   OH239385   5.509   6.765   4.239 -0.3720 -0.8715  0.0177
13149TIP3    H139386   5.559   6.684   4.234 -0.7202 -0.9891 -1.9770
13149TIP3    H239387   5.567   6.826   4.285  1.3740 -1.1728 -1.7197
13150TIP3   OH239388   8.441   2.565   2.309 -0.2426 -0.4018 -0.1493
13150TIP3    H139389   8.379   2.637   2.309  0.4045  0.1540  0.5821
13150TIP3    H239390   8.387   2.487   2.292 -1.3015 -0.0656  1.5775
13151TIP3   OH239391   6.559   5.888   6.574  0.5313  0.2009 -0.3798
13151TIP3    H139392   6.507   5.818   6.536  1.4262 -0.9912  0.5718
13151TIP3    H239393   6.503   5.966   6.567 -0.6926 -0.7177 -0.9088
13152TIP3   OH239394   0.501   0.968   4.911  0.1938  0.1056  0.1587
13152TIP3    H139395   0.489   1.046   4.857  0.1280  0.9132  1.3183
13152TIP3    H239396   0.435   0.906   4.879 -1.4604  1.4425  0.8884
13153TIP3   OH239397   4.846   6.859   4.628 -0.1679 -0.5478  0.3102
13153TIP3    H139398   4.909   6.847   4.557 -1.0832  2.1879 -1.0087
13153TIP3    H239399   4.892   6.913   4.692  0.1408 -1.7949  1.1639
13154TIP3   OH239400   7.459   7.534   3.747  0.0120  0.4835  0.2632
13154TIP3    H139401   7.494   7.567   3.664 -0.2061  0.5995  0.2196
13154TIP3    H239402   7.449   7.440   3.733 -0.9834  0.6491 -0.1813
13155TIP3   OH239403   2.198   1.485   3.362 -0.5938 -0.0894  0.0252
13155TIP3    H139404   2.151   1.434   3.297 -1.0310  1.6734 -1.0606
13155TIP3    H239405   2.134   1.548   3.395 -0.1391 -0.3889  1.5446
13156TIP3   OH239406   7.744   6.886   4.751 -0.0446  0.1305  0.4601
13156TIP3    H139407   7.753   6.817   4.685  1.0944  0.7599 -0.0573
13156TIP3    H239408   7.654   6.878   4.782  0.1302 -1.7414  0.5804
13157TIP3   OH239409   5.856   7.257   3.621 -0.9468 -0.3870 -0.1760
13157TIP3    H139410   5.839   7.323   3.688 -0.5496 -1.5983  1.1495
13157TIP3    H239411   5.770   7.235   3.586 -1.2075 -0.0711  0.2646
13158TIP3   OH239412   4.742   5.950   4.709  0.1350  0.0398  0.2153
13158TIP3    H139413   4.816   5.952   4.649 -0.0844 -0.5561 -0.0863
13158TIP3    H239414   4.757   5.873   4.764 -0.8515 -0.7805 -0.6361
13159TIP3   OH239415   7.919   0.894   6.584 -0.3591 -0.3895 -0.0664
13159TIP3    H139416   7.865   0.894   6.506 -0.5856 -0.2723  0.0888
13159TIP3    H239417   7.926   0.802   6.609 -0.2021 -0.4357 -0.2814
13160TIP3   OH239418   0.790   1.023   4.447  0.1508 -0.0533 -0.4920
13160TIP3    H139419   0.699   1.050   4.432 -0.0300 -1.2064 -1.4994
13160TIP3    H239420   0.790   0.988   4.536 -0.7402 -1.5304 -1.0686
13161TIP3   OH239421   5.932   6.127   6.217 -0.2577  0.0390  0.5364
13161TIP3    H139422   5.920   6.191   6.147  0.7744  0.1957  0.5017
13161TIP3    H239423   5.971   6.176   6.289  0.1209 -0.4583  0.6747
13162TIP3   OH239424   5.546   7.381   4.160  0.7760  0.6129  0.0032
13162TIP3    H139425   5.456   7.415   4.160  0.6607  0.4916 -2.8666
13162TIP3    H239426   5.592   7.436   4.223 -1.4012  0.4007  1.8512
13163TIP3   OH239427   8.453   3.496   2.717  0.2248 -0.2608 -0.0974
13163TIP3    H139428   8.481   3.562   2.654 -1.0899 -0.2682 -0.6888
13163TIP3    H239429   8.444   3.544   2.800  0.1770  0.1027 -0.3155
13164TIP3   OH239430   1.752   6.877   3.307  0.2651  0.2796  0.1753
13164TIP3    H139431   1.721   6.789   3.326  1.0108 -0.0611 -0.1752
13164TIP3    H239432   1.793   6.907   3.388 -0.4381  0.5057  0.4537
13165TIP3   OH239433   7.419   0.858   2.714 -0.8556  0.1491 -0.4480
13165TIP3    H139434   7.343   0.913   2.733 -0.3235  1.1467 -1.1547
13165TIP3    H239435   7.390   0.769   2.736 -2.2692  0.4969 -0.8354
13166TIP3   OH239436   4.701   6.028   3.568  0.0507  0.0009 -0.2407
13166TIP3    H139437   4.737   6.068   3.647 -0.9974  0.3097  0.0841
13166TIP3    H239438   4.607   6.042   3.574  0.0204  0.7015 -1.9181
13167TIP3   OH239439   8.342   1.208   5.126  0.8308 -0.1767  0.4317
13167TIP3    H139440   8.410   1.145   5.148  0.2568 -0.7666  0.5488
13167TIP3    H239441   8.323   1.192   5.034 -0.0483 -0.9036  0.7230
13168TIP3   OH239442   7.155   1.722   4.321  0.1662  0.5491 -0.1584
13168TIP3    H139443   7.236   1.701   4.275 -0.0681  0.5899 -0.5990
13168TIP3    H239444   7.133   1.810   4.290  0.0423  0.6030  0.0831
13169TIP3   OH239445   0.205   0.334   5.882  0.6692  0.0581 -0.1632
13169TIP3    H139446   0.185   0.242   5.894 -0.5752  0.4615  1.0026
13169TIP3    H239447   0.167   0.357   5.797  1.5042 -0.6351 -0.7310
13170TIP3   OH239448   8.436   0.252   2.682 -0.3893 -0.1802 -0.2098
13170TIP3    H139449   8.410   0.175   2.632 -1.8062  0.1052  0.0669
13170TIP3    H239450   8.466   0.218   2.766 -0.9002 -0.4499 -0.1349
13171TIP3   OH239451   5.577   6.592   5.944  0.3465 -0.4822 -0.6438
13171TIP3    H139452   5.643   6.569   5.878  0.1597 -0.4829 -0.8302
13171TIP3    H239453   5.575   6.687   5.944 -0.7864 -0.4951 -1.7674
13172TIP3   OH239454   2.894   7.309   5.334  0.6368  0.7171 -0.0204
13172TIP3    H139455   2.841   7.247   5.385 -0.5468  1.4411 -0.3445
13172TIP3    H239456   2.918   7.377   5.396  1.5348  0.1895  0.2209
13173TIP3   OH239457   8.467   0.672   5.121 -0.4640 -0.4838 -0.2805
13173TIP3    H139458   8.444   0.725   5.197  0.5591  1.2312 -1.1395
13173TIP3    H239459   8.522   0.602   5.156 -0.9083 -0.3416  0.7028
13174TIP3   OH239460   0.465   6.514   6.383 -0.4497 -0.1135 -0.1405
13174TIP3    H139461   0.501   6.562   6.308  0.4664  0.9946  1.0085
13174TIP3    H239462   0.370   6.518   6.369 -0.5408  3.6898  0.8932
13175TIP3   OH239463   7.275   0.097   4.302  0.1960 -0.4034  0.4049
13175TIP3    H139464   7.194   0.126   4.344  1.2625 -0.1563  2.3607
13175TIP3    H239465   7.270   0.130   4.212 -1.3088  0.6467  0.8758
13176TIP3   OH239466   2.508   1.817   5.268 -0.1296 -0.1974  0.7020
13176TIP3    H139467   2.441   1.877   5.300 -0.5994 -0.8715  0.9932
13176TIP3    H239468   2.587   1.871   5.260 -0.8178  0.7086 -0.0951
13177TIP3   OH239469   5.758   7.172   5.049  0.6811 -0.4412 -0.1695
13177TIP3    H139470   5.685   7.234   5.050  0.6115 -0.5288  0.3183
13177TIP3    H239471   5.790   7.174   4.959  1.3525  1.1019  0.0790
13178TIP3   OH239472   7.585   0.567   4.115  0.2193  0.2054 -0.5806
13178TIP3    H139473   7.665   0.605   4.078  0.3241  0.5586 -0.0041
13178TIP3    H239474   7.515   0.626   4.087  0.4072  0.9448  0.4748
13179TIP3   OH239475   6.830   2.635   5.814  0.2043 -0.0988  0.2731
13179TIP3    H139476   6.851   2.546   5.839  0.2606  0.5235  2.4957
13179TIP3    H239477   6.742   2.628   5.775  1.0359 -1.3964 -1.4654
13180TIP3   OH239478   8.211   0.484   3.880 -0.2639 -0.4661 -0.0271
13180TIP3    H139479   8.148   0.458   3.947  0.2892  1.3853  1.2293
13180TIP3    H239480   8.291   0.437   3.903 -1.5009 -4.0452 -2.5019
13181TIP3   OH239481   7.696   5.468   5.096 -0.3112 -0.1023 -0.5325
13181TIP3    H139482   7.675   5.396   5.037 -2.7295 -0.0714  0.2018
13181TIP3    H239483   7.669   5.436   5.183 -1.9332  1.8323 -0.2728
13182TIP3   OH239484   4.894   7.605   5.160 -1.1627 -0.5528  0.8046
13182TIP3    H139485   4.849   7.550   5.096  0.6348 -2.7916  1.3880
13182TIP3    H239486   4.832   7.615   5.232 -2.4092  0.2214 -0.3622
13183TIP3   OH239487   0.268   0.260   4.648  0.0816 -0.6387  0.1073
13183TIP3    H139488   0.206   0.280   4.718 -0.5145 -1.4059 -0.1939
13183TIP3    H239489   0.352   0.293   4.680  0.1077 -2.2893  1.8345
13184TIP3   OH239490   4.364   7.347   3.507  0.2720 -0.1101 -0.0909
13184TIP3    H139491   4.428   7.406   3.467  0.3011 -0.5103 -0.6458
13184TIP3    H239492   4.396   7.334   3.596  0.7282  0.0384 -0.2280
13185TIP3   OH239493   8.275   1.696   5.820  0.2188 -0.2486 -0.3206
13185TIP3    H139494   8.318   1.616   5.849  0.5154 -0.5093 -1.4649
13185TIP3    H239495   8.181   1.678   5.833  0.3598 -0.2756  0.6752
13186TIP3   OH239496   0.944   0.301   6.315 -0.0109  0.0187 -0.2286
13186TIP3    H139497   0.942   0.392   6.286 -2.8094  0.2757  0.6261
13186TIP3    H239498   0.896   0.253   6.248  0.5949 -0.6831 -0.1652
13187TIP3   OH239499   1.846   1.300   3.309 -0.1878 -0.6576 -0.5508
13187TIP3    H139500   1.771   1.242   3.298 -0.3573 -0.5074 -0.1948
13187TIP3    H239501   1.818   1.382   3.268 -0.1522 -0.6566 -0.5725
13188TIP3   OH239502   4.607   8.011   6.417  0.7126 -0.3657 -0.0792
13188TIP3    H139503   4.673   7.997   6.485  0.3011 -2.5390 -0.0974
13188TIP3    H239504   4.525   8.025   6.465  0.3175 -2.4511 -0.0931
13189TIP3   OH239505   1.401   1.748   5.472  0.4007 -0.0078 -0.2685
13189TIP3    H139506   1.363   1.682   5.413  0.7588  1.1952 -1.8686
13189TIP3    H239507   1.325   1.790   5.512  0.1079  0.2819 -1.1162
13190TIP3   OH239508   2.202   0.534   5.829  0.1926 -0.5006  0.1843
13190TIP3    H139509   2.274   0.511   5.888 -0.4535 -2.4873  0.2287
13190TIP3    H239510   2.215   0.478   5.753 -1.8391 -1.5471  0.5975
13191TIP3   OH239511   2.914   6.767   2.605 -0.1822  0.2120 -0.1683
13191TIP3    H139512   2.884   6.716   2.680  1.8299  1.9041  1.8583
13191TIP3    H239513   2.868   6.851   2.613 -1.2799 -0.2014 -1.8474
13192TIP3   OH239514   6.038   7.627   5.166  0.1620  0.5927  0.4037
13192TIP3    H139515   6.124   7.584   5.170  0.1199  0.5278  0.5956
13192TIP3    H239516   5.988   7.575   5.103  0.3701  0.8184  0.0555
13193TIP3   OH239517   7.628   3.422   3.499 -0.1022  0.6857 -0.3444
13193TIP3    H139518   7.684   3.420   3.421  0.8194 -0.2681  0.3273
13193TIP3    H239519   7.678   3.375   3.565 -0.6715  1.9245  0.9784
13194TIP3   OH239520   7.509   2.266   3.635 -0.4448 -0.0617 -0.1165
13194TIP3    H139521   7.505   2.352   3.677  2.6559  0.7072 -1.2508
13194TIP3    H239522   7.462   2.277   3.553  0.9542  0.8964 -0.7945
13195TIP3   OH239523   7.883   0.277   5.198 -0.2852 -0.5283  0.5801
13195TIP3    H139524   7.863   0.369   5.179  2.4481 -0.4121 -1.9905
13195TIP3    H239525   7.813   0.228   5.155 -0.1931  0.2203 -0.4258
13196TIP3   OH239526   7.776   2.393   3.426 -0.1730  0.2083  0.3461
13196TIP3    H139527   7.862   2.396   3.467 -0.2785 -0.5193  0.6359
13196TIP3    H239528   7.790   2.343   3.345 -0.1446  0.8611 -0.0515
13197TIP3   OH239529   7.413   2.768   2.448 -0.4439 -0.2363  0.0634
13197TIP3    H139530   7.335   2.748   2.396 -0.5788 -0.2777  0.2803
13197TIP3    H239531   7.443   2.853   2.415 -1.8469  0.8390  1.4519
13198TIP3   OH239532   2.862   6.136   6.232 -0.1853 -0.2368 -0.5259
13198TIP3    H139533   2.906   6.089   6.302 -1.6185  0.8158  1.1114
13198TIP3    H239534   2.933   6.179   6.184  0.6145  1.9413  2.4390
13199TIP3   OH239535   1.845   0.856   6.749 -0.1299 -0.0753  0.1088
13199TIP3    H139536   1.874   0.819   6.832  0.0632  0.0312  0.0897
13199TIP3    H239537   1.788   0.928   6.774 -0.4867 -0.3703  0.1450
13200TIP3   OH239538   2.870   0.580   2.907  0.1591  0.2515 -0.1110
13200TIP3    H139539   2.829   0.517   2.849  0.4088  0.7312 -0.8170
13200TIP3    H239540   2.818   0.660   2.897 -1.3981 -0.3989  2.3081
13201TIP3   OH239541   8.255   1.409   4.565 -0.5378  0.1381  0.0670
13201TIP3    H139542   8.207   1.351   4.624  0.7171  0.9417  1.9060
13201TIP3    H239543   8.331   1.358   4.538 -0.5918  0.1458 -0.1011
13202TIP3   OH239544   0.086   0.264   4.851  0.2201 -0.2884  0.2130
13202TIP3    H139545   0.040   0.199   4.905  0.4174 -1.0501 -0.5107
13202TIP3    H239546   0.017   0.321   4.818 -0.1718 -1.1467 -0.4905
13203TIP3   OH239547   1.499   1.248   4.284 -0.4105 -0.3606 -0.5742
13203TIP3    H139548   1.547   1.328   4.266  1.1852 -1.0136  0.7219
13203TIP3    H239549   1.413   1.277   4.314  1.2081  0.9879  3.0407
13204TIP3   OH239550   6.032   6.961   3.594  0.0906 -0.3515  0.6599
13204TIP3    H139551   6.060   7.051   3.578 -4.0847  0.8581 -0.4625
13204TIP3    H239552   5.992   6.962   3.681  0.9699 -1.3738  1.0898
13205TIP3   OH239553   0.534   0.540   6.477  0.0916  0.0325  1.0007
13205TIP3    H139554   0.495   0.516   6.394  0.3265  4.3094 -0.4712
13205TIP3    H239555   0.619   0.496   6.478 -0.7111 -1.5569 -0.1426
13206TIP3   OH239556   8.059   0.720   3.442 -0.2676 -0.4779 -0.0315
13206TIP3    H139557   8.098   0.681   3.520  1.8140  0.0896 -0.7637
13206TIP3    H239558   8.101   0.805   3.433 -2.6959  0.7582 -0.0724
13207TIP3   OH239559   5.450   5.643   2.342 -0.1830 -0.0264 -0.1987
13207TIP3    H139560   5.445   5.557   2.383  0.4475 -0.0901 -0.2645
13207TIP3    H239561   5.395   5.636   2.264  1.1817 -0.8652 -1.1103
13208TIP3   OH239562   7.038   7.173   4.808  0.2866  0.2139 -0.2972
13208TIP3    H139563   6.986   7.252   4.824  0.4119  0.2901 -0.2665
13208TIP3    H239564   7.004   7.138   4.726 -1.0467 -0.7357  0.6585
13209TIP3   OH239565   5.907   6.618   4.738  0.0366 -0.1479 -0.3518
13209TIP3    H139566   6.002   6.630   4.742 -0.0260 -0.1550  1.4497
13209TIP3    H239567   5.872   6.707   4.733  0.0061  0.0857  2.8741
13210TIP3   OH239568   7.734   1.664   4.670 -0.5611  0.3545 -0.8124
13210TIP3    H139569   7.830   1.659   4.678 -0.6777 -0.9772 -0.2151
13210TIP3    H239570   7.718   1.754   4.642  0.9258  0.3331 -1.8157
13211TIP3   OH239571   1.054   1.415   3.815  0.1895  0.1567  0.4258
13211TIP3    H139572   0.981   1.422   3.754 -0.1189  0.0460  0.7744
13211TIP3    H239573   1.132   1.408   3.760 -0.0026  0.9160  0.0525
13212TIP3   OH239574   0.837   2.108   5.562 -0.0002  0.6381 -0.7035
13212TIP3    H139575   0.775   2.063   5.619  1.6666 -1.1551 -0.2926
13212TIP3    H239576   0.883   2.169   5.620  0.3470  0.2063 -0.5291
13213TIP3   OH239577   0.127   1.784   3.321  0.3088  0.2624 -0.1777
13213TIP3    H139578   0.085   1.838   3.255  1.7717  1.0605 -0.4710
13213TIP3    H239579   0.059   1.769   3.387 -0.5726  1.1077 -0.8889
13214TIP3   OH239580   4.998   7.759   0.339  0.2886 -0.3717 -0.1691
13214TIP3    H139581   5.046   7.691   0.292  0.5985  0.3882 -0.9761
13214TIP3    H239582   4.923   7.714   0.376 -0.6649 -0.7501 -2.4955
13215TIP3   OH239583   6.256   7.387   3.429  0.2356 -0.4228  0.3536
13215TIP3    H139584   6.308   7.367   3.507  0.9224 -1.3419 -0.3328
13215TIP3    H239585   6.202   7.462   3.455  1.4840  0.1766  1.2512
13216TIP3   OH239586   6.092   2.064   4.806 -0.1816  0.2604 -0.0891
13216TIP3    H139587   6.088   2.016   4.888 -0.5505  1.3320  0.5330
13216TIP3    H239588   6.006   2.050   4.765  0.4860 -1.4123 -0.9656
13217TIP3   OH239589   7.782   0.386   4.477  0.6746 -0.0081  0.0435
13217TIP3    H139590   7.691   0.358   4.467  1.2695 -0.9836 -2.9529
13217TIP3    H239591   7.815   0.331   4.548 -0.5938 -0.8065  0.0412
13218TIP3   OH239592   5.810   7.697   4.064  0.1275 -0.2299  0.3546
13218TIP3    H139593   5.801   7.753   3.987  0.9663  0.0883  0.4817
13218TIP3    H239594   5.725   7.701   4.107 -0.7511 -1.3479 -1.1887
13219TIP3   OH239595   6.257   6.676   6.142  0.1448  0.1241  0.1790
13219TIP3    H139596   6.286   6.697   6.231  0.0821  0.0896  0.2076
13219TIP3    H239597   6.281   6.753   6.091 -1.0184  0.6966  0.4886
13220TIP3   OH239598   7.520   0.574   6.493  0.4808 -0.0024  1.0727
13220TIP3    H139599   7.432   0.614   6.498  0.7546  0.5426  1.5518
13220TIP3    H239600   7.566   0.608   6.569  1.6602  1.0412 -0.0846
13221TIP3   OH239601   5.307   7.739   5.069  0.9422 -0.2657 -0.0063
13221TIP3    H139602   5.213   7.758   5.077  0.7618 -1.0418 -0.2067
13221TIP3    H239603   5.327   7.754   4.976  1.0786  0.1922  0.1001
13222TIP3   OH239604   7.230   7.447   5.821  0.5914 -0.5034  0.2034
13222TIP3    H139605   7.234   7.536   5.786  1.8975 -0.9850 -0.9303
13222TIP3    H239606   7.285   7.395   5.761 -0.9943 -2.2733  0.2342
13223TIP3   OH239607   8.456   3.407   5.493 -0.3542  0.0783  0.2982
13223TIP3    H139608   8.543   3.397   5.454 -0.8910 -1.6324 -0.5234
13223TIP3    H239609   8.412   3.470   5.436  0.1586  0.5635  0.4240
13224TIP3   OH239610   5.890   3.450   0.217  0.1424 -0.2525 -0.1065
13224TIP3    H139611   5.965   3.508   0.201 -0.2042  0.3609  0.4783
13224TIP3    H239612   5.860   3.472   0.305 -0.9294 -0.2702 -0.4561
13225TIP3   OH239613   5.375   3.189   0.400 -0.1943 -0.5538  0.0203
13225TIP3    H139614   5.334   3.275   0.386 -0.8228 -0.8370  0.1094
13225TIP3    H239615   5.323   3.129   0.346 -0.1756 -0.9951  0.4965
13226TIP3   OH239616   1.737   1.814   4.187  0.0620 -0.5455  0.0054
13226TIP3    H139617   1.735   1.779   4.098 -1.7799 -1.0352  0.2019
13226TIP3    H239618   1.780   1.746   4.239 -0.8211 -1.2383 -0.1474
13227TIP3   OH239619   7.316   7.285   4.317 -0.2730 -0.3245 -0.1948
13227TIP3    H139620   7.237   7.289   4.263 -0.3432  0.8079 -0.0296
13227TIP3    H239621   7.328   7.192   4.336 -0.4284 -0.7115 -1.8970
13228TIP3   OH239622   1.406   1.798   4.072  0.3005  0.0377  0.4585
13228TIP3    H139623   1.484   1.756   4.036 -0.8898 -1.1775 -0.7635
13228TIP3    H239624   1.382   1.743   4.146  1.5953  1.4161  1.9510
13229TIP3   OH239625   2.406   1.531   4.619 -0.0944 -0.0603  0.0078
13229TIP3    H139626   2.405   1.580   4.537 -0.3410  0.2656  0.2027
13229TIP3    H239627   2.498   1.513   4.636 -0.1498 -1.5273 -1.1664
13230TIP3   OH239628   6.184   7.417   4.022 -0.1986 -0.3934  0.8413
13230TIP3    H139629   6.131   7.490   3.990  0.4839  0.1550  0.9439
13230TIP3    H239630   6.130   7.377   4.091 -1.0069 -0.6195  0.0889
13231TIP3   OH239631   4.321   7.951   3.334 -0.4750  0.2084  0.0039
13231TIP3    H139632   4.302   8.007   3.408 -0.5422  0.8503 -0.4973
13231TIP3    H239633   4.416   7.936   3.338 -0.4595  0.3482  0.1424
13232TIP3   OH239634   8.003   1.252   3.226  0.5279 -0.0999  0.8578
13232TIP3    H139635   8.034   1.174   3.180 -0.5426 -0.0069 -0.0647
13232TIP3    H239636   7.976   1.221   3.312 -0.0344 -0.7916  0.4378
13233TIP3   OH239637   5.930   6.880   4.272 -0.1696 -0.2292 -0.2430
13233TIP3    H139638   5.937   6.917   4.360 -1.4864  0.5872 -0.4661
13233TIP3    H239639   5.843   6.907   4.242  0.0149 -1.0572 -1.5380
13234TIP3   OH239640   4.988   6.945   3.235 -0.3574  0.7392  0.3719
13234TIP3    H139641   4.908   6.946   3.183 -1.2983 -2.1320  1.6377
13234TIP3    H239642   5.043   6.878   3.193  0.2136  0.7285  1.1254
13235TIP3   OH239643   7.665   7.820   1.433 -0.1251  0.5041  0.3596
13235TIP3    H139644   7.655   7.765   1.355 -0.5935  1.5669 -0.3557
13235TIP3    H239645   7.698   7.903   1.399  0.3219  0.7479  1.3837
13236TIP3   OH239646   6.263   6.952   5.049 -0.4544 -0.6901  0.4913
13236TIP3    H139647   6.337   6.914   5.096 -0.1331 -0.9968 -0.2503
13236TIP3    H239648   6.259   7.043   5.079  0.4729 -0.5609  0.2329
13237TIP3   OH239649   7.885   7.967   4.499  0.4773 -0.1860  0.0449
13237TIP3    H139650   7.817   8.034   4.490  0.2577 -0.4121  0.0156
13237TIP3    H239651   7.888   7.949   4.593  0.5931 -0.0779  0.0621
13238TIP3   OH239652   3.669   7.760   3.466  1.1467 -0.0683 -0.5976
13238TIP3    H139653   3.673   7.693   3.397 -2.1683 -1.4626  0.4496
13238TIP3    H239654   3.647   7.840   3.419 -0.4727 -0.8851 -1.2972
13239TIP3   OH239655   6.044   6.941   5.285 -0.3321  0.0288 -0.8200
13239TIP3    H139656   5.954   6.918   5.306 -0.3348  0.3469 -0.4715
13239TIP3    H239657   6.044   6.952   5.190 -0.8165  0.6757 -0.7488
13240TIP3   OH239658   5.482   7.333   6.251  0.2053  0.4529 -0.6574
13240TIP3    H139659   5.482   7.267   6.320 -0.1769  1.7747  0.6086
13240TIP3    H239660   5.561   7.314   6.200  0.2213 -0.8347 -0.1795
13241TIP3   OH239661   6.057   7.580   3.493 -0.0838  0.3697 -0.2136
13241TIP3    H139662   6.032   7.555   3.582  0.1883 -1.6882 -0.6739
13241TIP3    H239663   5.974   7.589   3.446 -0.2401  1.7312  0.2907
13242TIP3   OH239664   3.911   7.833   5.891 -0.1982  0.2733 -0.3065
13242TIP3    H139665   3.976   7.820   5.822  0.1386  0.6143 -0.0582
13242TIP3    H239666   3.892   7.927   5.889 -0.2957  0.2615 -0.0305
13243TIP3   OH239667   1.267   1.103   5.288 -0.1417  0.7114  0.4788
13243TIP3    H139668   1.301   1.143   5.207 -0.0312 -0.0776  0.1299
13243TIP3    H239669   1.320   1.142   5.358  0.2045  0.9126  0.1071
13244TIP3   OH239670   1.311   1.479   4.020  0.1978 -0.2080  0.1934
13244TIP3    H139671   1.242   1.415   4.036 -1.8211  1.4138 -1.6543
13244TIP3    H239672   1.264   1.562   4.012  2.6133  1.2892  1.0747
13245TIP3   OH239673   6.294   7.206   3.893 -0.2894 -0.1922  0.6457
13245TIP3    H139674   6.217   7.153   3.877  0.5986 -1.0029 -1.0662
13245TIP3    H239675   6.260   7.288   3.930 -1.8281 -1.1020  1.2629
13246TIP3   OH239676   5.582   6.757   3.659  0.6497  0.3554  0.1326
13246TIP3    H139677   5.613   6.775   3.748 -0.8613  0.9145  0.5718
13246TIP3    H239678   5.647   6.797   3.602  0.8547  1.3159  1.0257
13247TIP3   OH239679   7.405   0.797   4.027  0.1320  0.4052  0.4311
13247TIP3    H139680   7.385   0.872   4.083  1.4435  0.3792  0.9405
13247TIP3    H239681   7.413   0.835   3.939 -2.9054  0.3068  0.0391
13248TIP3   OH239682   4.447   7.780   4.075 -0.0004  0.1766  0.1461
13248TIP3    H139683   4.426   7.851   4.015  2.5264 -0.1256 -1.1844
13248TIP3    H239684   4.399   7.800   4.155 -0.4476  2.5958 -0.6932
13249TIP3   OH239685   7.925   0.749   5.123  0.2470  0.5335  0.5230
13249TIP3    H139686   7.986   0.677   5.141  1.1891  1.3001  0.4533
13249TIP3    H239687   7.935   0.807   5.197  1.9198  2.2102 -0.9616
13250TIP3   OH239688   6.307   6.349   3.552 -0.1265 -0.4122  0.3977
13250TIP3    H139689   6.331   6.441   3.558 -1.7471 -0.0074  0.9133
13250TIP3    H239690   6.347   6.309   3.629  2.2501 -0.5591 -0.8526
13251TIP3   OH239691   6.048   7.806   4.149  0.4136  0.0445 -0.0450
13251TIP3    H139692   6.068   7.765   4.234  0.7456 -0.6558 -0.4572
13251TIP3    H239693   5.959   7.777   4.129 -0.3251  1.5866  0.8606
13252TIP3   OH239694   3.807   7.204   3.942  0.2299 -0.1287 -0.1506
13252TIP3    H139695   3.867   7.234   4.010  0.5959  2.6817 -1.6275
13252TIP3    H239696   3.728   7.178   3.989  1.3288 -0.5136  1.5221
13253TIP3   OH239697   3.955   7.031   5.082 -0.8311  0.0651  0.3200
13253TIP3    H139698   3.864   7.053   5.061 -1.6079 -0.6888  2.8066
13253TIP3    H239699   3.958   6.936   5.080  0.6126  0.1166 -2.4871
13254TIP3   OH239700   7.152   6.035   6.587  0.1924  0.0505  0.1843
13254TIP3    H139701   7.161   5.941   6.576 -0.0762  0.0649 -0.1759
13254TIP3    H239702   7.231   6.062   6.634  0.8091 -0.1859 -0.6927
13255TIP3   OH239703   2.801   4.660   0.458 -0.4185  0.2779  0.0807
13255TIP3    H139704   2.883   4.646   0.506 -0.1152  1.2211 -0.1537
13255TIP3    H239705   2.735   4.671   0.526  0.0107  1.6144  0.3023
13256TIP3   OH239706   0.412   1.002   2.694 -0.4105  0.3110 -0.2635
13256TIP3    H139707   0.398   1.051   2.613  0.8212  0.3744 -0.4382
13256TIP3    H239708   0.503   0.972   2.689 -0.3325  0.3018  1.0944
13257TIP3   OH239709   1.866   1.773   3.705  0.2461  0.3657 -0.6305
13257TIP3    H139710   1.911   1.833   3.645  2.7491 -1.0295 -0.2304
13257TIP3    H239711   1.850   1.694   3.652 -0.0103  0.1493 -0.2322
13258TIP3   OH239712   7.430   7.292   3.582 -0.4923  0.0078  0.5486
13258TIP3    H139713   7.500   7.293   3.516  0.2263 -0.3132  1.2878
13258TIP3    H239714   7.405   7.199   3.589  0.8368 -0.2700  2.1494
13259TIP3   OH239715   7.855   0.104   4.625  0.1473 -0.1913 -0.3601
13259TIP3    H139716   7.813   0.071   4.546 -0.5236 -2.7789  1.0222
13259TIP3    H239717   7.948   0.110   4.603 -0.5079  3.3498 -2.7009
13260TIP3   OH239718   1.042   0.197   3.970  0.7796  0.1358 -0.0529
13260TIP3    H139719   1.117   0.216   4.025  0.8565  1.2431 -0.5348
13260TIP3    H239720   1.047   0.260   3.899 -0.5384  0.1414 -0.1581
13261TIP3   OH239721   1.846   1.668   4.603 -0.0424  0.0834  0.1429
13261TIP3    H139722   1.898   1.602   4.559 -0.3083 -0.2841  0.3780
13261TIP3    H239723   1.782   1.696   4.537  1.0407  1.2138 -0.4507
13262TIP3   OH239724   0.987   0.726   2.530 -0.1874 -0.0878 -0.1272
13262TIP3    H139725   1.066   0.721   2.477  0.2010  1.2381  0.3164
13262TIP3    H239726   1.010   0.684   2.613  0.1582  0.5791  0.1191
13263TIP3   OH239727   2.597   2.152   2.661 -0.2115 -0.2642  1.0045
13263TIP3    H139728   2.629   2.117   2.744  0.6075  1.4255  1.4311
13263TIP3    H239729   2.667   2.134   2.599 -1.1580 -2.2366  0.4766
13264TIP3   OH239730   2.037   1.973   4.050 -0.2752  0.1256 -0.6258
13264TIP3    H139731   1.971   2.008   3.989 -0.7980  0.8207  0.3342
13264TIP3    H239732   2.047   1.882   4.023 -2.4525 -0.3104 -0.0762
13265TIP3   OH239733   0.556   0.295   5.382 -0.1407 -0.0204 -0.0883
13265TIP3    H139734   0.622   0.252   5.327 -0.0516  0.5355 -0.4273
13265TIP3    H239735   0.598   0.377   5.409 -1.7964  1.8225 -2.8302
13266TIP3   OH239736   7.448   4.520   5.686 -0.0309  0.3425  0.0198
13266TIP3    H139737   7.458   4.446   5.746  1.7280  1.0269  0.6163
13266TIP3    H239738   7.461   4.482   5.599 -0.4605 -0.2889  0.2350
13267TIP3   OH239739   8.526   7.563   4.229  0.6671 -0.4036  0.1639
13267TIP3    H139740   8.464   7.629   4.263 -0.5695 -0.4234 -1.9635
13267TIP3    H239741   8.509   7.485   4.282 -0.1409  0.0185  0.5411
13268TIP3   OH239742   5.328   5.515   2.061  0.0270  0.2079 -0.7944
13268TIP3    H139743   5.283   5.587   2.106 -0.3107  0.2669 -1.2196
13268TIP3    H239744   5.269   5.440   2.071  0.8940 -0.3055  0.6126
13269TIP3   OH239745   5.179   6.763   3.141 -0.8753 -0.6845  0.0318
13269TIP3    H139746   5.230   6.712   3.078 -1.5926 -2.2365  0.6770
13269TIP3    H239747   5.245   6.808   3.194 -0.2650  0.5575 -1.7312
13270TIP3   OH239748   0.642   1.570   5.431 -0.0243  0.6698  0.2136
13270TIP3    H139749   0.667   1.522   5.509 -0.6287 -0.0466 -0.0304
13270TIP3    H239750   0.696   1.533   5.361 -1.2474 -0.4062 -0.1822
13271TIP3   OH239751   5.915   7.439   4.125  0.7838  0.3119 -0.4729
13271TIP3    H139752   5.843   7.501   4.140 -1.3315 -2.3037  0.5705
13271TIP3    H239753   5.899   7.405   4.037  1.4589  0.6290 -0.7186
13272TIP3   OH239754   7.397   7.431   6.322 -0.0070  0.1343 -0.1872
13272TIP3    H139755   7.390   7.487   6.244 -0.0224  1.6928  0.8971
13272TIP3    H239756   7.345   7.354   6.301  0.4041  0.3100 -1.9165
13273TIP3   OH239757   1.607   1.492   4.472 -0.2063  0.2137  0.1539
13273TIP3    H139758   1.569   1.580   4.476  0.4677  0.4613  1.8735
13273TIP3    H239759   1.624   1.477   4.379 -0.9854  1.6100 -0.2365
13274TIP3   OH239760   1.648   2.112   2.167 -0.1989 -0.4373 -0.2777
13274TIP3    H139761   1.704   2.073   2.100  0.3257  0.6475 -0.4821
13274TIP3    H239762   1.701   2.183   2.204 -1.6611  0.9898 -0.8880
13275TIP3   OH239763   6.257   6.977   6.302 -0.0815 -0.0032 -0.4502
13275TIP3    H139764   6.243   6.910   6.369 -1.0741  2.4656  1.9181
13275TIP3    H239765   6.347   7.007   6.316  0.5490 -1.2023 -1.8669
13276TIP3   OH239766   6.051   7.198   3.394 -0.0461 -0.2273 -0.6314
13276TIP3    H139767   6.120   7.262   3.411  0.5337 -1.3086  1.2924
13276TIP3    H239768   5.978   7.228   3.449  0.1627 -1.0794  0.1310
13277TIP3   OH239769   6.544   6.694   5.293  0.0703  0.4092  0.0741
13277TIP3    H139770   6.605   6.631   5.255 -0.8943 -0.3180 -0.2860
13277TIP3    H239771   6.572   6.702   5.384 -0.4431 -1.3723  0.4131
13278TIP3   OH239772   6.647   6.387   6.319  0.3011 -0.3999 -0.1658
13278TIP3    H139773   6.600   6.367   6.238  1.7433  0.8623 -1.3444
13278TIP3    H239774   6.624   6.477   6.340 -0.5038 -0.8921  1.1669
13279TIP3   OH239775   1.377   0.076   5.851  0.2148 -0.2386 -0.6172
13279TIP3    H139776   1.327   0.011   5.900 -0.6877  0.6004 -0.4134
13279TIP3    H239777   1.364   0.158   5.898  0.2104  0.3634 -1.6515
13280TIP3   OH239778   7.184   6.661   4.973  0.4843 -0.1514  1.2223
13280TIP3    H139779   7.229   6.577   4.979 -0.9808 -0.9853  0.9952
13280TIP3    H239780   7.211   6.697   4.889 -1.2688 -1.8835 -0.1594
13281TIP3   OH239781   7.553   7.093   3.907 -0.1544  0.5642 -0.7445
13281TIP3    H139782   7.587   7.181   3.923 -1.8989  1.2934 -0.9570
13281TIP3    H239783   7.507   7.099   3.824  0.5959 -0.8149 -1.2762
13282TIP3   OH239784   6.957   7.971   1.338 -0.0157 -0.2144  0.2044
13282TIP3    H139785   7.010   7.897   1.307  3.1417  0.8744  2.6405
13282TIP3    H239786   6.910   8.002   1.261 -0.1456 -3.7264 -1.2147
13283TIP3   OH239787   0.119   5.498   2.619 -0.3579 -0.4121 -0.3569
13283TIP3    H139788   0.136   5.494   2.713 -0.1061 -2.6032 -0.4852
13283TIP3    H239789   0.129   5.591   2.598  1.3627 -0.1523  1.4368
13284TIP3   OH239790   1.610   1.147   2.483 -0.5573 -0.2751 -0.1929
13284TIP3    H139791   1.564   1.219   2.440  0.3088  0.6909  0.4719
13284TIP3    H239792   1.562   1.069   2.457 -0.5498  0.3694 -2.2348
13285TIP3   OH239793   7.899   5.413   1.051  0.1404 -0.5251 -0.5150
13285TIP3    H139794   7.889   5.332   1.101  1.5258 -0.9293 -0.8637
13285TIP3    H239795   7.953   5.468   1.108 -0.0909 -0.1595 -0.6493
13286TIP3   OH239796   6.809   6.596   1.899 -0.2397 -0.2270 -0.0921
13286TIP3    H139797   6.717   6.610   1.879  0.1164 -0.4233 -1.9139
13286TIP3    H239798   6.844   6.550   1.823  2.1275  2.7759 -0.9039
13287TIP3   OH239799   7.680   4.457   0.557  0.5305  0.2735  0.3446
13287TIP3    H139800   7.719   4.370   0.558 -1.1051 -0.5274 -0.9495
13287TIP3    H239801   7.752   4.516   0.537  1.5251 -0.8828  0.4821
13288TIP3   OH239802   3.825   2.809   6.296  0.1484  0.0040 -0.0056
13288TIP3    H139803   3.887   2.882   6.293 -0.6906  0.7210 -0.2782
13288TIP3    H239804   3.767   2.831   6.370 -0.4741 -0.0813 -0.4687
13289TIP3   OH239805   4.654   6.517   0.039  0.1018 -0.7169 -0.5167
13289TIP3    H139806   4.606   6.559  -0.032  1.4998  0.2430 -0.9122
13289TIP3    H239807   4.707   6.449  -0.004  0.2972 -0.7148 -0.2846
13290TIP3   OH239808   8.316   5.090   0.110  0.7587  0.4647 -0.2410
13290TIP3    H139809   8.304   5.140   0.190  0.8631  0.1601 -0.0345
13290TIP3    H239810   8.237   5.036   0.103  1.1036 -0.0774  0.0658
13291TIP3   OH239811   6.976   3.528   2.319  0.1723 -0.0955 -0.1320
13291TIP3    H139812   6.996   3.613   2.280 -1.9674  1.0305  1.1478
13291TIP3    H239813   7.053   3.508   2.373 -1.7231  3.9835  4.4280
13292TIP3   OH239814   8.037   6.605   0.542  0.1381  0.1485  0.0891
13292TIP3    H139815   7.953   6.644   0.517 -0.4444 -1.0766  0.1386
13292TIP3    H239816   8.058   6.545   0.471  1.3419  0.9949 -0.2773
13293TIP3   OH239817   0.197   4.110   3.390 -0.3593  0.6083 -0.6604
13293TIP3    H139818   0.149   4.163   3.454 -2.6041 -1.4323 -0.5693
13293TIP3    H239819   0.130   4.085   3.325  1.6818  1.9459 -3.3934
13294TIP3   OH239820   0.656   6.259   5.565  0.2535 -0.3584 -0.4510
13294TIP3    H139821   0.715   6.188   5.592  0.6969  0.2551  0.2197
13294TIP3    H239822   0.570   6.231   5.596  0.9605  0.9712  3.0010
13295TIP3   OH239823   0.199   6.271   0.780 -0.1675  0.1481 -0.0867
13295TIP3    H139824   0.159   6.296   0.696 -2.3302  1.3039  1.2140
13295TIP3    H239825   0.139   6.207   0.817  1.6609 -1.6407 -0.1546
13296TIP3   OH239826   7.725   7.033   1.590  0.0791  0.0886 -0.1649
13296TIP3    H139827   7.738   7.006   1.681 -0.3934  0.3166 -0.0237
13296TIP3    H239828   7.665   7.108   1.596  0.7336  0.6583 -0.6043
13297TIP3   OH239829   0.863   7.163   0.679 -0.2277 -0.3309  0.1166
13297TIP3    H139830   0.927   7.118   0.624 -0.0848  0.4424 -0.3579
13297TIP3    H239831   0.880   7.256   0.664  0.1603 -0.1068  1.8750
13298TIP3   OH239832   5.434   2.909   6.574  0.0361 -0.3290 -0.4860
13298TIP3    H139833   5.366   2.843   6.586  0.5004 -0.3897  2.0987
13298TIP3    H239834   5.439   2.953   6.659  0.7846  2.0273 -1.7224
13299TIP3   OH239835   7.959   6.188   1.829 -0.3568 -0.3552 -0.4070
13299TIP3    H139836   8.024   6.119   1.836 -0.0931 -0.0705 -0.0078
13299TIP3    H239837   8.001   6.265   1.869 -1.3418 -0.4486  0.8304
13300TIP3   OH239838   0.950   3.951   4.376 -0.1316  0.4640 -0.3693
13300TIP3    H139839   0.914   4.034   4.408  2.5323  1.6627 -0.3457
13300TIP3    H239840   0.993   3.974   4.293 -0.4003 -1.1496 -0.9814
13301TIP3   OH239841   2.149   5.609   1.496  0.4876 -0.3016 -0.4199
13301TIP3    H139842   2.116   5.696   1.474 -0.4524 -0.9187 -1.5228
13301TIP3    H239843   2.083   5.573   1.555  1.5262  0.2222  1.0644
13302TIP3   OH239844   0.451   5.204   1.979 -0.4967  0.1427 -0.4620
13302TIP3    H139845   0.498   5.207   2.062 -2.1749  1.2316  0.4553
13302TIP3    H239846   0.445   5.111   1.958  0.7619 -0.0865  0.1323
13303TIP3   OH239847   1.189   5.671   2.410  0.0046  0.5878 -0.4411
13303TIP3    H139848   1.217   5.762   2.409  2.4237 -0.1066 -0.0943
13303TIP3    H239849   1.270   5.621   2.400 -1.1204 -1.5584  0.7137
13304TIP3   OH239850   7.545   7.077   2.114  0.0451 -0.0539  0.3287
13304TIP3    H139851   7.548   7.069   2.209  0.8239  2.0541  0.5156
13304TIP3    H239852   7.594   7.157   2.095 -1.5773  0.5141 -1.7183
13305TIP3   OH239853   0.759   7.235   0.911  0.1922  0.1736  0.1072
13305TIP3    H139854   0.718   7.322   0.900 -0.5042 -0.1436  0.1447
13305TIP3    H239855   0.767   7.201   0.822  1.4821  0.7339  0.0076
13306TIP3   OH239856   7.916   6.229   1.307  0.6810  0.8862 -0.0459
13306TIP3    H139857   7.919   6.255   1.399 -2.5593  2.8137 -0.4139
13306TIP3    H239858   7.929   6.311   1.259 -0.9655  0.4382 -1.2887
13307TIP3   OH239859   6.298   6.273   1.876 -0.1953  0.1870 -0.0117
13307TIP3    H139860   6.224   6.332   1.867  1.5858  2.4221 -0.5262
13307TIP3    H239861   6.355   6.295   1.802  1.0430 -1.3982  0.4410
13308TIP3   OH239862   0.455   7.671   1.073 -0.1609  0.0749 -0.1840
13308TIP3    H139863   0.454   7.766   1.077 -0.2694 -0.0021  2.0698
13308TIP3    H239864   0.546   7.649   1.053 -0.1210  0.6407 -0.6377
13309TIP3   OH239865   5.074   0.802   6.577  0.1045 -0.1086  0.8450
13309TIP3    H139866   5.003   0.792   6.639 -0.5159 -0.7159  0.0518
13309TIP3    H239867   5.067   0.892   6.546 -1.1154 -0.5425 -0.1809
13310TIP3   OH239868   8.110   5.703   2.169  0.1974  0.5137  0.1060
13310TIP3    H139869   8.110   5.608   2.163 -1.3875  0.4925  0.0078
13310TIP3    H239870   8.143   5.722   2.257 -0.0321 -0.1632  0.3415
13311TIP3   OH239871   3.065   7.480   1.226  0.9137  0.5836  0.1677
13311TIP3    H139872   3.106   7.490   1.312  1.3168  0.7573 -0.0408
13311TIP3    H239873   2.972   7.464   1.245  1.1330 -0.1437  0.6534
13312TIP3   OH239874   1.684   6.943   1.416 -0.2720 -0.0691  0.1729
13312TIP3    H139875   1.681   7.026   1.464 -0.6141  1.0782 -1.7478
13312TIP3    H239876   1.593   6.916   1.408 -0.3865  0.6938 -1.3577
13313TIP3   OH239877   0.311   5.426   2.189  0.2011  0.1127  0.0556
13313TIP3    H139878   0.257   5.470   2.124  0.1897 -0.5032 -0.3614
13313TIP3    H239879   0.304   5.333   2.167  1.0658 -0.0117  0.2694
13314TIP3   OH239880   1.602   4.630   2.903 -0.5551  0.4746 -0.3414
13314TIP3    H139881   1.651   4.548   2.889 -0.5369  0.2059  1.1735
13314TIP3    H239882   1.527   4.604   2.957 -1.5019  1.1627 -1.3284
13315TIP3   OH239883   0.633   5.497   0.241  0.5150 -0.1640  0.1345
13315TIP3    H139884   0.540   5.475   0.234  0.2205  1.6752 -2.6334
13315TIP3    H239885   0.670   5.473   0.156  2.2501  0.6107  0.6436
13316TIP3   OH239886   1.204   4.735   0.314 -0.3349 -0.2359 -0.1614
13316TIP3    H139887   1.284   4.768   0.273 -0.0750 -2.7263 -1.7797
13316TIP3    H239888   1.231   4.654   0.357 -1.9212 -0.9723 -0.5100
13317TIP3   OH239889   8.382   6.172   4.038  0.0328  0.0332 -0.1936
13317TIP3    H139890   8.342   6.203   4.119 -0.2371  0.5037 -0.5032
13317TIP3    H239891   8.351   6.233   3.971 -1.4540 -1.5831 -1.0196
13318TIP3   OH239892   2.288   4.280   0.356  0.0531  0.0684 -0.3851
13318TIP3    H139893   2.240   4.203   0.384  0.6003  0.0078  0.3876
13318TIP3    H239894   2.279   4.281   0.260 -0.2518 -0.7517 -0.3618
13319TIP3   OH239895   7.268   6.262   2.010  0.3194 -0.0435 -0.2429
13319TIP3    H139896   7.203   6.255   2.080  0.7396  0.5245  0.2077
13319TIP3    H239897   7.347   6.224   2.047 -0.0345 -1.7570 -1.1731
13320TIP3   OH239898   0.287   6.945   1.712 -0.3844  0.0937  0.0753
13320TIP3    H139899   0.242   6.862   1.728  1.9990 -1.5523 -1.4510
13320TIP3    H239900   0.322   6.969   1.798 -2.2037  0.2448  0.8047
13321TIP3   OH239901   5.801   2.024   5.806  0.4059  0.1080  0.3681
13321TIP3    H139902   5.789   2.039   5.900  2.6030  0.8562  0.5477
13321TIP3    H239903   5.742   2.087   5.764  1.1281  1.3953  1.2446
13322TIP3   OH239904   2.472   1.100   2.943 -0.1972  0.1536  0.1362
13322TIP3    H139905   2.555   1.056   2.959  1.5376  1.7538 -3.7284
13322TIP3    H239906   2.484   1.188   2.979  0.0816  0.6206 -1.0821
13323TIP3   OH239907   7.990   5.833   2.834 -0.0062  0.4158  0.2949
13323TIP3    H139908   8.069   5.781   2.821  0.5318  1.3373 -0.1728
13323TIP3    H239909   7.994   5.900   2.766 -1.2574  0.3898  0.1831
13324TIP3   OH239910   7.081   6.898   3.695 -1.0615  0.1346  0.3626
13324TIP3    H139911   7.082   6.812   3.654 -0.1662 -0.1321  0.9368
13324TIP3    H239912   7.002   6.940   3.661 -0.5606 -0.2439 -1.2706
13325TIP3   OH239913   7.877   6.310   2.862 -0.2824 -0.0880 -0.2113
13325TIP3    H139914   7.927   6.386   2.891  0.3068  0.3054 -2.1604
13325TIP3    H239915   7.789   6.345   2.845  0.0147  0.1862 -1.2022
13326TIP3   OH239916   0.665   6.232   0.739 -0.1638 -0.1762  0.3241
13326TIP3    H139917   0.705   6.222   0.652 -0.2629  1.4922  0.0676
13326TIP3    H239918   0.724   6.186   0.798 -0.4226 -1.8782 -0.7050
13327TIP3   OH239919   2.159   0.678   1.291  0.5802 -0.7510 -0.4079
13327TIP3    H139920   2.083   0.619   1.290 -0.7514  0.8897  0.3494
13327TIP3    H239921   2.205   0.660   1.209  0.6013 -3.3105  0.1277
13328TIP3   OH239922   0.578   4.117   3.203 -0.3962  0.1126  0.2023
13328TIP3    H139923   0.637   4.132   3.129  0.3213  1.5504  1.0339
13328TIP3    H239924   0.543   4.204   3.223 -1.1395 -0.3872  1.0892
13329TIP3   OH239925   7.754   5.824   1.875 -0.1260  0.0356 -0.1963
13329TIP3    H139926   7.776   5.790   1.788 -0.4342  1.6787 -0.9291
13329TIP3    H239927   7.833   5.871   1.903 -0.6320  0.9888 -0.3434
13330TIP3   OH239928   0.084   5.063   0.961  0.1439 -0.7433 -0.3541
13330TIP3    H139929   0.129   5.093   0.882  0.2759  1.6698  0.5824
13330TIP3    H239930  -0.008   5.084   0.947 -0.0657 -1.7289 -0.4922
13331TIP3   OH239931   1.799   5.187   2.462 -0.2137  0.3081  0.1983
13331TIP3    H139932   1.828   5.223   2.379 -2.8607  1.3108 -0.3526
13331TIP3    H239933   1.799   5.092   2.448 -1.3734  0.4996 -1.2270
13332TIP3   OH239934   7.736   5.995   2.178 -0.0989 -0.1265  0.2036
13332TIP3    H139935   7.793   5.931   2.133 -0.1359 -0.4163  0.5675
13332TIP3    H239936   7.771   6.080   2.152  1.3666 -0.2970  1.5051
13333TIP3   OH239937   5.650   1.867   6.634 -0.0210 -0.3002  0.5407
13333TIP3    H139938   5.563   1.834   6.656 -0.3527 -0.4008 -0.8668
13333TIP3    H239939   5.660   1.945   6.688 -2.1366  1.3000 -1.2314
13334TIP3   OH239940   8.411   7.487   0.154 -0.0847  0.8566  0.1394
13334TIP3    H139941   8.397   7.529   0.070 -0.0376 -2.3774 -1.5730
13334TIP3    H239942   8.347   7.415   0.156  0.0518  0.7404  2.7786
13335TIP3   OH239943   0.144   6.592   0.931  0.2528 -0.1738 -0.2236
13335TIP3    H139944   0.183   6.571   0.847 -1.0037 -0.2647 -0.7873
13335TIP3    H239945   0.154   6.687   0.940  2.3503 -0.4485  0.5273
13336TIP3   OH239946   0.187   2.749   1.472 -0.0197 -0.4164  0.3256
13336TIP3    H139947   0.159   2.666   1.434  1.0459 -0.5250 -0.2693
13336TIP3    H239948   0.194   2.808   1.396  1.0322 -0.3131  0.4989
13337TIP3   OH239949   0.861   0.956   0.172 -0.0775 -0.0301 -0.3967
13337TIP3    H139950   0.878   0.867   0.140  1.6703  0.0844  0.1858
13337TIP3    H239951   0.825   0.943   0.260 -0.6964 -0.1832 -0.6682
13338TIP3   OH239952   1.901   5.538   2.611 -0.3105  0.0469  0.2860
13338TIP3    H139953   1.836   5.568   2.674 -0.0256 -1.6637  1.4186
13338TIP3    H239954   1.877   5.581   2.529 -1.6120  1.0593  1.1867
13339TIP3   OH239955   7.802   6.010   1.441  0.3446  0.3004  0.3404
13339TIP3    H139956   7.788   6.051   1.526  0.3448 -0.6751  0.8187
13339TIP3    H239957   7.838   6.080   1.386 -2.5792  1.7992  0.2166
13340TIP3   OH239958   2.681   0.715   0.954  0.1372  0.2504 -0.3481
13340TIP3    H139959   2.715   0.797   0.989  3.3776 -0.0907 -2.4618
13340TIP3    H239960   2.675   0.730   0.860 -1.7327 -1.1126 -0.4752
13341TIP3   OH239961   3.234   2.148   6.675  0.3799 -0.2916 -0.3790
13341TIP3    H139962   3.281   2.211   6.620 -1.4832  0.5450 -1.0261
13341TIP3    H239963   3.144   2.180   6.677 -0.2830 -2.1722  0.4435
13342TIP3   OH239964   1.561   3.690   2.067  0.4337  0.5932 -0.2334
13342TIP3    H139965   1.474   3.685   2.108  0.4393 -0.0808 -0.3033
13342TIP3    H239966   1.622   3.691   2.141  0.5005 -1.8103 -0.2420
13343TIP3   OH239967   0.446   5.779   1.948 -0.2356 -0.0657 -0.5546
13343TIP3    H139968   0.509   5.832   1.900  1.8742 -0.8032  1.2934
13343TIP3    H239969   0.373   5.769   1.888  1.2389  1.1206 -2.6405
13344TIP3   OH239970   0.499   4.546   1.188 -0.3639 -0.6921  0.6319
13344TIP3    H139971   0.540   4.466   1.221  0.6517 -0.3109  0.3010
13344TIP3    H239972   0.522   4.612   1.253 -1.0285 -0.6188  0.7953
13345TIP3   OH239973   1.730   5.831   1.159  0.6988  0.4415 -0.2584
13345TIP3    H139974   1.686   5.916   1.162  1.8442  1.0237  0.3240
13345TIP3    H239975   1.713   5.792   1.245 -0.2571 -0.1534 -0.7044
13346TIP3   OH239976   8.467   5.319   3.943 -0.9223  0.0472  0.1930
13346TIP3    H139977   8.469   5.412   3.966  0.2594  0.0576  0.0547
13346TIP3    H239978   8.552   5.285   3.971 -2.1943 -1.5130  2.3426
13347TIP3   OH239979   0.399   4.178   1.073 -0.0823 -0.3033 -0.4430
13347TIP3    H139980   0.454   4.140   1.004 -1.5296  0.2863 -1.9625
13347TIP3    H239981   0.461   4.210   1.139  1.2682 -2.5390 -0.5816
13348TIP3   OH239982   6.414   1.818   0.073 -0.1143  0.1372 -0.0288
13348TIP3    H139983   6.455   1.896   0.112 -0.1204 -0.1414  0.5408
13348TIP3    H239984   6.329   1.849   0.041  0.0941  0.4789 -0.2566
13349TIP3   OH239985   2.169   0.318   4.707 -0.1081  0.1932 -0.2259
13349TIP3    H139986   2.134   0.269   4.632 -1.8841 -1.1382  1.4272
13349TIP3    H239987   2.097   0.375   4.735  0.1906 -0.0510  1.0875
13350TIP3   OH239988   8.251   5.511   0.553  0.4313  0.0740 -0.1758
13350TIP3    H139989   8.315   5.441   0.568  0.8359  0.5293  0.2705
13350TIP3    H239990   8.279   5.550   0.470  0.9358  0.4753  0.1743
13351TIP3   OH239991   1.942   4.921   0.923  0.1736 -0.0845 -0.1438
13351TIP3    H139992   1.852   4.910   0.955  0.0025  0.8236 -0.2899
13351TIP3    H239993   1.938   4.999   0.867  0.5419 -1.4314 -2.1125
13352TIP3   OH239994   6.712   2.396   6.963  0.3098 -0.5702 -0.1405
13352TIP3    H139995   6.742   2.474   6.917 -1.0778 -0.6036 -1.1201
13352TIP3    H239996   6.743   2.323   6.910  0.5736 -0.6610  0.1366
13353TIP3   OH239997   0.382   7.798   1.999  0.0574  0.0300  0.4008
13353TIP3    H139998   0.409   7.714   1.962 -0.4954 -0.8192  1.8542
13353TIP3    H239999   0.387   7.785   2.094 -0.0429  1.6427  0.6464
13354TIP3   OH240000   7.547   6.895   1.905 -0.2698  0.2869 -0.4350
13354TIP3    H140001   7.545   6.938   1.990 -1.7487 -0.7934  0.0993
13354TIP3    H240002   7.483   6.943   1.852  0.6220  0.9351 -0.9184
13355TIP3   OH240003   8.142   5.350   4.176 -0.0146 -0.0338 -0.2366
13355TIP3    H140004   8.145   5.444   4.193 -1.4572  0.0461 -0.3424
13355TIP3    H240005   8.179   5.309   4.254  1.6275  0.6635 -0.6472
13356TIP3   OH240006   6.409   5.360   1.385 -0.3597  0.2661 -0.1795
13356TIP3    H140007   6.471   5.326   1.450 -0.1894 -0.7057 -0.8428
13356TIP3    H240008   6.324   5.327   1.414 -0.5262  1.2707  0.5084
13357TIP3   OH240009   0.511   6.473   1.692 -0.0309 -0.6213  0.0130
13357TIP3    H140010   0.573   6.546   1.691  1.3194 -1.7017  1.5846
13357TIP3    H240011   0.441   6.500   1.633  1.6946  0.8430 -1.4217
13358TIP3   OH240012   2.297   0.126   0.855  0.0253 -0.6268 -0.1554
13358TIP3    H140013   2.333   0.123   0.944  1.2577 -0.1320 -0.6306
13358TIP3    H240014   2.224   0.064   0.857 -0.4676 -0.0393  1.4245
13359TIP3   OH240015   1.872   7.808   0.529  0.2286 -0.0581 -0.5836
13359TIP3    H140016   1.823   7.726   0.529 -0.9258  0.6101 -0.9430
13359TIP3    H240017   1.830   7.860   0.459 -0.4038  1.6128  0.9971
13360TIP3   OH240018   6.253   7.211   0.271 -0.5420  0.7112  0.3922
13360TIP3    H140019   6.223   7.127   0.238 -0.2609  0.5400  0.5720
13360TIP3    H240020   6.173   7.256   0.298 -0.8494  1.1674 -1.2236
13361TIP3   OH240021   8.484   7.787   1.702  0.0241 -0.1269  0.2076
13361TIP3    H140022   8.429   7.843   1.648 -0.5632 -1.1644 -0.2817
13361TIP3    H240023   8.539   7.848   1.752  1.4937  0.8483 -2.4810
13362TIP3   OH240024   1.172   4.866   2.114 -0.1748  0.1733 -0.4309
13362TIP3    H140025   1.220   4.861   2.197  1.3065 -0.6063 -1.3278
13362TIP3    H240026   1.130   4.952   2.116 -0.7372 -0.1303  1.4526
13363TIP3   OH240027   2.810   0.439   0.338  0.1676 -0.2097  0.5718
13363TIP3    H140028   2.798   0.344   0.333 -1.2570 -0.0787  1.2540
13363TIP3    H240029   2.757   0.466   0.413 -1.0161  1.3690 -0.7988
13364TIP3   OH240030   5.845   3.259   6.363 -0.5669  0.2051 -0.0168
13364TIP3    H140031   5.899   3.304   6.297 -0.1535 -0.7893 -0.3606
13364TIP3    H240032   5.846   3.318   6.438  0.2462  0.6206 -0.3466
13365TIP3   OH240033   1.005   7.077   2.152 -0.1888 -0.2043  0.1258
13365TIP3    H140034   0.934   7.107   2.095  0.4247  0.7209 -0.1661
13365TIP3    H240035   0.963   7.016   2.213 -0.7154 -1.7330 -1.7496
13366TIP3   OH240036   1.987   5.297   0.840 -0.3172  0.3124  0.8001
13366TIP3    H140037   1.993   5.277   0.933  1.9873 -1.4027  0.3017
13366TIP3    H240038   2.046   5.236   0.798 -0.4986  1.7978 -1.7086
13367TIP3   OH240039   0.634   7.190   0.429 -0.2961  0.5928 -0.2394
13367TIP3    H140040   0.614   7.277   0.395 -2.6020  0.0725 -0.2882
13367TIP3    H240041   0.678   7.207   0.513 -0.5073  1.7969 -0.3628
13368TIP3   OH240042   1.119   7.872   0.917  0.3170  0.3450 -0.0837
13368TIP3    H140043   1.214   7.864   0.910  0.3630  2.2803 -2.3906
13368TIP3    H240044   1.101   7.963   0.892 -1.9987  0.4936  1.9772
13369TIP3   OH240045   1.652   7.595   2.507 -0.2374 -0.3357  0.1259
13369TIP3    H140046   1.714   7.534   2.467  0.9807  0.6644  0.4756
13369TIP3    H240047   1.577   7.596   2.447  1.1166  0.3441 -1.5943
13370TIP3   OH240048   1.486   6.485   3.247 -0.1126  0.3892 -0.1726
13370TIP3    H140049   1.496   6.537   3.326 -3.9543  1.0183 -0.0348
13370TIP3    H240050   1.423   6.533   3.194  1.4044 -0.6958 -3.0892
13371TIP3   OH240051   5.362   0.152   2.265 -0.2241  0.2327  0.3046
13371TIP3    H140052   5.345   0.123   2.175  0.0828  0.5980  0.1233
13371TIP3    H240053   5.434   0.097   2.295 -0.0906  0.3523  0.2012
13372TIP3   OH240054   0.047   6.261   0.549  0.0953  0.8264 -0.4482
13372TIP3    H140055   0.094   6.265   0.466  1.7137  0.0624  0.4146
13372TIP3    H240056   0.012   6.172   0.553  1.0906  0.4589  0.2525
13373TIP3   OH240057   7.346   2.043   6.762  0.4126 -0.0231 -0.2873
13373TIP3    H140058   7.265   2.010   6.723  0.3209 -0.8334  0.5572
13373TIP3    H240059   7.407   1.969   6.755  1.2760  0.7790 -1.4688
13374TIP3   OH240060   6.394   2.354   6.705 -0.1104  0.0996 -0.2205
13374TIP3    H140061   6.374   2.326   6.615  1.9479 -0.1319 -0.6371
13374TIP3    H240062   6.489   2.348   6.711 -0.2218  0.1592  1.9857
13375TIP3   OH240063   6.805   4.094   6.656 -0.1240  0.0025 -0.4725
13375TIP3    H140064   6.877   4.068   6.598  0.7272  0.8398  0.1792
13375TIP3    H240065   6.751   4.016   6.665  0.8514 -0.7146 -0.7739
13376TIP3   OH240066   4.057   0.208   0.572 -0.9166 -0.6997  0.1456
13376TIP3    H140067   4.018   0.157   0.643 -2.2027  0.1969  0.1078
13376TIP3    H240068   3.989   0.211   0.504  0.2324 -1.3795 -1.0401
13377TIP3   OH240069   0.010   6.002   0.769 -0.2102 -0.0487  0.1503
13377TIP3    H140070   0.092   5.964   0.737 -1.5633 -3.5760  0.6101
13377TIP3    H240071  -0.045   6.008   0.691 -0.6465 -0.8523  0.3889
13378TIP3   OH240072   4.134   0.427   1.862 -0.1848  0.2954 -0.1773
13378TIP3    H140073   4.137   0.493   1.931  1.7646 -0.1053  0.1461
13378TIP3    H240074   4.041   0.414   1.845 -0.6038  2.4821  0.3534
13379TIP3   OH240075   4.877   0.366   1.927 -0.0120  0.1378 -0.0996
13379TIP3    H140076   4.923   0.333   2.004 -1.6669  2.7052  2.0562
13379TIP3    H240077   4.805   0.305   1.913 -0.7854  0.6576  1.5201
13380TIP3   OH240078   3.190   6.603   1.011 -0.0474 -0.0123 -0.0212
13380TIP3    H140079   3.178   6.572   1.101  0.4248  0.1082  0.0865
13380TIP3    H240080   3.285   6.598   0.997 -0.0411  0.7169 -0.2394
13381TIP3   OH240081   4.161   3.293   6.731  0.4387  0.3189 -0.1172
13381TIP3    H140082   4.106   3.217   6.747  2.0223 -0.9653 -0.6807
13381TIP3    H240083   4.176   3.331   6.818  1.4358 -1.2871  0.4334
13382TIP3   OH240084   3.220   0.538   0.115 -0.0477  0.1300  0.5765
13382TIP3    H140085   3.207   0.484   0.038  1.4411  0.3049  0.1788
13382TIP3    H240086   3.176   0.490   0.186 -4.0253  1.4419 -0.8903
13383TIP3   OH240087   0.852   0.638   0.919 -0.0439  0.9853  0.1252
13383TIP3    H140088   0.818   0.726   0.935  0.6718  1.0738  1.2469
13383TIP3    H240089   0.797   0.603   0.850 -2.1104  1.3061  1.5496
13384TIP3   OH240090   8.260   5.986   0.021 -0.7346  0.2950  0.3852
13384TIP3    H140091   8.224   5.936   0.094  0.6501  0.0883  0.9438
13384TIP3    H240092   8.298   6.064   0.061 -1.3571  0.9589 -0.2932
13385TIP3   OH240093   1.778   6.615   0.076 -0.5749 -0.1902 -0.1248
13385TIP3    H140094   1.857   6.595   0.128  0.1969  0.3971 -1.0508
13385TIP3    H240095   1.792   6.568  -0.006 -0.5241  1.0749 -0.8453
13386TIP3   OH240096   0.080   0.255   0.914  0.3191  0.2722 -0.2007
13386TIP3    H140097   0.074   0.175   0.966 -0.0595  0.1432 -0.4323
13386TIP3    H240098   0.027   0.319   0.962 -0.5861 -0.0413 -0.7708
13387TIP3   OH240099   7.525   0.600   3.369 -0.1035  0.0405  0.1391
13387TIP3    H140100   7.509   0.515   3.410 -0.8330  0.0873 -0.0285
13387TIP3    H240101   7.457   0.607   3.302 -1.3145  1.5829  1.4535
13388TIP3   OH240102   7.583   5.957   4.092  0.2295 -0.6517  0.3450
13388TIP3    H140103   7.567   5.955   3.997 -0.1376 -1.9086  0.4278
13388TIP3    H240104   7.678   5.950   4.100  0.3249  0.2779  0.0459
13389TIP3   OH240105   7.064   5.687   3.491  0.3899  0.2743 -0.4179
13389TIP3    H140106   7.075   5.738   3.571 -1.7242  0.2976 -0.0964
13389TIP3    H240107   7.115   5.608   3.506  0.7834  0.7026  0.5707
13390TIP3   OH240108   4.195   4.371   6.062 -0.0483 -0.1334  0.1964
13390TIP3    H140109   4.213   4.279   6.083  0.8499 -0.2567 -1.0599
13390TIP3    H240110   4.193   4.374   5.966  1.3748  1.4182  0.1831
13391TIP3   OH240111   4.205   5.593   0.228 -0.2732 -0.9661  0.4309
13391TIP3    H140112   4.219   5.506   0.192 -0.3581 -1.7237  2.1835
13391TIP3    H240113   4.282   5.643   0.200 -0.7218 -1.2892 -1.4448
13392TIP3   OH240114   1.543   1.433   0.475 -0.0792 -0.6783 -0.0964
13392TIP3    H140115   1.449   1.436   0.461 -0.2980 -2.7599  0.6561
13392TIP3    H240116   1.554   1.448   0.569  0.0995 -3.1366  0.3105
13393TIP3   OH240117   7.181   0.618   0.750 -0.0610  0.3247  0.0061
13393TIP3    H140118   7.196   0.571   0.832  2.3229  2.2207  0.7187
13393TIP3    H240119   7.136   0.698   0.776  1.9056  1.5651 -0.3469
13394TIP3   OH240120   6.119   6.326   0.064 -0.1151 -0.4117 -0.3272
13394TIP3    H140121   6.034   6.348   0.025  0.7225  1.7325 -1.0177
13394TIP3    H240122   6.156   6.260   0.004 -0.4988  0.0057 -1.0317
13395TIP3   OH240123   8.052   1.473   0.540 -0.4142 -0.1298 -0.3581
13395TIP3    H140124   7.983   1.510   0.485 -1.0258  0.2259  0.6476
13395TIP3    H240125   8.006   1.412   0.598 -0.3942  2.4257  2.4751
13396TIP3   OH240126   6.490   7.673   0.771  0.0563  0.4145  0.1286
13396TIP3    H140127   6.528   7.594   0.808 -1.6058  0.0449  1.1174
13396TIP3    H240128   6.541   7.745   0.808  0.6129 -0.1341  0.4205
13397TIP3   OH240129   8.433   6.904   1.599  0.0001  0.1754  0.4533
13397TIP3    H140130   8.451   6.989   1.640  2.0803  1.0298 -2.0188
13397TIP3    H240131   8.434   6.842   1.671 -1.2183  2.1979  2.2775
13398TIP3   OH240132   0.296   1.706   0.678 -0.1539  0.1402 -0.3838
13398TIP3    H140133   0.241   1.704   0.757  1.0596  2.1426  0.5538
13398TIP3    H240134   0.385   1.721   0.711  0.9587 -2.5656 -1.9012
13399TIP3   OH240135   0.717   6.724   2.074  0.1025 -0.1012  0.3070
13399TIP3    H140136   0.804   6.741   2.111 -0.4052 -0.2576  1.6226
13399TIP3    H240137   0.662   6.794   2.109 -0.2818  0.0604 -0.6136
13400TIP3   OH240138   1.049   0.661   0.656  0.1119 -0.1839 -0.0130
13400TIP3    H140139   0.968   0.706   0.679 -0.7933 -0.9514 -1.6154
13400TIP3    H240140   1.115   0.697   0.716 -0.9534  1.9835 -0.1170
13401TIP3   OH240141   0.942   0.998   2.149 -0.2559  0.6476 -0.2295
13401TIP3    H140142   0.965   1.086   2.120 -1.7721  1.4067  0.7946
13401TIP3    H240143   0.846   0.999   2.156 -0.3238 -1.2100 -0.6314
13402TIP3   OH240144   1.087   0.515   1.034  0.0886 -0.3573 -0.1842
13402TIP3    H140145   1.009   0.546   0.987 -0.4753 -1.7118 -0.1543
13402TIP3    H240146   1.113   0.590   1.088 -2.4419 -0.5559  1.4168
13403TIP3   OH240147   0.629   0.019   0.133  0.0283  0.2866  0.5043
13403TIP3    H140148   0.649  -0.040   0.060  0.1353 -0.5938  1.2517
13403TIP3    H240149   0.548   0.063   0.106 -0.0117 -0.1401 -0.0838
13404TIP3   OH240150   6.722   6.028   1.730 -0.6558  0.4224  0.9295
13404TIP3    H140151   6.809   5.989   1.716 -0.2707  1.2064  1.1025
13404TIP3    H240152   6.702   6.010   1.821 -1.4197 -1.2195  0.4584
13405TIP3   OH240153   1.046   0.780   4.370 -0.2889  0.2935 -0.3021
13405TIP3    H140154   0.973   0.805   4.313  0.5136  0.5999 -1.1973
13405TIP3    H240155   1.122   0.823   4.332  0.7447 -1.7825 -0.6309
13406TIP3   OH240156   3.699   4.442   6.899 -0.1767  0.0252 -0.1576
13406TIP3    H140157   3.649   4.437   6.817 -1.2832 -0.1014  0.5051
13406TIP3    H240158   3.635   4.418   6.966  1.2453 -1.9625  0.5455
13407TIP3   OH240159   5.505   5.992   0.826 -0.4660  0.8478  0.0045
13407TIP3    H140160   5.415   5.973   0.853  0.0625 -0.2376  1.0584
13407TIP3    H240161   5.544   6.037   0.901  0.3518 -0.1625  0.1934
13408TIP3   OH240162   0.187   5.677   1.018  0.1979 -0.8362 -0.0614
13408TIP3    H140163   0.144   5.726   1.088 -1.0192 -1.6625 -0.2070
13408TIP3    H240164   0.136   5.596   1.011  0.5581 -0.9501 -1.6167
13409TIP3   OH240165   0.685   1.074  -0.014  0.0495 -0.4509  0.5212
13409TIP3    H140166   0.696   1.169  -0.003 -1.5076 -0.4308  2.0769
13409TIP3    H240167   0.746   1.036   0.050 -0.0708 -0.4871  0.6134
13410TIP3   OH240168   6.448   6.572   0.832  0.2222  0.4069  0.2514
13410TIP3    H140169   6.509   6.521   0.886  0.1988 -0.0676 -0.1564
13410TIP3    H240170   6.369   6.518   0.827 -0.2122  0.9969  0.7297
13411TIP3   OH240171   7.631   6.402   2.730 -0.2996  0.2574  0.7228
13411TIP3    H140172   7.543   6.415   2.765  0.7259  1.3757  3.0657
13411TIP3    H240173   7.659   6.490   2.703  0.3852  0.0613  0.7814
13412TIP3   OH240174   0.227   0.577   1.359  0.3523  0.1301 -0.2013
13412TIP3    H140175   0.318   0.603   1.347  0.1851  0.2404 -1.2614
13412TIP3    H240176   0.217   0.566   1.454  2.1451 -2.3627 -0.2472
13413TIP3   OH240177   5.170   5.805   1.318  0.3113 -0.1482  0.0091
13413TIP3    H140178   5.095   5.847   1.276  0.2516  0.7489  1.0078
13413TIP3    H240179   5.132   5.749   1.386  0.6022  1.3325  1.4100
13414TIP3   OH240180   7.952   6.862   2.525  0.2137  0.0398 -0.2942
13414TIP3    H140181   8.011   6.935   2.544  1.0500 -0.0220 -2.4397
13414TIP3    H240182   7.865   6.896   2.542  0.5496  1.7785 -1.8231
13415TIP3   OH240183   2.086   3.420   6.855 -0.2067  0.0843  0.3746
13415TIP3    H140184   2.077   3.381   6.768 -0.2624  1.4844 -0.2567
13415TIP3    H240185   2.172   3.391   6.886  0.5287  0.9591 -0.8461
13416TIP3   OH240186   0.523   0.703   2.452 -0.3888 -0.1378  0.2711
13416TIP3    H140187   0.442   0.747   2.425 -0.2222 -0.8178 -1.3841
13416TIP3    H240188   0.493   0.627   2.501 -0.7972 -1.0847 -1.4160
13417TIP3   OH240189   3.536   4.385   5.383 -0.4779 -0.2144  0.4327
13417TIP3    H140190   3.547   4.315   5.448 -1.0044  0.4525  1.2401
13417TIP3    H240191   3.444   4.409   5.388 -0.2611  0.6691  0.2840
13418TIP3   OH240192   6.312   7.609   1.083  0.5370 -0.1166 -0.4921
13418TIP3    H140193   6.268   7.577   1.004 -1.9543  0.8025  0.4778
13418TIP3    H240194   6.322   7.703   1.068 -1.7756  0.4253  1.0660
13419TIP3   OH240195   1.524   2.933   6.309  0.2007 -0.0556 -0.4737
13419TIP3    H140196   1.539   2.886   6.227  0.4611 -0.2586 -0.3110
13419TIP3    H240197   1.607   2.926   6.356  0.0143 -0.0440 -0.1423
13420TIP3   OH240198   6.499   5.817   1.248 -0.2019 -0.0346 -0.5197
13420TIP3    H140199   6.442   5.776   1.183  0.5092 -1.1098 -0.4699
13420TIP3    H240200   6.454   5.802   1.331  0.4838 -1.4942 -0.4000
13421TIP3   OH240201   5.588   6.799   1.125 -0.0539 -0.3202 -0.5680
13421TIP3    H140202   5.527   6.872   1.116  0.3845 -0.0368 -1.2932
13421TIP3    H240203   5.669   6.840   1.156  0.1791 -0.5028 -0.9343
13422TIP3   OH240204   5.664   6.625   0.339  0.3752 -0.1728  0.3858
13422TIP3    H140205   5.722   6.640   0.414 -0.9346 -2.7263  1.9990
13422TIP3    H240206   5.721   6.591   0.271  0.9729 -1.6453  1.6004
13423TIP3   OH240207   5.690   6.419   2.596 -0.4612 -0.4062  0.6356
13423TIP3    H140208   5.662   6.337   2.638  0.0717 -1.7043 -1.4724
13423TIP3    H240209   5.777   6.399   2.561 -1.7240 -0.0564 -2.9050
13424TIP3   OH240210   7.322   0.459   2.480 -0.2055 -0.6383  0.3058
13424TIP3    H140211   7.325   0.506   2.396  0.6004 -0.2221  0.5651
13424TIP3    H240212   7.235   0.420   2.482 -0.2668 -0.5572 -0.6787
13425TIP3   OH240213   4.526   0.497   0.504 -0.1008  0.1283  0.4842
13425TIP3    H140214   4.436   0.463   0.502 -0.0789  0.1207 -1.3025
13425TIP3    H240215   4.526   0.561   0.575 -1.7428  0.6776  0.0228
13426TIP3   OH240216   6.860   7.325   2.075  0.5825 -0.0219  0.7723
13426TIP3    H140217   6.945   7.357   2.105  0.1958 -0.3366  2.2298
13426TIP3    H240218   6.829   7.269   2.146 -0.7217 -0.1447  0.1188
13427TIP3   OH240219   5.515   6.345   2.399 -0.0129  0.0098 -0.4906
13427TIP3    H140220   5.561   6.396   2.465 -0.7904 -0.2347  0.2450
13427TIP3    H240221   5.519   6.255   2.431 -0.8195 -0.0403 -0.5331
13428TIP3   OH240222   1.778   4.639   0.167 -0.5580 -0.4584  0.0516
13428TIP3    H140223   1.872   4.657   0.174 -0.7439  0.5534  0.1128
13428TIP3    H240224   1.761   4.573   0.234 -0.1882  0.6284  1.2483
13429TIP3   OH240225   4.768   5.753   0.072  0.0656  0.7864  0.2811
13429TIP3    H140226   4.851   5.785   0.038  0.2609  0.5839  0.5647
13429TIP3    H240227   4.766   5.782   0.163  2.1490 -3.5249  1.8334
13430TIP3   OH240228   6.508   7.045   2.191 -0.2267  0.6930  0.0573
13430TIP3    H140229   6.501   7.104   2.116 -0.0590  2.1342  1.1523
13430TIP3    H240230   6.584   7.077   2.240 -0.3646 -0.1942  0.8751
13431TIP3   OH240231   1.702   1.598   6.882  0.0013 -0.2276 -0.2974
13431TIP3    H140232   1.659   1.653   6.817  2.4347 -0.1413 -1.9337
13431TIP3    H240233   1.763   1.656   6.926 -1.2500 -0.4205  1.7238
13432TIP3   OH240234   5.409   7.787   1.921 -0.1905  0.0031  0.4948
13432TIP3    H140235   5.482   7.781   1.983 -1.0688  2.0635  1.7657
13432TIP3    H240236   5.423   7.870   1.876 -0.5359 -0.6565 -0.8589
13433TIP3   OH240237   6.233   7.858   2.234 -0.0757  0.5743  0.0852
13433TIP3    H140238   6.320   7.851   2.196 -0.8361 -0.0777 -1.6273
13433TIP3    H240239   6.232   7.794   2.304  0.6057  0.0902 -0.3372
13434TIP3   OH240240   5.717   7.954   1.093 -0.3257 -0.2138  0.4935
13434TIP3    H140241   5.687   7.903   1.168 -2.2379 -2.8063 -1.9722
13434TIP3    H240242   5.780   7.897   1.049  0.2215  0.9973 -0.3240
13435TIP3   OH240243   2.692   2.845   2.578 -0.9643  0.0179 -0.0813
13435TIP3    H140244   2.670   2.924   2.628 -0.4201 -0.0547  0.2765
13435TIP3    H240245   2.635   2.777   2.614  0.6142 -0.4420  1.6308
13436TIP3   OH240246   5.856   7.226   1.086 -0.0020 -0.0418 -0.0041
13436TIP3    H140247   5.812   7.152   1.127 -0.6743  0.0646 -0.5287
13436TIP3    H240248   5.918   7.257   1.152  0.3967 -1.1665  0.1593
13437TIP3   OH240249   6.912   6.395   2.117 -0.4060 -0.3768 -0.1256
13437TIP3    H140250   6.826   6.354   2.111 -1.1056  0.9940  0.1983
13437TIP3    H240251   6.901   6.480   2.074  0.3464  0.4783  1.3305
13438TIP3   OH240252   0.488   0.810   1.701 -0.8567 -0.0010  0.1630
13438TIP3    H140253   0.461   0.800   1.610 -0.6693  3.2627 -0.2904
13438TIP3    H240254   0.554   0.742   1.714 -0.2877  0.0159 -2.3871
13439TIP3   OH240255   6.246   7.285   1.995 -0.1361 -0.0778  0.4398
13439TIP3    H140256   6.340   7.285   2.014  0.1037 -0.0264 -0.7309
13439TIP3    H240257   6.236   7.342   1.919 -1.0683 -0.4025  0.3092
13440TIP3   OH240258   5.011   7.198   2.579 -0.3496  0.1166 -0.6763
13440TIP3    H140259   5.057   7.281   2.565 -0.5723  0.0772 -1.7203
13440TIP3    H240260   5.077   7.141   2.619 -1.0347  1.6787  2.8344
13441TIP3   OH240261   3.022   0.596   1.607 -0.3967  0.0617 -0.5752
13441TIP3    H140262   2.935   0.606   1.568 -0.5057 -0.7185 -0.5369
13441TIP3    H240263   3.077   0.564   1.535  0.3500  2.5376 -1.1498
13442TIP3   OH240264   6.535   5.582   1.854 -0.6818 -0.1169 -0.5434
13442TIP3    H140265   6.488   5.511   1.899 -1.6044 -0.1400 -1.5174
13442TIP3    H240266   6.472   5.654   1.850  0.3129  0.8272  0.5883
13443TIP3   OH240267   6.494   6.138   2.748  0.2162  0.4476  0.1851
13443TIP3    H140268   6.402   6.164   2.753  0.0480 -0.3171  0.9817
13443TIP3    H240269   6.511   6.131   2.654 -0.9217 -0.7529  0.0523
13444TIP3   OH240270   4.938   6.627   0.232 -0.2222  0.1096  0.1527
13444TIP3    H140271   4.975   6.556   0.180  2.3169 -1.0992  3.4672
13444TIP3    H240272   5.006   6.694   0.233 -0.8101  0.7128  0.7408
13445TIP3   OH240273   8.103   6.606   1.588 -0.4316  0.2148 -0.6176
13445TIP3    H140274   8.119   6.686   1.637  0.1273  0.5663 -1.3603
13445TIP3    H240275   8.008   6.592   1.595 -0.5227  0.9099 -0.4409
13446TIP3   OH240276   7.229   6.682   1.182 -0.4977 -0.7089  0.2789
13446TIP3    H140277   7.225   6.772   1.216  1.6656 -0.3525 -0.3234
13446TIP3    H240278   7.144   6.669   1.140 -0.7364  1.1590  0.1188
13447TIP3   OH240279   1.065   0.759   0.375 -0.3332  0.1358  0.1257
13447TIP3    H140280   1.071   0.732   0.467 -1.3236 -1.0603 -0.1587
13447TIP3    H240281   0.999   0.701   0.337 -1.0066  1.5922 -0.9888
13448TIP3   OH240282   5.215   6.729   2.220 -0.5487 -0.0274  0.0420
13448TIP3    H140283   5.256   6.653   2.261 -0.5024 -0.6872 -1.1932
13448TIP3    H240284   5.127   6.699   2.195 -0.7850  0.5349  0.1833
13449TIP3   OH240285   5.790   6.409   1.263 -0.1105  0.5563  0.2823
13449TIP3    H140286   5.835   6.437   1.342 -1.2543  0.0542  1.1271
13449TIP3    H240287   5.699   6.396   1.290 -1.0488  2.7096 -1.6525
13450TIP3   OH240288   0.490   1.256   1.017 -0.1058  0.4193 -0.1473
13450TIP3    H140289   0.543   1.300   0.951 -0.6887 -0.3739 -1.1554
13450TIP3    H240290   0.404   1.299   1.012 -0.0018  0.7140  0.4689
13451TIP3   OH240291   6.391   0.837   1.059 -0.2601  0.0219  0.1869
13451TIP3    H140292   6.357   0.747   1.061 -1.2707  0.3606 -1.0497
13451TIP3    H240293   6.313   0.891   1.050  0.3264  1.0509  1.2845
13452TIP3   OH240294   0.899   0.892   1.779 -0.2592 -0.4653  0.0931
13452TIP3    H140295   0.891   0.849   1.865  0.1865 -0.0558  0.3430
13452TIP3    H240296   0.814   0.935   1.767  0.2246  0.8240  1.0772
13453TIP3   OH240297   2.279   0.082   2.682 -1.1480  0.1133 -0.2374
13453TIP3    H140298   2.219   0.145   2.722  0.6802  2.1494 -0.5932
13453TIP3    H240299   2.288   0.111   2.591 -1.0233 -1.2430 -0.6769
13454TIP3   OH240300   8.331   0.107   1.054 -0.3314 -0.3483 -0.0325
13454TIP3    H140301   8.339   0.143   1.143  0.5505 -1.3658  0.3158
13454TIP3    H240302   8.405   0.046   1.047 -0.1489  0.0548 -1.6226
13455TIP3   OH240303   0.607   7.554   2.165 -0.0383 -0.2452 -0.3191
13455TIP3    H140304   0.611   7.538   2.259 -0.1134 -1.8618 -0.5771
13455TIP3    H240305   0.698   7.569   2.139  0.1121 -0.8964 -0.1688
13456TIP3   OH240306   5.380   7.593   0.141  0.1766  0.1943 -0.5190
13456TIP3    H140307   5.396   7.645   0.220 -0.8159  0.0355 -0.2033
13456TIP3    H240308   5.407   7.650   0.069  0.0943  0.7407 -0.1233
13457TIP3   OH240309   2.432   1.463   6.655 -0.2953 -0.0393 -0.6360
13457TIP3    H140310   2.513   1.411   6.651 -0.2654 -0.1216  0.6999
13457TIP3    H240311   2.457   1.548   6.620  0.2559 -0.2148 -0.6794
13458TIP3   OH240312   6.838   7.253   0.795 -0.2336 -0.3137  0.5221
13458TIP3    H140313   6.752   7.211   0.796 -0.6411  0.5364  1.6810
13458TIP3    H240314   6.863   7.254   0.703 -1.7644  0.0260  0.1007
13459TIP3   OH240315   6.443   4.363   5.594 -0.4365 -0.4544  0.7456
13459TIP3    H140316   6.369   4.302   5.592  0.4457 -1.4747 -1.4026
13459TIP3    H240317   6.514   4.315   5.636  0.8613 -1.6711 -2.6793
13460TIP3   OH240318   1.882   0.300   3.563 -0.6135 -0.7394 -0.4348
13460TIP3    H140319   1.836   0.327   3.643  0.5717  0.1195 -0.0404
13460TIP3    H240320   1.974   0.297   3.588 -0.2163 -0.2417 -1.8367
13461TIP3   OH240321   4.719   0.801   0.109  0.1453 -0.0352 -0.1744
13461TIP3    H140322   4.740   0.759   0.193  0.8894  0.1354 -0.2727
13461TIP3    H240323   4.788   0.866   0.097  0.3180 -0.4005 -1.1633
13462TIP3   OH240324   6.149   1.450   6.849  0.6431 -0.0056 -0.5142
13462TIP3    H140325   6.162   1.533   6.897  1.1975 -0.1129 -0.4758
13462TIP3    H240326   6.085   1.472   6.781  0.1793  0.2587  0.0018
13463TIP3   OH240327   0.303   6.612   1.548  0.2378 -0.1752  0.0763
13463TIP3    H140328   0.289   6.583   1.458  1.2747 -0.8353  0.1148
13463TIP3    H240329   0.343   6.698   1.540  1.9598 -0.9855 -0.1282
13464TIP3   OH240330   6.223   1.000   2.642 -0.5043 -0.1491 -0.0097
13464TIP3    H140331   6.297   0.942   2.659 -1.8603 -2.5631 -2.1531
13464TIP3    H240332   6.149   0.958   2.685 -1.2066  0.8068 -0.2682
13465TIP3   OH240333   5.829   5.093   2.927 -0.1016 -0.1055  0.1742
13465TIP3    H140334   5.795   5.182   2.937 -1.5610 -0.7865  1.3628
13465TIP3    H240335   5.756   5.036   2.949  0.7106 -1.6210 -0.9615
13466TIP3   OH240336   7.726   7.061   0.877  0.4735 -0.0102  0.1808
13466TIP3    H140337   7.641   7.065   0.922  0.6630 -0.9862  0.6369
13466TIP3    H240338   7.726   7.138   0.820 -1.8515 -1.4376 -1.8293
13467TIP3   OH240339   7.112   7.412   0.779  0.5597 -0.2276 -0.3859
13467TIP3    H140340   7.033   7.374   0.740  1.4787 -1.3567 -1.1757
13467TIP3    H240341   7.182   7.352   0.755  1.6721  0.7663  0.3058
13468TIP3   OH240342   3.843   1.209   2.662  0.0754 -0.2786  0.2842
13468TIP3    H140343   3.809   1.233   2.748  1.8767 -0.0849  0.9503
13468TIP3    H240344   3.917   1.151   2.680  0.4174 -0.3001 -1.1228
13469TIP3   OH240345   8.057   6.516   4.946  0.1135  0.4756  0.1463
13469TIP3    H140346   8.038   6.517   5.039  0.8533  0.1052  0.3056
13469TIP3    H240347   8.026   6.431   4.915 -1.2551  1.0784 -0.1963
13470TIP3   OH240348   3.335   0.707   2.022 -0.2746 -0.1515  0.5085
13470TIP3    H140349   3.284   0.679   1.946 -0.2954 -1.9212  1.1629
13470TIP3    H240350   3.291   0.668   2.097  1.6310 -1.1291  1.1481
13471TIP3   OH240351   1.582   0.046   0.642  0.0938 -0.0130  0.4415
13471TIP3    H140352   1.596   0.116   0.706 -1.3385  3.0815 -2.4976
13471TIP3    H240353   1.491   0.020   0.654  0.3289 -0.6785  0.8238
13472TIP3   OH240354   2.407   0.500   2.258 -0.4291 -0.5376 -0.0163
13472TIP3    H140355   2.312   0.486   2.252 -0.8288  1.1191  1.8714
13472TIP3    H240356   2.429   0.548   2.178 -0.9646 -1.8699 -0.9945
13473TIP3   OH240357   3.542   0.437   0.926  0.0492 -0.2598 -0.0011
13473TIP3    H140358   3.449   0.459   0.926  0.4714  1.5805 -0.7552
13473TIP3    H240359   3.573   0.465   1.011 -0.2561 -1.6799  0.5901
13474TIP3   OH240360   3.875   2.551   6.202 -0.3987 -0.0152 -0.0315
13474TIP3    H140361   3.877   2.646   6.220 -0.2029  0.4609 -2.3887
13474TIP3    H240362   3.823   2.543   6.122 -0.7477 -1.9494  0.3772
13475TIP3   OH240363   7.784   7.359   0.713  0.2836  0.4061 -0.4663
13475TIP3    H140364   7.710   7.420   0.710  0.3839  0.6153  0.9279
13475TIP3    H240365   7.799   7.335   0.622  0.9584  3.3326 -1.1524
13476TIP3   OH240366   0.950   1.904   0.386  0.4073 -0.1166 -0.2774
13476TIP3    H140367   0.922   1.984   0.342 -0.8044 -0.0425  0.6007
13476TIP3    H240368   0.933   1.921   0.479  0.6794 -1.1754 -0.0271
13477TIP3   OH240369   0.651   1.331   2.364  0.0039 -0.4742  0.2631
13477TIP3    H140370   0.706   1.259   2.395 -0.8119 -0.6283  1.4022
13477TIP3    H240371   0.691   1.409   2.403 -0.9215 -0.6498  1.5825
13478TIP3   OH240372   0.007   6.821   1.349 -0.7932 -0.3466  0.3874
13478TIP3    H140373   0.077   6.761   1.375 -1.1524 -0.5204  0.9715
13478TIP3    H240374  -0.016   6.866   1.430  1.1060  2.3029 -0.4898
13479TIP3   OH240375   1.095   0.315   0.375 -0.1192  0.1425  0.1358
13479TIP3    H140376   1.078   0.331   0.468  2.0669  0.5915  0.4965
13479TIP3    H240377   1.142   0.231   0.373  0.6920  0.6022 -0.4542
13480TIP3   OH240378   2.489   1.696   0.782 -0.6110 -0.2804 -0.5883
13480TIP3    H140379   2.445   1.715   0.699 -0.2116  0.3241 -0.6663
13480TIP3    H240380   2.469   1.770   0.838  0.5101  0.1346 -0.7135
13481TIP3   OH240381   0.591   7.451   1.731  0.2340 -0.3651 -0.2341
13481TIP3    H140382   0.555   7.365   1.753  0.0821 -0.5274 -1.1159
13481TIP3    H240383   0.629   7.439   1.644  0.0262  0.5213 -0.4414
13482TIP3   OH240384   0.830   0.143   1.288  0.0516  0.9702 -0.3929
13482TIP3    H140385   0.811   0.070   1.347  0.4202  1.1645 -0.0276
13482TIP3    H240386   0.753   0.149   1.232 -0.3159  0.8018  0.0875
13483TIP3   OH240387   6.856   7.002   1.551  0.3218 -0.2408 -0.0259
13483TIP3    H140388   6.829   6.910   1.550 -0.8904  0.0244  3.0267
13483TIP3    H240389   6.789   7.048   1.501  0.4728 -0.8950 -0.8373
13484TIP3   OH240390   6.966   7.580   0.474 -0.6405  0.2201 -0.1520
13484TIP3    H140391   6.950   7.608   0.383 -1.3894  0.4879  0.0525
13484TIP3    H240392   6.901   7.629   0.525 -0.3897 -0.1236  0.4979
13485TIP3   OH240393   2.429   0.169   3.042 -0.1952  0.1172  0.4031
13485TIP3    H140394   2.473   0.177   2.957  1.3207  0.7566  1.2324
13485TIP3    H240395   2.426   0.075   3.059 -0.4253 -0.0092 -0.3103
13486TIP3   OH240396   0.129   6.596   1.793  0.2774  0.1440 -0.0045
13486TIP3    H140397   0.179   6.580   1.713 -0.8810 -1.6165 -0.3973
13486TIP3    H240398   0.072   6.520   1.801 -0.3395  0.7986  1.9563
13487TIP3   OH240399   0.886   7.212   1.779  0.7060 -0.3167  0.2057
13487TIP3    H140400   0.871   7.125   1.743  0.0238 -0.7347  1.4654
13487TIP3    H240401   0.836   7.213   1.861 -1.0055  1.9752 -0.8050
13488TIP3   OH240402   8.426   0.827   1.162 -0.4999 -0.2459  0.0791
13488TIP3    H140403   8.474   0.767   1.105  0.9843  1.3171 -0.3553
13488TIP3    H240404   8.489   0.853   1.229 -0.4209  2.4584 -0.9583
13489TIP3   OH240405   6.315   6.277   0.494  0.3602 -0.4325 -0.0373
13489TIP3    H140406   6.254   6.212   0.459 -1.3334 -0.0218  2.0755
13489TIP3    H240407   6.352   6.235   0.572  2.5688 -0.5601 -1.1287
13490TIP3   OH240408   3.151   0.201   0.251 -0.2010  0.4876 -0.1344
13490TIP3    H140409   3.183   0.281   0.294  0.8674  0.4974 -0.9345
13490TIP3    H240410   3.167   0.216   0.158  1.6622 -1.3849 -0.1592
13491TIP3   OH240411   1.320   0.585   1.753 -0.2806  0.2834 -0.2160
13491TIP3    H140412   1.239   0.571   1.802  0.4499  2.4241  1.6916
13491TIP3    H240413   1.388   0.592   1.820  1.1164  0.9369 -1.6586
13492TIP3   OH240414   1.176   2.152   0.147  0.7152  0.5018 -0.2629
13492TIP3    H140415   1.259   2.176   0.188  0.8513  0.1383 -0.3264
13492TIP3    H240416   1.125   2.113   0.217  0.0451  2.0292  0.1228
13493TIP3   OH240417   0.374   2.075   3.782  0.2316  0.4047  0.1450
13493TIP3    H140418   0.463   2.041   3.771 -0.0472 -0.1167 -0.5196
13493TIP3    H240419   0.349   2.108   3.696 -1.1260 -1.6849 -0.2999
13494TIP3   OH240420   4.220   0.799   1.300 -0.1019  0.1083 -0.8667
13494TIP3    H140421   4.165   0.877   1.308 -0.2596  0.0369 -1.2397
13494TIP3    H240422   4.222   0.781   1.206  0.2007 -0.1476 -0.8120
13495TIP3   OH240423   4.439   2.997   1.582 -0.1293  0.0618  0.0903
13495TIP3    H140424   4.417   3.083   1.619  0.4545  0.5172 -0.5987
13495TIP3    H240425   4.515   3.014   1.526  0.0300 -0.9184 -0.0057
13496TIP3   OH240426   4.091   3.988   6.921  0.6605 -0.9738 -0.3781
13496TIP3    H140427   4.164   4.042   6.952  1.8447 -1.1923 -2.7123
13496TIP3    H240428   4.024   4.052   6.897  0.9944 -0.6627 -0.5037
13497TIP3   OH240429   0.119   1.145   1.302 -0.0294 -0.1543  0.6855
13497TIP3    H140430   0.079   1.150   1.389 -0.8786 -0.0850  0.2997
13497TIP3    H240431   0.046   1.160   1.241  0.4491 -0.7632 -0.0522
13498TIP3   OH240432   4.738   4.107   6.795  0.2169 -0.3154 -0.4963
13498TIP3    H140433   4.701   4.078   6.879 -2.1755  3.5001 -0.1349
13498TIP3    H240434   4.825   4.140   6.819 -0.6480  1.2321  0.6183
13499TIP3   OH240435   1.539   0.560   1.931 -0.4493 -0.0750 -0.2042
13499TIP3    H140436   1.612   0.578   1.991 -0.3492 -0.7662 -0.1089
13499TIP3    H240437   1.473   0.518   1.986 -1.0191  0.7531 -0.2449
13500TIP3   OH240438   6.039   7.904   0.375  0.2534 -0.1680  0.7918
13500TIP3    H140439   6.091   7.848   0.318  0.7369 -0.7387  1.7817
13500TIP3    H240440   6.033   7.987   0.328  2.0041 -0.1087  0.6428
13501TIP3   OH240441   0.506   4.730   3.056  0.1511  0.4624 -0.9910
13501TIP3    H140442   0.522   4.818   3.091  2.1394 -0.3670  0.2642
13501TIP3    H240443   0.593   4.694   3.041 -0.6086 -1.6901 -0.4693
13502TIP3   OH240444   8.250   6.994   0.189  0.1701 -0.0904 -0.1768
13502TIP3    H140445   8.252   6.898   0.182 -0.5123 -0.1564  0.5053
13502TIP3    H240446   8.313   7.013   0.258 -0.0695 -0.0759  0.0351
13503TIP3   OH240447   8.325   4.253   2.525  0.4476  0.2376  0.4254
13503TIP3    H140448   8.283   4.180   2.480 -0.6695  0.4568  1.1134
13503TIP3    H240449   8.370   4.301   2.455 -0.4656  0.0198 -0.3129
13504TIP3   OH240450   1.235   0.722   2.418  0.0296  0.3457 -0.2608
13504TIP3    H140451   1.293   0.681   2.482  0.5087  0.1270 -0.8246
13504TIP3    H240452   1.276   0.806   2.399 -0.0272  0.3433 -0.3960
13505TIP3   OH240453   0.724   0.724   0.372 -0.4161 -0.1339  0.8095
13505TIP3    H140454   0.758   0.642   0.336  2.2586  1.5530 -0.6187
13505TIP3    H240455   0.779   0.741   0.448 -1.1118  0.2523  1.2316
13506TIP3   OH240456   3.575   0.443   1.199  0.3207 -0.2710 -0.0821
13506TIP3    H140457   3.495   0.494   1.208  0.3290 -0.3779  0.5852
13506TIP3    H240458   3.546   0.352   1.203  0.4372 -0.3135 -0.1944
13507TIP3   OH240459   4.278   2.832   6.101  0.0033  0.0251  0.0522
13507TIP3    H140460   4.198   2.878   6.072 -0.3596 -0.1119  0.8061
13507TIP3    H240461   4.304   2.879   6.181  0.1050 -0.5634  0.3641
13508TIP3   OH240462   0.881   5.789   2.359 -0.3534 -0.0712 -0.1526
13508TIP3    H140463   0.852   5.823   2.444  2.1859  1.6565  0.0785
13508TIP3    H240464   0.882   5.694   2.371 -2.4679  0.0156  0.9216
13509TIP3   OH240465   6.247   7.916   2.761 -0.4274 -0.0927 -0.3783
13509TIP3    H140466   6.332   7.956   2.776 -0.1369 -0.4628 -1.0161
13509TIP3    H240467   6.236   7.855   2.834 -1.3476  1.9067  1.1947
13510TIP3   OH240468   0.473   0.457   0.310 -0.6267  0.4868  0.9774
13510TIP3    H140469   0.498   0.543   0.343 -2.5697  0.7205  1.9692
13510TIP3    H240470   0.377   0.456   0.316 -0.8506 -0.5741 -2.0286
13511TIP3   OH240471   3.444   1.718   1.775  0.6142  0.4665  0.2623
13511TIP3    H140472   3.385   1.728   1.700  0.8735  0.7540  0.0920
13511TIP3    H240473   3.525   1.761   1.747  0.9286  0.0102  0.4667
13512TIP3   OH240474   2.988   0.319   2.767 -0.4162 -0.6175 -0.2481
13512TIP3    H140475   3.073   0.351   2.737  0.1455 -1.2236  0.6919
13512TIP3    H240476   2.981   0.350   2.857 -1.3374 -0.2936 -0.4230
13513TIP3   OH240477   7.614   7.389   2.175  0.0663  0.5423  0.4340
13513TIP3    H140478   7.671   7.455   2.215 -1.0092  0.5145  2.0668
13513TIP3    H240479   7.616   7.410   2.081  1.6839  1.3653  0.6236
13514TIP3   OH240480   7.906   4.661   2.314  0.5187 -0.1224  0.6602
13514TIP3    H140481   8.000   4.660   2.328  0.7767 -0.5602 -0.9821
13514TIP3    H240482   7.894   4.709   2.232 -0.5938 -1.0049  0.2898
13515TIP3   OH240483   6.821   7.179   1.815 -0.2601 -0.1767 -0.1618
13515TIP3    H140484   6.830   7.200   1.908 -0.0266  0.3686 -0.2983
13515TIP3    H240485   6.741   7.128   1.809 -1.2577  1.2998  0.1077
13516TIP3   OH240486   3.153   1.673   0.710  0.4734  0.2159 -0.1213
13516TIP3    H140487   3.072   1.722   0.698  2.8339  4.2423 -0.4165
13516TIP3    H240488   3.165   1.668   0.805  0.0636 -0.0954 -0.0850
13517TIP3   OH240489   0.212   5.280   3.595  0.0117  0.2799  0.1942
13517TIP3    H140490   0.301   5.308   3.573 -0.0241 -1.9823 -3.3114
13517TIP3    H240491   0.223   5.196   3.638 -0.4306 -1.0206 -2.1202
13518TIP3   OH240492   6.042   6.856   2.560 -0.8576 -0.4282 -0.2247
13518TIP3    H140493   6.018   6.772   2.597 -1.3169 -0.4441 -0.5419
13518TIP3    H240494   6.123   6.840   2.512 -1.6655 -1.0106 -1.4332
13519TIP3   OH240495   5.715   7.311   2.520  0.3281 -0.1758  0.4926
13519TIP3    H140496   5.727   7.390   2.467  1.0275  0.2663  1.2958
13519TIP3    H240497   5.791   7.309   2.577 -0.6622 -0.3657  1.8343
13520TIP3   OH240498   8.044   7.534   2.787  0.0034 -0.4552 -0.1130
13520TIP3    H140499   7.979   7.533   2.857 -0.9213 -1.7516 -0.9771
13520TIP3    H240500   8.062   7.627   2.773 -3.2068  0.0402 -1.2853
13521TIP3   OH240501   2.841   0.071   0.742  0.1474  0.0549  0.2666
13521TIP3    H140502   2.807   0.138   0.683  0.2152  0.4610  0.6855
13521TIP3    H240503   2.877   0.004   0.684  0.8762  0.7867 -0.1447
13522TIP3   OH240504   7.382   6.673   1.979 -0.0758  0.0875  0.2600
13522TIP3    H140505   7.309   6.694   1.920  0.7733  0.4669 -0.6614
13522TIP3    H240506   7.343   6.615   2.044 -0.4991 -2.3752 -2.0823
13523TIP3   OH240507   7.573   7.670   0.318  0.7037  0.0867 -0.0168
13523TIP3    H140508   7.604   7.680   0.408  0.9809  0.8012 -0.1847
13523TIP3    H240509   7.639   7.716   0.265  1.1879 -1.3742 -0.6932
13524TIP3   OH240510   5.344   3.696   6.642 -0.6792 -0.2577 -0.1659
13524TIP3    H140511   5.306   3.741   6.717  0.4170  1.9447 -0.8814
13524TIP3    H240512   5.268   3.666   6.591 -1.4517  1.1525  0.1229
13525TIP3   OH240513   1.759   0.226   0.780 -0.3805 -0.9158 -0.6761
13525TIP3    H140514   1.830   0.183   0.732  1.8826  3.5692 -1.6172
13525TIP3    H240515   1.784   0.217   0.872  0.1906 -1.3459 -0.8705
13526TIP3   OH240516   3.483   3.483   6.121  0.0496 -0.1238  0.2057
13526TIP3    H140517   3.567   3.522   6.101 -1.6645  2.8583 -1.5188
13526TIP3    H240518   3.427   3.506   6.047 -2.7852 -0.3877  2.1701
13527TIP3   OH240519   0.157   7.285   3.400 -0.2670  0.6298 -0.1192
13527TIP3    H140520   0.093   7.217   3.379  0.3827 -0.6895  2.0305
13527TIP3    H240521   0.138   7.355   3.338  0.9101 -2.6416 -4.4404
13528TIP3   OH240522   1.403   6.296   0.346 -0.0996  0.3441  0.2982
13528TIP3    H140523   1.398   6.389   0.326  0.9206  0.2107 -0.6493
13528TIP3    H240524   1.399   6.292   0.442 -3.0150  1.1373  0.2542
13529TIP3   OH240525   4.088   0.720   0.462  0.0638  0.2540  0.0470
13529TIP3    H140526   4.128   0.654   0.405  1.1945  1.4894 -0.6149
13529TIP3    H240527   4.143   0.722   0.540 -1.2320 -1.1190  1.0286
13530TIP3   OH240528   0.531   0.729   0.951 -0.7667  0.4588  0.1643
13530TIP3    H140529   0.520   0.783   1.029 -1.6119  0.6493 -0.0891
13530TIP3    H240530   0.557   0.790   0.883  1.4238  0.0951  0.6255
13531TIP3   OH240531   0.933   6.043   1.524  0.2377  0.0444 -0.0485
13531TIP3    H140532   0.842   6.013   1.524 -0.5349  2.2418  0.6884
13531TIP3    H240533   0.980   5.979   1.472 -1.6808 -1.3148 -0.1478
13532TIP3   OH240534   5.943   6.319   3.306 -0.3129 -0.1887 -0.1173
13532TIP3    H140535   5.900   6.237   3.281 -1.0696 -0.3366  1.5890
13532TIP3    H240536   5.957   6.365   3.223  0.4196 -2.1742 -1.1137
13533TIP3   OH240537   4.846   5.118   5.631  0.0889  0.3651 -0.4738
13533TIP3    H140538   4.928   5.131   5.679 -0.4874 -0.7856  0.8550
13533TIP3    H240539   4.796   5.198   5.648 -0.3089 -0.2301  1.2822
13534TIP3   OH240540   1.281   0.321   1.055 -0.7864  0.5674  0.6141
13534TIP3    H140541   1.223   0.265   1.107 -0.4945  0.0225  0.3621
13534TIP3    H240542   1.224   0.388   1.018 -1.2784 -0.0557  0.2437
13535TIP3   OH240543   5.763   6.865   2.492 -0.2691 -0.6038 -0.1016
13535TIP3    H140544   5.837   6.844   2.547  1.1339 -0.1698 -1.7808
13535TIP3    H240545   5.763   6.961   2.486 -1.3616 -0.5573  0.4173
13536TIP3   OH240546   7.396   0.625   0.339 -0.3323 -0.5227  0.3263
13536TIP3    H140547   7.424   0.652   0.251  1.2487  1.9034  1.5311
13536TIP3    H240548   7.371   0.533   0.329 -1.3106  0.0421 -2.9154
13537TIP3   OH240549   4.989   4.593   5.174  1.0884 -0.6214 -0.3376
13537TIP3    H140550   4.917   4.646   5.138  1.1983 -1.5473 -1.9780
13537TIP3    H240551   5.045   4.575   5.098  0.8302 -3.4244  0.0712
13538TIP3   OH240552   2.092   0.875   0.865 -0.1939 -0.7139 -0.1626
13538TIP3    H140553   2.052   0.961   0.872 -1.3943 -1.3895  1.6455
13538TIP3    H240554   2.150   0.869   0.942  0.7828 -1.0762 -0.9118
13539TIP3   OH240555  -0.008   6.814   1.853  0.1838  0.3009 -0.3524
13539TIP3    H140556   0.028   6.728   1.834 -0.5521  0.0264 -0.4892
13539TIP3    H240557  -0.010   6.819   1.949  1.0021  0.4935 -0.3391
13540TIP3   OH240558   6.354   3.568   3.946 -0.6282 -0.5106  0.3901
13540TIP3    H140559   6.378   3.489   3.897 -1.3097  0.6587 -1.9112
13540TIP3    H240560   6.432   3.589   3.997  0.2551 -1.5435 -0.4854
13541TIP3   OH240561   2.112   1.836   1.960  0.3487 -0.3085  0.4126
13541TIP3    H140562   2.058   1.913   1.947  0.3765 -0.2872  0.4225
13541TIP3    H240563   2.192   1.854   1.909  0.6705 -0.0055  1.0165
13542TIP3   OH240564   0.607   0.408   1.632 -0.0217 -0.2815  0.0618
13542TIP3    H140565   0.643   0.429   1.545  2.9015  0.4575  1.3752
13542TIP3    H240566   0.612   0.490   1.680  1.5119 -1.4438  1.9521
13543TIP3   OH240567   1.236   1.109   0.327  0.3291  0.9716 -0.1902
13543TIP3    H140568   1.324   1.121   0.291 -0.1881 -1.4758 -2.4585
13543TIP3    H240569   1.178   1.149   0.263 -0.3856  0.0673 -0.1107
13544TIP3   OH240570   7.771   7.808   0.188  0.3916 -0.3911 -0.1933
13544TIP3    H140571   7.833   7.785   0.258  0.6710  0.6587 -0.0891
13544TIP3    H240572   7.817   7.875   0.137 -1.4668  2.0086  1.1602
13545TIP3   OH240573   0.267   7.939   0.252  0.0956 -0.0129  0.3733
13545TIP3    H140574   0.198   7.942   0.185  0.5892  0.7542 -0.1116
13545TIP3    H240575   0.284   8.031   0.271  2.2809 -0.1475 -0.8366
13546TIP3   OH240576   8.269   6.511   0.426  0.5669 -0.0986  0.5312
13546TIP3    H140577   8.330   6.561   0.480 -0.0381 -0.7222  1.8243
13546TIP3    H240578   8.267   6.424   0.466 -1.2910 -0.0446  0.6426
13547TIP3   OH240579   8.051   6.464   2.374  0.5665 -0.1536  0.3574
13547TIP3    H140580   8.101   6.425   2.446  0.1371  2.1729  1.9798
13547TIP3    H240581   7.987   6.520   2.418 -1.1883 -0.4011 -1.7951
13548TIP3   OH240582   0.863   0.501   0.328  0.1358  0.1419 -0.1518
13548TIP3    H140583   0.942   0.456   0.358 -0.3489  0.1883  1.2563
13548TIP3    H240584   0.811   0.433   0.285  1.1520  0.2167 -1.5394
13549TIP3   OH240585   4.300   2.848   6.778  0.6962 -0.5057 -0.3159
13549TIP3    H140586   4.342   2.797   6.709 -0.5541 -2.1045  0.0525
13549TIP3    H240587   4.349   2.827   6.857  0.8812 -0.2537 -0.3643
13550TIP3   OH240588   4.873   3.457   6.922 -0.0378 -0.1279 -0.4494
13550TIP3    H140589   4.930   3.512   6.868 -1.1060  0.7590 -0.6909
13550TIP3    H240590   4.887   3.368   6.888  0.1791  0.2650 -1.4045
13551TIP3   OH240591   7.693   6.634   3.490 -0.2536 -0.0706 -0.0919
13551TIP3    H140592   7.678   6.569   3.422  1.2889 -1.3664  0.7626
13551TIP3    H240593   7.788   6.632   3.505 -0.4286  0.9942  1.2863
13552TIP3   OH240594   6.366   5.565   3.833  0.0763 -0.4354 -0.6886
13552TIP3    H140595   6.297   5.515   3.875  0.0560  0.3054  0.1793
13552TIP3    H240596   6.445   5.512   3.845 -0.1069 -0.6759 -0.5507
13553TIP3   OH240597   3.522   0.681   5.880  0.2375  0.1623  0.0601
13553TIP3    H140598   3.485   0.705   5.966  0.3766 -0.6980  0.3624
13553TIP3    H240599   3.525   0.764   5.832 -0.4361  0.5474  0.6626
13554TIP3   OH240600   7.248   7.719   0.494  0.1217 -0.1887 -0.4836
13554TIP3    H140601   7.170   7.681   0.453  1.0677  0.5745 -3.0938
13554TIP3    H240602   7.284   7.777   0.427  1.8590  0.9566  1.3948
13555TIP3   OH240603   5.498   2.866   5.420  0.0325 -0.3383  0.4054
13555TIP3    H140604   5.470   2.950   5.385  2.6306  0.5709  0.4835
13555TIP3    H240605   5.460   2.802   5.360  0.5974  1.0132 -1.4264
13556TIP3   OH240606   2.558   1.002   3.352 -0.3202 -0.2071  0.1529
13556TIP3    H140607   2.589   1.092   3.337  0.0137 -0.3185  0.1543
13556TIP3    H240608   2.617   0.948   3.298 -0.0678 -0.4852  0.7051
13557TIP3   OH240609   4.169   3.631   6.197  0.4895 -0.7063  0.4896
13557TIP3    H140610   4.196   3.715   6.162 -1.0261  1.0809  3.3776
13557TIP3    H240611   4.247   3.576   6.191  1.9897  1.4214  0.0525
13558TIP3   OH240612   1.551   0.728   1.539 -0.2931  0.0459  0.1813
13558TIP3    H140613   1.567   0.692   1.451 -1.1309  0.2818 -0.0721
13558TIP3    H240614   1.595   0.667   1.598  1.7032  0.7923 -0.5114
13559TIP3   OH240615   1.214   0.041   0.341  0.5511  0.0693  0.0165
13559TIP3    H140616   1.301   0.007   0.320 -0.3115 -2.4176  0.2140
13559TIP3    H240617   1.158   0.009   0.270 -0.3888  0.7534  0.4371
13560TIP3   OH240618   6.839   7.675   0.022 -0.8014  0.3408  0.4625
13560TIP3    H140619   6.751   7.697   0.051 -0.8915  0.5869  0.0115
13560TIP3    H240620   6.843   7.705  -0.069 -0.2165  0.4391  0.5143
13561TIP3   OH240621   1.230   6.619   1.691  0.2389  0.2106 -0.9149
13561TIP3    H140622   1.176   6.627   1.613 -0.7700 -0.7552 -0.3313
13561TIP3    H240623   1.209   6.533   1.726  0.4857  0.7408  0.5679
13562TIP3   OH240624   4.991   1.548   0.130 -0.0435  0.0324  0.3068
13562TIP3    H140625   4.949   1.529   0.046 -0.6588 -1.7081  0.9983
13562TIP3    H240626   4.973   1.471   0.184 -0.2518  1.4286  2.2673
13563TIP3   OH240627   5.027   3.279   6.469 -0.3263  0.2930  0.4823
13563TIP3    H140628   4.973   3.257   6.545  0.2536 -0.5121  0.6645
13563TIP3    H240629   5.024   3.202   6.413 -0.1514  0.6079  0.0358
13564TIP3   OH240630   0.219   7.688   0.450 -0.8540  0.1075 -0.2602
13564TIP3    H140631   0.152   7.697   0.383 -1.6572  0.5811  0.5959
13564TIP3    H240632   0.189   7.614   0.504 -0.5324  0.1280 -0.0497
13565TIP3   OH240633   0.096   1.072   1.851 -0.2480 -0.2665 -0.6402
13565TIP3    H140634   0.146   1.023   1.786 -1.5443  0.3821 -2.1695
13565TIP3    H240635   0.015   1.022   1.861 -0.8644  0.6588 -0.9635
13566TIP3   OH240636   8.224   7.171   1.853 -0.2843 -0.6067 -0.3768
13566TIP3    H140637   8.246   7.110   1.924  1.2192 -0.9317 -1.0976
13566TIP3    H240638   8.291   7.154   1.786 -2.3685 -1.1351 -2.3681
13567TIP3   OH240639   4.656   3.174   6.714 -0.3819  0.8810  0.0802
13567TIP3    H140640   4.612   3.112   6.657  2.9484  1.0875 -2.8791
13567TIP3    H240641   4.653   3.134   6.801 -0.2298 -2.3548 -1.3732
13568TIP3   OH240642   6.845   4.218   6.894 -0.0290  0.3755 -0.1216
13568TIP3    H140643   6.814   4.195   6.807  0.9349  0.6622 -0.5521
13568TIP3    H240644   6.908   4.288   6.879 -0.5933  1.1131  0.8971
13569TIP3   OH240645   7.939   7.351   3.379 -0.3239 -0.1100  0.3945
13569TIP3    H140646   7.998   7.423   3.355  0.3473 -0.9453 -0.5396
13569TIP3    H240647   7.974   7.318   3.462 -0.2889  0.2768  0.5338
13570TIP3   OH240648   8.340   6.849   2.792 -0.5194  0.6710 -0.1702
13570TIP3    H140649   8.379   6.907   2.726 -1.8272  0.0605 -1.5306
13570TIP3    H240650   8.394   6.770   2.790  0.6695  1.4379  0.9737
13571TIP3   OH240651   3.749   0.136   2.410 -0.2857 -0.1900 -0.2625
13571TIP3    H140652   3.792   0.132   2.324 -0.2159  0.6187 -0.2776
13571TIP3    H240653   3.731   0.230   2.422 -1.8905 -0.4988 -0.1704
13572TIP3   OH240654   2.799   3.048   6.866 -0.0372  0.1607  1.3282
13572TIP3    H140655   2.775   2.980   6.804 -0.2389  0.9736  0.4933
13572TIP3    H240656   2.877   3.088   6.828 -1.0710  1.7014  0.7700
13573TIP3   OH240657   6.827   7.331   4.420 -0.1910  0.0046 -0.5678
13573TIP3    H140658   6.838   7.417   4.460  1.4154  0.0153 -1.0242
13573TIP3    H240659   6.742   7.300   4.453 -0.4107  1.4162  0.2136
13574TIP3   OH240660   5.897   6.508   0.241  0.1557 -0.2522  1.0728
13574TIP3    H140661   5.922   6.430   0.290 -0.2367  0.2408  2.0631
13574TIP3    H240662   5.956   6.577   0.271  0.9777 -0.3257 -0.3208
13575TIP3   OH240663   3.862   0.770   1.475  0.2755 -0.0962 -0.4728
13575TIP3    H140664   3.818   0.843   1.518 -0.8390  0.2278 -2.1212
13575TIP3    H240665   3.791   0.712   1.448  0.9496 -0.3015 -1.8492
13576TIP3   OH240666   0.900   7.196   1.444 -0.0363  0.0984 -0.0940
13576TIP3    H140667   0.992   7.190   1.418 -0.1589  1.5202 -0.9225
13576TIP3    H240668   0.903   7.216   1.538  0.5030  0.0070 -0.0914
13577TIP3   OH240669   6.417   3.796   6.793  0.4766 -0.9629 -0.4899
13577TIP3    H140670   6.470   3.875   6.780  0.0093 -0.6901 -0.7449
13577TIP3    H240671   6.361   3.817   6.868  0.1637 -0.9488 -0.7242
13578TIP3   OH240672   0.566   6.997   0.226  1.0695  0.1424 -0.1773
13578TIP3    H140673   0.636   6.932   0.228 -0.0378 -1.0733  2.1918
13578TIP3    H240674   0.589   7.059   0.295  1.2302  1.3313 -1.2750
13579TIP3   OH240675   4.494   3.172   5.930  0.1842  0.3395 -0.4452
13579TIP3    H140676   4.400   3.160   5.913  0.2222 -3.3789  1.3431
13579TIP3    H240677   4.536   3.159   5.845 -0.8564  0.8660 -1.0390
13580TIP3   OH240678   5.091   3.640   6.526 -0.3205  0.0230 -0.0359
13580TIP3    H140679   5.040   3.702   6.473  1.1602  1.3700  0.1045
13580TIP3    H240680   5.027   3.573   6.552 -1.5353  0.4936 -1.7235
13581TIP3   OH240681   7.801   7.987   2.115  0.3321 -0.6663  0.1255
13581TIP3    H140682   7.884   7.978   2.161  0.8708 -0.0971 -0.7275
13581TIP3    H240683   7.798   7.912   2.055  0.8145 -0.0020 -0.7417
13582TIP3   OH240684   1.239   0.761   0.143 -0.1680  0.2043 -0.0961
13582TIP3    H140685   1.197   0.798   0.220  0.3757  0.8582 -0.1107
13582TIP3    H240686   1.188   0.682   0.123 -0.0907 -0.1700  1.1457
13583TIP3   OH240687   2.142   7.910   1.787 -0.0883  0.2288  0.5456
13583TIP3    H140688   2.110   7.971   1.853 -1.3379 -2.7519  2.7798
13583TIP3    H240689   2.064   7.888   1.735  0.6944  1.7892 -1.3709
13584TIP3   OH240690   0.756   6.362   2.873 -0.0283  0.4625 -0.3766
13584TIP3    H140691   0.795   6.279   2.901 -0.2557  0.1640 -0.9413
13584TIP3    H240692   0.830   6.412   2.836  0.2944  0.9051  0.8481
13585TIP3   OH240693   5.537   3.571   6.825 -0.3248 -0.2962 -0.2918
13585TIP3    H140694   5.451   3.547   6.790 -0.5856 -0.8659  0.7291
13585TIP3    H240695   5.557   3.656   6.785 -0.2406 -1.3115 -2.4791
13586TIP3   OH240696   4.210   0.706   1.050 -0.2359  0.3631 -0.1324
13586TIP3    H140697   4.146   0.643   1.016  0.4855 -0.5189  0.1244
13586TIP3    H240698   4.291   0.656   1.057  0.2745  1.2516  0.3559
13587TIP3   OH240699   7.178   5.436   6.574 -0.2115  0.4980  0.0839
13587TIP3    H140700   7.103   5.384   6.546 -0.6085  0.2465  1.5738
13587TIP3    H240701   7.254   5.389   6.539 -0.5937 -0.8608  1.0418
13588TIP3   OH240702   7.758   6.730   2.032  0.4960 -0.1648  0.0878
13588TIP3    H140703   7.837   6.688   1.998  0.2697 -1.0137  0.6043
13588TIP3    H240704   7.772   6.737   2.126  1.2991  2.5711 -0.2035
13589TIP3   OH240705   7.992   7.697   0.629 -0.3907 -0.1959 -0.6475
13589TIP3    H140706   7.988   7.638   0.704  0.3037 -0.0463 -0.4903
13589TIP3    H240707   8.062   7.759   0.650 -0.6316  0.2484 -1.1254
13590TIP3   OH240708   7.326   1.693   6.907 -0.6972  0.2129  0.2727
13590TIP3    H140709   7.264   1.637   6.860 -0.4006  0.5239 -0.4888
13590TIP3    H240710   7.281   1.714   6.989 -1.1874 -0.3892  0.1642
13591TIP3   OH240711   5.453   6.420   0.514 -0.1978 -0.0991 -0.3930
13591TIP3    H140712   5.426   6.508   0.488  0.8694  0.0511 -1.0026
13591TIP3    H240713   5.450   6.369   0.433 -1.5851 -0.8393  0.0947
13592TIP3   OH240714   7.497   7.049   0.002  0.2771  0.0480  0.1883
13592TIP3    H140715   7.580   7.001   0.010  0.7854  0.7632 -0.6763
13592TIP3    H240716   7.502   7.116   0.070  0.9989  0.9263 -0.7118
13593TIP3   OH240717   0.925   0.688   1.452 -0.1196  0.0669  0.4606
13593TIP3    H140718   0.892   0.641   1.376  0.8142  1.8014 -1.0749
13593TIP3    H240719   0.861   0.757   1.468 -0.1642 -0.1107  1.0711
13594TIP3   OH240720   3.196   0.454   2.600 -0.5950  0.4540 -0.1849
13594TIP3    H140721   3.291   0.444   2.609 -0.2489  2.8514 -0.8439
13594TIP3    H240722   3.184   0.543   2.567 -3.0485 -0.0641 -0.8064
13595TIP3   OH240723   1.639   0.474   3.204 -0.0809 -0.3951  0.2823
13595TIP3    H140724   1.694   0.472   3.126 -2.9413 -0.1159 -1.8434
13595TIP3    H240725   1.650   0.387   3.243  1.3750 -0.5521 -0.4473
13596TIP3   OH240726   7.589   5.974   6.863  0.6747  0.1505  0.0373
13596TIP3    H140727   7.507   6.002   6.822  0.9704  0.7102 -0.1730
13596TIP3    H240728   7.621   6.052   6.908  0.0401 -0.6108  1.8553
13597TIP3   OH240729   1.488   0.047   0.206 -0.1322  0.2592 -0.0769
13597TIP3    H140730   1.553   0.106   0.167  1.2280 -0.6527  0.7883
13597TIP3    H240731   1.533   0.005   0.279 -1.0875 -1.8369 -0.6406
13598TIP3   OH240732   3.265   0.261   2.268  0.2309 -0.0399 -0.0817
13598TIP3    H140733   3.311   0.204   2.330  1.0063  1.5165  0.8299
13598TIP3    H240734   3.332   0.286   2.204 -0.0233  0.0775 -0.3021
13599TIP3   OH240735   4.198   2.283   0.225 -0.0508 -0.9708 -0.1468
13599TIP3    H140736   4.284   2.244   0.208  0.5926 -0.2438  1.4024
13599TIP3    H240737   4.136   2.212   0.208  0.9273 -1.8234 -0.1980
13600TIP3   OH240738   3.960   0.140   1.554  0.5032 -0.0011  0.6534
13600TIP3    H140739   3.976   0.122   1.461  1.0705 -1.1252  0.9676
13600TIP3    H240740   3.874   0.100   1.571  0.2280  0.5278  0.5299
13601TIP3   OH240741   4.330   3.929   6.436  0.8638  0.4002  0.5527
13601TIP3    H140742   4.284   4.004   6.397  0.2094 -0.4390 -0.3193
13601TIP3    H240743   4.402   3.911   6.376  0.5976 -0.1120  0.3822
13602TIP3   OH240744   2.918   0.004   2.389 -0.3476  0.0069 -0.1916
13602TIP3    H140745   2.995  -0.016   2.442 -0.1555 -1.7868 -1.1019
13602TIP3    H240746   2.915   0.100   2.385  0.9891  0.1085  1.0631
13603TIP3   OH240747   7.796   7.589   2.245 -0.1270  0.0602  0.2400
13603TIP3    H140748   7.808   7.651   2.173  0.8262  0.0360  0.3750
13603TIP3    H240749   7.883   7.553   2.260 -0.5680 -0.8802  0.5573
13604TIP3   OH240750   7.052   8.006   2.410  0.6155 -0.5640  0.1000
13604TIP3    H140751   7.082   8.025   2.499  0.8695 -0.5037  0.0034
13604TIP3    H240752   7.046   7.911   2.406 -0.0345 -0.5342  0.3860
13605TIP3   OH240753   8.364   6.639   4.053  0.3605 -0.2846 -0.8472
13605TIP3    H140754   8.365   6.556   4.101 -1.3501 -0.0342 -0.3468
13605TIP3    H240755   8.382   6.705   4.119  1.1070 -0.1808 -1.1399
13606TIP3   OH240756   6.195   0.407   0.883  0.6105  0.0337  0.5990
13606TIP3    H140757   6.229   0.318   0.873  1.6698  0.4547  0.3946
13606TIP3    H240758   6.208   0.428   0.976  0.0318 -0.1530  0.7244
13607TIP3   OH240759   7.968   5.251   1.397 -0.5865  0.2092 -0.0457
13607TIP3    H140760   7.901   5.227   1.332 -1.6501 -0.6229  1.3216
13607TIP3    H240761   8.051   5.244   1.350 -1.3267 -0.6076 -1.2543
13608TIP3   OH240762   0.401   6.090   0.768 -0.0321 -0.1457 -0.1203
13608TIP3    H140763   0.490   6.123   0.781 -0.0405 -0.1650 -0.0104
13608TIP3    H240764   0.347   6.169   0.761  0.0592 -0.1304 -0.6570
13609TIP3   OH240765   0.403   6.915   4.643 -0.0430 -0.3333  0.3002
13609TIP3    H140766   0.340   6.843   4.634  0.8104 -0.9587 -0.8146
13609TIP3    H240767   0.450   6.916   4.560 -0.1202  1.6102  0.2701
13610TIP3   OH240768   7.600   5.644   1.995 -0.0445 -0.2123  0.2920
13610TIP3    H140769   7.650   5.713   1.950 -1.6005  0.7207 -0.0706
13610TIP3    H240770   7.584   5.680   2.082  0.5111 -0.8070  0.6403
13611TIP3   OH240771   1.570   0.549   1.277  0.1555 -0.7401 -0.1488
13611TIP3    H140772   1.549   0.480   1.214  0.5932 -0.0314 -1.0726
13611TIP3    H240773   1.489   0.599   1.286 -0.8517 -2.6862  2.2243
13612TIP3   OH240774   3.636   3.845   6.411 -0.1162 -0.0636 -0.1184
13612TIP3    H140775   3.716   3.891   6.383 -0.3440 -0.0260 -0.7046
13612TIP3    H240776   3.618   3.880   6.498  1.5920 -1.4595  0.8361
13613TIP3   OH240777   3.139   1.160   1.463  0.1681  0.0441 -0.1932
13613TIP3    H140778   3.175   1.126   1.381  0.4815 -0.4030  0.1254
13613TIP3    H240779   3.044   1.162   1.449  0.1589 -0.7947 -0.2864
13614TIP3   OH240780   7.430   6.796   0.992 -0.0602 -0.1927  0.6869
13614TIP3    H140781   7.371   6.757   1.057  1.4239  0.4542  2.4454
13614TIP3    H240782   7.507   6.740   0.993  0.6953  0.8465  0.7460
13615TIP3   OH240783   4.419   3.572   5.743  0.1835  0.0090 -1.1349
13615TIP3    H140784   4.426   3.564   5.648 -0.3939 -1.5492 -1.0565
13615TIP3    H240785   4.504   3.543   5.776  0.0656 -0.3397 -1.1344
13616TIP3   OH240786   2.425   1.414   0.387 -0.1095  0.0709  0.1869
13616TIP3    H140787   2.473   1.331   0.384 -0.5195 -0.1374 -0.8504
13616TIP3    H240788   2.349   1.395   0.443  0.3720  0.0625  0.8446
13617TIP3   OH240789   6.668   7.023   0.348  0.3444  0.1310 -0.3552
13617TIP3    H140790   6.659   6.968   0.425 -0.8354  0.5969 -0.1486
13617TIP3    H240791   6.762   7.033   0.337  0.5501 -1.3698 -0.0083
13618TIP3   OH240792   4.699   0.104   1.009  0.1476  1.2385  0.0338
13618TIP3    H140793   4.657   0.074   0.928 -0.2114 -0.9776  1.0032
13618TIP3    H240794   4.791   0.081   0.998  0.3100  2.0000 -0.2210
13619TIP3   OH240795   5.287   0.043   0.930 -0.2877  0.0538 -0.1937
13619TIP3    H140796   5.216   0.089   0.885  0.0961 -0.1154 -0.9794
13619TIP3    H240797   5.300  -0.036   0.879 -1.1151 -1.0776  1.3020
13620TIP3   OH240798   6.146   1.022   1.966  0.4618 -0.1381  0.3189
13620TIP3    H140799   6.163   1.067   1.883 -1.9516  1.5866  0.7103
13620TIP3    H240800   6.225   0.970   1.982  2.0336  1.5528 -1.7211
13621TIP3   OH240801   4.830   0.692   0.774  0.6396  0.2309  0.2524
13621TIP3    H140802   4.923   0.686   0.796  0.4225 -1.4056  0.7993
13621TIP3    H240803   4.825   0.664   0.683  0.3391 -2.5110  1.0893
13622TIP3   OH240804   3.729   7.883   1.842  0.8496 -0.0131 -0.4932
13622TIP3    H140805   3.672   7.830   1.898  1.3350  0.2978  0.3045
13622TIP3    H240806   3.711   7.852   1.753  1.5929 -2.0010  0.0067
13623TIP3   OH240807   6.635   5.312   6.768  0.4679  0.9572  0.2222
13623TIP3    H140808   6.668   5.312   6.857 -1.5915 -0.9485  1.0401
13623TIP3    H240809   6.679   5.238   6.726  0.0162  0.6725  0.2409
13624TIP3   OH240810   8.030   6.518   1.120  0.2148 -0.2579  0.2895
13624TIP3    H140811   8.061   6.608   1.136  0.0983 -0.3069  0.8057
13624TIP3    H240812   8.026   6.511   1.025  0.9481  0.0396  0.2343
13625TIP3   OH240813   5.968   4.836   6.543  0.0301  0.2850  0.5033
13625TIP3    H140814   5.955   4.781   6.466  0.4925  0.6216  0.1877
13625TIP3    H240815   5.880   4.848   6.579 -0.2863  0.8484 -0.4637
13626TIP3   OH240816   2.097   7.530   2.041  0.4848  0.1183 -0.0002
13626TIP3    H140817   2.020   7.508   2.093  0.6205 -1.6903 -0.5299
13626TIP3    H240818   2.129   7.446   2.010  0.7561  1.1290 -2.5183
13627TIP3   OH240819   6.838   4.799   6.601  0.2080 -0.3088 -0.4844
13627TIP3    H140820   6.914   4.741   6.594  0.4434 -0.0309 -0.2666
13627TIP3    H240821   6.803   4.803   6.513  0.4812 -0.3951 -0.5994
13628TIP3   OH240822   1.363   7.793   0.794  0.0804  0.0597 -0.7262
13628TIP3    H140823   1.416   7.775   0.871 -0.3859  0.5981 -0.2805
13628TIP3    H240824   1.423   7.836   0.733  0.3840 -0.1365 -0.5663
13629TIP3   OH240825   6.703   1.608   0.722 -0.6530 -0.1073  0.0031
13629TIP3    H140826   6.616   1.606   0.761 -0.3565  2.4266  0.9076
13629TIP3    H240827   6.706   1.692   0.675  2.5327  1.5955  3.0510
13630TIP3   OH240828   8.233   5.701   3.013 -0.2972  0.0807 -0.5447
13630TIP3    H140829   8.216   5.654   3.095 -0.8771 -0.9090 -1.2259
13630TIP3    H240830   8.278   5.781   3.041  2.0265 -1.5561  0.5010
13631TIP3   OH240831   0.558   7.205   2.361 -0.6682  0.1668  0.1345
13631TIP3    H140832   0.608   7.146   2.418 -0.7813 -0.8767 -0.8340
13631TIP3    H240833   0.605   7.289   2.368  0.1022 -0.2996  0.7207
13632TIP3   OH240834   3.868   7.034   1.285  0.5993 -0.2227  0.3151
13632TIP3    H140835   3.844   6.975   1.357  0.4322 -2.2552 -1.3553
13632TIP3    H240836   3.964   7.036   1.286  0.6199 -0.9659  0.0396
13633TIP3   OH240837   2.274   7.375   0.666  0.0454 -0.1090  0.8173
13633TIP3    H140838   2.254   7.448   0.607 -0.5732 -0.9821 -0.0734
13633TIP3    H240839   2.200   7.373   0.727 -0.6354 -0.8555 -0.0226
13634TIP3   OH240840   4.847   1.025   2.790 -0.0424  0.7838 -0.0864
13634TIP3    H140841   4.846   1.072   2.706 -0.5461  1.5787  0.3541
13634TIP3    H240842   4.880   1.090   2.853  0.3454  0.1857  0.3301
13635TIP3   OH240843   1.539   7.308   2.021  0.0921  0.1599 -0.0580
13635TIP3    H140844   1.493   7.341   1.944 -1.6749 -0.0876  0.8619
13635TIP3    H240845   1.557   7.217   2.001  0.8185  0.4429 -0.7117
13636TIP3   OH240846   0.519   7.028   2.147 -0.0363  0.2195  0.0828
13636TIP3    H140847   0.520   7.100   2.210 -1.8386  0.4765 -0.1454
13636TIP3    H240848   0.450   6.970   2.179 -0.1870 -0.2249 -1.0232
13637TIP3   OH240849   5.518   4.856   5.647  0.7464 -0.6482  0.0590
13637TIP3    H140850   5.537   4.812   5.564 -0.1097 -0.0090 -0.4823
13637TIP3    H240851   5.423   4.868   5.647  0.5090 -2.1707  1.9072
13638TIP3   OH240852   6.003   0.707   3.524  0.1862 -0.6173  0.3349
13638TIP3    H140853   6.026   0.618   3.548 -0.8380 -1.7141 -2.5248
13638TIP3    H240854   5.959   0.699   3.439  0.9176  2.6922 -0.4620
13639TIP3   OH240855   8.164   4.567   5.154  0.0485 -0.2615 -0.3300
13639TIP3    H140856   8.240   4.598   5.203 -0.4939  0.1446  0.2530
13639TIP3    H240857   8.088   4.601   5.202 -0.4913 -0.1309 -1.2555
13640TIP3   OH240858   3.900   7.222   0.782  0.4687  0.3816 -0.1991
13640TIP3    H140859   3.973   7.168   0.749 -0.2143 -1.0174  0.5460
13640TIP3    H240860   3.863   7.171   0.854 -0.0955  1.9361  0.6338
13641TIP3   OH240861   4.491   1.762   0.223 -0.1292 -0.1485  0.1365
13641TIP3    H140862   4.484   1.667   0.223  1.2577 -0.2699  0.9038
13641TIP3    H240863   4.582   1.779   0.195 -0.4347  0.9478 -0.2232
13642TIP3   OH240864   7.053   5.242   6.023 -0.0196 -0.0282  0.4395
13642TIP3    H140865   7.027   5.283   6.106 -1.3784 -0.9550  0.4875
13642TIP3    H240866   7.055   5.314   5.960 -0.9334  0.3545  0.8483
13643TIP3   OH240867   1.694   6.712   1.598 -0.0509  0.3620  0.3861
13643TIP3    H140868   1.688   6.789   1.541 -0.4987 -0.7894 -1.1854
13643TIP3    H240869   1.613   6.714   1.649 -1.4866 -0.6096 -1.7447
13644TIP3   OH240870   6.721   0.452   1.591  0.1817 -0.3055 -0.4922
13644TIP3    H140871   6.767   0.533   1.570 -0.1005  0.2920  1.1588
13644TIP3    H240872   6.777   0.383   1.555  2.2215  0.4231  1.1500
13645TIP3   OH240873   4.944   0.376   0.226 -0.4776  0.4313  0.2100
13645TIP3    H140874   4.854   0.371   0.257  0.1124 -1.3282  1.7117
13645TIP3    H240875   4.943   0.334   0.140 -0.8713 -0.7357  0.7739
13646TIP3   OH240876   1.984   6.402   1.002 -0.0489 -0.6384 -0.1783
13646TIP3    H140877   1.927   6.327   0.987  0.9391 -1.0403 -2.1724
13646TIP3    H240878   2.069   6.364   1.024  0.1963 -0.0986 -0.1650
13647TIP3   OH240879   5.401   1.255   0.372 -0.1064  0.0247  0.6491
13647TIP3    H140880   5.334   1.322   0.359 -1.2598 -0.9605  1.4873
13647TIP3    H240881   5.483   1.305   0.381 -1.1806  1.4369  2.9729
13648TIP3   OH240882   3.872   1.593   3.520 -0.0826 -0.1545  0.6159
13648TIP3    H140883   3.932   1.668   3.519  0.8770 -0.8720  1.8293
13648TIP3    H240884   3.890   1.550   3.604 -0.6752 -1.6839 -0.0263
13649TIP3   OH240885   0.162   7.432   0.560 -0.0575  0.2418  0.6065
13649TIP3    H140886   0.108   7.387   0.625  0.3167 -0.1995  0.6140
13649TIP3    H240887   0.125   7.407   0.475  0.6911 -0.7911  0.5753
13650TIP3   OH240888   5.232   6.534   1.182 -0.2580 -0.0428  0.2742
13650TIP3    H140889   5.316   6.568   1.213  0.0003  0.0685 -0.5273
13650TIP3    H240890   5.237   6.541   1.086 -1.0053 -0.4454  0.1993
13651TIP3   OH240891   5.366   0.418   0.164  0.5746 -0.2946  0.6488
13651TIP3    H140892   5.405   0.495   0.123 -2.7905  0.1172 -2.0579
13651TIP3    H240893   5.327   0.451   0.245 -2.1929  1.2895 -1.2431
13652TIP3   OH240894   5.676   0.931   2.098  0.1019 -0.0556  0.9628
13652TIP3    H140895   5.760   0.967   2.127  0.0317  1.0094 -0.1213
13652TIP3    H240896   5.699   0.851   2.052  0.6256  0.7539 -0.2113
13653TIP3   OH240897   2.346   4.589   0.420 -0.0819 -0.7229 -0.5119
13653TIP3    H140898   2.263   4.634   0.409  0.4963  0.6381  0.6204
13653TIP3    H240899   2.322   4.496   0.427 -1.4757 -0.3717 -0.4490
13654TIP3   OH240900   1.604   7.183   1.587 -0.3278 -0.4024  0.1259
13654TIP3    H140901   1.573   7.250   1.527 -0.0011  0.1866  0.6099
13654TIP3    H240902   1.530   7.123   1.597 -0.7041  0.0230 -0.1041
13655TIP3   OH240903   4.546   0.606  -0.002  0.0997  0.3843  0.0204
13655TIP3    H140904   4.451   0.610  -0.010  0.0816  1.0221  0.5753
13655TIP3    H240905   4.571   0.691   0.033  0.9706  0.5848 -1.0687
13656TIP3   OH240906   7.754   6.515   0.811  0.4347  0.3649 -0.2510
13656TIP3    H140907   7.765   6.439   0.753 -0.5925 -0.6786  0.8894
13656TIP3    H240908   7.683   6.564   0.772 -0.7433 -0.7175  0.4855
13657TIP3   OH240909   1.907   1.767   1.322 -0.0688  0.4233 -0.3534
13657TIP3    H140910   1.998   1.789   1.301  0.4449  0.2338  1.5934
13657TIP3    H240911   1.857   1.843   1.293  0.7676  0.7891 -0.8730
13658TIP3   OH240912   5.100   0.336   2.112 -0.4813  0.6911  0.2135
13658TIP3    H140913   5.109   0.322   2.207  0.6420 -1.8259 -0.2039
13658TIP3    H240914   5.178   0.385   2.088 -0.7862  1.3682  0.5957
13659TIP3   OH240915   1.460   3.827   2.713  0.1085 -0.5858  0.7274
13659TIP3    H140916   1.487   3.806   2.624  1.4937  0.8886  0.7873
13659TIP3    H240917   1.365   3.816   2.712  0.0226  0.1367 -1.1226
13660TIP3   OH240918   4.313   0.502   2.219 -0.5298 -0.8078 -0.1353
13660TIP3    H140919   4.238   0.556   2.198 -0.6060 -1.3135 -1.1914
13660TIP3    H240920   4.364   0.498   2.138  0.2953 -1.0083  0.3806
13661TIP3   OH240921   4.752   1.788   0.126  0.1173 -0.5137  0.1803
13661TIP3    H140922   4.786   1.727   0.061  2.3582 -0.1978  1.0182
13661TIP3    H240923   4.766   1.875   0.088  0.5951 -0.3627  0.7001
13662TIP3   OH240924   4.128   0.092   1.243 -0.5803 -0.4370  0.3088
13662TIP3    H140925   4.088   0.178   1.255 -0.6060 -0.5323  0.9543
13662TIP3    H240926   4.191   0.104   1.172 -0.2795  0.2176  0.6794
13663TIP3   OH240927   2.423   1.895   2.436  0.1394 -0.1602  0.4553
13663TIP3    H140928   2.344   1.928   2.479  1.0639  3.0294 -0.1475
13663TIP3    H240929   2.493   1.910   2.499  0.5956 -1.0206  0.1624
13664TIP3   OH240930   0.562   5.826   1.296  0.2295 -0.1204 -0.1462
13664TIP3    H140931   0.514   5.757   1.340 -3.1022  0.5426 -2.5197
13664TIP3    H240932   0.612   5.782   1.228  1.0612 -0.5524  0.7353
13665TIP3   OH240933   6.027   0.188   1.397  0.0893 -0.4778  0.1708
13665TIP3    H140934   6.053   0.096   1.400  0.3674 -0.3853  0.6346
13665TIP3    H240935   5.934   0.186   1.373  0.0202 -0.8884  0.4676
13666TIP3   OH240936   3.947   6.652   0.445  0.9647  0.6894  0.3410
13666TIP3    H140937   4.030   6.698   0.433  2.7684 -2.5084  0.0178
13666TIP3    H240938   3.972   6.561   0.456 -2.6086 -0.4756 -0.7258
13667TIP3   OH240939   3.550   0.353   0.159 -0.2080  0.0659  0.0324
13667TIP3    H140940   3.527   0.439   0.194 -1.6769  0.1404 -1.0588
13667TIP3    H240941   3.579   0.370   0.070 -0.4865 -0.5606 -0.1831
13668TIP3   OH240942   8.096   3.388   6.120 -0.5190 -0.2463  0.1899
13668TIP3    H140943   8.123   3.321   6.183 -0.3606 -1.5034 -1.1820
13668TIP3    H240944   8.166   3.453   6.123  0.1313 -0.9436  0.3838
13669TIP3   OH240945   4.665   0.456   0.983  0.2331 -0.4430 -0.0330
13669TIP3    H140946   4.654   0.382   0.923  0.9167  0.6713 -1.5348
13669TIP3    H240947   4.759   0.475   0.982  0.0100  0.6868  0.0783
13670TIP3   OH240948   2.853   7.538   2.354 -0.2337  0.3048 -0.5066
13670TIP3    H140949   2.762   7.509   2.363 -0.3524  0.3858 -1.3528
13670TIP3    H240950   2.892   7.522   2.439 -0.7920 -0.6033 -0.4148
13671TIP3   OH240951   1.386   6.372   2.502  0.7094  0.2125 -0.0413
13671TIP3    H140952   1.466   6.360   2.451  0.1780  0.4914 -0.9632
13671TIP3    H240953   1.374   6.467   2.504  0.2545  0.1556 -0.1428
13672TIP3   OH240954   5.894   0.087   0.132  0.6034 -0.0149 -0.1466
13672TIP3    H140955   5.875   0.158   0.193  0.2131  1.3256 -1.8324
13672TIP3    H240956   5.809   0.061   0.096  0.7684 -1.1739  0.2526
13673TIP3   OH240957   2.617   7.670   3.804 -0.1790 -0.0015 -0.5081
13673TIP3    H140958   2.658   7.756   3.791  0.6362 -0.4971 -1.2541
13673TIP3    H240959   2.690   7.608   3.804 -0.5416 -0.4838  2.2619
13674TIP3   OH240960   2.794   0.123   1.652 -0.1484  0.2870  0.1280
13674TIP3    H140961   2.818   0.214   1.668 -0.8622  0.4404  0.3481
13674TIP3    H240962   2.854   0.094   1.584 -1.8430  1.7984 -2.0465
13675TIP3   OH240963   3.944   0.848   2.497 -0.2268  0.2356 -0.0944
13675TIP3    H140964   4.025   0.805   2.524  0.7950  2.6373  0.8050
13675TIP3    H240965   3.961   0.877   2.407 -0.3843  0.0907 -0.1726
13676TIP3   OH240966   1.275   7.696   1.717 -0.5111  0.7604  0.9962
13676TIP3    H140967   1.195   7.643   1.725  0.0492 -0.4284 -0.9041
13676TIP3    H240968   1.310   7.673   1.631  2.0225  1.0839  1.9133
13677TIP3   OH240969   3.733   6.344   1.653  0.5471  0.4958 -0.7510
13677TIP3    H140970   3.760   6.269   1.706 -0.9284  0.4843  0.0049
13677TIP3    H240971   3.685   6.305   1.579 -0.1082  0.6858 -0.4267
13678TIP3   OH240972   2.127   7.443   1.729  0.0461 -0.7602 -0.4833
13678TIP3    H140973   2.040   7.403   1.734  0.3089 -1.2432  0.1953
13678TIP3    H240974   2.173   7.411   1.807  0.4677  0.3580 -0.2679
13679TIP3   OH240975   7.948   7.217   2.648 -0.1504  0.5448 -0.1720
13679TIP3    H140976   7.879   7.280   2.628  0.7570  1.7556  0.4560
13679TIP3    H240977   8.024   7.271   2.672  0.9416 -0.7602 -0.5982
13680TIP3   OH240978   8.443   7.334   2.268  0.0245  0.0791 -0.0144
13680TIP3    H140979   8.439   7.400   2.199  0.7980 -1.0274 -1.1265
13680TIP3    H240980   8.352   7.305   2.278 -0.0480  0.0081 -0.8142
13681TIP3   OH240981   5.778   0.692   0.965  0.2750  0.0207  0.8198
13681TIP3    H140982   5.821   0.617   0.923  2.1728 -0.5068  3.5140
13681TIP3    H240983   5.705   0.654   1.013  0.0122  0.1793  0.5453
13682TIP3   OH240984   7.375   2.943   4.662  0.0558 -0.0407 -0.0079
13682TIP3    H140985   7.328   2.914   4.740 -0.0899 -0.1344 -0.1291
13682TIP3    H240986   7.307   2.950   4.594 -0.0661  1.4483  0.2457
13683TIP3   OH240987   4.973   0.442   1.052 -0.3701  0.5903  0.3528
13683TIP3    H140988   4.980   0.500   1.127  0.6826  1.3009 -0.2962
13683TIP3    H240989   5.060   0.441   1.013  0.0892 -2.6568  1.2371
13684TIP3   OH240990   3.809   0.434   1.826 -0.4941 -0.5235 -0.1279
13684TIP3    H140991   3.817   0.485   1.907 -0.7914 -0.6133 -0.0411
13684TIP3    H240992   3.722   0.456   1.793 -0.5377 -0.8083 -0.2046
13685TIP3   OH240993   7.765   5.048   6.115 -0.0989 -0.4271 -0.3128
13685TIP3    H140994   7.848   5.010   6.146  0.4914  0.1620 -1.1362
13685TIP3    H240995   7.718   5.070   6.195  0.4802 -0.8920  0.1703
13686TIP3   OH240996   4.545   1.639   1.530  0.1697  0.3410 -0.1085
13686TIP3    H140997   4.522   1.575   1.463  0.1405 -1.1413  1.2954
13686TIP3    H240998   4.616   1.598   1.579  1.7801  2.3656 -0.6377
13687TIP3   OH240999   2.882   0.581   0.117 -0.1543 -0.3736  0.3428
13687TIP3    H141000   2.820   0.558   0.048  0.1464 -2.4578  0.7383
13687TIP3    H241001   2.866   0.516   0.186  0.7074  0.6470  1.5196
13688TIP3   OH241002   3.594   0.424   3.865  0.4368 -0.1513  0.4240
13688TIP3    H141003   3.662   0.397   3.927 -0.4677 -3.1706  0.1744
13688TIP3    H241004   3.637   0.425   3.780  0.0827 -2.6859  0.1725
13689TIP3   OH241005   4.342   7.011   1.083  0.6773 -0.2561  0.2645
13689TIP3    H141006   4.262   6.980   1.040  0.7187  1.1903 -0.8985
13689TIP3    H241007   4.408   6.945   1.063  0.1468 -0.6943 -0.0370
13690TIP3   OH241008   8.326   1.713   3.980 -0.1061 -0.1166 -0.5938
13690TIP3    H141009   8.263   1.743   4.046  0.3435 -1.6390  0.5646
13690TIP3    H241010   8.304   1.621   3.967  1.6038 -0.5467 -0.4889
13691TIP3   OH241011   3.982   2.624   3.737 -0.2047 -0.3265 -0.4506
13691TIP3    H141012   4.061   2.653   3.693  1.4317 -3.2450  0.4282
13691TIP3    H241013   3.929   2.584   3.668  0.3306 -0.8481 -0.5612
13692TIP3   OH241014   3.355   7.284   1.135 -0.4939 -0.2286 -0.1759
13692TIP3    H141015   3.386   7.318   1.219 -0.1729 -3.3609  1.0020
13692TIP3    H241016   3.285   7.345   1.109 -1.9647 -0.3353  3.2979
13693TIP3   OH241017   0.655   5.725   6.091  0.0506 -0.0175  0.1116
13693TIP3    H141018   0.668   5.638   6.053  0.7379  1.6486 -3.6141
13693TIP3    H241019   0.563   5.726   6.116  0.2211 -2.0734  0.9665
13694TIP3   OH241020   0.319   6.611   0.701  0.6389 -0.5664  0.0964
13694TIP3    H141021   0.406   6.571   0.697  1.1627  0.6537 -1.1312
13694TIP3    H241022   0.336   6.704   0.714 -0.4957 -0.3654  0.1583
13695TIP3   OH241023   7.284   5.555   6.827 -0.2976 -0.2175 -0.2762
13695TIP3    H141024   7.230   5.521   6.756  0.1852 -0.1087 -0.6987
13695TIP3    H241025   7.329   5.477   6.862  2.1066  0.1692 -2.3438
13696TIP3   OH241026   2.067   1.681   0.541 -0.3505  0.3976  0.2736
13696TIP3    H141027   2.107   1.728   0.468  0.8038  1.0554  1.3161
13696TIP3    H241028   2.122   1.701   0.617 -1.2317 -0.6858  1.2344
13697TIP3   OH241029   5.925   1.185   1.293  0.6469  0.6156 -0.2855
13697TIP3    H141030   5.913   1.170   1.387 -1.5915 -1.2226 -0.8139
13697TIP3    H241031   5.925   1.098   1.254 -1.3524  1.4519 -2.2841
13698TIP3   OH241032   2.041   6.586   0.633  0.2348 -0.4954 -0.4247
13698TIP3    H141033   2.075   6.498   0.621  1.5536 -0.1350  0.6336
13698TIP3    H241034   2.118   6.642   0.640 -0.5796  0.7173 -0.8073
13699TIP3   OH241035   0.321   3.416   6.382  0.3209 -0.1487  0.5185
13699TIP3    H141036   0.299   3.445   6.471 -1.5917  0.6828 -0.1912
13699TIP3    H241037   0.391   3.352   6.394 -1.2054 -1.4565  2.7898
13700TIP3   OH241038   7.408   5.833   6.296 -0.2938  0.1264  0.9401
13700TIP3    H141039   7.501   5.849   6.278 -0.5393 -0.4080 -0.9173
13700TIP3    H241040   7.373   5.919   6.319  0.2865  0.6682 -0.1485
13701TIP3   OH241041   4.572   1.508   1.275  0.0959  0.0749 -0.2840
13701TIP3    H141042   4.665   1.509   1.298 -0.0739  0.0137  0.4238
13701TIP3    H241043   4.539   1.427   1.313 -0.5890  0.8756  0.8578
13702TIP3   OH241044   3.158   0.689   2.495 -0.3655 -0.9351  0.3285
13702TIP3    H141045   3.200   0.770   2.465 -0.2990 -1.7447 -1.8642
13702TIP3    H241046   3.065   0.711   2.499 -0.1319 -0.1619  1.7643
13703TIP3   OH241047   8.291   4.663   6.116  0.5650  0.2216  0.1233
13703TIP3    H141048   8.304   4.568   6.114  1.6802  0.3799 -0.7498
13703TIP3    H241049   8.348   4.694   6.186  0.0197  0.2232  0.5686
13704TIP3   OH241050   6.786   5.583   6.628  0.2305 -1.2672  0.5458
13704TIP3    H141051   6.725   5.515   6.597  0.9903 -1.0164 -1.5604
13704TIP3    H241052   6.763   5.595   6.720  0.0392 -4.3492  0.9462
13705TIP3   OH241053   2.773   3.657   6.609  0.4676  0.2034 -0.0754
13705TIP3    H141054   2.778   3.647   6.514 -1.1370  0.7736 -0.2306
13705TIP3    H241055   2.726   3.739   6.622  2.0301  0.9248  1.2216
13706TIP3   OH241056   6.525   1.195   0.758 -0.1413 -0.0479  0.5335
13706TIP3    H141057   6.571   1.117   0.791 -1.9153 -0.4373  2.2002
13706TIP3    H241058   6.571   1.269   0.799  1.3566 -0.2176 -0.8084
13707TIP3   OH241059   2.267   0.884   1.069 -0.1544  0.0923  0.7222
13707TIP3    H141060   2.323   0.810   1.096 -0.9664 -1.2084 -1.0375
13707TIP3    H241061   2.329   0.953   1.046  0.6856 -0.5798  0.9082
13708TIP3   OH241062   3.030   7.044   1.733  0.5006 -0.1446 -0.2943
13708TIP3    H141063   3.122   7.026   1.712  1.2498  0.6524  2.1808
13708TIP3    H241064   2.999   6.964   1.777 -0.0511 -0.4733 -1.2643
13709TIP3   OH241065   8.396   6.478   0.949 -0.5341  0.1018 -0.5143
13709TIP3    H141066   8.369   6.525   1.028 -0.5760 -0.3600 -0.2517
13709TIP3    H241067   8.483   6.514   0.928 -0.9703  0.9610 -0.8554
13710TIP3   OH241068   5.765   0.208   0.618 -0.3323  0.1193  0.6001
13710TIP3    H141069   5.849   0.165   0.636  1.2074  3.9931  3.1469
13710TIP3    H241070   5.714   0.195   0.698 -1.0410  0.3912  0.1981
13711TIP3   OH241071   6.674   4.327   5.961  0.0128 -0.1038  0.4208
13711TIP3    H141072   6.580   4.347   5.964 -0.1632 -0.5738 -1.5708
13711TIP3    H241073   6.682   4.248   6.015 -0.6866  0.1204  0.8652
13712TIP3   OH241074   4.911   0.655   0.456 -0.0848 -0.1458  0.1482
13712TIP3    H141075   4.831   0.704   0.439  0.2776  0.2077 -0.5293
13712TIP3    H241076   4.958   0.653   0.373  0.9351  0.2390  0.6954
13713TIP3   OH241077   5.922   3.098   5.577  0.4592  0.1847 -0.3564
13713TIP3    H141078   5.829   3.092   5.553  0.5329 -0.3858 -0.5201
13713TIP3    H241079   5.966   3.122   5.495  0.5301 -0.2137 -0.4379
13714TIP3   OH241080   1.295   7.009   2.174 -0.6323 -0.2861  0.7660
13714TIP3    H141081   1.287   6.921   2.139 -1.5279 -0.3426  1.1052
13714TIP3    H241082   1.205   7.038   2.189 -0.3556  0.7638  0.4594
13715TIP3   OH241083   8.442   4.767   6.661  0.4195 -0.0512  0.1157
13715TIP3    H141084   8.453   4.691   6.718 -0.7214 -0.9595 -0.8329
13715TIP3    H241085   8.521   4.768   6.607  0.2208 -0.8574 -0.1934
13716TIP3   OH241086   6.803   7.296   1.337 -0.1792  0.1282  0.1151
13716TIP3    H141087   6.752   7.363   1.384  1.1466 -1.4985  4.0617
13716TIP3    H241088   6.877   7.278   1.395  1.5845 -1.9846 -2.7033
13717TIP3   OH241089   4.957   5.568   6.434 -0.1673 -0.1866  0.6446
13717TIP3    H141090   4.887   5.524   6.480 -1.0381 -0.7959 -1.2117
13717TIP3    H241091   5.037   5.527   6.466 -0.8365 -1.5174  0.6233
13718TIP3   OH241092   0.412   1.309   0.524 -0.1967  0.1144 -0.3309
13718TIP3    H141093   0.504   1.284   0.512 -0.1582  0.1362 -0.0775
13718TIP3    H241094   0.405   1.332   0.616 -0.2320  1.0483 -0.5618
13719TIP3   OH241095   4.273   0.599   0.023  0.4732 -0.5577  0.5686
13719TIP3    H141096   4.243   0.597   0.114 -0.6949  0.4761  0.2123
13719TIP3    H241097   4.217   0.664  -0.019  0.1312 -1.9950 -1.2092
13720TIP3   OH241098   8.452   5.710   4.640  0.1915  0.4439 -0.0183
13720TIP3    H141099   8.517   5.641   4.632 -0.4833 -0.1635 -0.3033
13720TIP3    H241100   8.412   5.696   4.726  0.3572  0.7481  0.1098
13721TIP3   OH241101   2.276   6.628   0.992 -0.4360  0.3186 -0.3269
13721TIP3    H141102   2.294   6.668   1.077  0.3855 -1.3328  0.2919
13721TIP3    H241103   2.181   6.631   0.983 -0.5814 -0.2572  1.0231
13722TIP3   OH241104   5.445   0.706   0.567 -0.0674 -0.3527 -0.2865
13722TIP3    H141105   5.523   0.762   0.557 -1.4976  1.6078 -0.8828
13722TIP3    H241106   5.401   0.740   0.645 -1.5923  0.1851 -1.3554
13723TIP3   OH241107   3.747   1.307   0.303 -0.4681  0.6451 -0.5030
13723TIP3    H141108   3.734   1.362   0.380  2.4218  0.4950  0.1282
13723TIP3    H241109   3.725   1.219   0.332 -3.4834  1.1398 -1.0652
13724TIP3   OH241110   3.692   7.197   0.583 -0.0847  0.0937 -0.1883
13724TIP3    H141111   3.767   7.177   0.639 -1.1161 -3.1352  0.1686
13724TIP3    H241112   3.727   7.253   0.515  3.0442 -2.5381 -0.8723
13725TIP3   OH241113   5.741   3.953   4.579  0.1893  0.4506  0.1317
13725TIP3    H141114   5.761   3.860   4.587  1.1516  0.8527  3.0234
13725TIP3    H241115   5.647   3.959   4.593  0.0665 -0.1288 -0.4453
13726TIP3   OH241116   1.542   4.243   5.748  0.3464 -0.0852  0.5453
13726TIP3    H141117   1.548   4.214   5.839 -1.4619 -0.8587  0.4383
13726TIP3    H241118   1.592   4.177   5.699 -0.5134 -0.8906  0.7412
13727TIP3   OH241119   1.353   6.696   2.930 -0.6611 -0.4944 -0.3733
13727TIP3    H141120   1.325   6.771   2.982  1.7932  0.1171  0.1359
13727TIP3    H241121   1.289   6.691   2.859 -0.1126  2.9665 -1.2042
13728TIP3   OH241122   5.090   4.917   6.193  0.5194 -0.1898  0.0866
13728TIP3    H141123   5.028   4.928   6.266 -0.5192  1.2676 -0.9906
13728TIP3    H241124   5.172   4.952   6.227 -0.0146  0.7067  0.4955
13729TIP3   OH241125   3.642   1.498   5.826 -0.6403 -0.4397  0.2753
13729TIP3    H141126   3.614   1.411   5.797 -0.4581 -0.5983  0.5721
13729TIP3    H241127   3.731   1.507   5.793 -0.2366 -0.8399  1.2494
13730TIP3   OH241128   4.055   1.277   2.475 -0.3196  0.2763 -0.1753
13730TIP3    H141129   3.982   1.251   2.530 -0.3863  0.8907  0.0296
13730TIP3    H241130   4.020   1.346   2.419 -0.4034 -0.7438 -1.3857
13731TIP3   OH241131   2.697   0.766   0.653  0.1048  0.0868  0.4283
13731TIP3    H141132   2.773   0.708   0.654  0.9994  1.2576  1.3212
13731TIP3    H241133   2.632   0.718   0.601  1.2762 -1.1250  0.0285
13732TIP3   OH241134   3.603   7.150   1.264  0.6858  0.2613 -0.2844
13732TIP3    H141135   3.681   7.099   1.283  0.4345  0.5370  1.6076
13732TIP3    H241136   3.634   7.222   1.209  1.6468 -0.0161 -0.1175
13733TIP3   OH241137   5.402   0.116   1.965 -0.0690  0.0166 -0.2604
13733TIP3    H141138   5.380   0.023   1.960 -1.8659  0.3571  0.8850
13733TIP3    H241139   5.339   0.159   1.907 -0.5999  0.7111  0.8052
13734TIP3   OH241140   3.116   7.230   2.200  0.3181 -0.3178  0.0779
13734TIP3    H141141   3.095   7.320   2.224  1.9196  0.8202 -2.5760
13734TIP3    H241142   3.079   7.219   2.113  4.1056 -0.6628 -1.5893
13735TIP3   OH241143   4.683   6.812   0.717  0.1304 -0.0184  0.3672
13735TIP3    H141144   4.675   6.904   0.693  0.9462 -0.5462 -2.0509
13735TIP3    H241145   4.774   6.790   0.698  1.0535 -0.3678  4.5903
13736TIP3   OH241146   6.999   2.146   3.249  0.0835 -0.1467  0.1860
13736TIP3    H141147   6.996   2.076   3.314 -2.1599 -1.0165 -0.7738
13736TIP3    H241148   6.944   2.215   3.286 -2.4301 -1.2429 -1.3889
13737TIP3   OH241149   7.366   5.368   6.025  0.4537 -0.1079 -0.3704
13737TIP3    H141150   7.395   5.424   6.097  1.4310 -1.2592  0.1407
13737TIP3    H241151   7.325   5.428   5.963  2.0401  1.2588 -0.1264
13738TIP3   OH241152   3.413   7.470   0.865 -0.4056  0.2930  0.0050
13738TIP3    H141153   3.471   7.547   0.864 -0.2379  0.2350  2.4893
13738TIP3    H241154   3.325   7.505   0.877 -0.5888  0.2074 -1.0174
13739TIP3   OH241155   1.428   7.846   1.354 -0.0698 -0.1795 -0.0478
13739TIP3    H141156   1.365   7.917   1.364 -0.1807 -0.2755 -0.0606
13739TIP3    H241157   1.490   7.859   1.425 -0.2263 -0.2103  0.0942
13740TIP3   OH241158   8.004   4.156   4.421 -0.4012 -0.1321 -0.1166
13740TIP3    H141159   8.083   4.104   4.433  0.0940  0.9124  1.2780
13740TIP3    H241160   7.945   4.129   4.492 -0.4835  0.5823  0.0883
13741TIP3   OH241161   4.371   7.047   2.609  0.3629  0.2515  0.7031
13741TIP3    H141162   4.276   7.044   2.593  0.3081 -1.0606  1.1833
13741TIP3    H241163   4.408   7.077   2.526 -0.4273  0.0911  0.2833
13742TIP3   OH241164   3.354   6.114   2.240  0.2430  0.1731  0.3498
13742TIP3    H141165   3.399   6.059   2.304  0.7979  1.2119  0.8740
13742TIP3    H241166   3.264   6.081   2.239  1.0260 -2.0312 -0.8245
13743TIP3   OH241167   5.585   0.319   2.462 -0.0479  0.4082  0.3031
13743TIP3    H141168   5.629   0.398   2.429  0.8221  0.5383  1.7443
13743TIP3    H241169   5.557   0.342   2.550 -0.5270 -0.6281  0.4263
13744TIP3   OH241170   4.344   7.200   0.104  0.2325  0.4178  0.4184
13744TIP3    H141171   4.347   7.108   0.080 -0.0242 -0.1881  2.5300
13744TIP3    H241172   4.430   7.218   0.142  0.2357  1.0136  0.1358
13745TIP3   OH241173   7.134   3.054   6.655 -0.5637  0.2502  0.1438
13745TIP3    H141174   7.120   3.025   6.565  0.3141  0.8844 -0.2084
13745TIP3    H241175   7.192   2.987   6.692 -0.8165  0.0613  0.2028
13746TIP3   OH241176   3.942   5.420   1.211  0.1959  0.7406  0.4316
13746TIP3    H141177   3.865   5.400   1.158  0.1452 -2.5886  1.6538
13746TIP3    H241178   4.016   5.410   1.151 -0.0197 -0.6808  0.3936
13747TIP3   OH241179   6.918   7.784   0.912 -0.3688 -0.1944 -0.0982
13747TIP3    H141180   6.910   7.741   0.997  0.7931  0.8333  0.5552
13747TIP3    H241181   6.988   7.736   0.867  1.3480  1.3373  0.8684
13748TIP3   OH241182   2.305   0.369   1.650  0.5453  0.0435 -0.2352
13748TIP3    H141183   2.299   0.324   1.566 -0.9685  1.2723 -0.8138
13748TIP3    H241184   2.380   0.330   1.693 -0.0941 -2.2726 -1.1670
13749TIP3   OH241185   6.444   1.733   2.072  0.0445 -0.5097 -0.0564
13749TIP3    H141186   6.435   1.828   2.078 -0.7756 -0.6384  0.7271
13749TIP3    H241187   6.493   1.709   2.151  0.9236 -0.6584 -0.6357
13750TIP3   OH241188   2.464   0.737   0.171  0.2813  0.6837  0.2578
13750TIP3    H141189   2.548   0.757   0.212 -0.4195  1.3052  1.4146
13750TIP3    H241190   2.403   0.799   0.210 -0.9672 -0.5798  0.3429
13751TIP3   OH241191   6.268   0.133   0.207  0.1167 -0.2630 -0.2742
13751TIP3    H141192   6.216   0.115   0.129  0.3082 -0.0695 -0.4463
13751TIP3    H241193   6.312   0.216   0.189 -0.1988  0.0153  0.2283
13752TIP3   OH241194   5.158   0.287   2.383 -0.1656  0.0101 -0.1100
13752TIP3    H141195   5.176   0.286   2.477 -1.4429  1.2546  0.1542
13752TIP3    H241196   5.231   0.239   2.344  0.3016 -0.6252  1.5284
13753TIP3   OH241197   2.792   7.847   1.300 -0.3568 -0.0792  0.1582
13753TIP3    H141198   2.741   7.808   1.229 -1.0603 -0.7090  0.9929
13753TIP3    H241199   2.749   7.816   1.380  1.7278 -1.1882  0.8964
13754TIP3   OH241200   6.231   0.736   0.074 -0.1307 -0.1399 -0.5713
13754TIP3    H141201   6.302   0.698   0.125 -0.9810 -1.2569 -0.1805
13754TIP3    H241202   6.170   0.663   0.061 -0.9087  0.6477 -1.4142
13755TIP3   OH241203   7.935   4.637   5.903  0.2579 -0.0011 -0.5745
13755TIP3    H141204   7.886   4.686   5.836 -0.3993 -0.8196 -0.6967
13755TIP3    H241205   8.019   4.617   5.861  0.5990  1.1640 -0.4642
13756TIP3   OH241206   3.113   7.133   0.532  0.4407  0.1717 -0.8521
13756TIP3    H141207   3.042   7.172   0.481 -0.0869  0.0056 -0.2658
13756TIP3    H241208   3.150   7.206   0.582 -0.8078 -0.1268  0.5464
13757TIP3   OH241209   7.149   3.774   5.127  0.8154 -0.3305 -0.0004
13757TIP3    H141210   7.220   3.811   5.075 -1.0164  2.2324 -0.8279
13757TIP3    H241211   7.103   3.716   5.068  0.9548 -0.3206 -0.1184
13758TIP3   OH241212   4.893   0.958   0.641 -0.6316 -0.0092  0.0681
13758TIP3    H141213   4.933   0.977   0.725 -0.1010 -0.0460 -0.1748
13758TIP3    H241214   4.952   0.895   0.599 -1.1317 -0.3455 -0.1370
13759TIP3   OH241215   3.037   1.060   0.486  0.9772  0.3044  0.7290
13759TIP3    H141216   3.101   1.112   0.535  1.6854 -0.9915  1.2028
13759TIP3    H241217   3.060   1.074   0.394  2.6958 -1.0820  0.9298
13760TIP3   OH241218   2.132   3.231   1.686  0.1816 -0.1955  0.3272
13760TIP3    H141219   2.191   3.165   1.651  0.4540  0.1432  0.1447
13760TIP3    H241220   2.053   3.182   1.709  0.9753 -0.8535  1.7094
13761TIP3   OH241221   0.038   2.764   6.592  0.1453  0.1218 -0.1896
13761TIP3    H141222   0.093   2.784   6.668  1.7849 -2.5773 -0.6058
13761TIP3    H241223  -0.038   2.719   6.629  0.9099 -1.1309 -0.1061
13762TIP3   OH241224   2.273   0.401   0.883  0.2040 -0.8269  0.1343
13762TIP3    H141225   2.179   0.387   0.894 -0.1112 -0.6318 -2.1527
13762TIP3    H241226   2.306   0.317   0.851  0.3802 -0.1752 -1.4460
13763TIP3   OH241227   3.902   0.135   0.787 -0.0532  0.2090 -0.1009
13763TIP3    H141228   3.816   0.170   0.809  0.4858  1.1926  0.4509
13763TIP3    H241229   3.961   0.172   0.853  0.8207 -0.3188 -0.5765
13764TIP3   OH241230   2.871   7.449   1.866 -0.0317  0.6691 -0.9372
13764TIP3    H141231   2.963   7.466   1.888 -0.0327  0.0543 -0.4177
13764TIP3    H241232   2.839   7.531   1.829  0.8179  0.7882 -1.4285
13765TIP3   OH241233   5.073   0.163   0.808  0.0284  0.3889 -0.0905
13765TIP3    H141234   5.029   0.188   0.727  2.3795  1.9237 -0.9652
13765TIP3    H241235   5.026   0.086   0.839  0.5104 -1.6624 -4.1475
13766TIP3   OH241236   0.568   5.452   5.310  0.3137 -0.6222  0.2886
13766TIP3    H141237   0.526   5.371   5.282 -1.3886  0.1380  0.5718
13766TIP3    H241238   0.544   5.461   5.402  1.1501 -0.1880  0.4690
13767TIP3   OH241239   6.376   3.659   4.657  0.2838  1.2080  0.9774
13767TIP3    H141240   6.287   3.635   4.630  0.3723 -0.8396  2.4024
13767TIP3    H241241   6.376   3.755   4.655 -1.1290  1.2297 -1.6211
13768TIP3   OH241242   8.076   2.541   3.854  0.1497  0.5619 -0.1059
13768TIP3    H141243   8.082   2.454   3.812 -0.1407  0.2300  0.5379
13768TIP3    H241244   8.031   2.595   3.789 -0.6426 -0.0485 -0.0756
13769TIP3   OH241245   1.461   5.922   6.071 -0.2207  0.2496 -0.0363
13769TIP3    H141246   1.502   5.839   6.097 -0.1281 -0.5924 -2.7620
13769TIP3    H241247   1.403   5.943   6.144  1.0601 -1.2995  1.4857
13770TIP3   OH241248   0.427   3.351   5.789 -0.2830 -0.5074 -0.4738
13770TIP3    H141249   0.400   3.297   5.863  1.1278  0.4684  0.7646
13770TIP3    H241250   0.508   3.310   5.757 -0.7595 -0.7916 -1.3476
13771TIP3   OH241251   5.766   2.237   0.627  0.4416  0.0376  0.1903
13771TIP3    H141252   5.682   2.283   0.624  2.4835  3.9030 -0.2988
13771TIP3    H241253   5.766   2.182   0.549 -1.7871 -0.3143  0.4090
13772TIP3   OH241254   7.888   4.389   4.993 -0.4870  0.5669  0.4355
13772TIP3    H141255   7.861   4.354   5.079 -0.0796  1.1782  0.8116
13772TIP3    H241256   7.846   4.474   4.988  1.1975  1.4447  0.9373
13773TIP3   OH241257   7.634   5.807   4.989  0.0079 -0.6315  0.5133
13773TIP3    H141258   7.637   5.867   5.064  0.8931  1.3632 -1.0753
13773TIP3    H241259   7.691   5.735   5.014  2.4643  1.3063  0.7113
13774TIP3   OH241260   0.175   6.860   0.915 -0.3191 -0.3169  0.1015
13774TIP3    H141261   0.264   6.834   0.892 -0.5535 -1.5019  0.4929
13774TIP3    H241262   0.149   6.922   0.847  0.4770 -0.6564 -0.5164
13775TIP3   OH241263   2.193   7.220   0.245 -0.2274  0.0056 -0.3361
13775TIP3    H141264   2.227   7.216   0.334 -0.5170 -0.7710 -0.2583
13775TIP3    H241265   2.271   7.222   0.189 -0.0459 -1.4519 -0.1447
13776TIP3   OH241266   2.112   6.977   0.497  0.3139  0.0906 -0.1534
13776TIP3    H141267   2.070   7.011   0.576 -0.6252 -0.9339 -0.2036
13776TIP3    H241268   2.201   7.011   0.500 -0.1861  1.3420  0.5440
13777TIP3   OH241269   1.169   5.504   6.908  0.1965  0.8686 -0.3403
13777TIP3    H141270   1.100   5.568   6.892  0.7454  1.4618 -0.4017
13777TIP3    H241271   1.139   5.455   6.984  0.2991  1.9897  0.4419
13778TIP3   OH241272   1.709   3.781   3.121 -0.1961  0.2674  0.0549
13778TIP3    H141273   1.617   3.771   3.146  0.1367 -3.2188  0.1962
13778TIP3    H241274   1.707   3.784   3.025 -0.3104 -2.6752 -0.0795
13779TIP3   OH241275   7.611   5.337   6.383  0.5248 -0.6431 -0.0759
13779TIP3    H141276   7.634   5.418   6.429 -1.3072 -0.2715  0.2294
13779TIP3    H241277   7.695   5.300   6.356  1.4774  0.4840  1.2770
13780TIP3   OH241278   0.732   4.035   4.643  0.2295  0.7283 -0.2891
13780TIP3    H141279   0.766   4.124   4.633  2.5169 -0.1840 -0.7947
13780TIP3    H241280   0.809   3.978   4.637 -1.0281 -1.2165  1.4185
13781TIP3   OH241281   7.144   2.360   5.300 -0.3468 -0.1421 -0.3406
13781TIP3    H141282   7.088   2.325   5.369 -0.6657 -0.1413 -0.5967
13781TIP3    H241283   7.146   2.291   5.233  0.7504 -0.5506  0.0965
13782TIP3   OH241284   0.673   4.558   6.023  0.5320  0.3628  0.3065
13782TIP3    H141285   0.586   4.596   6.028  0.0651 -0.4915 -1.0395
13782TIP3    H241286   0.726   4.610   6.084 -0.1875  2.8480 -1.1634
13783TIP3   OH241287   6.903   5.875   6.169  0.4294  0.9538 -0.0246
13783TIP3    H141288   6.994   5.853   6.190  0.9227  2.6645 -0.2586
13783TIP3    H241289   6.856   5.865   6.252  0.4111 -1.8811 -0.3363
13784TIP3   OH241290   5.885   0.924   1.075  0.1202  0.1797 -0.0870
13784TIP3    H141291   5.898   0.984   1.002 -5.0594  0.1646 -1.2292
13784TIP3    H241292   5.857   0.842   1.035 -0.4015 -0.6172  1.8220
13785TIP3   OH241293   1.310   1.628   4.377 -0.0791 -0.4009  0.3630
13785TIP3    H141294   1.293   1.536   4.360  1.3865 -0.4399 -0.9872
13785TIP3    H241295   1.233   1.673   4.341 -0.3001 -1.0162  0.0543
13786TIP3   OH241296   0.393   2.694   5.423 -0.4134  0.5015  0.0326
13786TIP3    H141297   0.364   2.664   5.509 -0.0047 -1.9788 -0.6499
13786TIP3    H241298   0.337   2.769   5.403 -2.6525 -0.8482  1.0908
13787TIP3   OH241299   2.433   7.258   2.432 -0.1785  0.5550  0.0771
13787TIP3    H141300   2.424   7.163   2.425  1.9249  0.3284  0.1104
13787TIP3    H241301   2.361   7.285   2.489  0.8597 -1.4170  2.4458
13788TIP3   OH241302   1.521   3.512   5.223  0.2829  0.8699 -0.7685
13788TIP3    H141303   1.455   3.581   5.223 -0.8435 -0.1796 -0.0305
13788TIP3    H241304   1.555   3.510   5.134 -0.6530  1.4454 -1.1418
13789TIP3   OH241305   8.214   2.801   5.749 -0.1579 -0.0165  0.2071
13789TIP3    H141306   8.118   2.792   5.750 -0.3451  1.4687 -1.8436
13789TIP3    H241307   8.230   2.890   5.779  0.4978  0.2850 -1.0476
13790TIP3   OH241308   3.695   7.408   2.667  0.3581 -0.1226  0.0972
13790TIP3    H141309   3.728   7.319   2.680  0.8636  0.1479  0.6745
13790TIP3    H241310   3.606   7.396   2.633  1.4082 -0.8547 -2.4598
13791TIP3   OH241311   0.017   3.949   3.620 -0.2438  0.1229 -0.1303
13791TIP3    H141312   0.006   4.036   3.582 -0.2554  1.1355  2.0904
13791TIP3    H241313   0.016   3.889   3.545 -0.5140  2.0025 -1.6609
13792TIP3   OH241314   6.507   1.478   1.965 -0.2076 -0.1725  0.4091
13792TIP3    H141315   6.567   1.469   1.891  0.0436 -0.8103  0.6856
13792TIP3    H241316   6.505   1.572   1.983 -0.3680  0.0054 -0.4876
13793TIP3   OH241317   1.211   1.919   5.580 -0.3036  0.2463  0.5246
13793TIP3    H141318   1.274   1.987   5.600 -3.4896  2.2091  4.6662
13793TIP3    H241319   1.146   1.961   5.524  0.1310 -0.7727 -0.7873
13794TIP3   OH241320   0.508   3.413   5.351  0.0328 -0.6595  0.3104
13794TIP3    H141321   0.586   3.385   5.400 -0.5405 -0.8833  1.1122
13794TIP3    H241322   0.541   3.473   5.285  0.8631 -0.5965  0.7786
13795TIP3   OH241323   2.299   4.245   6.104 -0.8459 -0.2171 -0.1046
13795TIP3    H141324   2.375   4.300   6.086 -0.8208  0.0867  0.8990
13795TIP3    H241325   2.301   4.232   6.199 -1.7698 -0.6004 -0.1353
13796TIP3   OH241326   7.481   6.604   6.839 -0.2028  0.1423  0.0898
13796TIP3    H141327   7.517   6.645   6.760 -1.2218  0.1265 -0.4020
13796TIP3    H241328   7.516   6.656   6.911  1.8661 -0.6951 -0.2743
13797TIP3   OH241329   3.597   1.168   0.093  0.4879  1.0016  0.4921
13797TIP3    H141330   3.640   1.115   0.026 -0.6151 -1.0176  1.3212
13797TIP3    H241331   3.668   1.221   0.131  1.1655  1.9436 -2.0213
13798TIP3   OH241332   1.602   7.174   0.181 -0.5320  0.8304  0.0303
13798TIP3    H141333   1.614   7.177   0.276  0.2089  1.4927 -0.0730
13798TIP3    H241334   1.651   7.097   0.153  0.4140  1.4252  0.0312
13799TIP3   OH241335   5.928   1.230   3.560 -0.5786 -0.8154 -0.0330
13799TIP3    H141336   5.990   1.158   3.569 -0.2100 -0.4162  0.6947
13799TIP3    H241337   5.894   1.222   3.471  0.4716 -1.0839 -0.4172
13800TIP3   OH241338   7.764   5.134   5.501  0.0557 -0.9211  0.2540
13800TIP3    H141339   7.697   5.067   5.514 -0.8770  0.2934  2.0587
13800TIP3    H241340   7.792   5.124   5.410 -3.6367 -0.5065 -0.9931
13801TIP3   OH241341   4.814   7.033   6.554  0.5215 -1.0797  0.0515
13801TIP3    H141342   4.731   7.081   6.559  0.5030 -0.8370 -2.2451
13801TIP3    H241343   4.808   6.967   6.623 -1.0094 -0.1839  0.7895
13802TIP3   OH241344   1.367   4.575   3.673  0.1321 -0.3909  0.2637
13802TIP3    H141345   1.444   4.604   3.723  0.3695  1.4348 -1.1172
13802TIP3    H241346   1.293   4.615   3.719  0.1675 -0.4685  0.3901
13803TIP3   OH241347   6.843   4.218   4.802 -0.3389  0.0965  0.1402
13803TIP3    H141348   6.875   4.129   4.820  1.0004  0.9073  1.8511
13803TIP3    H241349   6.879   4.240   4.716 -0.7201 -1.0175 -0.3173
13804TIP3   OH241350   7.661   0.842   3.234 -0.2012 -0.6322 -0.0983
13804TIP3    H141351   7.629   0.786   3.163 -2.3038 -1.2966  1.3629
13804TIP3    H241352   7.661   0.787   3.311  2.4052  0.0014  0.4046
13805TIP3   OH241353   3.830   0.512   2.193  1.0750  0.5693  0.0228
13805TIP3    H141354   3.755   0.511   2.133  0.7028  1.9475  0.4588
13805TIP3    H241355   3.798   0.555   2.271  1.7202 -0.7464  1.0377
13806TIP3   OH241356   6.590   1.676   3.095  0.3220  0.0918 -0.0057
13806TIP3    H141357   6.554   1.762   3.118  1.3508  0.8635 -1.2597
13806TIP3    H241358   6.516   1.629   3.056 -0.5485 -0.0263  1.7327
13807TIP3   OH241359   8.463   1.987   0.691 -0.4829  0.2940  0.0927
13807TIP3    H141360   8.430   1.952   0.774  1.4045 -0.3509  0.5950
13807TIP3    H241361   8.537   1.931   0.669 -1.0380  0.3639 -2.1231
13808TIP3   OH241362   7.605   2.849   0.278  0.1569 -0.0319 -0.3354
13808TIP3    H141363   7.641   2.910   0.213 -1.0777  0.5145 -0.5129
13808TIP3    H241364   7.580   2.772   0.227  0.5880 -0.2115 -0.2818
13809TIP3   OH241365   7.641   2.075   0.445  0.1336  0.1066 -0.3022
13809TIP3    H141366   7.587   2.084   0.367  0.9722  1.8869 -0.7032
13809TIP3    H241367   7.652   1.980   0.456 -2.1243 -0.2446 -0.8217
13810TIP3   OH241368   1.546   6.345   5.449  0.2972 -0.3562  0.1620
13810TIP3    H141369   1.622   6.301   5.488  0.6647 -0.2959 -0.4953
13810TIP3    H241370   1.568   6.438   5.452 -0.1683 -0.2646  0.8708
13811TIP3   OH241371   2.883   1.277   1.380 -0.1392  0.2562  0.2151
13811TIP3    H141372   2.848   1.193   1.411 -1.3539  1.5501  2.4905
13811TIP3    H241373   2.805   1.328   1.356  0.5819  0.7963 -1.0383
13812TIP3   OH241374   3.126   7.481   1.934  0.1821 -0.1491 -0.0471
13812TIP3    H141375   3.189   7.497   2.004 -0.4684 -0.8645  0.7153
13812TIP3    H241376   3.179   7.442   1.864  0.9396  1.1362 -0.1911
13813TIP3   OH241377   6.634   0.506   0.921 -0.1970 -0.1913 -0.6699
13813TIP3    H141378   6.582   0.448   0.977  1.3522 -1.8854 -0.9377
13813TIP3    H241379   6.653   0.582   0.976  0.1718 -1.2335  0.6727
13814TIP3   OH241380   5.580   7.680   1.231 -0.2855  0.3577  0.4695
13814TIP3    H141381   5.541   7.629   1.159 -1.1143  2.0743 -0.3169
13814TIP3    H241382   5.567   7.625   1.308 -1.9685 -0.2422 -0.2074
13815TIP3   OH241383   0.428   1.564   2.775  0.1526  0.2010  0.1011
13815TIP3    H141384   0.498   1.615   2.817  0.0701  0.2291  0.2044
13815TIP3    H241385   0.370   1.539   2.847 -0.4253  0.9446 -0.1038
13816TIP3   OH241386   1.304   6.093   6.749  0.0155  0.4645 -0.6408
13816TIP3    H141387   1.221   6.068   6.708 -0.2287  1.2137 -0.6084
13816TIP3    H241388   1.306   6.188   6.742  0.5574  0.4977 -0.0244
13817TIP3   OH241389   6.606   7.229   3.397 -0.2967  0.0045  0.2426
13817TIP3    H141390   6.553   7.261   3.470 -0.6412 -1.6302  0.7059
13817TIP3    H241391   6.693   7.214   3.436  0.3504  1.9655 -0.3534
13818TIP3   OH241392   1.377   5.625   6.149 -0.3456  0.0207  0.3357
13818TIP3    H141393   1.358   5.614   6.056  1.7234  0.7433 -0.1915
13818TIP3    H241394   1.433   5.550   6.171 -0.4020  0.1365  0.8820
13819TIP3   OH241395   7.128   1.499   2.227  0.3304 -0.0208 -0.3455
13819TIP3    H141396   7.203   1.479   2.283 -0.2985  1.2680  0.9869
13819TIP3    H241397   7.072   1.421   2.232 -0.3975  0.6185  1.9615
13820TIP3   OH241398   4.326   7.706   0.292 -0.7098  0.0973 -0.5353
13820TIP3    H141399   4.273   7.639   0.249  0.2356 -0.5788 -0.6670
13820TIP3    H241400   4.275   7.731   0.369 -1.6923  0.1968 -1.2185
13821TIP3   OH241401   0.630   3.529   2.732  0.1497 -0.2276 -0.0555
13821TIP3    H141402   0.695   3.517   2.662 -0.2452 -0.8849 -0.3183
13821TIP3    H241403   0.593   3.616   2.715  2.3634  1.0244  1.2852
13822TIP3   OH241404   4.664   1.556   2.761 -0.1017 -0.2600  0.2341
13822TIP3    H141405   4.729   1.504   2.714 -0.8521  0.0937 -1.2407
13822TIP3    H241406   4.662   1.519   2.849  0.3684 -1.8118 -0.3947
13823TIP3   OH241407   5.511   0.396   3.844  0.4207  0.5959 -0.2867
13823TIP3    H141408   5.470   0.468   3.795  2.5514  1.4736 -0.8622
13823TIP3    H241409   5.581   0.365   3.786  1.7536  0.3758  1.3870
13824TIP3   OH241410   8.348   4.025   1.902  0.2201  0.1625 -0.5797
13824TIP3    H141411   8.394   3.985   1.828 -0.1614 -3.0267  0.8423
13824TIP3    H241412   8.265   4.056   1.865  0.6606 -0.0353 -1.7728
13825TIP3   OH241413   6.892   2.889   1.902 -0.2166 -0.1104  0.3745
13825TIP3    H141414   6.813   2.915   1.855  1.6724 -0.2953 -3.1104
13825TIP3    H241415   6.947   2.967   1.901  0.8387 -0.8426  0.0832
13826TIP3   OH241416   2.333   5.642   5.204  0.2697 -0.2061 -0.4963
13826TIP3    H141417   2.305   5.553   5.224  0.5716 -0.2292 -0.1621
13826TIP3    H241418   2.339   5.644   5.108 -1.0333 -0.1412 -0.5752
13827TIP3   OH241419   4.893   0.136   2.446  0.0470 -0.2629 -0.4043
13827TIP3    H141420   4.939   0.193   2.385 -0.6779  1.6045  0.7403
13827TIP3    H241421   4.803   0.169   2.447 -0.6378 -2.0454 -0.4381
13828TIP3   OH241422   8.113   1.337   2.440  0.2217  0.0960  0.1587
13828TIP3    H141423   8.127   1.431   2.429  0.5225 -0.2072 -2.2891
13828TIP3    H241424   8.021   1.328   2.463  0.0028  0.9420 -0.3842
13829TIP3   OH241425   5.680   7.566   4.319 -0.4429  0.0916 -0.2580
13829TIP3    H141426   5.710   7.550   4.409 -1.6117 -1.7884 -0.1598
13829TIP3    H241427   5.602   7.620   4.329 -0.3145  0.2594 -0.1640
13830TIP3   OH241428   4.286   0.958   3.796  0.3043 -0.5841  0.1953
13830TIP3    H141429   4.317   0.928   3.881  2.0541 -2.1223 -0.9617
13830TIP3    H241430   4.194   0.934   3.795  1.0172 -3.4956  0.3923
13831TIP3   OH241431   3.652   7.328   1.064 -0.6281 -0.1640 -0.5390
13831TIP3    H141432   3.567   7.347   1.025 -1.8291 -0.2193  1.9500
13831TIP3    H241433   3.707   7.302   0.990 -2.7887 -0.2425 -2.1710
13832TIP3   OH241434   0.634   1.095   5.113  0.0065  0.1323 -0.6183
13832TIP3    H141435   0.565   1.161   5.104  1.0353  1.7088  2.1794
13832TIP3    H241436   0.601   1.019   5.066 -2.6059  1.6298 -1.3072
13833TIP3   OH241437   0.140   3.332   6.880  0.0630 -0.4470  0.0943
13833TIP3    H141438   0.105   3.408   6.926 -1.0050 -1.5790  1.1980
13833TIP3    H241439   0.210   3.299   6.937 -0.2127 -0.9279  0.1606
13834TIP3   OH241440   7.455   4.866   1.565  0.0470  0.0080  0.0583
13834TIP3    H141441   7.433   4.811   1.490  0.8930  0.6197 -0.6440
13834TIP3    H241442   7.370   4.887   1.605 -0.6072  1.6409 -2.1099
13835TIP3   OH241443   6.227   0.593   2.044  0.2861  0.5225 -0.0104
13835TIP3    H141444   6.267   0.512   2.012  0.1821  0.1374  0.8193
13835TIP3    H241445   6.197   0.571   2.132 -0.4282  1.2417 -0.0731
13836TIP3   OH241446   0.311   1.555   0.041  0.0964  0.1315  0.2291
13836TIP3    H141447   0.333   1.560  -0.051  1.0693 -0.4836  0.4239
13836TIP3    H241448   0.235   1.496   0.045 -0.4803  0.8433 -0.2603
13837TIP3   OH241449   3.315   1.126   0.026 -0.0689 -0.3752 -0.1808
13837TIP3    H141450   3.318   1.031   0.013  0.1899 -0.3770 -0.0900
13837TIP3    H241451   3.406   1.154   0.027 -0.1310 -0.1904  0.3050
13838TIP3   OH241452   5.549   7.743   2.228  0.3211 -0.0826 -0.2328
13838TIP3    H141453   5.613   7.715   2.162 -0.7353 -0.0523 -1.2789
13838TIP3    H241454   5.496   7.666   2.246  0.7719 -0.1643  0.7997
13839TIP3   OH241455   1.032   4.166   1.679 -0.1137 -0.3559 -0.0612
13839TIP3    H141456   1.123   4.189   1.659 -1.4386  3.3232 -2.4139
13839TIP3    H241457   1.015   4.210   1.763 -0.2003  0.3417 -0.4416
13840TIP3   OH241458   7.504   2.981   2.321 -0.7509 -0.2111 -0.7064
13840TIP3    H141459   7.447   3.054   2.300 -0.9956 -0.5344 -1.1585
13840TIP3    H241460   7.545   2.956   2.238 -1.5214 -1.3108 -0.7700
13841TIP3   OH241461   6.207   1.246   0.375  0.0543 -0.3354 -0.1036
13841TIP3    H141462   6.247   1.182   0.315  0.6292  0.6463 -0.7738
13841TIP3    H241463   6.113   1.237   0.360  0.0459 -1.9457  0.7490
13842TIP3   OH241464   6.943   1.370   1.389  0.1111  0.1367  0.2810
13842TIP3    H141465   6.866   1.424   1.371  1.2138  0.9086 -2.3534
13842TIP3    H241466   7.018   1.427   1.371  1.3153 -0.9004  1.8437
13843TIP3   OH241467   1.377   1.678   0.250 -0.2286 -0.0860 -0.5607
13843TIP3    H141468   1.366   1.671   0.345  0.8189  0.0532 -0.4170
13843TIP3    H241469   1.391   1.588   0.221  1.6562  0.1001 -0.2768
13844TIP3   OH241470   3.751   1.888   0.578  0.0690 -0.7386  0.0041
13844TIP3    H141471   3.663   1.901   0.613 -0.3187  1.2471 -1.5967
13844TIP3    H241472   3.792   1.827   0.639 -2.7436 -2.5249  0.2189
13845TIP3   OH241473   4.183   3.859   6.054  0.2039 -0.2796 -0.6328
13845TIP3    H141474   4.264   3.864   6.003  0.3452 -0.4435 -0.4294
13845TIP3    H241475   4.115   3.840   5.989  0.3988 -0.6009 -0.7476
13846TIP3   OH241476   1.752   2.007   1.263  0.0740 -0.3668  0.0390
13846TIP3    H141477   1.824   2.036   1.207  0.9418 -0.2525  1.1705
13846TIP3    H241478   1.673   2.023   1.212  0.8140  0.0697 -0.9928
13847TIP3   OH241479   4.792   6.385   1.501 -0.6275  0.5043  0.3740
13847TIP3    H141480   4.805   6.373   1.595  1.0993 -0.8383 -0.0171
13847TIP3    H241481   4.865   6.440   1.473 -0.2002 -0.4790 -0.4660
13848TIP3   OH241482   2.167   1.330   0.977 -0.6302  0.0504 -0.1939
13848TIP3    H141483   2.099   1.287   0.925 -1.3126  1.1921 -0.2546
13848TIP3    H241484   2.197   1.403   0.923  0.7329 -0.5234 -0.2119
13849TIP3   OH241485   6.336   0.059   1.541  0.2984 -0.1442  0.0099
13849TIP3    H141486   6.267   0.044   1.476 -0.0284  0.8646  0.1219
13849TIP3    H241487   6.373   0.144   1.518  0.8872 -0.2593  0.5130
13850TIP3   OH241488   2.693   3.921   1.999  0.0328  0.2629  0.6790
13850TIP3    H141489   2.771   3.867   1.992 -0.4760 -0.4984  0.7674
13850TIP3    H241490   2.620   3.860   1.984 -0.4712  1.3384 -1.4774
13851TIP3   OH241491   3.181   5.201   6.320  0.0037  0.4685  0.2044
13851TIP3    H141492   3.137   5.185   6.404  1.6987  0.9183  1.2037
13851TIP3    H241493   3.211   5.115   6.292 -0.7696  0.2840 -0.0458
13852TIP3   OH241494   1.760   2.193   3.194 -0.1585  0.1458  0.1167
13852TIP3    H141495   1.694   2.147   3.143  0.4619  1.0457 -1.5793
13852TIP3    H241496   1.714   2.224   3.271 -1.5577  0.1648 -0.7010
13853TIP3   OH241497   0.039   2.268   1.043 -0.1732 -0.1576 -0.2329
13853TIP3    H141498  -0.003   2.183   1.056 -1.9016  0.9629  1.7318
13853TIP3    H241499   0.126   2.258   1.084 -0.3851 -0.9610  0.0268
13854TIP3   OH241500   0.475   1.102   1.987  0.1289  0.6994  0.2632
13854TIP3    H141501   0.434   1.020   2.013 -1.5762  1.3114 -0.3825
13854TIP3    H241502   0.467   1.159   2.063 -1.2018  1.1546 -0.1925
13855TIP3   OH241503   1.810   1.131   1.068  0.0272  0.3848 -0.1785
13855TIP3    H141504   1.802   1.180   1.150 -0.6042  0.1938 -0.1288
13855TIP3    H241505   1.764   1.049   1.084 -0.1322  0.3629 -0.7409
13856TIP3   OH241506   8.357   1.681   0.351  0.3165 -0.5218 -0.3030
13856TIP3    H141507   8.347   1.587   0.332 -1.5002 -0.3221 -0.3679
13856TIP3    H241508   8.356   1.686   0.447 -0.0639 -0.5146 -0.3080
13857TIP3   OH241509   3.874   6.722   6.170  0.2514  0.2190 -0.2495
13857TIP3    H141510   3.805   6.788   6.155  1.2534  1.5924  0.9858
13857TIP3    H241511   3.838   6.641   6.133 -2.7373  0.5216  1.8151
13858TIP3   OH241512   2.175   1.078   0.480  0.5888  0.5361  0.3303
13858TIP3    H141513   2.264   1.048   0.500 -0.0066 -1.9958 -0.5799
13858TIP3    H241514   2.179   1.173   0.490  2.9981  0.3304  1.8087
13859TIP3   OH241515   7.918   1.715   2.268 -0.1705  0.4424  0.2430
13859TIP3    H141516   7.905   1.804   2.299  1.9101  0.9330 -0.2068
13859TIP3    H241517   7.855   1.704   2.197 -0.6670  1.4190  0.5317
13860TIP3   OH241518   1.077   0.535   1.850 -0.1763 -0.9349  0.6490
13860TIP3    H141519   1.031   0.616   1.830  0.1679 -0.7119  0.7569
13860TIP3    H241520   1.060   0.519   1.942  0.0166 -0.8165  0.7057
13861TIP3   OH241521   0.724   0.141   1.689  0.0177 -0.3572 -0.4307
13861TIP3    H141522   0.714   0.141   1.784  1.0570 -1.6954 -0.3062
13861TIP3    H241523   0.673   0.217   1.659 -2.8915 -1.7197  0.9048
13862TIP3   OH241524   1.087   1.845   1.398 -0.0713 -0.5295  0.2546
13862TIP3    H141525   1.147   1.797   1.455  2.6598 -0.2929 -2.2766
13862TIP3    H241526   1.078   1.931   1.440  2.2103 -0.2149  0.1836
13863TIP3   OH241527   2.944   2.671   0.712  0.3203  0.4618  0.0221
13863TIP3    H141528   2.979   2.702   0.629  1.6986 -0.4241  0.2607
13863TIP3    H241529   2.855   2.643   0.692 -0.5851  3.4744 -0.4257
13864TIP3   OH241530   8.186   3.593   3.147  0.5947 -0.1648 -0.7257
13864TIP3    H141531   8.113   3.606   3.086  1.0482 -1.8006 -1.6346
13864TIP3    H241532   8.211   3.682   3.173 -0.3037  0.5027 -2.0902
13865TIP3   OH241533   3.829   2.602   6.927 -0.3375  0.9360  0.6153
13865TIP3    H141534   3.884   2.619   6.850 -0.5352  1.0925  0.5083
13865TIP3    H241535   3.766   2.537   6.897 -0.1205  0.6469  0.7805
13866TIP3   OH241536   7.996   0.129   1.800 -0.1004 -0.2384  0.0405
13866TIP3    H141537   8.068   0.184   1.769 -0.0393  0.6817  1.7558
13866TIP3    H241538   7.918   0.183   1.786 -0.2138 -0.3583  0.2148
13867TIP3   OH241539   3.436   5.365   5.033 -0.1714  0.9492 -0.3736
13867TIP3    H141540   3.428   5.338   5.124 -1.2196  0.8772 -0.4819
13867TIP3    H241541   3.517   5.324   5.002 -0.0506  0.6165  0.3914
13868TIP3   OH241542   4.500   5.527   6.154 -0.2763 -0.0131  0.3754
13868TIP3    H141543   4.458   5.613   6.160  1.1788  0.8609 -1.3878
13868TIP3    H241544   4.442   5.476   6.098  0.0095  0.5682 -0.4628
13869TIP3   OH241545   5.402   7.917   2.375  0.6775 -0.3095  0.0111
13869TIP3    H141546   5.451   7.853   2.324  0.3632 -0.1817 -0.4526
13869TIP3    H241547   5.455   7.930   2.454  1.4929 -0.0287 -0.5723
13870TIP3   OH241548   4.511   6.120   6.843  0.4895 -0.2434  0.7039
13870TIP3    H141549   4.506   6.047   6.782  1.8685  0.3311 -0.1219
13870TIP3    H241550   4.543   6.081   6.924 -0.7534 -0.8979  0.8959
13871TIP3   OH241551   8.078   1.856   1.476 -0.4876 -0.2954  0.2177
13871TIP3    H141552   8.132   1.928   1.442  0.3269  0.4970  3.0578
13871TIP3    H241553   8.130   1.777   1.460  0.5644  0.2321  1.0046
13872TIP3   OH241554   1.059   3.664   1.135  0.5198  0.1432  0.1398
13872TIP3    H141555   1.008   3.723   1.080  0.7050 -0.8883 -1.1475
13872TIP3    H241556   0.998   3.593   1.157  1.5940 -1.5630 -2.1445
13873TIP3   OH241557   0.256   2.001   0.843  0.0052  0.0639  0.2417
13873TIP3    H141558   0.189   1.934   0.828 -1.2412  1.6236 -1.3372
13873TIP3    H241559   0.311   1.997   0.765  1.1388 -0.4838  1.0616
13874TIP3   OH241560   8.368   0.808   0.621  0.3479 -0.3098  0.1492
13874TIP3    H141561   8.406   0.723   0.646 -0.8208 -1.3226 -1.4054
13874TIP3    H241562   8.353   0.800   0.527 -1.0438  1.1413  0.2406
13875TIP3   OH241563   3.196   2.733   0.789  0.5989  0.1275 -0.5126
13875TIP3    H141564   3.192   2.828   0.779  1.9788  0.4804  1.8688
13875TIP3    H241565   3.105   2.704   0.782 -0.0708  1.8575  0.6833
13876TIP3   OH241566   3.775   5.144   6.572 -0.0612 -0.4292 -0.0886
13876TIP3    H141567   3.712   5.091   6.621  0.8357  0.3731  1.9718
13876TIP3    H241568   3.755   5.125   6.480 -0.5461 -3.4107  0.5812
13877TIP3   OH241569   0.267   0.974   1.675 -0.5290  0.1307  0.6169
13877TIP3    H141570   0.345   0.925   1.702  0.7205  2.4730  1.3974
13877TIP3    H241571   0.285   0.998   1.584  0.3816  1.9785  1.2618
13878TIP3   OH241572   0.498   1.563   1.650  0.1927 -0.2155  0.0917
13878TIP3    H141573   0.573   1.607   1.690  0.8710 -0.1701 -1.2184
13878TIP3    H241574   0.487   1.483   1.701  1.0988 -0.2025  0.3062
13879TIP3   OH241575   0.946   1.381   1.119  0.0786  0.0859  0.3891
13879TIP3    H141576   0.922   1.317   1.186 -0.8884  2.8418  2.7715
13879TIP3    H241577   1.027   1.420   1.151  0.4472  0.3181 -0.8303
13880TIP3   OH241578   6.507   7.860   0.297  0.2965  0.8185  0.7802
13880TIP3    H141579   6.499   7.804   0.374 -2.5967  1.0531  0.6681
13880TIP3    H241580   6.546   7.802   0.231  0.4235 -0.1139  1.6494
13881TIP3   OH241581   2.692   5.953   6.856  0.1154  0.4492 -0.1996
13881TIP3    H141582   2.763   5.948   6.792 -0.1933  2.5670 -0.7311
13881TIP3    H241583   2.734   5.929   6.939  0.8054 -1.0462 -0.9474
13882TIP3   OH241584   6.775   1.574   1.333 -0.2481 -0.4891 -0.0762
13882TIP3    H141585   6.832   1.633   1.384  0.2390  0.1741 -1.3537
13882TIP3    H241586   6.693   1.571   1.382 -0.0200  0.6877  0.3923
13883TIP3   OH241587   7.652   0.808   1.176 -0.2007 -1.2760 -0.1858
13883TIP3    H141588   7.736   0.806   1.131  0.2298  0.3991  0.4923
13883TIP3    H241589   7.595   0.751   1.125  1.2441 -2.1186 -0.8604
13884TIP3   OH241590   8.276   0.388   2.331  0.3319 -0.7094 -0.2182
13884TIP3    H141591   8.224   0.309   2.346  0.1538 -0.6145 -0.3196
13884TIP3    H241592   8.298   0.385   2.238  0.5637 -0.7822 -0.1600
13885TIP3   OH241593   7.727   1.403   1.138 -0.3546  0.1626 -1.0707
13885TIP3    H141594   7.638   1.402   1.172 -0.1581 -0.9413 -0.5628
13885TIP3    H241595   7.728   1.475   1.074 -1.3225  0.8300 -0.3442
13886TIP3   OH241596   4.686   6.644   1.239  0.0417 -0.3408 -0.6772
13886TIP3    H141597   4.643   6.710   1.293  2.5369 -1.1812  2.5526
13886TIP3    H241598   4.615   6.587   1.208 -1.8652  2.4259 -1.5241
13887TIP3   OH241599   1.283   1.136   1.288  0.0550  0.0563 -0.4628
13887TIP3    H141600   1.338   1.066   1.251  0.2571 -0.2857  0.4699
13887TIP3    H241601   1.257   1.188   1.212  2.3262  0.7013 -0.8395
13888TIP3   OH241602   0.373   1.481   2.521  0.0523  0.5693 -0.2522
13888TIP3    H141603   0.438   1.517   2.460  1.0378 -0.5224  0.1255
13888TIP3    H241604   0.402   1.512   2.607 -0.9191  1.5040 -0.2560
13889TIP3   OH241605   1.859   2.431   2.002  0.3133 -0.2538 -0.4635
13889TIP3    H141606   1.858   2.473   2.088 -0.2971 -0.4451 -0.3728
13889TIP3    H241607   1.887   2.500   1.941  0.6589 -0.0962 -0.1254
13890TIP3   OH241608   0.124   2.562   2.106  0.1652  0.3883 -0.2540
13890TIP3    H141609   0.166   2.617   2.173 -0.4093  0.6881 -0.1375
13890TIP3    H241610   0.031   2.576   2.119 -0.1027 -2.6005  1.4591
13891TIP3   OH241611   8.272   1.002   1.462 -0.0375 -0.1643  0.2309
13891TIP3    H141612   8.330   0.927   1.475  0.5881  0.0299 -1.2719
13891TIP3    H241613   8.255   1.036   1.550  0.9088 -1.1465  0.7995
13892TIP3   OH241614   8.008   0.362   1.141 -0.2180 -0.0076  0.6288
13892TIP3    H141615   8.071   0.345   1.071  0.2329  0.8668  0.8188
13892TIP3    H241616   7.984   0.454   1.130 -1.5009 -0.3454  0.5331
13893TIP3   OH241617   7.726   7.357   2.599 -0.6742  0.1566  0.4094
13893TIP3    H141618   7.633   7.357   2.576 -0.3557  0.3515 -0.9427
13893TIP3    H241619   7.753   7.448   2.588 -0.1069 -0.0801 -0.1629
13894TIP3   OH241620   5.782   6.549   3.409  0.2244  0.3861  0.0703
13894TIP3    H141621   5.819   6.464   3.387  1.4216  0.7701  0.5797
13894TIP3    H241622   5.857   6.608   3.417 -0.5300  1.3226  0.4704
13895TIP3   OH241623   1.938   1.423   0.558  0.2973 -0.4627 -0.0369
13895TIP3    H141624   1.968   1.514   0.557 -1.1667  0.0362  0.5131
13895TIP3    H241625   1.879   1.417   0.633  0.6633 -1.9686  0.1570
13896TIP3   OH241626   8.480   1.414   1.370 -0.2238  0.4395 -0.1777
13896TIP3    H141627   8.439   1.378   1.449  0.4130 -2.3889 -1.0741
13896TIP3    H241628   8.436   1.371   1.297  0.1546  1.9716 -1.3431
13897TIP3   OH241629   8.351   0.826   0.157 -0.6631  0.1168 -0.2267
13897TIP3    H141630   8.433   0.781   0.179  0.1539  1.8405  0.3653
13897TIP3    H241631   8.374   0.880   0.081 -1.9860 -1.4476 -1.8001
13898TIP3   OH241632   5.102   7.891   1.693  0.4736 -0.3582  0.0368
13898TIP3    H141633   5.106   7.837   1.772 -2.2453  0.3053  0.6861
13898TIP3    H241634   5.107   7.981   1.725  1.7478 -0.1166 -0.7776
13899TIP3   OH241635   3.419   1.279   0.288  0.3463 -0.1105 -0.1789
13899TIP3    H141636   3.482   1.223   0.242  0.4303  0.8653 -1.2641
13899TIP3    H241637   3.420   1.361   0.240  1.4735  1.4365  2.3552
13900TIP3   OH241638   1.115   1.481   0.677  0.0540 -0.7860 -0.2344
13900TIP3    H141639   1.180   1.470   0.747  1.4406 -0.1117 -1.3878
13900TIP3    H241640   1.053   1.545   0.712  0.7083 -0.4820  0.3962
13901TIP3   OH241641   0.533   0.707   0.649 -0.2085  0.2253  0.3463
13901TIP3    H141642   0.484   0.729   0.570  1.1402 -0.0948 -0.5924
13901TIP3    H241643   0.473   0.652   0.700 -1.3627  1.0629 -0.0920
13902TIP3   OH241644   0.614   2.498   0.375  0.7338  0.2330 -0.1957
13902TIP3    H141645   0.635   2.589   0.354 -1.3072  0.6362 -0.6029
13902TIP3    H241646   0.557   2.469   0.304 -1.5409 -0.2020  1.7142
13903TIP3   OH241647   1.484   1.061   2.077 -0.1470  0.0478 -0.2086
13903TIP3    H141648   1.476   1.009   1.996 -0.3011  1.3700 -1.0577
13903TIP3    H241649   1.509   1.148   2.047  1.7033  0.0779  1.3200
13904TIP3   OH241650   7.177   0.999   0.041  0.0033  0.2148  0.1615
13904TIP3    H141651   7.105   0.968  -0.015 -0.3128  2.0008 -0.4736
13904TIP3    H241652   7.135   1.020   0.124  0.0821 -0.3636  0.3443
13905TIP3   OH241653   5.432   6.916   0.782 -0.1944  0.0493  0.7632
13905TIP3    H141654   5.383   6.838   0.756 -0.1927 -0.1283  1.2912
13905TIP3    H241655   5.518   6.905   0.742  1.4704 -2.5983  4.7809
13906TIP3   OH241656   7.994   0.699   0.761 -0.3820  0.3317  0.0049
13906TIP3    H141657   7.965   0.678   0.672 -0.1899 -0.7834  0.1985
13906TIP3    H241658   7.938   0.644   0.817 -0.2035  0.7058  0.5497
13907TIP3   OH241659   0.567   2.403   0.707  0.3827  0.8164 -0.1255
13907TIP3    H141660   0.648   2.452   0.692  0.3683  1.2188  1.0645
13907TIP3    H241661   0.498   2.464   0.682  0.3327  1.7500  2.2199
13908TIP3   OH241662   6.768   0.123   2.013  0.0887 -0.1441 -0.1346
13908TIP3    H141663   6.713   0.189   1.972 -0.2045 -0.1517  0.2425
13908TIP3    H241664   6.834   0.102   1.947 -0.1485  0.1223 -0.4576
13909TIP3   OH241665   8.000   1.310   2.866 -0.2264  0.4104  0.0104
13909TIP3    H141666   8.079   1.258   2.848  0.4324  0.6507  1.9783
13909TIP3    H241667   7.951   1.309   2.784  1.1561 -0.9176 -0.8406
13910TIP3   OH241668   0.870   2.252   0.689  0.4175  0.7212 -1.1165
13910TIP3    H141669   0.956   2.293   0.695  1.2047 -1.0402  0.2852
13910TIP3    H241670   0.840   2.247   0.780 -0.1851 -0.6646 -1.3793
13911TIP3   OH241671   2.947   4.700   6.245  0.3007  0.3074 -0.0139
13911TIP3    H141672   2.895   4.683   6.166 -1.7843  1.0406  1.1656
13911TIP3    H241673   3.001   4.622   6.255  0.7421  0.2904 -2.2788
13912TIP3   OH241674   6.704   0.748   0.289  0.4995 -0.4894  0.0054
13912TIP3    H141675   6.684   0.655   0.305  0.4559 -0.4446  0.2100
13912TIP3    H241676   6.656   0.795   0.357 -1.3313 -0.1427 -1.4942
13913TIP3   OH241677   1.902   5.595   6.784 -0.4255  0.2553 -0.0114
13913TIP3    H141678   1.883   5.507   6.751 -1.3176  0.2850  0.4060
13913TIP3    H241679   1.976   5.625   6.732  0.0666 -0.8604  0.0443
13914TIP3   OH241680   8.105   1.131   0.028 -0.2773  0.6120 -0.1874
13914TIP3    H141681   8.139   1.203   0.081 -1.3896  3.2241 -2.9045
13914TIP3    H241682   8.144   1.143  -0.058 -1.7448 -1.0875 -1.1266
13915TIP3   OH241683   7.097   7.705   0.739  0.2474 -0.4862  0.3700
13915TIP3    H141684   7.133   7.701   0.650  0.8421 -0.4106  0.6062
13915TIP3    H241685   7.128   7.626   0.781  0.9670  0.0682  0.8886
13916TIP3   OH241686   0.697   7.822   1.171 -0.0576 -0.4515 -0.0065
13916TIP3    H141687   0.719   7.730   1.160 -1.6096 -0.7755 -0.5226
13916TIP3    H241688   0.750   7.867   1.104 -0.4330 -1.1371 -0.7797
13917TIP3   OH241689   7.526   0.662   0.983 -0.2531 -0.5163 -0.2723
13917TIP3    H141690   7.436   0.631   0.990  0.0855 -1.2240  1.3247
13917TIP3    H241691   7.562   0.615   0.908 -0.7750 -1.3918  0.0198
13918TIP3   OH241692   8.261   0.920   2.414 -0.0532  0.4837  0.2517
13918TIP3    H141693   8.280   1.010   2.389 -0.1374  0.1030 -1.2923
13918TIP3    H241694   8.166   0.917   2.426 -0.5600 -0.1913 -3.3107
13919TIP3   OH241695   4.077   2.765   0.434 -0.0389 -0.4183 -0.2637
13919TIP3    H141696   4.098   2.726   0.349  2.5857  0.1416  0.0969
13919TIP3    H241697   4.124   2.711   0.498  2.3180  2.3028  0.3810
13920TIP3   OH241698   0.294   3.059   2.569  0.7152 -0.1034  0.6220
13920TIP3    H141699   0.236   3.135   2.560  1.3095  0.2723 -0.1081
13920TIP3    H241700   0.382   3.095   2.559  1.0399 -0.7885  0.9790
13921TIP3   OH241701   8.070   0.764   4.066  0.8687  0.5073 -0.0406
13921TIP3    H141702   8.163   0.768   4.042  1.0053  1.3921  0.5860
13921TIP3    H241703   8.033   0.845   4.032 -0.2014 -0.8886 -2.3191
13922TIP3   OH241704   1.563   1.216   1.410  0.0688  0.6960 -0.3590
13922TIP3    H141705   1.507   1.138   1.409  0.9348  0.0629 -0.5067
13922TIP3    H241706   1.531   1.269   1.337 -0.6510  0.5732 -0.1404
13923TIP3   OH241707   0.713   1.447   1.386 -0.2518 -0.1642 -0.4381
13923TIP3    H141708   0.630   1.458   1.339  0.5177 -0.2394 -1.8272
13923TIP3    H241709   0.759   1.529   1.373 -0.4741  0.2252  1.1098
13924TIP3   OH241710   5.948   0.918   0.155 -0.2909 -0.0528 -0.1327
13924TIP3    H141711   5.894   0.937   0.078 -0.3953  0.1440 -0.0096
13924TIP3    H241712   5.940   0.996   0.210  1.8451  0.9307 -1.1045
13925TIP3   OH241713   6.419   1.120   2.072 -0.0666 -0.6747 -0.7655
13925TIP3    H141714   6.429   1.129   2.167 -0.3823  1.8574 -0.9267
13925TIP3    H241715   6.401   1.027   2.059  1.1374 -1.2851  1.5404
13926TIP3   OH241716   5.184   7.711   1.076 -0.4400  0.6530  0.6217
13926TIP3    H141717   5.254   7.749   1.129  0.6214 -0.6197  0.1604
13926TIP3    H241718   5.202   7.617   1.076 -1.7118  0.3903 -0.1471
13927TIP3   OH241719   0.215   0.733   3.550  0.3001  0.2967 -0.7544
13927TIP3    H141720   0.250   0.678   3.479 -0.7445 -0.2137 -0.8870
13927TIP3    H241721   0.168   0.671   3.607 -0.9362  1.0492 -0.9325
13928TIP3   OH241722   0.417   0.835   2.069 -0.1217  0.0320 -0.3220
13928TIP3    H141723   0.447   0.749   2.041 -1.1990 -0.2302 -0.7114
13928TIP3    H241724   0.409   0.827   2.164  0.1055 -0.1907 -0.3209
13929TIP3   OH241725   6.808   1.856   2.020 -0.1969  0.0626  0.9916
13929TIP3    H141726   6.798   1.792   1.950 -0.0363 -0.7354  1.6826
13929TIP3    H241727   6.895   1.839   2.057  1.5481  3.3076 -1.3769
13930TIP3   OH241728   3.272   2.463   2.796 -0.3558  0.2913  0.8724
13930TIP3    H141729   3.295   2.372   2.814 -0.2868 -0.0714 -0.9290
13930TIP3    H241730   3.179   2.469   2.818 -0.5066 -0.3770  0.4260
13931TIP3   OH241731   7.665   7.918   0.688  0.2393  0.3312  0.4034
13931TIP3    H141732   7.670   8.005   0.649 -0.2419  0.0483 -0.2873
13931TIP3    H241733   7.573   7.908   0.714  0.3250  0.0873  0.6188
13932TIP3   OH241734   2.876   7.555   3.931  0.5175 -0.1320 -0.1234
13932TIP3    H141735   2.946   7.616   3.906  0.8118 -0.8008 -0.9696
13932TIP3    H241736   2.842   7.590   4.013  2.1851 -0.0896  0.5667
13933TIP3   OH241737   5.682   6.497   2.850  0.3901  0.3095 -0.4772
13933TIP3    H141738   5.657   6.540   2.769 -0.3856 -0.9289 -0.9177
13933TIP3    H241739   5.692   6.405   2.826  1.7540  0.1885  0.4917
13934TIP3   OH241740   1.434   5.196   6.494  0.5336  0.9530 -0.3428
13934TIP3    H141741   1.529   5.194   6.502  0.4391  0.4150  0.8250
13934TIP3    H241742   1.404   5.124   6.549 -0.5827  1.4503 -0.2793
13935TIP3   OH241743   3.081   7.935   1.863  0.3595  0.4060 -0.7251
13935TIP3    H141744   3.124   7.876   1.801 -0.5873  1.3111 -2.2830
13935TIP3    H241745   3.006   7.886   1.895 -0.8211  0.9594 -2.5384
13936TIP3   OH241746   4.273   7.591   1.069  0.1411 -0.1510 -0.2232
13936TIP3    H141747   4.284   7.653   1.141  0.5417 -0.0296 -0.3820
13936TIP3    H241748   4.303   7.640   0.992 -2.1661  0.4136 -0.7974
13937TIP3   OH241749   6.957   4.240   3.295  0.2162 -0.4703 -0.4043
13937TIP3    H141750   6.944   4.147   3.275 -0.2435 -0.3957 -0.4617
13937TIP3    H241751   6.976   4.243   3.389 -1.1531 -0.4892 -0.1266
13938TIP3   OH241752   3.991   7.315   6.392  0.2191  0.2126  0.0176
13938TIP3    H141753   3.990   7.345   6.483 -1.6841 -0.4328  0.2318
13938TIP3    H241754   3.945   7.384   6.344  0.5311  0.1756 -0.3353
13939TIP3   OH241755   4.014   2.468   2.708  0.0368  0.2000 -0.7217
13939TIP3    H141756   3.959   2.457   2.786  1.5245 -3.3936 -0.1045
13939TIP3    H241757   3.960   2.437   2.636  0.4375 -1.2587 -0.4089
13940TIP3   OH241758   3.619   4.804   5.389 -0.6158 -0.0629 -0.2192
13940TIP3    H141759   3.695   4.837   5.341 -0.6423  0.4728  0.1011
13940TIP3    H241760   3.544   4.829   5.336 -0.4969 -2.0400 -1.3852
13941TIP3   OH241761   4.613   4.509   6.148  0.2864 -0.0938 -0.2692
13941TIP3    H141762   4.672   4.494   6.222  1.2538 -0.2806 -1.0542
13941TIP3    H241763   4.630   4.600   6.122  0.5975 -0.3022 -0.8072
13942TIP3   OH241764   4.569   4.149   6.591  0.4982  0.1048  0.3074
13942TIP3    H141765   4.498   4.161   6.654 -0.0410  0.6188 -0.3997
13942TIP3    H241766   4.646   4.132   6.646  0.2078  1.4207  1.1528
13943TIP3   OH241767   1.581   2.090   3.020  0.2516 -0.2344  0.0904
13943TIP3    H141768   1.506   2.039   3.051  1.3165 -0.9980  1.4872
13943TIP3    H241769   1.604   2.051   2.935 -0.1769 -0.7837  0.2271
13944TIP3   OH241770   2.833   1.666   1.390  0.9959 -0.2838  0.4385
13944TIP3    H141771   2.865   1.618   1.466  0.3912  0.7882  1.3773
13944TIP3    H241772   2.748   1.627   1.370  0.1225  0.9429  1.7190
13945TIP3   OH241773   2.055   1.455   1.709 -0.2876 -0.1110 -0.0283
13945TIP3    H141774   1.982   1.438   1.769 -1.4348 -0.6263 -1.5206
13945TIP3    H241775   2.066   1.550   1.712 -1.4835  0.0453 -0.2950
13946TIP3   OH241776   2.538   0.224   1.718  0.1772  0.5325 -0.2678
13946TIP3    H141777   2.631   0.204   1.718  0.1244  0.2863 -0.5941
13946TIP3    H241778   2.509   0.206   1.807 -0.1130 -1.9999 -0.8257
13947TIP3   OH241779   6.700   7.656   0.566 -0.1558  0.2151 -0.0495
13947TIP3    H141780   6.686   7.581   0.508 -1.2669  0.8510 -0.6161
13947TIP3    H241781   6.684   7.620   0.654  0.6085 -0.5261 -0.2076
13948TIP3   OH241782   3.535   2.777   2.154  0.5165 -0.1102  0.1437
13948TIP3    H141783   3.569   2.720   2.085  2.4502 -1.1425  1.9020
13948TIP3    H241784   3.479   2.840   2.108  3.7138  0.7835 -2.7166
13949TIP3   OH241785   1.273   1.507   0.451  0.0059 -0.1050 -0.0178
13949TIP3    H141786   1.230   1.463   0.378 -0.7909  0.9424 -0.1929
13949TIP3    H241787   1.207   1.508   0.521  0.4402 -0.2850  0.3956
13950TIP3   OH241788   2.760   1.012   0.551 -0.3513 -0.4864  0.0804
13950TIP3    H141789   2.853   0.994   0.537 -0.0335 -0.1111  1.6114
13950TIP3    H241790   2.731   0.942   0.610 -1.4390 -1.5311 -1.6421
13951TIP3   OH241791   8.082   0.986   3.151 -0.4620  0.0083 -0.0033
13951TIP3    H141792   8.140   0.931   3.098  0.4588  0.3283  0.6733
13951TIP3    H241793   8.108   0.968   3.241  0.9397  2.7691  0.1745
13952TIP3   OH241794   0.861   2.117   0.233 -0.0052 -0.6985 -0.1304
13952TIP3    H141795   0.858   2.195   0.288 -1.4679 -0.6802 -0.2153
13952TIP3    H241796   0.829   2.147   0.148 -1.2267 -1.5411  0.0308
13953TIP3   OH241797   6.967   2.501   1.506  0.4815  0.7178  0.0354
13953TIP3    H141798   7.044   2.458   1.468  0.7027  0.3593  0.8721
13953TIP3    H241799   6.906   2.511   1.432  0.4929 -0.8819 -0.2226
13954TIP3   OH241800   1.111   2.445   0.684  0.2970  0.0533  0.4476
13954TIP3    H141801   1.138   2.519   0.631 -0.9764 -0.6167 -1.1920
13954TIP3    H241802   1.061   2.484   0.756 -1.0866  0.7607 -0.8654
13955TIP3   OH241803   0.516   1.763   0.036  0.1808  0.0699  0.0736
13955TIP3    H141804   0.559   1.844   0.063  0.7934 -0.4237  0.5758
13955TIP3    H241805   0.516   1.767  -0.059  0.8279  0.3388  0.0807
13956TIP3   OH241806   8.068   2.617   3.201  0.0136 -0.2939  0.1983
13956TIP3    H141807   8.074   2.607   3.296  1.6485  1.5945  0.3328
13956TIP3    H241808   8.158   2.631   3.172 -0.3349 -1.9036 -1.7771
13957TIP3   OH241809   0.270   2.845   2.927 -0.1635  0.2341  0.3110
13957TIP3    H141810   0.249   2.904   2.999  0.1701  1.3821 -0.5169
13957TIP3    H241811   0.186   2.809   2.899 -0.7368  2.5767 -1.0873
13958TIP3   OH241812   0.606   1.573   0.223 -0.4283  0.1276  0.4910
13958TIP3    H141813   0.676   1.638   0.232 -2.1315  1.7256  2.6067
13958TIP3    H241814   0.603   1.529   0.309 -2.9568  1.0977  0.9457
13959TIP3   OH241815   1.301   2.240   0.662  0.0094 -0.3288 -0.4185
13959TIP3    H141816   1.243   2.308   0.697 -0.8328 -1.1467 -0.1849
13959TIP3    H241817   1.285   2.242   0.567 -0.4671 -0.6055 -0.3462
13960TIP3   OH241818   5.498   6.723   2.746  0.6050  0.0813  0.3642
13960TIP3    H141819   5.403   6.723   2.735  0.5383  0.9648  0.8564
13960TIP3    H241820   5.532   6.725   2.657  0.1059  3.8336  0.1735
13961TIP3   OH241821   0.183   3.148   2.013  0.0224  0.4439 -0.3956
13961TIP3    H141822   0.213   3.235   2.039  0.0759  0.6743 -1.2311
13961TIP3    H241823   0.099   3.137   2.059  1.5993 -0.4342  2.4158
13962TIP3   OH241824   1.222   2.010   0.447 -0.1318 -0.2741 -0.0677
13962TIP3    H141825   1.141   1.961   0.436  0.3107 -0.8867 -0.6813
13962TIP3    H241826   1.196   2.102   0.444 -0.4852 -0.4208 -2.9735
13963TIP3   OH241827   4.379   1.161   1.379 -0.1854  0.0135  0.0664
13963TIP3    H141828   4.446   1.206   1.431 -1.1473  0.9369  0.5412
13963TIP3    H241829   4.332   1.106   1.443 -0.3116 -0.1081 -0.1315
13964TIP3   OH241830   4.560   3.889   1.342 -0.3404  0.3815  0.1140
13964TIP3    H141831   4.645   3.876   1.300 -1.0008 -3.0082 -0.3148
13964TIP3    H241832   4.579   3.943   1.418  1.9565  0.8898 -0.7713
13965TIP3   OH241833   1.804   1.381   0.861  0.1544 -0.0387 -0.3156
13965TIP3    H141834   1.782   1.419   0.946  2.9720 -1.5366  1.1489
13965TIP3    H241835   1.800   1.286   0.876  0.1446 -0.3131 -2.0190
13966TIP3   OH241836   5.632   6.877   0.572 -0.2631  0.5071 -0.2367
13966TIP3    H141837   5.655   6.959   0.529 -0.2061  1.2793  1.2332
13966TIP3    H241838   5.713   6.826   0.570 -0.2947  0.4844 -1.1424
13967TIP3   OH241839   0.399   0.084   1.616  0.4529  0.5047  0.1372
13967TIP3    H141840   0.377   0.137   1.540 -0.6977 -0.0506  0.0812
13967TIP3    H241841   0.487   0.051   1.598  0.4086  0.8449 -0.6929
13968TIP3   OH241842   2.107   0.508   2.260  0.1087 -0.0873  0.2966
13968TIP3    H141843   2.146   0.584   2.218 -0.8811  0.6789  0.7257
13968TIP3    H241844   2.016   0.508   2.230 -0.2160 -0.3872  1.2587
13969TIP3   OH241845   0.615   1.158   0.327 -0.0449 -0.1220  0.9229
13969TIP3    H141846   0.574   1.082   0.286  1.6326  0.0119 -1.1097
13969TIP3    H241847   0.635   1.130   0.416  1.5824 -2.5143 -0.1264
13970TIP3   OH241848   6.370   1.584   1.656 -0.3876  0.5190  0.0980
13970TIP3    H141849   6.365   1.669   1.700  0.0372  1.8339 -2.2987
13970TIP3    H241850   6.280   1.562   1.635 -0.6707 -0.5106  2.3195
13971TIP3   OH241851   0.638   0.448   0.985  0.2498 -0.2427  0.0673
13971TIP3    H141852   0.635   0.543   0.998  2.0954 -0.2081  0.3705
13971TIP3    H241853   0.667   0.437   0.895  1.8880 -0.5046  0.6074
13972TIP3   OH241854   3.165   5.601   6.141  0.1868 -0.1838  0.3653
13972TIP3    H141855   3.243   5.558   6.105  0.2285 -0.0509  0.2931
13972TIP3    H241856   3.099   5.593   6.072 -0.3422 -1.6338  1.0256
13973TIP3   OH241857   1.012   1.434   0.129  0.3197  0.3524 -0.1322
13973TIP3    H141858   1.025   1.342   0.109 -0.6815  0.2722 -0.4515
13973TIP3    H241859   1.061   1.480   0.061 -1.3547  0.0573 -1.5980
13974TIP3   OH241860   4.909   3.899   5.070  0.0267  0.8056  0.2275
13974TIP3    H141861   4.891   3.839   5.143  1.6347 -0.5902 -0.5017
13974TIP3    H241862   4.822   3.931   5.043 -0.9275 -1.8353  0.0833
13975TIP3   OH241863   6.795   1.260   0.131 -0.0716  0.5874  0.0468
13975TIP3    H141864   6.809   1.210   0.211 -1.1230  1.1137  0.5666
13975TIP3    H241865   6.820   1.200   0.060 -0.7859 -0.4774  0.6864
13976TIP3   OH241866   2.630   1.286   0.682 -0.1138  1.2882  0.5047
13976TIP3    H141867   2.723   1.286   0.704  0.2086 -0.7506 -0.7314
13976TIP3    H241868   2.627   1.255   0.592 -1.9392  2.1737  0.2407
13977TIP3   OH241869   7.972   6.133   6.070 -0.6219 -0.6910 -0.0380
13977TIP3    H141870   8.018   6.193   6.010  0.6576 -1.3486  0.2689
13977TIP3    H241871   7.888   6.176   6.086  0.6251  1.5460  0.9289
13978TIP3   OH241872   1.173   1.019   1.860 -0.5925 -0.6193 -0.0862
13978TIP3    H141873   1.267   1.004   1.848 -0.1999  1.1219  0.7693
13978TIP3    H241874   1.145   1.062   1.780 -0.6011 -0.8196 -0.1923
13979TIP3   OH241875   4.390   1.588   0.609  0.4321 -0.0086 -0.4460
13979TIP3    H141876   4.446   1.512   0.591  2.5911  1.7241 -1.2078
13979TIP3    H241877   4.351   1.610   0.525 -0.1959 -0.2553 -0.2235
13980TIP3   OH241878   2.221   2.461   1.912  0.0386 -0.5072 -0.0681
13980TIP3    H141879   2.244   2.540   1.863 -0.6460  1.1930  2.2793
13980TIP3    H241880   2.302   2.434   1.955  0.2773 -1.0961 -0.8875
13981TIP3   OH241881   0.453   7.957   1.651  0.1248 -0.4608 -0.5363
13981TIP3    H141882   0.522   7.978   1.714 -0.7174  1.3107 -0.1508
13981TIP3    H241883   0.450   7.862   1.649  1.5361 -0.5527  0.5825
13982TIP3   OH241884   3.184   5.543   6.650  0.3358  0.8795  0.6630
13982TIP3    H141885   3.174   5.448   6.641 -0.4985  0.8839  1.4292
13982TIP3    H241886   3.249   5.567   6.584 -0.2723 -0.0719 -0.2994
13983TIP3   OH241887   1.149   1.112   0.627 -0.2811 -0.3313  0.3081
13983TIP3    H141888   1.217   1.089   0.690  0.1273  1.4747  0.5557
13983TIP3    H241889   1.195   1.114   0.543  0.0412  1.0638  0.4990
13984TIP3   OH241890   3.990   6.358   5.308  0.0651 -0.0358  0.3833
13984TIP3    H141891   3.910   6.320   5.345  0.0968  0.1986  0.6903
13984TIP3    H241892   4.061   6.303   5.343 -0.0759 -1.2011 -1.1235
13985TIP3   OH241893   3.022   1.494   2.925  0.4325 -0.7706 -0.0065
13985TIP3    H141894   3.044   1.504   3.018  0.2852 -1.2903  0.0843
13985TIP3    H241895   3.077   1.422   2.895  0.7207 -0.3823 -0.4030
13986TIP3   OH241896   5.443   2.457   1.370  0.0167 -0.0077  0.1706
13986TIP3    H141897   5.495   2.534   1.347  0.8316 -0.7315 -0.4588
13986TIP3    H241898   5.353   2.482   1.353  0.1241  1.3412  1.4732
13987TIP3   OH241899   5.081   5.762   6.250  0.3246  0.0896 -0.2599
13987TIP3    H141900   5.149   5.794   6.310 -0.7750 -0.4538  1.2906
13987TIP3    H241901   5.042   5.687   6.295  0.5949 -1.3858 -2.3789
13988TIP3   OH241902   4.540   4.809   6.864  0.0481 -0.0707 -0.3801
13988TIP3    H141903   4.570   4.737   6.920  0.4326  1.4534  1.4180
13988TIP3    H241904   4.620   4.856   6.841 -0.4135  1.0174  0.2169
13989TIP3   OH241905   2.656   1.981   1.925  0.0807 -0.3449 -0.3428
13989TIP3    H141906   2.748   2.002   1.936 -0.3305  1.3280 -0.0499
13989TIP3    H241907   2.610   2.047   1.977 -1.3782  0.3027 -2.4068
13990TIP3   OH241908   2.926   1.384   1.116  0.1085  0.1907 -0.0533
13990TIP3    H141909   2.839   1.348   1.137 -0.0988  0.5976 -0.1968
13990TIP3    H241910   2.978   1.368   1.194 -0.2020  0.2764  0.1735
13991TIP3   OH241911   1.465   6.854   0.793  0.1657 -0.0884 -0.2566
13991TIP3    H141912   1.385   6.818   0.754  0.9557 -1.7066 -0.3915
13991TIP3    H241913   1.517   6.778   0.817  1.8604  0.9591 -0.5383
13992TIP3   OH241914   1.428   6.883   1.347 -0.3078 -0.3799 -0.2395
13992TIP3    H141915   1.360   6.822   1.320 -1.0991  1.2063 -1.8786
13992TIP3    H241916   1.385   6.941   1.410 -0.4442  0.5710 -1.2097
13993TIP3   OH241917   4.819   4.517   6.718 -0.7162  0.5906  0.1457
13993TIP3    H141918   4.841   4.609   6.733  0.3373  0.1019  1.8305
13993TIP3    H241919   4.880   4.488   6.651  1.2589  0.2896  1.9958
13994TIP3   OH241920   2.356   2.068   1.486 -0.3558 -0.7125  0.3385
13994TIP3    H141921   2.390   2.093   1.572 -0.5075 -0.0970  0.2172
13994TIP3    H241922   2.402   1.986   1.466  0.8179 -0.0584  0.3278
13995TIP3   OH241923   4.552   1.307   3.259  0.1851 -0.1679  0.0644
13995TIP3    H141924   4.605   1.352   3.325 -2.8129  1.9401  1.1463
13995TIP3    H241925   4.493   1.251   3.309 -0.5192 -0.3483 -0.9423
13996TIP3   OH241926   5.106   3.784   1.489  0.3848  0.2809 -0.2911
13996TIP3    H141927   5.117   3.698   1.448 -0.8324  0.4574 -1.0064
13996TIP3    H241928   5.108   3.845   1.416  2.1463  0.9537  0.2996
13997TIP3   OH241929   4.297   5.275   6.148  0.0431  0.0116 -0.2232
13997TIP3    H141930   4.296   5.278   6.243 -0.5682 -0.1557 -0.2206
13997TIP3    H241931   4.375   5.224   6.126 -0.1551 -0.4735  0.2056
13998TIP3   OH241932   1.047   1.146   0.108 -0.2115  0.1925  0.6099
13998TIP3    H141933   0.985   1.075   0.127  0.8281 -0.7974  0.3097
13998TIP3    H241934   1.094   1.117   0.031 -1.4675  2.3282 -1.0170
13999TIP3   OH241935   1.156   3.098   0.103 -0.1010 -0.2995 -0.2835
13999TIP3    H141936   1.176   3.074   0.012  0.0204 -1.3482  0.0173
13999TIP3    H241937   1.210   3.176   0.119  0.1608 -0.3276 -0.9895
14000TIP3   OH241938   8.324   7.597   0.863  0.4386  0.3718 -0.7307
14000TIP3    H141939   8.417   7.587   0.842  1.6843 -1.7887  4.7881
14000TIP3    H241940   8.286   7.513   0.838  0.9592 -0.4282  1.0623
14001TIP3   OH241941   0.389   7.711   0.703 -0.5799 -0.8773 -0.3536
14001TIP3    H141942   0.345   7.727   0.620  1.2756 -1.8918 -1.5800
14001TIP3    H241943   0.431   7.626   0.692  1.0441 -0.2869  1.0308
14002TIP3   OH241944   3.071   4.739   5.747 -0.2426  0.2651 -0.0488
14002TIP3    H141945   3.069   4.813   5.686 -1.6401 -0.1924 -0.5785
14002TIP3    H241946   2.988   4.693   5.732  0.1702 -0.8447  0.9752
14003TIP3   OH241947   8.364   5.412   6.466  0.3301 -0.0354 -0.3966
14003TIP3    H141948   8.375   5.480   6.400  0.4056  0.5197  0.1763
14003TIP3    H241949   8.278   5.429   6.504  0.4462 -0.1175 -0.0936
14004TIP3   OH241950   4.316   1.645   1.796 -0.6255 -0.6276  0.0619
14004TIP3    H141951   4.250   1.613   1.857 -0.4340  0.5431  0.8874
14004TIP3    H241952   4.355   1.722   1.839 -0.0279 -0.1864 -1.2243
14005TIP3   OH241953   3.526   3.361   2.909 -0.7107 -0.5983 -0.2346
14005TIP3    H141954   3.536   3.350   2.814 -0.8697  1.0280 -0.4510
14005TIP3    H241955   3.480   3.282   2.937  0.4700 -1.7013 -1.3096
14006TIP3   OH241956   0.777   2.398   0.090  0.4794  0.2124  0.3617
14006TIP3    H141957   0.703   2.338   0.090 -0.8322  1.7597  1.8338
14006TIP3    H241958   0.743   2.478   0.050  1.1357  1.1475  1.6044
14007TIP3   OH241959   3.869   1.698   1.062 -0.3983  0.3941  0.8404
14007TIP3    H141960   3.847   1.784   1.096  0.8566  1.0709 -0.0060
14007TIP3    H241961   3.912   1.653   1.134  3.4886  2.3078 -0.1683
14008TIP3   OH241962   5.763   3.553   1.877  0.6241 -0.2324  0.1619
14008TIP3    H141963   5.854   3.560   1.848  0.5052 -2.0606 -0.6679
14008TIP3    H241964   5.711   3.577   1.801  0.3907 -0.8126  0.1344
14009TIP3   OH241965   3.243   2.540   1.675  0.1106  1.1747 -0.0366
14009TIP3    H141966   3.238   2.509   1.766  1.3359  1.1495  0.0384
14009TIP3    H241967   3.164   2.592   1.663 -1.1179 -0.5543  0.3830
14010TIP3   OH241968   5.110   0.495   6.694 -0.1530  0.2288  0.1917
14010TIP3    H141969   5.124   0.521   6.785 -1.0536 -0.4632  0.5322
14010TIP3    H241970   5.028   0.447   6.695 -0.2137  0.2926 -1.0096
14011TIP3   OH241971   8.339   2.595   1.341 -0.5687 -0.5283  0.1012
14011TIP3    H141972   8.330   2.645   1.422  0.6399  1.7402 -1.1071
14011TIP3    H241973   8.432   2.569   1.339 -0.2975  0.4725 -1.1115
14012TIP3   OH241974   3.112   4.636   6.528  0.3691 -0.5818 -0.3996
14012TIP3    H141975   3.187   4.591   6.567 -0.4506 -2.1813 -0.6314
14012TIP3    H241976   3.103   4.596   6.441 -1.1608 -0.8941 -0.1123
14013TIP3   OH241977   1.039   7.583   3.055 -0.4049 -0.5960 -0.8922
14013TIP3    H141978   1.032   7.677   3.039 -1.0989 -0.4666  0.1670
14013TIP3    H241979   1.014   7.543   2.971  0.2271  0.1641 -1.4469
14014TIP3   OH241980   2.013   1.945   3.577 -0.1957 -0.1484  0.3477
14014TIP3    H141981   2.000   2.037   3.554  2.0089  0.3977  1.2321
14014TIP3    H241982   2.056   1.907   3.500  0.0544 -0.1354  0.4800
14015TIP3   OH241983   7.365   6.299   5.646  0.1141 -0.5713  1.0282
14015TIP3    H141984   7.289   6.241   5.637  0.9423 -1.7020  1.1943
14015TIP3    H241985   7.435   6.241   5.676  0.9085  0.5634  1.3720
14016TIP3   OH241986   1.840   0.915   1.910  0.3219  0.0848 -0.1141
14016TIP3    H141987   1.768   0.953   1.860  0.3887 -0.0594 -0.3208
14016TIP3    H241988   1.850   0.827   1.876 -0.2326 -0.3357  0.7931
14017TIP3   OH241989   4.094   1.656   0.626 -0.0781 -0.3424  0.0882
14017TIP3    H141990   4.085   1.569   0.588 -1.5643  0.4868 -1.5648
14017TIP3    H241991   4.158   1.700   0.570  0.4977 -0.2902  0.7805
14018TIP3   OH241992   4.898   3.830   6.699 -0.7367 -0.4503  0.1221
14018TIP3    H141993   4.840   3.883   6.754  0.7099  0.3939  0.8899
14018TIP3    H241994   4.881   3.859   6.610  1.3525  2.7207  0.6796
14019TIP3   OH241995   7.839   3.291   4.548 -0.0036 -0.8902  0.0999
14019TIP3    H141996   7.904   3.323   4.611 -0.8490 -0.1163  0.5824
14019TIP3    H241997   7.786   3.368   4.528 -0.1821 -1.3067 -1.0202
14020TIP3   OH241998   1.026   6.696   1.184 -0.2018 -0.2049  0.0069
14020TIP3    H141999   1.031   6.779   1.137 -1.2215 -0.8538 -1.2705
14020TIP3    H242000   1.092   6.641   1.141  0.0454 -0.2521  0.4486
14021TIP3   OH242001   3.639   1.223   1.098  0.0716 -0.7366 -0.4841
14021TIP3    H142002   3.626   1.298   1.040 -2.1954 -1.0751 -0.4811
14021TIP3    H242003   3.603   1.251   1.182 -0.3126 -1.6386 -0.3417
14022TIP3   OH242004   3.389   3.296   6.675 -0.1363 -0.0563 -0.3542
14022TIP3    H142005   3.420   3.278   6.586 -0.0753 -1.8720  0.0150
14022TIP3    H242006   3.314   3.355   6.663 -0.8845 -1.2502 -1.6945
14023TIP3   OH242007   7.700   0.066   1.346 -0.0359  0.6574 -0.0883
14023TIP3    H142008   7.617   0.088   1.304 -0.1070 -1.0239 -0.8606
14023TIP3    H242009   7.767   0.086   1.281  0.1450  1.5806  0.3695
14024TIP3   OH242010   4.185   1.386   0.144 -0.5290  0.5495 -0.4653
14024TIP3    H142011   4.168   1.479   0.155 -0.1116  0.6059 -0.2683
14024TIP3    H242012   4.197   1.354   0.234 -0.0239  0.4337 -0.5758
14025TIP3   OH242013   4.576   3.487   5.178 -0.2963  0.1107  0.0722
14025TIP3    H142014   4.620   3.444   5.252 -0.2992 -2.5036 -1.3725
14025TIP3    H242015   4.647   3.512   5.119 -0.3910  0.8250  0.2591
14026TIP3   OH242016   1.562   2.563   0.602  0.5125  0.1598 -0.4663
14026TIP3    H142017   1.606   2.635   0.647 -0.0866  0.3692 -0.2057
14026TIP3    H242018   1.590   2.485   0.648 -1.6967  0.5400  1.6088
14027TIP3   OH242019   1.231   2.490   0.413 -0.7813  0.3646  0.1280
14027TIP3    H142020   1.210   2.560   0.352 -0.8497 -0.4715 -0.8274
14027TIP3    H242021   1.324   2.502   0.434 -0.5189  0.0895 -0.8834
14028TIP3   OH242022   5.572   5.499   5.953  0.1819  0.2965 -0.0221
14028TIP3    H142023   5.656   5.544   5.937  0.7208 -0.6899  0.0308
14028TIP3    H242024   5.561   5.504   6.048  1.0987 -1.2029  0.1723
14029TIP3   OH242025   1.752   8.025   0.777 -0.2225 -0.6964  0.4687
14029TIP3    H142026   1.688   7.978   0.724 -0.7782  1.3703 -0.7901
14029TIP3    H242027   1.834   8.018   0.728 -0.5696  0.5773 -0.3424
14030TIP3   OH242028   1.497   2.410   0.049 -0.3640  0.1579  0.0773
14030TIP3    H142029   1.497   2.326   0.095 -1.0811 -0.4943 -1.0828
14030TIP3    H242030   1.416   2.410  -0.001  0.0560  1.1757 -0.6263
14031TIP3   OH242031   0.582   1.705   0.768 -0.1308  0.4890 -0.7083
14031TIP3    H142032   0.663   1.663   0.740 -0.4234 -1.2088  0.8451
14031TIP3    H242033   0.609   1.767   0.835 -0.0435  0.4401 -0.6981
14032TIP3   OH242034   1.384   1.977   1.649 -0.3088 -0.0830 -0.7341
14032TIP3    H142035   1.436   1.933   1.582  0.3277 -1.2940  0.5427
14032TIP3    H242036   1.448   2.020   1.706 -0.5681 -2.7855  1.6986
14033TIP3   OH242037   2.464   1.049   0.105  0.2136  0.6546 -0.3220
14033TIP3    H142038   2.492   0.997   0.180 -1.2351 -0.2477 -0.3837
14033TIP3    H242039   2.532   1.116   0.095  0.7390  0.3969  1.3954
14034TIP3   OH242040   7.346   0.429   0.891 -0.6532  0.6805 -0.0036
14034TIP3    H142041   7.373   0.364   0.956  2.4367  2.6705  0.8647
14034TIP3    H242042   7.406   0.415   0.817 -2.4037  0.1524 -1.3405
14035TIP3   OH242043   8.484   7.313   1.517 -0.0626 -0.9716 -0.2063
14035TIP3    H142044   8.419   7.279   1.456  0.2640 -0.0239 -1.0959
14035TIP3    H242045   8.485   7.408   1.501  0.6263 -0.8203  0.6792
14036TIP3   OH242046   1.176   2.927   1.122  0.8383  0.0038 -0.7396
14036TIP3    H142047   1.104   2.865   1.137  0.6191 -0.3280 -2.8628
14036TIP3    H242048   1.251   2.888   1.166  0.1151 -0.5458  0.0124
14037TIP3   OH242049   4.615   5.151   6.501 -0.2015  0.0913 -0.4061
14037TIP3    H142050   4.556   5.218   6.465 -0.1135  1.0253  1.1272
14037TIP3    H242051   4.629   5.178   6.592  0.4481 -1.6053  0.0203
14038TIP3   OH242052   1.874   0.672   1.779 -0.2004 -0.1676  0.5999
14038TIP3    H142053   1.918   0.587   1.772 -1.7874 -0.9229 -0.6074
14038TIP3    H242054   1.896   0.717   1.697  1.0515  0.8026  1.4564
14039TIP3   OH242055   1.671   2.625   1.515 -0.5580 -0.1821  0.5024
14039TIP3    H142056   1.680   2.638   1.420 -0.0570  0.0212  0.5757
14039TIP3    H242057   1.677   2.530   1.526  0.8099 -0.1067  0.4706
14040TIP3   OH242058   4.683   5.906   5.503 -0.2805  0.4530 -0.4175
14040TIP3    H142059   4.720   5.991   5.477 -1.9392  1.5090  0.5954
14040TIP3    H242060   4.633   5.925   5.582 -0.4445 -1.5441 -0.0260
14041TIP3   OH242061   3.267   1.999   1.842  0.2040  0.0201 -0.3329
14041TIP3    H142062   3.330   2.056   1.886 -0.6045  0.5419  0.1418
14041TIP3    H242063   3.313   1.970   1.763  0.4639  1.6852 -0.8206
14042TIP3   OH242064   7.464   4.608   5.318  0.1203 -0.1852 -0.5207
14042TIP3    H142065   7.457   4.525   5.366 -1.6224 -0.2827 -0.8759
14042TIP3    H242066   7.530   4.658   5.364  0.5342 -1.4273  0.2514
14043TIP3   OH242067   3.541   1.183   2.109  0.0165 -0.0627  0.1152
14043TIP3    H142068   3.469   1.121   2.093 -0.1040 -0.2841  1.4811
14043TIP3    H242069   3.612   1.128   2.141  0.9897  0.0840 -1.7515
14044TIP3   OH242070   0.584   0.327   0.530 -0.3061  0.0798  0.2691
14044TIP3    H142071   0.529   0.254   0.558 -0.6529 -0.2660 -1.3190
14044TIP3    H242072   0.528   0.380   0.473  0.6406  0.3548 -0.4170
14045TIP3   OH242073   4.116   6.450   6.820  0.3620  0.2997 -0.2862
14045TIP3    H142074   4.086   6.524   6.873  1.7676  1.1668 -0.6912
14045TIP3    H242075   4.035   6.413   6.783 -0.5494  0.2950  1.6080
14046TIP3   OH242076   7.154   6.320   0.644  0.0866  0.4550 -0.3611
14046TIP3    H142077   7.067   6.325   0.605 -0.2974  0.6592  0.5080
14046TIP3    H242078   7.213   6.306   0.570 -0.7782 -0.6124 -0.8497
14047TIP3   OH242079   2.631   1.492   1.314 -0.0525 -0.1236  0.6987
14047TIP3    H142080   2.563   1.428   1.332  1.5865 -1.9076  0.6807
14047TIP3    H242081   2.599   1.541   1.238 -0.7841 -1.7117 -0.0288
14048TIP3   OH242082   1.371   0.622   0.785 -0.2662  0.1155 -0.5426
14048TIP3    H142083   1.290   0.575   0.766 -0.3644 -0.4590  1.2686
14048TIP3    H242084   1.433   0.554   0.809  0.2153  0.7087 -0.0881
14049TIP3   OH242085   2.602   0.509   0.127  0.3556 -0.1362  0.4620
14049TIP3    H142086   2.546   0.585   0.142 -0.3426 -0.6640  0.5645
14049TIP3    H242087   2.615   0.470   0.213  2.0177  0.7665  0.6277
14050TIP3   OH242088   6.556   4.048   6.834 -0.5222 -0.1449 -0.0420
14050TIP3    H142089   6.606   4.124   6.864  0.2313 -0.3672 -0.7099
14050TIP3    H242090   6.619   3.977   6.834 -0.8456 -0.4374 -0.8558
14051TIP3   OH242091   0.491   0.780   1.422 -0.6960 -0.2467  0.3410
14051TIP3    H142092   0.578   0.820   1.428 -0.1088 -1.3381 -0.6863
14051TIP3    H242093   0.430   0.854   1.422  0.1358  0.4686  2.4520
14052TIP3   OH242094   5.210   5.172   6.452  0.5139 -0.4908 -0.5539
14052TIP3    H142095   5.163   5.237   6.400 -1.6346 -0.6363  1.1262
14052TIP3    H242096   5.258   5.120   6.388 -1.7770 -0.4546 -2.3740
14053TIP3   OH242097   3.819   4.018   5.298  0.3025 -0.0526 -0.2567
14053TIP3    H142098   3.840   4.109   5.275  1.5616  0.0008  1.0321
14053TIP3    H242099   3.730   4.022   5.333  0.3092  0.6788 -0.3053
14054TIP3   OH242100   2.597   2.430   1.022 -0.6151  0.3282 -0.1165
14054TIP3    H142101   2.576   2.350   1.070  0.6907  0.9597  1.5842
14054TIP3    H242102   2.661   2.402   0.956 -0.8218 -0.1843 -0.1043
14055TIP3   OH242103   4.841   1.820   0.660  0.3083 -0.2097  0.4909
14055TIP3    H142104   4.827   1.913   0.682  2.8249  0.2555  0.2498
14055TIP3    H242105   4.810   1.773   0.738  1.5944  1.0024  1.7765
14056TIP3   OH242106   2.121   1.970   1.550 -0.1985  0.2109  0.4495
14056TIP3    H142107   2.046   2.027   1.569  0.0158  1.5961 -2.5369
14056TIP3    H242108   2.195   2.031   1.538  0.4737 -0.8195 -0.7733
14057TIP3   OH242109   0.991   1.919   0.954  0.1975 -0.4984  0.2765
14057TIP3    H142110   1.066   1.862   0.965  0.4034 -0.4312 -0.6999
14057TIP3    H242111   0.974   1.956   1.041 -0.4468 -2.6667  1.0930
14058TIP3   OH242112   4.683   2.591   2.647 -0.3736  0.7349 -0.2975
14058TIP3    H142113   4.674   2.679   2.684  0.9752  0.6748  0.1910
14058TIP3    H242114   4.708   2.536   2.721  1.1505  0.3896 -1.0550
14059TIP3   OH242115   4.194   0.447   0.770 -0.1719  0.0991 -0.2312
14059TIP3    H142116   4.210   0.426   0.678 -0.0140  0.2302 -0.2346
14059TIP3    H242117   4.108   0.409   0.789  0.3664 -1.0726 -0.0724
14060TIP3   OH242118   2.347   2.428   0.241 -0.1168 -0.4105 -0.1023
14060TIP3    H142119   2.314   2.410   0.153 -1.1528  0.4462  0.1131
14060TIP3    H242120   2.273   2.413   0.299  0.4408 -0.5343  0.5924
14061TIP3   OH242121   2.206   2.004   0.860 -0.3470 -0.1686  0.7886
14061TIP3    H142122   2.193   2.075   0.923 -1.5885 -0.8580  1.3331
14061TIP3    H242123   2.285   1.960   0.889 -0.3156  0.1738  1.2371
14062TIP3   OH242124   3.763   0.617   2.437 -0.5600 -0.2170 -0.5091
14062TIP3    H142125   3.677   0.658   2.448 -0.9017 -0.7651 -1.0715
14062TIP3    H242126   3.826   0.688   2.451 -1.1144  0.2511 -0.3759
14063TIP3   OH242127   2.857   2.165   0.998 -0.1782 -0.1529  0.2193
14063TIP3    H142128   2.879   2.156   0.905 -0.7936  0.3904  0.0164
14063TIP3    H242129   2.908   2.240   1.027 -0.3055 -0.0682  0.2213
14064TIP3   OH242130   6.325   5.888   6.859  0.3793  0.9170 -0.4557
14064TIP3    H142131   6.239   5.889   6.815  0.7982  0.5833 -1.2953
14064TIP3    H242132   6.368   5.810   6.825  0.1902 -0.1115  1.6064
14065TIP3   OH242133   5.618   5.297   6.231  0.1840 -0.5038  0.3049
14065TIP3    H142134   5.545   5.257   6.183 -0.1971  0.7814 -0.2057
14065TIP3    H242135   5.697   5.262   6.189 -0.1463 -1.1335  0.2103
14066TIP3   OH242136   2.682   7.912   2.736  0.0919  0.3100  0.5087
14066TIP3    H142137   2.762   7.962   2.747  0.1146  0.1061  1.2548
14066TIP3    H242138   2.619   7.974   2.700  0.6806  0.3851 -0.4017
14067TIP3   OH242139   4.200   1.730   0.869  0.0502  0.2468 -0.3671
14067TIP3    H142140   4.174   1.684   0.949  2.1314  0.1444  0.2632
14067TIP3    H242141   4.162   1.679   0.798 -0.6168 -0.4547  0.4882
14068TIP3   OH242142   2.874   1.500   1.584 -0.1456 -0.1066  0.2332
14068TIP3    H142143   2.822   1.456   1.652 -0.1432  0.0278  0.3224
14068TIP3    H242144   2.915   1.429   1.535  0.8059 -0.1881  1.1159
14069TIP3   OH242145   0.947   0.995   0.473 -0.2660 -0.4059 -0.0073
14069TIP3    H142146   1.003   0.998   0.550 -0.3333 -0.9912  0.0690
14069TIP3    H242147   0.994   0.939   0.411  1.2525  2.4654 -1.5921
14070TIP3   OH242148   1.974   1.177   0.263 -0.3008 -0.1897 -0.2017
14070TIP3    H142149   2.031   1.153   0.336  0.6634  1.4059 -0.4222
14070TIP3    H242150   1.894   1.208   0.305  0.4328  1.1944  0.2157
14071TIP3   OH242151   4.550   5.245   5.796 -0.2402 -0.1452  0.0514
14071TIP3    H142152   4.470   5.282   5.759  0.5847  1.0389 -0.5793
14071TIP3    H242153   4.548   5.153   5.770  0.0376  0.5211 -2.4959
14072TIP3   OH242154   0.213   1.332   1.013 -0.4290  0.1943 -0.0284
14072TIP3    H142155   0.122   1.310   0.994 -0.4103 -0.0613  0.1830
14072TIP3    H242156   0.209   1.394   1.085 -0.5081  1.2807 -0.9491
14073TIP3   OH242157   6.627   4.558   5.367  0.4031 -0.1722 -0.0259
14073TIP3    H142158   6.660   4.611   5.294 -0.2292 -1.2020 -1.0686
14073TIP3    H242159   6.543   4.598   5.389  1.3490  1.1936  1.3004
14074TIP3   OH242160   5.081   7.399   5.864  0.1563  0.0084 -0.2331
14074TIP3    H142161   5.097   7.393   5.959 -0.5705  0.6984 -0.0618
14074TIP3    H242162   5.160   7.442   5.830 -0.2033  1.0900  0.2614
14075TIP3   OH242163   1.239   0.283   1.883  0.1919 -0.0640  0.2764
14075TIP3    H142164   1.168   0.220   1.868  0.0861  0.1260 -0.0244
14075TIP3    H242165   1.199   0.369   1.866  0.9415 -0.0577 -1.5906
14076TIP3   OH242166   6.539   5.432   6.361 -0.3974 -0.2978 -0.6916
14076TIP3    H142167   6.447   5.423   6.336 -0.5564  2.2667 -1.1377
14076TIP3    H242168   6.550   5.525   6.377  2.3859 -0.4229 -1.6916
14077TIP3   OH242169   4.137   1.511   1.057  0.2331 -0.0182 -0.4845
14077TIP3    H142170   4.088   1.507   1.139 -1.6303 -3.7748 -1.6386
14077TIP3    H242171   4.218   1.463   1.075 -0.1399 -0.7725 -0.7689
14078TIP3   OH242172   1.716   1.248   2.737 -0.0935 -0.9301  0.5033
14078TIP3    H142173   1.804   1.268   2.705 -0.5644  2.4453  1.1361
14078TIP3    H242174   1.683   1.180   2.677  1.9205 -0.3098 -1.3678
14079TIP3   OH242175   4.835   1.005   1.469 -0.1469 -0.4591 -0.4566
14079TIP3    H142176   4.899   0.945   1.431 -0.8977 -1.1059 -0.7025
14079TIP3    H242177   4.794   1.048   1.394  1.4032  1.4445 -0.2532
14080TIP3   OH242178   3.432   1.522   0.128 -0.0225 -0.5031  0.3960
14080TIP3    H142179   3.432   1.598   0.187  0.3951 -0.0709 -0.1485
14080TIP3    H242180   3.494   1.546   0.059  1.9481 -2.3309  1.4769
14081TIP3   OH242181   1.024   2.317   1.229  0.3341 -0.1355  0.4488
14081TIP3    H142182   1.093   2.371   1.190  0.9353 -1.4757 -0.3822
14081TIP3    H242183   0.952   2.378   1.245  1.2863  1.0690  0.2775
14082TIP3   OH242184   0.971   0.153   0.748  0.0629 -0.0064  0.0103
14082TIP3    H142185   0.981   0.072   0.698  0.5289 -0.2076  0.4302
14082TIP3    H242186   0.991   0.223   0.685 -2.1710 -0.1044 -0.8832
14083TIP3   OH242187   3.896   1.824   0.114  0.1082  0.5986 -0.1109
14083TIP3    H142188   3.875   1.748   0.060 -0.4901  2.3951 -2.5149
14083TIP3    H242189   3.835   1.892   0.085  1.2715  2.2859  1.2616
14084TIP3   OH242190   7.396   4.183   6.254  0.2764 -0.1108  0.1977
14084TIP3    H142191   7.461   4.233   6.204  1.2453  0.8819  2.3840
14084TIP3    H242192   7.446   4.143   6.325 -1.5734  1.4157  2.4527
14085TIP3   OH242193   3.316   0.571   1.240  0.4360 -0.5970 -0.0347
14085TIP3    H142194   3.270   0.534   1.315  0.4301  2.9001  1.7783
14085TIP3    H242195   3.248   0.583   1.174 -0.3997  0.1180  0.9261
14086TIP3   OH242196   6.043   7.662   6.089 -0.2179 -0.2944 -0.2530
14086TIP3    H142197   6.059   7.569   6.108  2.0414  0.2108  0.3599
14086TIP3    H242198   6.000   7.696   6.168  2.2024  0.0058  0.9562
14087TIP3   OH242199   5.236   1.091   1.926  0.4056  0.1997 -0.3091
14087TIP3    H142200   5.192   1.017   1.969  0.7546 -0.6822 -1.4125
14087TIP3    H242201   5.328   1.065   1.922  0.9150  1.6946  1.2861
14088TIP3   OH242202   7.758   7.737   1.935  0.8834  0.0456 -0.2810
14088TIP3    H142203   7.705   7.768   1.861  0.2615  0.8800  0.5042
14088TIP3    H242204   7.761   7.642   1.924  0.0217  0.0774 -0.8709
14089TIP3   OH242205   2.465   0.172   3.338 -0.3140 -0.3612 -0.1814
14089TIP3    H142206   2.428   0.085   3.354  1.8076 -1.3146 -0.2080
14089TIP3    H242207   2.417   0.205   3.262 -1.2494 -1.4434 -0.0742
14090TIP3   OH242208   4.801   5.040   5.199  0.9182 -0.3487 -0.4332
14090TIP3    H142209   4.769   5.050   5.110  1.2599  0.2876 -0.4874
14090TIP3    H242210   4.728   5.067   5.255  0.9020 -0.1864 -0.5326
14091TIP3   OH242211   4.244   4.761   5.832  0.0102  0.4098  0.3433
14091TIP3    H142212   4.255   4.668   5.810  0.1130  0.2512  1.0689
14091TIP3    H242213   4.193   4.796   5.758 -2.8058 -0.9107  1.5639
14092TIP3   OH242214   3.156   0.208   1.611 -0.2520  0.3008  0.1328
14092TIP3    H142215   3.070   0.181   1.580 -0.7561  1.1376  0.7825
14092TIP3    H242216   3.196   0.127   1.642  0.0719 -0.4554 -2.1910
14093TIP3   OH242217   7.689   4.598   5.009  0.1363 -0.8856 -0.2176
14093TIP3    H142218   7.601   4.561   5.003 -1.1165  1.7984  0.5943
14093TIP3    H242219   7.676   4.681   5.056  3.2686 -0.9828  0.8988
14094TIP3   OH242220   7.637   1.809   0.488 -0.2671  0.8103  0.3323
14094TIP3    H142221   7.560   1.812   0.544 -1.4299  0.4004 -1.1972
14094TIP3    H242222   7.670   1.719   0.496  0.8240  1.3455  1.9795
14095TIP3   OH242223   2.947   1.099   0.890  0.0720  0.4310  0.0481
14095TIP3    H142224   2.941   1.156   0.813 -1.6557 -1.0324 -0.9417
14095TIP3    H242225   3.016   1.037   0.869 -0.0472  0.3528 -0.1157
14096TIP3   OH242226   0.531   0.835   6.931  0.2226  0.0256  0.7526
14096TIP3    H142227   0.509   0.871   6.845  0.2845 -0.4234  0.5506
14096TIP3    H242228   0.478   0.755   6.938  0.9382 -0.4519  0.7359
14097TIP3   OH242229   3.485   2.025   2.578 -0.0588 -0.0444  0.3822
14097TIP3    H142230   3.400   2.018   2.621 -0.2209 -0.9501 -0.0632
14097TIP3    H242231   3.546   2.049   2.648 -0.3096 -1.5539  1.1549
14098TIP3   OH242232   2.176   2.186   6.114  0.1222 -0.2306 -0.2498
14098TIP3    H142233   2.111   2.250   6.143 -1.2662 -1.8431  0.2942
14098TIP3    H242234   2.133   2.140   6.042  0.8258 -1.0141 -0.1669
14099TIP3   OH242235   3.034   2.905   1.789  0.2191  0.1591  0.7159
14099TIP3    H142236   2.992   2.973   1.840  0.2931  0.0734  0.8918
14099TIP3    H242237   3.128   2.920   1.801  0.2387 -0.3903  1.3216
14100TIP3   OH242238   4.643   5.453   5.497  0.7834 -0.3126  0.3634
14100TIP3    H142239   4.705   5.453   5.570  0.7111  0.4068  0.4268
14100TIP3    H242240   4.693   5.485   5.422  0.6208 -0.1960  0.3030
14101TIP3   OH242241   4.110   1.164   0.835 -0.5877  0.1604  0.2742
14101TIP3    H142242   4.195   1.207   0.825  0.3613 -1.8361 -0.6295
14101TIP3    H242243   4.051   1.233   0.865  1.4300  1.5065  1.2607
14102TIP3   OH242244   3.403   7.119   6.650 -0.0970 -0.1968  0.0750
14102TIP3    H142245   3.349   7.083   6.720  0.8150 -0.7370  0.5057
14102TIP3    H242246   3.375   7.211   6.643 -1.2673 -0.5494  0.0919
14103TIP3   OH242247   2.312   0.989   1.390 -0.0014 -0.2319 -0.8819
14103TIP3    H142248   2.264   0.908   1.373  1.5783 -1.6295  1.0776
14103TIP3    H242249   2.283   1.049   1.321 -2.1879 -2.0223 -1.5754
14104TIP3   OH242250   1.129   7.753   0.578  0.5109 -0.1997  0.2805
14104TIP3    H142251   1.082   7.694   0.637  0.0033 -0.0603  0.0242
14104TIP3    H242252   1.203   7.785   0.630  1.2728 -1.7004  0.1448
14105TIP3   OH242253   3.045   0.199   0.880  0.0295 -0.3416  0.8554
14105TIP3    H142254   3.119   0.140   0.899 -0.7660 -1.0302  1.8770
14105TIP3    H242255   2.969   0.141   0.876 -0.0604 -0.0921 -3.3675
14106TIP3   OH242256   3.671   1.968   1.587  0.1794 -0.1398  1.1344
14106TIP3    H142257   3.593   2.020   1.608 -1.2599 -2.0111  0.5931
14106TIP3    H242258   3.694   1.927   1.670 -1.8435 -2.7234  0.4746
14107TIP3   OH242259   8.206   6.840   1.736  0.1555  0.3216  0.5551
14107TIP3    H142260   8.137   6.885   1.786  0.5272  0.6611  0.7696
14107TIP3    H242261   8.247   6.910   1.685 -1.5880 -0.3557 -1.8433
14108TIP3   OH242262   2.086   1.505   1.254 -0.1183  0.6291 -0.5440
14108TIP3    H142263   2.075   1.422   1.207 -1.9043  0.5363  0.0262
14108TIP3    H242264   2.019   1.563   1.218 -0.5499  1.0202  0.8464
14109TIP3   OH242265   4.461   1.503   0.285  0.0519  0.3415 -1.0780
14109TIP3    H142266   4.386   1.444   0.271 -0.5098  0.4375  1.2282
14109TIP3    H242267   4.497   1.475   0.369  1.3126  1.6783 -1.1630
14110TIP3   OH242268   3.922   1.260   1.171  0.3991 -0.6709  0.5286
14110TIP3    H142269   3.838   1.265   1.126  0.0495  0.9771  1.3360
14110TIP3    H242270   3.949   1.169   1.161 -0.4505 -0.7217 -1.6007
14111TIP3   OH242271   7.137   4.648   4.697 -0.4746  0.6844 -0.4342
14111TIP3    H142272   7.086   4.621   4.621 -0.6112 -0.0547 -0.0786
14111TIP3    H242273   7.224   4.610   4.683 -0.6149  0.2075 -0.0241
14112TIP3   OH242274   5.232   2.594   0.569  0.3980  0.8102 -0.2319
14112TIP3    H142275   5.228   2.502   0.595 -0.3541  0.9788  0.2519
14112TIP3    H242276   5.252   2.642   0.650  1.1546  1.0473 -0.5474
14113TIP3   OH242277   3.289   0.321   0.536 -0.0382 -0.5080  0.0751
14113TIP3    H142278   3.381   0.295   0.537  0.2802  0.5563 -0.7130
14113TIP3    H242279   3.290   0.416   0.546 -0.8756 -0.1160 -2.9951
14114TIP3   OH242280   3.784   2.725   1.779 -0.9157  0.2380  0.1039
14114TIP3    H142281   3.784   2.704   1.686 -0.1391  0.4111  0.0613
14114TIP3    H242282   3.855   2.673   1.816 -0.0948  1.4725  0.2947
14115TIP3   OH242283   3.184   0.594   1.000  0.4791 -0.3172 -0.0590
14115TIP3    H142284   3.228   0.554   0.924  0.2488  0.2601 -0.5020
14115TIP3    H242285   3.091   0.589   0.978  0.3954 -0.4366  0.3318
14116TIP3   OH242286   3.388   3.892   5.890 -0.8734 -0.2864  0.5414
14116TIP3    H142287   3.474   3.866   5.923 -1.5090 -0.9810  1.7022
14116TIP3    H242288   3.365   3.970   5.941 -1.0667 -0.2947  0.4667
14117TIP3   OH242289   6.330   7.374   2.470  0.3412 -0.8336 -0.3538
14117TIP3    H142290   6.274   7.447   2.495 -0.6716 -1.3986 -0.9261
14117TIP3    H242291   6.394   7.367   2.541 -1.0595 -0.9423  0.9266
14118TIP3   OH242292   1.994   1.123   0.879 -0.3508  0.0145  0.1729
14118TIP3    H142293   1.941   1.101   0.803 -0.3670  1.5654 -0.2923
14118TIP3    H242294   1.932   1.129   0.951 -0.4094 -0.9389  0.2084
14119TIP3   OH242295   6.830   8.003   2.029 -0.0103 -0.1066  0.2983
14119TIP3    H142296   6.811   7.990   1.936  2.2351 -0.4613 -0.1515
14119TIP3    H242297   6.863   7.918   2.058  1.3359  0.6006  0.8718
14120TIP3   OH242298   1.432   0.335   1.626 -0.1518 -0.1072 -0.1767
14120TIP3    H142299   1.524   0.361   1.636 -0.2893  0.4854 -0.4259
14120TIP3    H242300   1.383   0.406   1.668 -0.4220 -1.3279  1.5975
14121TIP3   OH242301   3.958   1.543   2.933 -0.0377  0.0585  0.6907
14121TIP3    H142302   3.997   1.622   2.971  0.3081 -0.1904  0.8583
14121TIP3    H242303   3.965   1.555   2.839  1.1334 -0.3252  0.7274
14122TIP3   OH242304   0.001   2.084   1.467 -0.3349  0.1122  0.2183
14122TIP3    H142305   0.062   2.022   1.507 -0.6172  0.3251  0.9861
14122TIP3    H242306   0.051   2.166   1.459  0.0599 -0.2275 -0.8602
14123TIP3   OH242307   3.423   5.757   6.704 -0.1476  0.0133  0.1806
14123TIP3    H142308   3.480   5.684   6.731 -0.7194 -0.2780  0.6227
14123TIP3    H242309   3.387   5.729   6.620  0.6804  0.3768 -0.2920
14124TIP3   OH242310   4.391   4.369   4.915  0.2230  0.0321 -0.2729
14124TIP3    H142311   4.365   4.426   4.843  1.1091 -1.1292 -1.5182
14124TIP3    H242312   4.340   4.401   4.990  0.1895  2.0067 -1.1065
14125TIP3   OH242313   3.027   1.333   2.404 -0.2012 -0.1428 -0.3248
14125TIP3    H142314   2.999   1.270   2.471  0.7910 -0.3136 -0.0564
14125TIP3    H242315   3.031   1.417   2.450  1.2266 -0.3947  0.0396
14126TIP3   OH242316   4.942   7.491   6.487  0.2523  0.2646 -0.0275
14126TIP3    H142317   4.982   7.406   6.502  0.2779  0.4136  0.7693
14126TIP3    H242318   5.006   7.554   6.520 -0.0412  0.5582 -0.0166
14127TIP3   OH242319   3.716   2.996   0.693  0.2716  0.2215  0.0960
14127TIP3    H142320   3.758   3.057   0.753 -0.3703 -0.2975  1.0731
14127TIP3    H242321   3.678   3.051   0.625 -0.3215  0.9147  0.9867
14128TIP3   OH242322   2.757   8.001   2.267  0.1669  0.0902 -1.2957
14128TIP3    H142323   2.831   8.043   2.221  0.4474  0.0137 -0.9140
14128TIP3    H242324   2.713   7.950   2.199  0.3105  0.3461 -1.5827
14129TIP3   OH242325   7.123   4.977   6.518 -0.2621 -0.2039  0.2096
14129TIP3    H142326   7.057   5.044   6.501  0.2787  0.4450  0.6323
14129TIP3    H242327   7.200   5.026   6.548  0.5022 -0.9301 -0.5320
14130TIP3   OH242328   2.934   1.851   0.839 -0.3510  0.3186  0.8842
14130TIP3    H142329   2.840   1.856   0.821 -0.3167 -0.3369  0.5411
14130TIP3    H242330   2.976   1.888   0.761 -0.2825 -0.5257  0.5152
14131TIP3   OH242331   4.943   5.314   6.008  0.1658 -0.5948 -0.2762
14131TIP3    H142332   4.876   5.383   6.005  0.8236  0.1212  1.2096
14131TIP3    H242333   5.016   5.349   5.957  0.1092 -0.6187 -0.3749
14132TIP3   OH242334   3.916   2.206   0.762 -0.4508  0.2418 -0.5895
14132TIP3    H142335   4.010   2.198   0.779 -0.5800 -3.2321 -1.0321
14132TIP3    H242336   3.909   2.215   0.667 -0.5374  1.0904 -0.5025
14133TIP3   OH242337   7.700   0.102   5.072  0.0241 -0.4085  0.0558
14133TIP3    H142338   7.690   0.071   4.982 -0.2761  1.5898 -0.6266
14133TIP3    H242339   7.613   0.131   5.098 -0.0241 -1.5407  1.2350
14134TIP3   OH242340   6.143   4.679   4.715  0.6267  0.5555  0.8714
14134TIP3    H142341   6.151   4.658   4.808 -0.8899 -1.3265  0.5810
14134TIP3    H242342   6.179   4.603   4.669 -0.5216  0.5878 -0.1159
14135TIP3   OH242343   3.972   1.556   1.283 -0.4063 -0.6573  0.4892
14135TIP3    H142344   3.936   1.467   1.273  0.8114 -1.0200 -0.9351
14135TIP3    H242345   4.034   1.549   1.355  1.5890 -1.6049 -1.2811
14136TIP3   OH242346   3.570   1.465   2.120 -0.0914 -0.1834  0.1736
14136TIP3    H142347   3.575   1.370   2.109 -0.2849 -0.1081 -0.6046
14136TIP3    H242348   3.509   1.494   2.052  1.9587  0.7763 -1.3031
14137TIP3   OH242349   1.059   7.733   0.095  0.8185 -0.3703  0.7734
14137TIP3    H142350   1.067   7.638   0.106  1.4741 -0.5683 -1.3283
14137TIP3    H242351   0.972   7.754   0.130  0.3098 -1.8706  0.4301
14138TIP3   OH242352   4.464   5.385   5.306 -0.6268  0.3326  0.4539
14138TIP3    H142353   4.412   5.308   5.327  0.4731 -0.8421 -1.0151
14138TIP3    H242354   4.508   5.407   5.388 -0.9523 -0.5874  0.8889
14139TIP3   OH242355   4.899   2.406   0.651 -0.5254  0.9922 -0.1310
14139TIP3    H142356   4.990   2.432   0.665  0.0292 -0.1398 -1.4922
14139TIP3    H242357   4.901   2.310   0.652 -2.1213  0.9363  2.3089
14140TIP3   OH242358   2.525   2.172   2.061  0.0513  0.2133  0.7264
14140TIP3    H142359   2.449   2.121   2.089  0.0901  1.1163  2.5210
14140TIP3    H242360   2.556   2.215   2.140  2.0437  0.3908 -0.1167
14141TIP3   OH242361   3.914   1.306   0.077 -0.2662  0.5179 -0.2310
14141TIP3    H142362   4.007   1.328   0.088 -0.1534  0.6709 -1.4298
14141TIP3    H242363   3.879   1.307   0.166  0.9316  0.2215  0.2637
14142TIP3   OH242364   1.562   1.060   0.714  0.1179  0.8047  0.2977
14142TIP3    H142365   1.643   1.077   0.666  0.1503  1.9856  0.7501
14142TIP3    H242366   1.501   1.029   0.647  0.4076  1.6511 -0.3783
14143TIP3   OH242367   1.726   7.736   0.896  0.0501  0.4392 -0.1286
14143TIP3    H142368   1.821   7.741   0.889  0.1871  0.6472  1.6590
14143TIP3    H242369   1.707   7.643   0.885  0.4979  0.3363 -0.0496
14144TIP3   OH242370   4.563   4.321   5.638  0.1433  0.0337 -0.6365
14144TIP3    H142371   4.469   4.341   5.643  0.3118  0.8788 -0.7675
14144TIP3    H242372   4.566   4.226   5.627 -0.7353  0.1130 -1.6788
14145TIP3   OH242373   0.682   0.995   2.230  0.0412 -0.3135 -0.5179
14145TIP3    H142374   0.622   1.068   2.245 -0.2085 -0.6927  0.3443
14145TIP3    H242375   0.726   0.982   2.314 -2.7665 -3.7042  0.5503
14146TIP3   OH242376   4.171   6.875   5.795  0.3598  0.0683  0.0569
14146TIP3    H142377   4.134   6.942   5.853 -1.4185 -0.4881 -0.3820
14146TIP3    H242378   4.117   6.880   5.716 -0.5276 -2.6097  0.4437
14147TIP3   OH242379   6.359   6.085   6.520 -0.2863  0.7466  0.7717
14147TIP3    H142380   6.287   6.053   6.465  0.0837 -0.2732  0.8747
14147TIP3    H242381   6.434   6.089   6.461 -0.2975  1.3290  0.7894
14148TIP3   OH242382   3.914   0.650   0.977 -0.2555  0.3352 -0.2630
14148TIP3    H142383   3.846   0.692   1.030  1.1480  0.0564  1.8334
14148TIP3    H242384   3.945   0.719   0.919  0.6649  1.6977  1.7931
14149TIP3   OH242385   3.840   6.216   4.083 -0.2517  0.4071  0.0816
14149TIP3    H142386   3.752   6.200   4.049  0.3812 -0.7444 -1.0798
14149TIP3    H242387   3.832   6.202   4.177 -2.0102  3.5187  0.4670
14150TIP3   OH242388   0.105   6.623   6.788  0.0013 -0.2813 -0.7141
14150TIP3    H142389   0.110   6.556   6.719  1.1364 -0.5946 -0.3404
14150TIP3    H242390   0.155   6.586   6.860 -1.8201 -0.2802  0.5709
14151TIP3   OH242391   5.228   6.120   6.309  0.0230  0.4676  0.3308
14151TIP3    H142392   5.302   6.094   6.255 -0.0376 -0.7297  0.7895
14151TIP3    H242393   5.155   6.128   6.248  0.0660 -0.3950  0.1506
14152TIP3   OH242394   1.397   6.796   2.006 -0.5570  0.1564 -0.5515
14152TIP3    H142395   1.422   6.709   2.038 -1.6109  0.6442  1.7014
14152TIP3    H242396   1.306   6.786   1.977 -0.4967  0.3798 -0.8171
14153TIP3   OH242397   4.307   6.198   5.889 -0.5339 -0.6985 -0.3087
14153TIP3    H142398   4.373   6.181   5.957  0.2853 -0.2330 -0.9832
14153TIP3    H242399   4.225   6.168   5.928 -0.3449  1.0595  1.5410
14154TIP3   OH242400   3.075   6.577   6.028 -0.2063 -0.8413  0.3953
14154TIP3    H142401   3.035   6.579   6.115 -0.1121  2.5797  0.4217
14154TIP3    H242402   3.006   6.543   5.971 -1.9492  1.4395  1.0688
14155TIP3   OH242403   5.512   5.252   6.765  0.2335 -0.1239  0.7971
14155TIP3    H142404   5.547   5.287   6.847 -0.0107  0.4009  0.6793
14155TIP3    H242405   5.437   5.199   6.792 -1.0470  1.6495  0.7497
14156TIP3   OH242406   2.373   1.404   0.739  0.1584 -0.0224 -0.1394
14156TIP3    H142407   2.379   1.495   0.768  1.0664 -0.5540  1.3459
14156TIP3    H242408   2.463   1.375   0.731 -0.1259 -0.6735 -1.0133
14157TIP3   OH242409   2.119   0.271   1.327  0.1928 -0.2507 -0.0045
14157TIP3    H142410   2.143   0.188   1.287  1.0852  0.2975 -0.6132
14157TIP3    H242411   2.096   0.248   1.417 -0.9323 -1.3506 -0.5557
14158TIP3   OH242412   0.823   1.714   0.638 -0.7224  1.4985  0.5645
14158TIP3    H142413   0.890   1.755   0.583  0.5848 -2.1181 -0.6912
14158TIP3    H242414   0.869   1.694   0.720 -0.3211 -0.5138 -0.1095
14159TIP3   OH242415   1.137   2.576   1.166  0.5090 -0.0656  0.0676
14159TIP3    H142416   1.105   2.662   1.139 -1.8141 -1.0769 -0.4690
14159TIP3    H242417   1.117   2.572   1.260  1.3897  0.2946  0.2790
14160TIP3   OH242418   1.484   1.147   0.187 -0.5554  0.1227 -0.1783
14160TIP3    H142419   1.452   1.088   0.119  1.9398  0.5638 -1.7676
14160TIP3    H242420   1.565   1.106   0.218  0.4700  1.9887 -0.3366
14161TIP3   OH242421   1.214   0.215   2.261  0.3389  0.1430 -0.5230
14161TIP3    H142422   1.259   0.165   2.329  0.6263  1.4052  0.2122
14161TIP3    H242423   1.230   0.165   2.180  1.2957 -0.5232  0.0747
14162TIP3   OH242424   3.751   0.679   2.758 -0.0536 -0.0632 -1.0620
14162TIP3    H142425   3.662   0.705   2.781  1.1156  1.6889  1.8635
14162TIP3    H242426   3.806   0.744   2.801  2.6353 -0.8872 -3.1481
14163TIP3   OH242427   6.898   4.819   6.237  0.4295  0.0702  0.1323
14163TIP3    H142428   6.982   4.841   6.278  1.1880 -0.3035 -1.2019
14163TIP3    H242429   6.906   4.852   6.148 -0.7482 -0.1974 -0.0715
14164TIP3   OH242430   1.885   0.045   0.235 -0.2444 -0.2422 -0.1735
14164TIP3    H142431   1.970   0.038   0.278  0.3447  0.1835 -1.2568
14164TIP3    H242432   1.883  -0.028   0.173 -1.0624 -0.8134  0.5144
14165TIP3   OH242433   2.200   1.157   1.197  0.3957 -0.6329  0.2497
14165TIP3    H142434   2.202   1.222   1.127 -0.6075 -0.8266  0.0385
14165TIP3    H242435   2.188   1.073   1.152  0.6300 -0.8530  0.5908
14166TIP3   OH242436   2.414   0.003   1.580  0.5318  0.6453  0.3229
14166TIP3    H142437   2.423   0.084   1.630 -0.7287  1.0346 -0.0747
14166TIP3    H242438   2.504  -0.026   1.566  0.9887  1.9058  0.5607
14167TIP3   OH242439   7.292   7.467   1.917  0.3276 -0.2482 -0.0629
14167TIP3    H142440   7.276   7.523   1.842  1.1757  1.6622  1.1591
14167TIP3    H242441   7.359   7.406   1.887  1.2300  1.0003 -0.6189
14168TIP3   OH242442   5.661   4.917   6.762 -0.7726  0.4594  0.1597
14168TIP3    H142443   5.588   4.861   6.736 -0.5108 -0.2480  0.9266
14168TIP3    H242444   5.651   4.926   6.857 -1.0116  2.0084 -0.0040
14169TIP3   OH242445   3.456   5.304   6.544 -0.1459 -0.8426 -0.0010
14169TIP3    H142446   3.510   5.360   6.488 -0.8883  0.8872  0.9492
14169TIP3    H242447   3.511   5.229   6.564  0.7928 -0.5875 -1.5090
14170TIP3   OH242448   0.647   2.129   0.057  0.3325  0.7289 -0.3643
14170TIP3    H142449   0.652   2.126  -0.039  0.1518  1.0229 -0.3839
14170TIP3    H242450   0.564   2.089   0.079  1.0864 -0.7933 -0.2396
14171TIP3   OH242451   2.772   0.984   1.071  0.5405  0.0784  0.4455
14171TIP3    H142452   2.810   0.952   1.153  1.0533 -1.1825 -0.2648
14171TIP3    H242453   2.842   1.036   1.031  0.4864  0.2404  0.5668
14172TIP3   OH242454   0.652   1.093   1.178  0.5899  0.0966 -0.3356
14172TIP3    H142455   0.598   1.161   1.137  1.2183  0.6708 -0.2146
14172TIP3    H242456   0.715   1.142   1.231 -0.0538 -0.6391  1.1162
14173TIP3   OH242457   2.525   0.924   1.525  0.4016  0.0849  0.2180
14173TIP3    H142458   2.538   0.829   1.524 -0.1828  0.0012  0.2232
14173TIP3    H242459   2.437   0.936   1.488  0.2510  0.5875  0.7472
14174TIP3   OH242460   0.826   3.794   6.591 -0.7563  0.5302 -0.0745
14174TIP3    H142461   0.914   3.787   6.629 -0.3068 -1.1482 -1.3513
14174TIP3    H242462   0.771   3.825   6.663  0.4515 -0.6754  1.4150
14175TIP3   OH242463   4.261   0.702   0.685  0.2839 -0.3262  0.2705
14175TIP3    H142464   4.356   0.696   0.674  0.1034 -1.0108 -1.0050
14175TIP3    H242465   4.237   0.618   0.725  0.2622  0.0213  0.9984
14176TIP3   OH242466   0.244   5.288   6.399  0.8705  0.2031 -0.5939
14176TIP3    H142467   0.262   5.320   6.311 -0.0064  0.1379 -0.8044
14176TIP3    H242468   0.216   5.365   6.448  0.4243  0.0747 -0.6385
14177TIP3   OH242469   3.192   3.315   0.782 -0.4808  0.2578  0.1647
14177TIP3    H142470   3.164   3.331   0.692  1.2490 -1.7810 -0.7631
14177TIP3    H242471   3.188   3.401   0.824 -1.6952  1.1550 -1.7301
14178TIP3   OH242472   5.389   6.513   6.916  0.3783 -0.3022  0.2653
14178TIP3    H142473   5.443   6.477   6.986  2.7428  3.2303  0.3822
14178TIP3    H242474   5.432   6.486   6.836  0.2014 -0.5839  0.2630
14179TIP3   OH242475   2.624   7.689   1.814  0.0891 -0.1624  0.2001
14179TIP3    H142476   2.542   7.736   1.798  0.3046  0.6460  1.4001
14179TIP3    H242477   2.600   7.619   1.874  0.3466  0.2976  0.8402
14180TIP3   OH242478   7.064   4.612   6.577 -0.0755 -0.3291  0.4265
14180TIP3    H142479   6.988   4.565   6.545  0.6569 -1.1896 -0.0763
14180TIP3    H242480   7.085   4.675   6.508  1.0131 -1.6264 -0.4312
14181TIP3   OH242481   6.207   0.566   1.089 -0.2496 -0.5441  0.3424
14181TIP3    H142482   6.119   0.535   1.110 -0.4892  0.4319  0.8317
14181TIP3    H242483   6.250   0.574   1.174 -0.2146  0.5098  0.2271
14182TIP3   OH242484   5.683   0.693   1.923 -0.1101 -0.3332  0.6140
14182TIP3    H142485   5.691   0.695   1.828  1.1912  2.0676  0.7369
14182TIP3    H242486   5.590   0.711   1.939 -0.3418 -0.7783 -0.1815
14183TIP3   OH242487   3.715   1.035   0.372 -0.4361  0.9082 -0.9158
14183TIP3    H142488   3.624   1.003   0.379  0.1618 -0.6847  0.0167
14183TIP3    H242489   3.767   0.955   0.359  1.0683  1.5494  0.9772
14184TIP3   OH242490   6.030   2.327   0.770 -1.3389 -0.0664 -0.0035
14184TIP3    H142491   5.986   2.269   0.831 -0.2122 -3.0587 -1.9598
14184TIP3    H242492   5.967   2.337   0.698 -0.7645 -0.4166 -0.5548
14185TIP3   OH242493   6.743   5.452   6.115  0.2219  0.1350 -0.4234
14185TIP3    H142494   6.813   5.423   6.174  0.4951  0.3841 -0.6239
14185TIP3    H242495   6.668   5.467   6.172  0.3586 -0.0536 -0.1957
14186TIP3   OH242496   6.211   4.375   6.816  0.2881  0.3939  0.6215
14186TIP3    H142497   6.278   4.430   6.858 -1.7380  1.4727  2.5418
14186TIP3    H242498   6.191   4.420   6.734 -0.1672  1.6599  1.4084
14187TIP3   OH242499   3.849   1.143   1.826  0.0465  0.0307 -0.2933
14187TIP3    H142500   3.922   1.196   1.792  0.4356  0.3028  0.9557
14187TIP3    H242501   3.775   1.204   1.829  0.0055  0.0038 -0.6350
14188TIP3   OH242502   6.690   6.214   6.004 -0.7269 -0.4120 -0.0976
14188TIP3    H142503   6.745   6.159   5.949  2.1643  1.0610  1.1909
14188TIP3    H242504   6.656   6.281   5.945  1.0493  0.2133 -0.4570
14189TIP3   OH242505   6.383   2.416   1.075 -0.3264  0.4277  0.2044
14189TIP3    H142506   6.415   2.328   1.094  2.1830  1.2419 -0.0841
14189TIP3    H242507   6.297   2.420   1.117  0.3224 -1.5332  1.7967
14190TIP3   OH242508   4.446   2.399   1.350 -0.3852  0.3470 -0.4591
14190TIP3    H142509   4.486   2.390   1.264 -0.9101  0.9162 -0.7726
14190TIP3    H242510   4.449   2.493   1.368 -0.0703  0.2097  0.2482
14191TIP3   OH242511   4.060   0.251   0.968 -0.0493 -0.1021 -0.2484
14191TIP3    H142512   4.038   0.306   1.044 -0.1704 -1.0542  0.4120
14191TIP3    H242513   4.154   0.236   0.975 -0.0272 -0.0304 -0.3935
14192TIP3   OH242514   4.746   7.630   5.400  0.0431  0.2490  0.5130
14192TIP3    H142515   4.727   7.581   5.480  0.8049 -0.7142  0.1334
14192TIP3    H242516   4.664   7.671   5.376 -0.2866  0.2109  1.5760
14193TIP3   OH242517   5.496   1.090   1.152  0.2918  0.0290  0.0380
14193TIP3    H142518   5.509   1.008   1.198 -2.5139 -0.6528 -0.3008
14193TIP3    H242519   5.505   1.157   1.220  3.5521 -0.4077  0.1434
14194TIP3   OH242520   7.971   7.050   6.276  1.0545  0.7936 -0.0888
14194TIP3    H142521   7.926   6.987   6.333 -1.5718  3.9297  1.4833
14194TIP3    H242522   7.918   7.053   6.197  0.4637  1.8927  0.3392
14195TIP3   OH242523   5.531   2.686   2.094  0.3243  0.0455  0.1724
14195TIP3    H142524   5.448   2.699   2.140 -0.9213 -1.9216 -1.4662
14195TIP3    H242525   5.553   2.774   2.061 -0.5851  0.7734  1.4501
14196TIP3   OH242526   6.112   5.792   6.691 -0.4031 -0.2621  0.3176
14196TIP3    H142527   6.047   5.723   6.702 -1.8617  1.1079  0.5162
14196TIP3    H242528   6.078   5.847   6.621  1.3310 -0.3890 -0.6506
14197TIP3   OH242529   6.082   0.753   0.504  0.1190  0.0999 -0.3322
14197TIP3    H142530   6.165   0.778   0.544  1.4383 -1.6347 -1.8694
14197TIP3    H242531   6.089   0.786   0.414 -1.2488  0.7465 -0.2061
14198TIP3   OH242532   4.530   3.195   1.405 -0.3915 -0.2178  0.1770
14198TIP3    H142533   4.530   3.269   1.344  1.1312 -1.5285 -1.4558
14198TIP3    H242534   4.525   3.118   1.349 -1.0929 -1.4015  1.8234
14199TIP3   OH242535   7.539   6.384   5.155  0.4128 -0.5376 -0.1424
14199TIP3    H142536   7.613   6.361   5.211  1.2318 -0.1666 -1.0514
14199TIP3    H242537   7.577   6.439   5.087 -1.0828  1.4756  0.6072
14200TIP3   OH242538   7.591   7.711   1.010  0.2994 -0.6043 -0.4300
14200TIP3    H142539   7.675   7.668   0.996  2.0433  1.4827  3.1191
14200TIP3    H242540   7.606   7.802   0.986 -1.4203 -0.5053 -1.2097
14201TIP3   OH242541   7.510   5.718   6.747 -0.1316 -0.3128  0.2021
14201TIP3    H142542   7.429   5.680   6.780 -0.3734  0.9030  0.9984
14201TIP3    H242543   7.521   5.800   6.795  1.1171 -0.0373 -0.5153
14202TIP3   OH242544   1.239   7.779   0.321  0.5818  0.3911 -0.7474
14202TIP3    H142545   1.179   7.781   0.396  1.0663 -2.8184 -0.2147
14202TIP3    H242546   1.181   7.788   0.245 -0.6749 -2.6745 -0.2403
14203TIP3   OH242547   7.387   4.875   6.185  0.2213  0.5528 -0.1907
14203TIP3    H142548   7.419   4.861   6.096  1.1560  0.8369  0.0985
14203TIP3    H242549   7.357   4.966   6.186  0.8509  0.7603 -0.0225
14204TIP3   OH242550   5.400   1.945   1.001 -0.3382  0.0289  0.0535
14204TIP3    H142551   5.489   1.974   0.979 -0.4244 -0.6495 -1.1998
14204TIP3    H242552   5.359   2.023   1.039  0.3124  0.7651 -0.7294
14205TIP3   OH242553   4.691   1.533   1.729  0.4052  0.2964  0.1059
14205TIP3    H142554   4.646   1.507   1.810  2.5832 -2.1837  0.5837
14205TIP3    H242555   4.769   1.477   1.725  1.1080  1.3683 -2.9885
14206TIP3   OH242556   7.836   6.717   4.535  0.3401 -0.7278  0.0312
14206TIP3    H142557   7.881   6.784   4.483 -1.5172  0.5185 -0.0256
14206TIP3    H242558   7.868   6.634   4.500  2.1772  0.1107 -0.3571
14207TIP3   OH242559   3.190   3.800   2.051 -0.0205  0.7462 -0.0418
14207TIP3    H142560   3.235   3.819   1.968  0.3349 -1.8713 -0.5112
14207TIP3    H242561   3.235   3.722   2.085 -1.2340  0.8250  1.7910
14208TIP3   OH242562   2.571   1.511   0.158 -0.4879 -0.1499 -0.0672
14208TIP3    H142563   2.498   1.489   0.216  0.5726  0.8532  1.6711
14208TIP3    H242564   2.630   1.436   0.163  0.4869  0.6960  1.6165
14209TIP3   OH242565   7.663   4.871   5.366 -0.0978 -0.3012  0.2809
14209TIP3    H142566   7.754   4.841   5.361 -0.2608 -1.0628  1.5694
14209TIP3    H242567   7.635   4.846   5.454 -1.2106  0.9223  0.2766
14210TIP3   OH242568   7.014   5.955   5.268  0.5732 -0.1068 -0.0657
14210TIP3    H142569   6.937   5.986   5.219  0.0184  0.0203  0.8829
14210TIP3    H242570   6.979   5.890   5.328  0.5331  2.8609  3.2617
14211TIP3   OH242571   6.200   3.438   0.117  0.8843  0.0375 -0.0920
14211TIP3    H142572   6.188   3.485   0.199 -0.0002 -0.5112  0.0999
14211TIP3    H242573   6.244   3.501   0.059  3.4060 -0.2635  1.4438
14212TIP3   OH242574   6.475   3.073   0.148  0.0184 -0.1621 -0.7658
14212TIP3    H142575   6.474   2.998   0.089 -0.1406 -0.6481 -0.1639
14212TIP3    H242576   6.552   3.123   0.123  0.8397 -1.2012 -0.3529
14213TIP3   OH242577   3.952   0.421   2.524  0.5795  0.2123  0.3801
14213TIP3    H142578   3.944   0.480   2.599 -0.6377  0.8835 -0.2784
14213TIP3    H242579   3.882   0.447   2.464  1.3802 -0.4768 -0.8894
14214TIP3   OH242580   4.051   6.481   1.793 -0.5602 -0.3238 -0.3105
14214TIP3    H142581   4.073   6.555   1.850  1.2092 -0.6316 -0.5545
14214TIP3    H242582   4.074   6.404   1.844  0.2916 -0.6202 -1.1140
14215TIP3   OH242583   1.090   7.752   4.607  0.3221  0.5435  0.4911
14215TIP3    H142584   1.115   7.704   4.686  0.9602  1.3479  0.7904
14215TIP3    H242585   1.028   7.818   4.637  1.1433  1.3410  0.4454
14216TIP3   OH242586   6.186   1.608   6.128 -0.3695 -0.7330 -0.4315
14216TIP3    H142587   6.240   1.641   6.200 -1.9876 -0.2352  0.5859
14216TIP3    H242588   6.102   1.654   6.138 -1.2179 -1.9952 -1.5636
14217TIP3   OH242589   7.848   6.020   6.744  0.1765  0.3651  0.4454
14217TIP3    H142590   7.891   6.066   6.816  0.4363 -0.6021  0.9049
14217TIP3    H242591   7.917   6.007   6.678  0.4686 -0.7053  0.9545
14218TIP3   OH242592   7.020   1.735   1.757  0.4144 -0.4401  0.6321
14218TIP3    H142593   6.985   1.824   1.747  0.1939 -0.3156  2.3091
14218TIP3    H242594   6.949   1.686   1.798  1.0884 -0.9743  1.1725
14219TIP3   OH242595   4.348   0.978   0.041 -0.0144 -0.1693 -0.2978
14219TIP3    H142596   4.426   1.033   0.034 -0.8390  0.9582 -0.7705
14219TIP3    H242597   4.348   0.926  -0.040  0.2983 -0.2439 -0.2496
14220TIP3   OH242598   7.602   4.850   5.100 -0.1767  0.9477 -0.1312
14220TIP3    H142599   7.517   4.891   5.087  0.5485  2.8497  0.8814
14220TIP3    H242600   7.614   4.851   5.195  0.4871 -0.3773 -0.1856
14221TIP3   OH242601   4.102   1.301   1.431 -0.2489  0.4517  0.0120
14221TIP3    H142602   4.149   1.385   1.429 -1.0923  0.9023 -1.0930
14221TIP3    H242603   4.149   1.246   1.369  0.1958  0.1449  0.6071
14222TIP3   OH242604   5.109   1.864   0.574  0.2958 -0.3895 -0.2064
14222TIP3    H142605   5.171   1.815   0.629  0.1401 -0.6657 -0.2739
14222TIP3    H242606   5.027   1.816   0.583 -0.3765  1.0180  1.3180
14223TIP3   OH242607   4.934   1.192   1.708 -0.1068 -0.2423  0.3073
14223TIP3    H142608   4.868   1.126   1.689 -0.2847 -0.4541  1.5740
14223TIP3    H242609   4.905   1.230   1.791  0.4895  0.7906  0.0437
14224TIP3   OH242610   7.345   6.081   6.028 -0.4721 -0.0774 -0.4213
14224TIP3    H142611   7.291   6.161   6.027  1.5504  1.3473  0.1216
14224TIP3    H242612   7.313   6.032   6.103 -0.4124  1.1878  0.4522
14225TIP3   OH242613   3.404   0.303   2.031 -0.1226 -0.4014 -0.5991
14225TIP3    H142614   3.440   0.222   1.995  1.0248  0.2150 -0.8688
14225TIP3    H242615   3.338   0.330   1.967 -1.1181 -1.5646 -0.0774
14226TIP3   OH242616   5.500   5.113   6.533  0.2991  0.2089 -0.5743
14226TIP3    H142617   5.555   5.147   6.604  0.7968 -0.1754 -0.7699
14226TIP3    H242618   5.414   5.153   6.547  0.6213  0.7879 -0.2409
14227TIP3   OH242619   7.154   5.059   5.826  0.2677  0.0927  0.1571
14227TIP3    H142620   7.142   5.123   5.896  2.1908  0.1647  0.4291
14227TIP3    H242621   7.173   4.977   5.870 -0.8893 -0.3970 -0.2319
14228TIP3   OH242622   5.070   1.386   1.004 -0.0500 -0.3329 -0.2577
14228TIP3    H142623   5.089   1.334   1.083  0.0997 -1.3772 -0.9590
14228TIP3    H242624   5.059   1.475   1.035 -0.3764 -0.8082  0.9957
14229TIP3   OH242625   7.382   4.026   4.748  0.0394 -0.4005  0.1082
14229TIP3    H142626   7.325   4.100   4.769  1.4541  0.8698 -0.4448
14229TIP3    H242627   7.426   4.052   4.667  3.0277 -0.3829  1.6695
14230TIP3   OH242628   5.858   1.788   0.885 -0.6990 -0.1557 -0.0357
14230TIP3    H142629   5.817   1.721   0.939 -0.4038  0.0370  0.4269
14230TIP3    H242630   5.915   1.837   0.945 -0.8814  0.4848 -0.3754
14231TIP3   OH242631   3.459   0.961   1.990  0.1262 -0.2506  0.2575
14231TIP3    H142632   3.399   0.889   2.007 -0.3959  0.2231  0.4168
14231TIP3    H242633   3.538   0.918   1.957 -0.2947 -0.8747  0.0428
14232TIP3   OH242634   5.436   0.229   1.068  0.2472 -0.0602  0.3761
14232TIP3    H142635   5.366   0.201   1.009  1.3486  0.7872 -1.3812
14232TIP3    H242636   5.393   0.244   1.151 -1.3925 -1.0723 -0.2661
14233TIP3   OH242637   6.278   4.956   4.988  0.0400  0.3674  0.5422
14233TIP3    H142638   6.273   5.030   5.049  1.0143  0.7589  0.1481
14233TIP3    H242639   6.281   4.996   4.901  0.0992 -0.1506  0.3028
14234TIP3   OH242640   3.953   1.122   0.537  0.6520  0.3527 -0.0604
14234TIP3    H142641   3.896   1.056   0.497  0.6160  0.0618  0.4606
14234TIP3    H242642   4.016   1.071   0.589  1.7607  0.6426 -1.1104
14235TIP3   OH242643   7.892   7.385   5.513  0.0087  0.1849 -0.1454
14235TIP3    H142644   7.942   7.375   5.432 -0.4506 -0.0841 -0.3987
14235TIP3    H242645   7.933   7.325   5.575  0.5099  0.5674 -0.1039
14236TIP3   OH242646   4.978   6.365   6.632  0.3033 -0.4942  0.2363
14236TIP3    H142647   4.896   6.343   6.678  1.1258 -0.6840  1.6236
14236TIP3    H242648   5.006   6.283   6.593 -0.9086 -0.1315 -1.4740
14237TIP3   OH242649   7.759   6.320   5.303  0.2022 -0.2490 -0.5864
14237TIP3    H142650   7.829   6.255   5.309 -0.0309 -0.6008 -1.6147
14237TIP3    H242651   7.725   6.326   5.392  1.6079  0.0164 -0.0437
14238TIP3   OH242652   3.947   2.125   1.070  0.3785 -0.0777 -0.1971
14238TIP3    H142653   4.030   2.172   1.071 -0.8630  2.2018  0.3183
14238TIP3    H242654   3.911   2.140   0.983  0.1971 -0.5124 -0.2015
14239TIP3   OH242655   7.446   5.555   6.229 -0.2265  0.1113  0.0383
14239TIP3    H142656   7.475   5.636   6.272 -2.3199  0.9508 -0.0731
14239TIP3    H242657   7.523   5.498   6.232  1.1954  1.9694  0.4299
14240TIP3   OH242658   8.316   7.865   4.938  0.5297  0.3465 -0.3780
14240TIP3    H142659   8.254   7.912   4.994 -0.7197 -1.7648  0.0741
14240TIP3    H242660   8.373   7.818   4.999 -0.2482 -1.2281 -0.8494
14241TIP3   OH242661   7.945   6.551   6.917  0.3297  0.2118 -0.0183
14241TIP3    H142662   7.960   6.469   6.869 -2.1019  0.0402 -0.5305
14241TIP3    H242663   7.868   6.534   6.970  0.1659  1.9888  0.3407
14242TIP3   OH242664   6.122   4.685   6.716  0.3345  0.7705  0.1722
14242TIP3    H142665   6.102   4.729   6.634  0.1800 -0.8007 -0.6606
14242TIP3    H242666   6.041   4.640   6.740  0.0346  2.1106  1.7890
14243TIP3   OH242667   5.107   0.662   0.880 -0.3846  0.2599  0.1153
14243TIP3    H142668   5.201   0.657   0.862 -0.1255  0.1333  1.4384
14243TIP3    H242669   5.101   0.664   0.976 -1.8484 -2.9637  0.1683
14244TIP3   OH242670   7.945   7.157   6.849  0.1620  0.0978  0.4849
14244TIP3    H142671   7.968   7.216   6.777 -1.0858  0.2696  0.2024
14244TIP3    H242672   7.985   7.074   6.826 -2.0929 -0.4730 -1.5767
14245TIP3   OH242673   5.441   6.626   5.063  0.1644 -0.5177  0.0264
14245TIP3    H142674   5.420   6.691   5.130  0.5036 -1.2869  0.8823
14245TIP3    H242675   5.534   6.641   5.043  0.2494 -0.7571  0.2427
14246TIP3   OH242676   5.390   0.680   0.034 -0.2284 -0.0098 -0.1623
14246TIP3    H142677   5.408   0.771   0.058  0.7769 -0.1937 -0.2312
14246TIP3    H242678   5.343   0.687  -0.049  0.0456  0.4397 -0.2831
14247TIP3   OH242679   5.818   0.383   2.175 -0.2075  0.4773  0.8090
14247TIP3    H142680   5.797   0.435   2.253  0.2950  1.4375  0.3036
14247TIP3    H242681   5.733   0.348   2.147 -0.2591 -0.7315  2.3790
14248TIP3   OH242682   0.492   5.069   5.954 -0.6285 -0.1786 -0.0931
14248TIP3    H142683   0.457   5.113   5.876 -0.0556 -3.4149 -2.2743
14248TIP3    H242684   0.416   5.026   5.994 -0.2952 -1.7806 -1.1356
14249TIP3   OH242685   7.835   6.693   6.144  0.4316 -0.2694  0.2548
14249TIP3    H142686   7.766   6.644   6.098  0.0318 -0.1759  0.7608
14249TIP3    H242687   7.811   6.785   6.133  0.5208 -0.2336  0.3679
14250TIP3   OH242688   4.626   3.624   0.827  0.1801 -0.0160 -0.3111
14250TIP3    H142689   4.657   3.604   0.738 -0.1524 -0.3897 -0.3420
14250TIP3    H242690   4.688   3.579   0.884 -1.8554 -3.0390 -0.4038
14251TIP3   OH242691   5.452   5.942   6.174  0.1803 -0.2634 -0.1379
14251TIP3    H142692   5.436   5.887   6.251  1.4482  0.2036  0.4760
14251TIP3    H242693   5.416   5.891   6.101  3.9985 -3.3425 -0.0284
14252TIP3   OH242694   4.941   2.153   0.769  0.8934  0.4216  0.0713
14252TIP3    H142695   4.914   2.208   0.842  2.3079  1.0781  0.1290
14252TIP3    H242696   5.037   2.153   0.774  0.9637 -0.4316 -1.1155
14253TIP3   OH242697   5.915   0.943   1.730  0.1655  0.7669 -0.0333
14253TIP3    H142698   5.953   0.915   1.813  0.3329  0.2966 -0.2617
14253TIP3    H242699   5.907   0.862   1.679  0.4352  1.1014 -0.6209
14254TIP3   OH242700   6.368   6.706   6.390  0.0948 -0.4193  0.2299
14254TIP3    H142701   6.463   6.695   6.388  0.0340 -0.9326 -0.0032
14254TIP3    H242702   6.339   6.645   6.458 -0.2344 -1.6175 -0.9596
14255TIP3   OH242703   7.469   5.168   6.655  0.1283  0.1153 -0.1020
14255TIP3    H142704   7.562   5.190   6.653  0.2911 -0.5013  0.6161
14255TIP3    H242705   7.441   5.174   6.563  0.5550  1.6396 -0.1567
14256TIP3   OH242706   4.267   3.117   0.218 -0.4047 -0.1384  0.1947
14256TIP3    H142707   4.204   3.089   0.152 -0.0537  1.7985 -1.0339
14256TIP3    H242708   4.219   3.112   0.301 -1.8146  0.1763 -0.5740
14257TIP3   OH242709   3.220   6.777   5.528 -0.7252  0.0748 -0.1877
14257TIP3    H142710   3.191   6.810   5.613  1.2723 -0.8110  0.8850
14257TIP3    H242711   3.142   6.738   5.489 -1.4965 -0.2301  1.6199
14258TIP3   OH242712   2.233   1.436   1.502 -0.6054 -0.9784 -0.2335
14258TIP3    H142713   2.181   1.468   1.428 -0.4832 -1.3354 -0.4790
14258TIP3    H242714   2.177   1.446   1.578 -0.4660  0.0765 -0.2642
14259TIP3   OH242715   3.620   1.570   0.737  0.4962 -0.0960 -0.0974
14259TIP3    H142716   3.689   1.634   0.758  1.6713 -1.9256  1.7242
14259TIP3    H242717   3.550   1.589   0.799  0.7610 -0.4306  0.3069
14260TIP3   OH242718   3.864   2.167   0.494 -0.3555  0.1888 -0.2902
14260TIP3    H142719   3.810   2.197   0.422 -0.2663  0.7507 -0.1223
14260TIP3    H242720   3.813   2.097   0.535 -0.0290 -0.7189 -1.4240
14261TIP3   OH242721   6.094   5.077   6.551 -0.0874  0.0972  0.5163
14261TIP3    H142722   6.013   5.121   6.527  0.3471  0.4503 -0.3260
14261TIP3    H242723   6.066   4.990   6.580 -0.6101 -0.5399 -1.7719
14262TIP3   OH242724   0.045   6.970   0.700 -0.3363  0.2630 -0.6610
14262TIP3    H142725   0.116   6.990   0.638 -2.1633  0.7280 -2.6792
14262TIP3    H242726  -0.005   6.900   0.657 -0.1923 -1.1979  1.4792
14263TIP3   OH242727   0.922   1.013   6.913  0.0645  0.0019  0.2580
14263TIP3    H142728   0.871   1.072   6.857 -1.1897 -0.3652  1.0045
14263TIP3    H242729   0.954   0.945   6.853 -1.2207 -0.3597 -0.0203
14264TIP3   OH242730   0.065   5.972   5.819 -0.0459  0.0490 -0.0268
14264TIP3    H142731   0.062   5.908   5.748 -0.1145 -1.3547  1.2050
14264TIP3    H242732   0.159   5.982   5.838 -0.0781 -0.4456  0.4246
14265TIP3   OH242733   7.198   2.997   0.370 -0.4332  0.1063 -0.1225
14265TIP3    H142734   7.291   2.995   0.391 -0.3748 -0.0089 -0.3826
14265TIP3    H242735   7.168   2.907   0.384 -0.4358  0.0724 -0.3395
14266TIP3   OH242736   0.056   5.827   5.590 -0.2009  0.1591 -0.5429
14266TIP3    H142737   0.034   5.734   5.601 -1.4190  0.4436 -0.4375
14266TIP3    H242738   0.079   5.836   5.498 -2.1140  0.1343 -1.0489
14267TIP3   OH242739   7.676   7.186   5.050 -0.7143 -0.4871  0.2564
14267TIP3    H142740   7.618   7.179   4.975 -0.5075 -2.0772  0.2284
14267TIP3    H242741   7.744   7.121   5.034  1.5143  1.8337 -0.0775
14268TIP3   OH242742   5.782   6.053   6.539 -0.1715 -0.2165  0.1309
14268TIP3    H142743   5.754   6.031   6.450  0.2338 -1.2006  0.2425
14268TIP3    H242744   5.791   6.148   6.538  0.2445 -0.2584 -1.0143
14269TIP3   OH242745   3.030   3.408   1.880 -0.0005  0.0613  0.0243
14269TIP3    H142746   2.960   3.462   1.843  0.0604  0.4221  0.4278
14269TIP3    H242747   3.105   3.421   1.822  0.1528  0.7712  0.3787
14270TIP3   OH242748   2.912   1.277   0.671  0.0205  0.0586  0.0051
14270TIP3    H142749   2.899   1.236   0.585 -0.0010  2.4362 -1.1510
14270TIP3    H242750   3.006   1.295   0.675 -0.0840  0.5548  0.2074
14271TIP3   OH242751   8.024   5.402   6.254 -0.4544 -0.3418 -0.0704
14271TIP3    H142752   7.992   5.342   6.321  0.8759 -0.2761  0.6547
14271TIP3    H242753   8.117   5.379   6.244 -0.2859  0.6133 -0.8367
14272TIP3   OH242754   3.255   1.073   1.182 -0.2368  0.5333  0.2273
14272TIP3    H142755   3.334   1.041   1.138 -0.0569  0.9796  0.2294
14272TIP3    H242756   3.189   1.005   1.166  0.0539  0.3192 -0.0512
14273TIP3   OH242757   4.676   1.369   0.093 -0.3387 -0.2128 -0.3899
14273TIP3    H142758   4.638   1.448   0.130  1.1028  1.3635 -2.1901
14273TIP3    H242759   4.769   1.373   0.119 -0.1769 -1.1300 -0.8010
14274TIP3   OH242760   5.487   1.733   0.860  0.0860 -0.2529 -0.1151
14274TIP3    H142761   5.541   1.695   0.929 -0.1031  1.7103  1.1714
14274TIP3    H242762   5.435   1.801   0.905  0.4308  1.5004 -2.2694
14275TIP3   OH242763   4.479   0.262   2.024 -0.4154  0.3626  0.6270
14275TIP3    H142764   4.551   0.235   1.968  0.1591  0.7840  1.1485
14275TIP3    H242765   4.459   0.352   1.997 -0.5967  0.3237  0.6304
14276TIP3   OH242766   4.224   1.626   3.324 -0.2897  0.0603  0.5206
14276TIP3    H142767   4.297   1.648   3.266 -0.7640 -0.0400 -0.1247
14276TIP3    H242768   4.243   1.538   3.356  1.0299  0.9351  2.1805
14277TIP3   OH242769   6.983   7.585   4.204  0.0646  0.1269 -0.4231
14277TIP3    H142770   7.065   7.633   4.188  0.2120  0.6899  1.8659
14277TIP3    H242771   7.011   7.496   4.227  0.1312  0.6702  1.6880
14278TIP3   OH242772   3.313   0.979   0.378 -0.2301 -0.1732 -0.6100
14278TIP3    H142773   3.276   0.891   0.372 -1.5221  0.3872 -1.3234
14278TIP3    H242774   3.285   1.022   0.296 -0.0232  1.0386 -0.0618
14279TIP3   OH242775   6.546   5.945   6.097 -0.3555  0.4355 -0.1743
14279TIP3    H142776   6.587   5.966   6.012 -1.0061  3.0770  0.1372
14279TIP3    H242777   6.483   6.014   6.111  0.7282  0.8224  3.1632
14280TIP3   OH242778   3.565   2.140   2.237 -0.3198 -0.3480 -0.4086
14280TIP3    H142779   3.518   2.130   2.320 -0.6863 -1.2789 -0.7242
14280TIP3    H242780   3.643   2.192   2.260 -0.0038 -1.2883  0.6772
14281TIP3   OH242781   7.932   5.209   6.434 -0.2132 -0.2236  0.3447
14281TIP3    H142782   8.004   5.231   6.494  0.6700 -0.4695 -0.6065
14281TIP3    H242783   7.952   5.120   6.404 -0.9980 -0.3521  0.1937
14282TIP3   OH242784   0.076   6.805   5.225  0.1304 -0.1782 -0.0363
14282TIP3    H142785   0.094   6.721   5.267 -0.3302 -0.7975 -1.0543
14282TIP3    H242786  -0.013   6.795   5.190 -0.3299  1.0968  0.7143
14283TIP3   OH242787   5.549   1.651   0.261 -0.2874 -0.2963  0.2064
14283TIP3    H142788   5.633   1.648   0.216  0.0966 -1.4177  0.9640
14283TIP3    H242789   5.502   1.573   0.231 -0.9725  0.2106 -0.0528
14284TIP3   OH242790   6.345   3.604   6.504  0.3392 -0.1426 -0.0863
14284TIP3    H142791   6.258   3.592   6.466  0.4598 -1.4793  0.0617
14284TIP3    H242792   6.332   3.593   6.598 -0.0317  3.5734  0.3815
14285TIP3   OH242793   6.136   3.148   5.370  0.6041 -0.4465 -0.0357
14285TIP3    H142794   6.134   3.215   5.302 -1.0996  0.6252  1.0023
14285TIP3    H242795   6.198   3.181   5.435  1.9352 -1.2821 -0.8638
14286TIP3   OH242796   4.863   1.022   2.496  0.8050  0.3682  0.2953
14286TIP3    H142797   4.889   0.944   2.445 -1.1286  0.1925 -0.4712
14286TIP3    H242798   4.938   1.080   2.489  0.9422 -0.0096 -2.0957
14287TIP3   OH242799   6.178   6.198   6.859 -0.0524 -0.0156  0.4043
14287TIP3    H142800   6.195   6.176   6.768 -1.5706  0.2520  0.0428
14287TIP3    H242801   6.083   6.189   6.869 -0.2618  2.5834  1.2507
14288TIP3   OH242802   5.586   1.330   0.947  0.4524  0.0967  0.3094
14288TIP3    H142803   5.613   1.249   0.990 -1.6747 -0.4196  0.7258
14288TIP3    H242804   5.570   1.306   0.856  1.1726  0.3546  0.1121
14289TIP3   OH242805   3.833   0.411   1.105  0.1445  0.1777  0.3352
14289TIP3    H142806   3.894   0.483   1.087  0.4859 -0.5468 -1.5654
14289TIP3    H242807   3.764   0.451   1.159  1.4143  1.4073  1.0820
14290TIP3   OH242808   1.123   3.099   5.735  0.0487  0.2980 -0.2413
14290TIP3    H142809   1.039   3.065   5.767 -0.0633  0.2107 -0.6216
14290TIP3    H242810   1.109   3.194   5.726  0.3528  0.4436  0.7944
14291TIP3   OH242811   6.298   1.370   0.730  0.2526  0.0534  0.2006
14291TIP3    H142812   6.222   1.327   0.768  0.3680 -0.3761 -0.0480
14291TIP3    H242813   6.367   1.304   0.733  0.4843  0.2843 -0.0071
14292TIP3   OH242814   3.215   1.372   0.990  0.1326  0.3497  0.6073
14292TIP3    H142815   3.123   1.346   0.988 -0.2655  1.7273 -0.2236
14292TIP3    H242816   3.260   1.305   0.939 -0.3558 -0.5555  1.3672
14293TIP3   OH242817   5.297   0.487   0.578 -0.0838 -0.0130  0.4060
14293TIP3    H142818   5.346   0.565   0.605 -0.1190  0.2732 -0.3378
14293TIP3    H242819   5.364   0.419   0.567 -0.1116 -0.2183  1.5346
14294TIP3   OH242820   3.580   1.326   1.369  0.1406  0.3821  0.3083
14294TIP3    H142821   3.597   1.420   1.355 -0.4170  0.4249 -0.0819
14294TIP3    H242822   3.497   1.324   1.416 -0.3363  0.0491 -0.5353
14295TIP3   OH242823   3.871   0.012   1.280 -0.2969 -0.2715  0.4808
14295TIP3    H142824   3.961   0.029   1.254 -0.2816 -1.8220 -0.5236
14295TIP3    H242825   3.818   0.063   1.218 -0.1406 -0.2835  0.3386
14296TIP3   OH242826   5.234   7.003   6.464  0.1629  0.5614 -0.4276
14296TIP3    H142827   5.291   7.066   6.421 -1.1599  0.8279 -1.8399
14296TIP3    H242828   5.205   6.944   6.394 -0.6920 -0.0150  0.3943
14297TIP3   OH242829   0.153   5.905   5.332 -0.5128  0.1859  0.1899
14297TIP3    H142830   0.108   5.967   5.275  0.2681  0.3440 -0.2579
14297TIP3    H242831   0.246   5.922   5.318 -0.2860 -0.9498  0.1964
14298TIP3   OH242832   2.588   4.813   0.197  0.7704  0.6428 -0.1399
14298TIP3    H142833   2.673   4.824   0.240  0.6729  0.6730  0.0469
14298TIP3    H242834   2.567   4.721   0.208 -0.2029  1.0478  1.6788
14299TIP3   OH242835   3.393   7.075   1.476 -0.2826  0.0925  0.1541
14299TIP3    H142836   3.308   7.043   1.447  0.2297  0.5969 -2.0121
14299TIP3    H242837   3.447   7.075   1.397  1.3635  0.9475  1.2442
14300TIP3   OH242838   5.529   1.830  -0.017 -0.2607  0.6825  0.3906
14300TIP3    H142839   5.536   1.779   0.064 -1.6285  2.1384  1.4479
14300TIP3    H242840   5.594   1.900  -0.007 -0.5866  0.9947  0.3280
14301TIP3   OH242841   8.159   3.371   6.751  0.1950 -0.1071  0.0505
14301TIP3    H142842   8.235   3.417   6.786  0.6767 -2.1684  1.8331
14301TIP3    H242843   8.088   3.435   6.755  1.6544  1.6383 -1.0394
14302TIP3   OH242844   4.709   4.883   5.866  0.2397  0.2183  0.3122
14302TIP3    H142845   4.700   4.936   5.786  0.7564 -0.4086 -0.1638
14302TIP3    H242846   4.803   4.883   5.884  0.3277 -1.0955 -0.0799
14303TIP3   OH242847   3.613   0.766   0.056 -0.5619  0.3679 -0.3834
14303TIP3    H142848   3.536   0.822   0.044 -1.0570 -0.3616 -0.6198
14303TIP3    H242849   3.687   0.822   0.032 -1.0514  0.9244 -0.6040
14304TIP3   OH242850   8.510   7.876   0.017  0.2509 -0.2338  0.1945
14304TIP3    H142851   8.532   7.969   0.028  0.4356 -0.4009  1.2072
14304TIP3    H242852   8.416   7.872   0.034  0.4725 -0.4349  1.3904
14305TIP3   OH242853   0.273   6.707   5.552  0.2485  0.5420 -0.2328
14305TIP3    H142854   0.339   6.677   5.489 -1.1816 -3.8300  0.1497
14305TIP3    H242855   0.195   6.657   5.529 -1.3241  1.5413  2.7678
14306TIP3   OH242856   7.967   5.502   5.735  0.1750  0.0461 -1.0271
14306TIP3    H142857   7.962   5.534   5.645  0.1539 -1.0361 -1.4231
14306TIP3    H242858   7.889   5.447   5.745  0.4934 -0.3199 -0.5458
14307TIP3   OH242859   7.125   6.774   6.595  0.3839 -0.0544 -0.0145
14307TIP3    H142860   7.123   6.722   6.675  0.0804  0.5005  0.3401
14307TIP3    H242861   7.191   6.732   6.541  2.1687  0.8755  1.4061
14308TIP3   OH242862   6.147   4.838   6.936  0.4799  0.3661 -0.2275
14308TIP3    H142863   6.102   4.765   6.979  0.6245  0.1912 -0.3737
14308TIP3    H242864   6.166   4.807   6.848 -0.1898  0.8824 -0.5524
14309TIP3   OH242865   7.825   6.888   0.703  0.3634 -0.4585 -0.1819
14309TIP3    H142866   7.908   6.869   0.747 -0.3933 -2.1359  0.5469
14309TIP3    H242867   7.774   6.939   0.766 -0.4651 -2.3098  0.6846
14310TIP3   OH242868   6.901   4.794   4.303  0.1621 -0.1772 -0.3105
14310TIP3    H142869   6.905   4.789   4.207  2.0799  0.0774 -0.2542
14310TIP3    H242870   6.947   4.875   4.325 -0.6190 -0.0282  0.8048
14311TIP3   OH242871   1.882   7.013   4.863  0.2304  0.1014 -0.1101
14311TIP3    H142872   1.970   7.020   4.899  1.3239 -2.0784 -2.1847
14311TIP3    H242873   1.873   7.091   4.808  0.7482  0.5094  0.3773
14312TIP3   OH242874   4.945   2.191   1.251  0.2500  0.0563  0.4306
14312TIP3    H142875   5.011   2.123   1.261 -1.3077 -2.0755 -2.7081
14312TIP3    H242876   4.879   2.171   1.317 -0.7840 -2.2814 -1.2583
14313TIP3   OH242877   7.623   0.205   3.152 -0.0212 -0.0702 -0.0121
14313TIP3    H142878   7.718   0.215   3.148  0.0748 -0.9800 -0.1500
14313TIP3    H242879   7.600   0.156   3.073 -0.9244  2.3355 -1.2720
14314TIP3   OH242880   1.103   0.288   6.547 -0.4670  0.3637 -0.5565
14314TIP3    H142881   1.074   0.261   6.460  0.1465  0.2738 -0.7325
14314TIP3    H242882   1.107   0.206   6.597  0.8996  0.1931 -0.9462
14315TIP3   OH242883   4.428   1.864   2.001 -0.0116 -0.1089 -0.1351
14315TIP3    H142884   4.498   1.855   1.936  1.8597 -0.3604  1.8275
14315TIP3    H242885   4.446   1.795   2.065 -1.0463  0.9076  1.2899
14316TIP3   OH242886   7.545   7.399   3.154  0.5031  0.6533 -0.5472
14316TIP3    H142887   7.530   7.358   3.239 -1.6504  3.3776  0.4750
14316TIP3    H242888   7.570   7.327   3.096  3.1751 -1.0776  2.6391
14317TIP3   OH242889   5.481   2.183   0.187  0.2657 -0.0085  0.2931
14317TIP3    H142890   5.545   2.130   0.140  1.0553  0.1590  1.1657
14317TIP3    H242891   5.454   2.250   0.124  0.4387 -0.4970 -0.3004
14318TIP3   OH242892   5.683   2.696   1.002 -0.1585  0.3333 -0.3316
14318TIP3    H142893   5.667   2.612   0.958 -0.0320  0.4445 -0.5950
14318TIP3    H242894   5.659   2.761   0.936  1.7659  0.5035 -0.8791
14319TIP3   OH242895   6.793   2.424   0.726 -0.2633  0.3622 -0.4132
14319TIP3    H142896   6.739   2.433   0.805 -1.3407 -0.1612 -1.0707
14319TIP3    H242897   6.878   2.395   0.758 -1.4027 -2.2205  0.3613
14320TIP3   OH242898   7.344   5.535   5.470 -0.6992  0.5254  0.8182
14320TIP3    H142899   7.289   5.457   5.472 -1.4183  1.0457  2.3586
14320TIP3    H242900   7.418   5.513   5.526 -0.3875  0.5802  0.4275
14321TIP3   OH242901   6.160   1.544   0.592  0.0299 -0.7792  0.2036
14321TIP3    H142902   6.230   1.572   0.533 -0.3330 -0.4382 -0.0611
14321TIP3    H242903   6.204   1.484   0.654  0.3396 -1.3917 -0.5969
14322TIP3   OH242904   1.807   4.842   6.431 -0.0240  0.2378 -0.2992
14322TIP3    H142905   1.813   4.748   6.450  1.9178  0.4640  0.2871
14322TIP3    H242906   1.851   4.852   6.346  2.1449  0.9584  0.8589
14323TIP3   OH242907   0.103   3.320   4.816  0.5353  0.2204  0.2153
14323TIP3    H142908   0.054   3.365   4.885 -1.1615  1.0010 -1.4590
14323TIP3    H242909   0.172   3.382   4.791  0.1824  0.5881  0.1390
14324TIP3   OH242910   6.258   1.404   1.260 -0.9191 -0.1529  0.3952
14324TIP3    H142911   6.297   1.413   1.173  0.1382 -0.9849  0.7742
14324TIP3    H242912   6.195   1.476   1.265 -1.3146 -0.3639 -1.2240
14325TIP3   OH242913   3.130   7.698   5.425  0.3391 -0.0831  0.0871
14325TIP3    H142914   3.216   7.697   5.382  1.1806  0.0645  1.7283
14325TIP3    H242915   3.129   7.780   5.474 -0.8868  0.0771 -0.1789
14326TIP3   OH242916   8.032   5.584   5.435  0.4244  0.3595 -0.1982
14326TIP3    H142917   8.069   5.661   5.477  1.3447 -0.0690 -0.2121
14326TIP3    H242918   8.108   5.536   5.402 -0.1722 -0.3051 -0.6169
14327TIP3   OH242919   5.567   2.521   1.716 -0.4253 -0.8379 -0.6645
14327TIP3    H142920   5.645   2.509   1.770 -1.0196 -1.1280  0.1426
14327TIP3    H242921   5.582   2.603   1.669 -0.6808  0.3703  1.3015
14328TIP3   OH242922   7.738   5.671   6.430 -0.0093  0.1142  0.0731
14328TIP3    H142923   7.737   5.761   6.464 -0.1894 -0.4465  1.5979
14328TIP3    H242924   7.815   5.631   6.471  1.2925  0.1828 -2.2597
14329TIP3   OH242925   3.166   7.603   4.834 -0.5340 -0.1931  0.6767
14329TIP3    H142926   3.096   7.547   4.869 -0.0046 -0.2393  1.6828
14329TIP3    H242927   3.235   7.543   4.808 -0.0859 -0.0418  1.4836
14330TIP3   OH242928   7.150   3.530   6.749  0.1201  0.2202 -0.4263
14330TIP3    H142929   7.235   3.552   6.711  0.6899 -0.4643  0.4471
14330TIP3    H242930   7.163   3.446   6.792 -0.5449  0.9090  1.1669
14331TIP3   OH242931   5.853   6.889   4.729  0.3081 -0.1923 -0.3953
14331TIP3    H142932   5.849   6.917   4.637 -2.3757 -1.1155 -0.5947
14331TIP3    H242933   5.924   6.942   4.766  0.3546  1.3888 -2.5797
14332TIP3   OH242934   5.287   1.670   0.693 -0.1142  0.0401  0.6091
14332TIP3    H142935   5.336   1.641   0.616  0.0650 -2.1383  1.5320
14332TIP3    H242936   5.354   1.698   0.755 -0.1497 -0.4984  0.8905
14333TIP3   OH242937   0.879   5.842   4.598  0.5306 -0.2270  0.6237
14333TIP3    H142938   0.944   5.815   4.664  0.4095 -0.2005  0.7538
14333TIP3    H242939   0.932   5.872   4.524  0.6640 -1.3172  0.2696
14334TIP3   OH242940   6.711   2.462   1.012 -0.3152 -0.1087 -0.2173
14334TIP3    H142941   6.647   2.509   0.958 -1.5834 -2.1671 -0.5473
14334TIP3    H242942   6.659   2.403   1.066  1.2799 -1.7327 -0.3948
14335TIP3   OH242943   8.418   3.746   6.347  0.6619 -0.1977  0.0860
14335TIP3    H142944   8.399   3.699   6.429  0.9013  3.3488  2.2742
14335TIP3    H242945   8.506   3.716   6.322  0.8200 -0.9037  1.4439
14336TIP3   OH242946   5.411   1.568   2.292 -0.4684 -0.0136 -0.3973
14336TIP3    H142947   5.432   1.635   2.357  1.0852  0.3167 -1.2090
14336TIP3    H242948   5.402   1.488   2.342 -0.3643  0.4401  0.3568
14337TIP3   OH242949   5.662   0.379   0.169  0.8791  0.1726 -0.1252
14337TIP3    H142950   5.696   0.342   0.250  0.7182  2.4857  1.0458
14337TIP3    H242951   5.568   0.361   0.172  0.3842  2.7427  1.6531
14338TIP3   OH242952   7.701   6.227   6.409  0.2272  0.2714  0.0085
14338TIP3    H142953   7.770   6.206   6.472  0.3561  1.3076  0.2169
14338TIP3    H242954   7.687   6.321   6.418 -1.8688 -0.0739  0.6188
14339TIP3   OH242955   6.000   2.702   0.198 -0.2404  0.2446 -0.2695
14339TIP3    H142956   5.951   2.754   0.262 -0.2625 -0.8544  0.6170
14339TIP3    H242957   6.070   2.662   0.248  0.1516 -0.0881 -1.0755
14340TIP3   OH242958   6.133   1.462   1.553  0.2294 -0.1125 -0.0969
14340TIP3    H142959   6.115   1.394   1.488  1.2826  1.4542 -2.0610
14340TIP3    H242960   6.052   1.468   1.605 -0.2661 -2.0653 -0.5995
14341TIP3   OH242961   7.218   1.726   0.826 -0.1489  0.1076  0.7335
14341TIP3    H142962   7.123   1.727   0.842 -0.6113 -1.7692 -1.5591
14341TIP3    H242963   7.256   1.700   0.910 -1.6213  1.2512  1.7793
14342TIP3   OH242964   8.174   1.286   1.893 -0.9239  0.1823 -0.2617
14342TIP3    H142965   8.139   1.369   1.927  0.4699  0.3598  0.8033
14342TIP3    H242966   8.204   1.240   1.971 -0.5779 -0.7965 -0.9699
14343TIP3   OH242967   6.027   1.912   1.092 -0.1062 -0.0718 -0.0051
14343TIP3    H142968   5.989   1.895   1.178 -0.3203  0.6126  0.0382
14343TIP3    H242969   6.116   1.877   1.098  0.5664  1.7821  1.1698
14344TIP3   OH242970   7.751   1.259   0.529 -0.1753 -0.0625 -0.1541
14344TIP3    H142971   7.700   1.212   0.462 -1.3926 -1.1424  1.4828
14344TIP3    H242972   7.687   1.280   0.597  1.0211  1.1400  0.6261
14345TIP3   OH242973   7.834   4.902   1.822  0.2378 -0.3743 -0.1324
14345TIP3    H142974   7.769   4.912   1.752  1.8446 -1.2778 -1.8033
14345TIP3    H242975   7.800   4.955   1.894 -0.0324  2.9197 -2.5899
14346TIP3   OH242976   0.502   5.446   6.753  0.2936  0.0645 -0.0947
14346TIP3    H142977   0.425   5.436   6.809  1.0441 -0.5892  0.8208
14346TIP3    H242978   0.519   5.358   6.719 -1.3134  0.7755 -2.9286
14347TIP3   OH242979   4.607   7.476   2.676  0.1693  0.3066 -0.4252
14347TIP3    H142980   4.652   7.411   2.731 -0.1505  0.5206  0.1018
14347TIP3    H242981   4.518   7.477   2.710  0.1724  1.0137 -0.4336
14348TIP3   OH242982   7.236   1.774   0.375  0.8625  0.4623 -0.2532
14348TIP3    H142983   7.284   1.770   0.458  0.6573 -2.3099 -0.2011
14348TIP3    H242984   7.202   1.863   0.371  1.2801  0.7956  2.4072
14349TIP3   OH242985   0.762   3.891   0.072 -0.5717  0.6619  0.1920
14349TIP3    H142986   0.823   3.818   0.063  0.4203  1.3369  1.3207
14349TIP3    H242987   0.729   3.883   0.161 -1.8919  0.5016 -0.3033
14350TIP3   OH242988   0.173   3.272   0.889 -0.4101  0.0941 -0.0126
14350TIP3    H142989   0.188   3.218   0.811  1.9754 -2.3512  2.0400
14350TIP3    H242990   0.241   3.339   0.884  0.3354 -0.6166  0.4040
14351TIP3   OH242991   6.820   2.885   2.840  0.1468  0.2954 -0.1982
14351TIP3    H142992   6.897   2.829   2.835  0.6419  1.1010 -1.7740
14351TIP3    H242993   6.846   2.957   2.898 -0.1003 -0.4812  0.8842
14352TIP3   OH242994   0.455   0.968   0.169 -0.2915 -0.5645  0.3254
14352TIP3    H142995   0.462   0.936   0.079 -0.9189  0.5234 -0.1095
14352TIP3    H242996   0.370   1.012   0.173  0.2342  0.3986  1.1377
14353TIP3   OH242997   0.715   2.614   1.094 -0.4888  0.5399  0.1704
14353TIP3    H142998   0.689   2.678   1.027 -0.2224  0.3670 -0.0983
14353TIP3    H242999   0.643   2.551   1.096 -1.3146  1.5163  1.2931
14354TIP3   OH243000   4.571   7.820   1.423  0.1524  0.4551  0.3867
14354TIP3    H143001   4.606   7.834   1.510  1.2445  1.3449 -0.1866
14354TIP3    H243002   4.538   7.730   1.424  0.1936  0.4534  1.6899
14355TIP3   OH243003   2.864   7.285   6.571 -0.1180  0.3975  0.4339
14355TIP3    H143004   2.941   7.231   6.556 -0.9167 -0.4353 -0.7689
14355TIP3    H243005   2.851   7.283   6.665 -1.0152 -2.7573  0.2916
14356TIP3   OH243006   1.067   7.174   6.648  0.4020  0.2816 -0.4721
14356TIP3    H143007   1.144   7.230   6.658 -1.1188  2.5285 -0.9054
14356TIP3    H243008   1.010   7.200   6.720 -0.1597 -1.0086 -0.4510
14357TIP3   OH243009   0.670   4.063   0.725  0.5414 -0.3510 -0.1384
14357TIP3    H143010   0.598   4.078   0.665 -0.0193  0.4106  0.7136
14357TIP3    H243011   0.748   4.089   0.676  0.1007  0.1835 -0.5561
14358TIP3   OH243012   7.381   1.354   1.528  0.5659 -0.4151 -0.0581
14358TIP3    H143013   7.363   1.404   1.608 -0.4397 -1.3393  0.3129
14358TIP3    H243014   7.372   1.263   1.555 -1.6978 -0.7143 -1.6452
14359TIP3   OH243015   8.267   2.897   2.302 -0.2814 -0.2151 -0.5181
14359TIP3    H143016   8.342   2.935   2.255 -0.0828 -0.3025 -0.2761
14359TIP3    H243017   8.197   2.961   2.291 -0.2374 -0.2347 -0.9365
14360TIP3   OH243018   7.704   3.209   2.725 -0.1362 -0.0294  0.0734
14360TIP3    H143019   7.641   3.217   2.653 -2.1647  2.3976  2.0391
14360TIP3    H243020   7.770   3.276   2.706  0.5857 -0.9649 -0.7384
14361TIP3   OH243021   3.384   3.526   5.870 -0.1288 -0.3993  0.0521
14361TIP3    H143022   3.397   3.514   5.776 -0.8603 -0.1040 -0.0918
14361TIP3    H243023   3.331   3.605   5.876  3.8413  2.3538  0.9313
14362TIP3   OH243024   1.867   7.408   5.215  0.0380 -0.5014 -0.2396
14362TIP3    H143025   1.808   7.441   5.282  0.9781  0.6874  0.0228
14362TIP3    H243026   1.870   7.313   5.230 -1.4459 -0.5092  0.0137
14363TIP3   OH243027   1.727   1.225   0.388  0.1277 -0.2526  0.2696
14363TIP3    H143028   1.668   1.301   0.395  0.0655 -0.2289 -0.4993
14363TIP3    H243029   1.668   1.151   0.372  0.1954 -0.4544  0.9368
14364TIP3   OH243030   4.831   0.404   6.547 -0.0726 -1.1572 -0.5024
14364TIP3    H143031   4.847   0.429   6.638  1.0053 -0.2915 -0.9154
14364TIP3    H243032   4.739   0.380   6.544 -0.9823  2.0824  0.0736
14365TIP3   OH243033   2.155   6.430   6.629 -0.3795 -0.2282  0.1554
14365TIP3    H143034   2.089   6.495   6.606  0.3117 -0.0234 -1.2639
14365TIP3    H243035   2.211   6.423   6.552  0.8854 -0.8720  1.1099
14366TIP3   OH243036   8.066   2.299   2.025 -0.0217  0.4061  0.3580
14366TIP3    H143037   8.023   2.381   2.050  0.1095  0.6668 -0.2475
14366TIP3    H243038   8.032   2.280   1.937  0.3532  0.0953  0.2771
14367TIP3   OH243039   2.711   5.124   6.253 -0.0617 -0.5452 -0.4335
14367TIP3    H143040   2.736   5.039   6.290  1.3054  0.1808  0.3634
14367TIP3    H243041   2.616   5.129   6.266 -0.5147 -2.9050 -2.5239
14368TIP3   OH243042   1.078   2.370   1.958 -0.5118  0.2383  0.2775
14368TIP3    H143043   1.074   2.296   1.897 -0.5312 -0.1096  0.6986
14368TIP3    H243044   1.065   2.447   1.903  1.9478  0.1162 -0.5353
14369TIP3   OH243045   8.187   1.818   2.623  0.8147 -0.8571 -0.1995
14369TIP3    H143046   8.232   1.886   2.572 -2.5464  1.4610 -0.2183
14369TIP3    H243047   8.225   1.826   2.711  1.4415  0.1160 -0.5457
14370TIP3   OH243048   7.353   2.684   0.980 -0.0721 -0.2306  0.1996
14370TIP3    H143049   7.374   2.764   1.029  1.6478  0.2382 -1.2666
14370TIP3    H243050   7.264   2.697   0.950 -0.5688  0.1933  1.7898
14371TIP3   OH243051   7.753   1.739   1.700 -0.0996  0.4145  0.4533
14371TIP3    H143052   7.793   1.744   1.613 -0.3920 -2.4602  0.1069
14371TIP3    H243053   7.818   1.777   1.759  1.6960 -1.0735 -0.5402
14372TIP3   OH243054   1.110   4.662   5.951  0.0921  0.1554 -0.0024
14372TIP3    H143055   1.073   4.687   5.866  1.2788  0.9425 -0.3078
14372TIP3    H243056   1.068   4.578   5.972 -2.4852  1.3992  0.0749
14373TIP3   OH243057   0.971   0.948   1.293  0.0250  0.1665 -0.1741
14373TIP3    H143058   1.019   1.013   1.242 -0.8477  0.7254 -0.2891
14373TIP3    H243059   1.034   0.918   1.359  1.2980 -0.8369 -1.7866
14374TIP3   OH243060   1.621   6.260   6.962  0.3160 -0.6376 -1.1833
14374TIP3    H143061   1.537   6.307   6.960 -0.1590 -1.4634 -0.7121
14374TIP3    H243062   1.673   6.303   6.895 -0.4217 -0.0006 -1.3659
14375TIP3   OH243063   7.542   1.241   2.144  1.0081 -0.0142  0.2494
14375TIP3    H143064   7.545   1.324   2.192  1.6464 -0.0825  0.3295
14375TIP3    H243065   7.595   1.256   2.066  0.7365 -0.1985  0.0299
14376TIP3   OH243066   1.027   3.011   1.973 -0.3569  0.2644  0.5416
14376TIP3    H143067   0.980   2.985   1.894  0.0368  0.2800  0.3038
14376TIP3    H243068   1.117   3.027   1.944 -0.6476  2.1871  0.6012
14377TIP3   OH243069   6.372   1.388   2.483  0.0568 -0.3602  0.2622
14377TIP3    H143070   6.411   1.439   2.555  0.7348 -0.7868  0.1976
14377TIP3    H243071   6.445   1.367   2.426 -0.5440  0.3186 -0.7828
14378TIP3   OH243072   7.561   2.345   1.907 -0.2554  0.2071 -0.1052
14378TIP3    H143073   7.481   2.386   1.940 -0.6842 -0.4301 -0.3450
14378TIP3    H243074   7.557   2.358   1.812  0.6281  1.4200  0.0235
14379TIP3   OH243075   0.227   3.944   0.616 -0.2223 -0.2113 -0.5098
14379TIP3    H143076   0.204   3.911   0.529 -1.1343 -0.7398 -0.0721
14379TIP3    H243077   0.260   3.867   0.663  2.7742  0.5936 -1.2266
14380TIP3   OH243078   7.630   1.184   3.015  0.0049 -0.0051  0.2972
14380TIP3    H143079   7.536   1.176   2.998 -0.1036  0.5836  0.6073
14380TIP3    H243080   7.640   1.156   3.106  0.0744  0.3377  0.3933
14381TIP3   OH243081   1.562   3.930   1.930 -0.1081  0.0969 -0.4956
14381TIP3    H143082   1.546   3.849   1.978  0.0551  1.1146  1.2999
14381TIP3    H243083   1.653   3.952   1.949  0.1192  0.2416 -1.6955
14382TIP3   OH243084   0.695   1.337   0.860 -0.0996  0.0045 -0.3607
14382TIP3    H143085   0.737   1.366   0.779 -0.8105 -0.2867 -0.8447
14382TIP3    H243086   0.750   1.372   0.930  0.7079 -0.0279 -0.9748
14383TIP3   OH243087   0.317   1.768   1.749  0.5892  0.2284 -0.3421
14383TIP3    H143088   0.316   1.780   1.844 -0.3723 -2.9028  0.1072
14383TIP3    H243089   0.401   1.725   1.731 -0.8437 -2.7405 -0.3267
14384TIP3   OH243090   8.451   2.947   1.076 -0.3714  0.3392 -0.6547
14384TIP3    H143091   8.387   2.975   1.010 -0.5941 -1.0838 -1.0675
14384TIP3    H243092   8.461   3.023   1.134 -1.1093  1.1762 -1.6079
14385TIP3   OH243093   7.415   4.429   1.816  0.0295  0.2873 -0.2171
14385TIP3    H143094   7.390   4.504   1.871  1.5390 -0.0832  1.0233
14385TIP3    H243095   7.485   4.464   1.760 -0.5121  0.2765 -0.9056
14386TIP3   OH243096   2.478   0.900   1.998  0.1708 -0.2142 -0.6121
14386TIP3    H143097   2.570   0.905   2.024  0.6661  0.9518 -2.4680
14386TIP3    H243098   2.434   0.959   2.060  0.6686 -0.7259  0.2493
14387TIP3   OH243099   1.487   2.180   0.841  0.3779 -0.3383 -0.5401
14387TIP3    H143100   1.418   2.191   0.775  0.1943 -0.7199 -0.4176
14387TIP3    H243101   1.552   2.125   0.799 -0.0471 -1.1294 -0.1880
14388TIP3   OH243102   1.695   1.664   2.920  0.3540  0.0495 -0.8572
14388TIP3    H143103   1.640   1.607   2.866  0.2130 -0.0854 -0.5725
14388TIP3    H243104   1.768   1.688   2.863 -0.4349  0.9143 -1.5113
14389TIP3   OH243105   4.155   6.160   5.427 -0.2179  0.0368 -0.3057
14389TIP3    H143106   4.250   6.150   5.424 -0.2900 -0.7993  0.2541
14389TIP3    H243107   4.135   6.171   5.520 -0.8229 -1.2362 -0.2858
14390TIP3   OH243108   0.358   0.086   0.107 -0.7345  0.4747 -0.0159
14390TIP3    H143109   0.314   0.128   0.181  1.5082  1.2276  0.9475
14390TIP3    H243110   0.364   0.155   0.040 -2.7299 -0.1956 -0.9079
14391TIP3   OH243111   1.074   5.642   2.087  0.2524  0.7613 -0.0109
14391TIP3    H143112   1.074   5.714   2.149  0.2919  2.8486 -2.3628
14391TIP3    H243113   1.164   5.610   2.087 -0.0403 -0.1262  1.9375
14392TIP3   OH243114   2.219   2.695   3.001 -0.0802 -0.1137 -0.2086
14392TIP3    H143115   2.250   2.629   3.063  0.8846 -1.4053 -2.0244
14392TIP3    H243116   2.194   2.645   2.923  1.1419  1.6932 -1.8008
14393TIP3   OH243117   8.501   2.060   1.778 -1.4069 -0.4024  0.1865
14393TIP3    H143118   8.436   2.128   1.765  0.6320  1.4184 -0.8635
14393TIP3    H243119   8.471   1.986   1.726 -3.7436 -0.4080  1.4868
14394TIP3   OH243120   6.944   0.671   0.478 -0.9025 -0.3167 -0.1390
14394TIP3    H143121   7.022   0.714   0.442  1.0099 -1.1927  2.7379
14394TIP3    H243122   6.970   0.579   0.488 -2.5921 -0.7760  0.1364
14395TIP3   OH243123   8.296   1.208   1.256 -0.5106  0.3687 -0.2265
14395TIP3    H143124   8.265   1.148   1.325  1.5154 -0.0874  0.3405
14395TIP3    H243125   8.279   1.162   1.174  1.7100 -1.3743  0.2401
14396TIP3   OH243126   8.430   1.263   2.795 -0.7441 -0.4756 -0.4314
14396TIP3    H143127   8.506   1.270   2.737 -0.4574  0.1186  0.0108
14396TIP3    H243128   8.462   1.294   2.879 -1.7599  0.7603 -0.4955
14397TIP3   OH243129   1.369   3.268   0.206 -0.1552  0.2423  0.1482
14397TIP3    H143130   1.347   3.345   0.153 -2.2618  0.2237  0.9696
14397TIP3    H243131   1.451   3.292   0.249 -0.1101  1.5114 -0.6075
14398TIP3   OH243132   5.983   0.101   6.560  0.5749 -0.0267  0.6139
14398TIP3    H143133   6.049   0.169   6.569  1.1886 -0.5802  0.2983
14398TIP3    H243134   6.031   0.023   6.532 -0.3337 -0.1640 -0.6482
14399TIP3   OH243135   1.836   1.965   2.360 -0.1192  0.0893 -0.3688
14399TIP3    H143136   1.866   2.026   2.427 -0.0357  0.4775 -0.7597
14399TIP3    H243137   1.775   2.016   2.306  1.3073  0.3520 -1.7742
14400TIP3   OH243138   5.145   7.768   1.942 -0.2458 -0.2761 -0.3823
14400TIP3    H143139   5.236   7.792   1.925 -0.1561  1.2217  1.9927
14400TIP3    H243140   5.146   7.730   2.030 -2.0091  0.3520 -0.0773
14401TIP3   OH243141   0.461   3.118   0.694  0.1574  0.0767  0.2094
14401TIP3    H143142   0.491   3.192   0.745  1.8976 -1.4412  1.4292
14401TIP3    H243143   0.366   3.126   0.694  0.2308  1.1460  2.0663
14402TIP3   OH243144   4.236   5.734   6.804  0.4040  0.0292 -0.8353
14402TIP3    H143145   4.196   5.735   6.717  0.2882  0.8573 -0.7801
14402TIP3    H243146   4.172   5.778   6.860  2.3846  3.6154 -1.2096
14403TIP3   OH243147   0.810   2.327   0.442  0.4655  0.6564 -0.0166
14403TIP3    H143148   0.738   2.388   0.425  1.0754  1.3030 -0.3338
14403TIP3    H243149   0.811   2.317   0.537 -0.6259 -0.0785 -0.0833
14404TIP3   OH243150   5.344   0.086   6.959 -1.1583  0.1084 -0.2231
14404TIP3    H143151   5.421   0.140   6.938 -0.0034 -0.9163  1.2541
14404TIP3    H243152   5.350   0.013   6.897 -0.4908 -0.3815  0.4126
14405TIP3   OH243153   1.139   0.171   1.221  0.8044 -0.1338  0.5987
14405TIP3    H143154   1.045   0.158   1.228  0.7489  0.2079  0.4666
14405TIP3    H243155   1.163   0.214   1.304  0.7740  0.1868  0.4430
14406TIP3   OH243156   4.075   6.062   6.579  0.4767  0.1883 -0.3128
14406TIP3    H143157   4.029   6.144   6.562  0.6897  0.6267  1.1601
14406TIP3    H243158   4.146   6.087   6.638  0.4315 -1.0881  0.2783
14407TIP3   OH243159   2.746   6.470   6.184 -0.0123 -0.2243  0.8664
14407TIP3    H143160   2.813   6.530   6.215  0.2113  0.3685 -0.6987
14407TIP3    H243161   2.743   6.485   6.089 -0.8076 -1.8051  0.6270
14408TIP3   OH243162   0.921   2.873   1.374 -0.1918  0.3211 -0.1675
14408TIP3    H143163   0.999   2.910   1.416  0.0528 -0.5380  0.1347
14408TIP3    H243164   0.849   2.904   1.428 -0.0504  0.9800 -0.3493
14409TIP3   OH243165   2.057   2.715   0.514  0.6359 -0.5099 -0.2559
14409TIP3    H143166   2.051   2.795   0.461 -1.2770 -0.8625 -0.5972
14409TIP3    H243167   1.967   2.683   0.519  1.4108 -2.7741 -0.3129
14410TIP3   OH243168   8.329   3.912   2.169  0.3463 -0.1909 -0.1168
14410TIP3    H143169   8.335   3.952   2.083 -0.2351  0.5529  0.1815
14410TIP3    H243170   8.416   3.922   2.207  0.4548 -0.0306 -0.4087
14411TIP3   OH243171   2.219   1.456   2.520  0.4857  0.2062  0.3314
14411TIP3    H143172   2.280   1.498   2.581  1.2446  0.1457 -0.3824
14411TIP3    H243173   2.226   1.507   2.440  2.3416 -2.0221 -0.9496
14412TIP3   OH243174   4.377   0.046   6.253  0.1777 -0.0334 -0.3687
14412TIP3    H143175   4.344  -0.000   6.176 -0.5339  0.8135 -0.5778
14412TIP3    H243176   4.327   0.127   6.255  0.9118  0.4012  0.4122
14413TIP3   OH243177   7.171   0.832   5.743 -0.3436  0.0185 -0.4826
14413TIP3    H143178   7.116   0.877   5.680 -1.4959 -1.2756 -0.4348
14413TIP3    H243179   7.137   0.860   5.829  0.4341  0.8372 -0.4383
14414TIP3   OH243180   0.158   3.149   0.363  0.1262 -0.1433  0.6228
14414TIP3    H143181   0.083   3.096   0.338  0.2916 -0.4590  0.7827
14414TIP3    H243182   0.162   3.219   0.298  1.8139 -2.1493 -1.5008
14415TIP3   OH243183   2.847   6.337   6.437  0.0782 -0.2824 -0.5979
14415TIP3    H143184   2.866   6.295   6.353  0.1452 -3.1556  0.7920
14415TIP3    H243185   2.754   6.318   6.452  0.3315 -0.7095  0.4599
14416TIP3   OH243186   5.976   1.178   6.670  0.2898  0.1089  0.4249
14416TIP3    H143187   5.921   1.106   6.639 -0.0780  0.5190  0.1268
14416TIP3    H243188   6.016   1.144   6.750  0.5986 -0.6466 -0.0429
14417TIP3   OH243189   3.591   5.487   6.377  0.0635  0.0210 -0.1805
14417TIP3    H143190   3.648   5.515   6.306  0.1706 -0.0902 -0.1378
14417TIP3    H243191   3.505   5.521   6.353  0.6725  2.5456  1.1092
14418TIP3   OH243192   4.115   7.776   5.422  0.1975  0.0843 -0.4179
14418TIP3    H143193   4.086   7.690   5.390  0.1780  0.1792 -0.6517
14418TIP3    H243194   4.130   7.828   5.343 -1.9428  1.0124 -0.2622
14419TIP3   OH243195   1.724   0.710   2.092  0.2155  0.1062  0.2869
14419TIP3    H143196   1.753   0.801   2.087  0.4475 -0.0403 -1.2634
14419TIP3    H243197   1.677   0.705   2.175  1.3954  1.2825  1.0580
14420TIP3   OH243198   0.659   2.760   0.833 -0.1852  0.0249  0.6182
14420TIP3    H143199   0.713   2.834   0.806  0.1411  0.8382  3.3346
14420TIP3    H243200   0.683   2.690   0.773  1.8493  1.1870  0.0167
14421TIP3   OH243201   1.622   2.988   0.880 -0.0313 -0.3698 -0.1409
14421TIP3    H143202   1.529   2.995   0.858  0.3659 -1.7078 -2.4589
14421TIP3    H243203   1.648   3.077   0.901 -1.8119  0.0385  0.4767
14422TIP3   OH243204   1.386   1.541   1.941  0.4120 -0.2133 -0.1564
14422TIP3    H143205   1.314   1.571   1.996  0.2253  1.3338 -1.2214
14422TIP3    H243206   1.364   1.572   1.853  1.2071 -1.7809 -0.9256
14423TIP3   OH243207   0.976   0.391   0.624  0.6000  0.2167  0.0264
14423TIP3    H143208   0.999   0.473   0.668 -0.6542  0.0479  1.0020
14423TIP3    H243209   0.884   0.377   0.643  0.2514 -0.3470 -1.9031
14424TIP3   OH243210   2.874   0.372   1.702 -0.7680 -0.8040  0.2734
14424TIP3    H143211   2.908   0.455   1.668 -0.1040 -1.5066 -0.8175
14424TIP3    H243212   2.866   0.386   1.796 -1.5175  0.7949  0.0000
14425TIP3   OH243213   0.709   3.000   2.284 -0.0860  0.5604 -0.2402
14425TIP3    H143214   0.768   3.050   2.228  0.3728 -1.0089 -1.2058
14425TIP3    H243215   0.763   2.975   2.359  0.2853 -0.2614 -0.7746
14426TIP3   OH243216   7.790   1.754   1.437  0.2487 -0.0571  0.0442
14426TIP3    H143217   7.817   1.837   1.398  1.4018  0.4666  1.9314
14426TIP3    H243218   7.856   1.691   1.408 -0.6982 -0.3744 -1.4953
14427TIP3   OH243219   2.929   4.769   6.691  0.3146 -0.5298  0.3140
14427TIP3    H143220   2.984   4.728   6.624  2.3363 -3.7146  3.6880
14427TIP3    H243221   2.977   4.847   6.717  0.2675 -0.1053 -0.8236
14428TIP3   OH243222   3.111   6.490   5.633 -0.3512 -0.1364 -0.4973
14428TIP3    H143223   3.125   6.520   5.543  0.8532 -0.1407 -0.3064
14428TIP3    H243224   3.054   6.556   5.672  0.8066  0.9427 -0.6316
14429TIP3   OH243225   0.501   1.102   4.666  0.1026  0.3409  0.5565
14429TIP3    H143226   0.526   1.183   4.711  0.4918  0.5878 -0.1064
14429TIP3    H243227   0.515   1.120   4.573  0.5767 -0.6231  0.4360
14430TIP3   OH243228   8.239   2.635   0.534  0.2941 -0.8802 -0.3791
14430TIP3    H143229   8.195   2.566   0.584 -0.7485  1.8272  2.7007
14430TIP3    H243230   8.286   2.685   0.601 -0.1583  2.1975 -2.2924
14431TIP3   OH243231   8.267   1.274   3.731 -0.2946 -0.1520  0.3939
14431TIP3    H143232   8.181   1.233   3.740 -0.5926  0.3646 -0.0791
14431TIP3    H243233   8.329   1.201   3.734 -0.6901 -0.4428  1.6346
14432TIP3   OH243234   5.246   1.102   6.072  0.0274 -0.0573 -0.0755
14432TIP3    H143235   5.299   1.082   5.995  0.6608  0.5356  0.1939
14432TIP3    H243236   5.308   1.143   6.133 -0.5970  0.0221  0.5085
14433TIP3   OH243237   2.620   4.667   6.265 -0.4081 -0.0707  1.0632
14433TIP3    H143238   2.587   4.634   6.348  0.9061 -1.0891  1.1943
14433TIP3    H243239   2.696   4.612   6.245  0.9310  1.9040  0.5524
14434TIP3   OH243240   3.955   6.298   6.517 -0.1472  0.5816  0.8938
14434TIP3    H143241   3.894   6.341   6.578 -0.2785 -0.0322  1.2065
14434TIP3    H243242   3.989   6.369   6.463  0.9428  1.3373  2.5259
14435TIP3   OH243243   7.103   1.384   1.006 -0.8159  0.3282 -0.6576
14435TIP3    H143244   7.038   1.350   0.944 -0.8851  0.7014 -0.7919
14435TIP3    H243245   7.147   1.453   0.958 -1.4393  1.1893 -0.0001
14436TIP3   OH243246   1.853   1.112   0.667  0.4331 -0.3999  0.0630
14436TIP3    H143247   1.889   1.183   0.614 -1.0475  1.1468  1.0528
14436TIP3    H243248   1.830   1.044   0.604  2.1976 -0.1450 -0.8694
14437TIP3   OH243249   8.278   1.750   1.159 -0.1646 -0.2170 -0.2666
14437TIP3    H143250   8.188   1.768   1.131 -0.6574  0.5677  1.7352
14437TIP3    H243251   8.269   1.687   1.231  0.9618 -0.9293 -0.7386
14438TIP3   OH243252   3.738   5.678   6.545  0.1098  0.4166  0.5241
14438TIP3    H143253   3.728   5.663   6.639  1.6630 -0.5735  0.5640
14438TIP3    H243254   3.719   5.593   6.506 -0.9380  0.9364 -0.0886
14439TIP3   OH243255   7.983   1.770   0.831 -0.1799  0.3843  0.2030
14439TIP3    H143256   7.975   1.674   0.832  0.0244  0.3556 -0.6066
14439TIP3    H243257   7.994   1.792   0.738 -0.1313  1.1856  0.3977
14440TIP3   OH243258   0.564   2.837   2.126 -0.1395 -0.5702 -0.0721
14440TIP3    H143259   0.573   2.865   2.035 -1.0425 -0.9073 -0.2691
14440TIP3    H243260   0.612   2.904   2.176 -1.7395  0.9981 -0.5798
14441TIP3   OH243261   7.858   4.639   0.472 -0.3809  0.1481 -0.6059
14441TIP3    H143262   7.881   4.731   0.483 -1.4858  0.3304  0.3496
14441TIP3    H243263   7.941   4.592   0.477  0.5164  1.3099 -3.8739
14442TIP3   OH243264   8.219   4.663   0.709 -0.0111 -0.1951  0.0837
14442TIP3    H143265   8.300   4.667   0.658  0.3209 -1.2877  0.5184
14442TIP3    H243266   8.228   4.584   0.762 -1.5129 -0.5137 -0.1242
14443TIP3   OH243267   3.844   5.987   5.624  0.4127 -0.0983  0.1531
14443TIP3    H143268   3.791   5.922   5.672 -0.1728  0.2961  0.0417
14443TIP3    H243269   3.908   5.934   5.576  0.5802 -0.5382  0.8497
14444TIP3   OH243270   0.983   2.793   0.497 -0.3567  0.3061 -0.1497
14444TIP3    H143271   1.061   2.785   0.553  0.1335  0.1691 -0.8434
14444TIP3    H243272   1.013   2.844   0.422 -0.9895  0.3998 -0.3427
14445TIP3   OH243273   0.765   3.598   1.891  0.1850 -0.9434 -0.1671
14445TIP3    H143274   0.856   3.615   1.867 -0.0583 -1.2283 -1.3009
14445TIP3    H243275   0.719   3.591   1.808 -1.0645  0.1493  0.4207
14446TIP3   OH243276   2.131   6.361   4.603  0.1999  0.1283 -0.6323
14446TIP3    H143277   2.056   6.411   4.569 -1.2547 -0.1076  2.1097
14446TIP3    H243278   2.104   6.270   4.595 -0.4994  0.0823  1.7482
14447TIP3   OH243279   8.456   1.866   0.168 -0.2844 -0.1478  0.4589
14447TIP3    H143280   8.443   1.796   0.232  1.3636 -0.8967 -0.0068
14447TIP3    H243281   8.485   1.941   0.220  0.7540 -0.6611  0.6212
14448TIP3   OH243282   2.248   3.263   1.026 -0.1962 -0.0371  0.1947
14448TIP3    H143283   2.243   3.196   0.958 -0.8799 -0.6991  0.8810
14448TIP3    H243284   2.329   3.310   1.007 -0.8505  0.3993 -1.6222
14449TIP3   OH243285   7.472   3.730   0.099  0.2861 -0.3644  0.0410
14449TIP3    H143286   7.487   3.760   0.010  0.0071  2.0962  0.7777
14449TIP3    H243287   7.444   3.639   0.090  1.6126 -0.5684 -2.2640
14450TIP3   OH243288   3.340   1.859   2.128 -0.3181  0.3226 -0.3413
14450TIP3    H143289   3.429   1.888   2.109  0.5461 -1.5104  0.8251
14450TIP3    H243290   3.342   1.764   2.112 -0.8610 -0.4872  3.9512
14451TIP3   OH243291   3.546   6.576   6.762  0.1737  0.1233  0.6222
14451TIP3    H143292   3.481   6.618   6.706  1.1801  0.6890 -0.1474
14451TIP3    H243293   3.533   6.617   6.848 -1.2670 -0.6344  0.7718
14452TIP3   OH243294   8.255   2.334   1.621 -0.4655 -0.0717 -0.1455
14452TIP3    H143295   8.255   2.313   1.714 -0.6744  3.5229  0.7489
14452TIP3    H243296   8.343   2.367   1.604 -1.6353  3.1620 -0.2099
14453TIP3   OH243297   7.639   4.414   0.114  0.3775 -0.0741 -0.0404
14453TIP3    H143298   7.651   4.504   0.143  2.0879  0.0442 -1.0617
14453TIP3    H243299   7.544   4.404   0.105  0.1190  1.3276  0.9617
14454TIP3   OH243300   8.374   2.491   2.620  0.2128 -0.0391 -0.0069
14454TIP3    H143301   8.352   2.575   2.661  0.2992 -1.4154  2.9438
14454TIP3    H243302   8.308   2.482   2.550 -2.1108  0.8025  1.9835
14455TIP3   OH243303   1.545   2.647   0.197 -0.1958 -0.2256  0.5699
14455TIP3    H143304   1.507   2.580   0.140 -0.2959  0.0925  0.2567
14455TIP3    H243305   1.550   2.725   0.141 -1.1288  0.3377  1.2643
14456TIP3   OH243306   3.984   6.892   6.593 -0.2313  0.1136 -0.0263
14456TIP3    H143307   4.075   6.868   6.575 -0.3061  0.5516 -0.9913
14456TIP3    H243308   3.953   6.822   6.651  0.2639 -0.8712 -0.9185
14457TIP3   OH243309   0.202   1.475   1.251  0.0494  0.1548  0.2525
14457TIP3    H143310   0.132   1.465   1.316  0.9654  0.9726  1.3938
14457TIP3    H243311   0.282   1.477   1.303  0.7295  1.7927 -0.8194
14458TIP3   OH243312   3.993   7.649   6.697 -0.0838  0.3207  0.2885
14458TIP3    H143313   4.007   7.577   6.636 -0.0571  0.3455  0.2660
14458TIP3    H243314   4.024   7.615   6.781 -3.9333 -1.1897  1.1747
14459TIP3   OH243315   2.515   2.587   0.390  0.5362  0.1885 -0.2156
14459TIP3    H143316   2.451   2.597   0.460  0.6324  0.5491 -0.1775
14459TIP3    H243317   2.468   2.541   0.320  0.4085 -0.0708  0.0417
14460TIP3   OH243318   0.281   5.372   1.761 -0.2269  0.3600 -0.9974
14460TIP3    H143319   0.216   5.415   1.818  0.2818  0.2684 -0.3349
14460TIP3    H243320   0.240   5.370   1.675 -0.6279  1.3702 -0.8400
14461TIP3   OH243321   0.444   1.300   1.438 -0.6933  0.2124 -0.1597
14461TIP3    H143322   0.349   1.293   1.441 -0.7856  1.6759  1.0114
14461TIP3    H243323   0.461   1.394   1.440  0.7899 -0.0489 -0.0610
14462TIP3   OH243324   1.077   1.223   2.025  0.6778  0.2255 -0.2831
14462TIP3    H143325   0.998   1.228   1.971  0.8342  1.0831 -0.4508
14462TIP3    H243326   1.131   1.155   1.983 -0.4521 -1.1627  0.4985
14463TIP3   OH243327   0.092   1.468   1.746  0.3652 -0.0937  0.5721
14463TIP3    H143328   0.142   1.547   1.724  0.4060 -0.3100 -0.1217
14463TIP3    H243329   0.096   1.463   1.842  2.0462 -0.3444  0.5064
14464TIP3   OH243330   2.824   1.475   1.995 -0.0049  0.4521  0.3246
14464TIP3    H143331   2.782   1.540   1.939  0.8361 -0.0773 -0.9542
14464TIP3    H243332   2.781   1.392   1.973  0.6703  0.1589  0.1001
14465TIP3   OH243333   8.000   1.409   1.616 -0.0016 -0.0438  0.1524
14465TIP3    H143334   8.021   1.363   1.534 -2.2422 -0.0849 -0.4272
14465TIP3    H243335   7.947   1.347   1.666 -0.3395  0.7219  0.7570
14466TIP3   OH243336   4.062   6.124   6.039 -0.9418  0.5434  0.6040
14466TIP3    H143337   4.098   6.095   6.123  0.7960  3.8294  1.0578
14466TIP3    H243338   4.012   6.203   6.060  0.9931  2.4336 -1.6703
14467TIP3   OH243339   0.869   4.160   0.523 -0.8309 -0.2123  0.4891
14467TIP3    H143340   0.927   4.090   0.554 -0.2427  0.6858  1.4335
14467TIP3    H243341   0.928   4.229   0.493 -1.4083 -0.0236 -0.2364
14468TIP3   OH243342   5.946   3.011   3.315 -0.1124 -0.2612 -0.0088
14468TIP3    H143343   5.955   3.020   3.220  1.3464 -1.8099 -0.0450
14468TIP3    H243344   5.949   3.101   3.348 -1.8848  0.3817 -1.5097
14469TIP3   OH243345   4.321   2.483   2.413 -0.5432  0.5922 -0.4188
14469TIP3    H143346   4.344   2.390   2.410  1.0672  0.9437  0.2908
14469TIP3    H243347   4.328   2.506   2.505 -0.8163  1.4378 -0.6102
14470TIP3   OH243348   2.531   0.661   3.467  0.3023  0.1276  0.4396
14470TIP3    H143349   2.490   0.746   3.454  1.6878  0.5837 -1.1617
14470TIP3    H243350   2.564   0.637   3.381  0.5277 -1.7189  1.0203
14471TIP3   OH243351   2.465   1.921   0.942  0.3375  0.9264  0.3330
14471TIP3    H143352   2.477   1.966   1.025  1.6615  2.1305 -0.5001
14471TIP3    H243353   2.548   1.930   0.897  0.0355 -0.7877 -0.6278
14472TIP3   OH243354   6.322   2.846   2.886  0.5040 -0.4287 -0.0261
14472TIP3    H143355   6.413   2.859   2.915  0.0306  0.9900  0.8295
14472TIP3    H243356   6.269   2.879   2.957 -0.6910  1.7877 -1.8841
14473TIP3   OH243357   5.085   2.443   6.791 -0.4474 -0.1305 -0.5915
14473TIP3    H143358   5.087   2.489   6.875  2.2218  0.8494 -1.1181
14473TIP3    H243359   5.004   2.470   6.749 -1.9579 -0.8753  1.7941
14474TIP3   OH243360   8.358   0.913   1.859 -0.0049 -1.0242  0.7183
14474TIP3    H143361   8.356   0.835   1.914  0.8263 -0.9439  0.8637
14474TIP3    H243362   8.274   0.913   1.813 -0.4673 -1.3891  1.5712
14475TIP3   OH243363   6.497   1.736   0.337 -0.0441 -0.1844  0.0497
14475TIP3    H143364   6.571   1.685   0.305  0.1446  0.4151 -0.4946
14475TIP3    H243365   6.436   1.737   0.263  0.6935  1.7970 -0.5845
14476TIP3   OH243366   4.486   7.402   5.093 -0.2865 -0.0550 -0.1771
14476TIP3    H143367   4.406   7.352   5.112  0.1901 -0.9537 -0.5314
14476TIP3    H243368   4.471   7.486   5.135 -0.2581 -1.1807  2.1748
14477TIP3   OH243369   1.262   2.395   1.673  0.1663  0.2151  0.1237
14477TIP3    H143370   1.259   2.305   1.705  0.0971  0.1352 -0.1052
14477TIP3    H243371   1.171   2.417   1.655  0.2787 -0.0122 -0.7550
14478TIP3   OH243372   7.858   0.150   1.142 -0.5641 -0.3508 -0.1457
14478TIP3    H143373   7.914   0.227   1.147 -0.4957 -0.3555 -0.7379
14478TIP3    H243374   7.907   0.089   1.087 -1.5882  0.0337 -1.5118
14479TIP3   OH243375   0.953   3.658   1.547 -0.1701  0.1045 -0.0915
14479TIP3    H143376   1.009   3.582   1.560  0.2072  0.3382 -0.3632
14479TIP3    H243377   1.003   3.731   1.583 -0.0303  0.4161 -0.9078
14480TIP3   OH243378   8.258   2.995   1.534  0.3583  0.0869  0.4637
14480TIP3    H143379   8.252   2.992   1.438 -2.6634 -0.0358  0.6255
14480TIP3    H243380   8.268   3.088   1.554  0.5888  0.1537  0.0484
14481TIP3   OH243381   0.607   3.705   2.121 -0.1935  0.3630 -0.2366
14481TIP3    H143382   0.632   3.795   2.101 -0.2540  0.6996  1.1863
14481TIP3    H243383   0.678   3.652   2.084  0.1055  1.0198 -0.6172
14482TIP3   OH243384   6.706   3.182   0.587 -0.4867  0.1198  0.0830
14482TIP3    H143385   6.765   3.173   0.662 -1.2762  0.2383  0.7189
14482TIP3    H243386   6.764   3.176   0.510  0.1305 -1.5359  0.6655
14483TIP3   OH243387   5.401   6.690   6.569  0.1434 -0.5635 -0.3172
14483TIP3    H143388   5.431   6.608   6.609 -0.0965 -1.0663 -1.1445
14483TIP3    H243389   5.307   6.676   6.556 -0.0710  0.2065  0.3820
14484TIP3   OH243390   0.985   2.043   1.201  0.1135 -0.1211 -0.0912
14484TIP3    H143391   1.065   1.999   1.232  0.3033  0.2920  0.0043
14484TIP3    H243392   1.005   2.136   1.206  0.6540 -0.0557 -2.8382
14485TIP3   OH243393   2.725   1.684   1.857 -0.1483  0.3738 -0.2982
14485TIP3    H143394   2.652   1.732   1.895  1.1871  1.0206  1.5531
14485TIP3    H243395   2.778   1.750   1.814 -0.3657 -0.0130 -1.1652
14486TIP3   OH243396   3.313   1.359   1.432 -0.1585  0.0023  0.0253
14486TIP3    H143397   3.247   1.290   1.443 -0.2800 -0.4379 -3.0852
14486TIP3    H243398   3.281   1.411   1.359  0.9755  2.1695  1.0486
14487TIP3   OH243399   1.771   1.964   0.883 -0.3503 -0.4798  0.7946
14487TIP3    H143400   1.858   1.960   0.921  0.0486 -1.2103 -0.1737
14487TIP3    H243401   1.772   2.043   0.828 -0.9545  0.6231  2.3282
14488TIP3   OH243402   3.798   2.265   1.253 -0.2518 -0.1100  0.6092
14488TIP3    H143403   3.854   2.271   1.176 -1.4855 -0.9573 -0.3821
14488TIP3    H243404   3.813   2.177   1.288 -0.0475  0.1028  1.0604
14489TIP3   OH243405   7.748   2.947   2.747 -0.2914 -0.3995 -0.9638
14489TIP3    H143406   7.740   3.043   2.749 -0.1615 -0.4023 -0.1116
14489TIP3    H243407   7.740   2.924   2.654  1.3714  0.5856 -1.3633
14490TIP3   OH243408   5.438   7.242   6.885 -0.2892 -0.5394  0.2014
14490TIP3    H143409   5.392   7.157   6.884  0.7543 -1.1144  0.6035
14490TIP3    H243410   5.528   7.221   6.860 -0.3856  0.6834 -1.2542
14491TIP3   OH243411   5.407   1.783   6.244 -0.8524  0.2501 -0.3988
14491TIP3    H143412   5.455   1.864   6.256 -1.6287  0.4463  1.5275
14491TIP3    H243413   5.320   1.811   6.217 -0.6244 -0.0105 -1.4101
14492TIP3   OH243414   2.984   7.696   6.277 -0.6100  0.1086 -0.4889
14492TIP3    H143415   3.072   7.686   6.315 -0.4439  0.5588 -0.7521
14492TIP3    H243416   2.999   7.702   6.183 -0.7608  1.9114 -0.4198
14493TIP3   OH243417   1.328   3.051   0.374  0.0562 -0.4280  0.2479
14493TIP3    H143418   1.239   3.051   0.410 -0.6246 -1.5079 -1.4030
14493TIP3    H243419   1.339   3.138   0.337 -0.4050 -0.3824  0.2161
14494TIP3   OH243420   0.670   4.335   0.901 -0.0347 -0.4581  0.0494
14494TIP3    H143421   0.620   4.416   0.897 -1.6126 -1.3988  0.3865
14494TIP3    H243422   0.637   4.282   0.829  0.8762 -0.8722 -0.0734
14495TIP3   OH243423   0.429   5.237   0.092  0.0955  0.5212  0.2962
14495TIP3    H143424   0.401   5.164   0.037  1.0699  0.5104 -0.2032
14495TIP3    H243425   0.441   5.310   0.032 -1.5635  1.2974  0.8999
14496TIP3   OH243426   4.380   6.741   5.049 -0.1881 -0.1295  0.3220
14496TIP3    H143427   4.291   6.719   5.076 -0.6131  0.7117 -0.3655
14496TIP3    H243428   4.410   6.664   5.000  0.0114 -1.0069  1.8027
14497TIP3   OH243429   4.659   7.366   6.015  0.1646 -0.5587 -0.3698
14497TIP3    H143430   4.622   7.346   6.101  0.9733  1.5529  0.5140
14497TIP3    H243431   4.753   7.377   6.032  0.1377  1.2330 -1.2565
14498TIP3   OH243432   4.748   7.159   4.774 -0.0023  0.3134 -0.7179
14498TIP3    H143433   4.676   7.215   4.804  1.7594  1.3351  1.7592
14498TIP3    H243434   4.742   7.081   4.829  0.5991  0.2798 -0.7045
14499TIP3   OH243435   7.844   4.079   2.156 -0.1821  0.3041  0.0023
14499TIP3    H143436   7.758   4.114   2.178 -1.1025 -1.3788 -0.8198
14499TIP3    H243437   7.860   4.011   2.222  0.3934  0.4061 -0.0282
14500TIP3   OH243438   1.863   3.133   1.663  0.2987 -0.0275  0.6968
14500TIP3    H143439   1.867   3.180   1.746 -0.1714  0.5785  0.3819
14500TIP3    H243440   1.838   3.200   1.598 -1.4406 -0.9025  0.4242
14501TIP3   OH243441   4.785   4.663   5.561 -0.5054 -0.2226  0.3148
14501TIP3    H143442   4.844   4.731   5.528  2.1805 -1.5294  2.2347
14501TIP3    H243443   4.825   4.635   5.644 -2.8522 -2.4417  0.7459
14502TIP3   OH243444   7.979   1.765   5.259 -0.0531 -0.4584  0.4033
14502TIP3    H143445   7.980   1.858   5.235  0.6380 -0.4466  0.4755
14502TIP3    H243446   8.005   1.763   5.351 -0.4859 -0.6952  0.5242
14503TIP3   OH243447   2.894   1.887   2.374 -0.0307 -0.0285  0.4022
14503TIP3    H143448   2.989   1.880   2.360 -0.0554  2.0690 -0.9727
14503TIP3    H243449   2.855   1.863   2.290 -0.6565  0.6821  0.4843
14504TIP3   OH243450   0.401   3.717   1.046  0.3664  0.7832  0.3234
14504TIP3    H143451   0.468   3.785   1.038 -0.2445  1.2094 -1.3707
14504TIP3    H243452   0.325   3.762   1.081  0.7075  0.4459  1.5449
14505TIP3   OH243453   1.587   3.391   0.329  0.2855  0.0955  0.4182
14505TIP3    H143454   1.632   3.459   0.278 -0.2905 -0.1129 -0.3818
14505TIP3    H243455   1.602   3.416   0.420  0.3169  1.1422  0.1379
14506TIP3   OH243456   5.436   7.835   0.893  0.0740 -0.0926 -0.4024
14506TIP3    H143457   5.432   7.740   0.908  0.4069  0.1011  1.0042
14506TIP3    H243458   5.526   7.851   0.866 -0.3298 -0.3459 -1.9366
14507TIP3   OH243459   8.111   2.758   1.308 -0.1253  0.4282 -0.1513
14507TIP3    H143460   8.193   2.722   1.274  0.7125  2.5258 -0.4046
14507TIP3    H243461   8.107   2.728   1.399  1.6533  1.5073  0.3010
14508TIP3   OH243462   1.967   2.095   1.101 -0.5644  0.3744 -0.1006
14508TIP3    H143463   2.011   2.010   1.102 -0.1496  0.5915  0.9934
14508TIP3    H243464   2.022   2.150   1.044  0.1317  0.4077  0.5973
14509TIP3   OH243465   0.493   2.390   0.142  0.1455  0.5766 -0.4395
14509TIP3    H143466   0.441   2.450   0.089  0.9360  0.2429 -1.5898
14509TIP3    H243467   0.455   2.304   0.126  1.7085  0.1841 -2.1014
14510TIP3   OH243468   7.660   1.195   0.821 -0.1582 -0.4724  0.0439
14510TIP3    H143469   7.577   1.223   0.860 -0.6150 -0.2210 -1.1115
14510TIP3    H243470   7.645   1.105   0.793 -0.1638 -0.3076 -0.4921
14511TIP3   OH243471   0.606   2.116   0.932 -0.0243 -0.0973  0.3575
14511TIP3    H143472   0.521   2.130   0.890  0.0634 -1.7191 -0.3753
14511TIP3    H243473   0.592   2.142   1.023 -0.6834  1.7820 -0.2697
14512TIP3   OH243474   3.837   4.611   6.600 -0.0589  0.0834  0.1851
14512TIP3    H143475   3.823   4.616   6.505  1.9119 -0.8259 -0.1677
14512TIP3    H243476   3.806   4.524   6.624 -1.7161  0.7701  0.5991
14513TIP3   OH243477   0.828   1.436   2.145  0.0567 -0.1132  0.0308
14513TIP3    H143478   0.774   1.435   2.066 -0.6182  1.3136  0.4681
14513TIP3    H243479   0.774   1.394   2.212  0.8850 -1.9352 -0.4026
14514TIP3   OH243480   3.541   6.681   5.082 -0.4770  0.5531 -0.4545
14514TIP3    H143481   3.567   6.732   5.159  1.8264 -1.5276  0.2335
14514TIP3    H243482   3.546   6.743   5.010  1.0983  1.6229  0.5292
14515TIP3   OH243483   4.926   7.595   1.693 -0.0057 -0.3370 -0.0786
14515TIP3    H143484   4.968   7.674   1.659 -0.1962 -1.4545 -3.0422
14515TIP3    H243485   4.887   7.623   1.776  3.2694  1.6755  0.8896
14516TIP3   OH243486   7.931   1.583   1.250 -0.5166 -0.3351  0.2499
14516TIP3    H143487   7.926   1.663   1.198 -0.5564  0.8355  2.0289
14516TIP3    H243488   7.883   1.518   1.198 -1.9769  1.2185 -0.3921
14517TIP3   OH243489   1.093   1.043   0.935 -0.2906  0.1408 -0.2044
14517TIP3    H143490   1.130   0.972   0.882 -0.2035  0.9287 -1.2087
14517TIP3    H243491   1.008   1.061   0.895 -1.2052 -0.7667  1.2944
14518TIP3   OH243492   3.535   6.065   5.141 -0.3965  0.1495  0.4601
14518TIP3    H143493   3.518   6.139   5.199  1.2983 -0.9392  2.4120
14518TIP3    H243494   3.499   5.989   5.187 -2.4384 -0.2527 -1.6785
14519TIP3   OH243495   0.462   0.755   0.374 -0.0218  0.5844 -0.2472
14519TIP3    H143496   0.557   0.766   0.379 -0.2470  1.8261  2.5534
14519TIP3    H243497   0.433   0.819   0.310  1.1131 -0.4335 -1.8009
14520TIP3   OH243498   0.592   1.360   3.986 -0.3593 -0.3363  0.2673
14520TIP3    H143499   0.613   1.270   4.010  1.1821 -0.3084 -0.9209
14520TIP3    H243500   0.506   1.376   4.026 -0.7210 -2.3738  0.3466
14521TIP3   OH243501   8.149   3.453   1.755 -0.6014 -0.3287 -0.6504
14521TIP3    H143502   8.067   3.412   1.729  0.3361 -2.4116 -0.4245
14521TIP3    H243503   8.158   3.432   1.848  0.8194 -1.2663 -0.9799
14522TIP3   OH243504   0.902   2.885   1.741  0.1068 -0.2855 -0.1739
14522TIP3    H143505   0.822   2.934   1.722  0.2732 -0.0302 -0.2130
14522TIP3    H243506   0.899   2.810   1.681 -0.8790 -1.1257  0.9074
14523TIP3   OH243507   1.467   7.594   4.337 -0.4443 -0.2927 -0.0136
14523TIP3    H143508   1.529   7.640   4.281 -0.6755  0.5273  0.4054
14523TIP3    H243509   1.500   7.608   4.426 -0.6676 -0.7006  0.1342
14524TIP3   OH243510   0.422   3.196   1.127  0.2663  0.2220 -0.0178
14524TIP3    H143511   0.327   3.196   1.115  0.3759  2.0182 -0.9889
14524TIP3    H243512   0.452   3.116   1.084 -0.7644 -0.2127  0.0689
14525TIP3   OH243513   5.117   6.447   6.902  0.1683  0.3723  0.0941
14525TIP3    H143514   5.212   6.451   6.893  0.2729 -3.0683 -1.4004
14525TIP3    H243515   5.083   6.469   6.815 -0.1546 -2.6567 -0.6045
14526TIP3   OH243516   2.644   1.964   1.495 -0.0334 -0.5993 -0.5166
14526TIP3    H143517   2.677   1.876   1.480  1.1869 -0.2141 -0.0938
14526TIP3    H243518   2.674   1.987   1.583 -2.1165 -0.5592  0.2178
14527TIP3   OH243519   2.659   2.207   1.353  0.3217  0.3568 -0.3954
14527TIP3    H143520   2.754   2.210   1.350  0.3146 -0.6726 -1.9898
14527TIP3    H243521   2.638   2.131   1.408  0.4191 -0.3046 -1.2722
14528TIP3   OH243522   4.599   6.382   5.419  0.3355 -0.3077  0.2814
14528TIP3    H143523   4.603   6.319   5.491  0.8579 -0.6412 -0.0372
14528TIP3    H243524   4.585   6.467   5.462 -1.4746 -0.7651  0.6496
14529TIP3   OH243525   2.304   1.198   1.675  0.0139 -0.1612 -0.0097
14529TIP3    H143526   2.275   1.194   1.584 -0.6280  0.6789  0.1575
14529TIP3    H243527   2.395   1.171   1.672 -0.2114 -0.8652 -0.8063
14530TIP3   OH243528   1.776   0.800   3.133  0.7196  0.5251  0.5252
14530TIP3    H143529   1.787   0.708   3.110 -1.0791  0.0915  1.3087
14530TIP3    H243530   1.725   0.837   3.061 -0.6892  0.3111  1.3923
14531TIP3   OH243531   1.316   0.419   0.179 -0.4032 -0.8865  0.5299
14531TIP3    H143532   1.246   0.396   0.242 -0.7050 -1.7026 -0.0896
14531TIP3    H243533   1.397   0.409   0.229 -0.6801 -0.8518  0.9922
14532TIP3   OH243534   3.251   6.372   5.108 -0.3124 -0.2024 -0.2789
14532TIP3    H143535   3.337   6.366   5.067 -0.0494  0.6902  0.1402
14532TIP3    H243536   3.243   6.291   5.159  0.2210 -0.3503 -0.4302
14533TIP3   OH243537   4.453   7.269   6.899  0.1175  0.3534  0.1053
14533TIP3    H143538   4.444   7.197   6.961  0.4945  0.0846 -0.1536
14533TIP3    H243539   4.442   7.348   6.953 -1.9167  0.0919  0.1230
14534TIP3   OH243540   1.543   1.905   1.449 -0.0481  0.1993 -0.5559
14534TIP3    H143541   1.612   1.882   1.387  0.9474 -0.7817  0.8917
14534TIP3    H243542   1.510   1.989   1.417  1.5934  0.5410 -1.4438
14535TIP3   OH243543   7.204   0.661   5.107 -0.3084 -0.4573 -0.2350
14535TIP3    H143544   7.275   0.707   5.062 -1.3126  0.5271 -0.8254
14535TIP3    H243545   7.136   0.651   5.040  0.9117 -5.2662 -0.9788
14536TIP3   OH243546   2.289   1.964   0.335 -0.2696  0.4277  0.3379
14536TIP3    H143547   2.335   1.889   0.372 -0.1803  0.8020  0.9946
14536TIP3    H243548   2.317   2.038   0.389  0.2470  1.0659 -0.7900
14537TIP3   OH243549   1.697   0.687   0.863 -0.5673  0.1742 -0.1237
14537TIP3    H143550   1.717   0.694   0.770 -0.4937 -0.7646 -0.1843
14537TIP3    H243551   1.645   0.607   0.871  1.3172 -0.9771  0.9279
14538TIP3   OH243552   1.872   3.932   1.407  0.0373 -0.5704 -0.6206
14538TIP3    H143553   1.818   3.928   1.328 -1.2332 -3.4560  0.3264
14538TIP3    H243554   1.935   3.861   1.397  1.4315  0.5780 -0.1195
14539TIP3   OH243555   3.553   5.557   6.843  0.2347 -0.4486 -0.0212
14539TIP3    H143556   3.561   5.471   6.883  0.4967  0.0729  1.0636
14539TIP3    H243557   3.509   5.611   6.909 -2.1153 -0.3573 -1.6091
14540TIP3   OH243558   1.780   1.511   1.132  0.0987  0.0779  0.3959
14540TIP3    H143559   1.760   1.585   1.190  1.4067  1.0127 -0.3120
14540TIP3    H243560   1.793   1.437   1.192 -0.9379  0.4840  1.1388
14541TIP3   OH243561   4.605   7.079   6.214 -0.7411  0.0245  0.1797
14541TIP3    H143562   4.594   7.168   6.248  0.6200  0.4625 -0.5357
14541TIP3    H243563   4.692   7.078   6.175 -0.5109 -1.7978  0.7043
14542TIP3   OH243564   4.774   7.526   3.940 -0.3589  0.3899  0.0098
14542TIP3    H143565   4.743   7.513   4.029 -1.7043 -0.8539 -0.6187
14542TIP3    H243566   4.768   7.439   3.900  1.0967  0.7510 -1.0309
14543TIP3   OH243567   5.981   7.158   4.799  0.1252  0.0442 -0.5829
14543TIP3    H143568   6.057   7.107   4.828 -1.3889 -1.4063  0.8914
14543TIP3    H243569   5.991   7.243   4.841  0.6255 -0.3332  0.0640
14544TIP3   OH243570   1.837   3.574   0.307  0.4381 -0.3320 -0.1982
14544TIP3    H143571   1.851   3.637   0.378 -0.5568  0.2648 -0.5179
14544TIP3    H243572   1.788   3.623   0.241 -0.8406 -1.6077 -0.2139
14545TIP3   OH243573   5.109   6.568   6.528  0.1032  0.4428 -0.4652
14545TIP3    H143574   5.044   6.504   6.557  1.9027 -0.8268  0.8325
14545TIP3    H243575   5.135   6.538   6.441 -1.1469  1.0721 -1.0839
14546TIP3   OH243576   1.573   5.652   0.442 -0.0678 -0.1660 -0.0250
14546TIP3    H143577   1.654   5.603   0.453 -0.5733 -0.7693  1.0703
14546TIP3    H243578   1.513   5.615   0.506 -1.4245 -0.1452 -1.2488
14547TIP3   OH243579   5.483   6.388   6.686 -0.1295  0.0875 -0.7090
14547TIP3    H143580   5.575   6.372   6.666  0.0321 -3.2209  2.2066
14547TIP3    H243581   5.443   6.300   6.686 -2.7243  1.2149  0.6141
14548TIP3   OH243582   3.582   7.751   5.998  0.3663  0.2079 -0.1650
14548TIP3    H143583   3.657   7.810   6.004 -2.0304  3.3037  0.3978
14548TIP3    H243584   3.614   7.676   5.947  4.3522  0.5204  1.7334
14549TIP3   OH243585   6.067   0.988   6.901 -0.0857  0.1693 -0.4616
14549TIP3    H143586   6.079   0.912   6.958  1.4818  1.2748  0.7450
14549TIP3    H243587   6.153   1.002   6.861 -1.0060 -0.1878 -2.6332
14550TIP3   OH243588   2.330   5.889   0.221 -0.5605 -0.3622  0.3258
14550TIP3    H143589   2.242   5.853   0.208 -0.0158 -1.1584 -1.1966
14550TIP3    H243590   2.380   5.815   0.256 -0.6831  0.3192  2.0003
14551TIP3   OH243591   7.779   0.533   5.456 -0.2468  0.8836  0.4411
14551TIP3    H143592   7.729   0.606   5.421 -1.0198 -0.3243 -1.0372
14551TIP3    H243593   7.725   0.456   5.439  1.6360 -0.3249 -0.2894
14552TIP3   OH243594   2.790   7.838   5.385  0.6716  0.2660  0.7912
14552TIP3    H143595   2.807   7.745   5.399 -0.9782 -0.3058 -0.7791
14552TIP3    H243596   2.826   7.856   5.299 -1.1202  0.4826  0.0557
14553TIP3   OH243597   4.918   7.086   6.898  0.3019  0.1297  0.1292
14553TIP3    H143598   5.000   7.073   6.851  0.8878 -2.2310  1.7118
14553TIP3    H243599   4.912   7.011   6.957 -2.5277  0.7680  0.7269
14554TIP3   OH243600   2.973   1.534   0.098  0.4174 -0.1117  0.0015
14554TIP3    H143601   3.056   1.507   0.059  1.9204 -0.8295  3.5331
14554TIP3    H243602   2.923   1.453   0.108  0.9120 -0.2582  1.4514
14555TIP3   OH243603   3.852   7.504   6.238 -0.2510  0.3356 -0.0533
14555TIP3    H143604   3.801   7.580   6.267  1.8952  1.3886  1.0843
14555TIP3    H243605   3.900   7.536   6.162  3.0774  1.1631  2.2741
14556TIP3   OH243606   0.680   3.934   0.334 -0.1641 -0.3304 -0.3618
14556TIP3    H143607   0.607   3.995   0.348  0.0145  0.2187 -1.7446
14556TIP3    H243608   0.694   3.893   0.419 -2.4790 -0.8753 -0.2138
14557TIP3   OH243609   3.497   1.752   0.948  0.2403  0.3770 -0.1346
14557TIP3    H143610   3.546   1.708   1.018  0.7204  0.2605 -0.5394
14557TIP3    H243611   3.413   1.773   0.988  0.5116  0.3215  0.4849
14558TIP3   OH243612   0.534   2.398   2.283  0.2134 -0.3144  0.3594
14558TIP3    H143613   0.527   2.477   2.337 -1.8969  0.8019 -1.4472
14558TIP3    H243614   0.592   2.423   2.212  0.3265 -0.7246  0.3060
14559TIP3   OH243615   6.116   0.306   4.690 -0.4445  0.5204  0.0756
14559TIP3    H143616   6.029   0.269   4.673 -0.1385  0.2181 -0.8326
14559TIP3    H243617   6.110   0.339   4.780 -0.9610 -1.0353  0.6321
14560TIP3   OH243618   7.842   4.318   6.898  0.5320 -0.1649 -0.6444
14560TIP3    H143619   7.901   4.300   6.824  0.5497  0.2890 -0.7430
14560TIP3    H243620   7.800   4.401   6.875 -0.4805 -0.7187 -0.7776
14561TIP3   OH243621   1.795   1.753   0.673 -0.4391  0.0637  0.3185
14561TIP3    H143622   1.868   1.810   0.695 -0.7570  0.2005  1.0384
14561TIP3    H243623   1.724   1.782   0.730 -1.2581  0.3506 -0.8041
14562TIP3   OH243624   3.606   7.249   4.630  1.0388  0.2241 -0.3060
14562TIP3    H143625   3.691   7.206   4.631  0.6907 -0.4841 -0.8633
14562TIP3    H243626   3.624   7.338   4.601  1.9783  0.9459  2.2891
14563TIP3   OH243627   1.656   1.359   1.696  0.3235  0.2086 -0.5237
14563TIP3    H143628   1.617   1.325   1.615  1.9310 -1.2583 -0.7042
14563TIP3    H243629   1.734   1.306   1.709  0.3678  0.7903  1.7244
14564TIP3   OH243630   5.840   1.866   6.358 -0.0013  0.3102  0.4024
14564TIP3    H143631   5.865   1.956   6.378 -0.5503  0.6676 -0.4935
14564TIP3    H243632   5.749   1.859   6.387 -0.5111  0.5631 -1.0933
14565TIP3   OH243633   5.131   7.289   6.786  0.1566  0.4000 -0.7545
14565TIP3    H143634   5.179   7.205   6.790 -0.6714 -0.0250  0.4548
14565TIP3    H243635   5.075   7.280   6.709 -0.0472 -0.2411 -0.5439
14566TIP3   OH243636   0.805   3.242   0.675  0.6118  0.3490 -0.9296
14566TIP3    H143637   0.860   3.297   0.732  1.6920 -1.3326 -0.3247
14566TIP3    H243638   0.717   3.278   0.685  0.9803  0.7822  0.9186
14567TIP3   OH243639   5.157   7.706   5.691  0.0162  0.0660 -1.7619
14567TIP3    H143640   5.145   7.742   5.779 -1.3548  3.5076 -3.2660
14567TIP3    H243641   5.235   7.650   5.698  0.1371  0.5800  1.5338
14568TIP3   OH243642   0.531   3.764   2.672  0.6179 -0.3102 -0.0608
14568TIP3    H143643   0.571   3.846   2.643 -0.8775  0.0911 -1.0536
14568TIP3    H243644   0.451   3.791   2.716  1.2695 -1.1182  1.6793
14569TIP3   OH243645   0.810   2.474   1.298  0.1510 -0.2159  0.4382
14569TIP3    H143646   0.763   2.528   1.234 -1.2868 -2.0512 -0.0929
14569TIP3    H243647   0.806   2.524   1.379 -1.3256  0.3874  0.0021
14570TIP3   OH243648   4.546   6.077   4.960 -0.4892  0.0378  0.1863
14570TIP3    H143649   4.522   6.144   5.023  0.5686 -0.3095  0.9744
14570TIP3    H243650   4.617   6.116   4.908  0.2729 -0.5342  0.7834
14571TIP3   OH243651   4.755   2.048   1.466 -1.0734 -0.8255  0.2974
14571TIP3    H143652   4.804   2.084   1.539  1.6470  0.6301 -2.1403
14571TIP3    H243653   4.789   1.960   1.454  0.6648  0.0051 -1.0724
14572TIP3   OH243654   4.408   6.317   5.014  0.6657  0.1405 -0.0958
14572TIP3    H143655   4.436   6.327   4.923  0.1360  3.5068  0.0363
14572TIP3    H243656   4.313   6.329   5.012  0.7528  1.1542  0.9703
14573TIP3   OH243657   6.656   3.980   5.558  0.6463  0.1622 -0.2477
14573TIP3    H143658   6.707   3.919   5.612  0.4181  0.1388 -0.0565
14573TIP3    H243659   6.677   4.067   5.593 -0.1882  0.0815  0.4594
14574TIP3   OH243660   1.486   3.878   1.643  0.1230 -0.3900  0.0310
14574TIP3    H143661   1.547   3.894   1.715  1.3617  1.3031 -1.3427
14574TIP3    H243662   1.500   3.787   1.619  0.2403 -0.7488  1.4325
14575TIP3   OH243663   1.682   1.016   1.675  0.0385  0.4374 -0.1011
14575TIP3    H143664   1.678   0.998   1.581  0.5228 -1.3834  0.2239
14575TIP3    H243665   1.749   1.084   1.683  0.6999 -0.1075 -0.9564
14576TIP3   OH243666   1.035   3.918   1.523 -0.4013 -0.7418 -0.2915
14576TIP3    H143667   0.953   3.957   1.492 -0.9623 -1.5569  0.1626
14576TIP3    H243668   1.058   3.969   1.601 -1.3792 -1.5969  0.5714
14577TIP3   OH243669   6.532   6.342   5.827  0.3864  0.4915  0.1557
14577TIP3    H143670   6.448   6.300   5.805  1.7936 -1.5057 -1.5789
14577TIP3    H243671   6.544   6.406   5.756 -0.0206  1.3278  0.8308
14578TIP3   OH243672   0.440   1.867   1.429  0.3191  0.1861 -0.1450
14578TIP3    H143673   0.357   1.867   1.476  0.1482  1.5719 -0.4184
14578TIP3    H243674   0.506   1.872   1.498  0.1116  0.8597  0.0121
14579TIP3   OH243675   4.960   6.455   5.625 -0.5056 -0.5018 -0.7353
14579TIP3    H143676   4.961   6.359   5.615 -2.0616 -0.5466 -0.6335
14579TIP3    H243677   4.901   6.470   5.699 -0.5932  0.5678 -1.0181
14580TIP3   OH243678   2.781   5.045   6.907 -0.2130 -0.1597  0.0995
14580TIP3    H143679   2.850   5.108   6.929 -0.8272  0.1228  1.2502
14580TIP3    H243680   2.779   5.044   6.812  1.2370 -0.0024  0.0530
14581TIP3   OH243681   1.379   2.740   1.494 -0.2222 -0.4702 -0.3684
14581TIP3    H143682   1.469   2.710   1.507 -0.0745  0.3622  0.5908
14581TIP3    H243683   1.351   2.773   1.579 -1.1964 -0.0727 -0.8246
14582TIP3   OH243684   3.749   5.976   6.404 -0.5003  0.0730 -0.1761
14582TIP3    H143685   3.826   6.016   6.445 -0.5962  0.8167 -0.7148
14582TIP3    H243686   3.720   5.910   6.467  0.5228 -0.1441  0.0771
14583TIP3   OH243687   3.439   6.236   5.334 -0.7167 -0.2279  0.0844
14583TIP3    H143688   3.451   6.227   5.428  1.9908  0.2706 -0.1512
14583TIP3    H243689   3.454   6.329   5.316  1.0048 -0.6958 -1.0741
14584TIP3   OH243690   4.560   6.206   5.646 -1.1143 -0.3942 -0.1701
14584TIP3    H143691   4.490   6.196   5.711 -1.4066  0.1663 -0.3976
14584TIP3    H243692   4.641   6.200   5.698 -1.3161 -1.3540  0.0476
14585TIP3   OH243693   5.343   7.503   5.791  0.4055 -0.2763  0.1855
14585TIP3    H143694   5.371   7.437   5.728  0.3232  1.9111 -2.2527
14585TIP3    H243695   5.417   7.511   5.852  1.3502 -0.9584 -0.8485
14586TIP3   OH243696   3.177   2.242   0.550 -0.4453 -0.2824 -0.2460
14586TIP3    H143697   3.223   2.318   0.515  0.4205 -1.5428 -1.9186
14586TIP3    H243698   3.222   2.167   0.512 -0.9881 -1.6616  1.7492
14587TIP3   OH243699   7.168   0.812   0.358 -0.4084  0.2480 -0.2177
14587TIP3    H143700   7.187   0.881   0.422 -1.1732 -1.6654  2.1178
14587TIP3    H243701   7.252   0.769   0.344 -0.2854  0.5290 -0.3674
14588TIP3   OH243702   1.702   6.105   4.528 -0.4192  0.1421 -0.0355
14588TIP3    H143703   1.704   6.022   4.481  0.6735  0.1561 -0.0158
14588TIP3    H243704   1.762   6.162   4.479  0.2031  0.3712  0.9761
14589TIP3   OH243705   4.535   7.800   6.872  0.1770  0.3070 -0.2703
14589TIP3    H143706   4.613   7.744   6.871  0.7085  0.9783  1.5060
14589TIP3    H243707   4.570   7.889   6.860 -0.5416  0.4177 -1.7120
14590TIP3   OH243708   2.122   7.959   5.769 -0.7608 -0.1880  0.6379
14590TIP3    H143709   2.218   7.951   5.768 -0.8295 -1.0718 -0.9985
14590TIP3    H243710   2.103   8.021   5.699 -1.3967 -0.1115  0.8814
14591TIP3   OH243711   8.454   4.150   0.889  0.1343  0.7104 -0.5106
14591TIP3    H143712   8.388   4.136   0.820  0.5789 -0.1034 -0.7665
14591TIP3    H243713   8.475   4.063   0.921  1.0848  0.9733 -0.4110
14592TIP3   OH243714   2.258   4.583   0.006 -0.2678  0.0525  0.4927
14592TIP3    H143715   2.226   4.494   0.019  0.0523 -0.0601  0.5198
14592TIP3    H243716   2.352   4.578   0.026  0.0536  0.0634 -1.0022
14593TIP3   OH243717   2.762   5.671   6.205  0.0490 -0.2479 -0.9191
14593TIP3    H143718   2.826   5.702   6.270  0.1863  0.3151 -1.3141
14593TIP3    H243719   2.677   5.687   6.246  0.1404 -0.0692 -0.7964
14594TIP3   OH243720   7.685   1.245   5.351 -0.2453  0.2488 -0.0237
14594TIP3    H143721   7.690   1.303   5.427 -0.2159 -0.2251  0.3380
14594TIP3    H243722   7.646   1.164   5.385 -0.0624 -0.0295 -0.4738
14595TIP3   OH243723   4.237   7.280   6.721  0.0748 -0.0032 -0.0626
14595TIP3    H143724   4.184   7.349   6.761  0.1179  0.6881 -1.1780
14595TIP3    H243725   4.321   7.285   6.766 -0.0770  0.3679  0.1843
14596TIP3   OH243726   3.755   6.501   6.406  0.1122  0.0461 -0.2621
14596TIP3    H143727   3.803   6.557   6.344  0.9537 -0.2960  0.0646
14596TIP3    H243728   3.675   6.478   6.360  0.0342  1.0338 -0.6333
14597TIP3   OH243729   2.382   1.964   2.161 -0.3759  0.2942  0.3383
14597TIP3    H143730   2.389   1.931   2.250 -0.6407  0.7135  0.5201
14597TIP3    H243731   2.288   1.962   2.142 -0.3011  0.0079 -0.0059
14598TIP3   OH243732   4.791   6.144   5.373  0.1322  0.1225  0.0000
14598TIP3    H143733   4.783   6.239   5.360  2.0328  0.4834  1.2876
14598TIP3    H243734   4.782   6.108   5.285 -1.2717  1.4267 -0.4292
14599TIP3   OH243735   2.769   3.618   1.508  0.3918 -0.4156 -0.4611
14599TIP3    H143736   2.724   3.688   1.461 -1.1495 -1.1129 -0.0401
14599TIP3    H243737   2.742   3.538   1.464  1.8287 -0.7929 -0.6768
14600TIP3   OH243738   2.386   2.206   1.749  0.0665  0.0233  0.3416
14600TIP3    H143739   2.295   2.232   1.739  0.6136  1.5667 -0.7807
14600TIP3    H243740   2.420   2.263   1.818  0.2180 -0.4724  0.6807
14601TIP3   OH243741   1.556   3.704   0.451  0.3329  0.3475  0.4472
14601TIP3    H143742   1.532   3.661   0.370 -1.6313  0.9749  0.6833
14601TIP3    H243743   1.533   3.641   0.520 -0.8650  1.0328  0.6848
14602TIP3   OH243744   1.737   5.836   6.739 -0.3912  0.4124 -0.2869
14602TIP3    H143745   1.685   5.780   6.681 -0.3475 -0.8941  0.8996
14602TIP3    H243746   1.682   5.913   6.754 -0.6153  0.5329 -1.6269
14603TIP3   OH243747   0.887   2.019   1.802 -0.1800 -0.7106 -0.1950
14603TIP3    H143748   0.943   2.075   1.857  0.4168  0.3845 -1.8738
14603TIP3    H243749   0.943   1.945   1.779 -0.3737 -1.0815  0.5144
14604TIP3   OH243750   7.821   1.395   6.492 -0.5748  0.4379  0.6461
14604TIP3    H143751   7.774   1.336   6.433 -0.1589  0.7681 -0.0125
14604TIP3    H243752   7.806   1.357   6.579 -0.8314 -0.2921  0.2940
14605TIP3   OH243753   4.486   2.348   0.582 -0.2631  0.7761  0.4147
14605TIP3    H143754   4.439   2.310   0.508  0.8263  2.4564 -1.2092
14605TIP3    H243755   4.547   2.280   0.610  0.9895  0.9148 -1.8210
14606TIP3   OH243756   5.310   6.784   6.941  0.2048 -0.1669  0.6866
14606TIP3    H143757   5.236   6.762   6.884 -0.3167  0.7105  1.0064
14606TIP3    H243758   5.352   6.700   6.961 -0.1243 -0.5675 -0.2857
14607TIP3   OH243759   8.184   7.855   6.528  0.0606  0.5056  0.9010
14607TIP3    H143760   8.212   7.913   6.457 -0.8538  0.0176  0.1354
14607TIP3    H243761   8.187   7.767   6.490  1.3355  0.0406  2.0181
14608TIP3   OH243762   3.559   2.603   1.932 -0.2540 -0.5602  0.2290
14608TIP3    H143763   3.638   2.626   1.883 -0.8956 -0.3296 -0.7097
14608TIP3    H243764   3.573   2.513   1.959  1.5500  0.3502  2.4730
14609TIP3   OH243765   6.628   1.648   5.742 -0.3364  0.0717  0.1886
14609TIP3    H143766   6.558   1.584   5.725  0.8450 -0.7393 -1.9714
14609TIP3    H243767   6.691   1.600   5.797 -0.7951  0.3081  0.9135
14610TIP3   OH243768   0.428   3.754   0.418 -0.0283  0.1454 -0.7441
14610TIP3    H143769   0.468   3.713   0.495  0.2163  0.9103 -0.4562
14610TIP3    H243770   0.493   3.744   0.349  0.1645  0.3232 -0.5908
14611TIP3   OH243771   2.273   3.481   0.057  0.0015 -0.4805  0.0536
14611TIP3    H143772   2.267   3.419   0.129 -0.9853 -0.0931  0.3070
14611TIP3    H243773   2.251   3.431  -0.021 -0.0474 -0.6228  0.1598
14612TIP3   OH243774   6.461   0.547   5.774  0.2939 -0.6163 -0.1981
14612TIP3    H143775   6.552   0.527   5.753 -0.0331 -1.0432 -1.2397
14612TIP3    H243776   6.465   0.595   5.857  1.4596 -0.6609 -0.2262
14613TIP3   OH243777   4.046   6.563   6.447 -0.1502  0.3818 -0.6988
14613TIP3    H143778   3.989   6.589   6.520  1.0252 -1.2821  0.8552
14613TIP3    H243779   4.066   6.646   6.403 -0.3512  1.5267  1.2697
14614TIP3   OH243780   2.754   1.731   0.199 -0.4185  0.4959 -0.0050
14614TIP3    H143781   2.748   1.767   0.111 -0.3899  0.6880  0.0722
14614TIP3    H243782   2.674   1.679   0.209  0.6084 -1.2826 -0.9265
14615TIP3   OH243783   3.557   6.223   4.515  0.1613  0.2144 -0.5495
14615TIP3    H143784   3.527   6.133   4.517 -1.3610  0.7207  0.1407
14615TIP3    H243785   3.605   6.235   4.597 -0.0171  0.1611 -0.4385
14616TIP3   OH243786   7.331   0.133   5.740 -0.0988  0.0106  0.3744
14616TIP3    H143787   7.326   0.123   5.645  0.6169 -1.4209  0.4758
14616TIP3    H243788   7.316   0.226   5.755 -0.5818  0.1880 -1.1120
14617TIP3   OH243789   4.738   6.639   4.944  0.3122  0.0792 -0.0138
14617TIP3    H143790   4.683   6.591   5.006 -0.9741 -0.1961 -1.3314
14617TIP3    H243791   4.722   6.731   4.963  0.3985 -0.0016  0.4592
14618TIP3   OH243792   1.539   3.406   1.000 -0.0493 -0.7367  0.7275
14618TIP3    H143793   1.452   3.433   1.029  0.2316 -0.2339  1.1309
14618TIP3    H243794   1.598   3.469   1.042  0.4276 -0.4665 -0.3456
14619TIP3   OH243795   0.170   3.819   0.359  0.1181  0.2338 -0.2777
14619TIP3    H143796   0.259   3.795   0.383  0.0588 -2.9658 -2.9518
14619TIP3    H243797   0.163   3.797   0.266 -3.3327  0.7957 -0.2299
14620TIP3   OH243798   0.383   4.045   0.280 -0.4868 -0.4792  0.1658
14620TIP3    H143799   0.408   4.013   0.193 -0.3038  1.1033 -0.3711
14620TIP3    H243800   0.294   4.077   0.269 -0.5539 -0.5015  0.6313
14621TIP3   OH243801   1.226   3.531   0.339 -0.2820 -0.8923  0.6144
14621TIP3    H143802   1.243   3.625   0.329 -0.7917 -0.8574  0.0183
14621TIP3    H243803   1.259   3.509   0.426  0.8870 -0.3982  0.3040
14622TIP3   OH243804   8.501   1.158   6.543  0.3897  0.4891 -0.4326
14622TIP3    H143805   8.417   1.165   6.496 -0.9500 -0.6008  1.7489
14622TIP3    H243806   8.495   1.223   6.613  0.0274 -1.7718  1.6875
14623TIP3   OH243807   2.834   5.049   2.528 -0.4897  0.1918  0.1158
14623TIP3    H143808   2.841   4.969   2.477 -2.6944  0.9329 -1.4448
14623TIP3    H243809   2.766   5.031   2.592  0.3552  0.1849  1.0157
14624TIP3   OH243810   5.059   5.771   5.971 -0.6805 -0.5268 -0.6073
14624TIP3    H143811   5.127   5.703   5.967 -0.9302 -0.8041 -0.1693
14624TIP3    H243812   5.042   5.782   6.065 -0.6418  0.1437 -0.6741
14625TIP3   OH243813   2.604   6.785   5.940 -0.3943 -0.5271  0.0324
14625TIP3    H143814   2.512   6.796   5.964  0.0064  1.4775  0.7924
14625TIP3    H243815   2.632   6.872   5.912  1.1508 -1.2065 -0.6048
14626TIP3   OH243816   7.799   4.263   2.693 -0.6025  0.5275 -0.5496
14626TIP3    H143817   7.742   4.332   2.726 -1.7121 -0.7102  0.1801
14626TIP3    H243818   7.886   4.287   2.724 -1.0954  1.2015  0.3455
14627TIP3   OH243819   0.982   3.367   0.342  0.1912  0.0181 -0.1313
14627TIP3    H143820   0.995   3.347   0.435 -0.0439  0.7544  0.0641
14627TIP3    H243821   1.059   3.417   0.316 -1.0575  2.2773  0.4076
14628TIP3   OH243822   3.044   4.033   0.748 -0.8772 -0.3329 -0.5237
14628TIP3    H143823   3.066   4.049   0.840  1.6647  0.5839 -1.2332
14628TIP3    H243824   3.019   3.941   0.745  2.1157 -1.2564  0.6014
14629TIP3   OH243825   7.909   0.638   6.682 -0.0867  0.0880  0.2251
14629TIP3    H143826   7.935   0.547   6.663 -0.8827 -0.0331 -0.3433
14629TIP3    H243827   7.906   0.643   6.778  3.0008  0.4110  0.3275
14630TIP3   OH243828   3.940   7.389   6.768  0.0428 -0.2493  0.7413
14630TIP3    H143829   3.886   7.332   6.822 -1.2260  1.9818  1.9102
14630TIP3    H243830   4.000   7.431   6.830  0.8226 -0.1489 -0.0729
14631TIP3   OH243831   2.111   4.113   0.515 -0.4599 -0.2298 -0.0575
14631TIP3    H143832   2.053   4.051   0.470 -0.2630 -0.7110  0.3441
14631TIP3    H243833   2.102   4.090   0.607 -0.7465  0.6575  0.1404
14632TIP3   OH243834   1.456   4.098   0.556  0.0169 -0.5032  0.7085
14632TIP3    H143835   1.529   4.045   0.525  0.0156 -0.8662  1.3108
14632TIP3    H243836   1.481   4.188   0.537  0.3020 -0.6771  0.2598
14633TIP3   OH243837   3.137   3.506   2.146 -0.4268 -0.1512  0.4299
14633TIP3    H143838   3.129   3.460   2.063  1.1028 -2.5039  1.5347
14633TIP3    H243839   3.051   3.497   2.187 -0.7496 -0.2119 -0.2548
14634TIP3   OH243840   2.637   6.530   6.587  0.0827 -0.1351  0.0076
14634TIP3    H143841   2.655   6.538   6.681 -0.5583  0.9187  0.0411
14634TIP3    H243842   2.701   6.586   6.545  0.1039 -0.2841 -0.1584
14635TIP3   OH243843   1.062   2.433   0.154  0.6840  0.3153 -0.3443
14635TIP3    H143844   1.112   2.353   0.173  0.3624  0.8426  2.9633
14635TIP3    H243845   0.971   2.404   0.155  0.7216 -0.0619 -3.4291
14636TIP3   OH243846   6.016   7.551   6.674  0.5040 -0.2585  0.0460
14636TIP3    H143847   5.963   7.507   6.740  0.8049 -0.2416  0.2971
14636TIP3    H243848   5.958   7.618   6.637 -0.4711 -1.8806 -1.4277
14637TIP3   OH243849   3.360   7.376   6.387 -0.4219  0.1440  0.3878
14637TIP3    H143850   3.405   7.380   6.471  1.0160 -0.7063 -0.3227
14637TIP3    H243851   3.382   7.290   6.352 -3.6178 -0.8380  0.5492
14638TIP3   OH243852   2.087   3.004   0.662  0.0791  0.2058  0.7613
14638TIP3    H143853   2.030   3.018   0.586 -1.0564  0.3690  1.6343
14638TIP3    H243854   2.155   2.944   0.630 -1.1150 -0.7387 -0.0413
14639TIP3   OH243855   1.744   4.401   3.014 -0.2259 -0.0520  0.2603
14639TIP3    H143856   1.755   4.494   3.030 -0.1907  0.0711 -0.4630
14639TIP3    H243857   1.692   4.370   3.088  0.8414  0.2888  1.1774
14640TIP3   OH243858   3.732   6.596   5.420 -0.4292 -0.1341 -0.1502
14640TIP3    H143859   3.766   6.532   5.481 -0.8451 -0.1771  0.0380
14640TIP3    H243860   3.660   6.638   5.467  0.3951  1.0807  0.0617
14641TIP3   OH243861   3.335   2.431   1.304  0.6617  0.5517 -0.2554
14641TIP3    H143862   3.361   2.523   1.292  1.2609  0.4180  0.0178
14641TIP3    H243863   3.392   2.383   1.244  0.0919  0.3897 -0.6740
14642TIP3   OH243864   4.875   5.068   6.034  0.0367 -0.0571  0.0497
14642TIP3    H143865   4.957   5.018   6.033 -1.1947 -2.2420  2.5893
14642TIP3    H243866   4.903   5.159   6.039  2.3136 -0.7160 -0.0781
14643TIP3   OH243867   8.229   6.418   6.951  0.1155  0.4067  0.2905
14643TIP3    H143868   8.189   6.389   6.869  0.0740 -0.0440  0.4643
14643TIP3    H243869   8.185   6.500   6.972 -1.4175 -0.5798  0.9900
14644TIP3   OH243870   6.738   1.476   5.944 -0.2411  0.3955 -0.1710
14644TIP3    H143871   6.686   1.410   5.898 -0.1136  0.5367 -0.5207
14644TIP3    H243872   6.828   1.444   5.937 -0.3581 -0.2990  1.1833
14645TIP3   OH243873   2.677   7.513   5.662  0.4346 -0.4009  0.6670
14645TIP3    H143874   2.673   7.548   5.751 -1.2391 -0.1899  0.5335
14645TIP3    H243875   2.757   7.549   5.625  0.4156  0.6448  1.6283
14646TIP3   OH243876   1.074   3.855   2.578  0.2993 -0.0480 -0.2362
14646TIP3    H143877   1.098   3.775   2.531  0.4956 -0.6247  0.8430
14646TIP3    H243878   1.014   3.901   2.518 -0.5859 -1.4639 -0.4557
14647TIP3   OH243879   2.443   3.706   0.058  0.2853 -0.3985 -0.2532
14647TIP3    H143880   2.401   3.778   0.010 -1.2499 -0.4216  1.0039
14647TIP3    H243881   2.388   3.630   0.040 -0.0512 -0.5001  1.1356
14648TIP3   OH243882   3.385   5.427   0.342 -0.0177 -0.1468  0.1000
14648TIP3    H143883   3.444   5.430   0.267 -1.9246 -0.4654 -1.4655
14648TIP3    H243884   3.389   5.337   0.373 -0.0314 -0.2805 -0.2854
14649TIP3   OH243885   2.837   2.386   0.527 -0.0075  0.7518  0.2687
14649TIP3    H143886   2.902   2.397   0.458 -0.0816  0.8374  0.2130
14649TIP3    H243887   2.823   2.474   0.562  0.2723  0.6610  0.6137
14650TIP3   OH243888   8.185   0.107   6.820  0.6653 -0.3682 -0.2819
14650TIP3    H143889   8.271   0.066   6.817  0.9783  0.4117 -2.0130
14650TIP3    H243890   8.202   0.201   6.824 -0.0967 -0.2334 -0.0871
14651TIP3   OH243891   5.427   7.215   6.529 -0.4169 -0.5154 -0.0271
14651TIP3    H143892   5.517   7.240   6.550 -0.4272 -1.0569  0.7098
14651TIP3    H243893   5.373   7.271   6.585 -0.6653  1.6035 -2.2819
14652TIP3   OH243894   1.204   3.544   0.813 -0.2235 -0.1042  0.2121
14652TIP3    H143895   1.200   3.630   0.771 -1.3938  0.0975  0.7095
14652TIP3    H243896   1.262   3.558   0.888  1.4434 -0.3358 -0.9971
14653TIP3   OH243897   5.851   5.226   5.715 -0.0902 -0.8230 -0.2723
14653TIP3    H143898   5.859   5.252   5.623 -1.5227  0.1212 -0.1410
14653TIP3    H243899   5.930   5.174   5.732 -0.9231 -2.9262 -2.6454
14654TIP3   OH243900   6.712   5.236   6.454  0.1354 -0.2291 -1.1013
14654TIP3    H143901   6.700   5.167   6.388  2.4960  0.4585 -2.2682
14654TIP3    H243902   6.652   5.306   6.427 -1.7047 -1.4494 -0.3420
14655TIP3   OH243903   2.583   2.309   0.411 -0.2100 -0.3599  0.1579
14655TIP3    H143904   2.659   2.341   0.460 -1.4962 -0.6799  2.4215
14655TIP3    H243905   2.553   2.384   0.360  1.3506 -0.1194 -0.4404
14656TIP3   OH243906   1.961   1.595   1.946  0.0685 -0.4836 -0.1776
14656TIP3    H143907   1.872   1.616   1.921 -0.2279  0.2974  1.4862
14656TIP3    H243908   2.003   1.679   1.963  0.8346 -0.8857 -0.0101
14657TIP3   OH243909   4.551   5.002   5.339 -0.2183  0.5085 -0.9927
14657TIP3    H143910   4.495   4.956   5.277 -0.1009  0.5353 -1.1209
14657TIP3    H243911   4.494   5.065   5.383 -0.2821  0.5516 -1.1393
14658TIP3   OH243912   4.325   5.336   6.819  0.2979  0.2779 -0.0322
14658TIP3    H143913   4.381   5.336   6.742  0.5458 -0.3146  0.1504
14658TIP3    H243914   4.355   5.262   6.872 -1.1720 -0.5456 -0.3088
14659TIP3   OH243915   3.379   5.676   5.737 -0.1942 -0.3964 -0.4237
14659TIP3    H143916   3.431   5.597   5.747  2.2966  0.8557 -2.9191
14659TIP3    H243917   3.328   5.661   5.657 -1.6519 -0.4861  0.4994
14660TIP3   OH243918   7.057   5.767   5.902  0.1544  0.2306  0.4095
14660TIP3    H143919   7.037   5.741   5.992  0.1423  0.4055  0.4589
14660TIP3    H243920   7.150   5.791   5.904  0.2995 -0.3191  0.2448
14661TIP3   OH243921   1.324   2.479   2.060  0.5979 -0.3971 -0.6351
14661TIP3    H143922   1.394   2.455   1.999  1.6726 -0.8475  0.7637
14661TIP3    H243923   1.250   2.426   2.032  0.4439  0.8680 -2.8052
14662TIP3   OH243924   3.063   4.878   0.284  1.0191  0.1900  0.0814
14662TIP3    H143925   3.098   4.967   0.285  1.1646  0.1490 -1.0702
14662TIP3    H243926   2.970   4.890   0.302  1.0785  0.5533  0.1667
14663TIP3   OH243927   0.313   0.247   0.773 -0.2431 -0.1706 -0.6994
14663TIP3    H143928   0.334   0.155   0.788 -0.7431  0.0965  1.7920
14663TIP3    H243929   0.229   0.260   0.817  0.3078  1.7267 -0.1758
14664TIP3   OH243930   0.565   4.845   2.567  0.1520  0.6317  0.2039
14664TIP3    H143931   0.497   4.898   2.609 -0.9594  0.5444 -1.4263
14664TIP3    H243932   0.516   4.781   2.514  1.4878 -1.8358  1.8977
14665TIP3   OH243933   5.013   1.651   1.108 -0.1329 -0.4877  0.3652
14665TIP3    H143934   5.104   1.679   1.104 -0.0180 -0.9966 -1.1975
14665TIP3    H243935   4.970   1.699   1.037 -1.0408 -0.4104  0.9510
14666TIP3   OH243936   0.051   4.659   1.450  0.2307  0.3873  0.1000
14666TIP3    H143937  -0.025   4.659   1.391 -2.1160 -1.3845  3.0184
14666TIP3    H243938   0.058   4.749   1.480 -0.7741  0.5403 -0.0983
14667TIP3   OH243939   8.439   3.299   1.856  0.8458  0.8537 -0.0472
14667TIP3    H143940   8.380   3.272   1.926  1.3686  1.5861  0.6730
14667TIP3    H243941   8.390   3.282   1.776 -0.1853  1.0567  0.5346
14668TIP3   OH243942   1.687   3.188   0.604 -0.0036 -0.0590 -0.2622
14668TIP3    H143943   1.699   3.174   0.510  1.2760 -0.5166 -0.0373
14668TIP3    H243944   1.636   3.113   0.634  0.4245 -0.4149 -0.4190
14669TIP3   OH243945   0.895   5.065   1.459 -0.5777  0.7693 -0.2266
14669TIP3    H143946   0.849   5.053   1.375 -0.4444  2.8772 -0.6360
14669TIP3    H243947   0.974   5.114   1.436 -0.0888  0.5882  1.0282
14670TIP3   OH243948   5.740   5.931   6.271  0.3446  0.6910  0.1003
14670TIP3    H143949   5.817   5.982   6.246  1.2869 -0.3133  0.9365
14670TIP3    H243950   5.709   5.893   6.189  0.0836  1.9528 -0.4119
14671TIP3   OH243951   6.419   5.543   6.807  0.1120  0.0812  0.4040
14671TIP3    H143952   6.441   5.460   6.765 -3.0559 -0.8901  0.5470
14671TIP3    H243953   6.330   5.562   6.778 -0.3233  1.9094  2.7534
14672TIP3   OH243954   3.197   3.454   0.500 -0.6490  0.3725 -0.3095
14672TIP3    H143955   3.224   3.541   0.527 -0.7238  0.3078 -0.0294
14672TIP3    H243956   3.278   3.403   0.495 -0.8945 -0.2918  2.1963
14673TIP3   OH243957   2.458   4.472   5.144 -0.2144 -0.1567  0.3332
14673TIP3    H143958   2.470   4.549   5.199 -1.0741  0.7322 -0.6765
14673TIP3    H243959   2.543   4.428   5.144  0.2163  0.6647  1.1175
14674TIP3   OH243960   1.104   1.765   1.727 -0.1745 -0.2142 -0.2767
14674TIP3    H143961   1.131   1.808   1.808  0.9883  0.2391 -0.8886
14674TIP3    H243962   1.073   1.679   1.754 -0.6204  0.2568  0.7425
14675TIP3   OH243963   4.348   4.518   6.216 -0.2448  0.0649 -0.4063
14675TIP3    H143964   4.439   4.508   6.188 -0.6372  1.0404 -2.1093
14675TIP3    H243965   4.300   4.452   6.166 -0.5658  0.0102 -0.0230
14676TIP3   OH243966   4.155   7.928   5.659  0.1690 -0.6594 -0.6792
14676TIP3    H143967   4.231   7.925   5.716 -1.5732  1.0548  1.8378
14676TIP3    H243968   4.183   7.884   5.579  3.5076 -0.7932  0.4984
14677TIP3   OH243969   4.982   4.827   5.946  0.5500 -0.0213 -0.3420
14677TIP3    H143970   5.012   4.823   6.036  2.3860  0.4784 -0.9176
14677TIP3    H243971   4.996   4.738   5.912 -1.6467 -0.6597  0.2958
14678TIP3   OH243972   1.259   4.172   0.389 -0.0761  0.4850 -0.3850
14678TIP3    H143973   1.188   4.229   0.419  1.3414  2.4497 -0.6666
14678TIP3    H243974   1.306   4.149   0.469  0.2768  0.9909 -0.4463
14679TIP3   OH243975   2.867   3.981   5.636  0.3083 -0.1538 -0.1115
14679TIP3    H143976   2.813   4.059   5.651  1.5700  0.6539  0.2910
14679TIP3    H243977   2.889   3.949   5.723  2.2618  0.7740 -0.2481
14680TIP3   OH243978   7.660   1.817   0.020 -0.3619 -0.2398  0.0186
14680TIP3    H143979   7.646   1.910   0.003 -0.2974 -0.1802  0.2885
14680TIP3    H243980   7.746   1.812   0.061  0.2103 -0.5575 -1.1870
14681TIP3   OH243981   4.023   6.934   5.546 -0.0781 -0.0013  0.4727
14681TIP3    H143982   3.963   6.976   5.484  0.6405  0.8024  0.3090
14681TIP3    H243983   4.037   6.847   5.510 -1.2318 -0.2403  0.5715
14682TIP3   OH243984   5.075   6.773   6.750  0.3228  0.1773 -0.3552
14682TIP3    H143985   4.987   6.745   6.776  0.6389  0.2801  0.8559
14682TIP3    H243986   5.093   6.725   6.669 -1.7891  1.9877 -1.9487
14683TIP3   OH243987   3.016   2.688   1.636  1.0172  0.1596  0.2431
14683TIP3    H143988   3.021   2.779   1.665  0.2442  0.9914 -2.1028
14683TIP3    H243989   2.940   2.652   1.682  1.4891  0.5908  1.3865
14684TIP3   OH243990   2.009   1.954   0.691  0.1020  0.3538 -0.5006
14684TIP3    H143991   1.990   2.026   0.630  0.2249 -0.7178 -1.8195
14684TIP3    H243992   2.086   1.984   0.741 -1.3319  2.1723  0.6997
14685TIP3   OH243993   4.544   6.679   5.372 -0.2109  0.1203 -0.0579
14685TIP3    H143994   4.464   6.731   5.376  0.2613  0.8908 -0.3775
14685TIP3    H243995   4.554   6.658   5.279 -0.0247  0.0598 -0.0247
14686TIP3   OH243996   4.972   6.028   6.207  0.1418 -0.0418  0.4668
14686TIP3    H143997   5.011   5.942   6.193 -1.3046 -0.6545  0.1561
14686TIP3    H243998   4.917   6.017   6.284 -0.2281  0.5410  0.2890
14687TIP3   OH243999   6.573   6.022   6.942 -0.1388  0.2211 -0.0205
14687TIP3    H144000   6.489   5.991   6.908  0.4037  0.0985 -1.2621
14687TIP3    H244001   6.557   6.113   6.966 -0.2192  0.6806 -1.7479
14688TIP3   OH244002   4.320   5.063   0.065 -0.2896 -0.1943  0.1541
14688TIP3    H144003   4.255   5.126   0.095 -1.2882 -1.5295  0.8052
14688TIP3    H244004   4.404   5.098   0.097 -0.8834  0.5864  0.8659
14689TIP3   OH244005   4.511   5.653   6.768  0.3656  0.2227  0.1861
14689TIP3    H144006   4.424   5.690   6.783  1.3479  2.4067  0.6414
14689TIP3    H244007   4.513   5.574   6.822 -1.8235 -0.6244 -0.9234
14690TIP3   OH244008   1.074   0.999   6.223  0.6214 -0.5259  0.0594
14690TIP3    H144009   1.164   1.030   6.234  1.2998 -1.7852 -1.6935
14690TIP3    H244010   1.036   1.059   6.160  0.4109 -0.3459  0.3570
14691TIP3   OH244011   6.019   6.734   6.031  0.6004 -0.3448  0.0045
14691TIP3    H144012   6.025   6.817   5.984  0.8636 -1.7355 -2.4709
14691TIP3    H244013   6.107   6.720   6.066  0.2146  1.0628  1.6273
14692TIP3   OH244014   2.822   2.162   0.666  0.1776  0.0363 -0.8975
14692TIP3    H144015   2.801   2.230   0.603  0.2498  1.1830  0.2842
14692TIP3    H244016   2.911   2.182   0.695 -0.3468  0.3694  0.5792
14693TIP3   OH244017   7.550   3.481   0.980  0.1143 -0.0065 -0.0297
14693TIP3    H144018   7.546   3.555   0.919  2.5763  1.1729  1.1672
14693TIP3    H244019   7.643   3.467   0.995 -0.3923 -1.6343  1.8631
14694TIP3   OH244020   7.123   5.472   5.888  0.1887 -0.1834 -0.6103
14694TIP3    H144021   7.041   5.503   5.849  0.2933  0.3855 -0.3834
14694TIP3    H244022   7.180   5.549   5.886 -0.1608  0.1467  1.6372
14695TIP3   OH244023   5.085   7.219   4.609 -0.2740 -0.0388  0.0674
14695TIP3    H144024   5.133   7.274   4.671 -0.7263  1.4772 -0.8941
14695TIP3    H244025   5.047   7.149   4.663  3.1304 -1.3939  0.8282
14696TIP3   OH244026   1.962   0.657   0.984  0.4826 -0.6504  0.4402
14696TIP3    H144027   1.882   0.678   1.031  0.7368 -0.9559  1.0192
14696TIP3    H244028   2.002   0.742   0.964  0.1130 -0.5064  0.3207
14697TIP3   OH244029   3.817   6.471   6.103 -0.0989  0.2894 -0.2902
14697TIP3    H144030   3.729   6.469   6.065  0.7430  0.2490 -2.3028
14697TIP3    H244031   3.821   6.394   6.159 -1.9938  1.3404  1.3224
14698TIP3   OH244032   2.164   2.976   1.869  0.2881  0.5440 -0.0474
14698TIP3    H144033   2.237   3.018   1.915  1.4116 -1.6917  0.2880
14698TIP3    H244034   2.187   2.982   1.776  0.3286  0.8704 -0.0155
14699TIP3   OH244035   5.446   6.109   6.677  0.0674 -0.3160  0.0963
14699TIP3    H144036   5.540   6.099   6.658  0.7630  4.1726  0.5186
14699TIP3    H244037   5.402   6.075   6.600  2.2102  0.7787 -1.6632
14700TIP3   OH244038   3.879   5.657   5.474  0.2539 -0.1122  0.5765
14700TIP3    H144039   3.866   5.712   5.396  0.5480 -0.9773 -0.0989
14700TIP3    H244040   3.949   5.700   5.523 -0.1859  0.6392  0.5464
14701TIP3   OH244041   4.018   5.715   6.031  0.3494 -0.3381 -0.0498
14701TIP3    H144042   3.981   5.628   6.018  0.1543 -0.1189 -1.0270
14701TIP3    H244043   3.944   5.774   6.018  0.6385  0.0058 -0.1383
14702TIP3   OH244044   4.657   4.434   6.480  0.0567 -0.3900 -0.1083
14702TIP3    H144045   4.573   4.479   6.483 -0.7011 -1.6165 -2.3433
14702TIP3    H244046   4.646   4.357   6.535 -0.8148 -1.3838 -1.6378
14703TIP3   OH244047   6.408   6.182   6.140 -0.3338 -0.2658  0.0264
14703TIP3    H144048   6.452   6.265   6.121  1.9875 -1.2007  1.2382
14703TIP3    H244049   6.362   6.197   6.222 -2.3721  0.7128 -1.2446
14704TIP3   OH244050   7.681   5.853   5.371 -0.0774  0.1632 -0.2981
14704TIP3    H144051   7.638   5.892   5.295  0.9460 -0.4077 -1.1627
14704TIP3    H244052   7.624   5.878   5.445 -0.8134  1.1149 -1.1680
14705TIP3   OH244053   6.707   6.401   5.582 -0.1844 -0.0006  0.1330
14705TIP3    H144054   6.709   6.391   5.677  0.7416 -3.0986 -0.1913
14705TIP3    H244055   6.668   6.320   5.549 -0.8936  1.1899 -2.1417
14706TIP3   OH244056   2.085   3.316   0.399  0.1053 -0.2974  0.0102
14706TIP3    H144057   2.030   3.367   0.340 -0.8000 -0.1845  0.9411
14706TIP3    H244058   2.052   3.336   0.487  0.7501 -1.2715  0.4916
14707TIP3   OH244059   0.540   0.805   5.779 -0.0037  0.0502 -0.3515
14707TIP3    H144060   0.546   0.816   5.874 -0.1488 -0.4976 -0.2723
14707TIP3    H244061   0.474   0.736   5.767  2.0897 -1.9925 -0.7049
14708TIP3   OH244062   5.305   6.601   6.230 -0.0348 -0.5565  0.0120
14708TIP3    H144063   5.293   6.544   6.154 -1.0479 -0.9421  0.4504
14708TIP3    H244064   5.394   6.635   6.221  0.0934 -1.1389 -0.9771
14709TIP3   OH244065   5.182   7.965   6.186  0.9244 -0.4018 -0.2879
14709TIP3    H144066   5.113   8.012   6.233  2.2206 -0.4771  1.7308
14709TIP3    H244067   5.181   7.877   6.223  1.8274 -0.5239 -0.5371
14710TIP3   OH244068   1.236   6.677   5.573  0.1011  0.6886  0.2272
14710TIP3    H144069   1.185   6.745   5.529  0.8871  1.8373  1.0720
14710TIP3    H244070   1.182   6.649   5.646 -0.6920 -0.3821 -0.7483
14711TIP3   OH244071   0.028   7.361   6.741  0.1483 -0.1566  0.9072
14711TIP3    H144072   0.015   7.266   6.742  1.0810 -0.2791  2.1672
14711TIP3    H244073   0.091   7.377   6.811  0.4320  1.3323  0.3188
14712TIP3   OH244074   6.315   5.709   5.590 -0.1008 -0.6398 -0.3286
14712TIP3    H144075   6.338   5.627   5.635 -0.3051 -0.6950 -0.3207
14712TIP3    H244076   6.220   5.703   5.577 -0.3663  0.2675  1.0356
14713TIP3   OH244077   2.470   3.886   1.710 -0.2965 -1.2513  0.2258
14713TIP3    H144078   2.549   3.937   1.690 -0.0969 -2.1880 -1.4850
14713TIP3    H244079   2.400   3.951   1.716 -0.0423 -0.7540 -1.9145
14714TIP3   OH244080   6.041   6.381   5.824  0.3008 -0.0517 -0.3767
14714TIP3    H144081   5.971   6.345   5.878  0.0324  0.6230 -0.2719
14714TIP3    H244082   6.019   6.354   5.735  0.2971 -0.4605 -0.2501
14715TIP3   OH244083   5.741   6.052   5.681 -0.1581 -0.3119  0.5262
14715TIP3    H144084   5.739   5.975   5.624  0.0211  0.3543 -0.3925
14715TIP3    H244085   5.649   6.073   5.697 -0.2900  1.3869 -2.1241
14716TIP3   OH244086   7.376   6.636   6.160 -0.8557  0.3239  0.0212
14716TIP3    H144087   7.448   6.582   6.126 -0.9149 -0.9478  1.8612
14716TIP3    H244088   7.298   6.581   6.149 -1.7261  1.9987 -2.6938
14717TIP3   OH244089   8.082   1.632   6.242 -0.1877  0.0896  0.5104
14717TIP3    H144090   8.066   1.578   6.165 -0.3528 -1.1720  1.4233
14717TIP3    H244091   8.151   1.587   6.290 -0.2996  0.7039  1.2615
14718TIP3   OH244092   7.885   7.510   5.829 -0.2677 -0.2475 -0.5631
14718TIP3    H144093   7.932   7.445   5.882  2.0357  0.7548 -1.3273
14718TIP3    H244094   7.925   7.504   5.743 -0.4603  1.7258 -0.8104
14719TIP3   OH244095   7.500   6.419   5.453 -0.1427 -0.2360  0.0541
14719TIP3    H144096   7.437   6.372   5.507 -0.4979 -0.6368 -0.6932
14719TIP3    H244097   7.469   6.405   5.363  1.5143 -1.2135 -0.3912
14720TIP3   OH244098   5.618   7.971   3.125  0.0741  0.3025  0.1592
14720TIP3    H144099   5.582   7.958   3.212  2.0521 -0.3824  0.9048
14720TIP3    H244100   5.689   7.907   3.119  2.2683  2.7304 -0.5995
14721TIP3   OH244101   3.484   3.114   0.157 -0.2553 -0.7222  0.0645
14721TIP3    H144102   3.502   3.022   0.175 -0.2338 -0.8762 -0.7476
14721TIP3    H244103   3.559   3.143   0.106  0.5068  0.1546  1.6195
14722TIP3   OH244104   5.808   6.228   5.943 -0.8285 -0.6328 -0.1502
14722TIP3    H144105   5.736   6.250   6.002 -0.3783  0.3057  0.0536
14722TIP3    H244106   5.778   6.259   5.857 -0.5411  0.0295 -0.0117
14723TIP3   OH244107   4.705   7.246   5.374  0.0529  0.0292 -0.3474
14723TIP3    H144108   4.715   7.312   5.443 -0.9063  0.6026 -0.7376
14723TIP3    H244109   4.621   7.204   5.394 -0.4639  0.5227 -1.4278
14724TIP3   OH244110   6.566   7.858   6.032 -1.0808  0.1009  0.8327
14724TIP3    H144111   6.500   7.797   6.065 -2.2800  0.5574 -0.6950
14724TIP3    H244112   6.646   7.806   6.027 -1.1587 -0.3107  3.2415
14725TIP3   OH244113   6.284   7.596   6.648 -0.0368 -0.3680  0.0542
14725TIP3    H144114   6.291   7.667   6.583 -2.2649 -1.0836 -1.0355
14725TIP3    H244115   6.190   7.574   6.649  0.3551 -2.0852  1.6905
14726TIP3   OH244116   6.834   6.936   5.557 -0.8662  0.0775 -0.1259
14726TIP3    H144117   6.746   6.963   5.532 -0.8995 -0.2713 -0.3876
14726TIP3    H244118   6.878   6.917   5.475 -0.4879  0.4275 -0.0042
14727TIP3   OH244119   1.804   2.266   0.941  0.2910  0.1751 -0.6845
14727TIP3    H144120   1.792   2.202   1.011  0.7796 -0.0852 -0.8350
14727TIP3    H244121   1.779   2.349   0.980  0.3642  0.0006 -0.2631
14728TIP3   OH244122   6.911   6.658   5.959  0.3391 -0.2156 -0.0136
14728TIP3    H144123   6.914   6.733   6.019 -0.0853  0.4787 -0.8489
14728TIP3    H244124   6.934   6.694   5.874 -0.9915 -0.8038 -0.6403
14729TIP3   OH244125   7.430   4.637   6.506 -0.2506  0.7530 -0.1457
14729TIP3    H144126   7.445   4.719   6.553 -0.7781  0.7909 -0.0369
14729TIP3    H244127   7.487   4.642   6.429  0.7407  0.6150  0.5706
14730TIP3   OH244128   4.249   6.188   6.742 -0.1800  0.3315  0.3248
14730TIP3    H144129   4.226   6.274   6.777 -0.1192  0.0937  0.9585
14730TIP3    H244130   4.302   6.148   6.811 -0.5611 -0.3802  0.2044
14731TIP3   OH244131   8.313   0.368   6.646  0.6503 -0.1702  0.1200
14731TIP3    H144132   8.406   0.347   6.655  1.0898  1.7072  0.3083
14731TIP3    H244133   8.279   0.303   6.585  2.5769  0.4541 -1.6744
14732TIP3   OH244134   5.904   3.235   0.031 -0.2601  0.5547 -0.3346
14732TIP3    H144135   5.930   3.160   0.084 -1.9912  0.1546 -0.0376
14732TIP3    H244136   5.907   3.309   0.092 -0.6578  0.3663 -0.0849
14733TIP3   OH244137   7.191   7.517   6.114  0.0051  0.6230 -0.3568
14733TIP3    H144138   7.139   7.522   6.195  1.3649 -0.3217  0.5916
14733TIP3    H244139   7.146   7.451   6.062 -0.9634  1.3406 -0.4414
14734TIP3   OH244140   6.629   7.714   6.428 -0.7152 -0.1414 -0.0246
14734TIP3    H144141   6.598   7.794   6.385 -2.2555 -0.6774  0.0498
14734TIP3    H244142   6.723   7.727   6.438 -0.5920  0.7354 -2.0093
14735TIP3   OH244143   5.305   3.475   5.136  0.2418 -0.0527  0.0798
14735TIP3    H144144   5.237   3.520   5.185  0.7723  0.5491  0.2703
14735TIP3    H244145   5.322   3.395   5.186 -1.3827 -0.9671 -0.7766
14736TIP3   OH244146   4.611   6.167   6.535  0.1366 -0.1007 -0.4201
14736TIP3    H144147   4.591   6.092   6.591  0.2199  0.1243 -0.0894
14736TIP3    H244148   4.594   6.244   6.590  0.5503  0.1129 -0.5834
14737TIP3   OH244149   6.941   6.221   6.712  0.1381 -0.2649  0.4762
14737TIP3    H144150   6.874   6.156   6.693  0.3099 -0.2014 -0.3981
14737TIP3    H244151   7.024   6.174   6.702  0.2325 -0.2304  1.1004
14738TIP3   OH244152   1.588   4.609   1.261 -0.5879 -0.4128 -0.4068
14738TIP3    H144153   1.652   4.598   1.331  0.6275 -0.1826 -1.4544
14738TIP3    H244154   1.508   4.637   1.305  0.4641  0.8004  0.7748
14739TIP3   OH244155   0.106   4.627   0.612 -0.1525  0.4667 -0.2481
14739TIP3    H144156   0.043   4.695   0.635 -1.7735 -0.6189 -1.3539
14739TIP3    H244157   0.174   4.672   0.562 -0.8570  1.3794 -0.3848
14740TIP3   OH244158   2.382   6.693   0.334  0.1729 -0.1022 -0.5269
14740TIP3    H144159   2.414   6.759   0.271  1.3151 -1.2898 -1.2228
14740TIP3    H244160   2.384   6.611   0.285 -1.0516 -0.6916  0.3974
14741TIP3   OH244161   7.944   3.222   0.906  0.0692 -0.3550  0.6049
14741TIP3    H144162   7.900   3.154   0.957  0.4404 -0.2400  1.0784
14741TIP3    H244163   7.911   3.210   0.817  1.0340 -1.8901  0.4474
14742TIP3   OH244164   5.873   0.053   6.947 -0.5232  0.4073  0.2413
14742TIP3    H144165   5.968   0.061   6.938 -0.3848  0.2733  1.5550
14742TIP3    H244166   5.846   0.007   6.867  0.6044 -0.3090  0.2528
14743TIP3   OH244167   5.793   0.527   6.442 -0.4268  0.7650 -0.3215
14743TIP3    H144168   5.820   0.458   6.502  0.0639  0.7397 -0.5706
14743TIP3    H244169   5.699   0.538   6.459 -0.5175  0.0042 -0.3263
14744TIP3   OH244170   6.831   6.259   1.474 -0.1516  0.0439 -0.5440
14744TIP3    H144171   6.791   6.197   1.413 -0.1685 -0.6595  0.1704
14744TIP3    H244172   6.924   6.258   1.451 -0.0372 -0.8042 -0.0575
14745TIP3   OH244173   3.211   1.030   6.499  0.6195 -0.3615  0.2453
14745TIP3    H144174   3.291   0.980   6.483  1.1715 -0.1516  2.1980
14745TIP3    H244175   3.169   0.986   6.573 -0.0851  0.6675  0.4743
14746TIP3   OH244176   0.433   4.261   0.738  0.7307 -0.5690 -0.6698
14746TIP3    H144177   0.338   4.261   0.749  0.7714  0.8907 -0.2281
14746TIP3    H244178   0.448   4.212   0.657 -0.3049 -1.9106 -0.0556
14747TIP3   OH244179   1.838   3.338   0.118  0.2878  0.0648 -0.0265
14747TIP3    H144180   1.861   3.412   0.174  1.8466 -0.1677 -0.3387
14747TIP3    H244181   1.913   3.328   0.059 -0.2503 -1.2689 -0.5042
14748TIP3   OH244182   3.649   7.510   4.544 -0.3541  0.3154 -0.8410
14748TIP3    H144183   3.562   7.529   4.510 -1.2470 -0.8196  0.7158
14748TIP3    H244184   3.699   7.590   4.530 -1.6379  0.9684 -1.7679
14749TIP3   OH244185   5.613   1.177   6.027 -0.1217 -0.3977  0.5112
14749TIP3    H144186   5.595   1.187   5.933 -0.1535  0.2075  0.5809
14749TIP3    H244187   5.708   1.167   6.032 -0.0846 -0.0732  0.4461
14750TIP3   OH244188   7.930   7.971   4.161  0.9011 -0.3242 -0.2189
14750TIP3    H144189   7.835   7.956   4.154  0.6954  0.1219  1.4354
14750TIP3    H244190   7.953   8.013   4.079 -0.6584  1.1161  0.0398
14751TIP3   OH244191   1.964   2.733   2.000  0.2178 -0.6243  0.4447
14751TIP3    H144192   1.936   2.731   1.909 -0.5767 -2.5880  0.7066
14751TIP3    H244193   1.892   2.775   2.047  0.6702  0.4774  0.1675
14752TIP3   OH244194   6.658   2.100   6.889  0.2250  0.3099 -0.5235
14752TIP3    H144195   6.563   2.110   6.888  0.4197  2.8720  0.7008
14752TIP3    H244196   6.680   2.072   6.800 -1.7909 -1.8571 -0.3805
14753TIP3   OH244197   5.494   6.818   6.340 -0.2982  0.1767  0.2178
14753TIP3    H144198   5.580   6.825   6.382 -0.1171 -1.9864  0.2777
14753TIP3    H244199   5.441   6.769   6.403 -1.5722  1.4815  0.1649
14754TIP3   OH244200   7.811   5.559   0.374 -0.0335  0.2296  0.1367
14754TIP3    H144201   7.821   5.488   0.438  0.6921 -0.7174 -1.0034
14754TIP3    H244202   7.803   5.514   0.290  1.1133  1.5298 -0.6813
14755TIP3   OH244203   4.110   6.415   6.138  0.2385 -0.1473 -0.2833
14755TIP3    H144204   4.032   6.471   6.141  0.7303  0.5134  0.0839
14755TIP3    H244205   4.160   6.448   6.063  0.0098 -0.7857 -0.7228
14756TIP3   OH244206   5.846   1.127   6.935  0.2300  0.2024  0.3548
14756TIP3    H144207   5.908   1.055   6.922  0.4606  0.6751 -1.2525
14756TIP3    H244208   5.763   1.093   6.903  0.4222  0.7822 -0.7618
14757TIP3   OH244209   0.430   3.160   0.110  0.0402 -0.1301  0.1736
14757TIP3    H144210   0.357   3.132   0.167 -0.2963 -0.5933 -0.4758
14757TIP3    H244211   0.389   3.178   0.026  0.4452  1.2153  0.2617
14758TIP3   OH244212   5.016   1.844   2.076 -0.2304  0.2366 -0.0364
14758TIP3    H144213   5.009   1.924   2.128  1.3980  0.3130  0.0990
14758TIP3    H244214   5.085   1.793   2.119 -0.6644 -0.8685 -0.6145
14759TIP3   OH244215   8.189   2.726   2.082  0.3184  0.0392  0.6317
14759TIP3    H144216   8.209   2.790   2.149 -0.6858  1.7317 -0.6363
14759TIP3    H244217   8.269   2.718   2.030  0.9113 -0.8525  1.6527
14760TIP3   OH244218   0.665   4.271   0.357 -0.1750 -0.3250  0.1123
14760TIP3    H144219   0.685   4.243   0.267 -0.9897 -1.4136  0.2567
14760TIP3    H244220   0.708   4.207   0.412  1.1899  0.9279  0.5449
14761TIP3   OH244221   6.895   0.589   6.413 -0.2444 -0.7029  0.2752
14761TIP3    H144222   6.858   0.507   6.445  0.8319 -1.8379 -1.3119
14761TIP3    H244223   6.969   0.562   6.358  0.6065  1.3624  0.3643
14762TIP3   OH244224   1.037   6.004   1.774 -0.0836  0.2808  0.7775
14762TIP3    H144225   1.020   5.910   1.774  0.1811  0.2334  0.9131
14762TIP3    H244226   0.993   6.036   1.695 -2.1854  0.4178  1.9613
14763TIP3   OH244227   1.076   3.192   1.033 -0.5806  0.1927  0.6082
14763TIP3    H144228   1.075   3.243   1.114  3.0514  0.5605  0.4913
14763TIP3    H244229   1.090   3.102   1.061 -0.6946  0.1270  0.4557
14764TIP3   OH244230   4.624   5.299   6.748 -0.0436 -0.1704  0.3802
14764TIP3    H144231   4.550   5.266   6.799 -0.1144 -0.5537  0.0372
14764TIP3    H244232   4.701   5.270   6.796 -0.1039 -1.0996 -0.0709
14765TIP3   OH244233   6.204   0.241   6.603  0.1848 -0.6583  0.9077
14765TIP3    H144234   6.234   0.169   6.659 -0.1617 -2.1670 -0.8173
14765TIP3    H244235   6.279   0.258   6.545  0.4192  0.6723  1.5815
14766TIP3   OH244236   7.304   0.092   5.469 -0.2593  0.3051  0.0320
14766TIP3    H144237   7.296   0.187   5.460 -3.8006  0.0542 -0.1170
14766TIP3    H244238   7.232   0.057   5.417  0.2121 -2.4441  1.1670
14767TIP3   OH244239   4.512   7.051   6.474 -0.1538  0.3452  0.3496
14767TIP3    H144240   4.529   7.015   6.387 -0.9879 -0.5773  0.5697
14767TIP3    H244241   4.437   7.110   6.462 -0.9925 -0.6443  0.6490
14768TIP3   OH244242   7.792   1.773   4.027 -0.1766 -0.2458  0.0148
14768TIP3    H144243   7.797   1.772   4.122  2.2785  0.9892 -0.0623
14768TIP3    H244244   7.779   1.681   4.003 -3.0368 -0.3030  1.5837
14769TIP3   OH244245   0.592   0.412   3.827 -0.2253  0.1696  0.1143
14769TIP3    H144246   0.602   0.318   3.813  0.1959  0.3260 -0.6253
14769TIP3    H244247   0.600   0.422   3.922 -0.8213 -0.6015  0.2571
14770TIP3   OH244248   1.460   4.203   1.887 -0.3088 -0.2017  0.3887
14770TIP3    H144249   1.503   4.122   1.915 -1.3703 -0.7485  0.4535
14770TIP3    H244250   1.477   4.266   1.957  0.0391 -0.5322  0.5972
14771TIP3   OH244251   1.682   7.228   6.876 -0.1197 -0.0412 -0.2086
14771TIP3    H144252   1.693   7.174   6.798  0.8298  0.3493 -0.3570
14771TIP3    H244253   1.704   7.170   6.949  3.2553  0.7355 -0.4978
14772TIP3   OH244254   5.625   7.983   6.596 -0.3213  0.1219 -0.4479
14772TIP3    H144255   5.652   8.072   6.618 -0.7643  0.2232 -0.3136
14772TIP3    H244256   5.685   7.927   6.645 -2.3354  0.3231  2.3659
14773TIP3   OH244257   0.444   0.933   6.667 -0.3627  0.2586  0.3126
14773TIP3    H144258   0.352   0.939   6.640 -0.5203 -0.5839  0.6763
14773TIP3    H244259   0.479   0.862   6.614 -0.2351 -0.2578  1.0927
14774TIP3   OH244260   4.838   7.378   6.845 -0.3784 -0.5574 -0.1612
14774TIP3    H144261   4.780   7.353   6.773 -0.0441  0.9009 -0.9319
14774TIP3    H244262   4.882   7.296   6.869 -1.6686 -1.3804 -0.5359
14775TIP3   OH244263   5.703   0.035   5.537 -0.4268 -0.2802  0.0451
14775TIP3    H144264   5.648  -0.020   5.481 -1.1575 -0.4952  0.9725
14775TIP3    H244265   5.788  -0.008   5.537 -0.3541 -0.1698 -1.0616
14776TIP3   OH244266   7.975  -0.003   5.625  0.1288 -0.3207  0.5252
14776TIP3    H144267   7.981   0.029   5.715 -0.9768 -0.4105  0.6401
14776TIP3    H244268   7.957   0.075   5.573  1.4546 -0.1671  0.2905
14777TIP3   OH244269   7.768   3.987   2.721  0.3131  0.5372  0.0311
14777TIP3    H144270   7.784   3.962   2.630 -1.7661 -2.2146  0.3566
14777TIP3    H244271   7.753   4.082   2.718  3.1959  1.0071 -2.0184
14778TIP3   OH244272   0.230   1.159   6.406  0.0061  0.1679 -0.0007
14778TIP3    H144273   0.310   1.181   6.454  0.5954 -2.6553  0.3580
14778TIP3    H244274   0.167   1.136   6.474 -0.9143  1.6099 -0.3291
14779TIP3   OH244275   2.635   3.255   0.390 -0.0782  0.0734  0.4775
14779TIP3    H144276   2.547   3.293   0.394  0.0632  0.5410 -0.6689
14779TIP3    H244277   2.689   3.324   0.351  1.0828  0.2917  2.4031
14780TIP3   OH244278   0.951   5.258   0.328 -0.3568 -0.5429  0.1903
14780TIP3    H144279   1.016   5.327   0.334  1.7326 -2.2149 -1.9570
14780TIP3    H244280   0.901   5.279   0.249  0.0845 -1.2731 -0.2963
14781TIP3   OH244281   0.765   5.599   0.485  0.3003 -0.6822  0.0715
14781TIP3    H144282   0.677   5.636   0.492  0.1411 -0.9675 -0.4228
14781TIP3    H244283   0.765   5.554   0.401  1.0005 -0.4715 -0.0405
14782TIP3   OH244284   3.879   7.877   5.048 -0.5468  0.4339 -0.4939
14782TIP3    H144285   3.810   7.935   5.017 -1.6666  1.1739  3.1748
14782TIP3    H244286   3.834   7.797   5.074  0.2302  0.1458 -0.0055
14783TIP3   OH244287   0.090   3.770   1.461 -0.2402  0.3990 -0.2938
14783TIP3    H144288   0.177   3.806   1.440 -0.7717  1.3893 -0.8165
14783TIP3    H244289   0.029   3.829   1.418 -1.1767 -0.4265 -0.1014
14784TIP3   OH244290   6.050   1.084   5.840 -0.1633  0.3728  0.1623
14784TIP3    H144291   6.088   1.017   5.897 -0.8759 -0.4526 -0.3290
14784TIP3    H244292   6.100   1.077   5.758  0.9215  1.6203  0.7096
14785TIP3   OH244293   4.971   7.176   5.453 -0.1621  0.2565  0.0790
14785TIP3    H144294   4.877   7.185   5.437 -0.2038 -1.4165 -0.6740
14785TIP3    H244295   4.980   7.188   5.548 -1.2794 -0.7839  0.3236
14786TIP3   OH244296   3.133   3.085   0.520 -0.0454 -0.1874  0.3485
14786TIP3    H144297   3.215   3.105   0.473 -0.8060  0.6788 -0.6422
14786TIP3    H244298   3.104   3.002   0.481  0.9510 -1.1158  1.5290
14787TIP3   OH244299   1.755   5.741   0.879  0.3163 -0.0355  0.2863
14787TIP3    H144300   1.683   5.774   0.824  0.6022  1.2204  0.6546
14787TIP3    H244301   1.729   5.764   0.968 -0.7599 -3.1803  0.8722
14788TIP3   OH244302   1.002   0.539   6.569  0.0260 -0.3669 -0.9070
14788TIP3    H144303   0.914   0.550   6.534  0.4204 -1.4269 -2.2922
14788TIP3    H244304   1.014   0.444   6.575  1.2795 -0.2501 -1.3057
14789TIP3   OH244305   5.248   0.640   6.202  0.5315 -0.0879  0.0888
14789TIP3    H144306   5.324   0.586   6.224  0.1475 -0.5959  0.1804
14789TIP3    H244307   5.246   0.640   6.106  0.2483 -0.6392  0.0923
14790TIP3   OH244308   0.902   5.415   0.667  0.0304 -0.0899 -0.2353
14790TIP3    H144309   0.844   5.342   0.691  1.8009 -1.4313  0.0736
14790TIP3    H244310   0.854   5.461   0.598 -1.0928 -1.6210 -0.5178
14791TIP3   OH244311   2.227   4.870   1.185  0.1259 -0.9349  0.1596
14791TIP3    H144312   2.265   4.944   1.231 -1.9938 -0.6971  1.5783
14791TIP3    H244313   2.196   4.907   1.102  3.4073 -1.2492 -1.2772
14792TIP3   OH244314   6.975   6.138   1.175 -0.0231 -0.1323  0.4632
14792TIP3    H144315   6.981   6.063   1.233  0.8383  0.7271  1.5191
14792TIP3    H244316   7.007   6.106   1.090 -1.5108 -1.4490  0.3811
14793TIP3   OH244317   0.916   4.266   1.259  0.2822 -0.3767  0.5886
14793TIP3    H144318   0.979   4.281   1.329  0.9823 -0.1210 -0.0983
14793TIP3    H244319   0.968   4.236   1.185 -0.5378 -1.3648  0.3919
14794TIP3   OH244320   4.695   7.962   5.413  0.3496 -0.3703 -0.2236
14794TIP3    H144321   4.631   7.998   5.475  1.3368  0.3799  0.3634
14794TIP3    H244322   4.704   8.030   5.346  0.7164 -0.3914 -0.1909
14795TIP3   OH244323   1.359   2.724   0.860 -0.5654 -0.6044 -0.8194
14795TIP3    H144324   1.365   2.629   0.864 -0.5961 -0.5041  3.5887
14795TIP3    H244325   1.437   2.755   0.905 -1.0653  1.4487 -1.3260
14796TIP3   OH244326   6.281   0.133   6.219  0.6891 -0.0511 -0.3701
14796TIP3    H144327   6.206   0.189   6.240  0.9553  0.3671 -0.5133
14796TIP3    H244328   6.278   0.125   6.123  1.4565  0.8679 -0.4758
14797TIP3   OH244329   3.046   3.301   5.469 -0.0775 -0.2983  0.4928
14797TIP3    H144330   3.091   3.385   5.469 -0.1126 -0.2651  2.0021
14797TIP3    H244331   3.100   3.245   5.525  0.3212 -1.4901 -1.0707
14798TIP3   OH244332   4.261   6.265   6.286  0.1406 -0.4433 -0.1871
14798TIP3    H144333   4.212   6.320   6.225  0.0359 -1.7855 -1.3324
14798TIP3    H244334   4.313   6.327   6.338 -0.2964  0.7563 -1.1569
14799TIP3   OH244335   1.928   3.957   0.364  0.0522 -0.0339 -0.3121
14799TIP3    H144336   1.969   3.872   0.377 -0.2428 -0.1387 -0.0527
14799TIP3    H244337   1.931   3.971   0.270  1.5258  0.3856 -0.2092
14800TIP3   OH244338   6.499   1.051   6.276  0.1789  0.6341 -0.4805
14800TIP3    H144339   6.516   1.118   6.342  1.6208 -0.0995 -0.0771
14800TIP3    H244340   6.419   1.079   6.232 -0.3410  1.5410  1.0490
14801TIP3   OH244341   7.844   6.953   1.096  1.0836  0.0185  0.7859
14801TIP3    H144342   7.808   6.990   1.016 -1.0093 -0.6244  1.3836
14801TIP3    H244343   7.801   7.001   1.166  2.0591 -0.1827  1.5293
14802TIP3   OH244344   5.149   6.334   5.362 -0.4619  0.4533 -0.2899
14802TIP3    H144345   5.241   6.363   5.364 -0.8782  1.6976  1.0399
14802TIP3    H244346   5.101   6.408   5.326 -0.8975 -0.4006 -1.5094
14803TIP3   OH244347   5.219   1.407   2.989 -0.1502  0.2713 -0.0406
14803TIP3    H144348   5.145   1.350   2.967 -0.6272  1.5220 -1.7174
14803TIP3    H244349   5.286   1.385   2.925  0.5571 -0.0879  0.8089
14804TIP3   OH244350   1.567   1.191   6.694 -0.2937  0.2999 -0.5680
14804TIP3    H144351   1.491   1.198   6.752 -0.7428 -1.4517 -0.9136
14804TIP3    H244352   1.641   1.173   6.753 -0.4262  0.3238 -0.3946
14805TIP3   OH244353   6.782   1.645   6.850 -0.2003  0.3930  0.2540
14805TIP3    H144354   6.853   1.604   6.899 -0.0662 -1.4631 -1.4209
14805TIP3    H244355   6.737   1.700   6.914 -1.4992 -3.7156  3.1225
14806TIP3   OH244356   8.000   0.846   5.857 -0.1144 -0.0589  0.3313
14806TIP3    H144357   7.927   0.790   5.881  0.2206 -0.7496 -0.2553
14806TIP3    H244358   8.057   0.791   5.803 -0.7179  1.3633 -1.8349
14807TIP3   OH244359   2.848   6.350   0.151  0.1792  0.1679  0.2598
14807TIP3    H144360   2.792   6.367   0.227  0.3081  1.2365  0.1255
14807TIP3    H244361   2.790   6.362   0.075  0.4379  0.7312  0.1426
14808TIP3   OH244362   2.779   2.494   0.154 -0.3023 -0.4352  0.5243
14808TIP3    H144363   2.846   2.454   0.210  2.2833 -0.2604 -2.3327
14808TIP3    H244364   2.827   2.557   0.100 -3.0026  0.6918 -0.6623
14809TIP3   OH244365   8.379   0.710   4.046 -0.2008 -0.4616 -0.1429
14809TIP3    H144366   8.339   0.650   3.984  1.2520 -0.5206 -1.0345
14809TIP3    H244367   8.432   0.654   4.103 -0.2701 -0.2256  0.1565
14810TIP3   OH244368   8.268   0.367   5.988  0.5732  0.4279  0.6960
14810TIP3    H144369   8.292   0.277   6.010 -1.3253 -0.2586  0.0829
14810TIP3    H244370   8.244   0.407   6.071  0.6176  0.1248  0.8532
14811TIP3   OH244371   8.159   2.402   2.445 -0.1991  0.4446 -0.2776
14811TIP3    H144372   8.075   2.427   2.407 -0.5073  0.7184  0.5669
14811TIP3    H244373   8.204   2.356   2.374 -0.3903  1.7214 -1.2517
14812TIP3   OH244374   5.718   7.254   6.121  0.4873 -0.1190 -0.0473
14812TIP3    H144375   5.754   7.281   6.037 -1.0930  0.8180 -0.4462
14812TIP3    H244376   5.704   7.160   6.112 -1.0314  0.2155 -1.3702
14813TIP3   OH244377   7.159   1.082   4.525 -0.2027 -0.3796  0.0826
14813TIP3    H144378   7.149   1.143   4.597 -3.2523 -0.1089 -0.5047
14813TIP3    H244379   7.124   1.128   4.449  0.8959 -1.4886 -1.1283
14814TIP3   OH244380   2.838   3.727   1.009 -0.4738  0.2301  0.1199
14814TIP3    H144381   2.862   3.795   0.946 -2.0909  0.3558 -0.3735
14814TIP3    H244382   2.772   3.674   0.964 -0.7635 -0.4030  1.2632
14815TIP3   OH244383   1.138   2.869   0.265  0.1896  0.3362  0.3083
14815TIP3    H144384   1.230   2.867   0.289  0.2945 -0.9884 -0.1500
14815TIP3    H244385   1.132   2.934   0.195  0.8804 -0.0038 -0.0710
14816TIP3   OH244386   6.034   0.761   6.426  0.2428  0.2467 -0.2004
14816TIP3    H144387   5.968   0.828   6.444 -0.3995 -0.5405  0.3886
14816TIP3    H244388   5.987   0.678   6.432  1.9395 -0.5505  3.4910
14817TIP3   OH244389   1.899   2.608   0.213  0.3709 -0.0509 -0.4519
14817TIP3    H144390   1.858   2.639   0.294  1.9776  0.8167  0.0500
14817TIP3    H244391   1.827   2.603   0.150 -0.8539 -0.4705  0.9468
14818TIP3   OH244392   7.061   0.385   6.314 -0.0426  0.3958  0.6460
14818TIP3    H144393   7.104   0.361   6.396  1.0494  0.5755  0.1247
14818TIP3    H244394   7.123   0.362   6.246 -1.9313 -2.1001 -0.3213
14819TIP3   OH244395   3.944   8.031   5.467 -0.3804 -0.2049  0.4625
14819TIP3    H144396   3.865   7.981   5.445 -1.0580  0.7677  0.6534
14819TIP3    H244397   3.991   7.975   5.530 -1.1542 -0.5848  0.7089
14820TIP3   OH244398   6.526   1.744   6.421 -0.2454  0.0755 -0.0567
14820TIP3    H144399   6.607   1.732   6.470  0.4770  0.0298 -1.2303
14820TIP3    H244400   6.464   1.685   6.463  0.6019 -0.6181  0.2531
14821TIP3   OH244401   0.306   0.821   3.197  0.2883 -0.2929 -0.7551
14821TIP3    H144402   0.293   0.736   3.156  3.0412 -0.3959 -1.4916
14821TIP3    H244403   0.328   0.801   3.288  0.3161 -0.3405 -0.7723
14822TIP3   OH244404   2.795   3.374   1.385  0.1892  0.5029 -0.4649
14822TIP3    H144405   2.865   3.310   1.401  0.3749  0.7479 -0.3057
14822TIP3    H244406   2.734   3.328   1.327 -0.8810 -0.6705  1.5430
14823TIP3   OH244407   7.619   2.164   5.588 -0.0359 -0.0772 -0.6345
14823TIP3    H144408   7.561   2.134   5.658  0.1712  0.4215 -0.2490
14823TIP3    H244409   7.566   2.223   5.536 -0.4075 -1.0148 -1.3244
14824TIP3   OH244410   0.058   0.479   5.270  0.2438 -0.0196 -0.0992
14824TIP3    H144411   0.127   0.437   5.321 -0.4406 -1.2133 -0.1369
14824TIP3    H244412  -0.023   0.460   5.318 -0.2603 -0.1060 -0.9750
14825TIP3   OH244413   0.066   0.078   5.724 -0.6037  0.5440  0.2913
14825TIP3    H144414   0.105   0.062   5.638 -0.6226  1.9726  0.0170
14825TIP3    H244415  -0.027   0.055   5.713 -0.5462  0.4414  0.0185
14826TIP3   OH244416   2.266   5.804   0.590  0.0953  0.0796 -0.0146
14826TIP3    H144417   2.312   5.843   0.665 -0.7006 -0.2437  0.6526
14826TIP3    H244418   2.214   5.875   0.554 -0.1279  0.0433  0.2292
   8.50000   8.01388   6.94022   0.00000   0.00000  -2.83333   0.00000  -2.83333  -4.00694
